                         Program Version 4.2.1 -  RELEASE  -
|  1> %pal
|  2>  nprocs 32
|  3> end
|  4> !RI-MP2 aug-cc-pVQZ aug-cc-pVQZ/C TightSCF
|  5> %maxcore 4500
|  6> *xyzfile 0 1  10_37R.xyz
|  7>
|  8>
|  9>                          ****END OF INPUT****

CARTESIAN COORDINATES (ANGSTROEM)
---------------------------------
  C      0.695059   -2.829518    1.049688
  N      1.656478   -2.080577    0.259680
  C     -0.620455   -2.091440    1.180080
  C      0.344572   -0.069065    0.075508
  H      0.497568    0.173524   -0.978521
  H      0.123442    0.872769    0.584127
  C     -1.972827   -0.846476   -0.492898
  C     -1.477795   -2.374312    2.156759
  C     -3.066456   -1.821045   -0.504203
  C     -4.305915   -1.616639   -0.948355
  C     -0.829613   -1.003095    0.204740
  C     -5.373163   -2.662723   -0.964445
  H     -5.015486   -3.609540   -0.555810
  H     -6.242927   -2.344788   -0.381610
  H     -5.728418   -2.844094   -1.983362
  H      1.087230   -3.044294    2.059302
  C      1.633762   -0.673441    0.644910
  H      0.521960   -3.790558    0.554876
  S     -2.174513    0.573443   -1.567594
  C      2.970627   -2.688853    0.290913
  C      2.843056    0.099873    0.164546
  H      1.611715   -0.593041    1.748190
  C      3.897511   -0.523271   -0.499675
  C      3.869384   -2.011357   -0.725444
  H      4.882743   -2.415775   -0.663048
  H      3.492409   -2.228470   -1.729527
  H      2.860348   -3.750013    0.054923
  H      3.422147   -2.624226    1.298218
  C      2.901851    1.474064    0.397577
  C      4.978911    0.242598   -0.932187
  C      5.024079    1.607770   -0.711336
  C      3.978683    2.226780   -0.036485
  H      4.005213    3.293022    0.153252
  H      2.090827    1.962254    0.925811
  H      5.799004   -0.248886   -1.445035
  H      5.873191    2.186727   -1.054052
  C     -2.022001    1.935534   -0.428467
  C     -2.601310    1.899900    0.836978
  C     -1.332582    3.071164   -0.839726
  C     -1.226195    4.165285    0.008635
  C     -1.788862    4.125020    1.275973
  C     -2.473293    2.987077    1.686809
  H     -0.864817    3.089456   -1.816614
  H     -0.686374    5.045426   -0.319705
  H     -3.141325    1.017189    1.155653
  H     -1.695349    4.974213    1.941642
  H     -2.919226    2.948948    2.673596
  H     -2.415416   -1.843535    2.256823
  H     -1.259522   -3.142932    2.890261
  H     -4.574216   -0.635941   -1.328840
  H     -2.810005   -2.801457   -0.116185

 Total Charge           Charge          ....    0
 Multiplicity           Mult            ....    1
 Number of Electrons    NEL             ....  192
 Basis Dimension        Dim             .... 3234

ORBITAL ENERGIES
----------------

  NO   OCC          E(Eh)            E(eV)
   0   2.0000     -91.949546     -2502.0744
   1   2.0000     -15.547336      -423.0645
   2   2.0000     -11.264239      -306.5155
   3   2.0000     -11.260627      -306.4172
   4   2.0000     -11.257790      -306.3400
   5   2.0000     -11.257558      -306.3337
   6   2.0000     -11.250430      -306.1398
   7   2.0000     -11.245943      -306.0177
   8   2.0000     -11.244814      -305.9870
   9   2.0000     -11.237586      -305.7903
  10   2.0000     -11.237336      -305.7835
  11   2.0000     -11.235261      -305.7270
  12   2.0000     -11.234887      -305.7168
  13   2.0000     -11.234076      -305.6948
  14   2.0000     -11.233955      -305.6914
  15   2.0000     -11.232724      -305.6580
  16   2.0000     -11.227559      -305.5174
  17   2.0000     -11.226764      -305.4958
  18   2.0000     -11.225760      -305.4685
  19   2.0000     -11.225295      -305.4558
  20   2.0000     -11.224568      -305.4360
  21   2.0000     -11.223918      -305.4183
  22   2.0000     -11.223360      -305.4031
  23   2.0000     -11.222586      -305.3821
  24   2.0000     -11.219962      -305.3107
  25   2.0000     -11.217896      -305.2545
  26   2.0000      -8.951776      -243.5902
  27   2.0000      -6.633368      -180.5031
  28   2.0000      -6.632430      -180.4776
  29   2.0000      -6.631747      -180.4590
  30   2.0000      -1.256950       -34.2033
  31   2.0000      -1.166558       -31.7436
  32   2.0000      -1.156845       -31.4793
  33   2.0000      -1.137062       -30.9410
  34   2.0000      -1.085215       -29.5302
  35   2.0000      -1.065627       -28.9972
  36   2.0000      -1.055786       -28.7294
  37   2.0000      -1.049074       -28.5468
  38   2.0000      -1.021495       -27.7963
  39   2.0000      -1.017115       -27.6771
  40   2.0000      -0.998686       -27.1756
  41   2.0000      -0.971432       -26.4340
  42   2.0000      -0.933481       -25.4013
  43   2.0000      -0.926098       -25.2004
  44   2.0000      -0.899763       -24.4838
  45   2.0000      -0.859298       -23.3827
  46   2.0000      -0.835730       -22.7414
  47   2.0000      -0.833068       -22.6689
  48   2.0000      -0.817044       -22.2329
  49   2.0000      -0.809257       -22.0210
  50   2.0000      -0.789972       -21.4962
  51   2.0000      -0.755900       -20.5691
  52   2.0000      -0.740909       -20.1612
  53   2.0000      -0.705426       -19.1956
  54   2.0000      -0.694518       -18.8988
  55   2.0000      -0.682357       -18.5679
  56   2.0000      -0.671059       -18.2605
  57   2.0000      -0.659698       -17.9513
  58   2.0000      -0.649066       -17.6620
  59   2.0000      -0.635400       -17.2901
  60   2.0000      -0.631825       -17.1928
  61   2.0000      -0.628507       -17.1025
  62   2.0000      -0.616375       -16.7724
  63   2.0000      -0.607691       -16.5361
  64   2.0000      -0.596708       -16.2373
  65   2.0000      -0.594436       -16.1754
  66   2.0000      -0.591270       -16.0893
  67   2.0000      -0.585682       -15.9372
  68   2.0000      -0.569600       -15.4996
  69   2.0000      -0.565337       -15.3836
  70   2.0000      -0.562912       -15.3176
  71   2.0000      -0.556142       -15.1334
  72   2.0000      -0.552810       -15.0427
  73   2.0000      -0.539250       -14.6737
  74   2.0000      -0.530307       -14.4304
  75   2.0000      -0.526840       -14.3361
  76   2.0000      -0.522934       -14.2298
  77   2.0000      -0.521092       -14.1796
  78   2.0000      -0.510912       -13.9026
  79   2.0000      -0.506041       -13.7701
  80   2.0000      -0.500309       -13.6141
  81   2.0000      -0.490009       -13.3338
  82   2.0000      -0.481027       -13.0894
  83   2.0000      -0.475524       -12.9397
  84   2.0000      -0.459644       -12.5076
  85   2.0000      -0.457871       -12.4593
  86   2.0000      -0.442780       -12.0487
  87   2.0000      -0.417638       -11.3645
  88   2.0000      -0.388663       -10.5761
  89   2.0000      -0.376026       -10.2322
  90   2.0000      -0.359843        -9.7918
  91   2.0000      -0.343497        -9.3470
  92   2.0000      -0.327545        -8.9130
  93   2.0000      -0.320548        -8.7226
  94   2.0000      -0.317649        -8.6437
  95   2.0000      -0.282924        -7.6987
  96   0.0000       0.019783         0.5383
  97   0.0000       0.022954         0.6246
  98   0.0000       0.023860         0.6493
  99   0.0000       0.027613         0.7514
 100   0.0000       0.031666         0.8617

MULLIKEN ATOMIC CHARGES
-----------------------
   0 C :   -0.293761
   1 N :   -0.084118
   2 C :    0.259054
   3 C :   -0.142083
   4 H :    0.547320
   5 H :    0.172460
   6 C :   -0.308208
   7 C :   -1.164510
   8 C :   -0.562965
   9 C :   -0.368493
  10 C :    0.678488
  11 C :   -0.862217
  12 H :    0.260097
  13 H :    0.275829
  14 H :    0.289619
  15 H :    0.177492
  16 C :    1.411868
  17 H :    0.337840
  18 S :   -0.544492
  19 C :   -0.867031
  20 C :    0.675757
  21 H :    0.288567
  22 C :    0.177259
  23 C :   -0.715320
  24 H :    0.189546
  25 H :    0.201632
  26 H :    0.237382
  27 H :    0.261282
  28 C :   -0.903328
  29 C :   -0.689021
  30 C :   -0.399174
  31 C :   -0.520470
  32 H :    0.202607
  33 H :    0.162176
  34 H :    0.230733
  35 H :    0.260728
  36 C :    0.480868
  37 C :   -0.455915
  38 C :   -0.451500
  39 C :   -0.331330
  40 C :   -0.245686
  41 C :   -0.285470
  42 H :    0.318332
  43 H :    0.221067
  44 H :    0.367235
  45 H :    0.358664
  46 H :    0.167298
  47 H :    0.210478
  48 H :    0.193987
  49 H :    0.349377
  50 H :    0.230047
Sum of atomic charges:    0.0000000

LOEWDIN ATOMIC CHARGES
----------------------
   0 C :    0.333277
   1 N :    0.532629
   2 C :   -0.061879
   3 C :    0.458762
   4 H :   -0.296719
   5 H :   -0.309163
   6 C :   -0.420283
   7 C :    0.819618
   8 C :    0.253133
   9 C :    0.349850
  10 C :   -0.126118
  11 C :    0.896977
  12 H :   -0.313244
  13 H :   -0.293724
  14 H :   -0.292561
  15 H :   -0.269884
  16 C :   -0.042213
  17 H :   -0.265500
  18 S :    1.386986
  19 C :    0.354666
  20 C :   -0.029360
  21 H :   -0.253350
  22 C :   -0.036322
  23 C :    0.526085
  24 H :   -0.274312
  25 H :   -0.254752
  26 H :   -0.272261
  27 H :   -0.239959
  28 C :    0.362423
  29 C :    0.359132
  30 C :    0.349900
  31 C :    0.358313
  32 H :   -0.319430
  33 H :   -0.313223
  34 H :   -0.312771
  35 H :   -0.320703
  36 C :   -0.490639
  37 C :    0.253441
  38 C :    0.235623
  39 C :    0.333983
  40 C :    0.335460
  41 C :    0.344850
  42 H :   -0.337108
  43 H :   -0.319073
  44 H :   -0.337503
  45 H :   -0.322265
  46 H :   -0.316797
  47 H :   -0.334344
  48 H :   -0.317858
  49 H :   -0.376853
  50 H :   -0.374933

  Mayer bond orders larger than 0.100000
B(  0-C ,  1-N ) :   0.8865 B(  0-C ,  2-C ) :   0.4402 B(  0-C ,  7-C ) :  -0.3068
B(  0-C , 10-C ) :  -0.2706 B(  0-C , 15-H ) :   1.1733 B(  0-C , 17-H ) :   0.9392
B(  1-N ,  3-C ) :   0.2307 B(  1-N , 15-H ) :  -0.1567 B(  1-N , 16-C ) :   0.3741
B(  1-N , 19-C ) :   0.7373 B(  1-N , 21-H ) :  -0.1367 B(  1-N , 27-H ) :  -0.1232
B(  2-C ,  3-C ) :  -0.1506 B(  2-C ,  6-C ) :  -0.1550 B(  2-C ,  7-C ) :   1.5609
B(  2-C , 10-C ) :   0.5914 B(  2-C , 15-H ) :  -0.1409 B(  2-C , 17-H ) :  -0.1060
B(  2-C , 20-C ) :   0.1019 B(  2-C , 47-H ) :  -0.1406 B(  2-C , 48-H ) :  -0.1762
B(  3-C ,  4-H ) :   0.8356 B(  3-C ,  5-H ) :   0.6958 B(  3-C ,  6-C ) :  -0.8629
B(  3-C , 10-C ) :   0.2871 B(  3-C , 16-C ) :   1.0546 B(  3-C , 18-S ) :   0.1441
B(  3-C , 21-H ) :   0.1497 B(  3-C , 28-C ) :   0.1085 B(  3-C , 36-C ) :   0.1204
B(  4-H ,  6-C ) :  -0.1144 B(  4-H , 18-S ) :  -0.1287 B(  4-H , 20-C ) :  -0.1148
B(  5-H ,  6-C ) :   0.2105 B(  5-H , 10-C ) :   0.1897 B(  5-H , 18-S ) :   0.1336
B(  5-H , 37-C ) :  -0.1361 B(  6-C ,  8-C ) :   1.0700 B(  6-C ,  9-C ) :  -0.2694
B(  6-C , 10-C ) :   2.1529 B(  6-C , 16-C ) :   0.1416 B(  6-C , 18-S ) :   0.6864
B(  6-C , 37-C ) :  -0.1443 B(  7-C , 10-C ) :  -0.2666 B(  7-C , 47-H ) :   1.1893
B(  7-C , 48-H ) :   1.1765 B(  8-C ,  9-C ) :   1.3845 B(  8-C , 10-C ) :  -0.4871
B(  8-C , 11-C ) :  -0.2241 B(  8-C , 12-H ) :   0.1215 B(  8-C , 18-S ) :   0.1223
B(  8-C , 50-H ) :   0.8963 B(  9-C , 11-C ) :   0.7861 B(  9-C , 12-H ) :  -0.1017
B(  9-C , 13-H ) :  -0.1190 B(  9-C , 14-H ) :  -0.1244 B(  9-C , 49-H ) :   0.8807
B( 10-C , 15-H ) :   0.1275 B( 10-C , 18-S ) :  -0.3787 B( 10-C , 20-C ) :  -0.1471
B( 10-C , 36-C ) :  -0.2322 B( 11-C , 12-H ) :   0.9817 B( 11-C , 13-H ) :   0.9985
B( 11-C , 14-H ) :   1.0024 B( 16-C , 19-C ) :  -0.2084 B( 16-C , 21-H ) :   0.8515
B( 16-C , 22-C ) :  -0.4120 B( 16-C , 28-C ) :  -0.6797 B( 18-S , 36-C ) :   0.6646
B( 18-S , 37-C ) :  -0.2664 B( 18-S , 38-C ) :  -0.1535 B( 19-C , 20-C ) :   0.1148
B( 19-C , 23-C ) :   1.2239 B( 19-C , 24-H ) :  -0.1002 B( 19-C , 26-H ) :   1.0172
B( 19-C , 27-H ) :   0.9763 B( 20-C , 22-C ) :   1.0064 B( 20-C , 23-C ) :  -0.1615
B( 20-C , 28-C ) :   0.9278 B( 20-C , 29-C ) :  -0.6051 B( 20-C , 31-C ) :  -0.3851
B( 22-C , 23-C ) :   0.3506 B( 22-C , 24-H ) :  -0.1773 B( 22-C , 28-C ) :  -0.1237
B( 22-C , 29-C ) :   1.0981 B( 22-C , 30-C ) :  -0.2819 B( 22-C , 34-H ) :  -0.1243
B( 23-C , 24-H ) :   1.1587 B( 23-C , 25-H ) :   1.0541 B( 28-C , 29-C ) :   0.1737
B( 28-C , 31-C ) :   1.1752 B( 28-C , 32-H ) :  -0.1922 B( 28-C , 33-H ) :   1.2188
B( 29-C , 30-C ) :   1.3278 B( 29-C , 31-C ) :   0.2004 B( 29-C , 34-H ) :   1.0707
B( 29-C , 35-H ) :  -0.1967 B( 30-C , 31-C ) :   1.2073 B( 30-C , 35-H ) :   1.1586
B( 31-C , 32-H ) :   1.2164 B( 31-C , 35-H ) :  -0.1516 B( 36-C , 37-C ) :   0.7138
B( 36-C , 38-C ) :   0.9809 B( 36-C , 39-C ) :  -0.2446 B( 36-C , 41-C ) :  -0.3120
B( 37-C , 41-C ) :   1.2725 B( 37-C , 44-H ) :   0.8789 B( 38-C , 39-C ) :   1.3681
B( 38-C , 41-C ) :   0.2073 B( 38-C , 42-H ) :   0.9598 B( 38-C , 43-H ) :  -0.1077
B( 39-C , 40-C ) :   1.0940 B( 39-C , 43-H ) :   1.1595 B( 40-C , 41-C ) :   1.2004
B( 40-C , 45-H ) :   0.9933 B( 41-C , 46-H ) :   1.1908

MP2 TOTAL ENERGY:    -1380.259929180 Eh
FINAL SINGLE POINT ENERGY     -1380.259929180434

DIPOLE MOMENT
-------------
                                X             Y             Z
Electronic contribution:      1.27840      10.15155      -5.22894
Nuclear contribution   :     -1.01144     -10.41452       5.99186
                        -----------------------------------------
Total Dipole Moment    :      0.26697      -0.26296       0.76292
                        -----------------------------------------
Magnitude (a.u.)       :      0.84998
Magnitude (Debye)      :      2.16048

Rotational constants in cm-1:     0.008441     0.004960     0.003597
Rotational constants in MHz :   253.054606   148.691582   107.833124

                             ****ORCA TERMINATED NORMALLY****
TOTAL RUN TIME: 0 days 18 hours 7 minutes 15 seconds 176 msec
