                         Program Version 4.2.1 -  RELEASE  -
|  1> %pal
|  2>  nprocs 32
|  3> end
|  4> !RI-MP2 aug-cc-pVQZ aug-cc-pVQZ/C TightSCF
|  5> %maxcore 4500
|  6> *xyzfile 0 1  10_84P.xyz
|  7>
|  8>
|  9>                          ****END OF INPUT****

CARTESIAN COORDINATES (ANGSTROEM)
---------------------------------
  C      0.231234   -1.426783    1.053477
  C     -0.362081   -0.505607    0.018946
  C      0.503846    0.558579   -0.630939
  C      1.981922    0.090485   -0.707506
  C      2.035463   -1.225089   -1.464206
  C      1.894303   -2.237040   -0.615478
  C      1.724848   -1.699168    0.794874
  H      0.112566   -0.943027    2.029936
  H     -0.340331   -2.355163    1.093134
  H      2.120284   -2.351762    1.573469
  C      2.445900   -0.350590    0.684691
  H      1.812640   -3.284207   -0.877433
  H      2.088758   -1.297118   -2.543061
  C     -1.665676   -0.592767   -0.314306
  H      3.527649   -0.491839    0.694615
  H      2.175013    0.353041    1.473148
  H      2.592198    0.877637   -1.149306
  C     -0.622861    2.138801    2.453944
  C     -2.255647    0.305280   -1.259589
  C     -2.536344   -1.559998    0.279784
  N     -2.707406    1.037247   -2.020518
  N     -3.226444   -2.340224    0.763524
  C     -0.120287    2.028706    1.260259
  C      0.358256    1.912297    0.055376
  C      0.777501    3.111165   -0.755019
  H      1.825536    3.039787   -1.056674
  H      0.173402    3.175934   -1.664186
  H      0.647750    4.030891   -0.187346
  H      0.143574    0.696676   -1.654791
  H     -1.689321    2.271923    2.603204
  H      0.004964    2.108436    3.338402

 Total Charge           Charge          ....    0
 Multiplicity           Mult            ....    1
 Number of Electrons    NEL             ....  118
 Basis Dimension        Dim             .... 2004

ORBITAL ENERGIES
----------------

  NO   OCC          E(Eh)            E(eV)
   0   2.0000     -15.578569      -423.9144
   1   2.0000     -15.577910      -423.8965
   2   2.0000     -11.320206      -308.0385
   3   2.0000     -11.308568      -307.7218
   4   2.0000     -11.285701      -307.0995
   5   2.0000     -11.284995      -307.0803
   6   2.0000     -11.277445      -306.8749
   7   2.0000     -11.266173      -306.5682
   8   2.0000     -11.260676      -306.4186
   9   2.0000     -11.260001      -306.4002
  10   2.0000     -11.259364      -306.3829
  11   2.0000     -11.257402      -306.3295
  12   2.0000     -11.247282      -306.0541
  13   2.0000     -11.246481      -306.0323
  14   2.0000     -11.244652      -305.9825
  15   2.0000     -11.240535      -305.8705
  16   2.0000     -11.239370      -305.8388
  17   2.0000      -1.247128       -33.9361
  18   2.0000      -1.228469       -33.4284
  19   2.0000      -1.211429       -32.9647
  20   2.0000      -1.146653       -31.2020
  21   2.0000      -1.121826       -30.5264
  22   2.0000      -1.054851       -28.7039
  23   2.0000      -1.032424       -28.0937
  24   2.0000      -1.005515       -27.3615
  25   2.0000      -0.983152       -26.7529
  26   2.0000      -0.922342       -25.0982
  27   2.0000      -0.887591       -24.1526
  28   2.0000      -0.857131       -23.3237
  29   2.0000      -0.790557       -21.5122
  30   2.0000      -0.771870       -21.0036
  31   2.0000      -0.746079       -20.3018
  32   2.0000      -0.739754       -20.1297
  33   2.0000      -0.696659       -18.9571
  34   2.0000      -0.676315       -18.4035
  35   2.0000      -0.646271       -17.5859
  36   2.0000      -0.635338       -17.2884
  37   2.0000      -0.621981       -16.9250
  38   2.0000      -0.618939       -16.8422
  39   2.0000      -0.601404       -16.3650
  40   2.0000      -0.588408       -16.0114
  41   2.0000      -0.574852       -15.6425
  42   2.0000      -0.573242       -15.5987
  43   2.0000      -0.570838       -15.5333
  44   2.0000      -0.558416       -15.1953
  45   2.0000      -0.555861       -15.1257
  46   2.0000      -0.550677       -14.9847
  47   2.0000      -0.541513       -14.7353
  48   2.0000      -0.513097       -13.9621
  49   2.0000      -0.494801       -13.4642
  50   2.0000      -0.491786       -13.3822
  51   2.0000      -0.489248       -13.3131
  52   2.0000      -0.488208       -13.2848
  53   2.0000      -0.480210       -13.0672
  54   2.0000      -0.465334       -12.6624
  55   2.0000      -0.394973       -10.7477
  56   2.0000      -0.388338       -10.5672
  57   2.0000      -0.375836       -10.2270
  58   2.0000      -0.357875        -9.7383
  59   0.0000       0.014252         0.3878
  60   0.0000       0.022297         0.6067
  61   0.0000       0.023073         0.6279
  62   0.0000       0.028680         0.7804
  63   0.0000       0.034478         0.9382

MULLIKEN ATOMIC CHARGES
-----------------------
   0 C :   -0.672051
   1 C :    0.989614
   2 C :    0.379895
   3 C :    0.206909
   4 C :   -0.678182
   5 C :   -0.553841
   6 C :   -0.110481
   7 H :    0.321126
   8 H :    0.195584
   9 H :    0.304227
  10 C :   -0.753373
  11 H :    0.267007
  12 H :    0.264949
  13 C :   -0.428670
  14 H :    0.209484
  15 H :    0.343942
  16 H :    0.302167
  17 C :   -0.827076
  18 C :    0.658234
  19 C :    0.592003
  20 N :   -0.955621
  21 N :   -0.967993
  22 C :   -0.289156
  23 C :    0.379978
  24 C :   -0.970074
  25 H :    0.263369
  26 H :    0.261421
  27 H :    0.315277
  28 H :    0.302153
  29 H :    0.326624
  30 H :    0.322555
Sum of atomic charges:   -0.0000000

LOEWDIN ATOMIC CHARGES
----------------------
   0 C :    0.537282
   1 C :   -0.081556
   2 C :    0.076448
   3 C :    0.126091
   4 C :    0.431403
   5 C :    0.428991
   6 C :    0.139413
   7 H :   -0.251247
   8 H :   -0.297541
   9 H :   -0.240501
  10 C :    0.525693
  11 H :   -0.272129
  12 H :   -0.270049
  13 C :   -0.211714
  14 H :   -0.236812
  15 H :   -0.261091
  16 H :   -0.259690
  17 C :    0.768178
  18 C :   -0.347680
  19 C :   -0.343379
  20 N :    0.465374
  21 N :    0.450517
  22 C :    0.203269
  23 C :   -0.079716
  24 C :    0.916644
  25 H :   -0.285195
  26 H :   -0.271117
  27 H :   -0.289969
  28 H :   -0.333382
  29 H :   -0.366989
  30 H :   -0.369546

  Mayer bond orders larger than 0.100000
B(  0-C ,  1-C ) :   0.4680 B(  0-C ,  2-C ) :  -0.1174 B(  0-C ,  6-C ) :   1.0268
B(  0-C ,  7-H ) :   0.8798 B(  0-C ,  8-H ) :   1.0880 B(  1-C ,  2-C ) :   0.6222
B(  1-C ,  5-C ) :   0.1447 B(  1-C ,  6-C ) :  -0.1365 B(  1-C ,  8-H ) :  -0.1965
B(  1-C , 13-C ) :   1.4247 B(  1-C , 18-C ) :  -0.5464 B(  1-C , 19-C ) :  -0.3509
B(  1-C , 22-C ) :   0.1057 B(  1-C , 28-H ) :  -0.1186 B(  2-C ,  3-C ) :   0.7089
B(  2-C ,  4-C ) :   0.1063 B(  2-C , 13-C ) :  -0.5966 B(  2-C , 16-H ) :  -0.1044
B(  2-C , 18-C ) :   0.1381 B(  2-C , 20-N ) :   0.1068 B(  2-C , 22-C ) :   0.1304
B(  2-C , 23-C ) :   0.3913 B(  2-C , 24-C ) :   0.1364 B(  2-C , 25-H ) :   0.1169
B(  2-C , 26-H ) :   0.1147 B(  2-C , 28-H ) :   0.8502 B(  3-C ,  4-C ) :   0.6995
B(  3-C ,  5-C ) :  -0.2532 B(  3-C , 10-C ) :   0.5454 B(  3-C , 16-H ) :   1.0669
B(  3-C , 23-C ) :   0.1200 B(  4-C ,  5-C ) :   1.5742 B(  4-C ,  6-C ) :  -0.1457
B(  4-C , 10-C ) :   0.1526 B(  4-C , 12-H ) :   1.1096 B(  4-C , 16-H ) :  -0.1179
B(  5-C ,  6-C ) :   0.9371 B(  5-C , 11-H ) :   1.1050 B(  6-C ,  9-H ) :   0.9480
B(  6-C , 10-C ) :   0.9732 B( 10-C , 14-H ) :   1.0277 B( 10-C , 15-H ) :   0.9221
B( 13-C , 18-C ) :   1.5497 B( 13-C , 19-C ) :   1.3694 B( 17-C , 22-C ) :   1.9104
B( 17-C , 23-C ) :  -0.4289 B( 17-C , 29-H ) :   0.9983 B( 17-C , 30-H ) :   1.0106
B( 18-C , 20-N ) :   2.0929 B( 19-C , 21-N ) :   2.0217 B( 22-C , 23-C ) :   1.2709
B( 22-C , 29-H ) :  -0.1448 B( 22-C , 30-H ) :  -0.1415 B( 23-C , 24-C ) :   0.2585
B( 23-C , 25-H ) :  -0.2263 B( 23-C , 26-H ) :  -0.1710 B( 24-C , 25-H ) :   1.0581
B( 24-C , 26-H ) :   1.0524 B( 24-C , 27-H ) :   1.0124

MP2 TOTAL ENERGY:     -688.191383183 Eh
FINAL SINGLE POINT ENERGY      -688.191383182772

DIPOLE MOMENT
-------------
                                X             Y             Z
Electronic contribution:    -12.50777      -5.48727      -3.08474
Nuclear contribution   :     15.11359       5.80579       3.65455
                        -----------------------------------------
Total Dipole Moment    :      2.60582       0.31852       0.56980
                        -----------------------------------------
Magnitude (a.u.)       :      2.68634
Magnitude (Debye)      :      6.82813

Rotational constants in cm-1:     0.018646     0.016438     0.012606
Rotational constants in MHz :   558.980101   492.801430   377.931558

                             ****ORCA TERMINATED NORMALLY****
TOTAL RUN TIME: 0 days 5 hours 4 minutes 10 seconds 528 msec
