                         Program Version 4.2.1 -  RELEASE  -
|  1> %pal
|  2>  nprocs 32
|  3> end
|  4> !RI-MP2 aug-cc-pVQZ aug-cc-pVQZ/C TightSCF
|  5> %maxcore 4500
|  6> *xyzfile 0 1  10_43R.xyz
|  7>
|  8>
|  9>                          ****END OF INPUT****

CARTESIAN COORDINATES (ANGSTROEM)
---------------------------------
  C     -0.114498   -2.591609   -0.405885
  H     -0.581837   -3.319622   -1.091710
  C      0.929545   -1.795482   -1.152948
  C     -0.313455    0.325631   -0.823835
  H     -0.425665    1.037071   -0.005703
  H     -0.371172    0.889338   -1.759071
  C     -1.488154   -0.667728   -0.749526
  H     -1.644391   -1.111516   -1.750025
  N     -1.107792   -1.714065    0.194347
  C      2.147976    0.222862   -0.301657
  C      1.630259   -2.313245   -2.153148
  C      3.406863   -0.529183   -0.086710
  C      3.559525   -1.505675    0.800924
  C      1.026817   -0.376281   -0.730791
  C      4.832207   -2.253863    1.039887
  H      5.145018   -2.185651    2.086031
  H      4.707995   -3.318003    0.815585
  H      5.641878   -1.869960    0.416268
  C     -2.220287   -2.452407    0.753864
  H     -2.823435   -2.938203   -0.035327
  H     -1.816906   -3.247408    1.385649
  C     -2.768984    0.043506   -0.369275
  C     -3.520986   -0.337251    0.740425
  C     -3.091006   -1.517028    1.570576
  H     -2.521400   -1.174334    2.439874
  H     -3.970161   -2.047309    1.945055
  H      0.368476   -3.158673    0.397343
  C     -4.680845    0.369843    1.053536
  H     -5.264468    0.065678    1.916087
  C     -3.207194    1.110339   -1.154075
  H     -2.636870    1.397688   -2.030188
  C     -5.099759    1.438615    0.281096
  H     -6.004446    1.975572    0.539521
  C     -4.359210    1.807529   -0.835594
  H     -4.682016    2.633574   -1.457669
  Si     2.237709    2.044836    0.214318
  C      1.530110    2.214180    1.946747
  H      2.073260    1.570558    2.642962
  H      1.612301    3.243510    2.306308
  H      0.476871    1.928297    1.986611
  C      4.046117    2.555237    0.244481
  H      4.505812    2.471109   -0.743757
  H      4.136918    3.597440    0.561945
  H      4.626935    1.942399    0.936579
  C      1.343035    3.202308   -0.969602
  H      1.610270    2.988212   -2.007565
  H      0.257597    3.144007   -0.882866
  H      1.635473    4.235174   -0.760631
  H      2.384393   -1.733033   -2.669198
  H      1.480445   -3.337952   -2.475913
  H      2.698433   -1.801241    1.396770
  H      4.278853   -0.207773   -0.654774

 Total Charge           Charge          ....    0
 Multiplicity           Mult            ....    1
 Number of Electrons    NEL             ....  176
 Basis Dimension        Dim             .... 3178

ORBITAL ENERGIES
----------------

  NO   OCC          E(Eh)            E(eV)
   0   2.0000     -68.741663     -1870.5557
   1   2.0000     -15.546166      -423.0327
   2   2.0000     -11.261418      -306.4388
   3   2.0000     -11.253380      -306.2200
   4   2.0000     -11.249980      -306.1275
   5   2.0000     -11.237094      -305.7769
   6   2.0000     -11.235389      -305.7305
   7   2.0000     -11.234154      -305.6969
   8   2.0000     -11.233742      -305.6856
   9   2.0000     -11.229340      -305.5659
  10   2.0000     -11.228589      -305.5454
  11   2.0000     -11.227675      -305.5206
  12   2.0000     -11.226905      -305.4996
  13   2.0000     -11.224508      -305.4344
  14   2.0000     -11.222952      -305.3920
  15   2.0000     -11.216486      -305.2161
  16   2.0000     -11.214738      -305.1685
  17   2.0000     -11.213764      -305.1420
  18   2.0000     -11.212187      -305.0991
  19   2.0000     -11.202466      -304.8346
  20   2.0000     -11.189168      -304.4727
  21   2.0000     -11.187590      -304.4298
  22   2.0000     -11.186758      -304.4072
  23   2.0000      -6.090408      -165.7284
  24   2.0000      -4.196968      -114.2053
  25   2.0000      -4.196833      -114.2016
  26   2.0000      -4.196715      -114.1984
  27   2.0000      -1.255204       -34.1558
  28   2.0000      -1.157837       -31.5064
  29   2.0000      -1.119562       -30.4648
  30   2.0000      -1.072100       -29.1733
  31   2.0000      -1.062116       -28.9016
  32   2.0000      -1.051108       -28.6021
  33   2.0000      -1.013356       -27.5748
  34   2.0000      -0.995620       -27.0922
  35   2.0000      -0.965319       -26.2677
  36   2.0000      -0.953612       -25.9491
  37   2.0000      -0.926520       -25.2119
  38   2.0000      -0.915936       -24.9239
  39   2.0000      -0.914438       -24.8831
  40   2.0000      -0.894631       -24.3442
  41   2.0000      -0.858158       -23.3517
  42   2.0000      -0.834421       -22.7058
  43   2.0000      -0.812362       -22.1055
  44   2.0000      -0.803713       -21.8701
  45   2.0000      -0.755998       -20.5717
  46   2.0000      -0.742527       -20.2052
  47   2.0000      -0.693929       -18.8828
  48   2.0000      -0.683879       -18.6093
  49   2.0000      -0.668544       -18.1920
  50   2.0000      -0.654828       -17.8188
  51   2.0000      -0.644374       -17.5343
  52   2.0000      -0.633041       -17.2259
  53   2.0000      -0.626556       -17.0495
  54   2.0000      -0.608172       -16.5492
  55   2.0000      -0.604257       -16.4427
  56   2.0000      -0.593619       -16.1532
  57   2.0000      -0.585140       -15.9225
  58   2.0000      -0.582307       -15.8454
  59   2.0000      -0.566862       -15.4251
  60   2.0000      -0.565039       -15.3755
  61   2.0000      -0.560571       -15.2539
  62   2.0000      -0.557967       -15.1831
  63   2.0000      -0.553929       -15.0732
  64   2.0000      -0.551872       -15.0172
  65   2.0000      -0.547851       -14.9078
  66   2.0000      -0.535860       -14.5815
  67   2.0000      -0.533958       -14.5297
  68   2.0000      -0.526648       -14.3308
  69   2.0000      -0.526438       -14.3251
  70   2.0000      -0.523570       -14.2471
  71   2.0000      -0.520604       -14.1663
  72   2.0000      -0.516690       -14.0598
  73   2.0000      -0.514017       -13.9871
  74   2.0000      -0.492716       -13.4075
  75   2.0000      -0.486667       -13.2429
  76   2.0000      -0.477724       -12.9995
  77   2.0000      -0.459979       -12.5167
  78   2.0000      -0.458268       -12.4701
  79   2.0000      -0.427812       -11.6413
  80   2.0000      -0.421949       -11.4818
  81   2.0000      -0.416892       -11.3442
  82   2.0000      -0.376033       -10.2324
  83   2.0000      -0.366707        -9.9786
  84   2.0000      -0.352368        -9.5884
  85   2.0000      -0.329321        -8.9613
  86   2.0000      -0.321633        -8.7521
  87   2.0000      -0.300922        -8.1885
  88   0.0000       0.019967         0.5433
  89   0.0000       0.024101         0.6558
  90   0.0000       0.024287         0.6609
  91   0.0000       0.027162         0.7391
  92   0.0000       0.031926         0.8687

MULLIKEN ATOMIC CHARGES
-----------------------
   0 C :   -0.226183
   1 H :    0.203742
   2 C :   -0.034966
   3 C :   -0.095150
   4 H :    0.655596
   5 H :    0.113268
   6 C :    1.155050
   7 H :    0.305770
   8 N :   -0.058126
   9 C :   -1.641486
  10 C :   -1.083560
  11 C :   -0.318321
  12 C :   -0.406434
  13 C :    1.113902
  14 C :   -0.907544
  15 H :    0.282855
  16 H :    0.287734
  17 H :    0.244195
  18 C :   -0.963358
  19 H :    0.296648
  20 H :    0.193201
  21 C :    0.801068
  22 C :    0.174160
  23 C :   -0.741852
  24 H :    0.221654
  25 H :    0.186004
  26 H :    0.362749
  27 C :   -0.634857
  28 H :    0.214194
  29 C :   -0.896554
  30 H :    0.104082
  31 C :   -0.462060
  32 H :    0.257882
  33 C :   -0.428180
  34 H :    0.197245
  35 Si:    1.682508
  36 C :   -1.411098
  37 H :    0.263990
  38 H :    0.303482
  39 H :    0.362404
  40 C :   -1.132494
  41 H :    0.273218
  42 H :    0.311347
  43 H :    0.285565
  44 C :   -1.252473
  45 H :    0.296285
  46 H :    0.330177
  47 H :    0.221143
  48 H :    0.182966
  49 H :    0.186045
  50 H :    0.269623
  51 H :    0.354940
Sum of atomic charges:   -0.0000000

LOEWDIN ATOMIC CHARGES
----------------------
   0 C :    0.330364
   1 H :   -0.267569
   2 C :   -0.079266
   3 C :    0.486926
   4 H :   -0.323083
   5 H :   -0.266501
   6 C :   -0.038784
   7 H :   -0.255722
   8 N :    0.533190
   9 C :    0.030406
  10 C :    0.822426
  11 C :    0.252165
  12 C :    0.371579
  13 C :   -0.088628
  14 C :    0.901849
  15 H :   -0.293209
  16 H :   -0.291992
  17 H :   -0.312228
  18 C :    0.355150
  19 H :   -0.239427
  20 H :   -0.272135
  21 C :   -0.032217
  22 C :   -0.036635
  23 C :    0.525456
  24 H :   -0.255421
  25 H :   -0.273945
  26 H :   -0.267680
  27 C :    0.359572
  28 H :   -0.312453
  29 C :    0.360592
  30 H :   -0.311743
  31 C :    0.350110
  32 H :   -0.320392
  33 C :    0.357564
  34 H :   -0.319015
  35 Si:    0.140992
  36 C :    1.006336
  37 H :   -0.330290
  38 H :   -0.330619
  39 H :   -0.340010
  40 C :    0.984819
  41 H :   -0.329244
  42 H :   -0.332780
  43 H :   -0.339174
  44 C :    1.001161
  45 H :   -0.325199
  46 H :   -0.354891
  47 H :   -0.332490
  48 H :   -0.330438
  49 H :   -0.325398
  50 H :   -0.309808
  51 H :   -0.332271

  Mayer bond orders larger than 0.100000
B(  0-C ,  1-H ) :   1.0814 B(  0-C ,  2-C ) :   0.6063 B(  0-C ,  8-N ) :   0.8792
B(  0-C , 10-C ) :  -0.2258 B(  0-C , 13-C ) :  -0.1607 B(  0-C , 26-H ) :   0.8844
B(  1-H ,  2-C ) :  -0.1351 B(  1-H ,  8-N ) :  -0.1036 B(  2-C ,  8-N ) :   0.1898
B(  2-C ,  9-C ) :  -0.7290 B(  2-C , 10-C ) :   1.7706 B(  2-C , 11-C ) :   0.1479
B(  2-C , 13-C ) :   0.5880 B(  2-C , 48-H ) :  -0.1888 B(  2-C , 49-H ) :  -0.1535
B(  3-C ,  4-H ) :   0.8269 B(  3-C ,  5-H ) :   0.8042 B(  3-C ,  6-C ) :   0.9286
B(  3-C ,  7-H ) :   0.1420 B(  3-C ,  9-C ) :  -0.6692 B(  3-C , 11-C ) :  -0.1438
B(  3-C , 13-C ) :   0.4931 B(  3-C , 29-C ) :   0.1806 B(  3-C , 36-C ) :   0.1256
B(  4-H ,  8-N ) :  -0.1138 B(  4-H ,  9-C ) :  -0.1544 B(  4-H , 21-C ) :  -0.1959
B(  4-H , 29-C ) :  -0.1835 B(  4-H , 35-Si) :  -0.1098 B(  5-H , 13-C ) :   0.1808
B(  5-H , 29-C ) :   0.1220 B(  6-C ,  7-H ) :   0.8523 B(  6-C ,  8-N ) :   0.6396
B(  6-C , 13-C ) :  -0.1721 B(  6-C , 18-C ) :  -0.1960 B(  6-C , 22-C ) :  -0.3506
B(  6-C , 29-C ) :  -0.7149 B(  7-H ,  8-N ) :  -0.1195 B(  8-N , 18-C ) :   0.7516
B(  8-N , 19-H ) :  -0.1220 B(  8-N , 20-H ) :  -0.1021 B(  8-N , 21-C ) :  -0.1291
B(  9-C , 10-C ) :   0.1759 B(  9-C , 11-C ) :   0.9697 B(  9-C , 12-C ) :  -0.3540
B(  9-C , 13-C ) :   1.1009 B(  9-C , 35-Si) :   1.0775 B(  9-C , 36-C ) :   0.1272
B(  9-C , 40-C ) :   0.2978 B( 10-C , 13-C ) :  -0.7144 B( 10-C , 48-H ) :   1.2747
B( 10-C , 49-H ) :   1.1941 B( 11-C , 12-C ) :   1.6579 B( 11-C , 50-H ) :   0.1293
B( 11-C , 51-H ) :   0.8348 B( 12-C , 13-C ) :   0.1727 B( 12-C , 14-C ) :   0.5905
B( 12-C , 15-H ) :  -0.1583 B( 12-C , 16-H ) :  -0.1397 B( 12-C , 50-H ) :   0.8709
B( 13-C , 35-Si) :  -0.2913 B( 13-C , 36-C ) :  -0.1175 B( 13-C , 40-C ) :  -0.1258
B( 13-C , 44-C ) :  -0.1302 B( 14-C , 15-H ) :   1.0321 B( 14-C , 16-H ) :   1.0150
B( 14-C , 17-H ) :   0.9927 B( 18-C , 19-H ) :   0.9448 B( 18-C , 20-H ) :   1.0721
B( 18-C , 21-C ) :   0.1602 B( 18-C , 23-C ) :   1.2243 B( 18-C , 25-H ) :  -0.1035
B( 21-C , 22-C ) :   0.9080 B( 21-C , 23-C ) :  -0.1554 B( 21-C , 27-C ) :  -0.6264
B( 21-C , 29-C ) :   1.0222 B( 21-C , 33-C ) :  -0.3082 B( 22-C , 23-C ) :   0.3619
B( 22-C , 25-H ) :  -0.1973 B( 22-C , 27-C ) :   1.1376 B( 22-C , 28-H ) :  -0.1157
B( 22-C , 31-C ) :  -0.2921 B( 23-C , 24-H ) :   1.0300 B( 23-C , 25-H ) :   1.1690
B( 27-C , 28-H ) :   1.0825 B( 27-C , 29-C ) :   0.1445 B( 27-C , 31-C ) :   1.3360
B( 27-C , 32-H ) :  -0.1961 B( 27-C , 33-C ) :   0.1531 B( 29-C , 30-H ) :   1.2722
B( 29-C , 33-C ) :   1.1631 B( 29-C , 34-H ) :  -0.1955 B( 31-C , 32-H ) :   1.1538
B( 31-C , 33-C ) :   1.2029 B( 32-H , 33-C ) :  -0.1286 B( 33-C , 34-H ) :   1.2272
B( 35-Si, 36-C ) :   0.4239 B( 35-Si, 40-C ) :   0.7182 B( 35-Si, 41-H ) :  -0.1154
B( 35-Si, 42-H ) :  -0.1196 B( 35-Si, 44-C ) :   0.6809 B( 36-C , 37-H ) :   1.0060
B( 36-C , 38-H ) :   1.0008 B( 36-C , 39-H ) :   0.9352 B( 40-C , 41-H ) :   1.0264
B( 40-C , 42-H ) :   0.9930 B( 40-C , 43-H ) :   0.9600 B( 44-C , 45-H ) :   0.9450
B( 44-C , 46-H ) :   0.9115 B( 44-C , 47-H ) :   1.1290 B( 45-H , 46-H ) :   0.1078

MP2 TOTAL ENERGY:    -1159.884256630 Eh
FINAL SINGLE POINT ENERGY     -1159.884256629976

DIPOLE MOMENT
-------------
                                X             Y             Z
Electronic contribution:    -15.29008      -1.91019      -3.51809
Nuclear contribution   :     15.07436       1.56788       3.51050
                        -----------------------------------------
Total Dipole Moment    :     -0.21572      -0.34230      -0.00758
                        -----------------------------------------
Magnitude (a.u.)       :      0.40468
Magnitude (Debye)      :      1.02861

Rotational constants in cm-1:     0.012087     0.005426     0.004396
Rotational constants in MHz :   362.345781   162.652677   131.791978

                             ****ORCA TERMINATED NORMALLY****
TOTAL RUN TIME: 0 days 16 hours 53 minutes 33 seconds 519 msec
