                         Program Version 4.2.1 -  RELEASE  -
|  1> %pal
|  2>  nprocs 32
|  3> end
|  4> !RI-MP2 aug-cc-pVQZ aug-cc-pVQZ/C TightSCF
|  5> %maxcore 4500
|  6> *xyzfile 0 2  04_8R.xyz
|  7>
|  8>
|  9>                          ****END OF INPUT****

CARTESIAN COORDINATES (ANGSTROEM)
---------------------------------
  C      1.667901    0.145961    0.002624
  C      0.361218   -0.605069   -0.002014
  C     -0.885603    0.265429   -0.049802
  H      0.335239   -1.248895    0.885221
  H      0.370766   -1.294497   -0.855343
  C     -2.148109   -0.520465   -0.072099
  H     -0.823420    0.924516   -0.928760
  H     -0.881916    0.956126    0.800936
  C     -3.462100    0.153613    0.093846
  H     -2.123486   -1.547771   -0.421541
  N      1.669183    1.412875   -0.038471
  C      2.903863   -0.715805    0.059415
  H      2.897114   -1.332465    0.961954
  H      3.812272   -0.112296    0.055146
  H      2.932614   -1.398580   -0.793755
  H     -3.715816    0.771898   -0.781037
  H     -3.456499    0.832598    0.953710
  H     -4.275569   -0.560918    0.230102
  H      2.621402    1.778174   -0.029152

 Total Charge           Charge          ....    0
 Multiplicity           Mult            ....    2
 Number of Electrons    NEL             ....   55
 Basis Dimension        Dim             .... 1112

ORBITAL ENERGIES
----------------
                 SPIN UP ORBITALS
  NO   OCC          E(Eh)            E(eV)
   0   1.0000     -15.535064      -422.7306
   1   1.0000     -11.280861      -306.9678
   2   1.0000     -11.232654      -305.6561
   3   1.0000     -11.225904      -305.4724
   4   1.0000     -11.220321      -305.3205
   5   1.0000     -11.210074      -305.0416
   6   1.0000     -11.209535      -305.0269
   7   1.0000      -1.213200       -33.0129
   8   1.0000      -1.079783       -29.3824
   9   1.0000      -1.012876       -27.5618
  10   1.0000      -0.978204       -26.6183
  11   1.0000      -0.883938       -24.0532
  12   1.0000      -0.782510       -21.2932
  13   1.0000      -0.740452       -20.1487
  14   1.0000      -0.642524       -17.4840
  15   1.0000      -0.636005       -17.3066
  16   1.0000      -0.611127       -16.6296
  17   1.0000      -0.593565       -16.1517
  18   1.0000      -0.585096       -15.9213
  19   1.0000      -0.559638       -15.2285
  20   1.0000      -0.555818       -15.1246
  21   1.0000      -0.520875       -14.1737
  22   1.0000      -0.495689       -13.4884
  23   1.0000      -0.481873       -13.1124
  24   1.0000      -0.479036       -13.0352
  25   1.0000      -0.416879       -11.3439
  26   1.0000      -0.408802       -11.1241
  27   1.0000      -0.321054        -8.7363
  28   0.0000       0.022125         0.6020
  29   0.0000       0.028101         0.7647
  30   0.0000       0.033410         0.9091
  31   0.0000       0.035581         0.9682
  32   0.0000       0.043282         1.1778

                 SPIN DOWN ORBITALS
  NO   OCC          E(Eh)            E(eV)
   0   1.0000     -15.534810      -422.7237
   1   1.0000     -11.281096      -306.9742
   2   1.0000     -11.232633      -305.6555
   3   1.0000     -11.225489      -305.4611
   4   1.0000     -11.213208      -305.1269
   5   1.0000     -11.212751      -305.1145
   6   1.0000     -11.196292      -304.6666
   7   1.0000      -1.212864       -33.0037
   8   1.0000      -1.057659       -28.7804
   9   1.0000      -1.002314       -27.2744
  10   1.0000      -0.972996       -26.4766
  11   1.0000      -0.878539       -23.9063
  12   1.0000      -0.744230       -20.2515
  13   1.0000      -0.735429       -20.0120
  14   1.0000      -0.640626       -17.4323
  15   1.0000      -0.626627       -17.0514
  16   1.0000      -0.609223       -16.5778
  17   1.0000      -0.585750       -15.9391
  18   1.0000      -0.573820       -15.6144
  19   1.0000      -0.550346       -14.9757
  20   1.0000      -0.540755       -14.7147
  21   1.0000      -0.516880       -14.0650
  22   1.0000      -0.485579       -13.2133
  23   1.0000      -0.477647       -12.9974
  24   1.0000      -0.472513       -12.8577
  25   1.0000      -0.415460       -11.3052
  26   1.0000      -0.408275       -11.1097
  27   0.0000       0.022155         0.6029
  28   0.0000       0.028261         0.7690
  29   0.0000       0.033485         0.9112
  30   0.0000       0.035588         0.9684
  31   0.0000       0.043305         1.1784

MULLIKEN ATOMIC CHARGES AND SPIN POPULATIONS
--------------------------------------------
   0 C :    0.301387   -0.014165
   1 C :   -0.214491    0.040401
   2 C :   -0.042013   -0.219163
   3 H :    0.255615   -0.006797
   4 H :    0.212388   -0.004047
   5 C :   -0.768721    1.195114
   6 H :    0.278644    0.084909
   7 H :    0.236200    0.033897
   8 C :   -0.786186   -0.152814
   9 H :    0.410502   -0.081118
  10 N :   -0.836847    0.007964
  11 C :   -0.845989    0.001576
  12 H :    0.270306    0.000022
  13 H :    0.264472   -0.000007
  14 H :    0.269650   -0.000379
  15 H :    0.255374    0.074423
  16 H :    0.222514    0.033314
  17 H :    0.238867    0.007081
  18 H :    0.278327   -0.000211
Sum of atomic charges         :   -0.0000000

LOEWDIN ATOMIC CHARGES AND SPIN POPULATIONS
-------------------------------------------
   0 C :   -0.277570   -0.000556
   1 C :    0.447431    0.012840
   2 C :    0.442109    0.134637
   3 H :   -0.276323    0.005102
   4 H :   -0.281109    0.000194
   5 C :    0.449822    0.458566
   6 H :   -0.283606    0.027861
   7 H :   -0.295005    0.017326
   8 C :    0.887873    0.136185
   9 H :   -0.308006    0.146113
  10 N :    1.021656    0.004559
  11 C :    0.915255   -0.000832
  12 H :   -0.282231   -0.000112
  13 H :   -0.308090   -0.000037
  14 H :   -0.282391   -0.000107
  15 H :   -0.291337    0.029428
  16 H :   -0.304471    0.017807
  17 H :   -0.310107    0.009926
  18 H :   -0.663900    0.001099

  Mayer bond orders larger than 0.100000
B(  0-C ,  1-C ) :   0.7235 B(  0-C ,  2-C ) :  -0.1657 B(  0-C , 10-N ) :   1.5027
B(  0-C , 11-C ) :   0.8851 B(  0-C , 13-H ) :  -0.1006 B(  1-C ,  2-C ) :   1.0086
B(  1-C ,  3-H ) :   0.8832 B(  1-C ,  4-H ) :   0.8983 B(  1-C ,  5-C ) :  -0.1479
B(  2-C ,  5-C ) :   0.6586 B(  2-C ,  6-H ) :   0.8346 B(  2-C ,  7-H ) :   0.8972
B(  5-C ,  8-C ) :   0.9755 B(  5-C ,  9-H ) :   0.8203 B(  8-C , 15-H ) :   0.9209
B(  8-C , 16-H ) :   0.9752 B(  8-C , 17-H ) :   1.0442 B( 10-N , 18-H ) :   0.8726
B( 11-C , 12-H ) :   0.9392 B( 11-C , 13-H ) :   1.0431 B( 11-C , 14-H ) :   0.9435

MP2 TOTAL ENERGY:     -290.003664719 Eh
FINAL SINGLE POINT ENERGY      -290.003664718651

DIPOLE MOMENT
-------------
                                X             Y             Z
Electronic contribution:      2.93599       1.57021      -0.09030
Nuclear contribution   :     -2.41745      -2.33991       0.08129
                        -----------------------------------------
Total Dipole Moment    :      0.51854      -0.76971      -0.00902
                        -----------------------------------------
Magnitude (a.u.)       :      0.92813
Magnitude (Debye)      :      2.35911

Rotational constants in cm-1:     0.256636     0.035110     0.031655
Rotational constants in MHz :  7693.759088  1052.584296   948.991991

                             ****ORCA TERMINATED NORMALLY****
TOTAL RUN TIME: 0 days 0 hours 50 minutes 0 seconds 221 msec
