                         Program Version 4.2.1 -  RELEASE  -
|  1> %pal
|  2>  nprocs 32
|  3> end
|  4> !RI-MP2 aug-cc-pVQZ aug-cc-pVQZ/C TightSCF
|  5> %maxcore 4500
|  6> *xyzfile 0 1  08_4R1.xyz
|  7>
|  8>
|  9>                          ****END OF INPUT****

CARTESIAN COORDINATES (ANGSTROEM)
---------------------------------
  C      0.017002   -1.340961    0.113846
  S      1.489084   -0.305596   -0.150637
  S     -1.504008   -0.318402    0.028260
  C      0.688534    1.238736    0.372295
  C     -0.679396    1.279110   -0.280191
  H      1.320196    2.060715    0.033047
  H      0.608918    1.276970    1.459111
  H     -0.591310    1.453121   -1.351840
  H     -1.309074    2.054063    0.158923
  H      0.050857   -1.822555    1.088718
  H      0.002358   -2.099646   -0.665627

 Total Charge           Charge          ....    0
 Multiplicity           Mult            ....    1
 Number of Electrons    NEL             ....   56
 Basis Dimension        Dim             ....  684

ORBITAL ENERGIES
----------------

  NO   OCC          E(Eh)            E(eV)
   0   2.0000     -91.955023     -2502.2234
   1   2.0000     -91.951970     -2502.1403
   2   2.0000     -11.285764      -307.1013
   3   2.0000     -11.269952      -306.6710
   4   2.0000     -11.267984      -306.6174
   5   2.0000      -8.956950      -243.7310
   6   2.0000      -8.953790      -243.6450
   7   2.0000      -6.638396      -180.6399
   8   2.0000      -6.637557      -180.6171
   9   2.0000      -6.636588      -180.5907
  10   2.0000      -6.635243      -180.5541
  11   2.0000      -6.634399      -180.5312
  12   2.0000      -6.633452      -180.5054
  13   2.0000      -1.131420       -30.7875
  14   2.0000      -1.003687       -27.3117
  15   2.0000      -0.978739       -26.6328
  16   2.0000      -0.802884       -21.8476
  17   2.0000      -0.796745       -21.6805
  18   2.0000      -0.655065       -17.8252
  19   2.0000      -0.623106       -16.9556
  20   2.0000      -0.609443       -16.5838
  21   2.0000      -0.552504       -15.0344
  22   2.0000      -0.511148       -13.9091
  23   2.0000      -0.499283       -13.5862
  24   2.0000      -0.473562       -12.8863
  25   2.0000      -0.421063       -11.4577
  26   2.0000      -0.354440        -9.6448
  27   2.0000      -0.342816        -9.3285
  28   0.0000       0.026254         0.7144
  29   0.0000       0.034009         0.9254
  30   0.0000       0.035811         0.9745
  31   0.0000       0.040100         1.0912
  32   0.0000       0.050980         1.3872

MULLIKEN ATOMIC CHARGES
-----------------------
   0 C :   -0.690187
   1 S :   -0.036271
   2 S :   -0.068073
   3 C :   -0.549820
   4 C :   -0.523492
   5 H :    0.383859
   6 H :    0.247019
   7 H :    0.248046
   8 H :    0.361245
   9 H :    0.287428
  10 H :    0.340247
Sum of atomic charges:   -0.0000000

LOEWDIN ATOMIC CHARGES
----------------------
   0 C :   -0.217114
   1 S :    1.260284
   2 S :    1.255963
   3 C :    0.046002
   4 C :    0.046421
   5 H :   -0.366443
   6 H :   -0.361011
   7 H :   -0.370710
   8 H :   -0.369390
   9 H :   -0.457439
  10 H :   -0.466562

  Mayer bond orders larger than 0.100000
B(  0-C ,  1-S ) :   0.9789 B(  0-C ,  2-S ) :   0.9414 B(  0-C ,  9-H ) :   0.8954
B(  0-C , 10-H ) :   0.8747 B(  1-S ,  3-C ) :   0.9176 B(  2-S ,  4-C ) :   0.8955
B(  3-C ,  4-C ) :   0.9857 B(  3-C ,  5-H ) :   0.8026 B(  3-C ,  6-H ) :   0.9154
B(  4-C ,  7-H ) :   0.9111 B(  4-C ,  8-H ) :   0.8168

MP2 TOTAL ENERGY:     -913.175480452 Eh
FINAL SINGLE POINT ENERGY      -913.175480451501

DIPOLE MOMENT
-------------
                                X             Y             Z
Electronic contribution:     -0.01997      -2.45861      -0.57822
Nuclear contribution   :      0.08161       2.91342       0.71907
                        -----------------------------------------
Total Dipole Moment    :      0.06163       0.45481       0.14085
                        -----------------------------------------
Magnitude (a.u.)       :      0.48010
Magnitude (Debye)      :      1.22031

Rotational constants in cm-1:     0.177277     0.100205     0.068800
Rotational constants in MHz :  5314.631230  3004.071157  2062.576214

                             ****ORCA TERMINATED NORMALLY****
TOTAL RUN TIME: 0 days 0 hours 7 minutes 21 seconds 378 msec
