                         Program Version 4.2.1 -  RELEASE  -
|  1> %pal
|  2>  nprocs 32
|  3> end
|  4> !RI-MP2 aug-cc-pVQZ aug-cc-pVQZ/C TightSCF
|  5> %maxcore 4500
|  6> *xyzfile 0 1  05_35R1.xyz
|  7>
|  8>
|  9>                          ****END OF INPUT****

CARTESIAN COORDINATES (ANGSTROEM)
---------------------------------
  C     -3.818620    0.035128   -0.824198
  O     -4.691530    0.357885    0.243670
  C     -4.492437   -0.433719    1.392550
  H     -3.490667   -0.298553    1.814301
  H     -4.635936   -1.499002    1.166871
  C     -2.395782    0.413640   -0.552251
  H     -2.232601    1.460477   -0.311679
  C     -1.381799   -0.446721   -0.592449
  H     -1.608829   -1.487337   -0.817243
  H     -5.235129   -0.123111    2.125902
  C      0.040215   -0.165261   -0.362417
  C      0.948389   -1.217417   -0.341864
  C      0.543071    1.126525   -0.154937
  C      2.306104   -1.016717   -0.116707
  H      0.589882   -2.228080   -0.503662
  C      1.883484    1.344431    0.069919
  H     -0.126883    1.976923   -0.175036
  C      2.778111    0.272078    0.092229
  H      2.973556   -1.866550   -0.108551
  H      2.272155    2.342293    0.228545
  O      4.077859    0.589043    0.319813
  C      5.027355   -0.456628    0.346825
  H      5.067702   -0.982149   -0.612156
  H      5.988462    0.014204    0.539819
  H      4.808229   -1.172488    1.144930
  H     -4.203379    0.592744   -1.681093
  H     -3.885737   -1.036833   -1.059017

 Total Charge           Charge          ....    0
 Multiplicity           Mult            ....    1
 Number of Electrons    NEL             ....   96
 Basis Dimension        Dim             .... 1684

ORBITAL ENERGIES
----------------

  NO   OCC          E(Eh)            E(eV)
   0   2.0000     -20.585859      -560.1697
   1   2.0000     -20.549426      -559.1783
   2   2.0000     -11.301409      -307.5270
   3   2.0000     -11.286231      -307.1140
   4   2.0000     -11.274802      -306.8030
   5   2.0000     -11.262017      -306.4551
   6   2.0000     -11.240487      -305.8692
   7   2.0000     -11.238814      -305.8237
   8   2.0000     -11.236651      -305.7648
   9   2.0000     -11.235488      -305.7332
  10   2.0000     -11.231293      -305.6190
  11   2.0000     -11.228428      -305.5411
  12   2.0000     -11.224675      -305.4389
  13   2.0000      -1.416571       -38.5469
  14   2.0000      -1.370031       -37.2804
  15   2.0000      -1.161680       -31.6109
  16   2.0000      -1.083004       -29.4700
  17   2.0000      -1.028438       -27.9852
  18   2.0000      -1.017809       -27.6960
  19   2.0000      -0.964960       -26.2579
  20   2.0000      -0.938088       -25.5267
  21   2.0000      -0.873519       -23.7697
  22   2.0000      -0.841939       -22.9103
  23   2.0000      -0.812727       -22.1154
  24   2.0000      -0.761639       -20.7253
  25   2.0000      -0.724482       -19.7142
  26   2.0000      -0.680053       -18.5052
  27   2.0000      -0.675543       -18.3825
  28   2.0000      -0.660683       -17.9781
  29   2.0000      -0.652215       -17.7477
  30   2.0000      -0.638515       -17.3749
  31   2.0000      -0.633198       -17.2302
  32   2.0000      -0.620834       -16.8938
  33   2.0000      -0.592440       -16.1211
  34   2.0000      -0.588293       -16.0083
  35   2.0000      -0.564004       -15.3473
  36   2.0000      -0.548768       -14.9327
  37   2.0000      -0.534962       -14.5570
  38   2.0000      -0.526217       -14.3191
  39   2.0000      -0.518588       -14.1115
  40   2.0000      -0.505198       -13.7471
  41   2.0000      -0.485164       -13.2020
  42   2.0000      -0.481747       -13.1090
  43   2.0000      -0.470241       -12.7959
  44   2.0000      -0.421732       -11.4759
  45   2.0000      -0.395682       -10.7670
  46   2.0000      -0.346513        -9.4291
  47   2.0000      -0.290149        -7.8953
  48   0.0000       0.021272         0.5788
  49   0.0000       0.026658         0.7254
  50   0.0000       0.029268         0.7964
  51   0.0000       0.035101         0.9552
  52   0.0000       0.036321         0.9883

MULLIKEN ATOMIC CHARGES
-----------------------
   0 C :    0.035041
   1 O :   -0.883747
   2 C :   -0.663609
   3 H :    0.303137
   4 H :    0.215581
   5 C :   -0.273995
   6 H :    0.254016
   7 C :   -0.404172
   8 H :    0.157526
   9 H :    0.475112
  10 C :    0.615471
  11 C :   -0.395269
  12 C :   -0.347280
  13 C :   -0.449660
  14 H :    0.104803
  15 C :   -0.443473
  16 H :    0.120132
  17 C :    1.107441
  18 H :    0.168238
  19 H :    0.222716
  20 O :   -0.826973
  21 C :   -0.705200
  22 H :    0.258683
  23 H :    0.500946
  24 H :    0.249871
  25 H :    0.448304
  26 H :    0.156359
Sum of atomic charges:    0.0000000

LOEWDIN ATOMIC CHARGES
----------------------
   0 C :    0.127281
   1 O :    0.870771
   2 C :    0.552724
   3 H :   -0.317529
   4 H :   -0.306353
   5 C :    0.362357
   6 H :   -0.329259
   7 C :    0.363033
   8 H :   -0.344768
   9 H :   -0.325170
  10 C :   -0.088811
  11 C :    0.337963
  12 C :    0.336293
  13 C :    0.339119
  14 H :   -0.317177
  15 C :    0.338901
  16 H :   -0.333415
  17 C :   -0.458992
  18 H :   -0.356560
  19 H :   -0.322429
  20 O :    0.878282
  21 C :    0.571496
  22 H :   -0.305637
  23 H :   -0.317017
  24 H :   -0.305656
  25 H :   -0.319715
  26 H :   -0.329733

  Mayer bond orders larger than 0.100000
B(  0-C ,  1-O ) :   0.6699 B(  0-C ,  5-C ) :   0.9248 B(  0-C ,  7-C ) :  -0.1362
B(  0-C , 25-H ) :   0.7754 B(  0-C , 26-H ) :   1.0651 B(  1-O ,  2-C ) :   0.8887
B(  2-C ,  3-H ) :   0.8627 B(  2-C ,  4-H ) :   0.9645 B(  2-C ,  9-H ) :   0.7911
B(  5-C ,  6-H ) :   0.9795 B(  5-C ,  7-C ) :   1.3951 B(  5-C , 10-C ) :  -0.3926
B(  5-C , 12-C ) :  -0.1432 B(  5-C , 26-H ) :  -0.1061 B(  7-C ,  8-H ) :   1.0871
B(  7-C , 10-C ) :   0.6013 B(  7-C , 11-C ) :  -0.5208 B(  7-C , 12-C ) :  -0.3514
B(  8-H , 10-C ) :  -0.1821 B( 10-C , 11-C ) :   1.1092 B( 10-C , 12-C ) :   1.2587
B( 10-C , 13-C ) :  -0.4644 B( 10-C , 14-H ) :  -0.1027 B( 10-C , 15-C ) :  -0.2437
B( 10-C , 16-H ) :  -0.1032 B( 11-C , 13-C ) :   0.8812 B( 11-C , 14-H ) :   1.2076
B( 11-C , 15-C ) :   0.1817 B( 11-C , 18-H ) :  -0.1730 B( 12-C , 13-C ) :   0.1105
B( 12-C , 15-C ) :   1.2079 B( 12-C , 16-H ) :   1.2023 B( 12-C , 17-C ) :  -0.3047
B( 12-C , 19-H ) :  -0.1182 B( 13-C , 14-H ) :  -0.2008 B( 13-C , 17-C ) :   1.3726
B( 13-C , 18-H ) :   1.1817 B( 13-C , 20-O ) :   0.1885 B( 13-C , 21-C ) :   0.1773
B( 15-C , 16-H ) :  -0.1730 B( 15-C , 17-C ) :   1.1365 B( 15-C , 19-H ) :   1.0388
B( 15-C , 20-O ) :   0.2853 B( 17-C , 18-H ) :  -0.1178 B( 17-C , 19-H ) :  -0.1088
B( 17-C , 21-C ) :  -0.1727 B( 20-O , 21-C ) :   0.9296 B( 21-C , 22-H ) :   0.9184
B( 21-C , 23-H ) :   0.7518 B( 21-C , 24-H ) :   0.9220

MP2 TOTAL ENERGY:     -577.038266906 Eh
FINAL SINGLE POINT ENERGY      -577.038266905653

DIPOLE MOMENT
-------------
                                X             Y             Z
Electronic contribution:      4.61469       3.52011      -1.73584
Nuclear contribution   :     -3.77203      -4.34224       1.78121
                        -----------------------------------------
Total Dipole Moment    :      0.84266      -0.82213       0.04536
                        -----------------------------------------
Magnitude (a.u.)       :      1.17814
Magnitude (Debye)      :      2.99461

Rotational constants in cm-1:     0.095289     0.008826     0.008599
Rotational constants in MHz :  2856.680151   264.599344   257.795495

                             ****ORCA TERMINATED NORMALLY****
TOTAL RUN TIME: 0 days 1 hours 43 minutes 50 seconds 398 msec
