                         Program Version 4.2.1 -  RELEASE  -
|  1> %pal
|  2>  nprocs 32
|  3> end
|  4> !RI-MP2 aug-cc-pVQZ aug-cc-pVQZ/C TightSCF
|  5> %maxcore 4500
|  6> *xyzfile 0 1  03_22R1.xyz
|  7>
|  8>
|  9>                          ****END OF INPUT****

CARTESIAN COORDINATES (ANGSTROEM)
---------------------------------
  C     -1.636994    0.932424    0.095468
  C     -0.144418    0.777125   -0.145586
  C      2.269481   -0.429449   -0.493240
  C      2.985757   -0.082953    0.801556
  O      0.522906    1.774032   -0.245415
  Cl    -2.588011   -0.574216    0.180778
  H     -2.037889    1.542020   -0.711331
  H     -1.763549    1.465135    1.035749
  H      2.310040    0.396323   -1.202164
  H      2.703487   -1.310359   -0.967514
  H      2.550615    0.805655    1.258320
  H      4.039240    0.124457    0.598696
  H      2.932079   -0.905624    1.516262
  S      0.514747   -0.858192   -0.261694

 Total Charge           Charge          ....    0
 Multiplicity           Mult            ....    1
 Number of Electrons    NEL             ....   72
 Basis Dimension        Dim             ....  890

ORBITAL ENERGIES
----------------

  NO   OCC          E(Eh)            E(eV)
   0   2.0000    -104.841888     -2852.8928
   1   2.0000     -91.974860     -2502.7632
   2   2.0000     -20.565008      -559.6023
   3   2.0000     -11.376454      -309.5691
   4   2.0000     -11.317823      -307.9736
   5   2.0000     -11.266842      -306.5863
   6   2.0000     -11.225332      -305.4568
   7   2.0000     -10.567440      -287.5547
   8   2.0000      -8.977823      -244.2990
   9   2.0000      -8.034526      -218.6306
  10   2.0000      -8.032806      -218.5838
  11   2.0000      -8.032728      -218.5817
  12   2.0000      -6.659155      -181.2048
  13   2.0000      -6.658077      -181.1755
  14   2.0000      -6.657522      -181.1604
  15   2.0000      -1.419700       -38.6320
  16   2.0000      -1.156795       -31.4780
  17   2.0000      -1.088019       -29.6065
  18   2.0000      -0.998324       -27.1658
  19   2.0000      -0.953743       -25.9527
  20   2.0000      -0.848820       -23.0976
  21   2.0000      -0.740775       -20.1575
  22   2.0000      -0.671246       -18.2655
  23   2.0000      -0.664520       -18.0825
  24   2.0000      -0.662030       -18.0148
  25   2.0000      -0.607450       -16.5296
  26   2.0000      -0.589286       -16.0353
  27   2.0000      -0.556754       -15.1500
  28   2.0000      -0.551947       -15.0192
  29   2.0000      -0.537501       -14.6262
  30   2.0000      -0.508397       -13.8342
  31   2.0000      -0.478147       -13.0110
  32   2.0000      -0.464193       -12.6313
  33   2.0000      -0.452058       -12.3011
  34   2.0000      -0.412033       -11.2120
  35   2.0000      -0.377527       -10.2730
  36   0.0000       0.026358         0.7172
  37   0.0000       0.030237         0.8228
  38   0.0000       0.034797         0.9469
  39   0.0000       0.039445         1.0733
  40   0.0000       0.046886         1.2758

MULLIKEN ATOMIC CHARGES
-----------------------
   0 C :   -0.293882
   1 C :    0.447476
   2 C :   -0.507642
   3 C :   -0.887552
   4 O :   -0.805833
   5 Cl:   -0.289512
   6 H :    0.321499
   7 H :    0.320609
   8 H :    0.288308
   9 H :    0.337524
  10 H :    0.296545
  11 H :    0.295780
  12 H :    0.265939
  13 S :    0.210741
Sum of atomic charges:    0.0000000

LOEWDIN ATOMIC CHARGES
----------------------
   0 C :   -0.299778
   1 C :   -1.197198
   2 C :    0.128737
   3 C :    0.840951
   4 O :    0.662660
   5 Cl:    1.123970
   6 H :   -0.427739
   7 H :   -0.425516
   8 H :   -0.392911
   9 H :   -0.372717
  10 H :   -0.319277
  11 H :   -0.285027
  12 H :   -0.302110
  13 S :    1.265955

  Mayer bond orders larger than 0.100000
B(  0-C ,  1-C ) :   0.7886 B(  0-C ,  5-Cl) :   0.9230 B(  0-C ,  6-H ) :   0.8824
B(  0-C ,  7-H ) :   0.8712 B(  1-C ,  4-O ) :   1.4518 B(  1-C ,  5-Cl) :  -0.1115
B(  1-C , 13-S ) :   1.0359 B(  2-C ,  3-C ) :   0.9853 B(  2-C ,  8-H ) :   0.8790
B(  2-C ,  9-H ) :   0.8472 B(  2-C , 13-S ) :   0.9708 B(  3-C , 10-H ) :   0.9177
B(  3-C , 11-H ) :   0.8941 B(  3-C , 12-H ) :   0.9305

MP2 TOTAL ENERGY:    -1088.966802795 Eh
FINAL SINGLE POINT ENERGY     -1088.966802795256

DIPOLE MOMENT
-------------
                                X             Y             Z
Electronic contribution:    -13.74168      -2.95717      -1.21593
Nuclear contribution   :     14.07597       2.92033       1.24244
                        -----------------------------------------
Total Dipole Moment    :      0.33429      -0.03684       0.02650
                        -----------------------------------------
Magnitude (a.u.)       :      0.33736
Magnitude (Debye)      :      0.85750

Rotational constants in cm-1:     0.123242     0.032062     0.027386
Rotational constants in MHz :  3694.693609   961.185925   821.021391

                             ****ORCA TERMINATED NORMALLY****
TOTAL RUN TIME: 0 days 0 hours 18 minutes 1 seconds 974 msec
