                         Program Version 4.2.1 -  RELEASE  -
|  1> %pal
|  2>  nprocs 32
|  3> end
|  4> !RI-MP2 aug-cc-pVQZ aug-cc-pVQZ/C TightSCF
|  5> %maxcore 4500
|  6> *xyzfile 0 1  03_26P2.xyz
|  7>
|  8>
|  9>                          ****END OF INPUT****

CARTESIAN COORDINATES (ANGSTROEM)
---------------------------------
  C      0.467353    0.363625   -0.295774
  C     -0.706433    0.185539    0.615292
  C     -1.910357   -0.050217    0.183904
  C      1.188485    1.679834   -0.081060
  H     -0.519117    0.271093    1.682191
  H      1.530080    1.769066    0.951505
  H      0.504027    2.504522   -0.292786
  H      2.052702    1.761805   -0.740143
  C     -3.108564   -0.286996   -0.256468
  H     -3.463153   -1.302897   -0.390869
  H     -3.788966    0.521509   -0.499267
  Cl     1.643980   -1.007616   -0.022058
  H      0.153862    0.253673   -1.331015

 Total Charge           Charge          ....    0
 Multiplicity           Mult            ....    1
 Number of Electrons    NEL             ....   54
 Basis Dimension        Dim             ....  806

ORBITAL ENERGIES
----------------

  NO   OCC          E(Eh)            E(eV)
   0   2.0000    -104.815641     -2852.1786
   1   2.0000     -11.309192      -307.7388
   2   2.0000     -11.265342      -306.5455
   3   2.0000     -11.250775      -306.1492
   4   2.0000     -11.245201      -305.9975
   5   2.0000     -11.233813      -305.6876
   6   2.0000     -10.541404      -286.8462
   7   2.0000      -8.008349      -217.9183
   8   2.0000      -8.006781      -217.8756
   9   2.0000      -8.006758      -217.8750
  10   2.0000      -1.154425       -31.4135
  11   2.0000      -1.080901       -29.4128
  12   2.0000      -1.011681       -27.5292
  13   2.0000      -0.964615       -26.2485
  14   2.0000      -0.829468       -22.5710
  15   2.0000      -0.733462       -19.9585
  16   2.0000      -0.662527       -18.0283
  17   2.0000      -0.621752       -16.9187
  18   2.0000      -0.617775       -16.8105
  19   2.0000      -0.597239       -16.2517
  20   2.0000      -0.570242       -15.5171
  21   2.0000      -0.533962       -14.5299
  22   2.0000      -0.509732       -13.8705
  23   2.0000      -0.439850       -11.9689
  24   2.0000      -0.431494       -11.7415
  25   2.0000      -0.388830       -10.5806
  26   2.0000      -0.376570       -10.2470
  27   0.0000       0.024177         0.6579
  28   0.0000       0.031079         0.8457
  29   0.0000       0.033708         0.9172
  30   0.0000       0.037678         1.0253
  31   0.0000       0.047562         1.2942

MULLIKEN ATOMIC CHARGES
-----------------------
   0 C :    0.119697
   1 C :   -0.368860
   2 C :   -0.086656
   3 C :   -0.860632
   4 H :    0.436255
   5 H :    0.244332
   6 H :    0.270638
   7 H :    0.302574
   8 C :   -0.632048
   9 H :    0.329485
  10 H :    0.336148
  11 Cl:   -0.431020
  12 H :    0.340087
Sum of atomic charges:   -0.0000000

LOEWDIN ATOMIC CHARGES
----------------------
   0 C :   -0.591012
   1 C :    0.168994
   2 C :    0.199436
   3 C :    0.794754
   4 H :   -0.363488
   5 H :   -0.308246
   6 H :   -0.284790
   7 H :   -0.307685
   8 C :    0.738910
   9 H :   -0.384241
  10 H :   -0.385011
  11 Cl:    1.139514
  12 H :   -0.417133

  Mayer bond orders larger than 0.100000
B(  0-C ,  1-C ) :   0.7939 B(  0-C ,  3-C ) :   0.9105 B(  0-C , 11-Cl) :   0.6869
B(  0-C , 12-H ) :   0.8162 B(  1-C ,  2-C ) :   1.8657 B(  1-C ,  4-H ) :   0.7493
B(  1-C ,  8-C ) :  -0.1752 B(  2-C ,  8-C ) :   1.8216 B(  3-C ,  5-H ) :   0.9541
B(  3-C ,  6-H ) :   0.9118 B(  3-C ,  7-H ) :   0.9447 B(  8-C ,  9-H ) :   0.9509
B(  8-C , 10-H ) :   0.9238

MP2 TOTAL ENERGY:     -654.044890144 Eh
FINAL SINGLE POINT ENERGY      -654.044890143563

DIPOLE MOMENT
-------------
                                X             Y             Z
Electronic contribution:      5.19649      -6.42813       0.43599
Nuclear contribution   :     -5.81669       7.13950      -0.58223
                        -----------------------------------------
Total Dipole Moment    :     -0.62019       0.71137      -0.14624
                        -----------------------------------------
Magnitude (a.u.)       :      0.95503
Magnitude (Debye)      :      2.42749

Rotational constants in cm-1:     0.168602     0.051272     0.041952
Rotational constants in MHz :  5054.566772  1537.100491  1257.675050

                             ****ORCA TERMINATED NORMALLY****
TOTAL RUN TIME: 0 days 0 hours 10 minutes 35 seconds 782 msec
