                         Program Version 4.2.1 -  RELEASE  -
|  1> %pal
|  2>  nprocs 32
|  3> end
|  4> !RI-MP2 aug-cc-pVQZ aug-cc-pVQZ/C TightSCF
|  5> %maxcore 4500
|  6> *xyzfile 0 1  10_6R2.xyz
|  7>
|  8>
|  9>                          ****END OF INPUT****

CARTESIAN COORDINATES (ANGSTROEM)
---------------------------------
  N     -0.389674    0.635177   -0.000004
  N      0.713402    0.103824    0.000007
  N      1.773761   -0.277547   -0.000003
  C     -1.530594   -0.286088    0.000000
  H     -1.535103   -0.919165    0.891960
  H     -2.428884    0.325002   -0.000223
  H     -1.534875   -0.919486   -0.891733

 Total Charge           Charge          ....    0
 Multiplicity           Mult            ....    1
 Number of Electrons    NEL             ....   30
 Basis Dimension        Dim             ....  458

ORBITAL ENERGIES
----------------

  NO   OCC          E(Eh)            E(eV)
   0   2.0000     -15.779561      -429.3837
   1   2.0000     -15.661315      -426.1660
   2   2.0000     -15.603948      -424.6050
   3   2.0000     -11.277467      -306.8755
   4   2.0000      -1.508107       -41.0377
   5   2.0000      -1.295528       -35.2531
   6   2.0000      -0.997497       -27.1433
   7   2.0000      -0.738231       -20.0883
   8   2.0000      -0.711934       -19.3727
   9   2.0000      -0.707125       -19.2418
  10   2.0000      -0.667441       -18.1620
  11   2.0000      -0.593599       -16.1526
  12   2.0000      -0.574531       -15.6338
  13   2.0000      -0.441924       -12.0254
  14   2.0000      -0.378009       -10.2862
  15   0.0000       0.025192         0.6855
  16   0.0000       0.040029         1.0893
  17   0.0000       0.040992         1.1155
  18   0.0000       0.056785         1.5452
  19   0.0000       0.080857         2.2002

MULLIKEN ATOMIC CHARGES
-----------------------
   0 N :   -0.226980
   1 N :    0.252297
   2 N :   -0.289761
   3 C :   -0.607415
   4 H :    0.260014
   5 H :    0.351838
   6 H :    0.260006
Sum of atomic charges:    0.0000000

LOEWDIN ATOMIC CHARGES
----------------------
   0 N :    0.311242
   1 N :   -0.298273
   2 N :    0.350572
   3 C :    0.628030
   4 H :   -0.322911
   5 H :   -0.345747
   6 H :   -0.322913

  Mayer bond orders larger than 0.100000
B(  0-N ,  1-N ) :   1.4655 B(  0-N ,  2-N ) :   0.2151 B(  0-N ,  3-C ) :   0.8419
B(  1-N ,  2-N ) :   2.3386 B(  3-C ,  4-H ) :   0.9201 B(  3-C ,  5-H ) :   0.8912
B(  3-C ,  6-H ) :   0.9201

MP2 TOTAL ENERGY:     -203.799986827 Eh
FINAL SINGLE POINT ENERGY      -203.799986826514

DIPOLE MOMENT
-------------
                                X             Y             Z
Electronic contribution:      4.75865       1.02479      -0.00000
Nuclear contribution   :     -5.41791      -1.49204       0.00000
                        -----------------------------------------
Total Dipole Moment    :     -0.65926      -0.46725       0.00000
                        -----------------------------------------
Magnitude (a.u.)       :      0.80805
Magnitude (Debye)      :      2.05390

Rotational constants in cm-1:     1.507624     0.180684     0.166456
Rotational constants in MHz : 45197.416100  5416.756650  4990.226059

                             ****ORCA TERMINATED NORMALLY****
TOTAL RUN TIME: 0 days 0 hours 2 minutes 1 seconds 875 msec
