                         Program Version 4.2.1 -  RELEASE  -
|  1> %pal
|  2>  nprocs 32
|  3> end
|  4> !RI-MP2 aug-cc-pVQZ aug-cc-pVQZ/C TightSCF
|  5> %maxcore 4500
|  6> *xyzfile 0 2  06_19P.xyz
|  7>
|  8>
|  9>                          ****END OF INPUT****

CARTESIAN COORDINATES (ANGSTROEM)
---------------------------------
  C     -0.007059    0.321317    2.322393
  C      1.287963    0.909805    2.713077
  Si     0.000633    0.018634    0.396141
  Si     0.748767    1.931259   -0.746997
  Si    -2.163895   -0.544767   -0.343653
  Si     1.428804   -1.781486   -0.104672
  C      2.623836    2.094460   -0.644576
  H      2.960826    2.994692   -1.166755
  H      2.959085    2.161344    0.392495
  H      3.126686    1.239170   -1.101706
  C      0.266103    1.792816   -2.565616
  H      0.653169    2.647858   -3.127286
  H      0.668799    0.886395   -3.022667
  H     -0.818357    1.777480   -2.695183
  C     -0.027657    3.500656   -0.047795
  H      0.281172    4.370682   -0.634626
  H     -1.118723    3.454169   -0.069456
  H      0.279339    3.673606    0.985856
  C     -2.078781   -1.337006   -2.053429
  H     -1.525764   -2.278512   -2.035322
  H     -3.086416   -1.553486   -2.420003
  H     -1.595571   -0.680263   -2.779794
  C     -2.961059   -1.777477    0.840261
  H     -3.066581   -1.367057    1.846831
  H     -3.959618   -2.054196    0.489715
  H     -2.369870   -2.692470    0.917084
  C     -3.264055    0.982720   -0.464787
  H     -3.358579    1.492903    0.495837
  H     -2.867227    1.702773   -1.184190
  H     -4.269096    0.705102   -0.795569
  C      0.605820   -3.417637    0.348940
  H     -0.295651   -3.594255   -0.241758
  H      1.288493   -4.253127    0.169044
  H      0.321552   -3.444497    1.403855
  C      1.812766   -1.796174   -1.950965
  H      2.420104   -2.669363   -2.205875
  H      0.904006   -1.835774   -2.554856
  H      2.372472   -0.907184   -2.250247
  C      3.057581   -1.672517    0.837721
  H      3.731265   -2.472820    0.517606
  H      3.562714   -0.719875    0.666385
  H      2.905216   -1.781701    1.913800
  C     -1.196092    1.175310    2.774746
  H     -2.150360    0.711168    2.522305
  H     -1.173225    1.322689    3.857889
  H     -1.174791    2.162198    2.306938
  H     -0.101546   -0.681924    2.755452
  H      2.185354    0.310361    2.780205
  H      1.394597    1.985315    2.792710

 Total Charge           Charge          ....    0
 Multiplicity           Mult            ....    2
 Number of Electrons    NEL             ....  161
 Basis Dimension        Dim             .... 2814

ORBITAL ENERGIES
----------------
                 SPIN UP ORBITALS
  NO   OCC          E(Eh)            E(eV)
   0   1.0000     -68.742313     -1870.5734
   1   1.0000     -68.742257     -1870.5719
   2   1.0000     -68.741779     -1870.5589
   3   1.0000     -68.724143     -1870.0790
   4   1.0000     -11.223435      -305.4052
   5   1.0000     -11.216417      -305.2142
   6   1.0000     -11.214656      -305.1663
   7   1.0000     -11.195496      -304.6449
   8   1.0000     -11.194830      -304.6268
   9   1.0000     -11.194811      -304.6263
  10   1.0000     -11.194701      -304.6233
  11   1.0000     -11.194571      -304.6198
  12   1.0000     -11.194496      -304.6177
  13   1.0000     -11.194370      -304.6143
  14   1.0000     -11.194255      -304.6112
  15   1.0000     -11.193560      -304.5922
  16   1.0000      -6.091798      -165.7663
  17   1.0000      -6.091701      -165.7636
  18   1.0000      -6.091202      -165.7500
  19   1.0000      -6.077274      -165.3710
  20   1.0000      -4.198396      -114.2442
  21   1.0000      -4.198064      -114.2351
  22   1.0000      -4.197890      -114.2304
  23   1.0000      -4.197876      -114.2300
  24   1.0000      -4.197862      -114.2296
  25   1.0000      -4.197846      -114.2292
  26   1.0000      -4.197587      -114.2222
  27   1.0000      -4.197401      -114.2171
  28   1.0000      -4.197331      -114.2152
  29   1.0000      -4.183382      -113.8356
  30   1.0000      -4.182729      -113.8178
  31   1.0000      -4.182605      -113.8145
  32   1.0000      -1.061355       -28.8809
  33   1.0000      -0.968251       -26.3474
  34   1.0000      -0.961898       -26.1746
  35   1.0000      -0.961497       -26.1637
  36   1.0000      -0.930850       -25.3297
  37   1.0000      -0.923904       -25.1407
  38   1.0000      -0.922028       -25.0896
  39   1.0000      -0.920759       -25.0551
  40   1.0000      -0.919224       -25.0133
  41   1.0000      -0.918546       -24.9949
  42   1.0000      -0.918127       -24.9835
  43   1.0000      -0.796378       -21.6705
  44   1.0000      -0.699437       -19.0326
  45   1.0000      -0.631457       -17.1828
  46   1.0000      -0.623465       -16.9653
  47   1.0000      -0.619012       -16.8442
  48   1.0000      -0.600940       -16.3524
  49   1.0000      -0.581820       -15.8321
  50   1.0000      -0.576262       -15.6809
  51   1.0000      -0.574122       -15.6226
  52   1.0000      -0.570318       -15.5192
  53   1.0000      -0.564293       -15.3552
  54   1.0000      -0.561845       -15.2886
  55   1.0000      -0.560273       -15.2458
  56   1.0000      -0.554063       -15.0768
  57   1.0000      -0.552930       -15.0460
  58   1.0000      -0.550434       -14.9781
  59   1.0000      -0.541215       -14.7272
  60   1.0000      -0.538960       -14.6659
  61   1.0000      -0.538285       -14.6475
  62   1.0000      -0.534238       -14.5374
  63   1.0000      -0.533996       -14.5308
  64   1.0000      -0.532109       -14.4794
  65   1.0000      -0.528929       -14.3929
  66   1.0000      -0.527350       -14.3499
  67   1.0000      -0.526625       -14.3302
  68   1.0000      -0.520308       -14.1583
  69   1.0000      -0.504125       -13.7179
  70   1.0000      -0.486298       -13.2328
  71   1.0000      -0.443536       -12.0692
  72   1.0000      -0.431584       -11.7440
  73   1.0000      -0.430705       -11.7201
  74   1.0000      -0.426119       -11.5953
  75   1.0000      -0.425444       -11.5769
  76   1.0000      -0.423029       -11.5112
  77   1.0000      -0.421665       -11.4741
  78   1.0000      -0.339962        -9.2508
  79   1.0000      -0.335841        -9.1387
  80   1.0000      -0.302187        -8.2229
  81   0.0000       0.019735         0.5370
  82   0.0000       0.024857         0.6764
  83   0.0000       0.025061         0.6819
  84   0.0000       0.025942         0.7059
  85   0.0000       0.035457         0.9648

                 SPIN DOWN ORBITALS
  NO   OCC          E(Eh)            E(eV)
   0   1.0000     -68.742286     -1870.5727
   1   1.0000     -68.742125     -1870.5683
   2   1.0000     -68.741803     -1870.5595
   3   1.0000     -68.723395     -1870.0587
   4   1.0000     -11.219196      -305.2898
   5   1.0000     -11.213984      -305.1480
   6   1.0000     -11.200514      -304.7815
   7   1.0000     -11.195504      -304.6452
   8   1.0000     -11.194815      -304.6264
   9   1.0000     -11.194721      -304.6238
  10   1.0000     -11.194663      -304.6223
  11   1.0000     -11.194561      -304.6195
  12   1.0000     -11.194499      -304.6178
  13   1.0000     -11.194402      -304.6152
  14   1.0000     -11.194277      -304.6118
  15   1.0000     -11.193473      -304.5899
  16   1.0000      -6.091747      -165.7649
  17   1.0000      -6.091502      -165.7582
  18   1.0000      -6.091239      -165.7511
  19   1.0000      -6.076043      -165.3375
  20   1.0000      -4.198167      -114.2379
  21   1.0000      -4.197906      -114.2308
  22   1.0000      -4.197880      -114.2301
  23   1.0000      -4.197813      -114.2283
  24   1.0000      -4.197706      -114.2254
  25   1.0000      -4.197671      -114.2244
  26   1.0000      -4.197659      -114.2241
  27   1.0000      -4.197415      -114.2175
  28   1.0000      -4.197352      -114.2158
  29   1.0000      -4.182300      -113.8062
  30   1.0000      -4.182077      -113.8001
  31   1.0000      -4.180834      -113.7663
  32   1.0000      -1.041885       -28.3511
  33   1.0000      -0.968021       -26.3412
  34   1.0000      -0.961609       -26.1667
  35   1.0000      -0.961345       -26.1595
  36   1.0000      -0.923833       -25.1388
  37   1.0000      -0.922106       -25.0918
  38   1.0000      -0.921238       -25.0682
  39   1.0000      -0.919386       -25.0178
  40   1.0000      -0.919081       -25.0095
  41   1.0000      -0.918050       -24.9814
  42   1.0000      -0.892340       -24.2818
  43   1.0000      -0.766755       -20.8645
  44   1.0000      -0.694284       -18.8924
  45   1.0000      -0.626796       -17.0560
  46   1.0000      -0.622767       -16.9464
  47   1.0000      -0.615735       -16.7550
  48   1.0000      -0.595530       -16.2052
  49   1.0000      -0.580257       -15.7896
  50   1.0000      -0.574621       -15.6362
  51   1.0000      -0.573439       -15.6041
  52   1.0000      -0.566197       -15.4070
  53   1.0000      -0.564021       -15.3478
  54   1.0000      -0.561359       -15.2753
  55   1.0000      -0.558611       -15.2006
  56   1.0000      -0.553827       -15.0704
  57   1.0000      -0.551449       -15.0057
  58   1.0000      -0.549560       -14.9543
  59   1.0000      -0.540980       -14.7208
  60   1.0000      -0.538693       -14.6586
  61   1.0000      -0.537667       -14.6307
  62   1.0000      -0.534113       -14.5340
  63   1.0000      -0.533588       -14.5197
  64   1.0000      -0.531865       -14.4728
  65   1.0000      -0.528849       -14.3907
  66   1.0000      -0.527149       -14.3445
  67   1.0000      -0.526364       -14.3231
  68   1.0000      -0.516491       -14.0544
  69   1.0000      -0.495725       -13.4894
  70   1.0000      -0.482593       -13.1320
  71   1.0000      -0.435388       -11.8475
  72   1.0000      -0.431435       -11.7400
  73   1.0000      -0.430478       -11.7139
  74   1.0000      -0.425466       -11.5775
  75   1.0000      -0.425247       -11.5716
  76   1.0000      -0.423008       -11.5106
  77   1.0000      -0.384515       -10.4632
  78   1.0000      -0.335362        -9.1257
  79   1.0000      -0.334888        -9.1128
  80   0.0000       0.019781         0.5383
  81   0.0000       0.024851         0.6762
  82   0.0000       0.025085         0.6826
  83   0.0000       0.025695         0.6992
  84   0.0000       0.035443         0.9644

MULLIKEN ATOMIC CHARGES AND SPIN POPULATIONS
--------------------------------------------
   0 C :   -0.182710   -0.304109
   1 C :   -1.058758    1.336113
   2 Si:    0.180913    0.172035
   3 Si:    0.993742   -0.040278
   4 Si:    1.730733    0.010387
   5 Si:    1.323969    0.021628
   6 C :   -1.183792    0.000039
   7 H :    0.197333   -0.000414
   8 H :    0.354271   -0.010990
   9 H :    0.339561    0.001828
  10 C :   -1.203354   -0.003940
  11 H :    0.181556   -0.000032
  12 H :    0.315928    0.000102
  13 H :    0.322588   -0.001305
  14 C :   -1.103174    0.002613
  15 H :    0.133754    0.000053
  16 H :    0.356965   -0.000413
  17 H :    0.311409   -0.002182
  18 C :   -1.191583    0.012330
  19 H :    0.309048    0.002737
  20 H :    0.175789    0.000475
  21 H :    0.314494   -0.000921
  22 C :   -1.228748   -0.004174
  23 H :    0.267753   -0.000534
  24 H :    0.273594   -0.000023
  25 H :    0.322992   -0.000245
  26 C :   -1.211685   -0.002988
  27 H :    0.281413   -0.000476
  28 H :    0.292701   -0.000571
  29 H :    0.215010    0.000237
  30 C :   -1.158119   -0.001753
  31 H :    0.321401   -0.000276
  32 H :    0.201524    0.000054
  33 H :    0.328788    0.000320
  34 C :   -1.207634   -0.001088
  35 H :    0.181207    0.000087
  36 H :    0.304456    0.000596
  37 H :    0.291017    0.000648
  38 C :   -1.161961    0.003638
  39 H :    0.169553   -0.001067
  40 H :    0.419369   -0.006138
  41 H :    0.299367   -0.001099
  42 C :   -1.239332    0.017028
  43 H :    0.290285    0.001607
  44 H :    0.166814    0.001849
  45 H :    0.284060    0.002973
  46 H :    0.158387    0.038469
  47 H :    0.311247   -0.124765
  48 H :    0.207858   -0.118066
Sum of atomic charges         :   -0.0000000

LOEWDIN ATOMIC CHARGES AND SPIN POPULATIONS
-------------------------------------------
   0 C :    0.062657    0.139596
   1 C :    0.774521    0.440472
   2 Si:    0.327166    0.042128
   3 Si:    0.147287    0.008427
   4 Si:    0.147053    0.013677
   5 Si:    0.154942    0.003182
   6 C :    0.962733    0.003228
   7 H :   -0.328235    0.000424
   8 H :   -0.344757    0.005615
   9 H :   -0.352483    0.000288
  10 C :    0.960211   -0.000441
  11 H :   -0.325617   -0.000118
  12 H :   -0.351814   -0.000034
  13 H :   -0.351806   -0.000021
  14 C :    0.965458    0.000450
  15 H :   -0.328886    0.000049
  16 H :   -0.344890    0.000017
  17 H :   -0.347207    0.000274
  18 C :    0.961291    0.005670
  19 H :   -0.353074    0.000770
  20 H :   -0.325293    0.001311
  21 H :   -0.351404    0.000857
  22 C :    0.969418    0.000335
  23 H :   -0.345929   -0.000157
  24 H :   -0.328968   -0.000003
  25 H :   -0.353213    0.000026
  26 C :    0.965250    0.000956
  27 H :   -0.347606   -0.000110
  28 H :   -0.350990    0.000094
  29 H :   -0.328074    0.000089
  30 C :    0.961682   -0.000217
  31 H :   -0.357190    0.000024
  32 H :   -0.329219   -0.000065
  33 H :   -0.334316    0.000023
  34 C :    0.961120   -0.000066
  35 H :   -0.325616   -0.000028
  36 H :   -0.354845    0.000092
  37 H :   -0.350654    0.000020
  38 C :    0.961120    0.000469
  39 H :   -0.329630    0.000030
  40 H :   -0.348071    0.000964
  41 H :   -0.347206   -0.000854
  42 C :    0.853084    0.016122
  43 H :   -0.320369    0.001525
  44 H :   -0.261739    0.007642
  45 H :   -0.306226    0.000791
  46 H :   -0.344552    0.017986
  47 H :   -0.343727    0.143771
  48 H :   -0.321386    0.144721

  Mayer bond orders larger than 0.100000
B(  0-C ,  1-C ) :   0.4040 B(  0-C ,  2-Si) :   0.5132 B(  0-C ,  5-Si) :   0.3378
B(  0-C , 42-C ) :   0.5092 B(  0-C , 43-H ) :  -0.1705 B(  0-C , 44-H ) :  -0.1374
B(  0-C , 46-H ) :   1.1448 B(  0-C , 47-H ) :  -0.1314 B(  0-C , 48-H ) :  -0.1492
B(  1-C ,  2-Si) :  -0.2415 B(  1-C , 42-C ) :   0.1127 B(  1-C , 46-H ) :  -0.1461
B(  1-C , 47-H ) :   1.0555 B(  1-C , 48-H ) :   1.1987 B(  2-Si,  3-Si) :   0.6535
B(  2-Si,  4-Si) :   0.4160 B(  2-Si,  5-Si) :   0.6061 B(  2-Si,  6-C ) :  -0.1325
B(  2-Si, 14-C ) :  -0.1646 B(  2-Si, 30-C ) :  -0.1125 B(  2-Si, 45-H ) :  -0.1353
B(  2-Si, 46-H ) :  -0.1591 B(  2-Si, 48-H ) :  -0.1017 B(  3-Si,  6-C ) :   1.0667
B(  3-Si, 10-C ) :   0.8329 B(  3-Si, 14-C ) :   1.0719 B(  4-Si, 18-C ) :   0.8223
B(  4-Si, 22-C ) :   0.7598 B(  4-Si, 25-H ) :  -0.1037 B(  4-Si, 26-C ) :   1.0013
B(  4-Si, 42-C ) :  -0.1343 B(  5-Si, 30-C ) :   1.1242 B(  5-Si, 34-C ) :   0.5268
B(  5-Si, 38-C ) :   1.0492 B(  6-C ,  7-H ) :   1.0798 B(  6-C ,  8-H ) :   0.8753
B(  6-C ,  9-H ) :   0.8572 B( 10-C , 11-H ) :   1.1154 B( 10-C , 12-H ) :   0.8642
B( 10-C , 13-H ) :   0.8620 B( 14-C , 15-H ) :   1.1092 B( 14-C , 16-H ) :   0.8470
B( 14-C , 17-H ) :   0.9226 B( 18-C , 19-H ) :   0.8718 B( 18-C , 20-H ) :   1.1310
B( 18-C , 21-H ) :   0.8569 B( 22-C , 23-H ) :   0.9686 B( 22-C , 24-H ) :   0.9912
B( 22-C , 25-H ) :   0.9065 B( 26-C , 27-H ) :   0.9194 B( 26-C , 28-H ) :   0.8960
B( 26-C , 29-H ) :   1.0558 B( 30-C , 31-H ) :   0.8715 B( 30-C , 32-H ) :   1.0595
B( 30-C , 33-H ) :   0.9174 B( 34-C , 35-H ) :   1.1339 B( 34-C , 36-H ) :   0.8744
B( 34-C , 37-H ) :   0.8974 B( 38-C , 39-H ) :   1.0771 B( 38-C , 40-H ) :   0.7929
B( 38-C , 41-H ) :   0.9689 B( 42-C , 43-H ) :   1.0087 B( 42-C , 44-H ) :   1.2236
B( 42-C , 45-H ) :   1.0009

MP2 TOTAL ENERGY:    -1632.499553516 Eh
FINAL SINGLE POINT ENERGY     -1632.499553516279

DIPOLE MOMENT
-------------
                                X             Y             Z
Electronic contribution:      0.92039      -0.70597       1.42760
Nuclear contribution   :     -0.95738       0.66190      -1.48479
                        -----------------------------------------
Total Dipole Moment    :     -0.03699      -0.04408      -0.05719
                        -----------------------------------------
Magnitude (a.u.)       :      0.08113
Magnitude (Debye)      :      0.20621

Rotational constants in cm-1:     0.011049     0.010921     0.009009
Rotational constants in MHz :   331.243310   327.395533   270.097581

                             ****ORCA TERMINATED NORMALLY****
TOTAL RUN TIME: 0 days 19 hours 35 minutes 9 seconds 391 msec
