                         Program Version 4.2.1 -  RELEASE  -
|  1> %pal
|  2>  nprocs 32
|  3> end
|  4> !RI-MP2 aug-cc-pVQZ aug-cc-pVQZ/C TightSCF
|  5> %maxcore 4500
|  6> *xyzfile 0 1  10_74P.xyz
|  7>
|  8>
|  9>                          ****END OF INPUT****

CARTESIAN COORDINATES (ANGSTROEM)
---------------------------------
  C      0.650121   -1.104639   -0.227312
  C      1.683642   -1.477653    0.520384
  C     -0.083305    0.199908   -0.038708
  C     -1.401901    0.153312   -0.845386
  C     -2.120964    1.508508   -0.929202
  C     -2.452694   -0.770666   -0.222084
  H     -1.152056   -0.206564   -1.846034
  C      3.180837    0.709432   -0.733819
  C      2.212958    1.419551   -0.156085
  H      2.963670    0.150895   -1.638480
  C      4.547801    0.446600   -0.192176
  C      0.810962    1.322097   -0.727138
  C      0.068075    2.635849   -0.744928
  C     -1.252938    2.718706   -0.808839
  C     -3.283334    1.412426    0.058725
  H     -2.636039    1.576740   -1.897232
  N     -3.370511    0.113909    0.481502
  H     -1.991473   -1.493664    0.458228
  C     -3.399360   -1.546233   -1.130036
  C      2.739599   -2.388448    0.074087
  H      1.893302   -0.924560    1.429153
  C      4.554019   -0.776874    0.756558
  H      4.904515    1.292383    0.408817
  O      5.427197    0.224911   -1.278639
  C      4.029474   -2.055272    0.154684
  H      3.959780   -0.498202    1.633558
  O      5.922854   -0.917411    1.140700
  H      0.469804   -1.622204   -1.167909
  C     -0.337269    0.520676    1.438936
  C      2.442260    2.212821    1.107870
  H      6.260623   -0.083869   -0.905734
  H      6.029473   -1.722132    1.654284
  H      2.457160   -3.298916   -0.445507
  H      4.779284   -2.702860   -0.288620
  C     -4.668883   -0.535631    0.715049
  O     -4.056776    2.298651    0.345722
  H      3.353771    2.809705    1.036617
  H      2.551652    1.567643    1.984520
  H      1.614084    2.889980    1.314799
  H     -0.799108    1.499473    1.561037
  H      0.586243    0.525748    2.012478
  H     -0.995563   -0.221074    1.890083
  C     -4.601387   -1.781421   -0.202896
  O     -2.759038   -2.719825   -1.588011
  H     -3.687108   -0.913952   -1.980946
  H     -5.438076    0.164368    0.381181
  C     -4.900715   -0.864937    2.179778
  H     -4.394910   -2.677848    0.388308
  H     -5.534792   -1.942172   -0.744403
  H     -5.852217   -1.386697    2.309124
  H     -4.923978    0.048727    2.774663
  H     -4.103776   -1.507926    2.561264
  H     -3.328388   -3.176770   -2.211829
  H     -1.756847    3.678585   -0.809411
  H      0.658382    3.545363   -0.710120
  H      0.930270    0.993147   -1.765353

 Total Charge           Charge          ....    0
 Multiplicity           Mult            ....    1
 Number of Electrons    NEL             ....  200
 Basis Dimension        Dim             .... 3494

ORBITAL ENERGIES
----------------

  NO   OCC          E(Eh)            E(eV)
   0   2.0000     -20.573026      -559.8205
   1   2.0000     -20.569633      -559.7282
   2   2.0000     -20.547079      -559.1144
   3   2.0000     -20.517788      -558.3174
   4   2.0000     -15.574571      -423.8056
   5   2.0000     -11.341380      -308.6146
   6   2.0000     -11.294272      -307.3328
   7   2.0000     -11.292937      -307.2964
   8   2.0000     -11.282629      -307.0159
   9   2.0000     -11.272418      -306.7381
  10   2.0000     -11.267709      -306.6100
  11   2.0000     -11.252478      -306.1955
  12   2.0000     -11.246508      -306.0330
  13   2.0000     -11.242376      -305.9206
  14   2.0000     -11.241475      -305.8961
  15   2.0000     -11.241331      -305.8922
  16   2.0000     -11.234365      -305.7026
  17   2.0000     -11.233141      -305.6693
  18   2.0000     -11.232895      -305.6626
  19   2.0000     -11.231477      -305.6240
  20   2.0000     -11.229624      -305.5736
  21   2.0000     -11.227515      -305.5162
  22   2.0000     -11.226854      -305.4982
  23   2.0000     -11.223148      -305.3974
  24   2.0000     -11.218173      -305.2620
  25   2.0000     -11.215524      -305.1899
  26   2.0000     -11.212804      -305.1159
  27   2.0000      -1.387372       -37.7523
  28   2.0000      -1.385060       -37.6894
  29   2.0000      -1.380472       -37.5646
  30   2.0000      -1.350340       -36.7446
  31   2.0000      -1.277636       -34.7662
  32   2.0000      -1.167067       -31.7575
  33   2.0000      -1.117124       -30.3985
  34   2.0000      -1.098800       -29.8999
  35   2.0000      -1.079493       -29.3745
  36   2.0000      -1.063616       -28.9425
  37   2.0000      -1.048471       -28.5303
  38   2.0000      -1.011001       -27.5107
  39   2.0000      -0.998762       -27.1777
  40   2.0000      -0.980443       -26.6792
  41   2.0000      -0.955899       -26.0113
  42   2.0000      -0.939512       -25.5654
  43   2.0000      -0.924064       -25.1451
  44   2.0000      -0.885394       -24.0928
  45   2.0000      -0.854331       -23.2475
  46   2.0000      -0.840422       -22.8691
  47   2.0000      -0.825729       -22.4692
  48   2.0000      -0.809072       -22.0160
  49   2.0000      -0.778089       -21.1729
  50   2.0000      -0.759654       -20.6712
  51   2.0000      -0.739359       -20.1190
  52   2.0000      -0.724181       -19.7060
  53   2.0000      -0.717598       -19.5268
  54   2.0000      -0.704683       -19.1754
  55   2.0000      -0.700822       -19.0703
  56   2.0000      -0.681325       -18.5398
  57   2.0000      -0.680764       -18.5245
  58   2.0000      -0.667411       -18.1612
  59   2.0000      -0.655725       -17.8432
  60   2.0000      -0.653525       -17.7833
  61   2.0000      -0.644408       -17.5352
  62   2.0000      -0.633306       -17.2331
  63   2.0000      -0.632476       -17.2105
  64   2.0000      -0.618951       -16.8425
  65   2.0000      -0.608815       -16.5667
  66   2.0000      -0.600934       -16.3522
  67   2.0000      -0.599141       -16.3035
  68   2.0000      -0.595786       -16.2122
  69   2.0000      -0.587366       -15.9831
  70   2.0000      -0.577667       -15.7191
  71   2.0000      -0.571350       -15.5472
  72   2.0000      -0.568388       -15.4666
  73   2.0000      -0.561731       -15.2855
  74   2.0000      -0.552442       -15.0327
  75   2.0000      -0.551471       -15.0063
  76   2.0000      -0.544375       -14.8132
  77   2.0000      -0.537996       -14.6396
  78   2.0000      -0.534461       -14.5434
  79   2.0000      -0.526456       -14.3256
  80   2.0000      -0.523310       -14.2400
  81   2.0000      -0.518539       -14.1102
  82   2.0000      -0.513206       -13.9650
  83   2.0000      -0.505717       -13.7613
  84   2.0000      -0.503240       -13.6939
  85   2.0000      -0.497604       -13.5405
  86   2.0000      -0.485258       -13.2045
  87   2.0000      -0.481322       -13.0974
  88   2.0000      -0.473030       -12.8718
  89   2.0000      -0.462795       -12.5933
  90   2.0000      -0.456026       -12.4091
  91   2.0000      -0.449037       -12.2189
  92   2.0000      -0.447090       -12.1659
  93   2.0000      -0.436318       -11.8728
  94   2.0000      -0.419923       -11.4267
  95   2.0000      -0.406468       -11.0606
  96   2.0000      -0.379841       -10.3360
  97   2.0000      -0.357728        -9.7343
  98   2.0000      -0.339223        -9.2307
  99   2.0000      -0.313722        -8.5368
 100   0.0000       0.016298         0.4435
 101   0.0000       0.021723         0.5911
 102   0.0000       0.025628         0.6974
 103   0.0000       0.026753         0.7280
 104   0.0000       0.031274         0.8510

MULLIKEN ATOMIC CHARGES
-----------------------
   0 C :   -0.589165
   1 C :   -0.613794
   2 C :    2.487220
   3 C :    1.019462
   4 C :   -0.555651
   5 C :    0.181110
   6 H :    0.272247
   7 C :   -0.800785
   8 C :    0.865086
   9 H :   -0.056757
  10 C :    0.965018
  11 C :    0.650380
  12 C :   -0.881478
  13 C :   -0.474719
  14 C :    1.980958
  15 H :    0.059940
  16 N :   -0.451713
  17 H :    0.000258
  18 C :    0.606189
  19 C :   -0.498722
  20 H :    0.210217
  21 C :    1.243818
  22 H :   -0.072545
  23 O :   -1.242065
  24 C :   -1.012526
  25 H :   -0.000350
  26 O :   -1.150684
  27 H :    0.078860
  28 C :   -1.403811
  29 C :   -1.096533
  30 H :    0.347600
  31 H :    0.313417
  32 H :    0.144366
  33 H :    0.128863
  34 C :   -0.014284
  35 O :   -1.262217
  36 H :    0.142575
  37 H :    0.194831
  38 H :    0.275863
  39 H :    0.136187
  40 H :    0.245466
  41 H :    0.167462
  42 C :   -0.602541
  43 O :   -1.160474
  44 H :    0.073972
  45 H :    0.245720
  46 C :   -1.077057
  47 H :    0.173874
  48 H :    0.316632
  49 H :    0.288894
  50 H :    0.243745
  51 H :    0.183452
  52 H :    0.299145
  53 H :   -0.060655
  54 H :    0.062981
  55 H :    0.472720
Sum of atomic charges:   -0.0000000

LOEWDIN ATOMIC CHARGES
----------------------
   0 C :    0.394310
   1 C :    0.355193
   2 C :   -0.213365
   3 C :    0.140023
   4 C :    0.102136
   5 C :   -0.045340
   6 H :   -0.264034
   7 C :    0.359137
   8 C :    0.003453
   9 H :   -0.313033
  10 C :   -0.243884
  11 C :    0.121172
  12 C :    0.420450
  13 C :    0.438834
  14 C :   -0.822700
  15 H :   -0.266299
  16 N :    0.491089
  17 H :   -0.279646
  18 C :   -0.180687
  19 C :    0.397483
  20 H :   -0.368936
  21 C :   -0.233251
  22 H :   -0.319646
  23 O :    1.303872
  24 C :    0.385146
  25 H :   -0.331945
  26 O :    1.303466
  27 H :   -0.282890
  28 C :    0.941481
  29 C :    0.926392
  30 H :   -0.836038
  31 H :   -0.767689
  32 H :   -0.314983
  33 H :   -0.319295
  34 C :    0.005324
  35 O :    0.741761
  36 H :   -0.274159
  37 H :   -0.275366
  38 H :   -0.300417
  39 H :   -0.265088
  40 H :   -0.316716
  41 H :   -0.268216
  42 C :    0.564331
  43 O :    1.319253
  44 H :   -0.264095
  45 H :   -0.294263
  46 C :    0.954418
  47 H :   -0.278584
  48 H :   -0.242686
  49 H :   -0.268945
  50 H :   -0.269440
  51 H :   -0.276370
  52 H :   -0.763891
  53 H :   -0.293048
  54 H :   -0.300905
  55 H :   -0.312870

  Mayer bond orders larger than 0.100000
B(  0-C ,  1-C ) :   1.8638 B(  0-C ,  2-C ) :   0.1755 B(  0-C ,  3-C ) :  -0.3533
B(  0-C ,  6-H ) :  -0.1312 B(  0-C , 19-C ) :  -0.7902 B(  0-C , 20-H ) :   0.2242
B(  0-C , 27-H ) :   1.3301 B(  0-C , 43-O ) :   0.1771 B(  1-C ,  2-C ) :  -1.2664
B(  1-C ,  5-C ) :  -0.1245 B(  1-C , 11-C ) :   0.1013 B(  1-C , 19-C ) :   1.1308
B(  1-C , 20-H ) :   1.0931 B(  1-C , 24-C ) :  -0.3994 B(  2-C ,  3-C ) :   1.3155
B(  2-C ,  5-C ) :   0.1624 B(  2-C ,  6-H ) :   0.1365 B(  2-C ,  7-C ) :  -0.1186
B(  2-C ,  8-C ) :   0.1520 B(  2-C , 11-C ) :   0.7723 B(  2-C , 13-C ) :   0.3358
B(  2-C , 16-N ) :   0.1209 B(  2-C , 20-H ) :  -0.2539 B(  2-C , 27-H ) :  -0.1552
B(  2-C , 28-C ) :  -0.1780 B(  2-C , 39-H ) :  -0.2888 B(  2-C , 40-H ) :  -0.1797
B(  2-C , 41-H ) :  -0.1853 B(  2-C , 55-H ) :   0.1669 B(  3-C ,  4-C ) :   0.1171
B(  3-C ,  5-C ) :   0.6816 B(  3-C ,  6-H ) :   0.9354 B(  3-C , 11-C ) :   0.3247
B(  3-C , 12-C ) :  -0.2145 B(  3-C , 14-C ) :  -0.1425 B(  3-C , 15-H ) :  -0.1656
B(  3-C , 16-N ) :   0.2080 B(  3-C , 17-H ) :  -0.1215 B(  3-C , 28-C ) :  -0.2616
B(  3-C , 43-O ) :   0.1228 B(  3-C , 44-H ) :  -0.1417 B(  4-C ,  5-C ) :  -0.1183
B(  4-C , 11-C ) :   0.1934 B(  4-C , 12-C ) :  -0.1691 B(  4-C , 13-C ) :   0.8126
B(  4-C , 14-C ) :   1.3777 B(  4-C , 15-H ) :   1.1889 B(  4-C , 35-O ) :   0.7682
B(  4-C , 53-H ) :  -0.1471 B(  5-C ,  6-H ) :  -0.1443 B(  5-C , 16-N ) :   0.6412
B(  5-C , 17-H ) :   0.9569 B(  5-C , 18-C ) :   0.7115 B(  5-C , 35-O ) :   0.1058
B(  5-C , 42-C ) :  -0.5905 B(  5-C , 43-O ) :  -0.1197 B(  7-C ,  8-C ) :   1.2762
B(  7-C ,  9-H ) :   1.4335 B(  7-C , 10-C ) :   0.8352 B(  7-C , 11-C ) :  -0.6137
B(  7-C , 22-H ) :  -0.2732 B(  7-C , 23-O ) :   0.1328 B(  8-C ,  9-H ) :  -0.3260
B(  8-C , 11-C ) :   0.1530 B(  8-C , 12-C ) :  -0.1078 B(  8-C , 23-O ) :   0.1033
B(  8-C , 29-C ) :   0.3783 B(  8-C , 36-H ) :  -0.2469 B(  8-C , 37-H ) :  -0.1830
B(  8-C , 38-H ) :  -0.1179 B(  8-C , 55-H ) :  -0.1263 B( 10-C , 21-C ) :   0.9314
B( 10-C , 22-H ) :   1.3717 B( 10-C , 23-O ) :  -0.4188 B( 10-C , 26-O ) :   0.1192
B( 11-C , 12-C ) :   0.2756 B( 11-C , 13-C ) :  -0.3015 B( 11-C , 29-C ) :  -0.3098
B( 11-C , 54-H ) :  -0.1341 B( 11-C , 55-H ) :   0.9601 B( 12-C , 13-C ) :   1.6478
B( 12-C , 53-H ) :  -0.3339 B( 12-C , 54-H ) :   1.3788 B( 12-C , 55-H ) :  -0.3473
B( 13-C , 14-C ) :  -0.1505 B( 13-C , 15-H ) :  -0.1442 B( 13-C , 28-C ) :  -0.1132
B( 13-C , 53-H ) :   1.5151 B( 13-C , 54-H ) :  -0.1679 B( 13-C , 55-H ) :  -0.1718
B( 14-C , 15-H ) :   0.1895 B( 14-C , 16-N ) :   1.5920 B( 14-C , 35-O ) :  -0.9469
B( 16-N , 34-C ) :   0.5514 B( 16-N , 35-O ) :   0.6731 B( 16-N , 46-C ) :  -0.1622
B( 17-H , 42-C ) :   0.1142 B( 17-H , 43-O ) :   0.1549 B( 18-C , 34-C ) :  -0.1435
B( 18-C , 42-C ) :   1.1578 B( 18-C , 43-O ) :  -0.3277 B( 18-C , 44-H ) :   1.1681
B( 19-C , 24-C ) :   1.7632 B( 19-C , 32-H ) :   1.1525 B( 19-C , 33-H ) :  -0.1655
B( 20-H , 21-C ) :  -0.1872 B( 21-C , 23-O ) :   0.1064 B( 21-C , 24-C ) :   1.0307
B( 21-C , 25-H ) :   1.1396 B( 21-C , 26-O ) :  -0.7366 B( 23-O , 24-C ) :   0.1091
B( 23-O , 30-H ) :   0.9369 B( 24-C , 26-O ) :   0.3228 B( 24-C , 32-H ) :  -0.1577
B( 24-C , 33-H ) :   1.1242 B( 25-H , 26-O ) :   0.1812 B( 26-O , 31-H ) :   0.9619
B( 26-O , 33-H ) :   0.1693 B( 28-C , 39-H ) :   1.2620 B( 28-C , 40-H ) :   1.1832
B( 28-C , 41-H ) :   1.2029 B( 29-C , 36-H ) :   1.2107 B( 29-C , 37-H ) :   1.1360
B( 29-C , 38-H ) :   1.1037 B( 34-C , 35-O ) :   0.1697 B( 34-C , 42-C ) :   0.8954
B( 34-C , 45-H ) :   1.0424 B( 34-C , 46-C ) :   0.5948 B( 34-C , 50-H ) :  -0.1028
B( 39-H , 41-H ) :   0.1130 B( 42-C , 46-C ) :   0.1688 B( 42-C , 47-H ) :   1.0602
B( 42-C , 48-H ) :   0.9160 B( 43-O , 44-H ) :   0.1587 B( 43-O , 52-H ) :   0.9828
B( 46-C , 49-H ) :   1.0216 B( 46-C , 50-H ) :   1.0742 B( 46-C , 51-H ) :   1.0130

MP2 TOTAL ENERGY:    -1209.428316899 Eh
FINAL SINGLE POINT ENERGY     -1209.428316899226

DIPOLE MOMENT
-------------
                                X             Y             Z
Electronic contribution:      2.83010       2.07352      -7.44027
Nuclear contribution   :     -3.16549      -3.69423       7.44967
                        -----------------------------------------
Total Dipole Moment    :     -0.33539      -1.62071       0.00940
                        -----------------------------------------
Magnitude (a.u.)       :      1.65508
Magnitude (Debye)      :      4.20687

Rotational constants in cm-1:     0.013400     0.003648     0.003243
Rotational constants in MHz :   401.710114   109.373132    97.234921

                             ****ORCA TERMINATED NORMALLY****
TOTAL RUN TIME: 0 days 22 hours 45 minutes 20 seconds 80 msec
