                         Program Version 4.2.1 -  RELEASE  -
|  1> %pal
|  2>  nprocs 32
|  3> end
|  4> !RI-MP2 aug-cc-pVQZ aug-cc-pVQZ/C TightSCF
|  5> %maxcore 4500
|  6> *xyzfile 0 1  06_14TS.xyz
|  7>
|  8>
|  9>                          ****END OF INPUT****

CARTESIAN COORDINATES (ANGSTROEM)
---------------------------------
  C     -0.601337   -0.408195    1.119966
  H      0.209042   -0.720382    1.791008
  B     -0.131037   -0.235199   -0.375342
  C     -1.128162    0.947143    1.630747
  H     -0.267893    1.615715    1.737611
  H     -1.555106    0.833701    2.633984
  C     -1.651061   -1.543940    1.105724
  H     -1.126483   -2.477343    0.869793
  C      2.258439    3.112454   -0.000806
  H      1.722333    3.548001   -0.837319
  H      2.779067    3.794123    0.659072
  C      2.271249    1.799177    0.210649
  C      1.558383    0.823208   -0.607274
  H      2.821751    1.403274    1.058840
  H     -2.077176   -1.678097    2.106649
  H      1.115871    1.167836   -1.533407
  C      1.814776   -0.540760   -0.544766
  O      0.823100   -1.300680   -0.915320
  O      2.846830   -1.060403    0.081688
  C      2.794005   -2.459950    0.408188
  H      1.893666   -2.680365    0.979406
  H      2.809286   -3.059614   -0.500273
  H      3.683498   -2.647334    1.002570
  C     -2.792342   -1.359790    0.092072
  H     -3.324374   -2.310223   -0.013416
  H     -3.526814   -0.660349    0.490177
  C     -1.300269    0.253953   -1.304165
  H     -0.978940    0.396375   -2.342621
  C     -2.336101   -0.895090   -1.300793
  H     -1.884105   -1.746608   -1.821921
  H     -3.214972   -0.610397   -1.890385
  C     -1.824554    1.602285   -0.775295
  H     -2.704143    1.918721   -1.347354
  H     -1.053408    2.357510   -0.967068
  C     -2.164867    1.630294    0.723732
  H     -2.269010    2.673153    1.038376
  H     -3.145295    1.182224    0.884170

 Total Charge           Charge          ....    0
 Multiplicity           Mult            ....    1
 Number of Electrons    NEL             ....  120
 Basis Dimension        Dim             .... 2246

ORBITAL ENERGIES
----------------

  NO   OCC          E(Eh)            E(eV)
   0   2.0000     -20.628010      -561.3167
   1   2.0000     -20.583416      -560.1032
   2   2.0000     -11.404065      -310.3204
   3   2.0000     -11.304021      -307.5980
   4   2.0000     -11.237455      -305.7867
   5   2.0000     -11.224768      -305.4415
   6   2.0000     -11.216492      -305.2163
   7   2.0000     -11.206414      -304.9420
   8   2.0000     -11.205643      -304.9210
   9   2.0000     -11.204275      -304.8838
  10   2.0000     -11.202941      -304.8475
  11   2.0000     -11.201762      -304.8154
  12   2.0000     -11.200862      -304.7909
  13   2.0000     -11.183190      -304.3101
  14   2.0000     -11.181618      -304.2673
  15   2.0000      -7.601325      -206.8426
  16   2.0000      -1.495262       -40.6881
  17   2.0000      -1.401645       -38.1407
  18   2.0000      -1.103685       -30.0328
  19   2.0000      -1.093494       -29.7555
  20   2.0000      -1.029551       -28.0155
  21   2.0000      -1.017770       -27.6949
  22   2.0000      -1.016297       -27.6548
  23   2.0000      -0.960624       -26.1399
  24   2.0000      -0.920627       -25.0515
  25   2.0000      -0.902660       -24.5626
  26   2.0000      -0.820778       -22.3345
  27   2.0000      -0.792027       -21.5522
  28   2.0000      -0.781700       -21.2711
  29   2.0000      -0.775925       -21.1140
  30   2.0000      -0.743556       -20.2332
  31   2.0000      -0.718776       -19.5589
  32   2.0000      -0.713272       -19.4091
  33   2.0000      -0.697026       -18.9670
  34   2.0000      -0.660383       -17.9699
  35   2.0000      -0.636082       -17.3087
  36   2.0000      -0.622838       -16.9483
  37   2.0000      -0.619071       -16.8458
  38   2.0000      -0.608547       -16.5594
  39   2.0000      -0.584180       -15.8964
  40   2.0000      -0.575004       -15.6466
  41   2.0000      -0.571437       -15.5496
  42   2.0000      -0.565232       -15.3808
  43   2.0000      -0.552647       -15.0383
  44   2.0000      -0.545240       -14.8367
  45   2.0000      -0.541739       -14.7415
  46   2.0000      -0.530122       -14.4254
  47   2.0000      -0.515247       -14.0206
  48   2.0000      -0.497880       -13.5480
  49   2.0000      -0.491509       -13.3746
  50   2.0000      -0.489508       -13.3202
  51   2.0000      -0.470382       -12.7998
  52   2.0000      -0.461309       -12.5529
  53   2.0000      -0.454081       -12.3562
  54   2.0000      -0.447088       -12.1659
  55   2.0000      -0.431719       -11.7477
  56   2.0000      -0.411291       -11.1918
  57   2.0000      -0.406445       -11.0599
  58   2.0000      -0.369941       -10.0666
  59   2.0000      -0.309108        -8.4113
  60   0.0000       0.019316         0.5256
  61   0.0000       0.026421         0.7190
  62   0.0000       0.028041         0.7630
  63   0.0000       0.029243         0.7957
  64   0.0000       0.037607         1.0233

MULLIKEN ATOMIC CHARGES
-----------------------
   0 C :    0.188739
   1 H :    0.463043
   2 B :    2.036974
   3 C :   -0.743556
   4 H :    0.265616
   5 H :    0.084397
   6 C :   -0.685426
   7 H :    0.143811
   8 C :   -0.839505
   9 H :    0.352888
  10 H :    0.280196
  11 C :   -0.619982
  12 C :   -0.207497
  13 H :    0.288836
  14 H :    0.120168
  15 H :    0.332100
  16 C :    1.507084
  17 O :   -1.610858
  18 O :   -0.942978
  19 C :   -0.874529
  20 H :    0.379529
  21 H :    0.338182
  22 H :    0.459755
  23 C :   -0.525197
  24 H :    0.197637
  25 H :    0.145095
  26 C :    0.036169
  27 H :    0.310658
  28 C :   -0.671946
  29 H :    0.143946
  30 H :    0.125917
  31 C :   -0.637512
  32 H :    0.119825
  33 H :    0.194336
  34 C :   -0.450995
  35 H :    0.140370
  36 H :    0.154711
Sum of atomic charges:    0.0000000

LOEWDIN ATOMIC CHARGES
----------------------
   0 C :    0.292134
   1 H :   -0.269496
   2 B :   -1.299634
   3 C :    0.570731
   4 H :   -0.273524
   5 H :   -0.245801
   6 C :    0.572083
   7 H :   -0.259233
   8 C :    0.800657
   9 H :   -0.347454
  10 H :   -0.354144
  11 C :    0.352007
  12 C :    0.293433
  13 H :   -0.330935
  14 H :   -0.246663
  15 H :   -0.343683
  16 C :   -0.842334
  17 O :    1.052410
  18 O :    0.931914
  19 C :    0.643009
  20 H :   -0.308611
  21 H :   -0.292887
  22 H :   -0.309017
  23 C :    0.578074
  24 H :   -0.252851
  25 H :   -0.305985
  26 C :    0.305046
  27 H :   -0.261854
  28 C :    0.575885
  29 H :   -0.254774
  30 H :   -0.246653
  31 C :    0.568716
  32 H :   -0.245809
  33 H :   -0.267365
  34 C :    0.579725
  35 H :   -0.252156
  36 H :   -0.304960

  Mayer bond orders larger than 0.100000
B(  0-C ,  1-H ) :   0.7427 B(  0-C ,  2-B ) :   0.7597 B(  0-C ,  3-C ) :   0.5869
B(  0-C ,  4-H ) :  -0.1203 B(  0-C ,  6-C ) :   0.5388 B(  0-C ,  7-H ) :  -0.1166
B(  0-C , 14-H ) :  -0.1170 B(  0-C , 17-O ) :  -0.3248 B(  0-C , 18-O ) :   0.1191
B(  0-C , 23-C ) :  -0.1052 B(  0-C , 26-C ) :   0.1455 B(  0-C , 34-C ) :  -0.1496
B(  1-H ,  6-C ) :  -0.1120 B(  2-B ,  3-C ) :  -0.1341 B(  2-B ,  6-C ) :  -0.1811
B(  2-B , 11-C ) :  -0.1087 B(  2-B , 16-C ) :  -0.1270 B(  2-B , 17-O ) :  -0.1007
B(  2-B , 23-C ) :  -0.1165 B(  2-B , 26-C ) :   0.7744 B(  2-B , 28-C ) :  -0.1263
B(  2-B , 31-C ) :  -0.1390 B(  3-C ,  4-H ) :   1.1033 B(  3-C ,  5-H ) :   1.2034
B(  3-C , 34-C ) :   0.7751 B(  6-C ,  7-H ) :   1.2301 B(  6-C , 14-H ) :   1.1470
B(  6-C , 23-C ) :   0.8440 B(  7-H , 17-O ) :  -0.1029 B(  8-C ,  9-H ) :   0.8895
B(  8-C , 10-H ) :   1.1097 B(  8-C , 11-C ) :   1.6548 B(  8-C , 12-C ) :  -0.2653
B( 10-H , 11-C ) :  -0.1974 B( 11-C , 12-C ) :   0.7575 B( 11-C , 13-H ) :   0.9674
B( 12-C , 15-H ) :   0.8581 B( 12-C , 16-C ) :   1.5144 B( 16-C , 17-O ) :   1.2819
B( 16-C , 18-O ) :   0.3630 B( 16-C , 19-C ) :  -0.1748 B( 17-O , 18-O ) :   0.1037
B( 17-O , 26-C ) :  -0.1334 B( 18-O , 19-C ) :   1.0064 B( 19-C , 20-H ) :   0.8621
B( 19-C , 21-H ) :   0.8921 B( 19-C , 22-H ) :   0.8409 B( 23-C , 24-H ) :   1.0216
B( 23-C , 25-H ) :   1.1471 B( 23-C , 26-C ) :  -0.1138 B( 23-C , 28-C ) :   0.8524
B( 26-C , 27-H ) :   0.8935 B( 26-C , 28-C ) :   0.5246 B( 26-C , 29-H ) :  -0.1140
B( 26-C , 30-H ) :  -0.1049 B( 26-C , 31-C ) :   0.6372 B( 26-C , 33-H ) :  -0.1208
B( 26-C , 34-C ) :  -0.1511 B( 28-C , 29-H ) :   1.2023 B( 28-C , 30-H ) :   1.1509
B( 31-C , 32-H ) :   1.1485 B( 31-C , 33-H ) :   1.1294 B( 31-C , 34-C ) :   0.7468
B( 34-C , 35-H ) :   1.0997 B( 34-C , 36-H ) :   1.1840

MP2 TOTAL ENERGY:     -682.129201002 Eh
FINAL SINGLE POINT ENERGY      -682.129201002452

DIPOLE MOMENT
-------------
                                X             Y             Z
Electronic contribution:     10.79692      -3.12052      -4.16711
Nuclear contribution   :    -10.16658       2.51071       4.38945
                        -----------------------------------------
Total Dipole Moment    :      0.63034      -0.60981       0.22234
                        -----------------------------------------
Magnitude (a.u.)       :      0.90478
Magnitude (Debye)      :      2.29977

Rotational constants in cm-1:     0.024057     0.015992     0.012158
Rotational constants in MHz :   721.199212   479.432028   364.499987

                             ****ORCA TERMINATED NORMALLY****
TOTAL RUN TIME: 0 days 6 hours 24 minutes 41 seconds 167 msec
