                         Program Version 4.2.1 -  RELEASE  -
|  1> %pal
|  2>  nprocs 32
|  3> end
|  4> !RI-MP2 aug-cc-pVQZ aug-cc-pVQZ/C TightSCF
|  5> %maxcore 4500
|  6> *xyzfile 0 1  10_54TS.xyz
|  7>
|  8>
|  9>                          ****END OF INPUT****

CARTESIAN COORDINATES (ANGSTROEM)
---------------------------------
  C      0.181132    1.384768    1.357090
  N     -0.291005    0.054311    1.020510
  C      0.494250   -1.097449    1.423607
  C      1.501133   -1.623810    0.386466
  C      2.887805   -1.023168    0.469667
  C      2.429823    0.855324   -0.585826
  C      1.164848    1.546453   -0.996245
  C      0.472968    2.284980    0.145372
  C      3.762328   -0.918410   -0.645896
  C      3.232064    0.062771   -1.444975
  H      2.936838    1.281126    0.270461
  H      3.330515   -1.204006    1.457482
  C     -1.511431   -0.126488    0.392088
  C     -1.867094   -1.362589   -0.175324
  C     -3.095769   -1.537941   -0.790373
  C     -4.011331   -0.498948   -0.875523
  C     -3.669276    0.727389   -0.324043
  C     -2.446448    0.917756    0.297928
  H     -0.522973    1.893670    2.027739
  H      1.099069    1.249760    1.927115
  H      1.028111   -0.837985    2.342287
  H     -0.196481   -1.897600    1.696948
  H      1.095771   -1.516143   -0.620124
  H      1.613362   -2.703486    0.564521
  H      1.405562    2.261667   -1.794486
  H      0.471887    0.826754   -1.440346
  H      1.097555    3.115563    0.490467
  H     -0.449362    2.727961   -0.232838
  H      4.718050   -1.425000   -0.747114
  H      3.331123    0.203994   -2.517771
  H     -1.175297   -2.192346   -0.152754
  H     -3.333166   -2.505448   -1.217679
  H     -4.967573   -0.640838   -1.362332
  H     -4.367395    1.555421   -0.370080
  H     -2.228574    1.882931    0.730856

 Total Charge           Charge          ....    0
 Multiplicity           Mult            ....    1
 Number of Electrons    NEL             ....  116
 Basis Dimension        Dim             .... 2154

ORBITAL ENERGIES
----------------

  NO   OCC          E(Eh)            E(eV)
   0   2.0000     -15.557846      -423.3505
   1   2.0000     -11.273394      -306.7647
   2   2.0000     -11.256993      -306.3184
   3   2.0000     -11.255838      -306.2869
   4   2.0000     -11.248040      -306.0747
   5   2.0000     -11.245223      -305.9981
   6   2.0000     -11.227842      -305.5251
   7   2.0000     -11.227675      -305.5206
   8   2.0000     -11.225004      -305.4479
   9   2.0000     -11.221422      -305.3504
  10   2.0000     -11.221075      -305.3410
  11   2.0000     -11.219922      -305.3096
  12   2.0000     -11.219546      -305.2994
  13   2.0000     -11.215131      -305.1792
  14   2.0000     -11.214922      -305.1735
  15   2.0000     -11.210626      -305.0566
  16   2.0000      -1.258162       -34.2363
  17   2.0000      -1.137766       -30.9602
  18   2.0000      -1.127409       -30.6784
  19   2.0000      -1.075559       -29.2674
  20   2.0000      -1.028649       -27.9910
  21   2.0000      -1.009815       -27.4785
  22   2.0000      -0.989608       -26.9286
  23   2.0000      -0.970778       -26.4162
  24   2.0000      -0.888590       -24.1798
  25   2.0000      -0.869998       -23.6738
  26   2.0000      -0.829686       -22.5769
  27   2.0000      -0.817797       -22.2534
  28   2.0000      -0.787215       -21.4212
  29   2.0000      -0.766690       -20.8627
  30   2.0000      -0.715313       -19.4646
  31   2.0000      -0.704958       -19.1829
  32   2.0000      -0.666080       -18.1250
  33   2.0000      -0.655776       -17.8446
  34   2.0000      -0.651856       -17.7379
  35   2.0000      -0.631819       -17.1927
  36   2.0000      -0.625562       -17.0224
  37   2.0000      -0.599771       -16.3206
  38   2.0000      -0.597679       -16.2637
  39   2.0000      -0.583187       -15.8693
  40   2.0000      -0.580575       -15.7982
  41   2.0000      -0.565470       -15.3872
  42   2.0000      -0.560341       -15.2476
  43   2.0000      -0.545792       -14.8518
  44   2.0000      -0.531343       -14.4586
  45   2.0000      -0.514984       -14.0134
  46   2.0000      -0.503725       -13.7071
  47   2.0000      -0.501534       -13.6474
  48   2.0000      -0.493297       -13.4233
  49   2.0000      -0.485297       -13.2056
  50   2.0000      -0.480358       -13.0712
  51   2.0000      -0.472132       -12.8474
  52   2.0000      -0.470510       -12.8032
  53   2.0000      -0.402652       -10.9567
  54   2.0000      -0.338926        -9.2226
  55   2.0000      -0.333143        -9.0653
  56   2.0000      -0.299152        -8.1403
  57   2.0000      -0.276916        -7.5353
  58   0.0000       0.022413         0.6099
  59   0.0000       0.025623         0.6972
  60   0.0000       0.026630         0.7246
  61   0.0000       0.028199         0.7673
  62   0.0000       0.035084         0.9547

MULLIKEN ATOMIC CHARGES
-----------------------
   0 C :   -0.396932
   1 N :    0.347257
   2 C :   -0.607877
   3 C :   -0.299129
   4 C :   -0.474899
   5 C :    0.238496
   6 C :   -0.403924
   7 C :   -0.671896
   8 C :   -0.461555
   9 C :   -0.879492
  10 H :    0.325995
  11 H :    0.237069
  12 C :    1.103415
  13 C :   -0.373434
  14 C :   -0.603649
  15 C :   -0.502496
  16 C :   -0.542475
  17 C :   -0.392574
  18 H :    0.134520
  19 H :    0.190868
  20 H :    0.273993
  21 H :    0.293236
  22 H :    0.309572
  23 H :    0.277002
  24 H :    0.284416
  25 H :    0.221527
  26 H :    0.227933
  27 H :    0.323645
  28 H :    0.417869
  29 H :    0.333696
  30 H :    0.207672
  31 H :    0.174496
  32 H :    0.341334
  33 H :    0.176507
  34 H :    0.169815
Sum of atomic charges:    0.0000000

LOEWDIN ATOMIC CHARGES
----------------------
   0 C :    0.386322
   1 N :    0.504423
   2 C :    0.386332
   3 C :    0.521852
   4 C :    0.309217
   5 C :    0.296375
   6 C :    0.533018
   7 C :    0.549341
   8 C :    0.348857
   9 C :    0.352811
  10 H :   -0.313947
  11 H :   -0.273116
  12 C :   -0.214997
  13 C :    0.351738
  14 C :    0.343073
  15 C :    0.334060
  16 C :    0.344013
  17 C :    0.348642
  18 H :   -0.264256
  19 H :   -0.310154
  20 H :   -0.287418
  21 H :   -0.306035
  22 H :   -0.315546
  23 H :   -0.263042
  24 H :   -0.256718
  25 H :   -0.285630
  26 H :   -0.254091
  27 H :   -0.290291
  28 H :   -0.296626
  29 H :   -0.287042
  30 H :   -0.358041
  31 H :   -0.316986
  32 H :   -0.331284
  33 H :   -0.316313
  34 H :   -0.368537

  Mayer bond orders larger than 0.100000
B(  0-C ,  1-N ) :   0.6985 B(  0-C ,  7-C ) :   0.8794 B(  0-C , 18-H ) :   1.0718
B(  0-C , 19-H ) :   1.0377 B(  1-N ,  2-C ) :   0.9364 B(  1-N ,  3-C ) :  -0.1985
B(  1-N ,  7-C ) :  -0.1736 B(  1-N , 12-C ) :   0.7195 B(  1-N , 13-C ) :  -0.1338
B(  1-N , 17-C ) :  -0.1692 B(  2-C ,  3-C ) :   0.9157 B(  2-C , 12-C ) :  -0.1019
B(  2-C , 20-H ) :   0.9483 B(  2-C , 21-H ) :   0.9664 B(  3-C ,  4-C ) :   0.9181
B(  3-C , 22-H ) :   0.8788 B(  3-C , 23-H ) :   0.9244 B(  4-C ,  5-C ) :   0.3993
B(  4-C ,  8-C ) :   1.4340 B(  4-C , 10-H ) :   0.1243 B(  4-C , 11-H ) :   0.9519
B(  5-C ,  6-C ) :   0.7058 B(  5-C ,  8-C ) :  -0.5109 B(  5-C ,  9-C ) :   0.9711
B(  5-C , 10-H ) :   0.8939 B(  5-C , 24-H ) :  -0.1113 B(  5-C , 25-H ) :   0.1059
B(  6-C ,  7-C ) :   1.0264 B(  6-C ,  9-C ) :  -0.1577 B(  6-C , 24-H ) :   0.9663
B(  6-C , 25-H ) :   0.8635 B(  7-C , 26-H ) :   0.9892 B(  7-C , 27-H ) :   0.9487
B(  8-C ,  9-C ) :   1.7257 B(  8-C , 28-H ) :   0.8594 B(  9-C , 29-H ) :   0.9421
B( 12-C , 13-C ) :   1.1047 B( 12-C , 14-C ) :  -0.4636 B( 12-C , 15-C ) :  -0.1105
B( 12-C , 16-C ) :  -0.4152 B( 12-C , 17-C ) :   0.9659 B( 13-C , 14-C ) :   1.1827
B( 13-C , 30-H ) :   0.9898 B( 13-C , 31-H ) :  -0.1625 B( 14-C , 15-C ) :   1.2745
B( 14-C , 17-C ) :   0.1459 B( 14-C , 31-H ) :   1.2324 B( 14-C , 32-H ) :  -0.1024
B( 15-C , 16-C ) :   1.1918 B( 15-C , 31-H ) :  -0.1279 B( 15-C , 32-H ) :   1.0210
B( 15-C , 33-H ) :  -0.1178 B( 16-C , 17-C ) :   1.2905 B( 16-C , 33-H ) :   1.2612
B( 17-C , 32-H ) :  -0.1060 B( 17-C , 33-H ) :  -0.1887 B( 17-C , 34-H ) :   1.0530

MP2 TOTAL ENERGY:     -636.505483893 Eh
FINAL SINGLE POINT ENERGY      -636.505483893242

DIPOLE MOMENT
-------------
                                X             Y             Z
Electronic contribution:     -4.59328      -1.92297      -0.79173
Nuclear contribution   :      4.98911       2.12043       1.08083
                        -----------------------------------------
Total Dipole Moment    :      0.39584       0.19745       0.28909
                        -----------------------------------------
Magnitude (a.u.)       :      0.52844
Magnitude (Debye)      :      1.34319

Rotational constants in cm-1:     0.033942     0.011850     0.010661
Rotational constants in MHz :  1017.564520   355.250041   319.604227

                             ****ORCA TERMINATED NORMALLY****
TOTAL RUN TIME: 0 days 5 hours 33 minutes 51 seconds 105 msec
