                         Program Version 4.2.1 -  RELEASE  -
|  1> %pal
|  2>  nprocs 32
|  3> end
|  4> !RI-MP2 aug-cc-pVQZ aug-cc-pVQZ/C TightSCF
|  5> %maxcore 4500
|  6> *xyzfile 0 1  02_38R.xyz
|  7>
|  8>
|  9>                          ****END OF INPUT****

CARTESIAN COORDINATES (ANGSTROEM)
---------------------------------
  C     -6.283972   -0.011287   -1.169419
  C     -6.138396   -0.539964    0.105168
  C     -4.876881   -0.731146    0.643691
  C     -3.730445   -0.393082   -0.082354
  C     -3.882817    0.139050   -1.365588
  C     -5.150621    0.323274   -1.895914
  H     -7.270265    0.137181   -1.591158
  H     -7.011451   -0.809439    0.687089
  H     -4.794490   -1.151496    1.638970
  H     -3.007716    0.402238   -1.939684
  H     -5.248438    0.736815   -2.892525
  C     -2.392889   -0.592413    0.500891
  C     -1.106305   -0.410590   -0.160241
  O     -0.940826   -0.029095   -1.287048
  O     -0.083279   -0.748171    0.673225
  N     -2.324433   -0.975862    1.755183
  N     -2.298444   -1.302321    2.827319
  C      1.218212   -0.414113    0.257229
  C      2.039969   -1.429449    0.005838
  C      1.482610    1.038855    0.247980
  C      1.870575    1.685741   -0.921060
  C      1.303429    1.782576    1.413413
  C      2.109620    3.051627   -0.917798
  H      1.958867    1.112989   -1.835131
  C      1.543492    3.147687    1.416258
  H      0.986667    1.282003    2.320805
  C      1.951845    3.783856    0.250796
  H      2.407596    3.547948   -1.833435
  H      1.413387    3.716439    2.329010
  H      2.136992    4.851272    0.251977
  C      3.472097   -1.403263   -0.248643
  C      4.393856   -0.206814   -0.122327
  C      4.162178   -2.486950   -0.619985
  C      5.794323   -0.844729   -0.101609
  H      4.187585    0.394326    0.764465
  C      5.625133   -2.203547   -0.807362
  H      6.553004   -0.213179   -0.565329
  H      6.097320   -1.015663    0.934042
  H      5.868144   -2.139835   -1.875452
  H      6.267858   -2.981430   -0.388096
  H      4.271238    0.459109   -0.981269
  H      1.589188   -2.416597    0.033920
  H      3.717408   -3.459186   -0.798913

 Total Charge           Charge          ....    0
 Multiplicity           Mult            ....    1
 Number of Electrons    NEL             ....  174
 Basis Dimension        Dim             .... 2828

ORBITAL ENERGIES
----------------

  NO   OCC          E(Eh)            E(eV)
   0   2.0000     -20.610563      -560.8419
   1   2.0000     -20.543368      -559.0135
   2   2.0000     -15.765416      -428.9988
   3   2.0000     -15.702294      -427.2811
   4   2.0000     -11.396002      -310.1010
   5   2.0000     -11.302156      -307.5473
   6   2.0000     -11.297146      -307.4110
   7   2.0000     -11.264728      -306.5288
   8   2.0000     -11.244932      -305.9901
   9   2.0000     -11.238873      -305.8253
  10   2.0000     -11.238001      -305.8016
  11   2.0000     -11.237788      -305.7958
  12   2.0000     -11.236579      -305.7629
  13   2.0000     -11.235960      -305.7460
  14   2.0000     -11.235798      -305.7416
  15   2.0000     -11.235635      -305.7372
  16   2.0000     -11.234010      -305.6929
  17   2.0000     -11.233554      -305.6805
  18   2.0000     -11.232406      -305.6493
  19   2.0000     -11.230093      -305.5864
  20   2.0000     -11.227228      -305.5084
  21   2.0000     -11.223086      -305.3957
  22   2.0000     -11.221668      -305.3571
  23   2.0000     -11.218676      -305.2757
  24   2.0000     -11.217409      -305.2412
  25   2.0000      -1.507807       -41.0295
  26   2.0000      -1.471889       -40.0521
  27   2.0000      -1.373409       -37.3724
  28   2.0000      -1.194962       -32.5166
  29   2.0000      -1.166190       -31.7336
  30   2.0000      -1.145855       -31.1803
  31   2.0000      -1.143259       -31.1097
  32   2.0000      -1.078230       -29.3401
  33   2.0000      -1.022201       -27.8155
  34   2.0000      -1.022042       -27.8112
  35   2.0000      -1.019651       -27.7461
  36   2.0000      -1.018599       -27.7175
  37   2.0000      -0.967283       -26.3211
  38   2.0000      -0.957649       -26.0589
  39   2.0000      -0.898574       -24.4514
  40   2.0000      -0.858477       -23.3604
  41   2.0000      -0.846401       -23.0317
  42   2.0000      -0.834244       -22.7009
  43   2.0000      -0.828697       -22.5500
  44   2.0000      -0.796131       -21.6638
  45   2.0000      -0.778694       -21.1893
  46   2.0000      -0.746802       -20.3215
  47   2.0000      -0.734920       -19.9982
  48   2.0000      -0.726790       -19.7770
  49   2.0000      -0.706167       -19.2158
  50   2.0000      -0.703733       -19.1496
  51   2.0000      -0.700802       -19.0698
  52   2.0000      -0.684394       -18.6233
  53   2.0000      -0.674813       -18.3626
  54   2.0000      -0.658952       -17.9310
  55   2.0000      -0.644367       -17.5341
  56   2.0000      -0.639046       -17.3893
  57   2.0000      -0.632373       -17.2077
  58   2.0000      -0.628427       -17.1004
  59   2.0000      -0.625945       -17.0328
  60   2.0000      -0.620812       -16.8931
  61   2.0000      -0.605916       -16.4878
  62   2.0000      -0.591416       -16.0932
  63   2.0000      -0.588189       -16.0054
  64   2.0000      -0.580428       -15.7943
  65   2.0000      -0.572107       -15.5678
  66   2.0000      -0.552574       -15.0363
  67   2.0000      -0.537605       -14.6290
  68   2.0000      -0.521719       -14.1967
  69   2.0000      -0.515398       -14.0247
  70   2.0000      -0.514418       -13.9980
  71   2.0000      -0.508322       -13.8321
  72   2.0000      -0.500986       -13.6325
  73   2.0000      -0.499249       -13.5853
  74   2.0000      -0.494188       -13.4476
  75   2.0000      -0.490368       -13.3436
  76   2.0000      -0.484141       -13.1741
  77   2.0000      -0.476936       -12.9781
  78   2.0000      -0.474173       -12.9029
  79   2.0000      -0.455690       -12.4000
  80   2.0000      -0.417506       -11.3609
  81   2.0000      -0.402285       -10.9467
  82   2.0000      -0.348570        -9.4851
  83   2.0000      -0.341515        -9.2931
  84   2.0000      -0.340172        -9.2565
  85   2.0000      -0.302404        -8.2288
  86   2.0000      -0.294835        -8.0229
  87   0.0000       0.021728         0.5913
  88   0.0000       0.023918         0.6508
  89   0.0000       0.025920         0.7053
  90   0.0000       0.027929         0.7600
  91   0.0000       0.032284         0.8785

MULLIKEN ATOMIC CHARGES
-----------------------
   0 C :   -0.384381
   1 C :   -0.341799
   2 C :   -0.468185
   3 C :    0.440539
   4 C :   -0.568708
   5 C :   -0.336487
   6 H :    0.353747
   7 H :    0.224977
   8 H :    0.198634
   9 H :    0.419969
  10 H :    0.216401
  11 C :    0.296938
  12 C :    1.641320
  13 O :   -1.051476
  14 O :   -1.136904
  15 N :    0.026564
  16 N :   -0.402674
  17 C :    1.165296
  18 C :   -1.060965
  19 C :    0.910737
  20 C :   -0.434949
  21 C :   -0.650965
  22 C :   -0.133110
  23 H :    0.228327
  24 C :   -0.267762
  25 H :    0.192120
  26 C :   -0.403701
  27 H :    0.238369
  28 H :    0.249099
  29 H :    0.333451
  30 C :    0.583060
  31 C :   -0.197815
  32 C :   -0.741479
  33 C :   -0.644500
  34 H :    0.341866
  35 C :   -0.538887
  36 H :    0.296441
  37 H :    0.221948
  38 H :    0.227643
  39 H :    0.295233
  40 H :    0.176929
  41 H :    0.240972
  42 H :    0.244168
Sum of atomic charges:    0.0000000

LOEWDIN ATOMIC CHARGES
----------------------
   0 C :    0.338047
   1 C :    0.340978
   2 C :    0.310245
   3 C :   -0.140015
   4 C :    0.332870
   5 C :    0.349311
   6 H :   -0.323302
   7 H :   -0.319044
   8 H :   -0.355668
   9 H :   -0.414440
  10 H :   -0.317703
  11 C :   -0.360645
  12 C :   -1.108553
  13 O :    0.769800
  14 O :    0.814399
  15 N :    0.037323
  16 N :    0.491901
  17 C :   -0.447980
  18 C :    0.360952
  19 C :   -0.171042
  20 C :    0.312881
  21 C :    0.342626
  22 C :    0.362375
  23 H :   -0.299866
  24 C :    0.353304
  25 H :   -0.305678
  26 C :    0.345115
  27 H :   -0.313930
  28 H :   -0.318744
  29 H :   -0.318725
  30 C :   -0.037528
  31 C :    0.498381
  32 C :    0.405291
  33 C :    0.528318
  34 H :   -0.269050
  35 C :    0.510198
  36 H :   -0.255035
  37 H :   -0.266691
  38 H :   -0.267100
  39 H :   -0.271921
  40 H :   -0.283856
  41 H :   -0.348700
  42 H :   -0.289099

  Mayer bond orders larger than 0.100000
B(  0-C ,  1-C ) :   1.1759 B(  0-C ,  5-C ) :   1.2088 B(  0-C ,  6-H ) :   0.9736
B(  1-C ,  2-C ) :   1.2722 B(  1-C ,  3-C ) :  -0.4448 B(  1-C ,  4-C ) :   0.1311
B(  1-C ,  7-H ) :   1.1686 B(  2-C ,  3-C ) :   1.1255 B(  2-C ,  4-C ) :   0.1180
B(  2-C ,  5-C ) :   0.1045 B(  2-C ,  7-H ) :  -0.1654 B(  2-C ,  8-H ) :   0.9829
B(  2-C , 11-C ) :  -0.4686 B(  3-C ,  4-C ) :   1.2355 B(  3-C ,  5-C ) :  -0.3853
B(  3-C ,  8-H ) :  -0.1472 B(  3-C ,  9-H ) :  -0.1516 B(  3-C , 11-C ) :   0.6066
B(  3-C , 12-C ) :  -0.2450 B(  3-C , 15-N ) :   0.1894 B(  4-C ,  5-C ) :   1.1771
B(  4-C ,  9-H ) :   0.7306 B(  4-C , 10-H ) :  -0.1351 B(  4-C , 11-C ) :  -0.3849
B(  5-C ,  6-H ) :  -0.1054 B(  5-C , 10-H ) :   1.1657 B(  9-H , 11-C ) :   0.1296
B( 11-C , 12-C ) :   1.2349 B( 11-C , 13-O ) :   0.4482 B( 11-C , 15-N ) :   0.2772
B( 11-C , 16-N ) :  -0.1107 B( 11-C , 17-C ) :  -0.1106 B( 12-C , 13-O ) :   0.5709
B( 12-C , 14-O ) :   0.9119 B( 12-C , 15-N ) :   0.1282 B( 13-O , 14-O ) :   0.1129
B( 14-O , 17-C ) :  -0.4091 B( 14-O , 18-C ) :   0.3299 B( 14-O , 19-C ) :   0.2182
B( 15-N , 16-N ) :   2.0358 B( 17-C , 18-C ) :   1.7875 B( 17-C , 19-C ) :   0.5445
B( 17-C , 21-C ) :  -0.1968 B( 17-C , 30-C ) :  -0.5115 B( 17-C , 32-C ) :   0.1751
B( 18-C , 19-C ) :  -0.3424 B( 18-C , 30-C ) :   0.5178 B( 18-C , 32-C ) :  -0.6524
B( 18-C , 41-H ) :   0.9167 B( 19-C , 20-C ) :   0.6697 B( 19-C , 21-C ) :   0.9558
B( 19-C , 22-C ) :  -0.3571 B( 19-C , 24-C ) :  -0.1745 B( 19-C , 25-H ) :  -0.1159
B( 20-C , 22-C ) :   1.4443 B( 20-C , 23-H ) :   1.0420 B( 20-C , 24-C ) :   0.1095
B( 20-C , 26-C ) :   0.1620 B( 20-C , 27-H ) :  -0.1219 B( 21-C , 22-C ) :   0.2209
B( 21-C , 24-C ) :   1.2786 B( 21-C , 25-H ) :   1.1482 B( 21-C , 26-C ) :   0.1264
B( 21-C , 28-H ) :  -0.1440 B( 22-C , 26-C ) :   0.9977 B( 22-C , 27-H ) :   1.1261
B( 24-C , 26-C ) :   1.0507 B( 24-C , 28-H ) :   1.1345 B( 26-C , 27-H ) :  -0.1020
B( 26-C , 28-H ) :  -0.1007 B( 26-C , 29-H ) :   1.0375 B( 30-C , 31-C ) :   0.5638
B( 30-C , 32-C ) :   1.3861 B( 30-C , 35-C ) :  -0.3326 B( 30-C , 42-H ) :  -0.1206
B( 31-C , 32-C ) :  -0.1958 B( 31-C , 33-C ) :   0.8503 B( 31-C , 34-H ) :   0.8050
B( 31-C , 40-H ) :   0.9307 B( 32-C , 35-C ) :   1.0717 B( 32-C , 42-H ) :   1.1245
B( 33-C , 35-C ) :   1.0584 B( 33-C , 36-H ) :   0.9654 B( 33-C , 37-H ) :   0.9707
B( 35-C , 38-H ) :   0.9476 B( 35-C , 39-H ) :   0.9529

MP2 TOTAL ENERGY:    -1069.168393754 Eh
FINAL SINGLE POINT ENERGY     -1069.168393753949

DIPOLE MOMENT
-------------
                                X             Y             Z
Electronic contribution:    -19.65040      -2.30213       6.07901
Nuclear contribution   :     19.86068       2.40140      -5.66109
                        -----------------------------------------
Total Dipole Moment    :      0.21028       0.09927       0.41792
                        -----------------------------------------
Magnitude (a.u.)       :      0.47826
Magnitude (Debye)      :      1.21563

Rotational constants in cm-1:     0.013587     0.003687     0.003371
Rotational constants in MHz :   407.337665   110.531194   101.064282

                             ****ORCA TERMINATED NORMALLY****
TOTAL RUN TIME: 0 days 11 hours 38 minutes 43 seconds 62 msec
