                         Program Version 4.2.1 -  RELEASE  -
|  1> %pal
|  2>  nprocs 32
|  3> end
|  4> !RI-MP2 aug-cc-pVQZ aug-cc-pVQZ/C TightSCF
|  5> %maxcore 4500
|  6> *xyzfile 0 1  09_12R2.xyz
|  7>
|  8>
|  9>                          ****END OF INPUT****

CARTESIAN COORDINATES (ANGSTROEM)
---------------------------------
  C     -1.497326    0.603659    0.000000
  C     -0.195897   -1.081887    0.000000
  C     -0.228392    1.108370    0.000000
  H     -2.428836    1.146809    0.000000
  H      0.150566    2.116690    0.000001
  N     -1.464888   -0.766432    0.000000
  N      0.606343    0.016310    0.000000
  C      2.054010    0.034056    0.000000
  H      2.433516    0.538726    0.889611
  H      2.418409   -0.992023   -0.000028
  H      2.433513    0.538773   -0.889585
  H      0.208273   -2.083318    0.000000

 Total Charge           Charge          ....    0
 Multiplicity           Mult            ....    1
 Number of Electrons    NEL             ....   44
 Basis Dimension        Dim             ....  756

ORBITAL ENERGIES
----------------

  NO   OCC          E(Eh)            E(eV)
   0   2.0000     -15.618175      -424.9921
   1   2.0000     -15.536115      -422.7592
   2   2.0000     -11.288060      -307.1637
   3   2.0000     -11.284407      -307.0643
   4   2.0000     -11.252086      -306.1848
   5   2.0000     -11.237737      -305.7944
   6   2.0000      -1.345748       -36.6197
   7   2.0000      -1.183566       -32.2065
   8   2.0000      -1.014683       -27.6109
   9   2.0000      -0.967000       -26.3134
  10   2.0000      -0.805866       -21.9287
  11   2.0000      -0.784505       -21.3475
  12   2.0000      -0.720817       -19.6144
  13   2.0000      -0.652223       -17.7479
  14   2.0000      -0.619187       -16.8489
  15   2.0000      -0.591578       -16.0977
  16   2.0000      -0.575380       -15.6569
  17   2.0000      -0.557572       -15.1723
  18   2.0000      -0.553794       -15.0695
  19   2.0000      -0.430721       -11.7205
  20   2.0000      -0.383596       -10.4382
  21   2.0000      -0.317838        -8.6488
  22   0.0000       0.019698         0.5360
  23   0.0000       0.029986         0.8160
  24   0.0000       0.036564         0.9950
  25   0.0000       0.037012         1.0071
  26   0.0000       0.046041         1.2528

MULLIKEN ATOMIC CHARGES
-----------------------
   0 C :   -0.105876
   1 C :    0.143153
   2 C :   -0.395713
   3 H :    0.482611
   4 H :    0.318246
   5 N :   -0.847620
   6 N :   -0.234665
   7 C :   -0.788447
   8 H :    0.295213
   9 H :    0.284571
  10 H :    0.295214
  11 H :    0.553315
Sum of atomic charges:    0.0000000

LOEWDIN ATOMIC CHARGES
----------------------
   0 C :    0.043629
   1 C :   -0.093587
   2 C :    0.171060
   3 H :   -0.350631
   4 H :   -0.305928
   5 N :    0.550696
   6 N :    0.347931
   7 C :    0.812670
   8 H :   -0.277861
   9 H :   -0.302514
  10 H :   -0.277862
  11 H :   -0.317602

  Mayer bond orders larger than 0.100000
B(  0-C ,  2-C ) :   1.5571 B(  0-C ,  3-H ) :   0.8260 B(  0-C ,  5-N ) :   0.9916
B(  0-C ,  6-N ) :  -0.1258 B(  1-C ,  5-N ) :   1.5157 B(  1-C ,  6-N ) :   1.3191
B(  1-C , 11-H ) :   0.6832 B(  2-C ,  4-H ) :   1.0034 B(  2-C ,  5-N ) :   0.1506
B(  2-C ,  6-N ) :   1.0315 B(  6-N ,  7-C ) :   0.7212 B(  7-C ,  8-H ) :   0.9553
B(  7-C ,  9-H ) :   0.9363 B(  7-C , 10-H ) :   0.9553

MP2 TOTAL ENERGY:     -265.087758373 Eh
FINAL SINGLE POINT ENERGY      -265.087758372569

DIPOLE MOMENT
-------------
                                X             Y             Z
Electronic contribution:     -3.64918      -0.82862       0.00000
Nuclear contribution   :      5.24399       1.26938      -0.00000
                        -----------------------------------------
Total Dipole Moment    :      1.59480       0.44077      -0.00000
                        -----------------------------------------
Magnitude (a.u.)       :      1.65459
Magnitude (Debye)      :      4.20563

Rotational constants in cm-1:     0.308026     0.121198     0.088432
Rotational constants in MHz :  9234.385302  3633.421389  2651.114849

                             ****ORCA TERMINATED NORMALLY****
TOTAL RUN TIME: 0 days 0 hours 10 minutes 23 seconds 650 msec
