                         Program Version 4.2.1 -  RELEASE  -
|  1> %pal
|  2>  nprocs 32
|  3> end
|  4> !RI-MP2 aug-cc-pVQZ aug-cc-pVQZ/C TightSCF
|  5> %maxcore 4500
|  6> *xyzfile 0 2  01_2P.xyz
|  7>
|  8>
|  9>                          ****END OF INPUT****

CARTESIAN COORDINATES (ANGSTROEM)
---------------------------------
  C      1.107538   -0.669471    0.117194
  C      0.946303    0.834360    0.194710
  C     -0.318160   -0.731434   -0.454705
  H      1.278198   -1.225096    1.044976
  H      1.867474   -0.970142   -0.610630
  C     -0.421843    0.806721   -0.351804
  H      1.681614    1.624795    0.221177
  C     -1.291978   -0.116268    0.483862
  H     -0.628204   -1.353100   -1.283452
  H     -1.129418   -0.171350    1.555344
  H     -2.330892   -0.159627    0.177663
  H     -0.869935    1.511080   -1.040623

 Total Charge           Charge          ....    0
 Multiplicity           Mult            ....    2
 Number of Electrons    NEL             ....   37
 Basis Dimension        Dim             ....  722

ORBITAL ENERGIES
----------------
                 SPIN UP ORBITALS
  NO   OCC          E(Eh)            E(eV)
   0   1.0000     -11.233703      -305.6846
   1   1.0000     -11.228741      -305.5496
   2   1.0000     -11.227464      -305.5148
   3   1.0000     -11.226928      -305.5002
   4   1.0000     -11.224370      -305.4306
   5   1.0000      -1.197392       -32.5827
   6   1.0000      -0.988869       -26.9085
   7   1.0000      -0.889985       -24.2177
   8   1.0000      -0.799600       -21.7582
   9   1.0000      -0.724443       -19.7131
  10   1.0000      -0.695190       -18.9171
  11   1.0000      -0.606243       -16.4967
  12   1.0000      -0.597381       -16.2556
  13   1.0000      -0.543720       -14.7954
  14   1.0000      -0.494809       -13.4645
  15   1.0000      -0.482930       -13.1412
  16   1.0000      -0.445600       -12.1254
  17   1.0000      -0.399071       -10.8593
  18   1.0000      -0.301474        -8.2035
  19   0.0000       0.026539         0.7222
  20   0.0000       0.032327         0.8797
  21   0.0000       0.034010         0.9255
  22   0.0000       0.035329         0.9614
  23   0.0000       0.047977         1.3055

                 SPIN DOWN ORBITALS
  NO   OCC          E(Eh)            E(eV)
   0   1.0000     -11.232713      -305.6577
   1   1.0000     -11.231044      -305.6122
   2   1.0000     -11.227238      -305.5087
   3   1.0000     -11.225044      -305.4490
   4   1.0000     -11.202734      -304.8419
   5   1.0000      -1.183929       -32.2164
   6   1.0000      -0.965861       -26.2824
   7   1.0000      -0.867002       -23.5923
   8   1.0000      -0.787044       -21.4166
   9   1.0000      -0.704488       -19.1701
  10   1.0000      -0.684731       -18.6325
  11   1.0000      -0.600415       -16.3381
  12   1.0000      -0.580108       -15.7855
  13   1.0000      -0.534073       -14.5329
  14   1.0000      -0.482449       -13.1281
  15   1.0000      -0.473870       -12.8947
  16   1.0000      -0.420836       -11.4515
  17   1.0000      -0.380152       -10.3445
  18   0.0000       0.026568         0.7229
  19   0.0000       0.032514         0.8848
  20   0.0000       0.034089         0.9276
  21   0.0000       0.035102         0.9552
  22   0.0000       0.048060         1.3078

MULLIKEN ATOMIC CHARGES AND SPIN POPULATIONS
--------------------------------------------
   0 C :   -0.612916   -0.160623
   1 C :   -0.501774    1.164392
   2 C :   -0.326254    0.108898
   3 H :    0.275825    0.023629
   4 H :    0.291421    0.048637
   5 C :   -0.521143   -0.216071
   6 H :    0.445324   -0.060092
   7 C :   -0.677883    0.077934
   8 H :    0.520298   -0.002906
   9 H :    0.275664    0.000117
  10 H :    0.326070    0.001771
  11 H :    0.505368    0.014314
Sum of atomic charges         :    0.0000000

LOEWDIN ATOMIC CHARGES AND SPIN POPULATIONS
-------------------------------------------
   0 C :    0.506509    0.118826
   1 C :    0.461235    0.459213
   2 C :    0.174263    0.054261
   3 H :   -0.268955    0.011354
   4 H :   -0.279542    0.018903
   5 C :    0.179266    0.109120
   6 H :   -0.301980    0.152091
   7 C :    0.573524    0.042905
   8 H :   -0.242195    0.011019
   9 H :   -0.269900    0.014083
  10 H :   -0.275691    0.009700
  11 H :   -0.256534   -0.001473

  Mayer bond orders larger than 0.100000
B(  0-C ,  1-C ) :   1.0422 B(  0-C ,  2-C ) :   0.9601 B(  0-C ,  3-H ) :   0.8656
B(  0-C ,  4-H ) :   0.9007 B(  1-C ,  5-C ) :   0.9854 B(  1-C ,  6-H ) :   0.7718
B(  2-C ,  5-C ) :   0.8988 B(  2-C ,  7-C ) :   0.9532 B(  2-C ,  8-H ) :   0.6571
B(  5-C ,  7-C ) :   1.0307 B(  5-C , 11-H ) :   0.6801 B(  7-C ,  9-H ) :   0.9151
B(  7-C , 10-H ) :   0.8881

MP2 TOTAL ENERGY:     -194.231845659 Eh
FINAL SINGLE POINT ENERGY      -194.231845659010

DIPOLE MOMENT
-------------
                                X             Y             Z
Electronic contribution:      0.08822       0.70355      -0.25479
Nuclear contribution   :     -0.13581      -0.76978       0.06674
                        -----------------------------------------
Total Dipole Moment    :     -0.04759      -0.06623      -0.18805
                        -----------------------------------------
Magnitude (a.u.)       :      0.20497
Magnitude (Debye)      :      0.52100

Rotational constants in cm-1:     0.326659     0.213447     0.164783
Rotational constants in MHz :  9793.003403  6398.970543  4940.064589

                             ****ORCA TERMINATED NORMALLY****
TOTAL RUN TIME: 0 days 0 hours 12 minutes 39 seconds 382 msec
