                         Program Version 4.2.1 -  RELEASE  -
|  1> %pal
|  2>  nprocs 32
|  3> end
|  4> !RI-MP2 aug-cc-pVQZ aug-cc-pVQZ/C TightSCF MORead
|  5> %maxcore 4500
|  6> %moinp "05_37TS.gbw"
|  7> *xyzfile 1 1  05_37TS.xyz
|  8>
|  9>
| 10>                          ****END OF INPUT****

CARTESIAN COORDINATES (ANGSTROEM)
---------------------------------
  C     -1.496114    2.726775   -0.014690
  C     -1.585617    4.108166   -0.038923
  C     -2.831524    4.716361   -0.119314
  C     -3.990114    3.948381   -0.176223
  C     -3.909896    2.568343   -0.153390
  C     -2.655930    1.957252   -0.071988
  H     -0.528760    2.244618    0.046166
  H     -0.688326    4.711979    0.003636
  H     -2.902207    5.796772   -0.138400
  H     -4.957415    4.430323   -0.239114
  H     -4.801289    1.956074   -0.197595
  C     -2.574884    0.500399   -0.049336
  H     -1.338955    0.112252    0.043802
  N     -3.333449   -0.431443   -0.092892
  Si    -3.757805   -2.174933   -0.112590
  C     -2.912695   -2.874918   -1.614889
  H     -1.827988   -2.800643   -1.520766
  H     -3.170624   -3.930099   -1.736339
  H     -3.218103   -2.355323   -2.525377
  C     -3.109570   -2.865782    1.488990
  H     -3.522660   -2.336800    2.350278
  H     -3.386714   -3.918632    1.585889
  H     -2.021166   -2.797041    1.528944
  C     -5.609699   -2.228646   -0.228695
  H     -5.966793   -1.742654   -1.138835
  H     -5.958579   -3.264349   -0.247390
  H     -6.077937   -1.737021    0.626377
  C      1.483092   -0.516070   -1.129136
  C      1.340603   -0.463457    1.545994
  C      2.671407    0.294904    1.504771
  C      3.535936   -0.083668    0.316472
  C      2.787962    0.261625   -0.965996
  H      2.470822    1.371664    1.469884
  H      3.194979    0.093407    2.441662
  H      3.751500   -1.153647    0.326973
  H      2.580645    1.336851   -0.969619
  H      3.421659    0.043486   -1.825502
  N      0.741786   -0.517816    0.173835
  O     -0.483516   -0.816443    0.118704
  C      0.604863    0.159785   -2.179888
  H      1.170544    0.222216   -3.109694
  H     -0.304466   -0.406950   -2.376755
  H      0.336787    1.176534   -1.887699
  C      1.740026   -1.975383   -1.529076
  H      0.802577   -2.532261   -1.558186
  H      2.186752   -1.997293   -2.523767
  H      2.426454   -2.478086   -0.849934
  C      0.364892    0.263684    2.469465
  H     -0.567229   -0.286803    2.588903
  H      0.826198    0.360750    3.452660
  H      0.141702    1.268721    2.107513
  C      1.531554   -1.907784    2.029038
  H      1.864961   -1.897957    3.067829
  H      0.587584   -2.451317    1.978113
  H      2.273470   -2.445563    1.440765
  N      4.818327    0.586332    0.381995
  C      5.875493    0.111911   -0.343239
  O      5.752377   -0.866901   -1.054457
  H      4.927636    1.412938    0.946443
  C      7.174694    0.859536   -0.203660
  H      7.497204    1.188085   -1.191831
  H      7.111326    1.722081    0.460157
  H      7.931252    0.171523    0.174806

 Total Charge           Charge          ....    1
 Multiplicity           Mult            ....    1
 Number of Electrons    NEL             ....  212
 Basis Dimension        Dim             .... 3820

ORBITAL ENERGIES
----------------

  NO   OCC          E(Eh)            E(eV)
   0   2.0000     -68.885530     -1874.4706
   1   2.0000     -20.814908      -566.4024
   2   2.0000     -20.597884      -560.4969
   3   2.0000     -15.815191      -430.3532
   4   2.0000     -15.695746      -427.1029
   5   2.0000     -15.675261      -426.5455
   6   2.0000     -11.458388      -311.7986
   7   2.0000     -11.432977      -311.1071
   8   2.0000     -11.415367      -310.6279
   9   2.0000     -11.408096      -310.4301
  10   2.0000     -11.379416      -309.6497
  11   2.0000     -11.375441      -309.5415
  12   2.0000     -11.368894      -309.3633
  13   2.0000     -11.363119      -309.2062
  14   2.0000     -11.357195      -309.0450
  15   2.0000     -11.351166      -308.8809
  16   2.0000     -11.350175      -308.8540
  17   2.0000     -11.348510      -308.8087
  18   2.0000     -11.340933      -308.6025
  19   2.0000     -11.336663      -308.4863
  20   2.0000     -11.335588      -308.4570
  21   2.0000     -11.334810      -308.4359
  22   2.0000     -11.329324      -308.2866
  23   2.0000     -11.311490      -307.8013
  24   2.0000     -11.301359      -307.5256
  25   2.0000     -11.300798      -307.5103
  26   2.0000     -11.294128      -307.3289
  27   2.0000      -6.231360      -169.5639
  28   2.0000      -4.338999      -118.0702
  29   2.0000      -4.337339      -118.0250
  30   2.0000      -4.337168      -118.0204
  31   2.0000      -1.653173       -44.9851
  32   2.0000      -1.470047       -40.0020
  33   2.0000      -1.373555       -37.3763
  34   2.0000      -1.337447       -36.3938
  35   2.0000      -1.302707       -35.4485
  36   2.0000      -1.282049       -34.8863
  37   2.0000      -1.234951       -33.6047
  38   2.0000      -1.165547       -31.7161
  39   2.0000      -1.159571       -31.5535
  40   2.0000      -1.143536       -31.1172
  41   2.0000      -1.117587       -30.4111
  42   2.0000      -1.078085       -29.3362
  43   2.0000      -1.076601       -29.2958
  44   2.0000      -1.069233       -29.0953
  45   2.0000      -1.058455       -28.8020
  46   2.0000      -1.054523       -28.6950
  47   2.0000      -1.031413       -28.0662
  48   2.0000      -1.026824       -27.9413
  49   2.0000      -0.998391       -27.1676
  50   2.0000      -0.963691       -26.2234
  51   2.0000      -0.954672       -25.9779
  52   2.0000      -0.953924       -25.9576
  53   2.0000      -0.917363       -24.9627
  54   2.0000      -0.892615       -24.2893
  55   2.0000      -0.884813       -24.0770
  56   2.0000      -0.843758       -22.9598
  57   2.0000      -0.827565       -22.5192
  58   2.0000      -0.814314       -22.1586
  59   2.0000      -0.807000       -21.9596
  60   2.0000      -0.789932       -21.4951
  61   2.0000      -0.777884       -21.1673
  62   2.0000      -0.761803       -20.7297
  63   2.0000      -0.759764       -20.6742
  64   2.0000      -0.738440       -20.0940
  65   2.0000      -0.730575       -19.8800
  66   2.0000      -0.726933       -19.7809
  67   2.0000      -0.721174       -19.6241
  68   2.0000      -0.714489       -19.4422
  69   2.0000      -0.713072       -19.4037
  70   2.0000      -0.702864       -19.1259
  71   2.0000      -0.693703       -18.8766
  72   2.0000      -0.688913       -18.7463
  73   2.0000      -0.685598       -18.6561
  74   2.0000      -0.681054       -18.5324
  75   2.0000      -0.678183       -18.4543
  76   2.0000      -0.677064       -18.4238
  77   2.0000      -0.669986       -18.2312
  78   2.0000      -0.661795       -18.0084
  79   2.0000      -0.660574       -17.9751
  80   2.0000      -0.658681       -17.9236
  81   2.0000      -0.651534       -17.7291
  82   2.0000      -0.645807       -17.5733
  83   2.0000      -0.643211       -17.5027
  84   2.0000      -0.642358       -17.4794
  85   2.0000      -0.639367       -17.3981
  86   2.0000      -0.638636       -17.3782
  87   2.0000      -0.635119       -17.2825
  88   2.0000      -0.632223       -17.2037
  89   2.0000      -0.629677       -17.1344
  90   2.0000      -0.623473       -16.9656
  91   2.0000      -0.616274       -16.7697
  92   2.0000      -0.611874       -16.6499
  93   2.0000      -0.606738       -16.5102
  94   2.0000      -0.602547       -16.3961
  95   2.0000      -0.600023       -16.3275
  96   2.0000      -0.594140       -16.1674
  97   2.0000      -0.578533       -15.7427
  98   2.0000      -0.571866       -15.5613
  99   2.0000      -0.541715       -14.7408
 100   2.0000      -0.540520       -14.7083
 101   2.0000      -0.508808       -13.8454
 102   2.0000      -0.485382       -13.2079
 103   2.0000      -0.461412       -12.5557
 104   2.0000      -0.458225       -12.4689
 105   2.0000      -0.431054       -11.7296
 106   0.0000      -0.136911        -3.7255
 107   0.0000      -0.056618        -1.5407
 108   0.0000      -0.052936        -1.4404
 109   0.0000      -0.047761        -1.2997
 110   0.0000      -0.045544        -1.2393

MULLIKEN ATOMIC CHARGES
-----------------------
   0 C :   -0.444906
   1 C :   -0.863973
   2 C :   -0.219388
   3 C :   -0.401077
   4 C :   -0.323530
   5 C :    0.894672
   6 H :    0.888766
   7 H :    0.218110
   8 H :    0.312612
   9 H :    0.248306
  10 H :    0.361422
  11 C :    1.559182
  12 H :   -0.598727
  13 N :   -1.600757
  14 Si:    0.884901
  15 C :   -1.171749
  16 H :    0.446857
  17 H :    0.303271
  18 H :    0.277907
  19 C :   -1.176562
  20 H :    0.275456
  21 H :    0.308894
  22 H :    0.434202
  23 C :   -1.204481
  24 H :    0.318727
  25 H :    0.355946
  26 H :    0.314913
  27 C :    1.279165
  28 C :    0.979458
  29 C :   -0.847012
  30 C :    2.160982
  31 C :   -1.173466
  32 H :    0.162279
  33 H :    0.068998
  34 H :    0.106770
  35 H :    0.295087
  36 H :    0.120061
  37 N :    3.064898
  38 O :   -1.467085
  39 C :   -1.409367
  40 H :    0.061124
  41 H :    0.202321
  42 H :    0.377223
  43 C :   -1.525704
  44 H :    0.365336
  45 H :    0.215534
  46 H :    0.255496
  47 C :   -1.460482
  48 H :    0.184663
  49 H :    0.074712
  50 H :    0.336934
  51 C :   -1.384207
  52 H :    0.181368
  53 H :    0.351144
  54 H :    0.273924
  55 N :   -1.149072
  56 C :    0.986133
  57 O :   -0.931106
  58 H :   -0.021934
  59 C :   -0.921786
  60 H :    0.292592
  61 H :    0.206575
  62 H :    0.289456
Sum of atomic charges:    1.0000000

LOEWDIN ATOMIC CHARGES
----------------------
   0 C :    0.333490
   1 C :    0.384311
   2 C :    0.374870
   3 C :    0.382658
   4 C :    0.357311
   5 C :   -0.073301
   6 H :   -0.350554
   7 H :   -0.307908
   8 H :   -0.301794
   9 H :   -0.306314
  10 H :   -0.305138
  11 C :   -0.054537
  12 H :   -0.897322
  13 N :    0.651508
  14 Si:    0.038767
  15 C :    0.998845
  16 H :   -0.357114
  17 H :   -0.325799
  18 H :   -0.328550
  19 C :    0.998411
  20 H :   -0.329218
  21 H :   -0.326258
  22 H :   -0.357072
  23 C :    0.996523
  24 H :   -0.334378
  25 H :   -0.331197
  26 H :   -0.334399
  27 C :   -0.362626
  28 C :   -0.363982
  29 C :    0.534251
  30 C :   -0.019600
  31 C :    0.531610
  32 H :   -0.256525
  33 H :   -0.242584
  34 H :   -0.330475
  35 H :   -0.252894
  36 H :   -0.271987
  37 N :    0.184353
  38 O :    1.035080
  39 C :    0.924518
  40 H :   -0.251008
  41 H :   -0.275276
  42 H :   -0.280444
  43 C :    0.957804
  44 H :   -0.268572
  45 H :   -0.247425
  46 H :   -0.279777
  47 C :    0.924021
  48 H :   -0.273892
  49 H :   -0.251883
  50 H :   -0.279684
  51 C :    0.954929
  52 H :   -0.250286
  53 H :   -0.269670
  54 H :   -0.279321
  55 N :    0.878579
  56 C :   -0.805948
  57 O :    0.744398
  58 H :   -0.481569
  59 C :    0.914452
  60 H :   -0.290455
  61 H :   -0.304556
  62 H :   -0.289398

  Mayer bond orders larger than 0.100000
B(  0-C ,  1-C ) :   1.1394 B(  0-C ,  2-C ) :  -0.1435 B(  0-C ,  4-C ) :  -0.1879
B(  0-C ,  5-C ) :   0.8472 B(  0-C ,  6-H ) :  -0.1409 B(  0-C , 11-C ) :  -0.5053
B(  0-C , 12-H ) :   0.2289 B(  0-C , 13-N ) :  -0.2068 B(  0-C , 38-O ) :   0.1026
B(  1-C ,  2-C ) :   1.3318 B(  1-C ,  3-C ) :   0.2662 B(  1-C ,  4-C ) :   0.1089
B(  1-C ,  5-C ) :  -0.6705 B(  1-C ,  7-H ) :   1.0815 B(  1-C ,  8-H ) :  -0.1722
B(  1-C , 11-C ) :   0.1174 B(  2-C ,  3-C ) :   1.1090 B(  2-C ,  4-C ) :  -0.1403
B(  2-C ,  5-C ) :   0.2717 B(  2-C ,  8-H ) :   1.0881 B(  2-C , 11-C ) :  -0.1419
B(  3-C ,  4-C ) :   1.1458 B(  3-C ,  5-C ) :  -0.3627 B(  3-C ,  8-H ) :  -0.1322
B(  3-C ,  9-H ) :   1.1758 B(  4-C ,  5-C ) :   1.1941 B(  4-C ,  9-H ) :  -0.2066
B(  4-C , 10-H ) :   0.8258 B(  4-C , 11-C ) :  -0.2672 B(  5-C ,  6-H ) :  -0.3286
B(  5-C , 10-H ) :  -0.1926 B(  5-C , 11-C ) :   0.2435 B(  6-H ,  8-H ) :   0.1080
B(  6-H , 11-C ) :   0.6213 B(  6-H , 12-H ) :  -0.4980 B( 10-H , 11-C ) :   0.2512
B( 11-C , 12-H ) :   0.5742 B( 11-C , 13-N ) :   0.9073 B( 11-C , 37-N ) :   0.5006
B( 11-C , 38-O ) :  -0.2668 B( 12-H , 13-N ) :   0.9125 B( 12-H , 14-Si) :   0.1273
B( 12-H , 27-C ) :  -0.1842 B( 12-H , 28-C ) :  -0.1577 B( 12-H , 38-O ) :  -0.2879
B( 13-N , 14-Si) :   1.2959 B( 13-N , 15-C ) :   0.1302 B( 13-N , 19-C ) :   0.1288
B( 13-N , 37-N ) :   0.2963 B( 13-N , 38-O ) :  -0.5170 B( 14-Si, 15-C ) :   0.6690
B( 14-Si, 16-H ) :  -0.1885 B( 14-Si, 19-C ) :   0.6652 B( 14-Si, 22-H ) :  -0.1854
B( 14-Si, 23-C ) :   1.0456 B( 14-Si, 38-O ) :  -0.5068 B( 15-C , 16-H ) :   0.8684
B( 15-C , 17-H ) :   0.9578 B( 15-C , 18-H ) :   0.9006 B( 19-C , 20-H ) :   0.9025
B( 19-C , 21-H ) :   0.9529 B( 19-C , 22-H ) :   0.8772 B( 23-C , 24-H ) :   0.9096
B( 23-C , 25-H ) :   0.8878 B( 23-C , 26-H ) :   0.9149 B( 27-C , 31-C ) :   0.1918
B( 27-C , 35-H ) :  -0.1259 B( 27-C , 37-N ) :   0.3240 B( 27-C , 38-O ) :   0.1105
B( 27-C , 41-H ) :  -0.3077 B( 27-C , 42-H ) :  -0.2386 B( 27-C , 43-C ) :   0.1198
B( 27-C , 44-H ) :  -0.1722 B( 27-C , 45-H ) :  -0.1006 B( 27-C , 46-H ) :  -0.2161
B( 28-C , 29-C ) :   0.6315 B( 28-C , 30-C ) :  -0.1032 B( 28-C , 32-H ) :  -0.1027
B( 28-C , 37-N ) :   0.3171 B( 28-C , 38-O ) :   0.1465 B( 28-C , 48-H ) :  -0.3087
B( 28-C , 50-H ) :  -0.2336 B( 28-C , 51-C ) :   0.1692 B( 28-C , 52-H ) :  -0.1146
B( 28-C , 53-H ) :  -0.2196 B( 28-C , 54-H ) :  -0.1928 B( 29-C , 30-C ) :   0.3666
B( 29-C , 31-C ) :  -0.1146 B( 29-C , 32-H ) :   1.1831 B( 29-C , 33-H ) :   1.2302
B( 29-C , 34-H ) :  -0.1039 B( 29-C , 38-O ) :   0.1312 B( 29-C , 55-N ) :   0.1114
B( 29-C , 58-H ) :   0.1005 B( 30-C , 31-C ) :   0.8627 B( 30-C , 32-H ) :  -0.1202
B( 30-C , 33-H ) :  -0.1494 B( 30-C , 34-H ) :   1.0150 B( 30-C , 37-N ) :  -0.1029
B( 30-C , 38-O ) :  -0.1094 B( 30-C , 55-N ) :  -1.3794 B( 30-C , 58-H ) :  -0.5665
B( 31-C , 35-H ) :   1.0355 B( 31-C , 36-H ) :   1.2616 B( 31-C , 38-O ) :   0.1208
B( 31-C , 55-N ) :   0.6044 B( 31-C , 57-O ) :   0.1075 B( 34-H , 57-O ) :   0.1254
B( 36-H , 57-O ) :  -0.1709 B( 37-N , 38-O ) :  -0.4052 B( 37-N , 39-C ) :  -0.3686
B( 37-N , 47-C ) :  -0.4602 B( 39-C , 40-H ) :   1.2818 B( 39-C , 41-H ) :   1.2226
B( 39-C , 42-H ) :   1.0459 B( 43-C , 44-H ) :   0.9986 B( 43-C , 45-H ) :   1.0960
B( 43-C , 46-H ) :   1.1496 B( 47-C , 48-H ) :   1.2415 B( 47-C , 49-H ) :   1.2902
B( 47-C , 50-H ) :   1.0918 B( 51-C , 52-H ) :   1.1138 B( 51-C , 53-H ) :   1.0242
B( 51-C , 54-H ) :   1.1237 B( 55-N , 56-C ) :   1.1338 B( 55-N , 57-O ) :   0.1416
B( 55-N , 58-H ) :   1.4928 B( 56-C , 57-O ) :   0.9494 B( 56-C , 59-C ) :   0.7283
B( 56-C , 61-H ) :  -0.1705 B( 59-C , 60-H ) :   0.9518 B( 59-C , 61-H ) :   1.0542
B( 59-C , 62-H ) :   0.9723

MP2 TOTAL ENERGY:    -1423.521219977 Eh
FINAL SINGLE POINT ENERGY     -1423.521219977406

DIPOLE MOMENT
-------------
                                X             Y             Z
Electronic contribution:     -5.73939      12.44300      -1.67251
Nuclear contribution   :      4.69960     -11.06905       2.66137
                        -----------------------------------------
Total Dipole Moment    :     -1.03979       1.37395       0.98886
                        -----------------------------------------
Magnitude (a.u.)       :      1.98664
Magnitude (Debye)      :      5.04964

Rotational constants in cm-1:     0.008050     0.003269     0.002680
Rotational constants in MHz :   241.344166    98.002816    80.350467

                             ****ORCA TERMINATED NORMALLY****
TOTAL RUN TIME: 0 days 8 hours 22 minutes 15 seconds 181 msec
