                         Program Version 4.2.1 -  RELEASE  -
|  1> %pal
|  2>  nprocs 32
|  3> end
|  4> !RI-MP2 aug-cc-pVQZ aug-cc-pVQZ/C TightSCF
|  5> %maxcore 4500
|  6> *xyzfile 0 1  05_38R1.xyz
|  7>
|  8>
|  9>                          ****END OF INPUT****

CARTESIAN COORDINATES (ANGSTROEM)
---------------------------------
  C     -0.452669   -1.652327    0.772017
  C     -1.438372   -0.582074    0.361216
  C     -2.565801   -0.897974   -0.386557
  C     -1.234871    0.739151    0.751236
  C     -3.484767    0.085215   -0.732652
  H     -2.726199   -1.922120   -0.706729
  C     -2.145254    1.723804    0.400515
  H     -0.347857    0.988942    1.321148
  C     -3.275661    1.398860   -0.340337
  H     -4.359591   -0.175151   -1.316496
  H     -1.975007    2.749206    0.706774
  O      0.892502   -1.241338    0.679228
  C      1.354026   -1.102497   -0.653441
  H      0.699549   -0.418022   -1.208735
  H      1.317645   -2.080205   -1.154030
  H     -3.987204    2.168676   -0.613631
  C      2.769127   -0.566609   -0.625073
  H      3.152940   -0.562396   -1.651358
  H      3.397103   -1.259103   -0.055222
  C      2.872339    0.834381   -0.030629
  H      2.226188    1.512467   -0.599221
  H      2.479380    0.814757    0.988602
  C      4.300293    1.366857   -0.026646
  H      4.706898    1.418373   -1.040548
  H      4.352211    2.369458    0.403095
  H      4.958468    0.720217    0.559880
  H     -0.605467   -1.916425    1.820818
  H     -0.619409   -2.558693    0.173935

 Total Charge           Charge          ....    0
 Multiplicity           Mult            ....    1
 Number of Electrons    NEL             ....   90
 Basis Dimension        Dim             .... 1696

ORBITAL ENERGIES
----------------

  NO   OCC          E(Eh)            E(eV)
   0   2.0000     -20.551277      -559.2287
   1   2.0000     -11.278426      -306.9016
   2   2.0000     -11.266745      -306.5837
   3   2.0000     -11.235966      -305.7462
   4   2.0000     -11.233901      -305.6900
   5   2.0000     -11.233075      -305.6675
   6   2.0000     -11.231588      -305.6270
   7   2.0000     -11.230800      -305.6056
   8   2.0000     -11.227781      -305.5234
   9   2.0000     -11.213401      -305.1322
  10   2.0000     -11.210590      -305.0557
  11   2.0000     -11.206712      -304.9501
  12   2.0000      -1.376267       -37.4501
  13   2.0000      -1.156988       -31.4832
  14   2.0000      -1.072527       -29.1850
  15   2.0000      -1.038441       -28.2574
  16   2.0000      -1.015969       -27.6459
  17   2.0000      -0.980897       -26.6916
  18   2.0000      -0.912512       -24.8307
  19   2.0000      -0.853920       -23.2363
  20   2.0000      -0.828468       -22.5438
  21   2.0000      -0.801545       -21.8112
  22   2.0000      -0.782311       -21.2878
  23   2.0000      -0.704401       -19.1677
  24   2.0000      -0.674164       -18.3449
  25   2.0000      -0.651765       -17.7354
  26   2.0000      -0.644522       -17.5383
  27   2.0000      -0.626499       -17.0479
  28   2.0000      -0.618250       -16.8234
  29   2.0000      -0.603219       -16.4144
  30   2.0000      -0.585903       -15.9432
  31   2.0000      -0.576879       -15.6977
  32   2.0000      -0.565105       -15.3773
  33   2.0000      -0.529752       -14.4153
  34   2.0000      -0.526382       -14.3236
  35   2.0000      -0.507524       -13.8104
  36   2.0000      -0.498450       -13.5635
  37   2.0000      -0.495200       -13.4751
  38   2.0000      -0.479424       -13.0458
  39   2.0000      -0.470946       -12.8151
  40   2.0000      -0.463214       -12.6047
  41   2.0000      -0.454209       -12.3597
  42   2.0000      -0.420557       -11.4439
  43   2.0000      -0.338720        -9.2170
  44   2.0000      -0.331384        -9.0174
  45   0.0000       0.023591         0.6419
  46   0.0000       0.026947         0.7333
  47   0.0000       0.028399         0.7728
  48   0.0000       0.032556         0.8859
  49   0.0000       0.036796         1.0013

MULLIKEN ATOMIC CHARGES
-----------------------
   0 C :   -0.040739
   1 C :    0.655536
   2 C :   -0.676881
   3 C :   -0.512984
   4 C :   -0.303037
   5 H :    0.246427
   6 C :   -0.316196
   7 H :    0.397834
   8 C :   -0.407286
   9 H :    0.242277
  10 H :    0.202631
  11 O :   -0.928296
  12 C :    0.017194
  13 H :    0.261465
  14 H :    0.219966
  15 H :    0.312827
  16 C :   -0.449839
  17 H :    0.274989
  18 H :    0.221580
  19 C :   -0.297549
  20 H :    0.182731
  21 H :    0.241871
  22 C :   -0.869182
  23 H :    0.220120
  24 H :    0.247113
  25 H :    0.228070
  26 H :    0.462249
  27 H :    0.167111
Sum of atomic charges:   -0.0000000

LOEWDIN ATOMIC CHARGES
----------------------
   0 C :    0.147310
   1 C :   -0.100612
   2 C :    0.342865
   3 C :    0.333563
   4 C :    0.342147
   5 H :   -0.315416
   6 C :    0.347984
   7 H :   -0.318182
   8 C :    0.334707
   9 H :   -0.320629
  10 H :   -0.319005
  11 O :    0.912104
  12 C :    0.162391
  13 H :   -0.297850
  14 H :   -0.277568
  15 H :   -0.323230
  16 C :    0.496131
  17 H :   -0.270013
  18 H :   -0.270282
  19 C :    0.494781
  20 H :   -0.270371
  21 H :   -0.285253
  22 C :    0.925263
  23 H :   -0.284292
  24 H :   -0.282964
  25 H :   -0.283602
  26 H :   -0.302244
  27 H :   -0.317731

  Mayer bond orders larger than 0.100000
B(  0-C ,  1-C ) :   0.7962 B(  0-C ,  2-C ) :  -0.1308 B(  0-C ,  3-C ) :  -0.1221
B(  0-C , 11-O ) :   0.7644 B(  0-C , 26-H ) :   0.6982 B(  0-C , 27-H ) :   1.1455
B(  1-C ,  2-C ) :   0.8625 B(  1-C ,  3-C ) :   0.9164 B(  1-C ,  4-C ) :  -0.3937
B(  1-C ,  6-C ) :  -0.3855 B(  1-C , 27-H ) :  -0.1229 B(  2-C ,  4-C ) :   1.3650
B(  2-C ,  5-H ) :   1.0322 B(  2-C ,  6-C ) :   0.1833 B(  2-C ,  8-C ) :   0.1301
B(  2-C ,  9-H ) :  -0.1495 B(  3-C ,  6-C ) :   1.3614 B(  3-C ,  7-H ) :   0.8102
B(  3-C , 10-H ) :  -0.1180 B(  4-C ,  8-C ) :   1.1801 B(  4-C ,  9-H ) :   1.1347
B(  6-C ,  8-C ) :   1.1626 B(  6-C , 10-H ) :   1.1606 B(  8-C ,  9-H ) :  -0.1054
B(  8-C , 15-H ) :   1.0351 B( 11-O , 12-C ) :   0.7055 B( 12-C , 13-H ) :   0.8836
B( 12-C , 14-H ) :   0.9449 B( 12-C , 16-C ) :   0.9986 B( 16-C , 17-H ) :   0.9338
B( 16-C , 18-H ) :   0.9192 B( 16-C , 19-C ) :   0.8722 B( 19-C , 20-H ) :   0.9238
B( 19-C , 21-H ) :   0.8648 B( 19-C , 22-C ) :   0.8087 B( 19-C , 24-H ) :  -0.1220
B( 22-C , 23-H ) :   1.0032 B( 22-C , 24-H ) :   1.0287 B( 22-C , 25-H ) :   0.9857

MP2 TOTAL ENERGY:     -503.127712347 Eh
FINAL SINGLE POINT ENERGY      -503.127712347048

DIPOLE MOMENT
-------------
                                X             Y             Z
Electronic contribution:    -13.28387      -1.94512       2.05143
Nuclear contribution   :     13.05273       1.88367      -2.42970
                        -----------------------------------------
Total Dipole Moment    :     -0.23114      -0.06145      -0.37827
                        -----------------------------------------
Magnitude (a.u.)       :      0.44754
Magnitude (Debye)      :      1.13756

Rotational constants in cm-1:     0.057698     0.015164     0.013150
Rotational constants in MHz :  1729.735453   454.602163   394.217789

                             ****ORCA TERMINATED NORMALLY****
TOTAL RUN TIME: 0 days 1 hours 56 minutes 44 seconds 988 msec
