                         Program Version 4.2.1 -  RELEASE  -
|  1> %pal
|  2>  nprocs 32
|  3> end
|  4> !RI-MP2 aug-cc-pVQZ aug-cc-pVQZ/C TightSCF
|  5> %maxcore 4500
|  6> *xyzfile -1 1  05_18P2.xyz
|  7>
|  8>
|  9>                          ****END OF INPUT****

CARTESIAN COORDINATES (ANGSTROEM)
---------------------------------
  H      3.197795   -1.921767   -0.380416
  C     -1.019633    1.312733    0.047215
  C     -2.303276    0.785376    0.133010
  C     -2.466961   -0.581308    0.018984
  C     -1.384419   -1.429642   -0.192869
  C     -0.101744   -0.915631   -0.301271
  C      0.094361    0.471931   -0.180053
  C      1.442223    1.042322   -0.214315
  C      2.594924    0.135256   -0.490596
  C      2.385676   -1.296892    0.092612
  H      3.491596    0.586347   -0.064339
  H      2.712419    0.097813   -1.585674
  C      1.066961   -1.818481   -0.559674
  H      1.199268   -1.913318   -1.648421
  H      0.857611   -2.813559   -0.160625
  H     -3.148213    1.436248    0.310572
  H     -1.540002   -2.502185   -0.262444
  O      1.610478    2.260350   -0.047247
  O      2.369339   -1.316426    1.415562
  O     -3.740233   -1.075431    0.124819
  H     -3.698188   -2.034205    0.078816
  O     -0.869102    2.635788    0.188212
  H      0.115177    2.796403    0.143492

 Total Charge           Charge          ....   -1
 Multiplicity           Mult            ....    1
 Number of Electrons    NEL             ....  102
 Basis Dimension        Dim             .... 1534

ORBITAL ENERGIES
----------------

  NO   OCC          E(Eh)            E(eV)
   0   2.0000     -20.497735      -557.7717
   1   2.0000     -20.451554      -556.5151
   2   2.0000     -20.412322      -555.4475
   3   2.0000     -20.246798      -550.9434
   4   2.0000     -11.206347      -304.9402
   5   2.0000     -11.203985      -304.8759
   6   2.0000     -11.199141      -304.7441
   7   2.0000     -11.140895      -303.1592
   8   2.0000     -11.103875      -302.1518
   9   2.0000     -11.101846      -302.0966
  10   2.0000     -11.100056      -302.0479
  11   2.0000     -11.099774      -302.0402
  12   2.0000     -11.080161      -301.5065
  13   2.0000     -11.073819      -301.3339
  14   2.0000      -1.313672       -35.7468
  15   2.0000      -1.290935       -35.1281
  16   2.0000      -1.245902       -33.9027
  17   2.0000      -1.077416       -29.3180
  18   2.0000      -1.037272       -28.2256
  19   2.0000      -0.941390       -25.6165
  20   2.0000      -0.904976       -24.6256
  21   2.0000      -0.862054       -23.4577
  22   2.0000      -0.826490       -22.4899
  23   2.0000      -0.751568       -20.4512
  24   2.0000      -0.702645       -19.1200
  25   2.0000      -0.672493       -18.2995
  26   2.0000      -0.634991       -17.2790
  27   2.0000      -0.600750       -16.3472
  28   2.0000      -0.587877       -15.9969
  29   2.0000      -0.555852       -15.1255
  30   2.0000      -0.516303       -14.0493
  31   2.0000      -0.504126       -13.7180
  32   2.0000      -0.498637       -13.5686
  33   2.0000      -0.485654       -13.2153
  34   2.0000      -0.471594       -12.8327
  35   2.0000      -0.466756       -12.7011
  36   2.0000      -0.454278       -12.3615
  37   2.0000      -0.449680       -12.2364
  38   2.0000      -0.443365       -12.0646
  39   2.0000      -0.434352       -11.8193
  40   2.0000      -0.407098       -11.0777
  41   2.0000      -0.386476       -10.5165
  42   2.0000      -0.360934        -9.8215
  43   2.0000      -0.341005        -9.2792
  44   2.0000      -0.333802        -9.0832
  45   2.0000      -0.315561        -8.5869
  46   2.0000      -0.284062        -7.7297
  47   2.0000      -0.213971        -5.8224
  48   2.0000      -0.201628        -5.4866
  49   2.0000      -0.161079        -4.3832
  50   2.0000      -0.159595        -4.3428
  51   0.0000       0.090916         2.4740
  52   0.0000       0.099965         2.7202
  53   0.0000       0.108921         2.9639
  54   0.0000       0.113169         3.0795
  55   0.0000       0.118133         3.2146

MULLIKEN ATOMIC CHARGES
-----------------------
   0 H :    0.207741
   1 C :    1.375435
   2 C :   -1.180063
   3 C :    1.361767
   4 C :   -1.171714
   5 C :    0.732661
   6 C :   -0.838693
   7 C :    1.446612
   8 C :   -0.760564
   9 C :    0.351556
  10 H :    0.334798
  11 H :    0.202049
  12 C :   -0.728194
  13 H :    0.225869
  14 H :    0.273212
  15 H :    0.304902
  16 H :    0.148028
  17 O :   -0.941173
  18 O :   -1.207330
  19 O :   -0.893118
  20 H :    0.375995
  21 O :   -0.958131
  22 H :    0.338352
Sum of atomic charges:   -1.0000000

LOEWDIN ATOMIC CHARGES
----------------------
   0 H :   -0.338995
   1 C :   -0.453075
   2 C :    0.309037
   3 C :   -0.440320
   4 C :    0.345304
   5 C :   -0.088254
   6 C :   -0.075840
   7 C :   -0.554773
   8 C :    0.414603
   9 C :   -0.657426
  10 H :   -0.315602
  11 H :   -0.287240
  12 C :    0.434507
  13 H :   -0.279061
  14 H :   -0.305759
  15 H :   -0.344011
  16 H :   -0.331719
  17 O :    0.899330
  18 O :    0.552782
  19 O :    1.273839
  20 H :   -0.824521
  21 O :    1.271663
  22 H :   -1.204466

  Mayer bond orders larger than 0.100000
B(  0-H ,  9-C ) :   1.0434 B(  1-C ,  2-C ) :   1.3870 B(  1-C ,  3-C ) :  -0.3805
B(  1-C ,  6-C ) :   1.0355 B(  1-C ,  7-C ) :  -0.1468 B(  1-C , 21-O ) :  -0.5438
B(  1-C , 22-H ) :  -0.1062 B(  2-C ,  3-C ) :   1.5535 B(  2-C ,  4-C ) :   0.1550
B(  2-C ,  6-C ) :  -0.2670 B(  2-C , 15-H ) :   0.8922 B(  2-C , 19-O ) :   0.3329
B(  2-C , 21-O ) :   0.3203 B(  3-C ,  4-C ) :   1.5844 B(  3-C ,  5-C ) :  -0.6206
B(  3-C ,  6-C ) :   0.1613 B(  3-C , 19-O ) :  -0.3817 B(  3-C , 20-H ) :  -0.1601
B(  4-C ,  5-C ) :   0.7562 B(  4-C ,  6-C ) :  -0.2337 B(  4-C , 12-C ) :  -0.1509
B(  4-C , 16-H ) :   1.1070 B(  4-C , 19-O ) :   0.3712 B(  4-C , 20-H ) :   0.1073
B(  5-C ,  6-C ) :   0.8340 B(  5-C ,  7-C ) :  -0.1849 B(  5-C ,  9-C ) :  -0.2447
B(  5-C , 12-C ) :   0.6252 B(  5-C , 14-H ) :  -0.1020 B(  5-C , 16-H ) :  -0.1095
B(  6-C ,  7-C ) :   0.8105 B(  6-C ,  9-C ) :   0.1131 B(  6-C , 12-C ) :  -0.1446
B(  6-C , 17-O ) :   0.7120 B(  6-C , 21-O ) :   0.7259 B(  6-C , 22-H ) :   0.2090
B(  7-C ,  8-C ) :   0.9835 B(  7-C ,  9-C ) :  -0.1480 B(  7-C , 17-O ) :   0.3446
B(  8-C ,  9-C ) :   0.9345 B(  8-C , 10-H ) :   0.9055 B(  8-C , 11-H ) :   0.9417
B(  8-C , 18-O ) :   0.1232 B(  9-C , 12-C ) :   0.9693 B(  9-C , 18-O ) :   0.8859
B( 12-C , 13-H ) :   0.9442 B( 12-C , 14-H ) :   0.9798 B( 17-O , 22-H ) :   0.1579
B( 19-O , 20-H ) :   0.8885 B( 21-O , 22-H ) :   0.8020

MP2 TOTAL ENERGY:     -686.410791046 Eh
FINAL SINGLE POINT ENERGY      -686.410791046094

DIPOLE MOMENT
-------------
                                X             Y             Z
Electronic contribution:     -5.82535       5.80960       1.40948
Nuclear contribution   :      3.12009      -6.11613      -3.47848
                        -----------------------------------------
Total Dipole Moment    :     -2.70526      -0.30653      -2.06901
                        -----------------------------------------
Magnitude (a.u.)       :      3.41953
Magnitude (Debye)      :      8.69174

Rotational constants in cm-1:     0.036204     0.020216     0.014002
Rotational constants in MHz :  1085.376435   606.056251   419.770105

                             ****ORCA TERMINATED NORMALLY****
TOTAL RUN TIME: 0 days 2 hours 6 minutes 12 seconds 937 msec
