                         Program Version 4.2.1 -  RELEASE  -
|  1> %pal
|  2>  nprocs 32
|  3> end
|  4> !RI-MP2 aug-cc-pVQZ aug-cc-pVQZ/C TightSCF
|  5> %maxcore 4500
|  6> *xyzfile 0 1  02_22P.xyz
|  7>
|  8>
|  9>                          ****END OF INPUT****

CARTESIAN COORDINATES (ANGSTROEM)
---------------------------------
  C     -0.665375    0.359333    2.691658
  C     -1.142290   -0.409798    1.457814
  C     -2.261116    0.199650    0.663999
  C     -2.261116    0.199650   -0.663999
  C     -1.142290   -0.409798   -1.457814
  C      0.137421   -0.495656   -0.660150
  C      1.296213   -0.328873   -1.605023
  N      0.663012   -0.193200   -2.916472
  H      1.994259   -1.171509   -1.600087
  H      1.871278    0.575762   -1.332402
  C      0.137421   -0.495656    0.660150
  C     -0.665375    0.359333   -2.691658
  H     -0.632155    1.441429   -2.466371
  H     -1.296178    0.212223   -3.571156
  C      1.296213   -0.328873    1.605023
  N      0.663012   -0.193200    2.916472
  H      1.871278    0.575762    1.332402
  H      1.994259   -1.171509    1.600087
  C      1.458095    0.509726    3.892486
  H      2.410491   -0.004446    4.037927
  H      0.938364    0.529816    4.852427
  H      1.672767    1.551540    3.593281
  C      1.458095    0.509726   -3.892486
  H      2.410491   -0.004446   -4.037927
  H      1.672767    1.551540   -3.593281
  H      0.938364    0.529816   -4.852427
  H     -1.296178    0.212223    3.571156
  H     -0.632155    1.441429    2.466371
  H     -3.097536    0.623981    1.211180
  H     -3.097536    0.623981   -1.211180
  H     -1.440070   -1.412684    1.791573
  H     -1.440070   -1.412684   -1.791573

 Total Charge           Charge          ....    0
 Multiplicity           Mult            ....    1
 Number of Electrons    NEL             ....  104
 Basis Dimension        Dim             .... 1948

ORBITAL ENERGIES
----------------

  NO   OCC          E(Eh)            E(eV)
   0   2.0000     -15.541758      -422.9127
   1   2.0000     -15.541758      -422.9127
   2   2.0000     -11.248111      -306.0767
   3   2.0000     -11.248106      -306.0765
   4   2.0000     -11.245301      -306.0002
   5   2.0000     -11.245301      -306.0002
   6   2.0000     -11.240881      -305.8799
   7   2.0000     -11.240881      -305.8799
   8   2.0000     -11.227882      -305.5262
   9   2.0000     -11.227881      -305.5262
  10   2.0000     -11.223673      -305.4117
  11   2.0000     -11.221902      -305.3635
  12   2.0000     -11.219038      -305.2856
  13   2.0000     -11.217183      -305.2351
  14   2.0000      -1.248026       -33.9605
  15   2.0000      -1.241497       -33.7829
  16   2.0000      -1.128518       -30.7085
  17   2.0000      -1.044107       -28.4116
  18   2.0000      -1.041862       -28.3505
  19   2.0000      -0.975797       -26.5528
  20   2.0000      -0.967345       -26.3228
  21   2.0000      -0.923120       -25.1194
  22   2.0000      -0.902611       -24.5613
  23   2.0000      -0.812977       -22.1222
  24   2.0000      -0.801764       -21.8171
  25   2.0000      -0.793141       -21.5825
  26   2.0000      -0.762914       -20.7600
  27   2.0000      -0.679222       -18.4826
  28   2.0000      -0.674756       -18.3611
  29   2.0000      -0.672412       -18.2973
  30   2.0000      -0.637088       -17.3360
  31   2.0000      -0.626271       -17.0417
  32   2.0000      -0.616268       -16.7695
  33   2.0000      -0.610672       -16.6172
  34   2.0000      -0.593169       -16.1410
  35   2.0000      -0.581965       -15.8361
  36   2.0000      -0.565389       -15.3850
  37   2.0000      -0.548745       -14.9321
  38   2.0000      -0.544380       -14.8133
  39   2.0000      -0.539902       -14.6915
  40   2.0000      -0.530920       -14.4471
  41   2.0000      -0.509295       -13.8586
  42   2.0000      -0.504576       -13.7302
  43   2.0000      -0.502492       -13.6735
  44   2.0000      -0.494643       -13.4599
  45   2.0000      -0.480565       -13.0768
  46   2.0000      -0.472492       -12.8572
  47   2.0000      -0.430494       -11.7143
  48   2.0000      -0.359175        -9.7737
  49   2.0000      -0.351108        -9.5541
  50   2.0000      -0.351051        -9.5526
  51   2.0000      -0.323607        -8.8058
  52   0.0000       0.024426         0.6647
  53   0.0000       0.026954         0.7335
  54   0.0000       0.028211         0.7677
  55   0.0000       0.032595         0.8870
  56   0.0000       0.037022         1.0074

MULLIKEN ATOMIC CHARGES
-----------------------
   0 C :   -0.422267
   1 C :    0.089137
   2 C :   -0.677402
   3 C :   -0.677364
   4 C :    0.088861
   5 C :    0.192709
   6 C :   -0.186274
   7 N :   -0.379230
   8 H :    0.331805
   9 H :    0.116676
  10 C :    0.193363
  11 C :   -0.422206
  12 H :    0.201918
  13 H :    0.268549
  14 C :   -0.186439
  15 N :   -0.379226
  16 H :    0.116571
  17 H :    0.331766
  18 C :   -0.982074
  19 H :    0.277764
  20 H :    0.282705
  21 H :    0.297346
  22 C :   -0.982059
  23 H :    0.277735
  24 H :    0.297340
  25 H :    0.282708
  26 H :    0.268562
  27 H :    0.201894
  28 H :    0.189992
  29 H :    0.189978
  30 H :    0.398639
  31 H :    0.398523
Sum of atomic charges:    0.0000000

LOEWDIN ATOMIC CHARGES
----------------------
   0 C :    0.342913
   1 C :    0.079058
   2 C :    0.420969
   3 C :    0.420968
   4 C :    0.079058
   5 C :   -0.010578
   6 C :    0.356468
   7 N :    0.493397
   8 H :   -0.256692
   9 H :   -0.264828
  10 C :   -0.010578
  11 C :    0.342913
  12 H :   -0.247807
  13 H :   -0.255208
  14 C :    0.356468
  15 N :    0.493397
  16 H :   -0.264828
  17 H :   -0.256692
  18 C :    0.750907
  19 H :   -0.288558
  20 H :   -0.290667
  21 H :   -0.272719
  22 C :    0.750907
  23 H :   -0.288558
  24 H :   -0.272719
  25 H :   -0.290667
  26 H :   -0.255208
  27 H :   -0.247807
  28 H :   -0.301485
  29 H :   -0.301485
  30 H :   -0.255170
  31 H :   -0.255170

  Mayer bond orders larger than 0.100000
B(  0-C ,  1-C ) :   0.8757 B(  0-C , 10-C ) :  -0.1570 B(  0-C , 15-N ) :   0.8345
B(  0-C , 26-H ) :   0.9881 B(  0-C , 27-H ) :   1.0128 B(  1-C ,  2-C ) :   0.7221
B(  1-C ,  3-C ) :  -0.1323 B(  1-C ,  5-C ) :  -0.1404 B(  1-C , 10-C ) :   0.7665
B(  1-C , 30-H ) :   0.8255 B(  2-C ,  3-C ) :   1.3634 B(  2-C ,  4-C ) :  -0.1324
B(  2-C , 28-H ) :   1.1758 B(  2-C , 29-H ) :  -0.2004 B(  3-C ,  4-C ) :   0.7221
B(  3-C , 28-H ) :  -0.2004 B(  3-C , 29-H ) :   1.1758 B(  4-C ,  5-C ) :   0.7666
B(  4-C , 10-C ) :  -0.1404 B(  4-C , 11-C ) :   0.8759 B(  4-C , 31-H ) :   0.8256
B(  5-C ,  6-C ) :   0.7331 B(  5-C ,  8-H ) :  -0.1696 B(  5-C ,  9-H ) :  -0.1122
B(  5-C , 10-C ) :   0.7327 B(  5-C , 11-C ) :  -0.1571 B(  5-C , 14-C ) :  -0.1160
B(  5-C , 16-H ) :   0.1310 B(  6-C ,  7-N ) :   0.6889 B(  6-C ,  8-H ) :   0.9776
B(  6-C ,  9-H ) :   1.0924 B(  6-C , 10-C ) :  -0.1164 B(  7-N , 11-C ) :   0.8345
B(  7-N , 22-C ) :   0.8729 B(  9-H , 10-C ) :   0.1308 B( 10-C , 14-C ) :   0.7327
B( 10-C , 16-H ) :  -0.1123 B( 10-C , 17-H ) :  -0.1698 B( 11-C , 12-H ) :   1.0127
B( 11-C , 13-H ) :   0.9880 B( 14-C , 15-N ) :   0.6891 B( 14-C , 16-H ) :   1.0924
B( 14-C , 17-H ) :   0.9777 B( 15-N , 18-C ) :   0.8729 B( 18-C , 19-H ) :   1.0057
B( 18-C , 20-H ) :   0.9974 B( 18-C , 21-H ) :   0.9172 B( 22-C , 23-H ) :   1.0057
B( 22-C , 24-H ) :   0.9172 B( 22-C , 25-H ) :   0.9974

MP2 TOTAL ENERGY:     -576.527280984 Eh
FINAL SINGLE POINT ENERGY      -576.527280983824

DIPOLE MOMENT
-------------
                                X             Y             Z
Electronic contribution:     -4.88838      -4.34023       0.00000
Nuclear contribution   :      4.97842       4.81392      -0.00000
                        -----------------------------------------
Total Dipole Moment    :      0.09005       0.47369       0.00000
                        -----------------------------------------
Magnitude (a.u.)       :      0.48217
Magnitude (Debye)      :      1.22559

Rotational constants in cm-1:     0.045255     0.015126     0.012010
Rotational constants in MHz :  1356.701526   453.460241   360.058622

                             ****ORCA TERMINATED NORMALLY****
TOTAL RUN TIME: 0 days 3 hours 9 minutes 33 seconds 625 msec
