                         Program Version 4.2.1 -  RELEASE  -
|  1> %pal
|  2>  nprocs 32
|  3> end
|  4> !RI-MP2 aug-cc-pVQZ aug-cc-pVQZ/C TightSCF
|  5> %maxcore 4500
|  6> *xyzfile -1 1  08_1P2.xyz
|  7>
|  8>
|  9>                          ****END OF INPUT****

CARTESIAN COORDINATES (ANGSTROEM)
---------------------------------
  C     -0.207880    0.000001   -0.010310
  O     -0.748902   -1.127540    0.002016
  C      1.344954   -0.000031   -0.004880
  H      1.686598    0.000108    1.035701
  H      1.736443    0.897727   -0.488500
  H      1.736444   -0.897902   -0.488295
  O     -0.748840    1.127570    0.002014

 Total Charge           Charge          ....   -1
 Multiplicity           Mult            ....    1
 Number of Electrons    NEL             ....   32
 Basis Dimension        Dim             ....  458

ORBITAL ENERGIES
----------------

  NO   OCC          E(Eh)            E(eV)
   0   2.0000     -20.281403      -551.8850
   1   2.0000     -20.281369      -551.8841
   2   2.0000     -11.126666      -302.7720
   3   2.0000     -11.042684      -300.4867
   4   2.0000      -1.162485       -31.6328
   5   2.0000      -1.061205       -28.8769
   6   2.0000      -0.789243       -21.4764
   7   2.0000      -0.508502       -13.8370
   8   2.0000      -0.414898       -11.2899
   9   2.0000      -0.414629       -11.2826
  10   2.0000      -0.409782       -11.1507
  11   2.0000      -0.359860        -9.7923
  12   2.0000      -0.317534        -8.6405
  13   2.0000      -0.201326        -5.4784
  14   2.0000      -0.191333        -5.2064
  15   2.0000      -0.187886        -5.1126
  16   0.0000       0.125051         3.4028
  17   0.0000       0.134628         3.6634
  18   0.0000       0.135742         3.6937
  19   0.0000       0.166193         4.5223
  20   0.0000       0.197759         5.3813

MULLIKEN ATOMIC CHARGES
-----------------------
   0 C :    0.893135
   1 O :   -0.877652
   2 C :   -0.825230
   3 H :    0.224205
   4 H :    0.231590
   5 H :    0.231612
   6 O :   -0.877661
Sum of atomic charges:   -1.0000000

LOEWDIN ATOMIC CHARGES
----------------------
   0 C :   -1.554837
   1 O :    0.452988
   2 C :    0.715826
   3 H :   -0.341807
   4 H :   -0.362583
   5 H :   -0.362577
   6 O :    0.452991

  Mayer bond orders larger than 0.100000
B(  0-C ,  1-O ) :   1.4315 B(  0-C ,  2-C ) :   0.9705 B(  0-C ,  6-O ) :   1.4315
B(  2-C ,  3-H ) :   0.9210 B(  2-C ,  4-H ) :   0.9652 B(  2-C ,  5-H ) :   0.9652

MP2 TOTAL ENERGY:     -228.225772486 Eh
FINAL SINGLE POINT ENERGY      -228.225772485711

DIPOLE MOMENT
-------------
                                X             Y             Z
Electronic contribution:     -3.60683       0.00004      -0.06706
Nuclear contribution   :      5.06422      -0.00006       0.05815
                        -----------------------------------------
Total Dipole Moment    :      1.45739      -0.00003      -0.00892
                        -----------------------------------------
Magnitude (a.u.)       :      1.45742
Magnitude (Debye)      :      3.70446

Rotational constants in cm-1:     0.384260     0.335415     0.185245
Rotational constants in MHz : 11519.835411 10055.482937  5553.495391

                             ****ORCA TERMINATED NORMALLY****
TOTAL RUN TIME: 0 days 0 hours 1 minutes 36 seconds 518 msec
