                         Program Version 4.2.1 -  RELEASE  -
|  1> %pal
|  2>  nprocs 32
|  3> end
|  4> !RI-MP2 aug-cc-pVQZ aug-cc-pVQZ/C TightSCF
|  5> %maxcore 4500
|  6> *xyzfile 0 1  02_22TS.xyz
|  7>
|  8>
|  9>                          ****END OF INPUT****

CARTESIAN COORDINATES (ANGSTROEM)
---------------------------------
  C     -0.840884   -0.209070    2.844695
  C     -1.200928   -0.385840    1.407835
  C     -2.040957    0.434891    0.702683
  C     -2.040957    0.434891   -0.702683
  C     -1.200928   -0.385840   -1.407835
  C      0.778527    0.210062   -0.615242
  C      1.298430    0.415058   -1.979498
  N      0.600196   -0.401284   -2.963234
  H      2.362176    0.165892   -2.019170
  H      1.205656    1.491924   -2.218810
  C      0.778527    0.210062    0.615242
  C     -0.840884   -0.209070   -2.844695
  H     -1.151168    0.792743   -3.193155
  H     -1.331691   -0.951687   -3.481596
  H     -0.928925   -1.352574   -1.001003
  H     -2.503190    1.275396   -1.211823
  H     -0.928925   -1.352574    1.001003
  C      1.298430    0.415058    1.979498
  N      0.600196   -0.401284    2.963234
  H      1.205656    1.491924    2.218810
  H      2.362176    0.165892    2.019170
  C      1.087017   -0.173258    4.305376
  H      2.154372   -0.395950    4.358219
  H      0.569347   -0.835569    5.001327
  H      0.934825    0.867754    4.642623
  C      1.087017   -0.173258   -4.305376
  H      2.154372   -0.395950   -4.358219
  H      0.934825    0.867754   -4.642623
  H      0.569347   -0.835569   -5.001327
  H     -1.331691   -0.951687    3.481596
  H     -1.151168    0.792743    3.193155
  H     -2.503190    1.275396    1.211823

 Total Charge           Charge          ....    0
 Multiplicity           Mult            ....    1
 Number of Electrons    NEL             ....  104
 Basis Dimension        Dim             .... 1948

ORBITAL ENERGIES
----------------

  NO   OCC          E(Eh)            E(eV)
   0   2.0000     -15.548749      -423.1030
   1   2.0000     -15.548748      -423.1030
   2   2.0000     -11.267896      -306.6150
   3   2.0000     -11.267896      -306.6150
   4   2.0000     -11.250603      -306.1445
   5   2.0000     -11.250603      -306.1445
   6   2.0000     -11.244261      -305.9719
   7   2.0000     -11.244261      -305.9719
   8   2.0000     -11.231773      -305.6321
   9   2.0000     -11.231754      -305.6316
  10   2.0000     -11.220053      -305.3132
  11   2.0000     -11.216837      -305.2256
  12   2.0000     -11.215180      -305.1806
  13   2.0000     -11.214053      -305.1499
  14   2.0000      -1.243332       -33.8328
  15   2.0000      -1.241270       -33.7767
  16   2.0000      -1.103412       -30.0254
  17   2.0000      -1.049449       -28.5570
  18   2.0000      -1.031752       -28.0754
  19   2.0000      -0.986409       -26.8415
  20   2.0000      -0.972663       -26.4675
  21   2.0000      -0.923499       -25.1297
  22   2.0000      -0.906968       -24.6799
  23   2.0000      -0.830754       -22.6060
  24   2.0000      -0.810736       -22.0612
  25   2.0000      -0.795533       -21.6476
  26   2.0000      -0.729427       -19.8487
  27   2.0000      -0.677943       -18.4478
  28   2.0000      -0.668075       -18.1793
  29   2.0000      -0.660666       -17.9776
  30   2.0000      -0.657761       -17.8986
  31   2.0000      -0.653229       -17.7753
  32   2.0000      -0.623246       -16.9594
  33   2.0000      -0.611387       -16.6367
  34   2.0000      -0.592486       -16.1224
  35   2.0000      -0.572589       -15.5810
  36   2.0000      -0.562408       -15.3039
  37   2.0000      -0.556647       -15.1471
  38   2.0000      -0.546578       -14.8732
  39   2.0000      -0.540879       -14.7181
  40   2.0000      -0.534101       -14.5336
  41   2.0000      -0.516159       -14.0454
  42   2.0000      -0.515262       -14.0210
  43   2.0000      -0.506062       -13.7706
  44   2.0000      -0.487285       -13.2597
  45   2.0000      -0.486025       -13.2254
  46   2.0000      -0.467191       -12.7129
  47   2.0000      -0.372589       -10.1386
  48   2.0000      -0.361463        -9.8359
  49   2.0000      -0.349600        -9.5131
  50   2.0000      -0.309136        -8.4120
  51   2.0000      -0.294010        -8.0004
  52   0.0000       0.024479         0.6661
  53   0.0000       0.025653         0.6981
  54   0.0000       0.030713         0.8358
  55   0.0000       0.033278         0.9055
  56   0.0000       0.038102         1.0368

MULLIKEN ATOMIC CHARGES
-----------------------
   0 C :   -0.275978
   1 C :    0.023280
   2 C :   -0.443417
   3 C :   -0.442952
   4 C :    0.023309
   5 C :    0.059598
   6 C :   -0.101973
   7 N :   -0.368503
   8 H :    0.181359
   9 H :    0.136052
  10 C :    0.059284
  11 C :   -0.275920
  12 H :    0.077994
  13 H :    0.352454
  14 H :    0.324834
  15 H :    0.172289
  16 H :    0.324738
  17 C :   -0.101813
  18 N :   -0.368415
  19 H :    0.136039
  20 H :    0.181214
  21 C :   -0.939431
  22 H :    0.256201
  23 H :    0.276054
  24 H :    0.268904
  25 C :   -0.939375
  26 H :    0.256200
  27 H :    0.268923
  28 H :    0.276068
  29 H :    0.352493
  30 H :    0.078269
  31 H :    0.172220
Sum of atomic charges:   -0.0000000

LOEWDIN ATOMIC CHARGES
----------------------
   0 C :    0.324330
   1 C :    0.250346
   2 C :    0.368994
   3 C :    0.368994
   4 C :    0.250346
   5 C :    0.148004
   6 C :    0.297049
   7 N :    0.479730
   8 H :   -0.297073
   9 H :   -0.273211
  10 C :    0.148003
  11 C :    0.324330
  12 H :   -0.273151
  13 H :   -0.272613
  14 H :   -0.333944
  15 H :   -0.315282
  16 H :   -0.333944
  17 C :    0.297049
  18 N :    0.479730
  19 H :   -0.273211
  20 H :   -0.297073
  21 C :    0.744003
  22 H :   -0.289667
  23 H :   -0.290450
  24 H :   -0.267065
  25 C :    0.744003
  26 H :   -0.289667
  27 H :   -0.267064
  28 H :   -0.290450
  29 H :   -0.272613
  30 H :   -0.273151
  31 H :   -0.315282

  Mayer bond orders larger than 0.100000
B(  0-C ,  1-C ) :   0.5367 B(  0-C ,  2-C ) :  -0.1704 B(  0-C , 18-N ) :   0.8161
B(  0-C , 29-H ) :   0.9212 B(  0-C , 30-H ) :   1.1848 B(  1-C ,  2-C ) :   1.4360
B(  1-C ,  3-C ) :  -0.2986 B(  1-C ,  4-C ) :   0.1033 B(  1-C , 10-C ) :   0.2455
B(  1-C , 16-H ) :   0.9820 B(  1-C , 29-H ) :  -0.1589 B(  2-C ,  3-C ) :   1.0991
B(  2-C ,  4-C ) :  -0.2986 B(  2-C , 15-H ) :  -0.1759 B(  2-C , 31-H ) :   1.1013
B(  3-C ,  4-C ) :   1.4359 B(  3-C , 11-C ) :  -0.1705 B(  3-C , 15-H ) :   1.1013
B(  3-C , 31-H ) :  -0.1759 B(  4-C ,  5-C ) :   0.2458 B(  4-C , 11-C ) :   0.5362
B(  4-C , 13-H ) :  -0.1594 B(  4-C , 14-H ) :   0.9820 B(  5-C ,  6-C ) :   0.6985
B(  5-C ,  7-N ) :  -0.2536 B(  5-C ,  8-H ) :  -0.1279 B(  5-C , 10-C ) :   1.8206
B(  5-C , 17-C ) :  -0.2210 B(  6-C ,  7-N ) :   0.9473 B(  6-C ,  8-H ) :   1.1577
B(  6-C ,  9-H ) :   1.0351 B(  6-C , 10-C ) :  -0.2212 B(  7-N , 11-C ) :   0.8161
B(  7-N , 25-C ) :   0.8009 B( 10-C , 17-C ) :   0.6979 B( 10-C , 18-N ) :  -0.2537
B( 10-C , 20-H ) :  -0.1278 B( 11-C , 12-H ) :   1.1851 B( 11-C , 13-H ) :   0.9214
B( 17-C , 18-N ) :   0.9474 B( 17-C , 19-H ) :   1.0352 B( 17-C , 20-H ) :   1.1579
B( 18-N , 21-C ) :   0.8009 B( 21-C , 22-H ) :   1.0092 B( 21-C , 23-H ) :   0.9879
B( 21-C , 24-H ) :   0.9828 B( 25-C , 26-H ) :   1.0092 B( 25-C , 27-H ) :   0.9827
B( 25-C , 28-H ) :   0.9879

MP2 TOTAL ENERGY:     -576.432369719 Eh
FINAL SINGLE POINT ENERGY      -576.432369719447

DIPOLE MOMENT
-------------
                                X             Y             Z
Electronic contribution:     -2.39321      -1.62540       0.00000
Nuclear contribution   :      2.69936       2.16695       0.00000
                        -----------------------------------------
Total Dipole Moment    :      0.30615       0.54155       0.00000
                        -----------------------------------------
Magnitude (a.u.)       :      0.62209
Magnitude (Debye)      :      1.58124

Rotational constants in cm-1:     0.051210     0.013108     0.010944
Rotational constants in MHz :  1535.241320   392.967447   328.082800

                             ****ORCA TERMINATED NORMALLY****
TOTAL RUN TIME: 0 days 3 hours 16 minutes 51 seconds 81 msec
