                         Program Version 4.2.1 -  RELEASE  -
|  1> %pal
|  2>  nprocs 32
|  3> end
|  4> !RI-MP2 aug-cc-pVQZ aug-cc-pVQZ/C TightSCF
|  5> %maxcore 4500
|  6> *xyzfile 1 1  02_33P.xyz
|  7>
|  8>
|  9>                          ****END OF INPUT****

CARTESIAN COORDINATES (ANGSTROEM)
---------------------------------
  C     -1.979865    1.027778    0.188651
  N     -0.939315    0.413523   -0.275084
  N      0.181344    1.190820   -0.576292
  C      1.299479    0.655070   -0.211077
  C      2.527669    1.342494   -0.510875
  C      1.323276   -0.679058    0.475649
  C      3.703080    0.770477   -0.195859
  H      2.463778    2.304427   -1.001715
  C      2.689333   -1.215643    0.753991
  C      3.791043   -0.533782    0.441489
  H      4.625696    1.288521   -0.429325
  H      2.747834   -2.185792    1.234005
  H      4.771073   -0.938380    0.658394
  C     -3.275190    0.324372    0.413778
  C     -1.885234    2.474615    0.512432
  H     -1.597196    3.029419   -0.384276
  H     -2.834802    2.845325    0.891372
  H     -1.099769    2.657402    1.247564
  C     -0.912579   -1.037107   -0.675898
  C      0.477969   -1.627214   -0.394232
  C     -2.028163   -1.789095    0.027582
  C     -3.356756   -1.080153   -0.165570
  H     -3.427150    0.317371    1.500924
  H     -4.063976    0.974036    0.024453
  H     -3.594491   -1.029634   -1.231469
  H     -4.167269   -1.630078    0.311986
  H     -2.058249   -2.800255   -0.381025
  H     -1.791233   -1.882587    1.093192
  H      1.009998   -1.805698   -1.328759
  H      0.369011   -2.589708    0.106444
  H      0.806064   -0.557849    1.439000
  H     -1.097895   -1.023440   -1.751494

 Total Charge           Charge          ....    1
 Multiplicity           Mult            ....    1
 Number of Electrons    NEL             ....  108
 Basis Dimension        Dim             .... 1982

ORBITAL ENERGIES
----------------

  NO   OCC          E(Eh)            E(eV)
   0   2.0000     -15.819345      -430.4663
   1   2.0000     -15.727942      -427.9791
   2   2.0000     -11.487506      -312.5909
   3   2.0000     -11.441368      -311.3355
   4   2.0000     -11.432373      -311.0907
   5   2.0000     -11.393431      -310.0310
   6   2.0000     -11.391584      -309.9808
   7   2.0000     -11.384201      -309.7799
   8   2.0000     -11.381121      -309.6960
   9   2.0000     -11.374067      -309.5041
  10   2.0000     -11.372255      -309.4548
  11   2.0000     -11.371237      -309.4271
  12   2.0000     -11.367806      -309.3337
  13   2.0000     -11.359031      -309.0950
  14   2.0000     -11.358119      -309.0701
  15   2.0000      -1.528242       -41.5856
  16   2.0000      -1.353460       -36.8295
  17   2.0000      -1.279653       -34.8211
  18   2.0000      -1.248244       -33.9665
  19   2.0000      -1.221216       -33.2310
  20   2.0000      -1.185763       -32.2662
  21   2.0000      -1.142900       -31.0999
  22   2.0000      -1.112275       -30.2666
  23   2.0000      -1.070305       -29.1245
  24   2.0000      -1.028289       -27.9812
  25   2.0000      -0.991482       -26.9796
  26   2.0000      -0.964332       -26.2408
  27   2.0000      -0.942362       -25.6430
  28   2.0000      -0.874839       -23.8056
  29   2.0000      -0.867310       -23.6007
  30   2.0000      -0.821117       -22.3437
  31   2.0000      -0.812731       -22.1155
  32   2.0000      -0.803375       -21.8609
  33   2.0000      -0.783194       -21.3118
  34   2.0000      -0.769217       -20.9315
  35   2.0000      -0.762220       -20.7411
  36   2.0000      -0.746535       -20.3142
  37   2.0000      -0.738910       -20.1068
  38   2.0000      -0.727482       -19.7958
  39   2.0000      -0.708653       -19.2834
  40   2.0000      -0.698532       -19.0080
  41   2.0000      -0.691257       -18.8101
  42   2.0000      -0.688606       -18.7379
  43   2.0000      -0.683990       -18.6123
  44   2.0000      -0.654837       -17.8190
  45   2.0000      -0.651989       -17.7415
  46   2.0000      -0.632282       -17.2053
  47   2.0000      -0.623882       -16.9767
  48   2.0000      -0.618934       -16.8421
  49   2.0000      -0.606053       -16.4915
  50   2.0000      -0.594831       -16.1862
  51   2.0000      -0.560504       -15.2521
  52   2.0000      -0.535701       -14.5772
  53   2.0000      -0.443061       -12.0563
  54   0.0000      -0.078386        -2.1330
  55   0.0000      -0.066845        -1.8189
  56   0.0000      -0.059620        -1.6223
  57   0.0000      -0.055396        -1.5074
  58   0.0000      -0.053037        -1.4432

MULLIKEN ATOMIC CHARGES
-----------------------
   0 C :    0.586093
   1 N :    0.676296
   2 N :   -1.068923
   3 C :    0.660642
   4 C :   -0.855324
   5 C :    0.718544
   6 C :   -0.518867
   7 H :    0.313089
   8 C :   -0.741918
   9 C :   -0.390528
  10 H :    0.245963
  11 H :    0.155812
  12 H :    0.356332
  13 C :   -0.356845
  14 C :   -0.814778
  15 H :    0.245850
  16 H :    0.289384
  17 H :    0.234157
  18 C :    0.173765
  19 C :   -0.423181
  20 C :   -0.536167
  21 C :   -0.544625
  22 H :    0.177163
  23 H :    0.280107
  24 H :    0.179264
  25 H :    0.256951
  26 H :    0.306462
  27 H :    0.204403
  28 H :    0.281029
  29 H :    0.302999
  30 H :    0.312590
  31 H :    0.294262
Sum of atomic charges:    1.0000000

LOEWDIN ATOMIC CHARGES
----------------------
   0 C :   -0.110371
   1 N :    0.303780
   2 N :    0.550212
   3 C :   -0.318805
   4 C :    0.389663
   5 C :    0.088834
   6 C :    0.396153
   7 H :   -0.318114
   8 C :    0.421182
   9 C :    0.405187
  10 H :   -0.297893
  11 H :   -0.280722
  12 H :   -0.313534
  13 C :    0.581698
  14 C :    0.971536
  15 H :   -0.266448
  16 H :   -0.274960
  17 H :   -0.258537
  18 C :    0.075432
  19 C :    0.574242
  20 C :    0.551979
  21 C :    0.582398
  22 H :   -0.239357
  23 H :   -0.253073
  24 H :   -0.246485
  25 H :   -0.239866
  26 H :   -0.236689
  27 H :   -0.242222
  28 H :   -0.235133
  29 H :   -0.257810
  30 H :   -0.255114
  31 H :   -0.247166

  Mayer bond orders larger than 0.100000
B(  0-C ,  1-N ) :   1.3643 B(  0-C ,  2-N ) :  -0.2977 B(  0-C , 13-C ) :   0.4574
B(  0-C , 14-C ) :   0.5412 B(  0-C , 15-H ) :  -0.1327 B(  0-C , 16-H ) :  -0.1001
B(  0-C , 17-H ) :  -0.1417 B(  0-C , 21-C ) :  -0.2025 B(  0-C , 23-H ) :  -0.1206
B(  1-N ,  2-N ) :  -0.4337 B(  1-N ,  3-C ) :  -0.2700 B(  1-N , 18-C ) :   0.4727
B(  2-N ,  3-C ) :   1.3979 B(  2-N ,  6-C ) :   0.1450 B(  2-N , 18-C ) :  -0.1407
B(  3-C ,  4-C ) :   0.5351 B(  3-C ,  5-C ) :   0.6116 B(  3-C ,  6-C ) :  -0.4433
B(  3-C ,  9-C ) :  -0.1481 B(  4-C ,  5-C ) :  -0.2413 B(  4-C ,  6-C ) :   1.7987
B(  4-C ,  7-H ) :   0.8782 B(  4-C ,  8-C ) :   0.1281 B(  4-C ,  9-C ) :   0.2799
B(  4-C , 10-H ) :  -0.1992 B(  5-C ,  8-C ) :   0.2283 B(  5-C ,  9-C ) :  -0.1645
B(  5-C , 11-H ) :  -0.1564 B(  5-C , 18-C ) :   0.1325 B(  5-C , 19-C ) :   0.8364
B(  5-C , 30-H ) :   0.8146 B(  6-C ,  9-C ) :   0.9146 B(  6-C , 10-H ) :   1.1853
B(  8-C ,  9-C ) :   1.6204 B(  8-C , 11-H ) :   1.2886 B(  8-C , 12-H ) :  -0.1245
B(  9-C , 10-H ) :  -0.1048 B(  9-C , 12-H ) :   0.9676 B( 13-C , 21-C ) :   0.9675
B( 13-C , 22-H ) :   1.0122 B( 13-C , 23-H ) :   0.9825 B( 14-C , 15-H ) :   1.0363
B( 14-C , 16-H ) :   0.9960 B( 14-C , 17-H ) :   1.0281 B( 18-C , 19-C ) :   0.8427
B( 18-C , 20-C ) :   0.5700 B( 18-C , 21-C ) :  -0.1244 B( 18-C , 31-H ) :   1.0825
B( 19-C , 28-H ) :   1.0115 B( 19-C , 29-H ) :   0.9159 B( 20-C , 21-C ) :   1.0173
B( 20-C , 26-H ) :   0.9419 B( 20-C , 27-H ) :   0.9997 B( 21-C , 24-H ) :   1.0400
B( 21-C , 25-H ) :   0.9949

MP2 TOTAL ENERGY:     -613.752618530 Eh
FINAL SINGLE POINT ENERGY      -613.752618530440

DIPOLE MOMENT
-------------
                                X             Y             Z
Electronic contribution:      7.98643       2.80943      -1.56996
Nuclear contribution   :     -9.09483      -3.06873       2.02813
                        -----------------------------------------
Total Dipole Moment    :     -1.10840      -0.25929       0.45817
                        -----------------------------------------
Magnitude (a.u.)       :      1.22707
Magnitude (Debye)      :      3.11897

Rotational constants in cm-1:     0.043737     0.014490     0.011682
Rotational constants in MHz :  1311.203155   434.395323   350.231868

                             ****ORCA TERMINATED NORMALLY****
TOTAL RUN TIME: 0 days 4 hours 7 minutes 46 seconds 855 msec
