                         Program Version 4.2.1 -  RELEASE  -
|  1> %pal
|  2>  nprocs 32
|  3> end
|  4> !RI-MP2 aug-cc-pVQZ aug-cc-pVQZ/C TightSCF
|  5> %maxcore 4500
|  6> *xyzfile 0 1  04_45R1.xyz
|  7>
|  8>
|  9>                          ****END OF INPUT****

CARTESIAN COORDINATES (ANGSTROEM)
---------------------------------
  H     -2.788145   -0.000059    1.036615
  C     -2.412733    0.000000    0.009300
  C     -0.908055    0.000001   -0.011096
  C     -0.193644   -1.195586   -0.008863
  C      1.194207   -1.198531    0.002030
  C      1.894207   -0.000001    0.008260
  C      1.194209    1.198529    0.002030
  C     -0.193643    1.195587   -0.008863
  H     -2.816432    0.883523   -0.487635
  H     -2.816432   -0.883465   -0.487735
  H     -0.732162   -2.137139   -0.017794
  H      1.730313   -2.140275    0.001824
  H      2.977417   -0.000002    0.013913
  H      1.730316    2.140273    0.001824
  H     -0.732158    2.137140   -0.017794

 Total Charge           Charge          ....    0
 Multiplicity           Mult            ....    1
 Number of Electrons    NEL             ....   50
 Basis Dimension        Dim             ....  928

ORBITAL ENERGIES
----------------

  NO   OCC          E(Eh)            E(eV)
   0   2.0000     -11.238098      -305.8042
   1   2.0000     -11.230441      -305.5958
   2   2.0000     -11.230272      -305.5912
   3   2.0000     -11.226099      -305.4777
   4   2.0000     -11.225603      -305.4642
   5   2.0000     -11.225512      -305.4617
   6   2.0000     -11.222044      -305.3673
   7   2.0000      -1.154421       -31.4134
   8   2.0000      -1.044951       -28.4346
   9   2.0000      -1.012063       -27.5396
  10   2.0000      -0.932653       -25.3788
  11   2.0000      -0.824886       -22.4463
  12   2.0000      -0.797605       -21.7039
  13   2.0000      -0.693462       -18.8701
  14   2.0000      -0.634308       -17.2604
  15   2.0000      -0.629777       -17.1371
  16   2.0000      -0.583174       -15.8690
  17   2.0000      -0.576439       -15.6857
  18   2.0000      -0.566826       -15.4241
  19   2.0000      -0.539043       -14.6681
  20   2.0000      -0.490123       -13.3369
  21   2.0000      -0.486962       -13.2509
  22   2.0000      -0.485320       -13.2062
  23   2.0000      -0.335268        -9.1231
  24   2.0000      -0.324789        -8.8380
  25   0.0000       0.026434         0.7193
  26   0.0000       0.028878         0.7858
  27   0.0000       0.030123         0.8197
  28   0.0000       0.041312         1.1242
  29   0.0000       0.042365         1.1528

MULLIKEN ATOMIC CHARGES
-----------------------
   0 H :    0.282644
   1 C :   -0.761439
   2 C :    0.298501
   3 C :   -0.320339
   4 C :   -0.363682
   5 C :   -0.338970
   6 C :   -0.363685
   7 C :   -0.320333
   8 H :    0.216142
   9 H :    0.216142
  10 H :    0.317681
  11 H :    0.246538
  12 H :    0.326607
  13 H :    0.246522
  14 H :    0.317670
Sum of atomic charges:    0.0000000

LOEWDIN ATOMIC CHARGES
----------------------
   0 H :   -0.277560
   1 C :    0.903037
   2 C :   -0.086512
   3 C :    0.334419
   4 C :    0.335059
   5 C :    0.328985
   6 C :    0.335059
   7 C :    0.334420
   8 H :   -0.299288
   9 H :   -0.299286
  10 H :   -0.319742
  11 H :   -0.321730
  12 H :   -0.325389
  13 H :   -0.321729
  14 H :   -0.319744

  Mayer bond orders larger than 0.100000
B(  0-H ,  1-C ) :   0.9299 B(  1-C ,  2-C ) :   0.7770 B(  1-C ,  8-H ) :   1.0371
B(  1-C ,  9-H ) :   1.0371 B(  2-C ,  3-C ) :   1.0264 B(  2-C ,  4-C ) :  -0.2002
B(  2-C ,  6-C ) :  -0.2002 B(  2-C ,  7-C ) :   1.0264 B(  2-C ,  8-H ) :  -0.1040
B(  2-C ,  9-H ) :  -0.1041 B(  3-C ,  4-C ) :   1.3282 B(  3-C ,  6-C ) :   0.1452
B(  3-C , 10-H ) :   0.9420 B(  3-C , 11-H ) :  -0.1143 B(  4-C ,  5-C ) :   1.1701
B(  4-C ,  7-C ) :   0.1453 B(  4-C , 11-H ) :   1.1121 B(  5-C ,  6-C ) :   1.1701
B(  5-C , 12-H ) :   0.9934 B(  6-C ,  7-C ) :   1.3282 B(  6-C , 13-H ) :   1.1121
B(  7-C , 13-H ) :  -0.1143 B(  7-C , 14-H ) :   0.9420

MP2 TOTAL ENERGY:     -271.050484689 Eh
FINAL SINGLE POINT ENERGY      -271.050484688611

DIPOLE MOMENT
-------------
                                X             Y             Z
Electronic contribution:      3.35733      -0.00000      -0.03175
Nuclear contribution   :     -3.51323      -0.00000       0.04404
                        -----------------------------------------
Total Dipole Moment    :     -0.15590      -0.00000       0.01229
                        -----------------------------------------
Magnitude (a.u.)       :      0.15638
Magnitude (Debye)      :      0.39749

Rotational constants in cm-1:     0.186417     0.084542     0.058801
Rotational constants in MHz :  5588.644756  2534.505673  1762.797128

                             ****ORCA TERMINATED NORMALLY****
TOTAL RUN TIME: 0 days 0 hours 17 minutes 59 seconds 760 msec
