                         Program Version 4.2.1 -  RELEASE  -
|  1> %pal
|  2>  nprocs 32
|  3> end
|  4> !RI-MP2 aug-cc-pVQZ aug-cc-pVQZ/C TightSCF
|  5> %maxcore 4500
|  6> *xyzfile 1 1  05_26TS.xyz
|  7>
|  8>
|  9>                          ****END OF INPUT****

CARTESIAN COORDINATES (ANGSTROEM)
---------------------------------
  C     -0.832411   -2.201727   -0.795017
  C     -0.483970   -1.140193    1.620924
  C      1.006999   -1.090909    1.278893
  C      1.450751   -2.221999    0.354752
  C      0.684987   -2.118125   -0.960571
  H      1.245939   -0.138819    0.802123
  H      1.562894   -1.133594    2.217568
  H      1.226650   -3.180671    0.826314
  H      0.954895   -1.175524   -1.435374
  H      0.989456   -2.920004   -1.636148
  N     -1.271333   -1.322608    0.347254
  O     -2.506592   -1.098229    0.406384
  C     -1.509367   -1.715378   -2.074216
  H     -1.159268   -2.332226   -2.901836
  H     -2.593133   -1.809420   -2.020354
  H     -1.241999   -0.683796   -2.299027
  C     -1.308104   -3.635148   -0.507134
  H     -2.370813   -3.644699   -0.263810
  H     -1.157423   -4.236796   -1.404274
  H     -0.760838   -4.108591    0.304743
  C     -0.902976    0.155086    2.304753
  H     -0.618997    1.021112    1.713537
  H     -1.974154    0.178380    2.501419
  H     -0.384548    0.217214    3.261686
  C     -0.833822   -2.314415    2.552286
  H     -0.356605   -2.144995    3.517988
  H     -1.911726   -2.364983    2.708827
  H     -0.493818   -3.276549    2.177389
  C     -3.114278    1.145477   -0.697494
  H     -3.113531    0.788339   -1.734407
  H     -2.851148    0.048636   -0.120105
  O     -4.319503    1.548467   -0.230796
  C     -5.443920    0.813000   -0.709278
  H     -5.481346    0.841001   -1.801481
  H     -6.325244    1.298660   -0.300339
  C     -2.004293    1.949162   -0.275279
  H     -2.190891    2.568312    0.594491
  C     -0.774431    1.887907   -0.840153
  H     -0.636697    1.265905   -1.718814
  H     -5.400787   -0.222137   -0.361583
  C      0.400530    2.614356   -0.404480
  C      1.619631    2.349053   -1.036283
  C      0.367192    3.559017    0.635083
  C      2.777232    2.995346   -0.637846
  H      1.670971    1.606550   -1.821196
  C      1.519737    4.210060    1.021430
  H     -0.564306    3.798592    1.132152
  C      2.728962    3.927671    0.386877
  H      3.714057    2.759554   -1.124744
  H      1.484126    4.944529    1.816053
  H      3.631235    4.440681    0.696530
  N      2.894215   -2.236531    0.149650
  H      3.409956   -3.013133    0.528388
  C      3.594189   -1.262869   -0.494398
  C      5.085092   -1.464262   -0.575216
  H      5.573881   -0.649585   -0.039306
  H      5.422979   -2.414427   -0.162038
  H      5.388591   -1.398301   -1.619964
  O      3.049230   -0.282975   -0.975406

 Total Charge           Charge          ....    1
 Multiplicity           Mult            ....    1
 Number of Electrons    NEL             ....  196
 Basis Dimension        Dim             .... 3598

ORBITAL ENERGIES
----------------

  NO   OCC          E(Eh)            E(eV)
   0   2.0000     -20.815431      -566.4167
   1   2.0000     -20.697564      -563.2094
   2   2.0000     -20.612661      -560.8990
   3   2.0000     -15.845051      -431.1658
   4   2.0000     -15.689687      -426.9381
   5   2.0000     -11.449830      -311.5657
   6   2.0000     -11.437704      -311.2357
   7   2.0000     -11.421175      -310.7860
   8   2.0000     -11.418294      -310.7076
   9   2.0000     -11.391661      -309.9828
  10   2.0000     -11.385560      -309.8168
  11   2.0000     -11.379469      -309.6511
  12   2.0000     -11.359259      -309.1012
  13   2.0000     -11.346258      -308.7474
  14   2.0000     -11.344839      -308.7088
  15   2.0000     -11.343909      -308.6835
  16   2.0000     -11.342685      -308.6502
  17   2.0000     -11.342449      -308.6437
  18   2.0000     -11.341870      -308.6280
  19   2.0000     -11.334441      -308.4258
  20   2.0000     -11.333025      -308.3873
  21   2.0000     -11.330823      -308.3274
  22   2.0000     -11.329406      -308.2888
  23   2.0000     -11.324320      -308.1504
  24   2.0000     -11.323909      -308.1392
  25   2.0000     -11.319387      -308.0162
  26   2.0000      -1.663330       -45.2615
  27   2.0000      -1.528275       -41.5865
  28   2.0000      -1.484526       -40.3960
  29   2.0000      -1.347960       -36.6799
  30   2.0000      -1.311471       -35.6869
  31   2.0000      -1.264691       -34.4140
  32   2.0000      -1.240651       -33.7598
  33   2.0000      -1.214310       -33.0430
  34   2.0000      -1.172703       -31.9109
  35   2.0000      -1.138874       -30.9903
  36   2.0000      -1.123364       -30.5683
  37   2.0000      -1.113587       -30.3022
  38   2.0000      -1.089223       -29.6393
  39   2.0000      -1.076693       -29.2983
  40   2.0000      -1.070846       -29.1392
  41   2.0000      -1.062550       -28.9135
  42   2.0000      -1.059597       -28.8331
  43   2.0000      -1.006236       -27.3811
  44   2.0000      -0.975454       -26.5435
  45   2.0000      -0.961495       -26.1636
  46   2.0000      -0.947044       -25.7704
  47   2.0000      -0.921389       -25.0723
  48   2.0000      -0.907901       -24.7052
  49   2.0000      -0.883518       -24.0418
  50   2.0000      -0.876461       -23.8497
  51   2.0000      -0.838111       -22.8062
  52   2.0000      -0.821859       -22.3639
  53   2.0000      -0.819626       -22.3032
  54   2.0000      -0.813234       -22.1292
  55   2.0000      -0.802811       -21.8456
  56   2.0000      -0.790229       -21.5032
  57   2.0000      -0.784039       -21.3348
  58   2.0000      -0.766053       -20.8454
  59   2.0000      -0.758411       -20.6374
  60   2.0000      -0.745286       -20.2803
  61   2.0000      -0.741676       -20.1820
  62   2.0000      -0.737735       -20.0748
  63   2.0000      -0.723466       -19.6865
  64   2.0000      -0.716160       -19.4877
  65   2.0000      -0.714056       -19.4304
  66   2.0000      -0.713508       -19.4155
  67   2.0000      -0.698866       -19.0171
  68   2.0000      -0.695229       -18.9181
  69   2.0000      -0.693423       -18.8690
  70   2.0000      -0.690894       -18.8002
  71   2.0000      -0.686594       -18.6832
  72   2.0000      -0.678892       -18.4736
  73   2.0000      -0.675674       -18.3860
  74   2.0000      -0.669850       -18.2276
  75   2.0000      -0.658768       -17.9260
  76   2.0000      -0.654023       -17.7969
  77   2.0000      -0.652988       -17.7687
  78   2.0000      -0.649864       -17.6837
  79   2.0000      -0.644474       -17.5370
  80   2.0000      -0.639174       -17.3928
  81   2.0000      -0.630941       -17.1688
  82   2.0000      -0.621018       -16.8988
  83   2.0000      -0.617144       -16.7933
  84   2.0000      -0.614582       -16.7236
  85   2.0000      -0.606233       -16.4964
  86   2.0000      -0.603504       -16.4222
  87   2.0000      -0.598958       -16.2985
  88   2.0000      -0.596706       -16.2372
  89   2.0000      -0.587475       -15.9860
  90   2.0000      -0.583342       -15.8735
  91   2.0000      -0.581262       -15.8169
  92   2.0000      -0.531503       -14.4629
  93   2.0000      -0.520234       -14.1563
  94   2.0000      -0.499584       -13.5944
  95   2.0000      -0.477906       -13.0045
  96   2.0000      -0.431250       -11.7349
  97   2.0000      -0.397504       -10.8166
  98   0.0000      -0.144851        -3.9416
  99   0.0000      -0.057856        -1.5743
 100   0.0000      -0.050678        -1.3790
 101   0.0000      -0.047285        -1.2867
 102   0.0000      -0.043892        -1.1944

MULLIKEN ATOMIC CHARGES
-----------------------
   0 C :    1.213981
   1 C :    1.230513
   2 C :   -1.320937
   3 C :    1.999523
   4 C :   -1.025439
   5 H :    0.804175
   6 H :   -0.119199
   7 H :    0.338744
   8 H :    0.492488
   9 H :   -0.010524
  10 N :    3.239157
  11 O :   -1.687227
  12 C :   -1.368291
  13 H :   -0.027625
  14 H :    0.265530
  15 H :    0.180285
  16 C :   -1.243999
  17 H :    0.156491
  18 H :    0.190464
  19 H :    0.255450
  20 C :   -1.432783
  21 H :    0.324860
  22 H :    0.315894
  23 H :   -0.024816
  24 C :   -1.326340
  25 H :    0.166216
  26 H :    0.154315
  27 H :    0.315993
  28 C :    1.680356
  29 H :    0.196572
  30 H :   -0.246371
  31 O :   -1.147140
  32 C :   -0.857965
  33 H :    0.268724
  34 H :    0.448262
  35 C :   -0.633684
  36 H :    0.127410
  37 C :    0.119753
  38 H :    0.350617
  39 H :    0.311884
  40 C :    0.867380
  41 C :   -0.385567
  42 C :   -0.461728
  43 C :   -0.517382
  44 H :    0.169713
  45 C :   -0.508394
  46 H :    0.206434
  47 C :   -0.403947
  48 H :    0.236729
  49 H :    0.279192
  50 H :    0.365117
  51 N :   -1.129723
  52 H :   -0.131055
  53 C :    0.874504
  54 C :   -0.885134
  55 H :    0.291145
  56 H :    0.265106
  57 H :    0.300204
  58 O :   -1.107911
Sum of atomic charges:    1.0000000

LOEWDIN ATOMIC CHARGES
----------------------
   0 C :   -0.349391
   1 C :   -0.342008
   2 C :    0.542690
   3 C :    0.034261
   4 C :    0.530957
   5 H :   -0.302751
   6 H :   -0.236068
   7 H :   -0.302708
   8 H :   -0.333243
   9 H :   -0.236570
  10 N :    0.192602
  11 O :    1.036340
  12 C :    0.928151
  13 H :   -0.248353
  14 H :   -0.267873
  15 H :   -0.300176
  16 C :    0.958522
  17 H :   -0.256880
  18 H :   -0.252146
  19 H :   -0.296150
  20 C :    0.928818
  21 H :   -0.338179
  22 H :   -0.260622
  23 H :   -0.248600
  24 C :    0.959170
  25 H :   -0.251927
  26 H :   -0.253536
  27 H :   -0.304067
  28 C :    0.019759
  29 H :   -0.283444
  30 H :   -0.853664
  31 O :    0.937319
  32 C :    0.644598
  33 H :   -0.295826
  34 H :   -0.307403
  35 C :    0.399790
  36 H :   -0.323086
  37 C :    0.402054
  38 H :   -0.335895
  39 H :   -0.294847
  40 C :   -0.077753
  41 C :    0.322495
  42 C :    0.346755
  43 C :    0.368172
  44 H :   -0.350767
  45 C :    0.374076
  46 H :   -0.326834
  47 C :    0.369131
  48 H :   -0.308413
  49 H :   -0.310795
  50 H :   -0.307230
  51 N :    0.899281
  52 H :   -0.480958
  53 C :   -0.778252
  54 C :    0.921589
  55 H :   -0.285647
  56 H :   -0.301500
  57 H :   -0.288805
  58 O :    0.775838

  Mayer bond orders larger than 0.100000
B(  0-C ,  1-C ) :   0.5683 B(  0-C ,  4-C ) :   0.2443 B(  0-C , 10-N ) :   1.1447
B(  0-C , 11-O ) :   0.2186 B(  0-C , 13-H ) :  -0.1227 B(  0-C , 14-H ) :  -0.3589
B(  0-C , 15-H ) :  -0.2963 B(  0-C , 16-C ) :  -0.1325 B(  0-C , 17-H ) :  -0.2806
B(  0-C , 18-H ) :  -0.1866 B(  0-C , 19-H ) :  -0.2080 B(  0-C , 30-H ) :  -0.1378
B(  1-C , 10-N ) :   0.8367 B(  1-C , 11-O ) :   0.2523 B(  1-C , 21-H ) :  -0.4163
B(  1-C , 22-H ) :  -0.1854 B(  1-C , 25-H ) :  -0.1731 B(  1-C , 26-H ) :  -0.3020
B(  1-C , 27-H ) :  -0.1557 B(  1-C , 30-H ) :  -0.1747 B(  2-C ,  3-C ) :   0.7713
B(  2-C ,  5-H ) :   0.6351 B(  2-C ,  6-H ) :   1.5097 B(  2-C , 20-C ) :   0.2274
B(  2-C , 52-H ) :  -0.1114 B(  2-C , 58-O ) :   0.1909 B(  3-C ,  4-C ) :   0.7666
B(  3-C ,  5-H ) :  -0.1292 B(  3-C ,  6-H ) :  -0.1398 B(  3-C ,  7-H ) :   0.8495
B(  3-C ,  9-H ) :  -0.1581 B(  3-C , 10-N ) :  -0.1995 B(  3-C , 51-N ) :  -1.3630
B(  3-C , 52-H ) :  -0.3872 B(  3-C , 53-C ) :  -0.3722 B(  3-C , 58-O ) :   0.1516
B(  4-C ,  8-H ) :   0.9136 B(  4-C ,  9-H ) :   1.2499 B(  4-C , 10-N ) :   0.1808
B(  4-C , 12-C ) :   0.1042 B(  4-C , 51-N ) :   0.2827 B(  4-C , 58-O ) :   0.1089
B(  5-H ,  6-H ) :  -0.2128 B(  5-H ,  7-H ) :   0.1066 B(  5-H , 20-C ) :  -0.1218
B(  5-H , 51-N ) :   0.2303 B(  5-H , 58-O ) :  -0.2208 B(  8-H , 51-N ) :   0.1909
B(  8-H , 58-O ) :  -0.2276 B( 10-N , 11-O ) :  -1.2671 B( 10-N , 12-C ) :  -0.7048
B( 10-N , 13-H ) :  -0.1600 B( 10-N , 20-C ) :  -0.7219 B( 10-N , 23-H ) :  -0.1812
B( 10-N , 24-C ) :  -0.3194 B( 10-N , 26-H ) :  -0.1198 B( 10-N , 37-C ) :  -0.1054
B( 11-O , 12-C ) :   0.1980 B( 11-O , 20-C ) :   0.1557 B( 11-O , 28-C ) :   0.1296
B( 11-O , 30-H ) :   0.4627 B( 11-O , 37-C ) :   0.1330 B( 12-C , 13-H ) :   1.5092
B( 12-C , 14-H ) :   1.2114 B( 12-C , 15-H ) :   1.1484 B( 16-C , 17-H ) :   1.3519
B( 16-C , 18-H ) :   1.1318 B( 16-C , 19-H ) :   1.1274 B( 20-C , 21-H ) :   1.0258
B( 20-C , 22-H ) :   1.1715 B( 20-C , 23-H ) :   1.4606 B( 24-C , 25-H ) :   1.1901
B( 24-C , 26-H ) :   1.3771 B( 24-C , 27-H ) :   1.0617 B( 28-C , 29-H ) :   1.1500
B( 28-C , 30-H ) :   0.5986 B( 28-C , 31-O ) :  -0.2643 B( 28-C , 32-C ) :  -0.5995
B( 28-C , 35-C ) :   1.0634 B( 28-C , 37-C ) :  -0.4159 B( 28-C , 39-H ) :  -0.1468
B( 30-H , 31-O ) :   0.4122 B( 30-H , 32-C ) :   0.1434 B( 31-O , 32-C ) :   1.1797
B( 31-O , 39-H ) :   0.1080 B( 32-C , 33-H ) :   0.9284 B( 32-C , 34-H ) :   0.8316
B( 32-C , 35-C ) :   0.1477 B( 32-C , 39-H ) :   0.8902 B( 35-C , 36-H ) :   1.2013
B( 35-C , 37-C ) :   1.0376 B( 35-C , 38-H ) :  -0.1574 B( 35-C , 40-C ) :  -0.4379
B( 37-C , 38-H ) :   1.1501 B( 37-C , 40-C ) :   0.1740 B( 37-C , 41-C ) :  -0.4002
B( 37-C , 42-C ) :  -0.2799 B( 38-H , 40-C ) :  -0.2911 B( 40-C , 41-C ) :   0.7183
B( 40-C , 42-C ) :   1.1161 B( 40-C , 43-C ) :  -0.4664 B( 40-C , 44-H ) :  -0.2016
B( 40-C , 45-C ) :  -0.3417 B( 40-C , 47-C ) :   0.1535 B( 41-C , 43-C ) :   1.3093
B( 41-C , 44-H ) :   1.1534 B( 41-C , 45-C ) :   0.1648 B( 41-C , 48-H ) :  -0.1177
B( 42-C , 45-C ) :   1.2158 B( 42-C , 46-H ) :   1.0301 B( 42-C , 49-H ) :  -0.1309
B( 43-C , 45-C ) :   0.1115 B( 43-C , 47-C ) :   1.2163 B( 43-C , 48-H ) :   1.1133
B( 43-C , 50-H ) :  -0.1034 B( 45-C , 47-C ) :   1.3357 B( 45-C , 49-H ) :   1.0943
B( 47-C , 50-H ) :   0.9972 B( 51-N , 52-H ) :   1.6588 B( 51-N , 53-C ) :   1.2643
B( 53-C , 54-C ) :   0.5075 B( 53-C , 55-H ) :  -0.1485 B( 53-C , 56-H ) :  -0.1503
B( 53-C , 57-H ) :  -0.1186 B( 53-C , 58-O ) :   1.0385 B( 54-C , 55-H ) :   1.0077
B( 54-C , 56-H ) :   1.0322 B( 54-C , 57-H ) :   1.0003

MP2 TOTAL ENERGY:    -1153.046006559 Eh
FINAL SINGLE POINT ENERGY     -1153.046006559095

DIPOLE MOMENT
-------------
                                X             Y             Z
Electronic contribution:      4.87883      13.32027      -1.72254
Nuclear contribution   :     -5.48734     -15.44275       2.07218
                        -----------------------------------------
Total Dipole Moment    :     -0.60851      -2.12248       0.34964
                        -----------------------------------------
Magnitude (a.u.)       :      2.23550
Magnitude (Debye)      :      5.68219

Rotational constants in cm-1:     0.007558     0.006038     0.004098
Rotational constants in MHz :   226.596648   181.022902   122.856088

                             ****ORCA TERMINATED NORMALLY****
TOTAL RUN TIME: 1 days 17 hours 0 minutes 29 seconds 924 msec
