                         Program Version 4.2.1 -  RELEASE  -
|  1> %pal
|  2>  nprocs 32
|  3> end
|  4> !RI-MP2 aug-cc-pVQZ aug-cc-pVQZ/C TightSCF
|  5> %maxcore 4500
|  6> *xyzfile 0 1  10_4P.xyz
|  7>
|  8>
|  9>                          ****END OF INPUT****

CARTESIAN COORDINATES (ANGSTROEM)
---------------------------------
  C     -2.491989    0.467758   -1.065385
  C     -1.379513    0.375489   -0.237404
  C     -1.527875   -0.135998    1.048903
  C     -2.772712   -0.552998    1.493839
  C     -3.878811   -0.467308    0.659135
  C     -3.736588    0.043618   -0.622712
  C     -0.034792    0.813674   -0.750969
  N      0.767846    1.468183    0.289137
  O      2.069226    1.554927   -0.329726
  C      0.367094    2.824676    0.591713
  C      2.283047    0.234706   -0.740846
  C      0.935420   -0.302797   -1.231067
  H      3.097748    0.229229   -1.462930
  C      0.781820   -1.630298   -0.525316
  C      2.622724   -0.681295    0.442102
  H      0.355150    3.455714   -0.306586
  H     -0.631026    2.788282    1.026848
  H      1.058459    3.241132    1.321786
  H     -0.667120   -0.200789    1.702850
  H     -2.878114   -0.950599    2.495751
  H     -4.849623   -0.797572    1.007912
  H     -4.595558    0.116306   -1.278478
  H     -2.384664    0.873720   -2.065325
  O      3.488305   -0.563736    1.238136
  O      1.747074   -1.746733    0.456635
  O      0.000184   -2.495098   -0.731940
  H      0.848566   -0.460857   -2.303119
  H     -0.174014    1.497909   -1.599469

 Total Charge           Charge          ....    0
 Multiplicity           Mult            ....    1
 Number of Electrons    NEL             ....  122
 Basis Dimension        Dim             .... 1866

ORBITAL ENERGIES
----------------

  NO   OCC          E(Eh)            E(eV)
   0   2.0000     -20.643045      -561.7258
   1   2.0000     -20.620079      -561.1009
   2   2.0000     -20.572616      -559.8093
   3   2.0000     -20.572569      -559.8081
   4   2.0000     -15.638312      -425.5401
   5   2.0000     -11.407150      -310.4043
   6   2.0000     -11.403746      -310.3117
   7   2.0000     -11.334836      -308.4366
   8   2.0000     -11.306205      -307.6575
   9   2.0000     -11.286405      -307.1187
  10   2.0000     -11.265406      -306.5473
  11   2.0000     -11.256611      -306.3080
  12   2.0000     -11.247763      -306.0672
  13   2.0000     -11.245093      -305.9945
  14   2.0000     -11.244199      -305.9702
  15   2.0000     -11.243301      -305.9458
  16   2.0000     -11.242494      -305.9238
  17   2.0000      -1.517091       -41.2821
  18   2.0000      -1.465616       -39.8814
  19   2.0000      -1.436601       -39.0919
  20   2.0000      -1.390345       -37.8332
  21   2.0000      -1.207170       -32.8488
  22   2.0000      -1.165746       -31.7215
  23   2.0000      -1.130590       -30.7649
  24   2.0000      -1.042371       -28.3644
  25   2.0000      -1.029973       -28.0270
  26   2.0000      -0.980488       -26.6804
  27   2.0000      -0.944087       -25.6899
  28   2.0000      -0.885453       -24.0944
  29   2.0000      -0.868888       -23.6436
  30   2.0000      -0.842888       -22.9362
  31   2.0000      -0.831854       -22.6359
  32   2.0000      -0.777049       -21.1446
  33   2.0000      -0.744071       -20.2472
  34   2.0000      -0.723975       -19.7004
  35   2.0000      -0.711052       -19.3487
  36   2.0000      -0.708242       -19.2722
  37   2.0000      -0.683540       -18.6001
  38   2.0000      -0.669246       -18.2111
  39   2.0000      -0.667126       -18.1534
  40   2.0000      -0.649357       -17.6699
  41   2.0000      -0.639316       -17.3967
  42   2.0000      -0.624670       -16.9981
  43   2.0000      -0.618282       -16.8243
  44   2.0000      -0.600644       -16.3444
  45   2.0000      -0.586684       -15.9645
  46   2.0000      -0.581149       -15.8139
  47   2.0000      -0.572996       -15.5920
  48   2.0000      -0.563460       -15.3325
  49   2.0000      -0.558959       -15.2101
  50   2.0000      -0.549467       -14.9518
  51   2.0000      -0.529292       -14.4028
  52   2.0000      -0.506566       -13.7843
  53   2.0000      -0.504268       -13.7218
  54   2.0000      -0.502292       -13.6681
  55   2.0000      -0.490181       -13.3385
  56   2.0000      -0.473299       -12.8791
  57   2.0000      -0.454793       -12.3756
  58   2.0000      -0.405286       -11.0284
  59   2.0000      -0.350445        -9.5361
  60   2.0000      -0.346985        -9.4419
  61   0.0000       0.015243         0.4148
  62   0.0000       0.021947         0.5972
  63   0.0000       0.027943         0.7604
  64   0.0000       0.028863         0.7854
  65   0.0000       0.036627         0.9967

MULLIKEN ATOMIC CHARGES
-----------------------
   0 C :   -0.933934
   1 C :    0.800800
   2 C :   -0.416855
   3 C :   -0.300768
   4 C :   -0.412111
   5 C :   -0.343170
   6 C :    0.966967
   7 N :    0.133561
   8 O :   -1.112593
   9 C :   -1.102132
  10 C :   -0.126013
  11 C :   -0.376191
  12 H :    0.504793
  13 C :    1.448687
  14 C :    1.207578
  15 H :    0.300795
  16 H :    0.344986
  17 H :    0.353844
  18 H :    0.318516
  19 H :    0.201849
  20 H :    0.336128
  21 H :    0.234940
  22 H :    0.166329
  23 O :   -0.920679
  24 O :   -0.975274
  25 O :   -0.952732
  26 H :    0.418926
  27 H :    0.233752
Sum of atomic charges:   -0.0000000

LOEWDIN ATOMIC CHARGES
----------------------
   0 C :    0.359470
   1 C :   -0.104357
   2 C :    0.329867
   3 C :    0.366573
   4 C :    0.349644
   5 C :    0.357735
   6 C :   -0.105608
   7 N :    0.213894
   8 O :    0.780787
   9 C :    0.752140
  10 C :   -0.311637
  11 C :    0.080691
  12 H :   -0.287851
  13 C :   -1.042173
  14 C :   -1.031738
  15 H :   -0.274409
  16 H :   -0.296269
  17 H :   -0.286885
  18 H :   -0.312890
  19 H :   -0.312240
  20 H :   -0.317502
  21 H :   -0.316492
  22 H :   -0.306202
  23 O :    0.699233
  24 O :    0.840794
  25 O :    0.731167
  26 H :   -0.258309
  27 H :   -0.297432

  Mayer bond orders larger than 0.100000
B(  0-C ,  1-C ) :   0.7164 B(  0-C ,  3-C ) :   0.1741 B(  0-C ,  4-C ) :   0.2308
B(  0-C ,  5-C ) :   1.5223 B(  0-C ,  6-C ) :  -0.2345 B(  0-C , 20-H ) :  -0.1066
B(  0-C , 21-H ) :  -0.1452 B(  0-C , 22-H ) :   1.1390 B(  1-C ,  2-C ) :   0.5701
B(  1-C ,  3-C ) :  -0.4464 B(  1-C ,  4-C ) :  -0.1190 B(  1-C ,  5-C ) :  -0.4709
B(  1-C ,  6-C ) :   0.3178 B(  1-C , 11-C ) :   0.1257 B(  1-C , 22-H ) :  -0.1102
B(  1-C , 25-O ) :   0.1586 B(  1-C , 27-H ) :  -0.1706 B(  2-C ,  3-C ) :   1.3639
B(  2-C ,  5-C ) :   0.1417 B(  2-C , 18-H ) :   0.9452 B(  2-C , 19-H ) :  -0.1174
B(  3-C ,  4-C ) :   1.1360 B(  3-C , 19-H ) :   1.1726 B(  3-C , 20-H ) :  -0.1226
B(  4-C ,  5-C ) :   1.1037 B(  4-C , 20-H ) :   1.0381 B(  4-C , 21-H ) :  -0.1059
B(  5-C , 21-H ) :   1.1470 B(  6-C ,  7-N ) :   0.2628 B(  6-C ,  8-O ) :  -0.3295
B(  6-C ,  9-C ) :  -0.1811 B(  6-C , 11-C ) :   0.7866 B(  6-C , 27-H ) :   1.0638
B(  7-N ,  8-O ) :   0.1749 B(  7-N ,  9-C ) :   0.7961 B(  8-O ,  9-C ) :   0.1727
B(  8-O , 10-C ) :   0.9531 B(  9-C , 15-H ) :   0.9605 B(  9-C , 16-H ) :   0.9199
B(  9-C , 17-H ) :   0.9593 B( 10-C , 11-C ) :   1.0717 B( 10-C , 12-H ) :   0.6346
B( 10-C , 14-C ) :   1.2318 B( 10-C , 23-O ) :   0.1826 B( 10-C , 24-O ) :   0.1061
B( 11-C , 13-C ) :   1.1579 B( 11-C , 14-C ) :  -0.1968 B( 11-C , 25-O ) :   0.3333
B( 11-C , 26-H ) :   0.8103 B( 13-C , 24-O ) :   0.4826 B( 13-C , 25-O ) :   1.0146
B( 14-C , 23-O ) :   1.0818 B( 14-C , 24-O ) :   0.7447 B( 23-O , 24-O ) :   0.1532
B( 24-O , 25-O ) :   0.1494

MP2 TOTAL ENERGY:     -818.276744384 Eh
FINAL SINGLE POINT ENERGY      -818.276744383557

DIPOLE MOMENT
-------------
                                X             Y             Z
Electronic contribution:      9.47238      -8.30022       0.17796
Nuclear contribution   :    -10.51251       9.57853      -1.42362
                        -----------------------------------------
Total Dipole Moment    :     -1.04013       1.27831      -1.24566
                        -----------------------------------------
Magnitude (a.u.)       :      2.06583
Magnitude (Debye)      :      5.25092

Rotational constants in cm-1:     0.028803     0.013002     0.010992
Rotational constants in MHz :   863.490409   389.789062   329.524612

                             ****ORCA TERMINATED NORMALLY****
TOTAL RUN TIME: 0 days 3 hours 46 minutes 36 seconds 220 msec
