                         Program Version 4.2.1 -  RELEASE  -
|  1> %pal
|  2>  nprocs 32
|  3> end
|  4> !RI-MP2 aug-cc-pVQZ aug-cc-pVQZ/C TightSCF
|  5> %maxcore 4500
|  6> *xyzfile 0 2  06_22P.xyz
|  7>
|  8>
|  9>                          ****END OF INPUT****

CARTESIAN COORDINATES (ANGSTROEM)
---------------------------------
  C      0.713425    0.444763    2.026963
  C      2.080061    1.011940    1.920959
  Si    -0.008486    0.021895    0.272146
  Si    -1.899178   -1.373521    0.462253
  Si     1.581859   -1.112906   -1.037134
  Si    -0.644776    1.991487   -0.848413
  C     -3.077519   -0.812502    1.823840
  H     -3.971409   -1.443317    1.824982
  H     -2.619530   -0.889748    2.812416
  H     -3.400142    0.221425    1.683557
  C     -2.855937   -1.381308   -1.163670
  H     -3.693930   -2.082061   -1.106293
  H     -3.266792   -0.395086   -1.390998
  H     -2.228263   -1.681770   -2.004698
  C     -1.371685   -3.142829    0.851418
  H     -2.247846   -3.780706    0.999536
  H     -0.781521   -3.574619    0.040266
  H     -0.768947   -3.191214    1.761723
  C      0.740983   -1.892168   -2.535908
  H      0.206287   -1.154084   -3.136642
  H      1.487480   -2.366655   -3.179519
  H      0.026077   -2.662961   -2.239678
  C      2.907506    0.072667   -1.665203
  H      3.400636    0.598839   -0.845815
  H      3.673649   -0.467329   -2.229056
  H      2.478349    0.826430   -2.329604
  C      2.401632   -2.503292   -0.062630
  H      2.940293   -2.131529    0.809615
  H      1.663249   -3.228125    0.286669
  H      3.118149   -3.036656   -0.694313
  C      0.646420    3.351123   -0.648887
  H      1.631048    3.019849   -0.985826
  H      0.367065    4.228213   -1.240038
  H      0.741120    3.670533    0.391078
  C     -0.840124    1.638109   -2.691069
  H     -1.198474    2.532063   -3.209671
  H      0.108418    1.349748   -3.149176
  H     -1.557849    0.836565   -2.877259
  C     -2.296692    2.638156   -0.205234
  H     -2.582022    3.550998   -0.736254
  H     -3.096177    1.908168   -0.351186
  H     -2.253178    2.872451    0.860340
  C     -0.231258    1.384300    2.796879
  H     -1.253938    1.006123    2.828245
  H      0.113868    1.519172    3.825346
  H     -0.258262    2.372564    2.332304
  C      3.325259    0.268930    2.254853
  H      3.108222   -0.646720    2.810244
  H      3.904208   -0.020036    1.366814
  H      3.999306    0.878722    2.866272
  H      0.769629   -0.510645    2.561379
  H      2.176919    2.026683    1.547441

 Total Charge           Charge          ....    0
 Multiplicity           Mult            ....    2
 Number of Electrons    NEL             ....  169
 Basis Dimension        Dim             .... 2986

ORBITAL ENERGIES
----------------
                 SPIN UP ORBITALS
  NO   OCC          E(Eh)            E(eV)
   0   1.0000     -68.741770     -1870.5587
   1   1.0000     -68.741578     -1870.5534
   2   1.0000     -68.740644     -1870.5280
   3   1.0000     -68.723079     -1870.0501
   4   1.0000     -11.220806      -305.3336
   5   1.0000     -11.214726      -305.1682
   6   1.0000     -11.214341      -305.1577
   7   1.0000     -11.213530      -305.1357
   8   1.0000     -11.194679      -304.6227
   9   1.0000     -11.194216      -304.6101
  10   1.0000     -11.194027      -304.6050
  11   1.0000     -11.193930      -304.6023
  12   1.0000     -11.193869      -304.6006
  13   1.0000     -11.193764      -304.5978
  14   1.0000     -11.193202      -304.5825
  15   1.0000     -11.192998      -304.5770
  16   1.0000     -11.191595      -304.5388
  17   1.0000      -6.091188      -165.7497
  18   1.0000      -6.090985      -165.7441
  19   1.0000      -6.090075      -165.7194
  20   1.0000      -6.076161      -165.3408
  21   1.0000      -4.197719      -114.2257
  22   1.0000      -4.197358      -114.2159
  23   1.0000      -4.197297      -114.2143
  24   1.0000      -4.197273      -114.2136
  25   1.0000      -4.197185      -114.2112
  26   1.0000      -4.197128      -114.2097
  27   1.0000      -4.196448      -114.1911
  28   1.0000      -4.196285      -114.1867
  29   1.0000      -4.196200      -114.1844
  30   1.0000      -4.182177      -113.8028
  31   1.0000      -4.181689      -113.7895
  32   1.0000      -4.181595      -113.7870
  33   1.0000      -1.078178       -29.3387
  34   1.0000      -0.987725       -26.8774
  35   1.0000      -0.967571       -26.3289
  36   1.0000      -0.961206       -26.1557
  37   1.0000      -0.959820       -26.1180
  38   1.0000      -0.923208       -25.1218
  39   1.0000      -0.921382       -25.0721
  40   1.0000      -0.920715       -25.0539
  41   1.0000      -0.918634       -24.9973
  42   1.0000      -0.917675       -24.9712
  43   1.0000      -0.916945       -24.9513
  44   1.0000      -0.870364       -23.6838
  45   1.0000      -0.776864       -21.1395
  46   1.0000      -0.700747       -19.0683
  47   1.0000      -0.624327       -16.9888
  48   1.0000      -0.622175       -16.9302
  49   1.0000      -0.613278       -16.6882
  50   1.0000      -0.599301       -16.3078
  51   1.0000      -0.594806       -16.1855
  52   1.0000      -0.584496       -15.9049
  53   1.0000      -0.574962       -15.6455
  54   1.0000      -0.573016       -15.5926
  55   1.0000      -0.571909       -15.5624
  56   1.0000      -0.563631       -15.3372
  57   1.0000      -0.559952       -15.2371
  58   1.0000      -0.554162       -15.0795
  59   1.0000      -0.553290       -15.0558
  60   1.0000      -0.551712       -15.0128
  61   1.0000      -0.547537       -14.8992
  62   1.0000      -0.542070       -14.7505
  63   1.0000      -0.538005       -14.6399
  64   1.0000      -0.536410       -14.5965
  65   1.0000      -0.533640       -14.5211
  66   1.0000      -0.532339       -14.4857
  67   1.0000      -0.532072       -14.4784
  68   1.0000      -0.527694       -14.3593
  69   1.0000      -0.525981       -14.3127
  70   1.0000      -0.525557       -14.3011
  71   1.0000      -0.520877       -14.1738
  72   1.0000      -0.515308       -14.0222
  73   1.0000      -0.492197       -13.3934
  74   1.0000      -0.480598       -13.0777
  75   1.0000      -0.437347       -11.9008
  76   1.0000      -0.430641       -11.7183
  77   1.0000      -0.429908       -11.6984
  78   1.0000      -0.424930       -11.5629
  79   1.0000      -0.423542       -11.5252
  80   1.0000      -0.422058       -11.4848
  81   1.0000      -0.406520       -11.0620
  82   1.0000      -0.337428        -9.1819
  83   1.0000      -0.335226        -9.1220
  84   1.0000      -0.292010        -7.9460
  85   0.0000       0.019658         0.5349
  86   0.0000       0.024716         0.6725
  87   0.0000       0.025079         0.6824
  88   0.0000       0.025346         0.6897
  89   0.0000       0.034780         0.9464

                 SPIN DOWN ORBITALS
  NO   OCC          E(Eh)            E(eV)
   0   1.0000     -68.741623     -1870.5547
   1   1.0000     -68.741596     -1870.5539
   2   1.0000     -68.740666     -1870.5286
   3   1.0000     -68.722410     -1870.0319
   4   1.0000     -11.218088      -305.2597
   5   1.0000     -11.216827      -305.2254
   6   1.0000     -11.212463      -305.1066

MULLIKEN ATOMIC CHARGES AND SPIN POPULATIONS
--------------------------------------------
   0 C :   -0.143625   -0.291641
   1 C :   -0.418065    1.302212
   2 Si:    0.204424    0.057770
   3 Si:    1.333899    0.022230
   4 Si:    2.008806    0.003703
   5 Si:    1.019334   -0.002347
   6 C :   -1.128489   -0.002345
   7 H :    0.135003   -0.000006
   8 H :    0.308311   -0.000418
   9 H :    0.392019   -0.000307
  10 C :   -1.211723    0.008765
  11 H :    0.156407    0.000552
  12 H :    0.293565    0.000672
  13 H :    0.310741    0.000061
  14 C :   -1.160116   -0.001715
  15 H :    0.197021    0.000208
  16 H :    0.316243   -0.000276
  17 H :    0.337653   -0.000303
  18 C :   -1.252719   -0.002974
  19 H :    0.317652    0.000594
  20 H :    0.176778    0.000097
  21 H :    0.292902   -0.000487
  22 C :   -1.215745   -0.004208
  23 H :    0.377980   -0.000488
  24 H :    0.144306    0.000418
  25 H :    0.311617    0.000771
  26 C :   -1.328321    0.001361
  27 H :    0.342037    0.001370
  28 H :    0.327701   -0.000011
  29 H :    0.245529    0.000378
  30 C :   -1.163248   -0.001758
  31 H :    0.370635   -0.000788
  32 H :    0.125541   -0.000509
  33 H :    0.305168    0.000400
  34 C :   -1.167163    0.001095
  35 H :    0.152681    0.000448
  36 H :    0.323739    0.000974
  37 H :    0.330148    0.000742
  38 C :   -1.178872   -0.000158
  39 H :    0.201022    0.000096
  40 H :    0.311284    0.000051
  41 H :    0.286437   -0.000338
  42 C :   -1.302467    0.045561
  43 H :    0.355367    0.013893
  44 H :    0.126435   -0.013241
  45 H :    0.212475   -0.002303
  46 C :   -0.945691   -0.132211
  47 H :    0.174022    0.017264
  48 H :    0.267145    0.083953
  49 H :    0.276004    0.041541
  50 H :   -0.063623    0.007452
  51 H :    0.311835   -0.155799
Sum of atomic charges         :   -0.0000000

LOEWDIN ATOMIC CHARGES AND SPIN POPULATIONS
-------------------------------------------
   0 C :    0.090635    0.122599
   1 C :    0.366753    0.437846
   2 Si:    0.348529    0.035246
   3 Si:    0.163025    0.011289
   4 Si:    0.149692    0.006079
   5 Si:    0.150258    0.003557
   6 C :    0.964353    0.000579
   7 H :   -0.329818   -0.000027
   8 H :   -0.342348   -0.000046
   9 H :   -0.346398    0.000093
  10 C :    0.961437    0.004583
  11 H :   -0.324989    0.001068
  12 H :   -0.350766    0.000648
  13 H :   -0.357659    0.000698
  14 C :    0.961510    0.000579
  15 H :   -0.329470    0.000076
  16 H :   -0.358058    0.000057
  17 H :   -0.333516   -0.000118
  18 C :    0.961789   -0.000479
  19 H :   -0.355976   -0.000051
  20 H :   -0.324036   -0.000134
  21 H :   -0.351816   -0.000045
  22 C :    0.967777    0.001809
  23 H :   -0.358083    0.004450
  24 H :   -0.324683    0.000142
  25 H :   -0.348462    0.000030
  26 C :    0.970957    0.000320
  27 H :   -0.371356    0.000940
  28 H :   -0.353338    0.000031
  29 H :   -0.326092    0.000034
  30 C :    0.967320   -0.000133
  31 H :   -0.344514    0.000464
  32 H :   -0.328134   -0.000025
  33 H :   -0.348816   -0.000839
  34 C :    0.961306    0.000433
  35 H :   -0.325032    0.000091
  36 H :   -0.351458    0.000063
  37 H :   -0.352322    0.000170
  38 C :    0.965723   -0.000100
  39 H :   -0.327644   -0.000067
  40 H :   -0.352653    0.000028
  41 H :   -0.346109   -0.000049
  42 C :    0.866725    0.023048
  43 H :   -0.323539    0.004373
  44 H :   -0.256443    0.009490
  45 H :   -0.308667    0.004171
  46 C :    0.902498    0.130195
  47 H :   -0.302509    0.007344
  48 H :   -0.312239    0.027036
  49 H :   -0.282778    0.021970
  50 H :   -0.353469    0.007941
  51 H :   -0.317099    0.132545

  Mayer bond orders larger than 0.100000
B(  0-C ,  1-C ) :   0.5865 B(  0-C ,  2-Si) :   0.2139 B(  0-C ,  3-Si) :   0.3406
B(  0-C ,  5-Si) :   0.1625 B(  0-C , 42-C ) :   0.2172 B(  0-C , 43-H ) :  -0.1849
B(  0-C , 44-H ) :  -0.1099 B(  0-C , 45-H ) :  -0.1713 B(  0-C , 50-H ) :   1.2425
B(  1-C , 42-C ) :   0.1459 B(  1-C , 46-C ) :   0.4186 B(  1-C , 47-H ) :  -0.1960
B(  1-C , 48-H ) :  -0.1310 B(  1-C , 49-H ) :  -0.1181 B(  1-C , 51-H ) :   0.8704
B(  2-Si,  3-Si) :   0.5556 B(  2-Si,  4-Si) :   0.3990 B(  2-Si,  5-Si) :   0.4337
B(  2-Si,  6-C ) :  -0.1006 B(  2-Si, 14-C ) :  -0.1243 B(  2-Si, 26-C ) :   0.1299
B(  2-Si, 30-C ) :  -0.1294 B(  2-Si, 34-C ) :  -0.1449 B(  2-Si, 50-H ) :  -0.1940
B(  3-Si,  5-Si) :   0.1063 B(  3-Si,  6-C ) :   1.0458 B(  3-Si,  8-H ) :  -0.1008
B(  3-Si, 10-C ) :   0.5855 B(  3-Si, 14-C ) :   1.0944 B(  3-Si, 16-H ) :  -0.1043
B(  4-Si,  5-Si) :   0.1220 B(  4-Si, 18-C ) :   0.9360 B(  4-Si, 19-H ) :  -0.1063
B(  4-Si, 21-H ) :  -0.1306 B(  4-Si, 22-C ) :   0.8760 B(  4-Si, 23-H ) :  -0.1240
B(  4-Si, 26-C ) :   0.4926 B(  4-Si, 28-H ) :  -0.1128 B(  5-Si, 30-C ) :   0.9514
B(  5-Si, 31-H ) :  -0.1198 B(  5-Si, 34-C ) :   0.9140 B(  5-Si, 38-C ) :   0.9578
B(  6-C ,  7-H ) :   1.1142 B(  6-C ,  8-H ) :   0.9542 B(  6-C ,  9-H ) :   0.8092
B( 10-C , 11-H ) :   1.1497 B( 10-C , 12-H ) :   0.8996 B( 10-C , 13-H ) :   0.8639
B( 14-C , 15-H ) :   1.0727 B( 14-C , 16-H ) :   0.8886 B( 14-C , 17-H ) :   0.9055
B( 18-C , 19-H ) :   0.8815 B( 18-C , 20-H ) :   1.1047 B( 18-C , 21-H ) :   0.8882
B( 22-C , 23-H ) :   0.7947 B( 22-C , 24-H ) :   1.1385 B( 22-C , 25-H ) :   0.8843
B( 26-C , 27-H ) :   0.9056 B( 26-C , 28-H ) :   0.9182 B( 26-C , 29-H ) :   1.0378
B( 30-C , 31-H ) :   0.8604 B( 30-C , 32-H ) :   1.1189 B( 30-C , 33-H ) :   0.9341
B( 34-C , 35-H ) :   1.1458 B( 34-C , 36-H ) :   0.8759 B( 34-C , 37-H ) :   0.8462
B( 38-C , 39-H ) :   1.0695 B( 38-C , 40-H ) :   0.8799 B( 38-C , 41-H ) :   0.9114
B( 42-C , 43-H ) :   1.0389 B( 42-C , 44-H ) :   1.2715 B( 42-C , 45-H ) :   1.0885
B( 46-C , 47-H ) :   1.1681 B( 46-C , 48-H ) :   0.9864 B( 46-C , 49-H ) :   1.0423

MP2 TOTAL ENERGY:    -1671.738464722 Eh
FINAL SINGLE POINT ENERGY     -1671.738464721701

DIPOLE MOMENT
-------------
                                X             Y             Z
Electronic contribution:     -0.80343      -0.20766       0.11064
Nuclear contribution   :      0.83026       0.19226      -0.02917
                        -----------------------------------------
Total Dipole Moment    :      0.02683      -0.01540       0.08148
                        -----------------------------------------
Magnitude (a.u.)       :      0.08715
Magnitude (Debye)      :      0.22152

Rotational constants in cm-1:     0.010157     0.009405     0.008434
Rotational constants in MHz :   304.498948   281.951053   252.840869

                             ****ORCA TERMINATED NORMALLY****
TOTAL RUN TIME: 0 days 21 hours 28 minutes 30 seconds 401 msec
