                         Program Version 4.2.1 -  RELEASE  -
|  1> %pal
|  2>  nprocs 32
|  3> end
|  4> !RI-MP2 aug-cc-pVQZ aug-cc-pVQZ/C TightSCF
|  5> %maxcore 4500
|  6> *xyzfile 0 2  04_18R.xyz
|  7>
|  8>
|  9>                          ****END OF INPUT****

CARTESIAN COORDINATES (ANGSTROEM)
---------------------------------
  C      0.179417    1.279402   -0.493731
  H      0.401427    0.663040   -1.367983
  C      2.058703    0.093792    0.810005
  H      2.902500    0.271567    1.484325
  H     -0.116435    2.266777   -0.856255
  H      1.356090   -0.538695    1.356637
  C      1.414235    1.413751    0.393782
  H      1.153532    1.969293    1.302613
  H      2.156590    2.016674   -0.134563
  C     -1.022592    0.690822    0.200661
  C     -3.008340   -0.276436   -0.151444
  C     -2.041918   -1.380321    0.278576
  H     -3.582581    0.108107    0.700277
  H     -3.690932   -0.570359   -0.946250
  H     -2.365744   -1.898979    1.183102
  H     -1.871991   -2.110063   -0.516003
  S      2.696937   -0.917489   -0.537011
  O     -2.139174    0.724106   -0.649247
  O     -0.825128   -0.681337    0.527702
  H     -1.256075    1.234259    1.131546

 Total Charge           Charge          ....    0
 Multiplicity           Mult            ....    2
 Number of Electrons    NEL             ....   79
 Basis Dimension        Dim             .... 1230

ORBITAL ENERGIES
----------------
                 SPIN UP ORBITALS
  NO   OCC          E(Eh)            E(eV)
   0   1.0000     -91.956416     -2502.2613
   1   1.0000     -20.568706      -559.7029
   2   1.0000     -20.561993      -559.5203
   3   1.0000     -11.333353      -308.3962
   4   1.0000     -11.286870      -307.1313
   5   1.0000     -11.284307      -307.0616
   6   1.0000     -11.251388      -306.1658
   7   1.0000     -11.230167      -305.5884
   8   1.0000     -11.221222      -305.3450
   9   1.0000      -8.958467      -243.7723
  10   1.0000      -6.654405      -181.0756
  11   1.0000      -6.635928      -180.5728
  12   1.0000      -6.634550      -180.5353
  13   1.0000      -1.446343       -39.3570
  14   1.0000      -1.336794       -36.3760
  15   1.0000      -1.100748       -29.9529
  16   1.0000      -1.047653       -28.5081
  17   1.0000      -0.988406       -26.8959
  18   1.0000      -0.905794       -24.6479
  19   1.0000      -0.860905       -23.4264
  20   1.0000      -0.832535       -22.6544
  21   1.0000      -0.783964       -21.3327
  22   1.0000      -0.720274       -19.5997
  23   1.0000      -0.691311       -18.8115
  24   1.0000      -0.647720       -17.6254
  25   1.0000      -0.639039       -17.3891
  26   1.0000      -0.618026       -16.8174
  27   1.0000      -0.607561       -16.5326
  28   1.0000      -0.581393       -15.8205
  29   1.0000      -0.570771       -15.5315
  30   1.0000      -0.523896       -14.2559
  31   1.0000      -0.518853       -14.1187
  32   1.0000      -0.504889       -13.7387
  33   1.0000      -0.496241       -13.5034
  34   1.0000      -0.493241       -13.4218
  35   1.0000      -0.457165       -12.4401
  36   1.0000      -0.449115       -12.2210
  37   1.0000      -0.425357       -11.5746
  38   1.0000      -0.414713       -11.2849
  39   1.0000      -0.358643        -9.7592
  40   0.0000       0.023494         0.6393
  41   0.0000       0.028411         0.7731
  42   0.0000       0.032654         0.8886
  43   0.0000       0.034074         0.9272
  44   0.0000       0.042390         1.1535

                 SPIN DOWN ORBITALS
  NO   OCC          E(Eh)            E(eV)
   0   1.0000     -91.947300     -2502.0132
   1   1.0000     -20.568707      -559.7030
   2   1.0000     -20.561959      -559.5193
   3   1.0000     -11.333359      -308.3964
   4   1.0000     -11.286870      -307.1313
   5   1.0000     -11.284310      -307.0617
   6   1.0000     -11.252403      -306.1935
   7   1.0000     -11.230150      -305.5879
   8   1.0000     -11.221187      -305.3440
   9   1.0000      -8.948426      -243.4990
  10   1.0000      -6.630815      -180.4336
  11   1.0000      -6.629262      -180.3914
  12   1.0000      -6.613346      -179.9583
  13   1.0000      -1.446309       -39.3561
  14   1.0000      -1.336736       -36.3744
  15   1.0000      -1.096313       -29.8322
  16   1.0000      -1.038748       -28.2658
  17   1.0000      -0.972382       -26.4599
  18   1.0000      -0.879107       -23.9217
  19   1.0000      -0.860804       -23.4237
  20   1.0000      -0.818273       -22.2663
  21   1.0000      -0.757406       -20.6101
  22   1.0000      -0.720151       -19.5963
  23   1.0000      -0.689449       -18.7609
  24   1.0000      -0.646567       -17.5940
  25   1.0000      -0.636240       -17.3130
  26   1.0000      -0.610973       -16.6254
  27   1.0000      -0.605486       -16.4761
  28   1.0000      -0.578523       -15.7424
  29   1.0000      -0.565473       -15.3873
  30   1.0000      -0.520438       -14.1618
  31   1.0000      -0.518619       -14.1123
  32   1.0000      -0.503937       -13.7128
  33   1.0000      -0.492667       -13.4061
  34   1.0000      -0.486542       -13.2395
  35   1.0000      -0.448829       -12.2133
  36   1.0000      -0.447786       -12.1849
  37   1.0000      -0.424518       -11.5517
  38   1.0000      -0.339766        -9.2455
  39   0.0000       0.023501         0.6395
  40   0.0000       0.026012         0.7078
  41   0.0000       0.032392         0.8814
  42   0.0000       0.033029         0.8988
  43   0.0000       0.034274         0.9326

MULLIKEN ATOMIC CHARGES AND SPIN POPULATIONS
--------------------------------------------
   0 C :   -0.590808   -0.003450
   1 H :    0.233539    0.002843
   2 C :   -0.446368   -0.185409
   3 H :    0.281436    0.041734
   4 H :    0.327657   -0.000792
   5 H :    0.241206    0.026744
   6 C :   -0.501932    0.020344
   7 H :    0.229858   -0.001611
   8 H :    0.256234   -0.003885
   9 C :    1.282124   -0.001691
  10 C :   -0.401559   -0.000211
  11 C :   -0.422577   -0.000444
  12 H :    0.259465    0.000054
  13 H :    0.428599   -0.000025
  14 H :    0.306596    0.000013
  15 H :    0.304818   -0.000330
  16 S :   -0.239117    1.115237
  17 O :   -0.999106   -0.000317
  18 O :   -0.760329   -0.009674
  19 H :    0.210264    0.000870
Sum of atomic charges         :   -0.0000000

LOEWDIN ATOMIC CHARGES AND SPIN POPULATIONS
-------------------------------------------
   0 C :    0.457274    0.004979
   1 H :   -0.317916    0.005530
   2 C :   -0.046480    0.185032
   3 H :   -0.389737    0.024368
   4 H :   -0.274540    0.000242
   5 H :   -0.450415    0.020960
   6 C :    0.412781    0.009012
   7 H :   -0.276459    0.000072
   8 H :   -0.294856    0.001280
   9 C :   -0.610643    0.001373
  10 C :    0.175663    0.000029
  11 C :    0.195681    0.000612
  12 H :   -0.288055   -0.000001
  13 H :   -0.296762   -0.000002
  14 H :   -0.294267    0.000018
  15 H :   -0.296580    0.000108
  16 S :    1.092354    0.743710
  17 O :    0.903154    0.000001
  18 O :    0.897734    0.002607
  19 H :   -0.297932    0.000070

  Mayer bond orders larger than 0.100000
B(  0-C ,  1-H ) :   0.8966 B(  0-C ,  4-H ) :   0.8906 B(  0-C ,  6-C ) :   0.9850
B(  0-C ,  9-C ) :   0.6738 B(  0-C , 17-O ) :   0.2062 B(  2-C ,  3-H ) :   0.9264
B(  2-C ,  5-H ) :   0.9478 B(  2-C ,  6-C ) :   0.9401 B(  2-C , 16-S ) :   0.8669
B(  6-C ,  7-H ) :   0.9079 B(  6-C ,  8-H ) :   0.9344 B(  6-C ,  9-C ) :  -0.1338
B(  9-C , 10-C ) :  -0.1897 B(  9-C , 11-C ) :  -0.1544 B(  9-C , 17-O ) :   0.3969
B(  9-C , 18-O ) :   0.5394 B(  9-C , 19-H ) :   0.9592 B( 10-C , 11-C ) :   1.2408
B( 10-C , 12-H ) :   0.9154 B( 10-C , 13-H ) :   0.7910 B( 10-C , 17-O ) :   0.8993
B( 11-C , 14-H ) :   0.8903 B( 11-C , 15-H ) :   0.8763 B( 11-C , 18-O ) :   0.9305

MP2 TOTAL ENERGY:     -782.775042783 Eh
FINAL SINGLE POINT ENERGY      -782.775042783074

DIPOLE MOMENT
-------------
                                X             Y             Z
Electronic contribution:      4.25099      -3.24411      -2.70223
Nuclear contribution   :     -5.08316       3.46762       3.37842
                        -----------------------------------------
Total Dipole Moment    :     -0.83217       0.22350       0.67618
                        -----------------------------------------
Magnitude (a.u.)       :      1.09530
Magnitude (Debye)      :      2.78403

Rotational constants in cm-1:     0.090129     0.025321     0.022245
Rotational constants in MHz :  2701.992836   759.091496   666.881334

                             ****ORCA TERMINATED NORMALLY****
TOTAL RUN TIME: 0 days 2 hours 8 minutes 42 seconds 21 msec
