                         Program Version 4.2.1 -  RELEASE  -
|  1> %pal
|  2>  nprocs 32
|  3> end
|  4> !RI-MP2 aug-cc-pVQZ aug-cc-pVQZ/C TightSCF
|  5> %maxcore 4500
|  6> *xyzfile 0 1  02_49TS.xyz
|  7>
|  8>
|  9>                          ****END OF INPUT****

CARTESIAN COORDINATES (ANGSTROEM)
---------------------------------
  C      2.014930   -0.342297   -1.474132
  C      0.986214    0.277831    0.991452
  H      0.519976    0.404455    1.959999
  C      0.627630    1.083703   -0.085926
  C      1.149592    0.749371   -1.336771
  C      2.934539   -0.609964   -0.338486
  C      2.260970   -0.424486    1.033393
  O      2.772983   -0.855782    2.041869
  O      4.076788   -0.959931   -0.462961
  H      0.803554    1.253566   -2.227707
  C     -0.314974    2.274703    0.109015
  C     -1.446637    1.955750    1.093941
  H     -2.086794    2.833963    1.202827
  H     -2.063454    1.130197    0.742143
  H     -1.073477    1.706687    2.087618
  C     -0.943319    2.741364   -1.208148
  H     -1.621748    3.573489   -1.010334
  H     -0.194355    3.099033   -1.917093
  H     -1.520678    1.944829   -1.680785
  C      0.535252    3.423746    0.682025
  H     -0.084183    4.311329    0.834154
  H      0.974780    3.145045    1.641736
  H      1.349178    3.686968    0.002900
  C     -3.951660   -0.866852   -0.068491
  C     -3.150025   -0.670873   -1.182864
  C     -3.393776   -1.386312    1.096173
  H     -3.577374   -0.267909   -2.093290
  C     -1.801362   -0.995782   -1.142288
  H     -4.013314   -1.543131    1.970784
  C     -2.048484   -1.699124    1.141845
  C     -1.227282   -1.514639    0.022162
  H     -1.195777   -0.847215   -2.026318
  C      0.183730   -1.872005    0.096755
  H     -1.614466   -2.093785    2.053697
  C      0.974028   -2.045501   -1.043227
  H     -5.005516   -0.620048   -0.104540
  H      2.435435   -0.560434   -2.449985
  H      0.518146   -2.309175    1.028703
  H      0.485047   -2.090905   -2.007108
  H      1.830661   -2.703056   -0.957229

 Total Charge           Charge          ....    0
 Multiplicity           Mult            ....    1
 Number of Electrons    NEL             ....  144
 Basis Dimension        Dim             .... 2520

ORBITAL ENERGIES
----------------

  NO   OCC          E(Eh)            E(eV)
   0   2.0000     -20.560000      -559.4661
   1   2.0000     -20.543539      -559.0181
   2   2.0000     -11.338350      -308.5322
   3   2.0000     -11.330348      -308.3144
   4   2.0000     -11.278618      -306.9068
   5   2.0000     -11.276546      -306.8504
   6   2.0000     -11.264014      -306.5094
   7   2.0000     -11.263309      -306.4902
   8   2.0000     -11.260823      -306.4226
   9   2.0000     -11.254203      -306.2424
  10   2.0000     -11.250792      -306.1496
  11   2.0000     -11.249911      -306.1256
  12   2.0000     -11.249497      -306.1144
  13   2.0000     -11.248714      -306.0931
  14   2.0000     -11.247949      -306.0723
  15   2.0000     -11.247805      -306.0683
  16   2.0000     -11.247323      -306.0552
  17   2.0000     -11.222510      -305.3800
  18   2.0000     -11.220844      -305.3347
  19   2.0000     -11.216314      -305.2114
  20   2.0000      -1.411937       -38.4208
  21   2.0000      -1.378093       -37.4998
  22   2.0000      -1.184258       -32.2253
  23   2.0000      -1.168221       -31.7889
  24   2.0000      -1.111222       -30.2379
  25   2.0000      -1.084519       -29.5113
  26   2.0000      -1.036113       -28.1941
  27   2.0000      -1.026906       -27.9435
  28   2.0000      -1.007418       -27.4133
  29   2.0000      -0.965958       -26.2851
  30   2.0000      -0.942949       -25.6589
  31   2.0000      -0.940505       -25.5924
  32   2.0000      -0.877654       -23.8822
  33   2.0000      -0.845645       -23.0112
  34   2.0000      -0.841687       -22.9035
  35   2.0000      -0.826012       -22.4769
  36   2.0000      -0.788248       -21.4493
  37   2.0000      -0.752991       -20.4899
  38   2.0000      -0.722334       -19.6557
  39   2.0000      -0.696648       -18.9568
  40   2.0000      -0.691115       -18.8062
  41   2.0000      -0.674030       -18.3413
  42   2.0000      -0.661229       -17.9929
  43   2.0000      -0.650130       -17.6909
  44   2.0000      -0.639399       -17.3989
  45   2.0000      -0.629651       -17.1337
  46   2.0000      -0.619392       -16.8545
  47   2.0000      -0.616040       -16.7633
  48   2.0000      -0.605422       -16.4744
  49   2.0000      -0.604057       -16.4372
  50   2.0000      -0.600750       -16.3472
  51   2.0000      -0.588778       -16.0215
  52   2.0000      -0.581364       -15.8197
  53   2.0000      -0.560005       -15.2385
  54   2.0000      -0.553979       -15.0745
  55   2.0000      -0.549199       -14.9445
  56   2.0000      -0.542661       -14.7666
  57   2.0000      -0.531465       -14.4619
  58   2.0000      -0.520283       -14.1576
  59   2.0000      -0.518971       -14.1219
  60   2.0000      -0.510668       -13.8960
  61   2.0000      -0.501341       -13.6422
  62   2.0000      -0.499419       -13.5899
  63   2.0000      -0.495097       -13.4723
  64   2.0000      -0.471934       -12.8420
  65   2.0000      -0.464301       -12.6343
  66   2.0000      -0.464081       -12.6283
  67   2.0000      -0.401438       -10.9237
  68   2.0000      -0.379874       -10.3369
  69   2.0000      -0.357822        -9.7368
  70   2.0000      -0.352341        -9.5877
  71   2.0000      -0.287338        -7.8189
  72   0.0000       0.014401         0.3919
  73   0.0000       0.017651         0.4803
  74   0.0000       0.020933         0.5696
  75   0.0000       0.024477         0.6660
  76   0.0000       0.026618         0.7243

MULLIKEN ATOMIC CHARGES
-----------------------
   0 C :   -0.091828
   1 C :   -0.569225
   2 H :    0.173991
   3 C :    1.337525
   4 C :   -1.141408
   5 C :    1.161625
   6 C :    1.267505
   7 O :   -1.103894
   8 O :   -1.019821
   9 H :   -0.131681
  10 C :    1.933579
  11 C :   -1.491255
  12 H :    0.193205
  13 H :    0.377282
  14 H :    0.103793
  15 C :   -1.446518
  16 H :    0.169568
  17 H :    0.167630
  18 H :    0.291033
  19 C :   -1.148176
  20 H :    0.244342
  21 H :    0.235529
  22 H :    0.254065
  23 C :   -0.365816
  24 C :   -0.517437
  25 C :   -0.396345
  26 H :    0.143448
  27 C :   -0.133042
  28 H :    0.190235
  29 C :   -0.776569
  30 C :    1.168688
  31 H :    0.306465
  32 C :    0.208492
  33 H :    0.231829
  34 C :   -0.908109
  35 H :    0.299185
  36 H :    0.165369
  37 H :    0.149060
  38 H :    0.294249
  39 H :    0.173431
Sum of atomic charges:   -0.0000000

LOEWDIN ATOMIC CHARGES
----------------------
   0 C :    0.216332
   1 C :    0.266183
   2 H :   -0.332279
   3 C :   -0.075217
   4 C :    0.362364
   5 C :   -0.743964
   6 C :   -0.739867
   7 O :    0.733651
   8 O :    0.750956
   9 H :   -0.328365
  10 C :   -0.273380
  11 C :    0.912597
  12 H :   -0.257798
  13 H :   -0.323800
  14 H :   -0.279168
  15 C :    0.900512
  16 H :   -0.264984
  17 H :   -0.278442
  18 H :   -0.274487
  19 C :    0.926330
  20 H :   -0.263992
  21 H :   -0.266095
  22 H :   -0.259842
  23 C :    0.350386
  24 C :    0.359656
  25 C :    0.356227
  26 H :   -0.306294
  27 C :    0.334174
  28 H :   -0.310655
  29 C :    0.348960
  30 C :   -0.089290
  31 H :   -0.331770
  32 C :    0.330898
  33 H :   -0.301390
  34 C :    0.677851
  35 H :   -0.313000
  36 H :   -0.290496
  37 H :   -0.314869
  38 H :   -0.313566
  39 H :   -0.294069

  Mayer bond orders larger than 0.100000
B(  0-C ,  1-C ) :   0.2471 B(  0-C ,  3-C ) :  -0.3681 B(  0-C ,  4-C ) :   1.2419
B(  0-C ,  5-C ) :   0.9587 B(  0-C ,  6-C ) :  -0.1848 B(  0-C ,  8-O ) :   0.3611
B(  0-C , 34-C ) :   0.5026 B(  0-C , 36-H ) :   1.0588 B(  1-C ,  2-H ) :   0.8908
B(  1-C ,  3-C ) :   0.9446 B(  1-C ,  5-C ) :  -0.3162 B(  1-C ,  6-C ) :   1.3429
B(  1-C ,  7-O ) :   0.2661 B(  1-C ,  8-O ) :   0.1523 B(  1-C , 10-C ) :  -0.1986
B(  1-C , 32-C ) :   0.2118 B(  2-H ,  7-O ) :   0.2271 B(  3-C ,  4-C ) :   0.1503
B(  3-C ,  5-C ) :   0.1649 B(  3-C ,  6-C ) :  -0.2180 B(  3-C ,  7-O ) :   0.1361
B(  3-C ,  9-H ) :  -0.2441 B(  3-C , 10-C ) :   0.2296 B(  3-C , 15-C ) :  -0.2034
B(  3-C , 19-C ) :  -0.1519 B(  4-C ,  5-C ) :   0.2191 B(  4-C ,  9-H ) :   1.5814
B(  4-C , 10-C ) :  -0.4429 B(  4-C , 32-C ) :   0.1218 B(  4-C , 36-H ) :  -0.1906
B(  5-C ,  6-C ) :   1.3876 B(  5-C ,  7-O ) :   0.3855 B(  6-C ,  8-O ) :   0.4754
B(  7-O , 32-C ) :   0.1309 B(  8-O , 36-H ) :   0.1261 B( 10-C , 11-C ) :   0.2161
B( 10-C , 12-H ) :  -0.1426 B( 10-C , 13-H ) :  -0.1580 B( 10-C , 14-H ) :  -0.1935
B( 10-C , 16-H ) :  -0.1498 B( 10-C , 17-H ) :  -0.1973 B( 10-C , 18-H ) :  -0.2089
B( 10-C , 19-C ) :   0.1463 B( 10-C , 20-H ) :  -0.1170 B( 10-C , 21-H ) :  -0.1585
B( 10-C , 22-H ) :  -0.1847 B( 11-C , 12-H ) :   1.1330 B( 11-C , 13-H ) :   1.0666
B( 11-C , 14-H ) :   1.2503 B( 11-C , 15-C ) :   0.1697 B( 11-C , 19-C ) :   0.1820
B( 13-H , 14-H ) :   0.1044 B( 15-C , 16-H ) :   1.1931 B( 15-C , 17-H ) :   1.2514
B( 15-C , 18-H ) :   1.0790 B( 15-C , 19-C ) :   0.1715 B( 19-C , 20-H ) :   1.0789
B( 19-C , 21-H ) :   1.0598 B( 19-C , 22-H ) :   1.0958 B( 23-C , 24-C ) :   1.2900
B( 23-C , 25-C ) :   1.1627 B( 23-C , 28-H ) :  -0.1109 B( 23-C , 29-C ) :   0.1718
B( 23-C , 35-H ) :   1.0845 B( 24-C , 26-H ) :   1.2450 B( 24-C , 27-C ) :   1.2466
B( 24-C , 29-C ) :   0.1811 B( 24-C , 30-C ) :  -0.4542 B( 24-C , 31-H ) :  -0.1102
B( 24-C , 35-H ) :  -0.1135 B( 25-C , 27-C ) :   0.1272 B( 25-C , 28-H ) :   1.2481
B( 25-C , 29-C ) :   1.3892 B( 25-C , 30-C ) :  -0.4588 B( 27-C , 30-C ) :   0.9029
B( 27-C , 31-H ) :   0.8802 B( 27-C , 32-C ) :  -0.5644 B( 27-C , 38-H ) :  -0.1104
B( 28-H , 29-C ) :  -0.1907 B( 29-C , 30-C ) :   0.6948 B( 29-C , 32-C ) :  -0.4899
B( 29-C , 33-H ) :   1.0650 B( 30-C , 31-H ) :  -0.1753 B( 30-C , 33-H ) :  -0.1792
B( 30-C , 34-C ) :  -0.2402 B( 30-C , 37-H ) :  -0.1946 B( 32-C , 34-C ) :   1.1863
B( 32-C , 37-H ) :   1.1865 B( 32-C , 39-H ) :  -0.3025 B( 34-C , 38-H ) :   1.0719
B( 34-C , 39-H ) :   1.1914

MP2 TOTAL ENERGY:     -846.886751250 Eh
FINAL SINGLE POINT ENERGY      -846.886751249753

DIPOLE MOMENT
-------------
                                X             Y             Z
Electronic contribution:     12.59316     -13.50893       1.78961
Nuclear contribution   :    -15.14321      14.13433      -2.94768
                        -----------------------------------------
Total Dipole Moment    :     -2.55005       0.62540      -1.15807
                        -----------------------------------------
Magnitude (a.u.)       :      2.86967
Magnitude (Debye)      :      7.29411

Rotational constants in cm-1:     0.016540     0.010291     0.008293
Rotational constants in MHz :   495.856448   308.523705   248.610677

                             ****ORCA TERMINATED NORMALLY****
TOTAL RUN TIME: 0 days 12 hours 58 minutes 4 seconds 770 msec
