                         Program Version 4.2.1 -  RELEASE  -
|  1> %pal
|  2>  nprocs 32
|  3> end
|  4> !RI-MP2 aug-cc-pVQZ aug-cc-pVQZ/C TightSCF
|  5> %maxcore 4500
|  6> *xyzfile 1 2  04_62P1.xyz
|  7>
|  8>
|  9>                          ****END OF INPUT****

CARTESIAN COORDINATES (ANGSTROEM)
---------------------------------
  N     -0.471871    1.017263    0.411125
  C     -1.775423    0.915915    0.040397
  H     -0.069512    0.262871    0.957531
  C     -2.399515   -0.367112    0.007654
  H     -2.262923    1.811052   -0.320801
  O     -3.731997   -0.418337   -0.128949
  N     -1.745147   -1.484067    0.080339
  H     -2.414988   -2.252957    0.093735
  C      0.353896    2.076826    0.034617
  C      1.845213    1.769492    0.193238
  O     -0.073281    3.083943   -0.456739
  N      2.149246    0.515113   -0.495188
  H      2.120770    1.671852    1.243175
  H      2.409356    2.584134   -0.252031
  H      2.272342    0.549282   -1.496891
  H     -4.148473    0.446845   -0.039916
  C      1.882913   -0.657031    0.095599
  C      1.750746   -1.898540   -0.778663
  O      1.625279   -0.772522    1.284593
  N      0.676337   -2.696261   -0.127977
  H      2.679016   -2.470696   -0.791989
  H      1.451085   -1.668929   -1.799985
  H      0.934261   -2.837523    0.854013
  H      0.542762   -3.600351   -0.579919
  H     -0.280642   -2.141893   -0.093315

 Total Charge           Charge          ....    1
 Multiplicity           Mult            ....    2
 Number of Electrons    NEL             ....   99
 Basis Dimension        Dim             .... 1592

ORBITAL ENERGIES
----------------
                 SPIN UP ORBITALS
  NO   OCC          E(Eh)            E(eV)
   0   1.0000     -20.737250      -564.2893
   1   1.0000     -20.694281      -563.1200
   2   1.0000     -20.670939      -562.4848
   3   1.0000     -15.831209      -430.7891
   4   1.0000     -15.757973      -428.7963
   5   1.0000     -15.736411      -428.2095
   6   1.0000     -15.704292      -427.3355
   7   1.0000     -11.530862      -313.7707
   8   1.0000     -11.497056      -312.8508
   9   1.0000     -11.492731      -312.7331
  10   1.0000     -11.474095      -312.2260
  11   1.0000     -11.429229      -311.0051
  12   1.0000     -11.422350      -310.8180
  13   1.0000      -1.573695       -42.8224
  14   1.0000      -1.572274       -42.7837
  15   1.0000      -1.541839       -41.9556
  16   1.0000      -1.456839       -39.6426
  17   1.0000      -1.415735       -38.5241
  18   1.0000      -1.402940       -38.1760
  19   1.0000      -1.350927       -36.7606
  20   1.0000      -1.194642       -32.5079
  21   1.0000      -1.154568       -31.4174
  22   1.0000      -1.108623       -30.1672
  23   1.0000      -0.979352       -26.6495
  24   1.0000      -0.967139       -26.3172
  25   1.0000      -0.949169       -25.8282
  26   1.0000      -0.943917       -25.6853
  27   1.0000      -0.922479       -25.1019
  28   1.0000      -0.902562       -24.5599
  29   1.0000      -0.867580       -23.6080
  30   1.0000      -0.851855       -23.1802
  31   1.0000      -0.833242       -22.6737
  32   1.0000      -0.822027       -22.3685
  33   1.0000      -0.800932       -21.7945
  34   1.0000      -0.794592       -21.6220
  35   1.0000      -0.770776       -20.9739
  36   1.0000      -0.757789       -20.6205
  37   1.0000      -0.754040       -20.5185
  38   1.0000      -0.743193       -20.2233
  39   1.0000      -0.722299       -19.6548
  40   1.0000      -0.709423       -19.3044
  41   1.0000      -0.707606       -19.2549
  42   1.0000      -0.686665       -18.6851
  43   1.0000      -0.635230       -17.2855
  44   1.0000      -0.632687       -17.2163
  45   1.0000      -0.613277       -16.6881
  46   1.0000      -0.598931       -16.2977
  47   1.0000      -0.597263       -16.2524
  48   1.0000      -0.551535       -15.0080
  49   1.0000      -0.461107       -12.5474
  50   0.0000      -0.090690        -2.4678
  51   0.0000      -0.073393        -1.9971
  52   0.0000      -0.064207        -1.7472
  53   0.0000      -0.058465        -1.5909
  54   0.0000      -0.048673        -1.3245

                 SPIN DOWN ORBITALS
  NO   OCC          E(Eh)            E(eV)
   0   1.0000     -20.737502      -564.2961
   1   1.0000     -20.694392      -563.1230
   2   1.0000     -20.667799      -562.3994
   3   1.0000     -15.831418      -430.7948
   4   1.0000     -15.757825      -428.7922
   5   1.0000     -15.733528      -428.1311
   6   1.0000     -15.692388      -427.0116
   7   1.0000     -11.530856      -313.7705
   8   1.0000     -11.503044      -313.0137
   9   1.0000     -11.493571      -312.7560
  10   1.0000     -11.474089      -312.2258
  11   1.0000     -11.422316      -310.8170
  12   1.0000     -11.410696      -310.5008
  13   1.0000      -1.573722       -42.8232
  14   1.0000      -1.572612       -42.7930
  15   1.0000      -1.535393       -41.7802
  16   1.0000      -1.457060       -39.6486
  17   1.0000      -1.411256       -38.4022
  18   1.0000      -1.389301       -37.8048
  19   1.0000      -1.330262       -36.1983
  20   1.0000      -1.190373       -32.3917
  21   1.0000      -1.132283       -30.8110
  22   1.0000      -1.088075       -29.6080
  23   1.0000      -0.977268       -26.5928
  24   1.0000      -0.963951       -26.2304
  25   1.0000      -0.948186       -25.8015
  26   1.0000      -0.935651       -25.4604
  27   1.0000      -0.921092       -25.0642
  28   1.0000      -0.901571       -24.5330
  29   1.0000      -0.867005       -23.5924
  30   1.0000      -0.846281       -23.0285
  31   1.0000      -0.829552       -22.5733
  32   1.0000      -0.819896       -22.3105
  33   1.0000      -0.797056       -21.6890
  34   1.0000      -0.789017       -21.4702
  35   1.0000      -0.762482       -20.7482
  36   1.0000      -0.752277       -20.4705
  37   1.0000      -0.747492       -20.3403
  38   1.0000      -0.735939       -20.0259
  39   1.0000      -0.718203       -19.5433
  40   1.0000      -0.706265       -19.2184
  41   1.0000      -0.699324       -19.0296
  42   1.0000      -0.674111       -18.3435
  43   1.0000      -0.622286       -16.9333
  44   1.0000      -0.611538       -16.6408
  45   1.0000      -0.597607       -16.2617
  46   1.0000      -0.579384       -15.7658
  47   1.0000      -0.549093       -14.9416
  48   1.0000      -0.533139       -14.5074
  49   0.0000      -0.090912        -2.4738
  50   0.0000      -0.079765        -2.1705
  51   0.0000      -0.072769        -1.9801
  52   0.0000      -0.064054        -1.7430
  53   0.0000      -0.058287        -1.5861

MULLIKEN ATOMIC CHARGES AND SPIN POPULATIONS
--------------------------------------------
   0 N :   -0.686990    0.047248
   1 C :   -0.572713    0.916321
   2 H :    0.586939   -0.003770
   3 C :    1.395480   -0.218036
   4 H :    0.326081   -0.085929
   5 O :   -0.821681   -0.001609
   6 N :   -0.684669    0.333397
   7 H :    0.125203   -0.018813
   8 C :    0.997944   -0.054341
   9 C :   -0.489069    0.003867
  10 O :   -0.835513    0.076458
  11 N :   -0.725914    0.002300
  12 H :    0.358688   -0.000115
  13 H :    0.414007   -0.001339
  14 H :    0.289847   -0.001403
  15 H :    0.393675    0.001259
  16 C :    1.139692    0.006302
  17 C :   -0.515383    0.000477
  18 O :   -0.992476   -0.002338
  19 N :   -0.114024   -0.001371
  20 H :    0.425806   -0.000339
  21 H :    0.250855    0.000525
  22 H :    0.351974    0.000934
  23 H :    0.131115   -0.000055
  24 H :    0.251127    0.000373
Sum of atomic charges         :    1.0000000

LOEWDIN ATOMIC CHARGES AND SPIN POPULATIONS
-------------------------------------------
   0 N :    0.787313    0.145743
   1 C :    0.248952    0.341465
   2 H :   -0.700706    0.016013
   3 C :   -0.586480    0.096950
   4 H :   -0.321346    0.109044
   5 O :    1.302138   -0.011535
   6 N :    1.062614    0.176235
   7 H :   -0.579306    0.042433
   8 C :   -0.766447    0.017250
   9 C :    0.402144    0.000782
  10 O :    0.755078    0.047298
  11 N :    0.874337    0.002675
  12 H :   -0.288816    0.000599
  13 H :   -0.289932   -0.000830
  14 H :   -0.454718    0.000262
  15 H :   -0.761631    0.006270
  16 C :   -0.766762    0.000439
  17 C :    0.535607   -0.000336
  18 O :    0.852124   -0.001564
  19 N :    1.494230   -0.001435
  20 H :   -0.230225   -0.000075
  21 H :   -0.247577    0.000017
  22 H :   -0.391982   -0.000186
  23 H :   -0.291998   -0.000209
  24 H :   -0.636611    0.012695

  Mayer bond orders larger than 0.100000
B(  0-N ,  1-C ) :   1.0882 B(  0-N ,  2-H ) :   0.6926 B(  0-N ,  8-C ) :   1.2376
B(  0-N , 10-O ) :   0.2358 B(  1-C ,  3-C ) :   1.2768 B(  1-C ,  4-H ) :   0.9153
B(  1-C ,  5-O ) :   0.3244 B(  3-C ,  5-O ) :   0.2215 B(  3-C ,  6-N ) :   1.4617
B(  5-O ,  6-N ) :   0.1661 B(  5-O , 15-H ) :   0.8479 B(  6-N ,  7-H ) :   1.1264
B(  6-N , 19-N ) :  -0.1263 B(  6-N , 24-H ) :   0.2209 B(  8-C ,  9-C ) :   1.0250
B(  8-C , 10-O ) :   0.9240 B(  9-C , 10-O ) :   0.1686 B(  9-C , 11-N ) :   0.9715
B(  9-C , 12-H ) :   0.8787 B(  9-C , 13-H ) :   0.8304 B( 11-N , 14-H ) :   0.9231
B( 11-N , 16-C ) :   1.0911 B( 11-N , 18-O ) :   0.1575 B( 16-C , 17-C ) :   0.9982
B( 16-C , 18-O ) :   1.1066 B( 17-C , 19-N ) :   0.9879 B( 17-C , 20-H ) :   0.7521
B( 17-C , 21-H ) :   0.9692 B( 19-N , 22-H ) :   0.8433 B( 19-N , 23-H ) :   1.1354
B( 19-N , 24-H ) :   0.7232

MP2 TOTAL ENERGY:     -679.336628969 Eh
FINAL SINGLE POINT ENERGY      -679.336628969222

DIPOLE MOMENT
-------------
                                X             Y             Z
Electronic contribution:     -2.28554       4.53920       1.11802
Nuclear contribution   :      3.19580      -7.61661      -2.21168
                        -----------------------------------------
Total Dipole Moment    :      0.91026      -3.07741      -1.09366
                        -----------------------------------------
Magnitude (a.u.)       :      3.39044
Magnitude (Debye)      :      8.61783

Rotational constants in cm-1:     0.029483     0.023436     0.014244
Rotational constants in MHz :   883.865486   702.606737   427.018384

                             ****ORCA TERMINATED NORMALLY****
TOTAL RUN TIME: 0 days 3 hours 48 minutes 37 seconds 643 msec
