                         Program Version 4.2.1 -  RELEASE  -
|  1> %pal
|  2>  nprocs 32
|  3> end
|  4> !RI-MP2 aug-cc-pVQZ aug-cc-pVQZ/C TightSCF
|  5> %maxcore 4500
|  6> *xyzfile 0 1  04_89P2.xyz
|  7>
|  8>
|  9>                          ****END OF INPUT****

CARTESIAN COORDINATES (ANGSTROEM)
---------------------------------
  N     -0.221045    1.144407    0.178959
  C     -1.036535    0.060127   -0.035666
  C     -2.326536    0.529045    0.153856
  N     -2.322100    1.867449    0.490530
  C     -1.062893    2.187552    0.502309
  C     -3.362099   -0.402280   -0.017707
  N     -3.047040   -1.659163   -0.349559
  C     -1.764001   -1.978727   -0.505542
  N     -0.703524   -1.190475   -0.368685
  N     -4.655666   -0.071466    0.138558
  H     -5.359486   -0.779979    0.020457
  H     -4.909459    0.864336    0.405199
  H     -1.562032   -3.009297   -0.776913
  H     -0.665762    3.165195    0.732938
  C      1.223568    1.175480    0.193582
  C      1.904073    0.662218   -1.095077
  C      2.683197   -0.580404   -0.632497
  C      2.900810   -0.270049    0.853894
  O      1.681324    0.377870    1.253619
  H      1.511057    2.222880    0.328093
  C      3.146499   -1.452483    1.753318
  H      3.720121    0.455953    0.937029
  O      2.748976    1.716988   -1.527783
  H      1.174764    0.400898   -1.864969
  H      3.175655    1.459432   -2.349446
  O      1.994780   -1.774245   -0.877040
  H      3.639285   -0.648076   -1.156337
  H      1.047573   -1.667878   -0.643593
  H      3.217369   -1.127758    2.792045
  H      4.081625   -1.943395    1.476723
  H      2.337788   -2.175353    1.656963

 Total Charge           Charge          ....    0
 Multiplicity           Mult            ....    1
 Number of Electrons    NEL             ....  132
 Basis Dimension        Dim             .... 2038

ORBITAL ENERGIES
----------------

  NO   OCC          E(Eh)            E(eV)
   0   2.0000     -20.578704      -559.9750
   1   2.0000     -20.567525      -559.6708
   2   2.0000     -20.533486      -558.7445
   3   2.0000     -15.630476      -425.3269
   4   2.0000     -15.589971      -424.2247
   5   2.0000     -15.567587      -423.6156
   6   2.0000     -15.567075      -423.6017
   7   2.0000     -15.555358      -423.2828
   8   2.0000     -11.344319      -308.6946
   9   2.0000     -11.341981      -308.6310
  10   2.0000     -11.322524      -308.1016
  11   2.0000     -11.320796      -308.0545
  12   2.0000     -11.320014      -308.0332
  13   2.0000     -11.297166      -307.4115
  14   2.0000     -11.281538      -306.9862
  15   2.0000     -11.279971      -306.9436
  16   2.0000     -11.255084      -306.2664
  17   2.0000     -11.210740      -305.0597
  18   2.0000      -1.421878       -38.6913
  19   2.0000      -1.383368       -37.6433
  20   2.0000      -1.371129       -37.3103
  21   2.0000      -1.347970       -36.6801
  22   2.0000      -1.313187       -35.7336
  23   2.0000      -1.259815       -34.2813
  24   2.0000      -1.204978       -32.7891
  25   2.0000      -1.167243       -31.7623
  26   2.0000      -1.051251       -28.6060
  27   2.0000      -1.044334       -28.4178
  28   2.0000      -1.031181       -28.0599
  29   2.0000      -0.942048       -25.6344
  30   2.0000      -0.903180       -24.5768
  31   2.0000      -0.889137       -24.1947
  32   2.0000      -0.847842       -23.0710
  33   2.0000      -0.818754       -22.2794
  34   2.0000      -0.810008       -22.0414
  35   2.0000      -0.776126       -21.1195
  36   2.0000      -0.742731       -20.2108
  37   2.0000      -0.727683       -19.8013
  38   2.0000      -0.708967       -19.2920
  39   2.0000      -0.698128       -18.9970
  40   2.0000      -0.689120       -18.7519
  41   2.0000      -0.683987       -18.6122
  42   2.0000      -0.654045       -17.7975
  43   2.0000      -0.637120       -17.3369
  44   2.0000      -0.630709       -17.1625
  45   2.0000      -0.627487       -17.0748
  46   2.0000      -0.614484       -16.7210
  47   2.0000      -0.596281       -16.2256
  48   2.0000      -0.590785       -16.0761
  49   2.0000      -0.577304       -15.7092
  50   2.0000      -0.560575       -15.2540
  51   2.0000      -0.546775       -14.8785
  52   2.0000      -0.540209       -14.6998
  53   2.0000      -0.527381       -14.3508
  54   2.0000      -0.516751       -14.0615
  55   2.0000      -0.511562       -13.9203
  56   2.0000      -0.506694       -13.7879
  57   2.0000      -0.479919       -13.0593
  58   2.0000      -0.469723       -12.7818
  59   2.0000      -0.457082       -12.4378
  60   2.0000      -0.450503       -12.2588
  61   2.0000      -0.427291       -11.6272
  62   2.0000      -0.418375       -11.3846
  63   2.0000      -0.403982       -10.9929
  64   2.0000      -0.381363       -10.3774
  65   2.0000      -0.318298        -8.6613
  66   0.0000       0.021453         0.5838
  67   0.0000       0.024563         0.6684
  68   0.0000       0.028544         0.7767
  69   0.0000       0.030880         0.8403
  70   0.0000       0.036229         0.9858

MULLIKEN ATOMIC CHARGES
-----------------------
   0 N :   -0.443898
   1 C :    0.639398
   2 C :   -0.239539
   3 N :   -0.987634
   4 C :    0.416494
   5 C :    1.009692
   6 N :   -0.971015
   7 C :    0.138719
   8 N :   -0.643079
   9 N :   -0.840310
  10 H :    0.264077
  11 H :    0.310063
  12 H :    0.562822
  13 H :    0.445208
  14 C :    0.727892
  15 C :    0.398455
  16 C :    0.479747
  17 C :    0.268801
  18 O :   -1.045950
  19 H :    0.401117
  20 C :   -0.953354
  21 H :    0.233935
  22 O :   -1.098168
  23 H :    0.310999
  24 H :    0.294529
  25 O :   -1.162637
  26 H :    0.415321
  27 H :    0.327748
  28 H :    0.265650
  29 H :    0.210985
  30 H :    0.263930
Sum of atomic charges:    0.0000000

LOEWDIN ATOMIC CHARGES
----------------------
   0 N :    0.438334
   1 C :   -0.550556
   2 C :   -0.419113
   3 N :    0.623696
   4 C :   -0.019220
   5 C :   -0.491083
   6 N :    0.604256
   7 C :   -0.119327
   8 N :    0.669296
   9 N :    1.267748
  10 H :   -0.483021
  11 H :   -0.480870
  12 H :   -0.363155
  13 H :   -0.300501
  14 C :   -0.367875
  15 C :   -0.200546
  16 C :   -0.223258
  17 C :   -0.225254
  18 O :    0.936527
  19 H :   -0.334986
  20 C :    0.920212
  21 H :   -0.278208
  22 O :    1.312489
  23 H :   -0.292990
  24 H :   -0.763781
  25 O :    1.309542
  26 H :   -0.303891
  27 H :   -1.013248
  28 H :   -0.278998
  29 H :   -0.273905
  30 H :   -0.298310

  Mayer bond orders larger than 0.100000
B(  0-N ,  1-C ) :   0.8988 B(  0-N ,  2-C ) :  -0.4232 B(  0-N ,  4-C ) :   1.3335
B(  0-N , 14-C ) :   0.8105 B(  0-N , 18-O ) :   0.1483 B(  1-C ,  2-C ) :   1.4848
B(  1-C ,  3-N ) :   0.3700 B(  1-C ,  4-C ) :   0.1368 B(  1-C ,  5-C ) :  -0.4037
B(  1-C ,  8-N ) :   1.2042 B(  2-C ,  3-N ) :   0.2341 B(  2-C ,  4-C ) :   0.2259
B(  2-C ,  5-C ) :   1.4450 B(  2-C ,  6-N ) :   0.1551 B(  2-C ,  7-C ) :   0.1985
B(  2-C ,  8-N ) :  -0.1207 B(  3-N ,  4-C ) :   1.2499 B(  4-C , 13-H ) :   0.6961
B(  5-C ,  6-N ) :   0.7791 B(  5-C ,  9-N ) :   0.8748 B(  6-N ,  7-C ) :   1.1343
B(  6-N ,  9-N ) :   0.1173 B(  7-C ,  8-N ) :   1.6708 B(  7-C , 12-H ) :   0.7149
B(  8-N , 27-H ) :   0.1968 B(  9-N , 10-H ) :   0.9940 B(  9-N , 11-H ) :   0.9107
B( 14-C , 15-C ) :   1.0048 B( 14-C , 17-C ) :  -0.1648 B( 14-C , 18-O ) :   0.2054
B( 14-C , 19-H ) :   0.7652 B( 14-C , 22-O ) :   0.2388 B( 15-C , 16-C ) :   0.9095
B( 15-C , 18-O ) :   0.2120 B( 15-C , 22-O ) :  -0.2922 B( 15-C , 23-H ) :   0.9072
B( 15-C , 25-O ) :   0.2663 B( 16-C , 17-C ) :   0.8093 B( 16-C , 22-O ) :   0.2663
B( 16-C , 25-O ) :   0.1507 B( 16-C , 26-H ) :   0.8060 B( 17-C , 18-O ) :   0.7103
B( 17-C , 20-C ) :   0.4342 B( 17-C , 21-H ) :   1.0609 B( 17-C , 22-O ) :   0.1178
B( 17-C , 28-H ) :  -0.1480 B( 17-C , 29-H ) :  -0.1525 B( 20-C , 28-H ) :   1.0560
B( 20-C , 29-H ) :   1.1094 B( 20-C , 30-H ) :   0.9359 B( 22-O , 23-H ) :   0.1206
B( 22-O , 24-H ) :   0.9725 B( 25-O , 27-H ) :   0.7513

MP2 TOTAL ENERGY:     -887.046305157 Eh
FINAL SINGLE POINT ENERGY      -887.046305156647

DIPOLE MOMENT
-------------
                                X             Y             Z
Electronic contribution:    -11.30316       3.45465      -1.83427
Nuclear contribution   :     11.29334      -2.74053       1.52009
                        -----------------------------------------
Total Dipole Moment    :     -0.00982       0.71412      -0.31418
                        -----------------------------------------
Magnitude (a.u.)       :      0.78024
Magnitude (Debye)      :      1.98322

Rotational constants in cm-1:     0.027694     0.009975     0.008696
Rotational constants in MHz :   830.236187   299.046991   260.688442

                             ****ORCA TERMINATED NORMALLY****
TOTAL RUN TIME: 0 days 4 hours 22 minutes 30 seconds 751 msec
