                         Program Version 4.2.1 -  RELEASE  -
|  1> %pal
|  2>  nprocs 32
|  3> end
|  4> !RI-MP2 aug-cc-pVQZ aug-cc-pVQZ/C TightSCF
|  5> %maxcore 4500
|  6> *xyzfile 0 1  10_36TS.xyz
|  7>
|  8>
|  9>                          ****END OF INPUT****

CARTESIAN COORDINATES (ANGSTROEM)
---------------------------------
  C      0.963597    1.643765    0.171902
  H      1.125439    2.669119   -0.163639
  H      1.160267    1.625300    1.264164
  C      1.949704    0.713658   -0.502903
  C      0.122053   -0.972768   -0.731258
  H     -0.259903   -0.814413   -1.743938
  H     -0.019698   -2.025620   -0.488630
  C     -0.698368   -0.094976    0.217877
  H     -0.359273   -0.304951    1.252125
  N     -0.415510    1.297093   -0.111825
  C      2.502831   -1.650890   -0.380245
  C      3.244375    1.145451   -0.758537
  H      3.667083    0.858706   -1.704308
  H      3.545345    2.134794   -0.421757
  C      3.777279   -1.487311    0.157940
  H      4.023694   -2.186617    0.957668
  C      4.659618   -0.427025   -0.041521
  C      1.589525   -0.625874   -0.660420
  C      5.692999   -0.101830    1.004844
  H      5.963436    0.955106    0.967301
  H      5.329366   -0.318490    2.010380
  H      6.612917   -0.673484    0.840200
  H      4.992257   -0.238112   -1.046222
  C     -2.180920   -0.414540    0.155750
  C     -1.345735    2.225660    0.500446
  H     -0.992224    3.241424    0.311998
  H     -1.387568    2.092287    1.597226
  C     -2.721644    2.026858   -0.104470
  H     -2.692886    2.337690   -1.153205
  C     -3.140222    0.584104   -0.009657
  H     -3.455011    2.658779    0.403193
  C     -4.489137    0.237003   -0.058738
  H     -5.227989    1.021227   -0.186553
  C     -2.602850   -1.736201    0.302013
  H     -1.870225   -2.518063    0.462195
  C     -4.896722   -1.079409    0.063944
  H     -5.949951   -1.329960    0.024606
  C     -3.944546   -2.072674    0.254507
  H     -4.247303   -3.106510    0.368963
  H      2.059787   -2.635856   -0.257841

 Total Charge           Charge          ....    0
 Multiplicity           Mult            ....    1
 Number of Electrons    NEL             ....  136
 Basis Dimension        Dim             .... 2486

ORBITAL ENERGIES
----------------

  NO   OCC          E(Eh)            E(eV)
   0   2.0000     -15.544162      -422.9781
   1   2.0000     -11.258467      -306.3585
   2   2.0000     -11.250905      -306.1527
   3   2.0000     -11.247063      -306.0481
   4   2.0000     -11.245793      -306.0136
   5   2.0000     -11.232486      -305.6515
   6   2.0000     -11.231265      -305.6183
   7   2.0000     -11.228434      -305.5412
   8   2.0000     -11.228041      -305.5305
   9   2.0000     -11.226473      -305.4879
  10   2.0000     -11.226379      -305.4853
  11   2.0000     -11.225830      -305.4704
  12   2.0000     -11.224710      -305.4399
  13   2.0000     -11.224669      -305.4388
  14   2.0000     -11.223899      -305.4178
  15   2.0000     -11.221556      -305.3541
  16   2.0000     -11.220493      -305.3251
  17   2.0000     -11.219601      -305.3009
  18   2.0000     -11.217556      -305.2452
  19   2.0000      -1.251743       -34.0617
  20   2.0000      -1.154724       -31.4216
  21   2.0000      -1.129210       -30.7274
  22   2.0000      -1.072961       -29.1968
  23   2.0000      -1.058379       -28.8000
  24   2.0000      -1.048134       -28.5212
  25   2.0000      -1.012668       -27.5561
  26   2.0000      -0.994854       -27.0714
  27   2.0000      -0.965889       -26.2832
  28   2.0000      -0.927680       -25.2435
  29   2.0000      -0.888585       -24.1796
  30   2.0000      -0.855773       -23.2868
  31   2.0000      -0.836379       -22.7590
  32   2.0000      -0.824810       -22.4442
  33   2.0000      -0.806611       -21.9490
  34   2.0000      -0.767524       -20.8854
  35   2.0000      -0.749209       -20.3870
  36   2.0000      -0.692393       -18.8410
  37   2.0000      -0.671224       -18.2649
  38   2.0000      -0.665466       -18.1082
  39   2.0000      -0.653795       -17.7907
  40   2.0000      -0.636194       -17.3117
  41   2.0000      -0.633959       -17.2509
  42   2.0000      -0.618676       -16.8350
  43   2.0000      -0.605765       -16.4837
  44   2.0000      -0.597076       -16.2473
  45   2.0000      -0.590061       -16.0564
  46   2.0000      -0.581075       -15.8119
  47   2.0000      -0.572620       -15.5818
  48   2.0000      -0.565069       -15.3763
  49   2.0000      -0.562703       -15.3119
  50   2.0000      -0.551243       -15.0001
  51   2.0000      -0.543220       -14.7818
  52   2.0000      -0.532626       -14.4935
  53   2.0000      -0.523141       -14.2354
  54   2.0000      -0.517302       -14.0765
  55   2.0000      -0.510932       -13.9032
  56   2.0000      -0.499126       -13.5819
  57   2.0000      -0.493934       -13.4406
  58   2.0000      -0.479474       -13.0472
  59   2.0000      -0.474772       -12.9192
  60   2.0000      -0.454435       -12.3658
  61   2.0000      -0.447015       -12.1639
  62   2.0000      -0.432472       -11.7682
  63   2.0000      -0.361257        -9.8303
  64   2.0000      -0.326764        -8.8917
  65   2.0000      -0.319991        -8.7074
  66   2.0000      -0.305402        -8.3104
  67   2.0000      -0.281694        -7.6653
  68   0.0000       0.022339         0.6079
  69   0.0000       0.024924         0.6782
  70   0.0000       0.025767         0.7011
  71   0.0000       0.030333         0.8254
  72   0.0000       0.032604         0.8872

MULLIKEN ATOMIC CHARGES
-----------------------
   0 C :   -0.078515
   1 H :    0.256127
   2 H :    0.218441
   3 C :    0.147034
   4 C :   -0.267422
   5 H :    0.366126
   6 H :    0.136605
   7 C :    1.535969
   8 H :    0.150965
   9 N :   -0.123627
  10 C :   -0.538252
  11 C :   -0.912066
  12 H :    0.260867
  13 H :    0.173640
  14 C :   -0.501599
  15 H :    0.269698
  16 C :    0.032472
  17 C :   -0.118058
  18 C :   -0.907276
  19 H :    0.243128
  20 H :    0.242908
  21 H :    0.283598
  22 H :    0.301058
  23 C :    0.451776
  24 C :   -0.717571
  25 H :    0.195346
  26 H :    0.258248
  27 C :   -0.697240
  28 H :    0.206566
  29 C :    0.333740
  30 H :    0.197021
  31 C :   -0.693269
  32 H :    0.237180
  33 C :   -0.783627
  34 H :    0.135782
  35 C :   -0.415981
  36 H :    0.254026
  37 C :   -0.449859
  38 H :    0.193997
  39 H :    0.122045
Sum of atomic charges:    0.0000000

LOEWDIN ATOMIC CHARGES
----------------------
   0 C :    0.345042
   1 H :   -0.299326
   2 H :   -0.239639
   3 C :   -0.032906
   4 C :    0.507467
   5 H :   -0.244151
   6 H :   -0.327356
   7 C :   -0.050373
   8 H :   -0.251847
   9 N :    0.532425
  10 C :    0.387417
  11 C :    0.732134
  12 H :   -0.361432
  13 H :   -0.281270
  14 C :    0.366145
  15 H :   -0.323952
  16 C :    0.311728
  17 C :   -0.019025
  18 C :    0.918171
  19 H :   -0.293111
  20 H :   -0.298519
  21 H :   -0.280775
  22 H :   -0.368586
  23 C :   -0.024294
  24 C :    0.352739
  25 H :   -0.278751
  26 H :   -0.237604
  27 C :    0.523997
  28 H :   -0.255822
  29 C :   -0.038923
  30 H :   -0.273915
  31 C :    0.356946
  32 H :   -0.312983
  33 C :    0.359779
  34 H :   -0.322865
  35 C :    0.348858
  36 H :   -0.320702
  37 C :    0.356725
  38 H :   -0.319822
  39 H :   -0.341622

  Mayer bond orders larger than 0.100000
B(  0-C ,  1-H ) :   1.0630 B(  0-C ,  2-H ) :   0.9152 B(  0-C ,  3-C ) :   0.2892
B(  0-C ,  9-N ) :   1.1205 B(  0-C , 11-C ) :  -0.3178 B(  1-H ,  3-C ) :  -0.1065
B(  3-C ,  4-C ) :  -0.1184 B(  3-C , 10-C ) :  -0.2733 B(  3-C , 11-C ) :   1.1140
B(  3-C , 12-H ) :  -0.1696 B(  3-C , 13-H ) :  -0.1831 B(  3-C , 14-C ) :   0.1181
B(  3-C , 17-C ) :   1.1085 B(  4-C ,  5-H ) :   0.8800 B(  4-C ,  6-H ) :   1.1442
B(  4-C ,  7-C ) :   0.7802 B(  4-C , 10-C ) :  -0.3642 B(  4-C , 17-C ) :   0.3172
B(  4-C , 33-C ) :   0.1032 B(  7-C ,  8-H ) :   1.0061 B(  7-C ,  9-N ) :   0.4921
B(  7-C , 17-C ) :  -0.1946 B(  7-C , 23-C ) :  -0.1405 B(  7-C , 24-C ) :  -0.1542
B(  7-C , 29-C ) :  -0.5444 B(  7-C , 33-C ) :  -0.7506 B(  9-N , 23-C ) :  -0.1488
B(  9-N , 24-C ) :   0.7310 B(  9-N , 26-H ) :  -0.1100 B(  9-N , 28-H ) :  -0.1002
B( 10-C , 11-C ) :   0.2419 B( 10-C , 14-C ) :   1.0063 B( 10-C , 15-H ) :  -0.1383
B( 10-C , 16-C ) :  -0.2727 B( 10-C , 17-C ) :   1.4751 B( 10-C , 39-H ) :   1.1556
B( 11-C , 12-H ) :   1.0684 B( 11-C , 13-H ) :   1.1599 B( 11-C , 16-C ) :   0.4008
B( 14-C , 15-H ) :   1.0252 B( 14-C , 16-C ) :   1.1848 B( 14-C , 17-C ) :  -0.1221
B( 14-C , 22-H ) :  -0.1190 B( 14-C , 39-H ) :  -0.1625 B( 16-C , 17-C ) :   0.2168
B( 16-C , 18-C ) :   0.6948 B( 16-C , 22-H ) :   0.9227 B( 18-C , 19-H ) :   1.0200
B( 18-C , 20-H ) :   0.9680 B( 18-C , 21-H ) :   1.0000 B( 23-C , 27-C ) :  -0.1204
B( 23-C , 29-C ) :   1.1798 B( 23-C , 31-C ) :  -0.5392 B( 23-C , 33-C ) :   1.0386
B( 23-C , 34-H ) :  -0.1284 B( 23-C , 37-C ) :  -0.4003 B( 24-C , 25-H ) :   1.0397
B( 24-C , 26-H ) :   0.9855 B( 24-C , 27-C ) :   1.1670 B( 27-C , 28-H ) :   1.0601
B( 27-C , 29-C ) :   0.4051 B( 27-C , 30-H ) :   1.1420 B( 29-C , 30-H ) :  -0.1663
B( 29-C , 31-C ) :   1.0174 B( 29-C , 35-C ) :  -0.2304 B( 31-C , 32-H ) :   1.0531
B( 31-C , 33-C ) :   0.1639 B( 31-C , 35-C ) :   1.2654 B( 31-C , 36-H ) :  -0.2017
B( 31-C , 37-C ) :   0.1394 B( 33-C , 34-H ) :   1.2056 B( 33-C , 37-C ) :   1.2534
B( 33-C , 38-H ) :  -0.1835 B( 35-C , 36-H ) :   1.1584 B( 35-C , 37-C ) :   1.1990
B( 36-H , 37-C ) :  -0.1271 B( 37-C , 38-H ) :   1.2143

MP2 TOTAL ENERGY:     -751.850553240 Eh
FINAL SINGLE POINT ENERGY      -751.850553239915

DIPOLE MOMENT
-------------
                                X             Y             Z
Electronic contribution:    -11.90450      -3.16411      -2.96050
Nuclear contribution   :     12.20846       3.50548       3.34626
                        -----------------------------------------
Total Dipole Moment    :      0.30396       0.34137       0.38576
                        -----------------------------------------
Magnitude (a.u.)       :      0.59811
Magnitude (Debye)      :      1.52028

Rotational constants in cm-1:     0.032584     0.006591     0.005721
Rotational constants in MHz :   976.833996   197.602129   171.518529

                             ****ORCA TERMINATED NORMALLY****
TOTAL RUN TIME: 0 days 8 hours 3 minutes 11 seconds 719 msec
