                         Program Version 4.2.1 -  RELEASE  -
|  1> %pal
|  2>  nprocs 32
|  3> end
|  4> !RI-MP2 aug-cc-pVQZ aug-cc-pVQZ/C TightSCF
|  5> %maxcore 4500
|  6> *xyzfile -1 1  05_3R.xyz
|  7>
|  8>
|  9>                          ****END OF INPUT****

CARTESIAN COORDINATES (ANGSTROEM)
---------------------------------
  O     -0.551508   -1.117024    1.161401
  C     -0.553135   -0.649237    0.037160
  C     -1.707023    0.151072   -0.559668
  O     -2.944508   -0.190015    0.092051
  O     -1.276144    1.393098   -0.384110
  C      0.727715   -0.649104   -0.788271
  H     -1.901634   -0.154497   -1.614407
  C      1.924982   -0.000357   -0.119864
  H      0.555470   -0.098172   -1.717416
  H      1.000252   -1.678154   -1.034277
  O      3.049379   -0.403901   -0.338885
  H     -2.805352    0.058175    1.012946
  C      1.649666    1.170328    0.775779
  H      2.557570    1.757643    0.910372
  H      0.802994    1.746303    0.387072
  H      1.319721    0.775229    1.741232

 Total Charge           Charge          ....   -1
 Multiplicity           Mult            ....    1
 Number of Electrons    NEL             ....   70
 Basis Dimension        Dim             .... 1042

ORBITAL ENERGIES
----------------

  NO   OCC          E(Eh)            E(eV)
   0   2.0000     -20.416060      -555.5492
   1   2.0000     -20.392008      -554.8948
   2   2.0000     -20.380942      -554.5936
   3   2.0000     -20.278735      -551.8124
   4   2.0000     -11.205634      -304.9208
   5   2.0000     -11.172010      -304.0058
   6   2.0000     -11.146044      -303.2993
   7   2.0000     -11.104863      -302.1787
   8   2.0000     -11.086890      -301.6896
   9   2.0000      -1.260806       -34.3083
  10   2.0000      -1.240260       -33.7492
  11   2.0000      -1.191251       -32.4156
  12   2.0000      -1.078608       -29.3504
  13   2.0000      -0.919603       -25.0237
  14   2.0000      -0.848946       -23.1010
  15   2.0000      -0.734516       -19.9872
  16   2.0000      -0.627048       -17.0628
  17   2.0000      -0.588043       -16.0015
  18   2.0000      -0.538206       -14.6453
  19   2.0000      -0.520059       -14.1515
  20   2.0000      -0.512593       -13.9484
  21   2.0000      -0.482331       -13.1249
  22   2.0000      -0.464731       -12.6460
  23   2.0000      -0.435830       -11.8595
  24   2.0000      -0.428095       -11.6491
  25   2.0000      -0.425197       -11.5702
  26   2.0000      -0.405936       -11.0461
  27   2.0000      -0.373639       -10.1672
  28   2.0000      -0.361567        -9.8387
  29   2.0000      -0.346310        -9.4236
  30   2.0000      -0.315033        -8.5725
  31   2.0000      -0.289859        -7.8875
  32   2.0000      -0.269033        -7.3208
  33   2.0000      -0.209336        -5.6963
  34   2.0000      -0.178818        -4.8659
  35   0.0000       0.108594         2.9550
  36   0.0000       0.114563         3.1174
  37   0.0000       0.123839         3.3698
  38   0.0000       0.126672         3.4469
  39   0.0000       0.135950         3.6994

MULLIKEN ATOMIC CHARGES
-----------------------
   0 O :   -0.992106
   1 C :    0.757095
   2 C :    0.770829
   3 O :   -0.961842
   4 O :   -1.129814
   5 C :   -0.707937
   6 H :    0.325934
   7 C :    0.976140
   8 H :    0.252993
   9 H :    0.316735
  10 O :   -0.878246
  11 H :    0.338136
  12 C :   -0.954337
  13 H :    0.338329
  14 H :    0.307077
  15 H :    0.241014
Sum of atomic charges:   -1.0000000

LOEWDIN ATOMIC CHARGES
----------------------
   0 O :    0.702857
   1 C :   -0.815253
   2 C :   -0.994106
   3 O :    1.181851
   4 O :    0.583949
   5 C :    0.402344
   6 H :   -0.402195
   7 C :   -0.668300
   8 H :   -0.326572
   9 H :   -0.321792
  10 O :    0.706934
  11 H :   -0.892160
  12 C :    0.865069
  13 H :   -0.314241
  14 H :   -0.402198
  15 H :   -0.306185

  Mayer bond orders larger than 0.100000
B(  0-O ,  1-C ) :   1.0177 B(  0-O ,  2-C ) :   0.1019 B(  0-O ,  5-C ) :   0.1859
B(  1-C ,  2-C ) :   0.8455 B(  1-C ,  4-O ) :   0.1413 B(  1-C ,  5-C ) :   0.9131
B(  2-C ,  3-O ) :   0.5097 B(  2-C ,  4-O ) :   0.9691 B(  2-C ,  6-H ) :   0.9261
B(  3-O , 11-H ) :   0.8738 B(  5-C ,  7-C ) :   0.9622 B(  5-C ,  8-H ) :   0.9057
B(  5-C ,  9-H ) :   0.8792 B(  5-C , 10-O ) :   0.2095 B(  7-C , 10-O ) :   1.0340
B(  7-C , 12-C ) :   0.8714 B( 10-O , 12-C ) :   0.1455 B( 12-C , 13-H ) :   0.9321
B( 12-C , 14-H ) :   0.9088 B( 12-C , 15-H ) :   0.9145

MP2 TOTAL ENERGY:     -495.004807404 Eh
FINAL SINGLE POINT ENERGY      -495.004807404416

DIPOLE MOMENT
-------------
                                X             Y             Z
Electronic contribution:     -0.37352      -2.90458       0.20486
Nuclear contribution   :      1.48445       2.37367      -0.30257
                        -----------------------------------------
Total Dipole Moment    :      1.11093      -0.53091      -0.09770
                        -----------------------------------------
Magnitude (a.u.)       :      1.23514
Magnitude (Debye)      :      3.13948

Rotational constants in cm-1:     0.114765     0.032547     0.030420
Rotational constants in MHz :  3440.565442   975.745886   911.958543

                             ****ORCA TERMINATED NORMALLY****
TOTAL RUN TIME: 0 days 0 hours 27 minutes 48 seconds 157 msec
