                         Program Version 4.2.1 -  RELEASE  -
|  1> %pal
|  2>  nprocs 32
|  3> end
|  4> !RI-MP2 aug-cc-pVQZ aug-cc-pVQZ/C TightSCF
|  5> %maxcore 4500
|  6> *xyzfile 0 1  09_12R1.xyz
|  7>
|  8>
|  9>                          ****END OF INPUT****

CARTESIAN COORDINATES (ANGSTROEM)
---------------------------------
  C     -2.414506   -0.803625    0.004131
  C     -1.248911   -0.713170    0.616173
  S      0.000000    0.393490    0.000000
  O     -0.553839    1.107462   -1.142959
  O      0.553834    1.107463    1.142961
  C      1.248914   -0.713166   -0.616175
  C      2.414508   -0.803623   -0.004130
  H      0.966305   -1.237523   -1.520426
  H      3.197288   -1.445930   -0.388676
  H      2.611909   -0.223410    0.890125
  H     -0.966298   -1.237531    1.520421
  H     -2.611910   -0.223409   -0.890122
  H     -3.197284   -1.445935    0.388676

 Total Charge           Charge          ....    0
 Multiplicity           Mult            ....    1
 Number of Electrons    NEL             ....   62
 Basis Dimension        Dim             ....  840

ORBITAL ENERGIES
----------------

  NO   OCC          E(Eh)            E(eV)
   0   2.0000     -92.176310     -2508.2449
   1   2.0000     -20.542197      -558.9816
   2   2.0000     -20.542177      -558.9811
   3   2.0000     -11.278310      -306.8984
   4   2.0000     -11.278298      -306.8981
   5   2.0000     -11.274337      -306.7903
   6   2.0000     -11.274336      -306.7903
   7   2.0000      -9.145349      -248.8576
   8   2.0000      -6.830782      -185.8750
   9   2.0000      -6.830337      -185.8629
  10   2.0000      -6.829835      -185.8493
  11   2.0000      -1.443564       -39.2814
  12   2.0000      -1.333764       -36.2936
  13   2.0000      -1.108107       -30.1531
  14   2.0000      -1.085959       -29.5505
  15   2.0000      -0.935488       -25.4559
  16   2.0000      -0.836524       -22.7630
  17   2.0000      -0.768201       -20.9038
  18   2.0000      -0.717851       -19.5337
  19   2.0000      -0.683419       -18.5968
  20   2.0000      -0.664409       -18.0795
  21   2.0000      -0.658537       -17.9197
  22   2.0000      -0.616038       -16.7632
  23   2.0000      -0.577448       -15.7132
  24   2.0000      -0.574361       -15.6292
  25   2.0000      -0.501257       -13.6399
  26   2.0000      -0.498213       -13.5571
  27   2.0000      -0.474971       -12.9246
  28   2.0000      -0.445409       -12.1202
  29   2.0000      -0.442078       -12.0295
  30   2.0000      -0.408139       -11.1060
  31   0.0000       0.020141         0.5481
  32   0.0000       0.025396         0.6911
  33   0.0000       0.032888         0.8949
  34   0.0000       0.040655         1.1063
  35   0.0000       0.045008         1.2247

MULLIKEN ATOMIC CHARGES
-----------------------
   0 C :   -0.761116
   1 C :   -0.707660
   2 S :    2.923760
   3 O :   -1.256035
   4 O :   -1.256034
   5 C :   -0.707660
   6 C :   -0.761117
   7 H :    0.451432
   8 H :    0.386935
   9 H :    0.424564
  10 H :    0.451431
  11 H :    0.424564
  12 H :    0.386936
Sum of atomic charges:   -0.0000000

LOEWDIN ATOMIC CHARGES
----------------------
   0 C :    0.737612
   1 C :    0.209729
   2 S :   -0.290614
   3 O :    0.298681
   4 O :    0.298681
   5 C :    0.209730
   6 C :    0.737612
   7 H :   -0.377711
   8 H :   -0.337247
   9 H :   -0.385757
  10 H :   -0.377710
  11 H :   -0.385757
  12 H :   -0.337247

  Mayer bond orders larger than 0.100000
B(  0-C ,  1-C ) :   1.6233 B(  0-C , 11-H ) :   0.7991 B(  0-C , 12-H ) :   0.9720
B(  1-C ,  2-S ) :   0.8021 B(  1-C ,  5-C ) :  -0.1459 B(  1-C , 10-H ) :   0.8252
B(  1-C , 12-H ) :  -0.1000 B(  2-S ,  3-O ) :   0.9249 B(  2-S ,  4-O ) :   0.9249
B(  2-S ,  5-C ) :   0.8021 B(  5-C ,  6-C ) :   1.6233 B(  5-C ,  7-H ) :   0.8252
B(  5-C ,  8-H ) :  -0.1000 B(  6-C ,  8-H ) :   0.9720 B(  6-C ,  9-H ) :   0.7991

MP2 TOTAL ENERGY:     -703.696495306 Eh
FINAL SINGLE POINT ENERGY      -703.696495306072

DIPOLE MOMENT
-------------
                                X             Y             Z
Electronic contribution:     -0.00000       3.70639       0.00000
Nuclear contribution   :      0.00001      -5.70718      -0.00000
                        -----------------------------------------
Total Dipole Moment    :      0.00001      -2.00079      -0.00000
                        -----------------------------------------
Magnitude (a.u.)       :      2.00079
Magnitude (Debye)      :      5.08560

Rotational constants in cm-1:     0.123460     0.059979     0.055702
Rotational constants in MHz :  3701.239318  1798.138895  1669.907424

                             ****ORCA TERMINATED NORMALLY****
TOTAL RUN TIME: 0 days 0 hours 13 minutes 16 seconds 49 msec
