                         Program Version 4.2.1 -  RELEASE  -
|  1> %pal
|  2>  nprocs 32
|  3> end
|  4> !RI-MP2 aug-cc-pVQZ aug-cc-pVQZ/C TightSCF
|  5> %maxcore 4500
|  6> *xyzfile 0 2  06_33TS.xyz
|  7>
|  8>
|  9>                          ****END OF INPUT****

CARTESIAN COORDINATES (ANGSTROEM)
---------------------------------
  Si     0.593541    0.073766    0.009590
  Si     1.684500   -1.381940   -1.468667
  Si     1.259569   -0.279522    2.225814
  Si     0.895663    2.303306   -0.649017
  C      0.647963    2.471429   -2.510743
  H      0.768731    3.512589   -2.823460
  H      1.373818    1.872507   -3.065301
  H     -0.349670    2.146542   -2.815335
  C     -0.300475    3.472793    0.221525
  H     -0.238532    3.377340    1.307624
  H     -0.063613    4.509465   -0.035390
  H     -1.336380    3.289817   -0.069711
  C      2.649938    2.846504   -0.220443
  H      3.397425    2.186671   -0.665646
  H      2.838305    3.860748   -0.584417
  H      2.809983    2.848351    0.860393
  C      0.569814    1.077373    3.339053
  H      0.838168    0.893973    4.383401
  H      0.963179    2.058715    3.063761
  H     -0.520145    1.127555    3.279707
  C      0.636209   -1.946506    2.839068
  H      1.036592   -2.765420    2.238456
  H      0.939510   -2.110479    3.877291
  H     -0.452360   -2.014077    2.791970
  C      3.141802   -0.259818    2.340491
  H      3.557170    0.687226    1.989239
  H      3.468569   -0.405831    3.374167
  H      3.582597   -1.058050    1.738410
  C      1.922018   -3.076722   -0.684716
  H      2.378006   -3.768438   -1.398941
  H      2.574870   -3.025871    0.189776
  H      0.966706   -3.499670   -0.368224
  C      0.655775   -1.571278   -3.034788
  H      0.451831   -0.604977   -3.501844
  H      1.174853   -2.195038   -3.768230
  H     -0.301194   -2.046953   -2.809231
  C      3.380868   -0.692378   -1.923551
  H      3.912294   -1.385168   -2.582532
  H      3.302813    0.264683   -2.444296
  H      3.998838   -0.538160   -1.035692
  H     -0.968623   -0.334178   -0.061846
  C     -2.422452   -0.977154   -0.089286
  C     -3.032077   -0.524899    1.202569
  Cl    -2.064551   -2.709973   -0.131683
  C     -3.023926   -0.460494   -1.360704
  C     -3.212510    0.994593    1.218664
  C     -3.944230    1.485725   -0.028643
  C     -3.214699    1.056933   -1.299967
  H     -2.412081   -0.850023    2.041240
  H     -4.008807   -1.014769    1.327530
  H     -3.996815   -0.948724   -1.518330
  H     -2.394526   -0.737130   -2.209797
  H     -2.230208    1.472215    1.272811
  H     -3.754378    1.286111    2.121486
  H     -4.043049    2.574034   -0.001580
  H     -4.962302    1.078833   -0.037898
  H     -2.234776    1.540404   -1.333489
  H     -3.759363    1.389570   -2.186718

 Total Charge           Charge          ....    0
 Multiplicity           Mult            ....    2
 Number of Electrons    NEL             ....  201
 Basis Dimension        Dim             .... 3368

ORBITAL ENERGIES
----------------
                 SPIN UP ORBITALS
  NO   OCC          E(Eh)            E(eV)
   0   1.0000    -104.821255     -2852.3314
   1   1.0000     -68.745893     -1870.6708
   2   1.0000     -68.742972     -1870.5914
   3   1.0000     -68.741131     -1870.5413
   4   1.0000     -68.720754     -1869.9868
   5   1.0000     -11.296444      -307.3919
   6   1.0000     -11.231385      -305.6215
   7   1.0000     -11.230966      -305.6101
   8   1.0000     -11.226265      -305.4822
   9   1.0000     -11.225583      -305.4636
  10   1.0000     -11.224110      -305.4236
  11   1.0000     -11.196998      -304.6858
  12   1.0000     -11.196668      -304.6768
  13   1.0000     -11.195985      -304.6582
  14   1.0000     -11.195899      -304.6559
  15   1.0000     -11.194372      -304.6143
  16   1.0000     -11.193502      -304.5907
  17   1.0000     -11.190454      -304.5077
  18   1.0000     -11.190216      -304.5013
  19   1.0000     -11.189243      -304.4748
  20   1.0000     -10.547086      -287.0008
  21   1.0000      -8.013806      -218.0667
  22   1.0000      -8.012654      -218.0354
  23   1.0000      -8.012599      -218.0339
  24   1.0000      -6.095063      -165.8551
  25   1.0000      -6.092191      -165.7769
  26   1.0000      -6.090299      -165.7255
  27   1.0000      -6.075312      -165.3176
  28   1.0000      -4.201515      -114.3290
  29   1.0000      -4.201234      -114.3214
  30   1.0000      -4.201189      -114.3202
  31   1.0000      -4.198639      -114.2508
  32   1.0000      -4.198358      -114.2431
  33   1.0000      -4.198316      -114.2420
  34   1.0000      -4.196750      -114.1994
  35   1.0000      -4.196448      -114.1912
  36   1.0000      -4.196430      -114.1907
  37   1.0000      -4.184323      -113.8612
  38   1.0000      -4.179760      -113.7371
  39   1.0000      -4.179736      -113.7364
  40   1.0000      -1.170077       -31.8394
  41   1.0000      -1.093915       -29.7669
  42   1.0000      -1.022289       -27.8179
  43   1.0000      -0.986566       -26.8458
  44   1.0000      -0.968102       -26.3434
  45   1.0000      -0.961856       -26.1734
  46   1.0000      -0.959113       -26.0988
  47   1.0000      -0.923932       -25.1415
  48   1.0000      -0.923254       -25.1230
  49   1.0000      -0.920478       -25.0475
  50   1.0000      -0.918666       -24.9982
  51   1.0000      -0.917643       -24.9703
  52   1.0000      -0.915038       -24.8995
  53   1.0000      -0.853557       -23.2265
  54   1.0000      -0.823004       -22.3951
  55   1.0000      -0.763136       -20.7660
  56   1.0000      -0.713558       -19.4169
  57   1.0000      -0.661842       -18.0096
  58   1.0000      -0.627178       -17.0664
  59   1.0000      -0.623984       -16.9795
  60   1.0000      -0.620742       -16.8912
  61   1.0000      -0.619450       -16.8561
  62   1.0000      -0.615017       -16.7355
  63   1.0000      -0.587876       -15.9969
  64   1.0000      -0.572907       -15.5896
  65   1.0000      -0.571268       -15.5450
  66   1.0000      -0.565995       -15.4015
  67   1.0000      -0.564768       -15.3681
  68   1.0000      -0.561286       -15.2734
  69   1.0000      -0.560187       -15.2435
  70   1.0000      -0.555045       -15.1035
  71   1.0000      -0.554262       -15.0822
  72   1.0000      -0.553632       -15.0651
  73   1.0000      -0.545949       -14.8560
  74   1.0000      -0.543580       -14.7916
  75   1.0000      -0.542486       -14.7618
  76   1.0000      -0.540501       -14.7078
  77   1.0000      -0.539264       -14.6741
  78   1.0000      -0.536808       -14.6073
  79   1.0000      -0.535228       -14.5643
  80   1.0000      -0.533443       -14.5157
  81   1.0000      -0.530471       -14.4349
  82   1.0000      -0.528844       -14.3906
  83   1.0000      -0.524991       -14.2857
  84   1.0000      -0.524520       -14.2729
  85   1.0000      -0.499016       -13.5789
  86   1.0000      -0.495548       -13.4846
  87   1.0000      -0.465782       -12.6746
  88   1.0000      -0.461766       -12.5653
  89   1.0000      -0.450105       -12.2480
  90   1.0000      -0.439126       -11.9492
  91   1.0000      -0.432704       -11.7745
  92   1.0000      -0.430009       -11.7011
  93   1.0000      -0.429006       -11.6738
  94   1.0000      -0.426748       -11.6124
  95   1.0000      -0.423748       -11.5308
  96   1.0000      -0.421647       -11.4736
  97   1.0000      -0.415390       -11.3033
  98   1.0000      -0.341578        -9.2948
  99   1.0000      -0.339488        -9.2379
 100   1.0000      -0.280894        -7.6435
 101   0.0000       0.018948         0.5156
 102   0.0000       0.023673         0.6442
 103   0.0000       0.024237         0.6595
 104   0.0000       0.026059         0.7091
 105   0.0000       0.032911         0.8956

MULLIKEN ATOMIC CHARGES AND SPIN POPULATIONS
--------------------------------------------
   0 Si:    0.206417    0.484465
   1 Si:    1.238714   -0.009374
   2 Si:    0.970885   -0.025876
   3 Si:    1.078524   -0.049229
   4 C :   -1.222107   -0.005779
   5 H :    0.190793   -0.001181
   6 H :    0.357213   -0.000517
   7 H :    0.389199    0.000438
   8 C :   -1.239022   -0.004323
   9 H :    0.384273    0.000103
  10 H :    0.130820   -0.001339
  11 H :    0.331856    0.000835
  12 C :   -1.241189    0.020862
  13 H :    0.380456    0.006922
  14 H :    0.215605    0.005166
  15 H :    0.359281    0.003699
  16 C :   -1.170956   -0.005577
  17 H :    0.189175   -0.001466
  18 H :    0.352318    0.001410
  19 H :    0.399845   -0.001613
  20 C :   -1.380195   -0.001575
  21 H :    0.341636   -0.001661
  22 H :    0.249585   -0.000505
  23 H :    0.376022   -0.000873
  24 C :   -1.249412    0.014552
  25 H :    0.359675    0.004543
  26 H :    0.254707    0.003370
  27 H :    0.321693    0.004899
  28 C :   -1.161476   -0.004469
  29 H :    0.181307   -0.001305
  30 H :    0.355979   -0.000499
  31 H :    0.407977   -0.002379
  32 C :   -1.215292   -0.001533
  33 H :    0.389723   -0.000613
  34 H :    0.165528   -0.000849
  35 H :    0.334310    0.000280
  36 C :   -1.268887    0.011583
  37 H :    0.212166    0.002305
  38 H :    0.330112    0.003254
  39 H :    0.354090    0.004913
  40 H :   -1.373803   -0.372073
  41 C :    1.580492    0.927606
  42 C :   -0.534835   -0.096085
  43 Cl:   -0.787979   -0.029982
  44 C :   -0.463487   -0.102310
  45 C :   -0.413960    0.001883
  46 C :   -0.291327   -0.002917
  47 C :   -0.668636    0.000138
  48 H :    0.457095    0.014489
  49 H :    0.178137    0.094342
  50 H :    0.163022    0.095930
  51 H :    0.341221    0.017355
  52 H :    0.251623    0.004022
  53 H :    0.145966   -0.005508
  54 H :    0.161253    0.001791
  55 H :    0.060636    0.000241
  56 H :    0.351598    0.007158
  57 H :    0.181633   -0.007146
Sum of atomic charges         :   -0.0000000

LOEWDIN ATOMIC CHARGES AND SPIN POPULATIONS
-------------------------------------------
   0 Si:    0.601706    0.108619
   1 Si:    0.111929    0.029983
   2 Si:    0.123948    0.030936
   3 Si:    0.129569    0.034520
   4 C :    0.959911   -0.000194
   5 H :   -0.327288   -0.000275
   6 H :   -0.352175    0.000081
   7 H :   -0.345048   -0.000121
   8 C :    0.966092   -0.001248
   9 H :   -0.348749   -0.000200
  10 H :   -0.325012   -0.000432
  11 H :   -0.365333   -0.000176
  12 C :    0.955920    0.008851
  13 H :   -0.351229    0.002101
  14 H :   -0.327906    0.002005
  15 H :   -0.347793    0.001567
  16 C :    0.957463   -0.000149
  17 H :   -0.329466   -0.000275
  18 H :   -0.350903    0.000108
  19 H :   -0.344828    0.000036
  20 C :    0.954191   -0.000769
  21 H :   -0.357979   -0.000006
  22 H :   -0.329356   -0.000348
  23 H :   -0.359433    0.000342
  24 C :    0.956729    0.007837
  25 H :   -0.351764    0.001811
  26 H :   -0.329020    0.001754
  27 H :   -0.347655    0.001540
  28 C :    0.947784    0.000576
  29 H :   -0.329347   -0.000175
  30 H :   -0.351925    0.000241
  31 H :   -0.367544    0.000565
  32 C :    0.953303   -0.000763
  33 H :   -0.349580    0.000017
  34 H :   -0.329915   -0.000327
  35 H :   -0.362745    0.000350
  36 C :    0.954592    0.007235
  37 H :   -0.328936    0.001609
  38 H :   -0.353919    0.001231
  39 H :   -0.342621    0.001843
  40 H :   -0.449440    0.105828
  41 C :   -0.730830    0.372323
  42 C :    0.403785    0.077644
  43 Cl:    1.305214    0.066720
  44 C :    0.408403    0.077918
  45 C :    0.522434    0.003166
  46 C :    0.547343    0.000802
  47 C :    0.525528    0.003133
  48 H :   -0.313921    0.005553
  49 H :   -0.272952    0.019251
  50 H :   -0.274897    0.019448
  51 H :   -0.306638    0.005710
  52 H :   -0.311258    0.000586
  53 H :   -0.244996    0.000201
  54 H :   -0.254665    0.000128
  55 H :   -0.255770    0.000573
  56 H :   -0.318294    0.000495
  57 H :   -0.244710    0.000216

  Mayer bond orders larger than 0.100000
B(  0-Si,  1-Si) :   0.9344 B(  0-Si,  2-Si) :   0.2552 B(  0-Si,  3-Si) :  -0.1008
B(  0-Si, 11-H ) :  -0.1092 B(  0-Si, 20-C ) :  -0.1857 B(  0-Si, 28-C ) :  -0.1476
B(  0-Si, 32-C ) :  -0.1476 B(  0-Si, 36-C ) :   0.1460 B(  0-Si, 40-H ) :  -2.3466
B(  0-Si, 41-C ) :  -0.4851 B(  0-Si, 43-Cl) :  -0.1225 B(  0-Si, 44-C ) :  -0.1557
B(  0-Si, 45-C ) :  -0.1056 B(  0-Si, 56-H ) :  -0.1877 B(  1-Si,  2-Si) :   0.1501
B(  1-Si,  3-Si) :   0.1475 B(  1-Si, 28-C ) :   1.1504 B(  1-Si, 32-C ) :   1.0019
B(  1-Si, 36-C ) :   0.8176 B(  1-Si, 43-Cl) :  -0.1606 B(  2-Si,  3-Si) :   0.2763
B(  2-Si, 16-C ) :   0.9799 B(  2-Si, 20-C ) :   0.8177 B(  2-Si, 24-C ) :   1.0364
B(  2-Si, 40-H ) :   0.2357 B(  3-Si,  4-C ) :   1.0067 B(  3-Si,  7-H ) :  -0.1166
B(  3-Si,  8-C ) :   0.8356 B(  3-Si, 12-C ) :   1.0334 B(  3-Si, 15-H ) :  -0.1362
B(  3-Si, 40-H ) :   0.3124 B(  4-C ,  5-H ) :   1.1027 B(  4-C ,  6-H ) :   0.8572
B(  4-C ,  7-H ) :   0.7811 B(  8-C ,  9-H ) :   0.7704 B(  8-C , 10-H ) :   1.1433
B(  8-C , 11-H ) :   0.8941 B( 12-C , 13-H ) :   0.8238 B( 12-C , 14-H ) :   1.0473
B( 12-C , 15-H ) :   0.9050 B( 16-C , 17-H ) :   1.0882 B( 16-C , 18-H ) :   0.8461
B( 16-C , 19-H ) :   0.8077 B( 20-C , 21-H ) :   0.8569 B( 20-C , 22-H ) :   1.0579
B( 20-C , 23-H ) :   0.8496 B( 20-C , 40-H ) :   0.1834 B( 24-C , 25-H ) :   0.8627
B( 24-C , 26-H ) :   1.0364 B( 24-C , 27-H ) :   0.8935 B( 24-C , 40-H ) :  -0.1603
B( 28-C , 29-H ) :   1.1080 B( 28-C , 30-H ) :   0.8736 B( 28-C , 31-H ) :   0.8111
B( 32-C , 33-H ) :   0.7904 B( 32-C , 34-H ) :   1.1387 B( 32-C , 35-H ) :   0.9095
B( 36-C , 37-H ) :   1.0922 B( 36-C , 38-H ) :   0.8546 B( 36-C , 39-H ) :   0.8439
B( 40-H , 41-C ) :   0.1983 B( 40-H , 42-C ) :  -0.1023 B( 40-H , 43-Cl) :   1.0071
B( 40-H , 44-C ) :  -0.1647 B( 40-H , 45-C ) :   0.1029 B( 40-H , 56-H ) :   0.1213
B( 41-C , 42-C ) :   0.7080 B( 41-C , 43-Cl) :  -0.3073 B( 41-C , 44-C ) :   0.6243
B( 41-C , 49-H ) :  -0.1063 B( 41-C , 50-H ) :  -0.1017 B( 42-C , 43-Cl) :  -0.1899
B( 42-C , 44-C ) :  -0.1609 B( 42-C , 45-C ) :   0.7197 B( 42-C , 46-C ) :  -0.1951
B( 42-C , 48-H ) :   0.8110 B( 42-C , 49-H ) :   1.1145 B( 44-C , 46-C ) :  -0.2215
B( 44-C , 47-C ) :   0.7228 B( 44-C , 50-H ) :   1.1447 B( 44-C , 51-H ) :   0.9051
B( 45-C , 46-C ) :   0.7475 B( 45-C , 52-H ) :   0.9373 B( 45-C , 53-H ) :   1.0560
B( 46-C , 47-C ) :   0.9305 B( 46-C , 54-H ) :   1.0438 B( 46-C , 55-H ) :   1.1960
B( 46-C , 56-H ) :  -0.1902 B( 47-C , 56-H ) :   0.8430 B( 47-C , 57-H ) :   1.0317

MP2 TOTAL ENERGY:    -2209.349418018 Eh
FINAL SINGLE POINT ENERGY     -2209.349418017749

DIPOLE MOMENT
-------------
                                X             Y             Z
Electronic contribution:     -9.56409     -16.26063      -0.71855
Nuclear contribution   :      9.26758      17.01398       0.74269
                        -----------------------------------------
Total Dipole Moment    :     -0.29651       0.75335       0.02414
                        -----------------------------------------
Magnitude (a.u.)       :      0.80996
Magnitude (Debye)      :      2.05876

Rotational constants in cm-1:     0.007477     0.006214     0.005742
Rotational constants in MHz :   224.162952   186.293925   172.138663

                             ****ORCA TERMINATED NORMALLY****
TOTAL RUN TIME: 1 days 11 hours 15 minutes 54 seconds 128 msec
