                         Program Version 4.2.1 -  RELEASE  -
|  1> %pal
|  2>  nprocs 32
|  3> end
|  4> !RI-MP2 aug-cc-pVQZ aug-cc-pVQZ/C TightSCF
|  5> %maxcore 4500
|  6> *xyzfile 0 1  10_62P.xyz
|  7>
|  8>
|  9>                          ****END OF INPUT****

CARTESIAN COORDINATES (ANGSTROEM)
---------------------------------
  C     -0.655287    0.985955    0.668963
  C     -1.616988    0.015328    0.011942
  C     -2.922774    0.241116   -0.041959
  C      2.631143   -0.681655    0.139950
  C      1.319806   -0.459351    0.116854
  C      0.721321    0.897830    0.058159
  C      1.303288    1.935408   -0.536276
  C      0.308818   -1.584764    0.185247
  C     -0.972283   -1.221912   -0.567907
  H     -0.579436    0.724994    1.732354
  H      0.825163    2.907505   -0.558583
  H      2.264118    1.844970   -1.027468
  H     -1.041230    2.004161    0.617762
  H      0.061447   -1.784241    1.234430
  H      0.748810   -2.500873   -0.211725
  H     -1.679536   -2.053034   -0.564319
  H     -0.715406   -1.026142   -1.615289
  H      3.027623   -1.690282    0.157743
  H      3.346891    0.130603    0.158596
  H     -3.602501   -0.478055   -0.484997
  H     -3.358209    1.152661    0.351661

 Total Charge           Charge          ....    0
 Multiplicity           Mult            ....    1
 Number of Electrons    NEL             ....   66
 Basis Dimension        Dim             .... 1272

ORBITAL ENERGIES
----------------

  NO   OCC          E(Eh)            E(eV)
   0   2.0000     -11.240137      -305.8597
   1   2.0000     -11.239306      -305.8371
   2   2.0000     -11.238715      -305.8210
   3   2.0000     -11.230802      -305.6057
   4   2.0000     -11.228860      -305.5528
   5   2.0000     -11.226580      -305.4908
   6   2.0000     -11.218135      -305.2610
   7   2.0000     -11.216538      -305.2175
   8   2.0000     -11.208376      -304.9954
   9   2.0000      -1.149952       -31.2918
  10   2.0000      -1.071332       -29.1524
  11   2.0000      -1.042332       -28.3633
  12   2.0000      -0.973219       -26.4826
  13   2.0000      -0.931754       -25.3543
  14   2.0000      -0.861628       -23.4461
  15   2.0000      -0.810556       -22.0563
  16   2.0000      -0.732435       -19.9306
  17   2.0000      -0.677062       -18.4238
  18   2.0000      -0.654591       -17.8123
  19   2.0000      -0.645311       -17.5598
  20   2.0000      -0.636048       -17.3077
  21   2.0000      -0.586649       -15.9635
  22   2.0000      -0.574963       -15.6455
  23   2.0000      -0.566493       -15.4151
  24   2.0000      -0.550901       -14.9908
  25   2.0000      -0.540678       -14.7126
  26   2.0000      -0.528440       -14.3796
  27   2.0000      -0.479975       -13.0608
  28   2.0000      -0.477119       -12.9831
  29   2.0000      -0.460565       -12.5326
  30   2.0000      -0.406500       -11.0614
  31   2.0000      -0.348358        -9.4793
  32   2.0000      -0.320928        -8.7329
  33   0.0000       0.025681         0.6988
  34   0.0000       0.028443         0.7740
  35   0.0000       0.029605         0.8056
  36   0.0000       0.033365         0.9079
  37   0.0000       0.041534         1.1302

MULLIKEN ATOMIC CHARGES
-----------------------
   0 C :   -0.202265
   1 C :    0.114288
   2 C :   -0.964761
   3 C :   -0.888060
   4 C :    0.144658
   5 C :    0.335557
   6 C :   -0.963382
   7 C :   -0.277876
   8 C :   -0.339549
   9 H :    0.265195
  10 H :    0.281067
  11 H :    0.279548
  12 H :    0.224285
  13 H :    0.186025
  14 H :    0.275217
  15 H :    0.255662
  16 H :    0.241111
  17 H :    0.224357
  18 H :    0.315812
  19 H :    0.252301
  20 H :    0.240810
Sum of atomic charges:    0.0000000

LOEWDIN ATOMIC CHARGES
----------------------
   0 C :    0.461905
   1 C :   -0.029953
   2 C :    0.815391
   3 C :    0.807241
   4 C :   -0.069975
   5 C :   -0.078747
   6 C :    0.813577
   7 C :    0.490578
   8 C :    0.500324
   9 H :   -0.262238
  10 H :   -0.335343
  11 H :   -0.348933
  12 H :   -0.307855
  13 H :   -0.259213
  14 H :   -0.279841
  15 H :   -0.277231
  16 H :   -0.259151
  17 H :   -0.336909
  18 H :   -0.352201
  19 H :   -0.345964
  20 H :   -0.345463

  Mayer bond orders larger than 0.100000
B(  0-C ,  1-C ) :   0.7660 B(  0-C ,  2-C ) :  -0.1570 B(  0-C ,  5-C ) :   0.8422
B(  0-C ,  9-H ) :   0.8745 B(  0-C , 12-H ) :   1.0426 B(  1-C ,  2-C ) :   1.4479
B(  1-C ,  5-C ) :  -0.2532 B(  1-C ,  8-C ) :   0.6846 B(  1-C , 19-H ) :  -0.1523
B(  1-C , 20-H ) :  -0.1243 B(  2-C ,  8-C ) :  -0.1874 B(  2-C , 19-H ) :   1.1060
B(  2-C , 20-H ) :   1.1199 B(  3-C ,  4-C ) :   1.5320 B(  3-C ,  5-C ) :  -0.3656
B(  3-C ,  7-C ) :  -0.1005 B(  3-C , 17-H ) :   1.1400 B(  3-C , 18-H ) :   1.0253
B(  4-C ,  5-C ) :   0.5227 B(  4-C ,  6-C ) :  -0.1811 B(  4-C ,  7-C ) :   0.5648
B(  4-C , 17-H ) :  -0.1417 B(  4-C , 18-H ) :  -0.1184 B(  5-C ,  6-C ) :   1.5671
B(  5-C , 11-H ) :  -0.1177 B(  6-C , 10-H ) :   1.0306 B(  6-C , 11-H ) :   1.0657
B(  7-C ,  8-C ) :   1.1799 B(  7-C , 13-H ) :   0.9345 B(  7-C , 14-H ) :   1.0095
B(  8-C , 15-H ) :   0.9865 B(  8-C , 16-H ) :   0.8874

MP2 TOTAL ENERGY:     -349.454457012 Eh
FINAL SINGLE POINT ENERGY      -349.454457011876

DIPOLE MOMENT
-------------
                                X             Y             Z
Electronic contribution:      0.73146       0.63461       0.26016
Nuclear contribution   :     -0.72422      -0.79174      -0.21640
                        -----------------------------------------
Total Dipole Moment    :      0.00724      -0.15713       0.04376
                        -----------------------------------------
Magnitude (a.u.)       :      0.16327
Magnitude (Debye)      :      0.41499

Rotational constants in cm-1:     0.092428     0.046582     0.033873
Rotational constants in MHz :  2770.921625  1396.496198  1015.501121

                             ****ORCA TERMINATED NORMALLY****
TOTAL RUN TIME: 0 days 0 hours 53 minutes 41 seconds 330 msec
