                         Program Version 4.2.1 -  RELEASE  -
|  1> %pal
|  2>  nprocs 32
|  3> end
|  4> !RI-MP2 aug-cc-pVQZ aug-cc-pVQZ/C TightSCF
|  5> %maxcore 4500
|  6> *xyzfile 0 1  07_5P.xyz
|  7>
|  8>
|  9>                          ****END OF INPUT****

CARTESIAN COORDINATES (ANGSTROEM)
---------------------------------
  C     -2.353986   -1.255084   -0.000088
  C     -3.701673   -0.925444   -0.000035
  C     -4.089333    0.405805    0.000079
  C     -3.119335    1.402386    0.000139
  C     -1.775814    1.070685    0.000087
  C     -1.369494   -0.266343   -0.000027
  H     -2.054622   -2.297295   -0.000178
  H     -4.448693   -1.710027   -0.000083
  H     -5.140136    0.668739    0.000120
  H     -3.414914    2.444763    0.000226
  H     -1.035030    1.860310    0.000131
  C      0.043302   -0.676000   -0.000085
  C      1.116289    0.114501    0.000008
  H      1.001463    1.197822    0.000147
  P      2.811427   -0.555931   -0.000085
  C      3.517015    0.420719    1.404966
  H      3.313816    1.490610    1.310150
  H      3.094741    0.063661    2.345012
  H      4.597887    0.271477    1.443221
  C      3.516995    0.421063   -1.404907
  H      3.094706    0.064237   -2.345035
  H      3.313801    1.490931   -1.309825
  H      4.597866    0.271828   -1.443217
  H      0.203910   -1.751814   -0.000217

 Total Charge           Charge          ....    0
 Multiplicity           Mult            ....    1
 Number of Electrons    NEL             ....   88
 Basis Dimension        Dim             .... 1482

ORBITAL ENERGIES
----------------

  NO   OCC          E(Eh)            E(eV)
   0   2.0000     -79.930045     -2175.0071
   1   2.0000     -11.245316      -306.0006
   2   2.0000     -11.244367      -305.9748
   3   2.0000     -11.237611      -305.7909
   4   2.0000     -11.237141      -305.7782
   5   2.0000     -11.236503      -305.7608
   6   2.0000     -11.235825      -305.7424
   7   2.0000     -11.235349      -305.7294
   8   2.0000     -11.225464      -305.4604
   9   2.0000     -11.216759      -305.2235
  10   2.0000     -11.216750      -305.2233
  11   2.0000      -7.470605      -203.2855
  12   2.0000      -5.364781      -145.9831
  13   2.0000      -5.364643      -145.9793
  14   2.0000      -5.363725      -145.9544
  15   2.0000      -1.164961       -31.7002
  16   2.0000      -1.079836       -29.3838
  17   2.0000      -1.021790       -27.8043
  18   2.0000      -1.016369       -27.6568
  19   2.0000      -0.977291       -26.5934
  20   2.0000      -0.932103       -25.3638
  21   2.0000      -0.855312       -23.2742
  22   2.0000      -0.831217       -22.6186
  23   2.0000      -0.777196       -21.1486
  24   2.0000      -0.715516       -19.4702
  25   2.0000      -0.705536       -19.1986
  26   2.0000      -0.646777       -17.5997
  27   2.0000      -0.633994       -17.2518
  28   2.0000      -0.605304       -16.4712
  29   2.0000      -0.592072       -16.1111
  30   2.0000      -0.585850       -15.9418
  31   2.0000      -0.578667       -15.7463
  32   2.0000      -0.555104       -15.1051
  33   2.0000      -0.549036       -14.9400
  34   2.0000      -0.541540       -14.7360
  35   2.0000      -0.519266       -14.1299
  36   2.0000      -0.513782       -13.9807
  37   2.0000      -0.492603       -13.4044
  38   2.0000      -0.467380       -12.7181
  39   2.0000      -0.454761       -12.3747
  40   2.0000      -0.408361       -11.1121
  41   2.0000      -0.342971        -9.3327
  42   2.0000      -0.334302        -9.0968
  43   2.0000      -0.309119        -8.4116
  44   0.0000       0.022601         0.6150
  45   0.0000       0.026062         0.7092
  46   0.0000       0.029446         0.8013
  47   0.0000       0.034707         0.9444
  48   0.0000       0.035968         0.9787

MULLIKEN ATOMIC CHARGES
-----------------------
   0 C :   -0.555120
   1 C :   -0.263704
   2 C :   -0.404775
   3 C :   -0.272681
   4 C :   -0.411687
   5 C :    0.666141
   6 H :    0.241241
   7 H :    0.272092
   8 H :    0.334292
   9 H :    0.238209
  10 H :    0.194381
  11 C :   -0.160625
  12 C :   -0.653086
  13 H :    0.345242
  14 P :    0.664435
  15 C :   -1.258162
  16 H :    0.293715
  17 H :    0.352188
  18 H :    0.353254
  19 C :   -1.258181
  20 H :    0.352155
  21 H :    0.293710
  22 H :    0.353299
  23 H :    0.283671
Sum of atomic charges:   -0.0000000

LOEWDIN ATOMIC CHARGES
----------------------
   0 C :    0.330559
   1 C :    0.345390
   2 C :    0.337888
   3 C :    0.348793
   4 C :    0.332975
   5 C :   -0.097203
   6 H :   -0.321700
   7 H :   -0.320151
   8 H :   -0.321375
   9 H :   -0.319544
  10 H :   -0.339967
  11 C :    0.273013
  12 C :    0.205077
  13 H :   -0.405066
  14 P :    0.927185
  15 C :    0.771476
  16 H :   -0.351536
  17 H :   -0.359154
  18 H :   -0.359445
  19 C :    0.771476
  20 H :   -0.359153
  21 H :   -0.351536
  22 H :   -0.359445
  23 H :   -0.378556

  Mayer bond orders larger than 0.100000
B(  0-C ,  1-C ) :   1.2388 B(  0-C ,  2-C ) :   0.1503 B(  0-C ,  3-C ) :   0.1229
B(  0-C ,  4-C ) :   0.1499 B(  0-C ,  5-C ) :   0.8845 B(  0-C ,  6-H ) :   1.0379
B(  0-C ,  7-H ) :  -0.1592 B(  0-C , 11-C ) :  -0.3789 B(  1-C ,  2-C ) :   1.1547
B(  1-C ,  4-C ) :   0.1266 B(  1-C ,  5-C ) :  -0.4087 B(  1-C ,  7-H ) :   1.1225
B(  2-C ,  3-C ) :   1.1735 B(  2-C ,  7-H ) :  -0.1093 B(  2-C ,  8-H ) :   0.9886
B(  3-C ,  4-C ) :   1.1708 B(  3-C ,  5-C ) :  -0.3719 B(  3-C ,  9-H ) :   1.1325
B(  4-C ,  5-C ) :   1.2370 B(  4-C ,  9-H ) :  -0.1434 B(  4-C , 10-H ) :   1.0481
B(  4-C , 11-C ) :  -0.2487 B(  4-C , 12-C ) :  -0.2394 B(  5-C ,  6-H ) :  -0.1242
B(  5-C , 11-C ) :   0.8007 B(  5-C , 12-C ) :  -0.5195 B(  5-C , 23-H ) :  -0.1534
B( 11-C , 12-C ) :   0.7697 B( 11-C , 14-P ) :  -0.2250 B( 11-C , 23-H ) :   0.9896
B( 12-C , 13-H ) :   0.9360 B( 12-C , 14-P ) :   0.6006 B( 14-P , 15-C ) :   0.8975
B( 14-P , 19-C ) :   0.8976 B( 15-C , 16-H ) :   0.8991 B( 15-C , 17-H ) :   0.8813
B( 15-C , 18-H ) :   0.8980 B( 19-C , 20-H ) :   0.8813 B( 19-C , 21-H ) :   0.8991
B( 19-C , 22-H ) :   0.8980

MP2 TOTAL ENERGY:     -729.052383341 Eh
FINAL SINGLE POINT ENERGY      -729.052383340502

DIPOLE MOMENT
-------------
                                X             Y             Z
Electronic contribution:     -4.70482      -4.12644      -0.00047
Nuclear contribution   :      4.47659       4.62499       0.00054
                        -----------------------------------------
Total Dipole Moment    :     -0.22823       0.49854       0.00006
                        -----------------------------------------
Magnitude (a.u.)       :      0.54830
Magnitude (Debye)      :      1.39368

Rotational constants in cm-1:     0.092530     0.012205     0.011780
Rotational constants in MHz :  2773.969766   365.898375   353.148777

                             ****ORCA TERMINATED NORMALLY****
TOTAL RUN TIME: 0 days 1 hours 23 minutes 58 seconds 371 msec
