                         Program Version 4.2.1 -  RELEASE  -
|  1> %pal
|  2>  nprocs 32
|  3> end
|  4> !RI-MP2 aug-cc-pVQZ aug-cc-pVQZ/C TightSCF
|  5> %maxcore 4500
|  6> *xyzfile 0 1  10_3R1.xyz
|  7>
|  8>
|  9>                          ****END OF INPUT****

CARTESIAN COORDINATES (ANGSTROEM)
---------------------------------
  C     -3.470088   -0.520534    0.000021
  N     -2.117811    0.060095    0.000012
  C     -1.075541   -0.722589   -0.000024
  O     -2.093080    1.330404    0.000052
  C      0.313833   -0.310102   -0.000017
  H     -3.981742   -0.151853   -0.886945
  H     -3.429058   -1.607399   -0.000143
  H     -3.981626   -0.152119    0.887166
  C      1.275473   -1.331602   -0.000060
  C      2.625543   -1.037769   -0.000055
  C      3.046237    0.287769   -0.000007
  C      2.105292    1.306512    0.000035
  C      0.746949    1.022213    0.000031
  H      0.951830   -2.366795   -0.000097
  H      3.352732   -1.840598   -0.000088
  H      4.103923    0.522093   -0.000004
  H      2.428929    2.340428    0.000071
  H      0.010203    1.810016    0.000063
  H     -1.292065   -1.781050   -0.000064

 Total Charge           Charge          ....    0
 Multiplicity           Mult            ....    1
 Number of Electrons    NEL             ....   72
 Basis Dimension        Dim             .... 1214

ORBITAL ENERGIES
----------------

  NO   OCC          E(Eh)            E(eV)
   0   2.0000     -20.506433      -558.0084
   1   2.0000     -15.713731      -427.5923
   2   2.0000     -11.291387      -307.2542
   3   2.0000     -11.277715      -306.8822
   4   2.0000     -11.252532      -306.1970
   5   2.0000     -11.245811      -306.0141
   6   2.0000     -11.241338      -305.8924
   7   2.0000     -11.237808      -305.7963
   8   2.0000     -11.233974      -305.6920
   9   2.0000     -11.232471      -305.6511
  10   2.0000      -1.443073       -39.2680
  11   2.0000      -1.176031       -32.0014
  12   2.0000      -1.148998       -31.2658
  13   2.0000      -1.053816       -28.6758
  14   2.0000      -1.022700       -27.8291
  15   2.0000      -0.985946       -26.8290
  16   2.0000      -0.863802       -23.5053
  17   2.0000      -0.834019       -22.6948
  18   2.0000      -0.781080       -21.2543
  19   2.0000      -0.710532       -19.3346
  20   2.0000      -0.707291       -19.2464
  21   2.0000      -0.673147       -18.3173
  22   2.0000      -0.664317       -18.0770
  23   2.0000      -0.625926       -17.0323
  24   2.0000      -0.615250       -16.7418
  25   2.0000      -0.592783       -16.1304
  26   2.0000      -0.581102       -15.8126
  27   2.0000      -0.569379       -15.4936
  28   2.0000      -0.547485       -14.8978
  29   2.0000      -0.511504       -13.9187
  30   2.0000      -0.509569       -13.8661
  31   2.0000      -0.498498       -13.5648
  32   2.0000      -0.412363       -11.2210
  33   2.0000      -0.390009       -10.6127
  34   2.0000      -0.342710        -9.3256
  35   2.0000      -0.302636        -8.2351
  36   0.0000       0.018841         0.5127
  37   0.0000       0.025782         0.7016
  38   0.0000       0.031112         0.8466
  39   0.0000       0.039300         1.0694
  40   0.0000       0.041576         1.1313

MULLIKEN ATOMIC CHARGES
-----------------------
   0 C :   -0.851973
   1 N :    0.047860
   2 C :    0.380067
   3 O :   -0.875795
   4 C :   -0.007489
   5 H :    0.334104
   6 H :    0.318900
   7 H :    0.334107
   8 C :   -0.330627
   9 C :   -0.265404
  10 C :   -0.372430
  11 C :   -0.416543
  12 C :   -0.166204
  13 H :    0.226134
  14 H :    0.246140
  15 H :    0.325801
  16 H :    0.252894
  17 H :    0.429863
  18 H :    0.390596
Sum of atomic charges:   -0.0000000

LOEWDIN ATOMIC CHARGES
----------------------
   0 C :    0.773788
   1 N :   -0.194276
   2 C :    0.196852
   3 O :    0.550500
   4 C :   -0.082725
   5 H :   -0.287856
   6 H :   -0.311857
   7 H :   -0.287844
   8 C :    0.325250
   9 C :    0.345069
  10 C :    0.340850
  11 C :    0.355456
  12 C :    0.344945
  13 H :   -0.321808
  14 H :   -0.321630
  15 H :   -0.318466
  16 H :   -0.319750
  17 H :   -0.426915
  18 H :   -0.359583

  Mayer bond orders larger than 0.100000
B(  0-C ,  1-N ) :   0.8107 B(  0-C ,  2-C ) :  -0.1478 B(  0-C ,  5-H ) :   0.9311
B(  0-C ,  6-H ) :   0.8955 B(  0-C ,  7-H ) :   0.9311 B(  1-N ,  2-C ) :   1.4694
B(  1-N ,  3-O ) :   0.8072 B(  2-C ,  4-C ) :   0.6245 B(  2-C ,  8-C ) :  -0.5658
B(  2-C , 12-C ) :  -0.4701 B(  2-C , 17-H ) :   0.1420 B(  2-C , 18-H ) :   0.9486
B(  3-O ,  4-C ) :   0.1283 B(  3-O , 12-C ) :  -0.1094 B(  3-O , 17-H ) :   0.1064
B(  4-C ,  8-C ) :   1.0235 B(  4-C ,  9-C ) :  -0.4266 B(  4-C , 11-C ) :  -0.3031
B(  4-C , 12-C ) :   1.3011 B(  4-C , 13-H ) :  -0.1103 B(  4-C , 17-H ) :  -0.1480
B(  4-C , 18-H ) :  -0.2408 B(  8-C ,  9-C ) :   1.2193 B(  8-C , 10-C ) :   0.1006
B(  8-C , 11-C ) :   0.1400 B(  8-C , 12-C ) :   0.1062 B(  8-C , 13-H ) :   1.0442
B(  8-C , 14-H ) :  -0.1555 B(  9-C , 10-C ) :   1.1692 B(  9-C , 14-H ) :   1.1406
B( 10-C , 11-C ) :   1.2057 B( 10-C , 14-H ) :  -0.1033 B( 10-C , 15-H ) :   0.9999
B( 11-C , 12-C ) :   1.2105 B( 11-C , 16-H ) :   1.1119 B( 12-C , 16-H ) :  -0.1161
B( 12-C , 17-H ) :   0.7107

MP2 TOTAL ENERGY:     -439.446737681 Eh
FINAL SINGLE POINT ENERGY      -439.446737681121

DIPOLE MOMENT
-------------
                                X             Y             Z
Electronic contribution:      1.96962       1.66412      -0.00000
Nuclear contribution   :     -1.88307      -3.20726      -0.00004
                        -----------------------------------------
Total Dipole Moment    :      0.08655      -1.54314      -0.00004
                        -----------------------------------------
Magnitude (a.u.)       :      1.54557
Magnitude (Debye)      :      3.92852

Rotational constants in cm-1:     0.127023     0.025986     0.021661
Rotational constants in MHz :  3808.065976   779.046980   649.374950

                             ****ORCA TERMINATED NORMALLY****
TOTAL RUN TIME: 0 days 0 hours 53 minutes 42 seconds 309 msec
