                         Program Version 4.2.1 -  RELEASE  -
|  1> %pal
|  2>  nprocs 32
|  3> end
|  4> !RI-MP2 aug-cc-pVQZ aug-cc-pVQZ/C TightSCF
|  5> %maxcore 4500
|  6> *xyzfile 0 1  03_27R1.xyz
|  7>
|  8>
|  9>                          ****END OF INPUT****

CARTESIAN COORDINATES (ANGSTROEM)
---------------------------------
  C     -2.042212    0.045657    0.158994
  C     -1.023984   -0.798111   -0.617298
  C      0.344562   -0.159519   -0.697458
  O      0.558867    0.901098   -1.226112
  C      3.050104   -0.027330   -0.192447
  C      3.136682    1.103596    0.819286
  C     -1.588318    0.341115    1.574398
  C     -2.483719    1.284910   -0.588597
  H     -0.960034   -1.777717   -0.141763
  H      2.968477    0.357583   -1.208323
  H      3.922177   -0.679920   -0.141620
  H      2.264661    1.753496    0.745723
  H      4.025039    1.709748    0.625785
  H      3.201409    0.719684    1.838606
  H     -1.311566   -0.578671    2.091522
  H     -2.396219    0.823205    2.125657
  H     -0.725798    1.010093    1.569767
  H     -2.908345    1.007900   -1.554537
  H     -1.635542    1.946128   -0.763952
  H     -3.243475    1.814064   -0.011565
  H     -1.384670   -0.938202   -1.639035
  S      1.623329   -1.124232    0.070980
  F     -3.179890   -0.792263    0.266188

 Total Charge           Charge          ....    0
 Multiplicity           Mult            ....    1
 Number of Electrons    NEL             ....   88
 Basis Dimension        Dim             .... 1402

ORBITAL ENERGIES
----------------

  NO   OCC          E(Eh)            E(eV)
   0   2.0000     -91.970794     -2502.6525
   1   2.0000     -26.266592      -714.7503
   2   2.0000     -20.560124      -559.4694
   3   2.0000     -11.367701      -309.3309
   4   2.0000     -11.326974      -308.2226
   5   2.0000     -11.266868      -306.5871
   6   2.0000     -11.250257      -306.1351
   7   2.0000     -11.226818      -305.4972
   8   2.0000     -11.225585      -305.4637
   9   2.0000     -11.217486      -305.2433
  10   2.0000      -8.974112      -244.1980
  11   2.0000      -6.655512      -181.1057
  12   2.0000      -6.654433      -181.0763
  13   2.0000      -6.653928      -181.0626
  14   2.0000      -1.577690       -42.9311
  15   2.0000      -1.413435       -38.4615
  16   2.0000      -1.111783       -30.2531
  17   2.0000      -1.086397       -29.5624
  18   2.0000      -1.014182       -27.5973
  19   2.0000      -0.960500       -26.1365
  20   2.0000      -0.954103       -25.9625
  21   2.0000      -0.853030       -23.2121
  22   2.0000      -0.802237       -21.8300
  23   2.0000      -0.737913       -20.0796
  24   2.0000      -0.685599       -18.6561
  25   2.0000      -0.681385       -18.5414
  26   2.0000      -0.679548       -18.4914
  27   2.0000      -0.659005       -17.9325
  28   2.0000      -0.631019       -17.1709
  29   2.0000      -0.612304       -16.6617
  30   2.0000      -0.603791       -16.4300
  31   2.0000      -0.589248       -16.0342
  32   2.0000      -0.572471       -15.5777
  33   2.0000      -0.559181       -15.2161
  34   2.0000      -0.550812       -14.9884
  35   2.0000      -0.541259       -14.7284
  36   2.0000      -0.539720       -14.6865
  37   2.0000      -0.528206       -14.3732
  38   2.0000      -0.511885       -13.9291
  39   2.0000      -0.488438       -13.2911
  40   2.0000      -0.481552       -13.1037
  41   2.0000      -0.459824       -12.5124
  42   2.0000      -0.413121       -11.2416
  43   2.0000      -0.376258       -10.2385
  44   0.0000       0.024161         0.6575
  45   0.0000       0.029630         0.8063
  46   0.0000       0.031632         0.8607
  47   0.0000       0.033339         0.9072
  48   0.0000       0.041361         1.1255

MULLIKEN ATOMIC CHARGES
-----------------------
   0 C :    1.327811
   1 C :   -0.537992
   2 C :    0.635921
   3 O :   -0.939693
   4 C :   -0.534341
   5 C :   -0.931136
   6 C :   -0.958080
   7 C :   -0.980213
   8 H :    0.276755
   9 H :    0.321459
  10 H :    0.341174
  11 H :    0.305619
  12 H :    0.337680
  13 H :    0.218954
  14 H :    0.249756
  15 H :    0.308625
  16 H :    0.298071
  17 H :    0.253965
  18 H :    0.238245
  19 H :    0.295102
  20 H :    0.349699
  21 S :   -0.002703
  22 F :   -0.874680
Sum of atomic charges:   -0.0000000

LOEWDIN ATOMIC CHARGES
----------------------
   0 C :   -0.849192
   1 C :    0.335104
   2 C :   -1.077189
   3 O :    0.704268
   4 C :    0.140702
   5 C :    0.843175
   6 C :    0.877456
   7 C :    0.884643
   8 H :   -0.353030
   9 H :   -0.390518
  10 H :   -0.370142
  11 H :   -0.316919
  12 H :   -0.283850
  13 H :   -0.301106
  14 H :   -0.279007
  15 H :   -0.279138
  16 H :   -0.286601
  17 H :   -0.279338
  18 H :   -0.317835
  19 H :   -0.280101
  20 H :   -0.292558
  21 S :    1.373594
  22 F :    0.797582

  Mayer bond orders larger than 0.100000
B(  0-C ,  1-C ) :   0.9461 B(  0-C ,  6-C ) :   0.7816 B(  0-C ,  7-C ) :   0.7116
B(  0-C , 22-F ) :  -0.2943 B(  1-C ,  2-C ) :   0.6908 B(  1-C ,  8-H ) :   0.9574
B(  1-C , 20-H ) :   0.8555 B(  1-C , 21-S ) :  -0.1603 B(  1-C , 22-F ) :   0.2128
B(  2-C ,  3-O ) :   1.1079 B(  2-C , 21-S ) :   1.0308 B(  4-C ,  5-C ) :   0.9902
B(  4-C ,  9-H ) :   0.8400 B(  4-C , 10-H ) :   0.8540 B(  4-C , 21-S ) :   1.0257
B(  5-C , 11-H ) :   0.8976 B(  5-C , 12-H ) :   0.8775 B(  5-C , 13-H ) :   0.9634
B(  6-C , 14-H ) :   0.9737 B(  6-C , 15-H ) :   0.9560 B(  6-C , 16-H ) :   0.9058
B(  6-C , 22-F ) :   0.1282 B(  7-C , 17-H ) :   0.9857 B(  7-C , 18-H ) :   0.9678
B(  7-C , 19-H ) :   0.9574 B(  7-C , 22-F ) :   0.1429

MP2 TOTAL ENERGY:     -846.717088720 Eh
FINAL SINGLE POINT ENERGY      -846.717088720050

DIPOLE MOMENT
-------------
                                X             Y             Z
Electronic contribution:     -4.16815      -7.91422      -2.99677
Nuclear contribution   :      4.94616       8.04900       3.27230
                        -----------------------------------------
Total Dipole Moment    :      0.77801       0.13477       0.27553
                        -----------------------------------------
Magnitude (a.u.)       :      0.83629
Magnitude (Debye)      :      2.12567

Rotational constants in cm-1:     0.072663     0.019380     0.018733
Rotational constants in MHz :  2178.387430   580.998312   561.587679

                             ****ORCA TERMINATED NORMALLY****
TOTAL RUN TIME: 0 days 1 hours 9 minutes 11 seconds 66 msec
