                         Program Version 4.2.1 -  RELEASE  -
|  1> %pal
|  2>  nprocs 32
|  3> end
|  4> !RI-MP2 aug-cc-pVQZ aug-cc-pVQZ/C TightSCF
|  5> %maxcore 4500
|  6> *xyzfile 0 2  06_15P.xyz
|  7>
|  8>
|  9>                          ****END OF INPUT****

CARTESIAN COORDINATES (ANGSTROEM)
---------------------------------
  Si     1.444292   -0.002664    0.049038
  C      1.563014   -1.428156   -1.177528
  C      2.251247   -2.684392   -0.634156
  C      0.553579    1.438578   -0.779833
  C      0.490299    2.724122    0.051159
  C      3.169690    0.535681    0.594089
  C      4.065672    1.035093   -0.544500
  C      0.474312   -0.576709    1.585594
  C     -0.874172   -1.080415    1.235355
  C     -2.074053   -0.198758    1.184682
  C     -3.020487   -0.509214    0.024277
  C     -5.187683    0.073445   -1.169138
  C     -4.253325    0.386936   -0.006301
  H      0.548424   -1.673130   -1.508570
  H      2.088224   -1.072770   -2.070718
  H      1.721699   -3.087181    0.233048
  H      2.296073   -3.478196   -1.383607
  H      3.277387   -2.476349   -0.319978
  H     -0.457674    1.110854   -1.041998
  H      1.051104    1.641238   -1.734628
  H     -0.049879    3.517595   -0.470862
  H     -0.015230    2.562995    1.006762
  H      1.489817    3.104780    0.275769
  H      3.650595   -0.305904    1.104184
  H      3.064889    1.316313    1.355311
  H      4.221558    0.260966   -1.300243
  H      3.626299    1.898186   -1.051452
  H      5.051078    1.338315   -0.182505
  H     -2.643966   -0.277321    2.125337
  H     -1.760076    0.849643    1.126498
  H     -2.474863   -0.411426   -0.921107
  H     -3.332968   -1.558021    0.086301
  H     -5.545260   -0.958496   -1.118572
  H     -6.061656    0.728310   -1.170307
  H     -4.677252    0.198320   -2.127915
  H     -3.935046    1.433747   -0.063147
  H     -4.796118    0.285428    0.939736
  H     -0.996974   -2.129367    0.985349
  H      1.076144   -1.348196    2.078052
  H      0.415014    0.269693    2.280538

 Total Charge           Charge          ....    0
 Multiplicity           Mult            ....    2
 Number of Electrons    NEL             ....  113
 Basis Dimension        Dim             .... 2286

ORBITAL ENERGIES
----------------
                 SPIN UP ORBITALS
  NO   OCC          E(Eh)            E(eV)
   0   1.0000     -68.734264     -1870.3544
   1   1.0000     -11.216679      -305.2214
   2   1.0000     -11.213826      -305.1437
   3   1.0000     -11.213731      -305.1411
   4   1.0000     -11.213389      -305.1318
   5   1.0000     -11.213271      -305.1286
   6   1.0000     -11.212718      -305.1136
   7   1.0000     -11.212665      -305.1121
   8   1.0000     -11.208217      -304.9911
   9   1.0000     -11.196529      -304.6730
  10   1.0000     -11.196148      -304.6627
  11   1.0000     -11.195894      -304.6558
  12   1.0000     -11.194912      -304.6290
  13   1.0000      -6.084676      -165.5724
  14   1.0000      -4.191555      -114.0580
  15   1.0000      -4.190511      -114.0296
  16   1.0000      -4.190470      -114.0285
  17   1.0000      -1.090157       -29.6647
  18   1.0000      -1.042899       -28.3787
  19   1.0000      -1.024644       -27.8820
  20   1.0000      -1.008331       -27.4381
  21   1.0000      -1.003988       -27.3199
  22   1.0000      -0.962335       -26.1865
  23   1.0000      -0.876366       -23.8471
  24   1.0000      -0.850380       -23.1400
  25   1.0000      -0.833275       -22.6746
  26   1.0000      -0.821772       -22.3616
  27   1.0000      -0.792822       -21.5738
  28   1.0000      -0.775225       -21.0950
  29   1.0000      -0.648779       -17.6542
  30   1.0000      -0.640124       -17.4186
  31   1.0000      -0.614455       -16.7202
  32   1.0000      -0.611404       -16.6372
  33   1.0000      -0.609853       -16.5950
  34   1.0000      -0.588440       -16.0123
  35   1.0000      -0.582651       -15.8547
  36   1.0000      -0.575235       -15.6529
  37   1.0000      -0.567608       -15.4454
  38   1.0000      -0.565351       -15.3840
  39   1.0000      -0.543522       -14.7900
  40   1.0000      -0.541156       -14.7256
  41   1.0000      -0.527516       -14.3544
  42   1.0000      -0.519393       -14.1334
  43   1.0000      -0.505570       -13.7572
  44   1.0000      -0.503502       -13.7010
  45   1.0000      -0.497022       -13.5246
  46   1.0000      -0.493591       -13.4313
  47   1.0000      -0.488724       -13.2989
  48   1.0000      -0.486302       -13.2329
  49   1.0000      -0.477345       -12.9892
  50   1.0000      -0.470329       -12.7983
  51   1.0000      -0.462983       -12.5984
  52   1.0000      -0.457362       -12.4454
  53   1.0000      -0.431401       -11.7390
  54   1.0000      -0.397501       -10.8165
  55   1.0000      -0.396967       -10.8020
  56   1.0000      -0.292557        -7.9609
  57   0.0000       0.020892         0.5685
  58   0.0000       0.026038         0.7085
  59   0.0000       0.026929         0.7328
  60   0.0000       0.028184         0.7669
  61   0.0000       0.035493         0.9658

                 SPIN DOWN ORBITALS
  NO   OCC          E(Eh)            E(eV)
   0   1.0000     -68.733560     -1870.3352
   1   1.0000     -11.216545      -305.2177
   2   1.0000     -11.213715      -305.1407
   3   1.0000     -11.213696      -305.1402
   4   1.0000     -11.213225      -305.1274
   5   1.0000     -11.212657      -305.1119
   6   1.0000     -11.211867      -305.0904
   7   1.0000     -11.208225      -304.9913
   8   1.0000     -11.199225      -304.7464
   9   1.0000     -11.196204      -304.6642
  10   1.0000     -11.195594      -304.6476
  11   1.0000     -11.194938      -304.6298
  12   1.0000     -11.192666      -304.5679
  13   1.0000      -6.083527      -165.5412
  14   1.0000      -4.190120      -114.0190
  15   1.0000      -4.189934      -114.0139
  16   1.0000      -4.189159      -113.9928
  17   1.0000      -1.078305       -29.3422
  18   1.0000      -1.031937       -28.0804
  19   1.0000      -1.013058       -27.5667
  20   1.0000      -1.008268       -27.4364
  21   1.0000      -1.003378       -27.3033
  22   1.0000      -0.956885       -26.0382
  23   1.0000      -0.870242       -23.6805
  24   1.0000      -0.850147       -23.1337
  25   1.0000      -0.832555       -22.6550
  26   1.0000      -0.821732       -22.3605
  27   1.0000      -0.789687       -21.4885
  28   1.0000      -0.735934       -20.0258
  29   1.0000      -0.643441       -17.5089
  30   1.0000      -0.634046       -17.2533
  31   1.0000      -0.612135       -16.6571
  32   1.0000      -0.609110       -16.5747
  33   1.0000      -0.606861       -16.5135
  34   1.0000      -0.586148       -15.9499
  35   1.0000      -0.576411       -15.6849
  36   1.0000      -0.570886       -15.5346
  37   1.0000      -0.565811       -15.3965
  38   1.0000      -0.563939       -15.3456
  39   1.0000      -0.538277       -14.6473
  40   1.0000      -0.535571       -14.5736
  41   1.0000      -0.524552       -14.2738
  42   1.0000      -0.516356       -14.0508
  43   1.0000      -0.503718       -13.7069
  44   1.0000      -0.497314       -13.5326
  45   1.0000      -0.494769       -13.4633
  46   1.0000      -0.492816       -13.4102
  47   1.0000      -0.488357       -13.2889
  48   1.0000      -0.482206       -13.1215
  49   1.0000      -0.476766       -12.9735
  50   1.0000      -0.466096       -12.6831
  51   1.0000      -0.460649       -12.5349
  52   1.0000      -0.450765       -12.2659
  53   1.0000      -0.409492       -11.1428
  54   1.0000      -0.397360       -10.8127
  55   1.0000      -0.395279       -10.7561
  56   0.0000       0.020910         0.5690
  57   0.0000       0.026043         0.7087
  58   0.0000       0.026962         0.7337
  59   0.0000       0.028261         0.7690
  60   0.0000       0.035511         0.9663

MULLIKEN ATOMIC CHARGES AND SPIN POPULATIONS
--------------------------------------------
   0 Si:    1.590140    0.076989
   1 C :   -0.631596   -0.019396
   2 C :   -0.954053    0.000321
   3 C :   -0.598654   -0.008156
   4 C :   -1.076265    0.000359
   5 C :   -0.618460    0.012700
   6 C :   -0.944642   -0.000999
   7 C :   -0.515094   -0.202426
   8 C :   -0.379949    1.324641
   9 C :   -0.391396   -0.239821
  10 C :   -0.301602    0.048768
  11 C :   -0.911116    0.000480
  12 C :   -0.491541   -0.004356
  13 H :    0.236993   -0.000056
  14 H :    0.217545   -0.002638
  15 H :    0.194429    0.000214
  16 H :    0.331273    0.000171
  17 H :    0.206035   -0.000053
  18 H :    0.326892    0.002218
  19 H :    0.107010   -0.001713
  20 H :    0.294474   -0.000279
  21 H :    0.210533    0.001210
  22 H :    0.274869   -0.000198
  23 H :    0.217445   -0.001546
  24 H :    0.190906   -0.001438
  25 H :    0.197348   -0.000578
  26 H :    0.189542   -0.000720
  27 H :    0.336913    0.001604
  28 H :    0.372661    0.094937
  29 H :    0.128871    0.018832
  30 H :    0.235181    0.005226
  31 H :    0.278055    0.003322
  32 H :    0.233012    0.000058
  33 H :    0.274281    0.000499
  34 H :    0.218115    0.000190
  35 H :    0.240585   -0.000442
  36 H :    0.205869   -0.001515
  37 H :    0.128969   -0.175395
  38 H :    0.186881    0.030455
  39 H :    0.189543    0.038527
Sum of atomic charges         :   -0.0000000

LOEWDIN ATOMIC CHARGES AND SPIN POPULATIONS
-------------------------------------------
   0 Si:    0.139891    0.034030
   1 C :    0.592740    0.005203
   2 C :    0.882895    0.000394
   3 C :    0.597068    0.003262
   4 C :    0.887796    0.000344
   5 C :    0.592727    0.008433
   6 C :    0.881819    0.001709
   7 C :    0.587727    0.135315
   8 C :    0.408030    0.441666
   9 C :    0.484282    0.125285
  10 C :    0.495258    0.017169
  11 C :    0.925275    0.000317
  12 C :    0.506379    0.003370
  13 H :   -0.320535    0.003269
  14 H :   -0.321020    0.000115
  15 H :   -0.293076   -0.000036
  16 H :   -0.275926    0.000012
  17 H :   -0.291066    0.000047
  18 H :   -0.337154    0.000737
  19 H :   -0.316181    0.000159
  20 H :   -0.272021    0.000029
  21 H :   -0.295468    0.000348
  22 H :   -0.292330    0.000073
  23 H :   -0.322270    0.000525
  24 H :   -0.321863    0.000529
  25 H :   -0.291138    0.000346
  26 H :   -0.293244    0.000326
  27 H :   -0.275677    0.000610
  28 H :   -0.262908    0.030352
  29 H :   -0.316039    0.007803
  30 H :   -0.274338    0.007503
  31 H :   -0.266167    0.000984
  32 H :   -0.283759    0.000071
  33 H :   -0.282768    0.000175
  34 H :   -0.283777    0.000049
  35 H :   -0.269641    0.000348
  36 H :   -0.270322    0.000715
  37 H :   -0.292719    0.135763
  38 H :   -0.331960    0.016856
  39 H :   -0.328519    0.015797

  Mayer bond orders larger than 0.100000
B(  0-Si,  1-C ) :   0.5561 B(  0-Si,  3-C ) :   0.4326 B(  0-Si,  4-C ) :  -0.1510
B(  0-Si,  5-C ) :   0.7519 B(  0-Si,  7-C ) :   0.6785 B(  0-Si,  8-C ) :   0.1134
B(  1-C ,  2-C ) :   0.8019 B(  1-C , 13-H ) :   0.9724 B(  1-C , 14-H ) :   1.0057
B(  2-C , 15-H ) :   1.0112 B(  2-C , 16-H ) :   0.9618 B(  2-C , 17-H ) :   1.0166
B(  3-C ,  4-C ) :   0.7115 B(  3-C ,  7-C ) :   0.1234 B(  3-C , 18-H ) :   0.8480
B(  3-C , 19-H ) :   1.1561 B(  4-C , 20-H ) :   1.0114 B(  4-C , 21-H ) :   1.0184
B(  4-C , 22-H ) :   0.9881 B(  5-C ,  6-C ) :   0.7764 B(  5-C , 23-H ) :   0.9999
B(  5-C , 24-H ) :   0.9922 B(  6-C , 25-H ) :   1.0111 B(  6-C , 26-H ) :   1.0092
B(  6-C , 27-H ) :   0.9639 B(  7-C ,  8-C ) :   0.7363 B(  7-C ,  9-C ) :  -0.1866
B(  7-C , 38-H ) :   1.0690 B(  7-C , 39-H ) :   0.9807 B(  8-C ,  9-C ) :   0.7135
B(  8-C , 10-C ) :  -0.2082 B(  8-C , 29-H ) :   0.1059 B(  8-C , 37-H ) :   1.1329
B(  8-C , 38-H ) :  -0.1161 B(  9-C , 10-C ) :   1.0013 B(  9-C , 28-H ) :   0.8257
B(  9-C , 29-H ) :   0.9400 B( 10-C , 11-C ) :  -0.1497 B( 10-C , 12-C ) :   0.8693
B( 10-C , 30-H ) :   0.8629 B( 10-C , 31-H ) :   0.8664 B( 11-C , 12-C ) :   1.0310
B( 11-C , 32-H ) :   0.9547 B( 11-C , 33-H ) :   1.0274 B( 11-C , 34-H ) :   0.9500
B( 12-C , 35-H ) :   0.8804 B( 12-C , 36-H ) :   0.9121

MP2 TOTAL ENERGY:     -761.640984522 Eh
FINAL SINGLE POINT ENERGY      -761.640984521818

DIPOLE MOMENT
-------------
                                X             Y             Z
Electronic contribution:      3.49317      -1.80376       3.02646
Nuclear contribution   :     -3.46514       1.85177      -3.05584
                        -----------------------------------------
Total Dipole Moment    :      0.02803       0.04801      -0.02938
                        -----------------------------------------
Magnitude (a.u.)       :      0.06288
Magnitude (Debye)      :      0.15983

Rotational constants in cm-1:     0.032776     0.010418     0.009341
Rotational constants in MHz :   982.584903   312.335687   280.040074

                             ****ORCA TERMINATED NORMALLY****
TOTAL RUN TIME: 0 days 7 hours 10 minutes 21 seconds 381 msec
