                         Program Version 4.2.1 -  RELEASE  -
|  1> %pal
|  2>  nprocs 32
|  3> end
|  4> !RI-MP2 aug-cc-pVQZ aug-cc-pVQZ/C TightSCF
|  5> %maxcore 4500
|  6> *xyzfile 0 1  10_52P.xyz
|  7>
|  8>
|  9>                          ****END OF INPUT****

CARTESIAN COORDINATES (ANGSTROEM)
---------------------------------
  C     -0.402947    1.143092   -1.501868
  N      0.092427   -0.094225   -0.919800
  C     -0.483833   -1.351772   -1.375148
  C     -1.372899   -2.079318   -0.348753
  C     -2.782407   -1.570608   -0.271146
  C     -1.804567    1.119266    1.514599
  C     -1.995983    2.031652    0.339575
  C     -0.743574    2.263357   -0.513634
  C     -3.229621   -0.699391    0.626700
  C     -2.371805   -0.071926    1.659960
  C      1.362996   -0.122204   -0.355974
  C      1.853403   -1.285949    0.261521
  C      3.120143   -1.322219    0.819069
  C      3.948741   -0.209360    0.790749
  C      3.479907    0.943654    0.180230
  C      2.215183    0.993894   -0.385024
  H      0.314306    1.529747   -2.240549
  H     -1.309247    0.896047   -2.055628
  H     -1.065014   -1.154914   -2.279031
  H      0.328923   -2.019757   -1.674121
  H     -1.397278   -3.139537   -0.621315
  H     -0.901544   -2.008869    0.632009
  H     -2.322689    3.004238    0.723426
  H     -2.803791    1.659745   -0.295595
  H     -0.896213    3.167814   -1.111525
  H      0.106240    2.468655    0.139963
  H      1.238311   -2.171644    0.320784
  H      3.459086   -2.238592    1.288515
  H      4.936375   -0.241391    1.232553
  H      4.108766    1.825337    0.132088
  H      1.904491    1.908815   -0.865682
  H     -2.188170   -0.637298    2.570380
  H     -1.158012    1.488835    2.306834
  H     -4.278837   -0.413954    0.601873
  H     -3.479117   -1.956698   -1.011514

 Total Charge           Charge          ....    0
 Multiplicity           Mult            ....    1
 Number of Electrons    NEL             ....  116
 Basis Dimension        Dim             .... 2154

ORBITAL ENERGIES
----------------

  NO   OCC          E(Eh)            E(eV)
   0   2.0000     -15.557474      -423.3404
   1   2.0000     -11.271461      -306.7121
   2   2.0000     -11.258083      -306.3480
   3   2.0000     -11.255504      -306.2778
   4   2.0000     -11.226801      -305.4968
   5   2.0000     -11.226701      -305.4941
   6   2.0000     -11.226115      -305.4781
   7   2.0000     -11.224356      -305.4302
   8   2.0000     -11.222328      -305.3751
   9   2.0000     -11.222322      -305.3749
  10   2.0000     -11.220854      -305.3350
  11   2.0000     -11.220265      -305.3189
  12   2.0000     -11.218762      -305.2780
  13   2.0000     -11.214675      -305.1668
  14   2.0000     -11.214581      -305.1643
  15   2.0000     -11.210764      -305.0604
  16   2.0000      -1.254919       -34.1481
  17   2.0000      -1.134631       -30.8749
  18   2.0000      -1.105114       -30.0717
  19   2.0000      -1.080213       -29.3941
  20   2.0000      -1.024831       -27.8871
  21   2.0000      -1.011179       -27.5156
  22   2.0000      -0.991240       -26.9730
  23   2.0000      -0.982940       -26.7471
  24   2.0000      -0.904800       -24.6209
  25   2.0000      -0.865701       -23.5569
  26   2.0000      -0.835723       -22.7412
  27   2.0000      -0.815220       -22.1833
  28   2.0000      -0.774242       -21.0682
  29   2.0000      -0.773269       -21.0417
  30   2.0000      -0.712102       -19.3773
  31   2.0000      -0.691491       -18.8164
  32   2.0000      -0.664061       -18.0700
  33   2.0000      -0.655077       -17.8256
  34   2.0000      -0.650537       -17.7020
  35   2.0000      -0.633878       -17.2487
  36   2.0000      -0.622022       -16.9261
  37   2.0000      -0.611147       -16.6301
  38   2.0000      -0.604281       -16.4433
  39   2.0000      -0.587399       -15.9839
  40   2.0000      -0.573268       -15.5994
  41   2.0000      -0.566788       -15.4231
  42   2.0000      -0.562715       -15.3123
  43   2.0000      -0.531958       -14.4753
  44   2.0000      -0.528238       -14.3741
  45   2.0000      -0.514847       -14.0097
  46   2.0000      -0.507648       -13.8138
  47   2.0000      -0.499158       -13.5828
  48   2.0000      -0.493764       -13.4360
  49   2.0000      -0.488201       -13.2846
  50   2.0000      -0.476308       -12.9610
  51   2.0000      -0.467036       -12.7087
  52   2.0000      -0.456560       -12.4236
  53   2.0000      -0.405099       -11.0233
  54   2.0000      -0.361532        -9.8378
  55   2.0000      -0.339942        -9.2503
  56   2.0000      -0.332144        -9.0381
  57   2.0000      -0.278383        -7.5752
  58   0.0000       0.022475         0.6116
  59   0.0000       0.025320         0.6890
  60   0.0000       0.026499         0.7211
  61   0.0000       0.028930         0.7872
  62   0.0000       0.035740         0.9725

MULLIKEN ATOMIC CHARGES
-----------------------
   0 C :   -0.466405
   1 N :    0.444733
   2 C :   -0.650834
   3 C :   -0.492737
   4 C :   -0.298577
   5 C :   -0.232444
   6 C :   -0.548757
   7 C :   -0.426785
   8 C :   -0.306013
   9 C :   -0.414900
  10 C :    1.071953
  11 C :   -0.448177
  12 C :   -0.579276
  13 C :   -0.471914
  14 C :   -0.560766
  15 C :   -0.471284
  16 H :    0.247037
  17 H :    0.230053
  18 H :    0.158663
  19 H :    0.366426
  20 H :    0.304211
  21 H :    0.341511
  22 H :    0.280112
  23 H :    0.208568
  24 H :    0.242303
  25 H :    0.360345
  26 H :    0.205141
  27 H :    0.163782
  28 H :    0.327087
  29 H :    0.189900
  30 H :    0.156250
  31 H :    0.301987
  32 H :    0.196465
  33 H :    0.340977
  34 H :    0.231365
Sum of atomic charges:   -0.0000000

LOEWDIN ATOMIC CHARGES
----------------------
   0 C :    0.383774
   1 N :    0.517648
   2 C :    0.385837
   3 C :    0.519310
   4 C :    0.395572
   5 C :    0.391966
   6 C :    0.514427
   7 C :    0.555309
   8 C :    0.339792
   9 C :    0.346130
  10 C :   -0.207883
  11 C :    0.350634
  12 C :    0.344952
  13 C :    0.334502
  14 C :    0.345442
  15 C :    0.349308
  16 H :   -0.269426
  17 H :   -0.304321
  18 H :   -0.289293
  19 H :   -0.296569
  20 H :   -0.269109
  21 H :   -0.330368
  22 H :   -0.272328
  23 H :   -0.311384
  24 H :   -0.259328
  25 H :   -0.306294
  26 H :   -0.366943
  27 H :   -0.316822
  28 H :   -0.330687
  29 H :   -0.316395
  30 H :   -0.375460
  31 H :   -0.318517
  32 H :   -0.303926
  33 H :   -0.319006
  34 H :   -0.310546

  Mayer bond orders larger than 0.100000
B(  0-C ,  1-N ) :   0.7281 B(  0-C ,  7-C ) :   0.7849 B(  0-C , 16-H ) :   1.0138
B(  0-C , 17-H ) :   1.0394 B(  1-N ,  2-C ) :   0.7277 B(  1-N ,  3-C ) :  -0.1933
B(  1-N ,  7-C ) :  -0.1093 B(  1-N , 10-C ) :   0.8266 B(  1-N , 11-C ) :  -0.2000
B(  1-N , 15-C ) :  -0.2596 B(  2-C ,  3-C ) :   1.0383 B(  2-C ,  4-C ) :  -0.1346
B(  2-C , 18-H ) :   1.0334 B(  2-C , 19-H ) :   0.8779 B(  3-C ,  4-C ) :   0.8944
B(  3-C , 20-H ) :   0.9380 B(  3-C , 21-H ) :   0.8364 B(  4-C ,  8-C ) :   1.7142
B(  4-C ,  9-C ) :  -0.1623 B(  4-C , 34-H ) :   1.0713 B(  5-C ,  6-C ) :   0.8906
B(  5-C ,  7-C ) :  -0.1582 B(  5-C ,  8-C ) :  -0.1675 B(  5-C ,  9-C ) :   1.6857
B(  5-C , 22-H ) :  -0.1050 B(  5-C , 32-H ) :   1.0934 B(  6-C ,  7-C ) :   0.8861
B(  6-C , 22-H ) :   0.9646 B(  6-C , 23-H ) :   0.9584 B(  7-C , 24-H ) :   1.0098
B(  7-C , 25-H ) :   0.8369 B(  8-C ,  9-C ) :   0.8781 B(  8-C , 33-H ) :   1.0247
B(  9-C , 31-H ) :   1.0427 B( 10-C , 11-C ) :   1.0464 B( 10-C , 12-C ) :  -0.5035
B( 10-C , 13-C ) :  -0.1756 B( 10-C , 14-C ) :  -0.4344 B( 10-C , 15-C ) :   0.9557
B( 11-C , 12-C ) :   1.2399 B( 11-C , 26-H ) :   1.0146 B( 11-C , 27-H ) :  -0.1717
B( 12-C , 13-C ) :   1.2812 B( 12-C , 15-C ) :   0.1412 B( 12-C , 27-H ) :   1.2381
B( 12-C , 28-H ) :  -0.1059 B( 13-C , 14-C ) :   1.2154 B( 13-C , 27-H ) :  -0.1154
B( 13-C , 28-H ) :   1.0429 B( 13-C , 29-H ) :  -0.1128 B( 14-C , 15-C ) :   1.2629
B( 14-C , 28-H ) :  -0.1100 B( 14-C , 29-H ) :   1.2326 B( 15-C , 29-H ) :  -0.1824
B( 15-C , 30-H ) :   1.1075

MP2 TOTAL ENERGY:     -636.564128718 Eh
FINAL SINGLE POINT ENERGY      -636.564128717610

DIPOLE MOMENT
-------------
                                X             Y             Z
Electronic contribution:      5.12744      -1.91038       1.82840
Nuclear contribution   :     -5.51766       2.00780      -2.25893
                        -----------------------------------------
Total Dipole Moment    :     -0.39022       0.09742      -0.43053
                        -----------------------------------------
Magnitude (a.u.)       :      0.58917
Magnitude (Debye)      :      1.49754

Rotational constants in cm-1:     0.028998     0.013106     0.011355
Rotational constants in MHz :   869.336612   392.911275   340.402866

                             ****ORCA TERMINATED NORMALLY****
TOTAL RUN TIME: 0 days 5 hours 2 minutes 21 seconds 35 msec
