                         Program Version 4.2.1 -  RELEASE  -
|  1> %pal
|  2>  nprocs 32
|  3> end
|  4> !RI-MP2 aug-cc-pVQZ aug-cc-pVQZ/C TightSCF
|  5> %maxcore 4500
|  6> *xyzfile 0 1  02_8P.xyz
|  7>
|  8>
|  9>                          ****END OF INPUT****

CARTESIAN COORDINATES (ANGSTROEM)
---------------------------------
  C     -2.734684    0.148360    1.950377
  C     -1.696221    0.913863    2.249899
  C     -1.116232    1.760790    1.156571
  C     -0.819311    0.861008   -0.119143
  C     -2.056952   -0.074983   -0.457738
  C     -3.228975    0.184669    0.535316
  C     -1.718448   -1.569625   -0.623815
  C     -2.985217   -2.401901   -0.850672
  C     -4.427060   -0.728390    0.281238
  C     -4.028533   -2.195928    0.236016
  C     -0.770797   -1.803924   -1.799963
  C      0.081448    2.588367    1.616350
  C     -0.692041    1.848745   -1.272288
  C      1.720705    0.438757   -0.462959
  C      1.686648    1.347014   -1.450183
  N      0.550843    2.016814   -1.839040
  O     -1.632823    2.491852   -1.682722
  C      0.468513    0.100241    0.238840
  O      0.453667   -0.714868    1.135834
  C      2.994565   -0.208416   -0.080287
  C      3.073661   -1.587636    0.117988
  C      4.151920    0.555297    0.068592
  C      4.284054   -2.183452    0.433534
  C      5.364625   -0.042510    0.381471
  C      5.434361   -1.415499    0.563543
  H     -2.424104    0.261504   -1.430700
  H     -3.555546    1.210951    0.331176
  H     -1.246909   -1.926003    0.294169
  H     -3.423147   -2.136089   -1.821769
  H     -2.700372   -3.455878   -0.918072
  H     -5.180839   -0.546657    1.052674
  H     -4.887318   -0.457554   -0.675192
  H     -4.904401   -2.823012    0.049642
  H     -3.618627   -2.505948    1.203659
  H     -1.227105   -1.454149   -2.731421
  H      0.190205   -1.299414   -1.696656
  H     -0.560763   -2.869891   -1.915497
  H      0.495222    3.196916    0.809142
  H     -0.234224    3.268809    2.409303
  H      0.878565    1.960116    2.017986
  H      2.576419    1.600749   -2.012412
  H      0.588384    2.675227   -2.603638
  H      2.181409   -2.191305    0.029103
  H      4.097315    1.632537   -0.040214
  H      4.329553   -3.255846    0.580729
  H      6.252037    0.568363    0.496010
  H      6.377856   -1.885085    0.814110
  H     -1.245561    0.935431    3.235112
  H     -3.205517   -0.499449    2.681858
  H     -1.891348    2.453037    0.813169

 Total Charge           Charge          ....    0
 Multiplicity           Mult            ....    1
 Number of Electrons    NEL             ....  180
 Basis Dimension        Dim             .... 3150

ORBITAL ENERGIES
----------------

  NO   OCC          E(Eh)            E(eV)
   0   2.0000     -20.538858      -558.8907
   1   2.0000     -20.535696      -558.8047
   2   2.0000     -15.623370      -425.1335
   3   2.0000     -11.369706      -309.3854
   4   2.0000     -11.334869      -308.4375
   5   2.0000     -11.317664      -307.9693
   6   2.0000     -11.266629      -306.5806
   7   2.0000     -11.247404      -306.0574
   8   2.0000     -11.245998      -306.0192
   9   2.0000     -11.244540      -305.9795
  10   2.0000     -11.236348      -305.7566
  11   2.0000     -11.235436      -305.7318
  12   2.0000     -11.233798      -305.6872
  13   2.0000     -11.232400      -305.6491
  14   2.0000     -11.231247      -305.6178
  15   2.0000     -11.229443      -305.5687
  16   2.0000     -11.221682      -305.3575
  17   2.0000     -11.220833      -305.3344
  18   2.0000     -11.215617      -305.1925
  19   2.0000     -11.213617      -305.1380
  20   2.0000     -11.212074      -305.0960
  21   2.0000     -11.210877      -305.0635
  22   2.0000     -11.210120      -305.0429
  23   2.0000     -11.209717      -305.0319
  24   2.0000     -11.209473      -305.0253
  25   2.0000      -1.413132       -38.4533
  26   2.0000      -1.390394       -37.8345
  27   2.0000      -1.286073       -34.9958
  28   2.0000      -1.163642       -31.6643
  29   2.0000      -1.157658       -31.5015
  30   2.0000      -1.103692       -30.0330
  31   2.0000      -1.092031       -29.7157
  32   2.0000      -1.061994       -28.8983
  33   2.0000      -1.020498       -27.7692
  34   2.0000      -1.017588       -27.6900
  35   2.0000      -1.015705       -27.6387
  36   2.0000      -1.001942       -27.2642
  37   2.0000      -0.956390       -26.0247
  38   2.0000      -0.925457       -25.1830
  39   2.0000      -0.895037       -24.3552
  40   2.0000      -0.850024       -23.1303
  41   2.0000      -0.841134       -22.8884
  42   2.0000      -0.831503       -22.6263
  43   2.0000      -0.825093       -22.4519
  44   2.0000      -0.814525       -22.1644
  45   2.0000      -0.797475       -21.7004
  46   2.0000      -0.766432       -20.8557
  47   2.0000      -0.749942       -20.4070
  48   2.0000      -0.733283       -19.9536
  49   2.0000      -0.698441       -19.0055
  50   2.0000      -0.688271       -18.7288
  51   2.0000      -0.674719       -18.3600
  52   2.0000      -0.658605       -17.9216
  53   2.0000      -0.649413       -17.6714
  54   2.0000      -0.645522       -17.5656
  55   2.0000      -0.635279       -17.2868
  56   2.0000      -0.630628       -17.1603
  57   2.0000      -0.621727       -16.9181
  58   2.0000      -0.615409       -16.7461
  59   2.0000      -0.611954       -16.6521
  60   2.0000      -0.602140       -16.3851
  61   2.0000      -0.592710       -16.1285
  62   2.0000      -0.590030       -16.0555
  63   2.0000      -0.587644       -15.9906
  64   2.0000      -0.574883       -15.6434
  65   2.0000      -0.567775       -15.4500
  66   2.0000      -0.557113       -15.1598
  67   2.0000      -0.541832       -14.7440
  68   2.0000      -0.533758       -14.5243
  69   2.0000      -0.528041       -14.3687
  70   2.0000      -0.517554       -14.0834
  71   2.0000      -0.513375       -13.9696
  72   2.0000      -0.507714       -13.8156
  73   2.0000      -0.503701       -13.7064
  74   2.0000      -0.501852       -13.6561
  75   2.0000      -0.495508       -13.4835
  76   2.0000      -0.492208       -13.3937
  77   2.0000      -0.490515       -13.3476
  78   2.0000      -0.480909       -13.0862
  79   2.0000      -0.471513       -12.8305
  80   2.0000      -0.462140       -12.5755
  81   2.0000      -0.447035       -12.1644
  82   2.0000      -0.443307       -12.0630
  83   2.0000      -0.424134       -11.5413
  84   2.0000      -0.414534       -11.2800
  85   2.0000      -0.403520       -10.9803
  86   2.0000      -0.377402       -10.2696
  87   2.0000      -0.339098        -9.2273
  88   2.0000      -0.335983        -9.1426
  89   2.0000      -0.311039        -8.4638
  90   0.0000       0.015590         0.4242
  91   0.0000       0.024427         0.6647
  92   0.0000       0.024861         0.6765
  93   0.0000       0.026642         0.7250
  94   0.0000       0.031971         0.8700

MULLIKEN ATOMIC CHARGES
-----------------------
   0 C :   -0.647026
   1 C :   -0.546114
   2 C :   -0.145110
   3 C :    0.078756
   4 C :    1.440027
   5 C :    0.674264
   6 C :    1.233544
   7 C :   -0.854250
   8 C :   -0.872522
   9 C :   -0.568281
  10 C :   -1.349575
  11 C :   -1.131942
  12 C :    2.354340
  13 C :    0.366651
  14 C :   -0.368313
  15 N :   -1.191614
  16 O :   -1.372107
  17 C :    2.688204
  18 O :   -1.577402
  19 C :    0.618855
  20 C :   -0.846625
  21 C :   -0.901687
  22 C :   -0.384241
  23 C :   -0.253356
  24 C :   -0.421855
  25 H :    0.214612
  26 H :    0.342492
  27 H :   -0.085068
  28 H :    0.120443
  29 H :    0.142013
  30 H :    0.113660
  31 H :    0.050604
  32 H :    0.180516
  33 H :    0.101252
  34 H :    0.110850
  35 H :    0.151305
  36 H :    0.068495
  37 H :    0.160363
  38 H :    0.061081
  39 H :    0.183005
  40 H :    0.265470
  41 H :   -0.202521
  42 H :    0.356331
  43 H :    0.182042
  44 H :    0.184306
  45 H :    0.235212
  46 H :    0.348433
  47 H :    0.207597
  48 H :    0.143040
  49 H :    0.341845
Sum of atomic charges:    0.0000000

LOEWDIN ATOMIC CHARGES
----------------------
   0 C :    0.430866
   1 C :    0.410661
   2 C :    0.078347
   3 C :   -0.230320
   4 C :    0.181874
   5 C :    0.132469
   6 C :    0.145039
   7 C :    0.538717
   8 C :    0.549712
   9 C :    0.554754
  10 C :    0.950268
  11 C :    0.946575
  12 C :   -0.824126
  13 C :   -0.098799
  14 C :    0.250163
  15 N :    0.863970
  16 O :    0.806379
  17 C :   -0.723138
  18 O :    0.860457
  19 C :   -0.125453
  20 C :    0.340139
  21 C :    0.332616
  22 C :    0.356564
  23 C :    0.348063
  24 C :    0.338611
  25 H :   -0.337852
  26 H :   -0.286726
  27 H :   -0.335747
  28 H :   -0.255933
  29 H :   -0.252451
  30 H :   -0.252712
  31 H :   -0.251475
  32 H :   -0.249906
  33 H :   -0.261649
  34 H :   -0.253799
  35 H :   -0.326134
  36 H :   -0.253128
  37 H :   -0.269889
  38 H :   -0.255953
  39 H :   -0.281024
  40 H :   -0.287593
  41 H :   -0.482848
  42 H :   -0.338645
  43 H :   -0.321819
  44 H :   -0.317785
  45 H :   -0.320444
  46 H :   -0.321901
  47 H :   -0.285615
  48 H :   -0.286762
  49 H :   -0.326615

  Mayer bond orders larger than 0.100000
B(  0-C ,  1-C ) :   1.2812 B(  0-C ,  2-C ) :   0.2190 B(  0-C ,  4-C ) :  -0.2730
B(  0-C ,  5-C ) :   0.6856 B(  0-C , 47-H ) :  -0.2253 B(  0-C , 48-H ) :   1.2098
B(  1-C ,  2-C ) :   0.9361 B(  1-C ,  3-C ) :   0.1977 B(  1-C ,  5-C ) :  -0.5221
B(  1-C , 47-H ) :   1.1741 B(  1-C , 48-H ) :  -0.2188 B(  1-C , 49-H ) :  -0.1483
B(  2-C ,  5-C ) :   0.1413 B(  2-C , 11-C ) :   0.3086 B(  2-C , 13-C ) :  -0.1508
B(  2-C , 16-O ) :   0.2126 B(  2-C , 17-C ) :   0.2849 B(  2-C , 37-H ) :  -0.2120
B(  2-C , 38-H ) :  -0.1835 B(  2-C , 39-H ) :  -0.2662 B(  2-C , 49-H ) :   1.1025
B(  3-C ,  4-C ) :   1.3285 B(  3-C ,  6-C ) :   0.3742 B(  3-C , 11-C ) :  -0.4764
B(  3-C , 12-C ) :   1.4120 B(  3-C , 13-C ) :   0.1309 B(  3-C , 14-C ) :  -0.1134
B(  3-C , 15-N ) :  -0.1216 B(  3-C , 16-O ) :   0.6551 B(  3-C , 17-C ) :   1.2027
B(  3-C , 18-O ) :   0.6000 B(  3-C , 19-C ) :   0.1340 B(  3-C , 25-H ) :  -0.1197
B(  3-C , 26-H ) :  -0.2291 B(  3-C , 27-H ) :  -0.1172 B(  3-C , 41-H ) :   0.1027
B(  3-C , 49-H ) :  -0.3213 B(  4-C ,  5-C ) :   0.6439 B(  4-C ,  6-C ) :   0.3434
B(  4-C ,  7-C ) :  -0.3287 B(  4-C ,  8-C ) :  -0.2388 B(  4-C , 10-C ) :  -0.4880
B(  4-C , 12-C ) :  -0.2177 B(  4-C , 15-N ) :  -0.1570 B(  4-C , 16-O ) :   0.3832
B(  4-C , 18-O ) :  -0.2654 B(  4-C , 25-H ) :   1.1584 B(  5-C ,  8-C ) :   0.2225
B(  5-C ,  9-C ) :  -0.2329 B(  5-C , 26-H ) :   0.9854 B(  5-C , 30-H ) :  -0.2003
B(  5-C , 31-H ) :  -0.3126 B(  6-C ,  7-C ) :  -0.2423 B(  6-C ,  9-C ) :  -0.3597
B(  6-C , 10-C ) :   0.1034 B(  6-C , 12-C ) :   0.1235 B(  6-C , 18-O ) :  -0.1727
B(  6-C , 25-H ) :  -0.2237 B(  6-C , 27-H ) :   1.0295 B(  6-C , 28-H ) :  -0.3143
B(  6-C , 29-H ) :  -0.2757 B(  6-C , 34-H ) :  -0.2414 B(  6-C , 36-H ) :  -0.2958
B(  7-C ,  9-C ) :   0.9301 B(  7-C , 10-C ) :   0.2848 B(  7-C , 28-H ) :   1.3012
B(  7-C , 29-H ) :   1.2427 B(  8-C ,  9-C ) :   0.8823 B(  8-C , 30-H ) :   1.2623
B(  8-C , 31-H ) :   1.3939 B(  9-C , 32-H ) :   1.0716 B(  9-C , 33-H ) :   1.1491
B( 10-C , 34-H ) :   1.3256 B( 10-C , 35-H ) :   1.0045 B( 10-C , 36-H ) :   1.3821
B( 11-C , 37-H ) :   1.1564 B( 11-C , 38-H ) :   1.3084 B( 11-C , 39-H ) :   1.1887
B( 12-C , 13-C ) :  -0.1711 B( 12-C , 14-C ) :   0.2452 B( 12-C , 15-N ) :   0.6635
B( 12-C , 16-O ) :  -0.6618 B( 12-C , 17-C ) :  -0.1566 B( 12-C , 41-H ) :  -0.4474
B( 13-C , 14-C ) :   1.5793 B( 13-C , 17-C ) :   0.3989 B( 13-C , 18-O ) :   0.4545
B( 13-C , 20-C ) :  -0.5183 B( 13-C , 21-C ) :  -0.4944 B( 13-C , 23-C ) :  -0.1448
B( 13-C , 35-H ) :   0.1422 B( 13-C , 40-H ) :  -0.1185 B( 14-C , 15-N ) :   0.8688
B( 14-C , 19-C ) :  -0.5972 B( 14-C , 40-H ) :   1.0329 B( 14-C , 41-H ) :  -0.3378
B( 15-N , 16-O ) :   0.6219 B( 15-N , 25-H ) :  -0.1076 B( 15-N , 41-H ) :   1.5634
B( 16-O , 25-H ) :  -0.2231 B( 16-O , 41-H ) :   0.1387 B( 17-C , 18-O ) :  -0.4387
B( 17-C , 19-C ) :  -0.3358 B( 17-C , 20-C ) :  -0.1862 B( 17-C , 25-H ) :   0.1539
B( 17-C , 39-H ) :  -0.1136 B( 18-O , 19-C ) :  -0.1058 B( 18-O , 27-H ) :   0.1504
B( 18-O , 42-H ) :  -0.1298 B( 19-C , 20-C ) :   1.2847 B( 19-C , 21-C ) :   1.1162
B( 19-C , 22-C ) :  -0.4476 B( 19-C , 23-C ) :  -0.4003 B( 20-C , 21-C ) :   0.2457
B( 20-C , 22-C ) :   1.3341 B( 20-C , 23-C ) :   0.1464 B( 20-C , 42-H ) :   0.8955
B( 20-C , 46-H ) :  -0.1415 B( 21-C , 22-C ) :   0.1561 B( 21-C , 23-C ) :   1.4183
B( 21-C , 24-C ) :   0.1850 B( 21-C , 43-H ) :   1.1119 B( 21-C , 45-H ) :  -0.1491
B( 21-C , 46-H ) :  -0.1114 B( 22-C , 24-C ) :   1.1799 B( 22-C , 42-H ) :  -0.1001
B( 22-C , 44-H ) :   1.1872 B( 23-C , 24-C ) :   1.1174 B( 23-C , 45-H ) :   1.1681
B( 24-C , 44-H ) :  -0.1040 B( 24-C , 46-H ) :   1.0063 B( 25-H , 27-H ) :   0.1582
B( 34-H , 36-H ) :   0.1260

MP2 TOTAL ENERGY:    -1056.799810364 Eh
FINAL SINGLE POINT ENERGY     -1056.799810363582

DIPOLE MOMENT
-------------
                                X             Y             Z
Electronic contribution:     13.31584       7.88264      -1.64221
Nuclear contribution   :    -12.45015      -7.56108       0.96026
                        -----------------------------------------
Total Dipole Moment    :      0.86568       0.32156      -0.68195
                        -----------------------------------------
Magnitude (a.u.)       :      1.14798
Magnitude (Debye)      :      2.91794

Rotational constants in cm-1:     0.013531     0.005433     0.004880
Rotational constants in MHz :   405.638754   162.891021   146.313672

                             ****ORCA TERMINATED NORMALLY****
TOTAL RUN TIME: 0 days 19 hours 26 minutes 59 seconds 27 msec
