                         Program Version 4.2.1 -  RELEASE  -
|  1> %pal
|  2>  nprocs 32
|  3> end
|  4> !RI-MP2 aug-cc-pVQZ aug-cc-pVQZ/C TightSCF
|  5> %maxcore 4500
|  6> *xyzfile 0 1  04_29R1.xyz
|  7>
|  8>
|  9>                          ****END OF INPUT****

CARTESIAN COORDINATES (ANGSTROEM)
---------------------------------
  C     -2.183175    0.812360    0.706271
  S     -1.870532   -0.562660   -0.436564
  C     -0.322553   -1.246710    0.236400
  C      0.962646   -0.671086   -0.364408
  C      2.184495   -1.425042    0.158479
  C      1.088224    0.803485   -0.006490
  O      1.299116    1.170446    1.132832
  H     -2.258556    0.447569    1.730117
  H     -1.413781    1.578806    0.647478
  H     -3.140528    1.243333    0.415257
  H      2.102608   -2.489773   -0.069253
  H      2.268661   -1.300652    1.238622
  H      3.103047   -1.048997   -0.295939
  H     -0.321515   -1.113147    1.319769
  H     -0.359481   -2.318272    0.035460
  H      0.907489   -0.776877   -1.451367
  N      0.958263    1.677291   -1.038981
  H      0.959586    2.662756   -0.826635
  H      0.602389    1.375172   -1.929794

 Total Charge           Charge          ....    0
 Multiplicity           Mult            ....    1
 Number of Electrons    NEL             ....   72
 Basis Dimension        Dim             .... 1150

ORBITAL ENERGIES
----------------

  NO   OCC          E(Eh)            E(eV)
   0   2.0000     -91.944980     -2501.9501
   1   2.0000     -20.517832      -558.3186
   2   2.0000     -15.585799      -424.1111
   3   2.0000     -11.349390      -308.8326
   4   2.0000     -11.261441      -306.4394
   5   2.0000     -11.249782      -306.1221
   6   2.0000     -11.247904      -306.0710
   7   2.0000     -11.223142      -305.3972
   8   2.0000      -8.946849      -243.4561
   9   2.0000      -6.628469      -180.3698
  10   2.0000      -6.627539      -180.3445
  11   2.0000      -6.626745      -180.3229
  12   2.0000      -1.386327       -37.7239
  13   2.0000      -1.215267       -33.0691
  14   2.0000      -1.105287       -30.0764
  15   2.0000      -1.034869       -28.1602
  16   2.0000      -0.944429       -25.6992
  17   2.0000      -0.885195       -24.0874
  18   2.0000      -0.815882       -22.2013
  19   2.0000      -0.772324       -21.0160
  20   2.0000      -0.716417       -19.4947
  21   2.0000      -0.692510       -18.8442
  22   2.0000      -0.623040       -16.9538
  23   2.0000      -0.617875       -16.8132
  24   2.0000      -0.602142       -16.3851
  25   2.0000      -0.583414       -15.8755
  26   2.0000      -0.565200       -15.3799
  27   2.0000      -0.562619       -15.3097
  28   2.0000      -0.533819       -14.5260
  29   2.0000      -0.530982       -14.4488
  30   2.0000      -0.498057       -13.5528
  31   2.0000      -0.481114       -13.0918
  32   2.0000      -0.430193       -11.7061
  33   2.0000      -0.423224       -11.5165
  34   2.0000      -0.418873       -11.3981
  35   2.0000      -0.341130        -9.2826
  36   0.0000       0.022117         0.6018
  37   0.0000       0.028026         0.7626
  38   0.0000       0.032430         0.8825
  39   0.0000       0.036644         0.9971
  40   0.0000       0.042818         1.1651

MULLIKEN ATOMIC CHARGES
-----------------------
   0 C :   -1.109193
   1 S :   -0.038654
   2 C :   -0.627033
   3 C :    0.199469
   4 C :   -0.944454
   5 C :    1.265060
   6 O :   -0.980063
   7 H :    0.295791
   8 H :    0.317816
   9 H :    0.400213
  10 H :    0.245203
  11 H :    0.249002
  12 H :    0.253306
  13 H :    0.251820
  14 H :    0.348162
  15 H :    0.257905
  16 N :   -0.890239
  17 H :    0.191083
  18 H :    0.314804
Sum of atomic charges:    0.0000000

LOEWDIN ATOMIC CHARGES
----------------------
   0 C :    0.556740
   1 S :    1.340814
   2 C :    0.138598
   3 C :   -0.023793
   4 C :    0.911227
   5 C :   -0.908339
   6 O :    0.733119
   7 H :   -0.360386
   8 H :   -0.399247
   9 H :   -0.387520
  10 H :   -0.274745
  11 H :   -0.289276
  12 H :   -0.266005
  13 H :   -0.357763
  14 H :   -0.367523
  15 H :   -0.325376
  16 N :    1.256762
  17 H :   -0.484221
  18 H :   -0.493066

  Mayer bond orders larger than 0.100000
B(  0-C ,  1-S ) :   1.0385 B(  0-C ,  7-H ) :   0.9050 B(  0-C ,  8-H ) :   0.8735
B(  0-C ,  9-H ) :   0.8446 B(  1-S ,  2-C ) :   0.8631 B(  2-C ,  3-C ) :   0.7743
B(  2-C ,  4-C ) :   0.1089 B(  2-C , 13-H ) :   0.9295 B(  2-C , 14-H ) :   0.8902
B(  3-C ,  4-C ) :   0.6092 B(  3-C ,  5-C ) :   0.8449 B(  3-C , 15-H ) :   0.9083
B(  4-C , 10-H ) :   1.0022 B(  4-C , 11-H ) :   0.9962 B(  4-C , 12-H ) :   1.0146
B(  5-C ,  6-O ) :   1.0279 B(  5-C , 16-N ) :   0.9208 B(  6-O , 16-N ) :   0.1904
B( 16-N , 17-H ) :   1.0191 B( 16-N , 18-H ) :   0.8793

MP2 TOTAL ENERGY:     -724.363118285 Eh
FINAL SINGLE POINT ENERGY      -724.363118285258

DIPOLE MOMENT
-------------
                                X             Y             Z
Electronic contribution:     -2.61062       1.70922      -1.73046
Nuclear contribution   :      2.57202      -1.72002       0.85162
                        -----------------------------------------
Total Dipole Moment    :     -0.03861      -0.01080      -0.87884
                        -----------------------------------------
Magnitude (a.u.)       :      0.87975
Magnitude (Debye)      :      2.23616

Rotational constants in cm-1:     0.074060     0.042460     0.033878
Rotational constants in MHz :  2220.276696  1272.914057  1015.628352

                             ****ORCA TERMINATED NORMALLY****
TOTAL RUN TIME: 0 days 0 hours 39 minutes 31 seconds 26 msec
