                         Program Version 4.2.1 -  RELEASE  -
|  1> %pal
|  2>  nprocs 32
|  3> end
|  4> !RI-MP2 aug-cc-pVQZ aug-cc-pVQZ/C TightSCF
|  5> %maxcore 4500
|  6> *xyzfile 0 1  06_29TS.xyz
|  7>
|  8>
|  9>                          ****END OF INPUT****

CARTESIAN COORDINATES (ANGSTROEM)
---------------------------------
  C      1.673718    1.826226    0.076522
  C      0.938761    0.854742    1.033278
  C     -1.379889    1.449921   -0.924901
  H      2.730940    1.549870    0.051134
  C     -0.038307    1.590318    1.980383
  H     -0.667972    0.859506    2.499493
  H      0.558677    2.075856    2.760302
  H     -2.215128    1.463933   -1.630129
  H      1.701608    0.438729    1.687642
  C     -0.919443    2.665765    1.354004
  H     -1.475798    3.162477    2.155396
  H     -0.284381    3.442895    0.920670
  C     -1.921968    2.199002    0.305800
  H     -2.683026    1.587496    0.795313
  H     -2.450251    3.086145   -0.060891
  C     -0.261320    2.242496   -1.641470
  H     -0.414928    2.143317   -2.720839
  C      1.193003    1.854923   -1.373540
  H      1.377900    0.873047   -1.815002
  H      1.830949    2.546524   -1.933652
  H     -0.402705    3.307141   -1.424478
  H      1.655670    2.838138    0.492797
  C     -1.066830   -0.055568   -0.678523
  H     -0.839730   -0.473660   -1.672031
  Si    -2.680925   -0.985033   -0.248910
  C     -3.236176   -0.861105    1.553565
  H     -2.402580   -0.810420    2.255099
  H     -3.859100    0.018576    1.725257
  H     -3.836227   -1.737458    1.814907
  C     -2.542998   -2.829672   -0.645763
  H     -3.550181   -3.255785   -0.655736
  H     -2.108502   -3.014036   -1.632118
  H     -1.971503   -3.396593    0.092247
  C     -4.084692   -0.338337   -1.324876
  H     -3.835659   -0.392371   -2.388146
  H     -4.982314   -0.942197   -1.165474
  H     -4.341215    0.697721   -1.095398
  B      0.205918   -0.355897    0.264425
  C      1.643333   -1.397009   -0.571471
  H      1.629088   -1.462605   -1.650811
  C      0.636693   -2.078745    0.118838
  H     -0.092224   -2.582630   -0.500403
  C      0.254590   -1.765441    1.423968
  H      0.991039   -1.491769    2.163692
  H     -0.664011   -2.203803    1.788720
  C      2.962165   -1.099541    0.003351
  O      3.292147   -1.208529    1.159300
  O      3.812323   -0.697194   -0.960753
  C      5.131246   -0.368366   -0.523291
  H      5.674842   -0.080957   -1.419382
  H      5.100711    0.458565    0.187161
  H      5.602290   -1.227584   -0.046346

 Total Charge           Charge          ....    0
 Multiplicity           Mult            ....    1
 Number of Electrons    NEL             ....  168
 Basis Dimension        Dim             .... 3110

ORBITAL ENERGIES
----------------

  NO   OCC          E(Eh)            E(eV)
   0   2.0000     -68.745443     -1870.6586
   1   2.0000     -20.597073      -560.4748
   2   2.0000     -20.532698      -558.7231
   3   2.0000     -11.377149      -309.5880
   4   2.0000     -11.292148      -307.2750
   5   2.0000     -11.281386      -306.9821
   6   2.0000     -11.244226      -305.9709
   7   2.0000     -11.236203      -305.7526
   8   2.0000     -11.216557      -305.2180
   9   2.0000     -11.205199      -304.9090
  10   2.0000     -11.204965      -304.9026
  11   2.0000     -11.204811      -304.8984
  12   2.0000     -11.203458      -304.8616
  13   2.0000     -11.203046      -304.8504
  14   2.0000     -11.202173      -304.8266
  15   2.0000     -11.199053      -304.7417
  16   2.0000     -11.192937      -304.5753
  17   2.0000     -11.191101      -304.5253
  18   2.0000     -11.189874      -304.4920
  19   2.0000     -11.183722      -304.3245
  20   2.0000      -7.601395      -206.8445
  21   2.0000      -6.093972      -165.8254
  22   2.0000      -4.200557      -114.3030
  23   2.0000      -4.200383      -114.2982
  24   2.0000      -4.200049      -114.2891
  25   2.0000      -1.459321       -39.7102
  26   2.0000      -1.355346       -36.8808
  27   2.0000      -1.154496       -31.4154
  28   2.0000      -1.104711       -30.0607
  29   2.0000      -1.039921       -28.2977
  30   2.0000      -1.035858       -28.1871
  31   2.0000      -1.010949       -27.5093
  32   2.0000      -0.973177       -26.4815
  33   2.0000      -0.945441       -25.7268
  34   2.0000      -0.943400       -25.6712
  35   2.0000      -0.925073       -25.1725
  36   2.0000      -0.919643       -25.0248
  37   2.0000      -0.908579       -24.7237
  38   2.0000      -0.873137       -23.7593
  39   2.0000      -0.828736       -22.5510
  40   2.0000      -0.791129       -21.5277
  41   2.0000      -0.780432       -21.2366
  42   2.0000      -0.759143       -20.6573
  43   2.0000      -0.710707       -19.3393
  44   2.0000      -0.700526       -19.0623
  45   2.0000      -0.683602       -18.6018
  46   2.0000      -0.677116       -18.4253
  47   2.0000      -0.662198       -18.0193
  48   2.0000      -0.658220       -17.9111
  49   2.0000      -0.635096       -17.2818
  50   2.0000      -0.618228       -16.8228
  51   2.0000      -0.614912       -16.7326
  52   2.0000      -0.597720       -16.2648
  53   2.0000      -0.592531       -16.1236
  54   2.0000      -0.588415       -16.0116
  55   2.0000      -0.573049       -15.5934
  56   2.0000      -0.570105       -15.5134
  57   2.0000      -0.568936       -15.4815
  58   2.0000      -0.562748       -15.3132
  59   2.0000      -0.558781       -15.2052
  60   2.0000      -0.551700       -15.0125
  61   2.0000      -0.549937       -14.9645
  62   2.0000      -0.540223       -14.7002
  63   2.0000      -0.539158       -14.6712
  64   2.0000      -0.534485       -14.5441
  65   2.0000      -0.529077       -14.3969
  66   2.0000      -0.528019       -14.3681
  67   2.0000      -0.524705       -14.2780
  68   2.0000      -0.505600       -13.7581
  69   2.0000      -0.484416       -13.1816
  70   2.0000      -0.479392       -13.0449
  71   2.0000      -0.468350       -12.7444
  72   2.0000      -0.459922       -12.5151
  73   2.0000      -0.457250       -12.4424
  74   2.0000      -0.448720       -12.2103
  75   2.0000      -0.443061       -12.0563
  76   2.0000      -0.439805       -11.9677
  77   2.0000      -0.428026       -11.6472
  78   2.0000      -0.424976       -11.5642
  79   2.0000      -0.414641       -11.2830
  80   2.0000      -0.407502       -11.0887
  81   2.0000      -0.398919       -10.8551
  82   2.0000      -0.380546       -10.3552
  83   2.0000      -0.336305        -9.1513
  84   0.0000       0.018580         0.5056
  85   0.0000       0.024279         0.6607
  86   0.0000       0.025252         0.6871
  87   0.0000       0.026421         0.7190
  88   0.0000       0.033509         0.9118

MULLIKEN ATOMIC CHARGES
-----------------------
   0 C :   -1.005966
   1 C :    0.841420
   2 C :    0.998928
   3 H :    0.275782
   4 C :   -1.084199
   5 H :    0.230667
   6 H :   -0.009447
   7 H :    0.422804
   8 H :    0.277579
   9 C :   -0.322041
  10 H :   -0.032375
  11 H :    0.112789
  12 C :   -0.863836
  13 H :    0.596342
  14 H :   -0.055354
  15 C :   -0.783572
  16 H :   -0.045452
  17 C :   -0.716591
  18 H :    0.226917
  19 H :    0.061842
  20 H :    0.077701
  21 H :    0.063371
  22 C :   -1.566071
  23 H :    0.012584
  24 Si:    1.628197
  25 C :   -1.153253
  26 H :    0.215759
  27 H :    0.223448
  28 H :    0.187459
  29 C :   -0.882631
  30 H :    0.134079
  31 H :    0.244518
  32 H :    0.198659
  33 C :   -0.756946
  34 H :    0.223312
  35 H :    0.191248
  36 H :    0.276441
  37 B :    2.698177
  38 C :   -0.630188
  39 H :    0.163615
  40 C :   -0.364159
  41 H :    0.554062
  42 C :   -1.001510
  43 H :   -0.025269
  44 H :    0.306607
  45 C :    1.943773
  46 O :   -1.292135
  47 O :   -0.984193
  48 C :   -0.996579
  49 H :    0.418127
  50 H :    0.364175
  51 H :    0.401385
Sum of atomic charges:    0.0000000

LOEWDIN ATOMIC CHARGES
----------------------
   0 C :    0.581908
   1 C :    0.334696
   2 C :    0.157940
   3 H :   -0.293102
   4 C :    0.586547
   5 H :   -0.264742
   6 H :   -0.245562
   7 H :   -0.342249
   8 H :   -0.376588
   9 C :    0.580733
  10 H :   -0.248523
  11 H :   -0.297782
  12 C :    0.563761
  13 H :   -0.331455
  14 H :   -0.245820
  15 C :    0.597621
  16 H :   -0.253962
  17 C :    0.578304
  18 H :   -0.310779
  19 H :   -0.246391
  20 H :   -0.269554
  21 H :   -0.273018
  22 C :    0.435857
  23 H :   -0.325386
  24 Si:    0.182055
  25 C :    1.030210
  26 H :   -0.348671
  27 H :   -0.330904
  28 H :   -0.319059
  29 C :    1.015537
  30 H :   -0.325969
  31 H :   -0.310388
  32 H :   -0.344137
  33 C :    1.013575
  34 H :   -0.315573
  35 H :   -0.326748
  36 H :   -0.333872
  37 B :   -0.979013
  38 C :    0.336986
  39 H :   -0.288194
  40 C :    0.378586
  41 H :   -0.326289
  42 C :    0.824594
  43 H :   -0.291999
  44 H :   -0.275469
  45 C :   -1.066760
  46 O :    0.793517
  47 O :    0.873725
  48 C :    0.584631
  49 H :   -0.317355
  50 H :   -0.313270
  51 H :   -0.312204

  Mayer bond orders larger than 0.100000
B(  0-C ,  1-C ) :   0.4838 B(  0-C ,  3-H ) :   0.9171 B(  0-C , 17-C ) :   0.9796
B(  0-C , 21-H ) :   1.3153 B(  0-C , 37-B ) :  -0.3087 B(  0-C , 47-O ) :  -0.1292
B(  1-C ,  2-C ) :   0.1104 B(  1-C ,  4-C ) :  -0.3753 B(  1-C ,  5-H ) :  -0.3422
B(  1-C ,  6-H ) :  -0.1494 B(  1-C ,  8-H ) :   0.8450 B(  1-C ,  9-C ) :  -0.4096
B(  1-C , 11-H ) :  -0.1202 B(  1-C , 21-H ) :  -0.1352 B(  1-C , 22-C ) :  -0.1253
B(  1-C , 37-B ) :   0.8267 B(  1-C , 46-O ) :  -0.3902 B(  2-C ,  7-H ) :   1.1010
B(  2-C ,  9-C ) :  -0.1068 B(  2-C , 12-C ) :   0.4038 B(  2-C , 13-H ) :  -0.1400
B(  2-C , 16-H ) :  -0.3006 B(  2-C , 17-C ) :   0.2179 B(  2-C , 20-H ) :  -0.3035
B(  2-C , 22-C ) :   0.5450 B(  2-C , 24-Si) :  -0.3246 B(  2-C , 37-B ) :  -0.2673
B(  3-H , 37-B ) :  -0.1038 B(  3-H , 47-O ) :   0.1166 B(  4-C ,  5-H ) :   1.3691
B(  4-C ,  6-H ) :   1.3982 B(  4-C ,  9-C ) :   0.7329 B(  4-C , 10-H ) :  -0.1579
B(  4-C , 22-C ) :   0.1635 B(  4-C , 37-B ) :  -0.4329 B(  5-H , 37-B ) :  -0.2312
B(  7-H , 15-C ) :  -0.1773 B(  7-H , 22-C ) :  -0.2149 B(  8-H , 46-O ) :   0.1256
B(  9-C , 10-H ) :   1.2769 B(  9-C , 11-H ) :   1.2356 B(  9-C , 12-C ) :   0.6089
B( 10-H , 12-C ) :  -0.1260 B( 12-C , 13-H ) :   0.7196 B( 12-C , 14-H ) :   1.3625
B( 12-C , 37-B ) :   0.2667 B( 13-H , 14-H ) :  -0.1012 B( 15-C , 16-H ) :   1.4675
B( 15-C , 17-C ) :   0.5845 B( 15-C , 18-H ) :  -0.1229 B( 15-C , 20-H ) :   1.4332
B( 16-H , 17-C ) :  -0.1196 B( 17-C , 18-H ) :   1.0650 B( 17-C , 19-H ) :   1.1834
B( 22-C , 23-H ) :   1.0963 B( 22-C , 24-Si) :   1.0313 B( 22-C , 25-C ) :   0.3458
B( 22-C , 29-C ) :   0.3644 B( 22-C , 33-C ) :   0.1229 B( 22-C , 37-B ) :   0.6254
B( 22-C , 40-C ) :  -0.2972 B( 23-H , 37-B ) :  -0.1406 B( 24-Si, 25-C ) :   0.1816
B( 24-Si, 29-C ) :   0.9163 B( 24-Si, 30-H ) :  -0.1197 B( 24-Si, 31-H ) :  -0.1673
B( 24-Si, 32-H ) :  -0.1560 B( 24-Si, 33-C ) :   0.5243 B( 24-Si, 34-H ) :  -0.1588
B( 24-Si, 35-H ) :  -0.2114 B( 24-Si, 36-H ) :  -0.1821 B( 24-Si, 40-C ) :  -0.1479
B( 24-Si, 42-C ) :  -0.2009 B( 24-Si, 44-H ) :  -0.1294 B( 25-C , 26-H ) :   0.9941
B( 25-C , 27-H ) :   1.0285 B( 25-C , 28-H ) :   1.1088 B( 25-C , 29-C ) :   0.1128
B( 25-C , 33-C ) :   0.1030 B( 25-C , 37-B ) :   0.1572 B( 29-C , 30-H ) :   1.1198
B( 29-C , 31-H ) :   1.0289 B( 29-C , 32-H ) :   1.0149 B( 29-C , 33-C ) :   0.1603
B( 29-C , 37-B ) :  -0.2809 B( 33-C , 34-H ) :   1.0648 B( 33-C , 35-H ) :   1.1222
B( 33-C , 36-H ) :   0.9942 B( 33-C , 37-B ) :  -0.1869 B( 37-B , 38-C ) :  -0.2384
B( 37-B , 39-H ) :  -0.1583 B( 37-B , 42-C ) :  -0.4523 B( 37-B , 43-H ) :  -0.3393
B( 37-B , 45-C ) :  -0.2403 B( 37-B , 46-O ) :   0.1355 B( 38-C , 39-H ) :   1.2843
B( 38-C , 40-C ) :   0.8766 B( 38-C , 41-H ) :  -0.4628 B( 38-C , 42-C ) :  -0.3943
B( 38-C , 45-C ) :   1.6868 B( 38-C , 46-O ) :   0.2788 B( 40-C , 41-H ) :   0.9755
B( 40-C , 42-C ) :   1.3633 B( 40-C , 44-H ) :  -0.1198 B( 40-C , 45-C ) :  -0.1435
B( 40-C , 46-O ) :   0.1102 B( 41-H , 42-C ) :  -0.1372 B( 42-C , 43-H ) :   1.5460
B( 42-C , 44-H ) :   1.1267 B( 45-C , 46-O ) :   0.3475 B( 45-C , 47-O ) :   0.5975
B( 45-C , 48-C ) :  -0.2947 B( 46-O , 47-O ) :   0.2308 B( 47-O , 48-C ) :   1.0164
B( 48-C , 49-H ) :   0.8911 B( 48-C , 50-H ) :   0.8822 B( 48-C , 51-H ) :   0.8919

MP2 TOTAL ENERGY:    -1129.371973615 Eh
FINAL SINGLE POINT ENERGY     -1129.371973614659

DIPOLE MOMENT
-------------
                                X             Y             Z
Electronic contribution:     14.38489      -8.26023       0.07325
Nuclear contribution   :    -14.53823       8.02838      -0.63431
                        -----------------------------------------
Total Dipole Moment    :     -0.15334      -0.23185      -0.56106
                        -----------------------------------------
Magnitude (a.u.)       :      0.62614
Magnitude (Debye)      :      1.59153

Rotational constants in cm-1:     0.014855     0.007537     0.006362
Rotational constants in MHz :   445.344117   225.961528   190.726648

                             ****ORCA TERMINATED NORMALLY****
TOTAL RUN TIME: 0 days 17 hours 55 minutes 48 seconds 763 msec
