                         Program Version 4.2.1 -  RELEASE  -
|  1> %pal
|  2>  nprocs 32
|  3> end
|  4> !RI-MP2 aug-cc-pVQZ aug-cc-pVQZ/C TightSCF
|  5> %maxcore 4500
|  6> *xyzfile -1 1  09_4TS.xyz
|  7>
|  8>
|  9>                          ****END OF INPUT****

CARTESIAN COORDINATES (ANGSTROEM)
---------------------------------
  C     -1.748819    1.141747   -0.373565
  C     -1.222917   -0.188060    0.151598
  C     -0.295167   -0.107935    1.208538
  O     -1.555997   -1.243161   -0.435799
  C      1.483508    0.255754   -0.004787
  H     -2.526207    1.533784    0.290237
  H     -0.933327    1.871354   -0.411925
  H     -2.174313    0.996259   -1.368166
  H     -0.063836   -1.024640    1.742823
  H     -0.196510    0.816510    1.759000
  C      1.734269   -1.172144   -0.308769
  H      2.054302   -1.714057    0.585995
  H      2.526545   -1.253137   -1.062951
  H      0.829791   -1.658614   -0.681751
  C      1.780374    1.457667   -0.134479
  H      2.544043    2.055655   -0.598077

 Total Charge           Charge          ....   -1
 Multiplicity           Mult            ....    1
 Number of Electrons    NEL             ....   54
 Basis Dimension        Dim             ....  974

ORBITAL ENERGIES
----------------

  NO   OCC          E(Eh)            E(eV)
   0   2.0000     -20.317956      -552.8797
   1   2.0000     -11.122623      -302.6620
   2   2.0000     -11.088688      -301.7385
   3   2.0000     -11.078854      -301.4709
   4   2.0000     -11.054757      -300.8152
   5   2.0000     -11.011950      -299.6504
   6   2.0000     -11.010539      -299.6120
   7   2.0000      -1.152172       -31.3522
   8   2.0000      -0.889712       -24.2103
   9   2.0000      -0.842597       -22.9282
  10   2.0000      -0.773224       -21.0405
  11   2.0000      -0.753807       -20.5121
  12   2.0000      -0.538715       -14.6592
  13   2.0000      -0.517840       -14.0912
  14   2.0000      -0.447789       -12.1850
  15   2.0000      -0.446763       -12.1570
  16   2.0000      -0.433126       -11.7860
  17   2.0000      -0.430505       -11.7146
  18   2.0000      -0.420514       -11.4428
  19   2.0000      -0.406019       -11.0483
  20   2.0000      -0.368143       -10.0177
  21   2.0000      -0.339201        -9.2301
  22   2.0000      -0.306671        -8.3449
  23   2.0000      -0.224851        -6.1185
  24   2.0000      -0.212060        -5.7705
  25   2.0000      -0.195538        -5.3209
  26   2.0000      -0.081048        -2.2054
  27   0.0000       0.111115         3.0236
  28   0.0000       0.113164         3.0793
  29   0.0000       0.118622         3.2279
  30   0.0000       0.120485         3.2786
  31   0.0000       0.130329         3.5464

MULLIKEN ATOMIC CHARGES
-----------------------
   0 C :   -0.983031
   1 C :    0.942157
   2 C :   -0.802409
   3 O :   -1.028946
   4 C :    0.034757
   5 H :    0.267613
   6 H :    0.273105
   7 H :    0.259226
   8 H :    0.233714
   9 H :    0.248464
  10 C :   -0.737157
  11 H :    0.258486
  12 H :    0.295317
  13 H :    0.291041
  14 C :   -0.909029
  15 H :    0.356690
Sum of atomic charges:   -1.0000000

LOEWDIN ATOMIC CHARGES
----------------------
   0 C :    0.815719
   1 C :   -0.828914
   2 C :    0.511676
   3 O :    0.621593
   4 C :   -0.085821
   5 H :   -0.305187
   6 H :   -0.359845
   7 H :   -0.332649
   8 H :   -0.376793
   9 H :   -0.399491
  10 C :    0.793644
  11 H :   -0.317901
  12 H :   -0.313731
  13 H :   -0.387163
  14 C :    0.499042
  15 H :   -0.534181

  Mayer bond orders larger than 0.100000
B(  0-C ,  1-C ) :   0.8544 B(  0-C ,  3-O ) :   0.1187 B(  0-C ,  5-H ) :   0.9577
B(  0-C ,  6-H ) :   0.8946 B(  0-C ,  7-H ) :   0.9903 B(  1-C ,  2-C ) :   1.2492
B(  1-C ,  3-O ) :   0.8409 B(  2-C ,  3-O ) :   0.1650 B(  2-C ,  4-C ) :   0.4138
B(  2-C ,  8-H ) :   0.9494 B(  2-C ,  9-H ) :   1.0126 B(  4-C , 10-C ) :   0.6764
B(  4-C , 14-C ) :   2.0767 B( 10-C , 11-H ) :   0.9686 B( 10-C , 12-H ) :   0.9406
B( 10-C , 13-H ) :   0.9477 B( 14-C , 15-H ) :   0.9029

MP2 TOTAL ENERGY:     -308.656572644 Eh
FINAL SINGLE POINT ENERGY      -308.656572644281

DIPOLE MOMENT
-------------
                                X             Y             Z
Electronic contribution:     -1.67695      -1.62918      -0.33670
Nuclear contribution   :      2.08628       1.64315       0.25445
                        -----------------------------------------
Total Dipole Moment    :      0.40933       0.01397      -0.08225
                        -----------------------------------------
Magnitude (a.u.)       :      0.41775
Magnitude (Debye)      :      1.06184

Rotational constants in cm-1:     0.122564     0.064712     0.051226
Rotational constants in MHz :  3674.364237  1940.005408  1535.711666

                             ****ORCA TERMINATED NORMALLY****
TOTAL RUN TIME: 0 days 0 hours 26 minutes 41 seconds 265 msec
