                         Program Version 4.2.1 -  RELEASE  -
|  1> %pal
|  2>  nprocs 32
|  3> end
|  4> !RI-MP2 aug-cc-pVQZ aug-cc-pVQZ/C TightSCF
|  5> %maxcore 4500
|  6> *xyzfile 0 1  02_34TS.xyz
|  7>
|  8>
|  9>                          ****END OF INPUT****

CARTESIAN COORDINATES (ANGSTROEM)
---------------------------------
  C     -0.034324   -1.010743   -0.775456
  C     -2.263689   -0.731982    0.097381
  C      0.427816    0.075260   -0.018041
  H      0.124582    0.068704    1.022531
  C     -2.232378    0.688608    0.032345
  C     -3.678467    1.138138    0.033077
  C     -1.293806   -1.518049   -0.520080
  H     -1.609789   -2.470198   -0.936478
  H      0.544440   -1.383594   -1.610931
  C     -3.652207   -1.150873    0.261253
  C      1.705790    0.782420   -0.279915
  C      1.877737    2.039324    0.582492
  H      1.890977    1.786860    1.646341
  H      1.064859    2.747228    0.431556
  H      1.770271    1.041596   -1.342940
  H      2.811780    2.552906    0.353458
  N     -1.188348    1.430587   -0.094211
  C     -1.299390    2.794302   -0.571164
  H     -1.180923    3.500132    0.256574
  H     -0.492433    2.985370   -1.281312
  H     -2.244249    3.008171   -1.080576
  O     -4.124657   -2.248088    0.337180
  O     -4.445645   -0.024339    0.311194
  H     -3.976994    1.541823   -0.938388
  H     -3.875351    1.886072    0.803556
  Si     3.180534   -0.417506    0.048196
  C      3.286188   -1.755996   -1.261545
  C      4.760728    0.595842   -0.013255
  C      2.971640   -1.189560    1.743261
  H      4.235826   -2.288636   -1.161435
  H      2.486307   -2.490970   -1.166421
  H      3.250165   -1.340974   -2.272041
  H      4.849226    1.147233   -0.953086
  H      4.824026    1.315008    0.805396
  H      5.628635   -0.064562    0.061697
  H      2.911644   -0.434317    2.530473
  H      2.066629   -1.799420    1.791251
  H      3.819913   -1.838192    1.976392

 Total Charge           Charge          ....    0
 Multiplicity           Mult            ....    1
 Number of Electrons    NEL             ....  136
 Basis Dimension        Dim             .... 2330

ORBITAL ENERGIES
----------------

  NO   OCC          E(Eh)            E(eV)
   0   2.0000     -68.765294     -1871.1988
   1   2.0000     -20.585096      -560.1490
   2   2.0000     -20.513799      -558.2089
   3   2.0000     -15.565301      -423.5534
   4   2.0000     -11.356728      -309.0323
   5   2.0000     -11.305946      -307.6504
   6   2.0000     -11.302893      -307.5674
   7   2.0000     -11.300438      -307.5006
   8   2.0000     -11.266441      -306.5754
   9   2.0000     -11.264853      -306.5322
  10   2.0000     -11.235231      -305.7262
  11   2.0000     -11.232444      -305.6503
  12   2.0000     -11.216891      -305.2271
  13   2.0000     -11.213176      -305.1260
  14   2.0000     -11.208598      -305.0015
  15   2.0000     -11.206176      -304.9356
  16   2.0000     -11.206049      -304.9321
  17   2.0000      -6.114117      -166.3736
  18   2.0000      -4.220608      -114.8486
  19   2.0000      -4.220403      -114.8430
  20   2.0000      -4.220316      -114.8406
  21   2.0000      -1.442893       -39.2631
  22   2.0000      -1.348442       -36.6930
  23   2.0000      -1.250580       -34.0300
  24   2.0000      -1.128091       -30.6969
  25   2.0000      -1.088405       -29.6170
  26   2.0000      -1.026582       -27.9347
  27   2.0000      -0.985147       -26.8072
  28   2.0000      -0.975750       -26.5515
  29   2.0000      -0.953417       -25.9438
  30   2.0000      -0.936327       -25.4788
  31   2.0000      -0.934996       -25.4425
  32   2.0000      -0.917002       -24.9529
  33   2.0000      -0.839313       -22.8389
  34   2.0000      -0.802026       -21.8242
  35   2.0000      -0.763057       -20.7638
  36   2.0000      -0.726186       -19.7605
  37   2.0000      -0.691749       -18.8235
  38   2.0000      -0.683028       -18.5861
  39   2.0000      -0.665332       -18.1046
  40   2.0000      -0.657686       -17.8965
  41   2.0000      -0.635365       -17.2892
  42   2.0000      -0.625919       -17.0321
  43   2.0000      -0.611954       -16.6521
  44   2.0000      -0.606513       -16.5041
  45   2.0000      -0.600966       -16.3531
  46   2.0000      -0.593883       -16.1604
  47   2.0000      -0.577405       -15.7120
  48   2.0000      -0.574432       -15.6311
  49   2.0000      -0.568372       -15.4662
  50   2.0000      -0.559996       -15.2383
  51   2.0000      -0.554498       -15.0887
  52   2.0000      -0.551320       -15.0022
  53   2.0000      -0.546198       -14.8628
  54   2.0000      -0.543545       -14.7906
  55   2.0000      -0.541441       -14.7333
  56   2.0000      -0.533002       -14.5037
  57   2.0000      -0.515547       -14.0287
  58   2.0000      -0.509582       -13.8664
  59   2.0000      -0.491987       -13.3877
  60   2.0000      -0.468011       -12.7352
  61   2.0000      -0.442610       -12.0440
  62   2.0000      -0.441418       -12.0116
  63   2.0000      -0.438922       -11.9437
  64   2.0000      -0.428155       -11.6507
  65   2.0000      -0.408224       -11.1084
  66   2.0000      -0.366729        -9.9792
  67   2.0000      -0.293100        -7.9757
  68   0.0000       0.014267         0.3882
  69   0.0000       0.020970         0.5706
  70   0.0000       0.023904         0.6505
  71   0.0000       0.027188         0.7398
  72   0.0000       0.034563         0.9405

MULLIKEN ATOMIC CHARGES
-----------------------
   0 C :   -0.745861
   1 C :   -0.853273
   2 C :    0.715821
   3 H :    0.328257
   4 C :    0.684283
   5 C :    0.222987
   6 C :   -0.223379
   7 H :    0.243876
   8 H :    0.216524
   9 C :    1.539052
  10 C :    0.036549
  11 C :   -1.376158
  12 H :    0.122796
  13 H :    0.509031
  14 H :    0.116972
  15 H :    0.195159
  16 N :   -0.704412
  17 C :   -1.032365
  18 H :    0.386045
  19 H :    0.299870
  20 H :    0.268544
  21 O :   -0.928450
  22 O :   -1.038548
  23 H :    0.277861
  24 H :    0.330145
  25 Si:    1.529164
  26 C :   -1.204120
  27 C :   -1.105306
  28 C :   -1.245555
  29 H :    0.263785
  30 H :    0.272697
  31 H :    0.287007
  32 H :    0.273958
  33 H :    0.242096
  34 H :    0.297900
  35 H :    0.213763
  36 H :    0.283808
  37 H :    0.299473
Sum of atomic charges:    0.0000000

LOEWDIN ATOMIC CHARGES
----------------------
   0 C :    0.368634
   1 C :   -0.143356
   2 C :    0.179524
   3 H :   -0.337921
   4 C :   -0.331003
   5 C :    0.173266
   6 C :    0.362554
   7 H :   -0.294266
   8 H :   -0.346574
   9 C :   -1.102147
  10 C :    0.221581
  11 C :    0.891274
  12 H :   -0.267916
  13 H :   -0.330025
  14 H :   -0.307754
  15 H :   -0.289436
  16 N :    0.607928
  17 C :    0.725880
  18 H :   -0.285438
  19 H :   -0.301586
  20 H :   -0.317066
  21 O :    0.651511
  22 O :    0.853628
  23 H :   -0.290145
  24 H :   -0.283085
  25 Si:    0.167617
  26 C :    1.003005
  27 C :    1.000361
  28 C :    1.010852
  29 H :   -0.330489
  30 H :   -0.353536
  31 H :   -0.322665
  32 H :   -0.323676
  33 H :   -0.339690
  34 H :   -0.331143
  35 H :   -0.330578
  36 H :   -0.331178
  37 H :   -0.326945

  Mayer bond orders larger than 0.100000
B(  0-C ,  2-C ) :   0.5004 B(  0-C ,  6-C ) :   1.2536 B(  0-C ,  7-H ) :  -0.1510
B(  0-C ,  8-H ) :   1.0475 B(  0-C , 10-C ) :  -0.1754 B(  0-C , 16-N ) :   0.1406
B(  1-C ,  2-C ) :   0.1579 B(  1-C ,  4-C ) :   0.6704 B(  1-C ,  5-C ) :  -0.1052
B(  1-C ,  6-C ) :   0.9812 B(  1-C ,  9-C ) :   1.7106 B(  1-C , 16-N ) :   0.1050
B(  1-C , 21-O ) :   0.5309 B(  1-C , 22-O ) :   0.1406 B(  2-C ,  3-H ) :   0.9219
B(  2-C ,  6-C ) :  -0.4852 B(  2-C , 10-C ) :   1.0097 B(  2-C , 11-C ) :  -0.1083
B(  2-C , 16-N ) :   0.2728 B(  4-C ,  5-C ) :   0.6094 B(  4-C ,  9-C ) :  -0.2770
B(  4-C , 16-N ) :   1.5360 B(  4-C , 23-H ) :  -0.1320 B(  5-C , 22-O ) :   0.2968
B(  5-C , 23-H ) :   0.9779 B(  5-C , 24-H ) :   0.9636 B(  6-C ,  7-H ) :   1.0397
B(  6-C ,  9-C ) :  -0.2032 B(  9-C , 21-O ) :   0.7795 B(  9-C , 22-O ) :   0.7073
B( 10-C , 11-C ) :   0.1873 B( 10-C , 12-H ) :  -0.2485 B( 10-C , 14-H ) :   1.0403
B( 10-C , 15-H ) :  -0.1881 B( 10-C , 25-Si) :   0.1389 B( 11-C , 12-H ) :   1.2542
B( 11-C , 13-H ) :   0.7807 B( 11-C , 15-H ) :   1.1841 B( 16-N , 17-C ) :   0.8324
B( 17-C , 18-H ) :   0.9039 B( 17-C , 19-H ) :   0.9683 B( 17-C , 20-H ) :   0.9393
B( 21-O , 22-O ) :   0.1711 B( 25-Si, 26-C ) :   0.7050 B( 25-Si, 27-C ) :   0.8466
B( 25-Si, 28-C ) :   0.6230 B( 26-C , 29-H ) :   1.0401 B( 26-C , 30-H ) :   0.9902
B( 26-C , 31-H ) :   0.9389 B( 27-C , 32-H ) :   0.9605 B( 27-C , 33-H ) :   0.9968
B( 27-C , 34-H ) :   0.9804 B( 28-C , 35-H ) :   0.9939 B( 28-C , 36-H ) :   0.9485
B( 28-C , 37-H ) :   0.9911

MP2 TOTAL ENERGY:    -1001.078879767 Eh
FINAL SINGLE POINT ENERGY     -1001.078879766947

DIPOLE MOMENT
-------------
                                X             Y             Z
Electronic contribution:    -26.58812      -7.66949       0.52307
Nuclear contribution   :     29.02067       9.61941      -1.07453
                        -----------------------------------------
Total Dipole Moment    :      2.43255       1.94991      -0.55147
                        -----------------------------------------
Magnitude (a.u.)       :      3.16600
Magnitude (Debye)      :      8.04733

Rotational constants in cm-1:     0.027661     0.007406     0.006355
Rotational constants in MHz :   829.258108   222.021080   190.510773

                             ****ORCA TERMINATED NORMALLY****
TOTAL RUN TIME: 0 days 6 hours 48 minutes 6 seconds 925 msec
