                         Program Version 4.2.1 -  RELEASE  -
|  1> %pal
|  2>  nprocs 32
|  3> end
|  4> !RI-MP2 aug-cc-pVQZ aug-cc-pVQZ/C TightSCF
|  5> %maxcore 4500
|  6> *xyzfile 0 1  03_17R1.xyz
|  7>
|  8>
|  9>                          ****END OF INPUT****

CARTESIAN COORDINATES (ANGSTROEM)
---------------------------------
  C     -2.677808    0.000122    0.790560
  C     -1.204243    0.000081    0.534264
  C     -0.513579    1.202702    0.410968
  C     -0.513625   -1.202580    0.411088
  H     -1.047825    2.140849    0.501120
  C      0.848905    1.212315    0.168863
  C      0.848857   -1.212270    0.168982
  C      1.505919    0.000004    0.052512
  H     -1.047909   -2.140697    0.501333
  H      1.404487    2.133894    0.071743
  H      1.404403   -2.133880    0.071951
  N      2.958581   -0.000036   -0.200374
  O      3.513066    1.076900   -0.296743
  O      3.513016   -1.077004   -0.296681
  H     -2.991655    0.887434    1.333661
  H     -2.991661   -0.887033    1.333917
  Cl    -3.612653   -0.000101   -0.758068

 Total Charge           Charge          ....    0
 Multiplicity           Mult            ....    1
 Number of Electrons    NEL             ....   88
 Basis Dimension        Dim             .... 1160

ORBITAL ENERGIES
----------------

  NO   OCC          E(Eh)            E(eV)
   0   2.0000    -104.839442     -2852.8262
   1   2.0000     -20.603132      -560.6397
   2   2.0000     -20.603080      -560.6383
   3   2.0000     -15.856380      -431.4740
   4   2.0000     -11.320317      -308.0415
   5   2.0000     -11.314130      -307.8731
   6   2.0000     -11.287027      -307.1356
   7   2.0000     -11.278896      -306.9144
   8   2.0000     -11.278854      -306.9132
   9   2.0000     -11.269884      -306.6691
  10   2.0000     -11.269830      -306.6677
  11   2.0000     -10.564844      -287.4840
  12   2.0000      -8.031859      -218.5580
  13   2.0000      -8.030144      -218.5113
  14   2.0000      -8.030111      -218.5104
  15   2.0000      -1.617733       -44.0208
  16   2.0000      -1.409137       -38.3446
  17   2.0000      -1.216050       -33.0904
  18   2.0000      -1.157252       -31.4904
  19   2.0000      -1.095119       -29.7997
  20   2.0000      -1.062241       -28.9050
  21   2.0000      -0.992559       -27.0089
  22   2.0000      -0.907999       -24.7079
  23   2.0000      -0.879145       -23.9228
  24   2.0000      -0.824084       -22.4245
  25   2.0000      -0.789531       -21.4842
  26   2.0000      -0.737332       -20.0638
  27   2.0000      -0.729012       -19.8374
  28   2.0000      -0.695862       -18.9354
  29   2.0000      -0.689611       -18.7653
  30   2.0000      -0.656024       -17.8513
  31   2.0000      -0.634322       -17.2608
  32   2.0000      -0.613539       -16.6952
  33   2.0000      -0.596570       -16.2335
  34   2.0000      -0.563165       -15.3245
  35   2.0000      -0.536723       -14.6050
  36   2.0000      -0.533032       -14.5045
  37   2.0000      -0.499898       -13.6029
  38   2.0000      -0.499463       -13.5911
  39   2.0000      -0.460722       -12.5369
  40   2.0000      -0.455327       -12.3901
  41   2.0000      -0.452305       -12.3078
  42   2.0000      -0.378521       -10.3001
  43   2.0000      -0.377467       -10.2714
  44   0.0000       0.018281         0.4974
  45   0.0000       0.024420         0.6645
  46   0.0000       0.028689         0.7807
  47   0.0000       0.031013         0.8439
  48   0.0000       0.041787         1.1371

MULLIKEN ATOMIC CHARGES
-----------------------
   0 C :   -0.203796
   1 C :    0.367863
   2 C :   -0.243562
   3 C :   -0.243396
   4 H :    0.235664
   5 C :   -0.172684
   6 C :   -0.172644
   7 C :   -0.169507
   8 H :    0.235673
   9 H :    0.317918
  10 H :    0.317907
  11 N :    0.781059
  12 O :   -0.610231
  13 O :   -0.610228
  14 H :    0.255459
  15 H :    0.255460
  16 Cl:   -0.340954
Sum of atomic charges:    0.0000000

LOEWDIN ATOMIC CHARGES
----------------------
   0 C :   -0.141801
   1 C :   -0.202151
   2 C :    0.347872
   3 C :    0.347865
   4 H :   -0.310503
   5 C :    0.334609
   6 C :    0.334609
   7 C :   -0.296903
   8 H :   -0.310502
   9 H :   -0.344466
  10 H :   -0.344466
  11 N :   -0.842839
  12 O :    0.549964
  13 O :    0.549963
  14 H :   -0.404975
  15 H :   -0.404967
  16 Cl:    1.138692

  Mayer bond orders larger than 0.100000
B(  0-C ,  1-C ) :   0.8369 B(  0-C ,  2-C ) :  -0.1337 B(  0-C ,  3-C ) :  -0.1337
B(  0-C , 14-H ) :   0.9563 B(  0-C , 15-H ) :   0.9563 B(  0-C , 16-Cl) :   0.7950
B(  1-C ,  2-C ) :   1.0129 B(  1-C ,  3-C ) :   1.0128 B(  1-C ,  5-C ) :  -0.2168
B(  1-C ,  6-C ) :  -0.2167 B(  2-C ,  3-C ) :  -0.1254 B(  2-C ,  4-H ) :   1.0474
B(  2-C ,  5-C ) :   1.3245 B(  2-C ,  6-C ) :   0.1277 B(  2-C ,  7-C ) :  -0.1641
B(  2-C ,  9-H ) :  -0.1095 B(  3-C ,  5-C ) :   0.1277 B(  3-C ,  6-C ) :   1.3244
B(  3-C ,  7-C ) :  -0.1642 B(  3-C ,  8-H ) :   1.0474 B(  3-C , 10-H ) :  -0.1095
B(  4-H ,  5-C ) :  -0.1370 B(  5-C ,  7-C ) :   1.1837 B(  5-C ,  9-H ) :   0.9293
B(  5-C , 11-N ) :  -0.1089 B(  6-C ,  7-C ) :   1.1837 B(  6-C ,  8-H ) :  -0.1370
B(  6-C , 10-H ) :   0.9293 B(  6-C , 11-N ) :  -0.1089 B(  7-C ,  9-H ) :  -0.1107
B(  7-C , 10-H ) :  -0.1106 B(  7-C , 11-N ) :   0.7975 B(  7-C , 12-O ) :   0.2823
B(  7-C , 13-O ) :   0.2823 B( 11-N , 12-O ) :   1.1828 B( 11-N , 13-O ) :   1.1828

MP2 TOTAL ENERGY:     -934.482157010 Eh
FINAL SINGLE POINT ENERGY      -934.482157009739

DIPOLE MOMENT
-------------
                                X             Y             Z
Electronic contribution:     -1.51311      -0.00054      -3.74749
Nuclear contribution   :      0.02545       0.00068       4.70791
                        -----------------------------------------
Total Dipole Moment    :     -1.48766       0.00014       0.96042
                        -----------------------------------------
Magnitude (a.u.)       :      1.77075
Magnitude (Debye)      :      4.50088

Rotational constants in cm-1:     0.098899     0.014021     0.013107
Rotational constants in MHz :  2964.930152   420.340694   392.927840

                             ****ORCA TERMINATED NORMALLY****
TOTAL RUN TIME: 0 days 0 hours 47 minutes 31 seconds 951 msec
