                         Program Version 4.2.1 -  RELEASE  -
|  1> %pal
|  2>  nprocs 32
|  3> end
|  4> !RI-MP2 aug-cc-pVQZ aug-cc-pVQZ/C TightSCF
|  5> %maxcore 4500
|  6> *xyzfile 0 1  04_82R1.xyz
|  7>
|  8>
|  9>                          ****END OF INPUT****

CARTESIAN COORDINATES (ANGSTROEM)
---------------------------------
  O     -1.503362   -0.982751   -1.026767
  C     -1.922564   -0.225321   -0.194273
  O     -3.061930   -0.452429    0.483637
  C     -1.285670    1.077895    0.204435
  C      0.097593    1.240301   -0.396003
  C      1.085899    0.274635    0.206288
  H      0.475230    2.250191   -0.215599
  H      0.084948    1.092703   -1.475859
  C      3.221530   -0.670549   -0.021676
  H      3.541023   -0.367080    0.975126
  H      4.044505   -0.597037   -0.727234
  H      2.840303   -1.690385    0.019804
  O      0.910953   -0.351992    1.217828
  H     -3.416835   -1.298603    0.177026
  O      2.210969    0.215553   -0.514012
  H     -1.949543    1.881315   -0.125124
  H     -1.253402    1.120091    1.293755

 Total Charge           Charge          ....    0
 Multiplicity           Mult            ....    1
 Number of Electrons    NEL             ....   70
 Basis Dimension        Dim             .... 1088

ORBITAL ENERGIES
----------------

  NO   OCC          E(Eh)            E(eV)
   0   2.0000     -20.611227      -560.8600
   1   2.0000     -20.601979      -560.6083
   2   2.0000     -20.548230      -559.1458
   3   2.0000     -20.542357      -558.9859
   4   2.0000     -11.386159      -309.8331
   5   2.0000     -11.378359      -309.6209
   6   2.0000     -11.284000      -307.0533
   7   2.0000     -11.253874      -306.2335
   8   2.0000     -11.251691      -306.1741
   9   2.0000      -1.470470       -40.0135
  10   2.0000      -1.465666       -39.8828
  11   2.0000      -1.366375       -37.1809
  12   2.0000      -1.362587       -37.0779
  13   2.0000      -1.095658       -29.8144
  14   2.0000      -0.996984       -27.1293
  15   2.0000      -0.930175       -25.3113
  16   2.0000      -0.817951       -22.2576
  17   2.0000      -0.769476       -20.9385
  18   2.0000      -0.716040       -19.4844
  19   2.0000      -0.710456       -19.3325
  20   2.0000      -0.701941       -19.1008
  21   2.0000      -0.676120       -18.3982
  22   2.0000      -0.672719       -18.3056
  23   2.0000      -0.651000       -17.7146
  24   2.0000      -0.610579       -16.6147
  25   2.0000      -0.599616       -16.3164
  26   2.0000      -0.565677       -15.3929
  27   2.0000      -0.547902       -14.9092
  28   2.0000      -0.539735       -14.6869
  29   2.0000      -0.525765       -14.3068
  30   2.0000      -0.520705       -14.1691
  31   2.0000      -0.487606       -13.2684
  32   2.0000      -0.464446       -12.6382
  33   2.0000      -0.458424       -12.4743
  34   2.0000      -0.450872       -12.2689
  35   0.0000       0.023509         0.6397
  36   0.0000       0.028649         0.7796
  37   0.0000       0.032144         0.8747
  38   0.0000       0.037571         1.0224
  39   0.0000       0.045855         1.2478

MULLIKEN ATOMIC CHARGES
-----------------------
   0 O :   -0.812468
   1 C :    1.108708
   2 O :   -0.742645
   3 C :   -0.547848
   4 C :   -0.382822
   5 C :    1.175646
   6 H :    0.325485
   7 H :    0.249964
   8 C :   -0.758975
   9 H :    0.316398
  10 H :    0.437736
  11 H :    0.318130
  12 O :   -0.824521
  13 H :    0.348292
  14 O :   -0.760117
  15 H :    0.311267
  16 H :    0.237769
Sum of atomic charges:    0.0000000

LOEWDIN ATOMIC CHARGES
----------------------
   0 O :    0.734265
   1 C :   -1.032621
   2 O :    1.264615
   3 C :    0.425851
   4 C :    0.426580
   5 C :   -1.085597
   6 H :   -0.272690
   7 H :   -0.305117
   8 C :    0.581534
   9 H :   -0.315186
  10 H :   -0.322713
  11 H :   -0.314481
  12 O :    0.746160
  13 H :   -0.809949
  14 O :    0.859400
  15 H :   -0.275034
  16 H :   -0.305017

  Mayer bond orders larger than 0.100000
B(  0-O ,  1-C ) :   1.4102 B(  0-O ,  3-C ) :   0.1188 B(  1-C ,  2-O ) :   0.7742
B(  1-C ,  3-C ) :   1.0781 B(  2-O , 13-H ) :   0.9172 B(  3-C ,  4-C ) :   1.1364
B(  3-C ,  5-C ) :  -0.1156 B(  3-C , 15-H ) :   0.8978 B(  3-C , 16-H ) :   0.8911
B(  4-C ,  5-C ) :   0.9296 B(  4-C ,  6-H ) :   0.8483 B(  4-C ,  7-H ) :   0.8972
B(  5-C , 12-O ) :   1.2892 B(  5-C , 14-O ) :   0.8903 B(  8-C ,  9-H ) :   0.9047
B(  8-C , 10-H ) :   0.8235 B(  8-C , 11-H ) :   0.9096 B(  8-C , 14-O ) :   0.8958

MP2 TOTAL ENERGY:     -495.607809410 Eh
FINAL SINGLE POINT ENERGY      -495.607809409764

DIPOLE MOMENT
-------------
                                X             Y             Z
Electronic contribution:     -4.24383      -1.63614      -0.06414
Nuclear contribution   :      4.32211       2.35478      -0.07520
                        -----------------------------------------
Total Dipole Moment    :      0.07828       0.71864      -0.13934
                        -----------------------------------------
Magnitude (a.u.)       :      0.73620
Magnitude (Debye)      :      1.87127

Rotational constants in cm-1:     0.125593     0.028436     0.027527
Rotational constants in MHz :  3765.195303   852.491575   825.253089

                             ****ORCA TERMINATED NORMALLY****
TOTAL RUN TIME: 0 days 0 hours 30 minutes 27 seconds 831 msec
