                         Program Version 4.2.1 -  RELEASE  -
|  1> %pal
|  2>  nprocs 32
|  3> end
|  4> !RI-MP2 aug-cc-pVQZ aug-cc-pVQZ/C TightSCF
|  5> %maxcore 4500
|  6> *xyzfile -1 1  09_4P.xyz
|  7>
|  8>
|  9>                          ****END OF INPUT****

CARTESIAN COORDINATES (ANGSTROEM)
---------------------------------
  C     -1.782882    1.076111   -0.393469
  C     -1.193591   -0.218024    0.112762
  C     -0.004411   -0.071825    1.016188
  O     -1.639918   -1.298585   -0.234190
  C      1.233487    0.237817    0.146900
  H     -2.426827    1.490954    0.389996
  H     -0.974238    1.790423   -0.572778
  H     -2.380454    0.897106   -1.288020
  C      1.870969   -1.031509   -0.398955
  H      2.244998   -1.681591    0.406639
  H      2.712370   -0.779352   -1.048376
  H      1.161200   -1.639471   -0.975888
  C      1.597094    1.509575   -0.079867
  H      2.492140    1.519846   -0.736535
  H      0.115695   -0.997287    1.589297
  H     -0.149536    0.775182    1.687839

 Total Charge           Charge          ....   -1
 Multiplicity           Mult            ....    1
 Number of Electrons    NEL             ....   54
 Basis Dimension        Dim             ....  974

ORBITAL ENERGIES
----------------

  NO   OCC          E(Eh)            E(eV)
   0   2.0000     -20.389208      -554.8186
   1   2.0000     -11.174562      -304.0753
   2   2.0000     -11.079430      -301.4866
   3   2.0000     -11.060174      -300.9626
   4   2.0000     -11.053395      -300.7782
   5   2.0000     -11.025395      -300.0162
   6   2.0000     -10.973691      -298.6093
   7   2.0000      -1.230784       -33.4913
   8   2.0000      -0.912703       -24.8359
   9   2.0000      -0.853090       -23.2138
  10   2.0000      -0.783178       -21.3114
  11   2.0000      -0.716187       -19.4884
  12   2.0000      -0.585340       -15.9279
  13   2.0000      -0.510815       -13.9000
  14   2.0000      -0.486414       -13.2360
  15   2.0000      -0.484280       -13.1779
  16   2.0000      -0.443830       -12.0772
  17   2.0000      -0.414522       -11.2797
  18   2.0000      -0.399746       -10.8777
  19   2.0000      -0.394734       -10.7413
  20   2.0000      -0.381449       -10.3798
  21   2.0000      -0.350869        -9.5476
  22   2.0000      -0.326687        -8.8896
  23   2.0000      -0.291029        -7.9193
  24   2.0000      -0.259600        -7.0641
  25   2.0000      -0.132539        -3.6066
  26   2.0000      -0.102832        -2.7982
  27   0.0000       0.111022         3.0211
  28   0.0000       0.115543         3.1441
  29   0.0000       0.115885         3.1534
  30   0.0000       0.125852         3.4246
  31   0.0000       0.130482         3.5506

MULLIKEN ATOMIC CHARGES
-----------------------
   0 C :   -0.983455
   1 C :    0.864522
   2 C :   -0.497571
   3 O :   -0.894080
   4 C :    0.146767
   5 H :    0.272029
   6 H :    0.290431
   7 H :    0.285172
   8 C :   -0.867781
   9 H :    0.222940
  10 H :    0.276255
  11 H :    0.208371
  12 C :   -1.068004
  13 H :    0.132655
  14 H :    0.304389
  15 H :    0.307359
Sum of atomic charges:   -1.0000000

LOEWDIN ATOMIC CHARGES
----------------------
   0 C :    0.855589
   1 C :   -0.710436
   2 C :    0.339167
   3 O :    0.699823
   4 C :   -0.291704
   5 H :   -0.295392
   6 H :   -0.365467
   7 H :   -0.317553
   8 C :    0.797661
   9 H :   -0.306057
  10 H :   -0.343998
  11 H :   -0.313317
  12 C :    0.505299
  13 H :   -0.574834
  14 H :   -0.327372
  15 H :   -0.351408

  Mayer bond orders larger than 0.100000
B(  0-C ,  1-C ) :   0.8714 B(  0-C ,  3-O ) :   0.1148 B(  0-C ,  5-H ) :   0.9383
B(  0-C ,  6-H ) :   0.9022 B(  0-C ,  7-H ) :   0.9675 B(  1-C ,  2-C ) :   0.8916
B(  1-C ,  3-O ) :   1.0631 B(  2-C ,  3-O ) :   0.1547 B(  2-C ,  4-C ) :   0.7644
B(  2-C , 14-H ) :   0.9338 B(  2-C , 15-H ) :   0.9370 B(  4-C ,  8-C ) :   0.7058
B(  4-C , 12-C ) :   1.1947 B(  8-C ,  9-H ) :   1.0078 B(  8-C , 10-H ) :   0.9985
B(  8-C , 11-H ) :   0.9972 B( 12-C , 13-H ) :   1.1445

MP2 TOTAL ENERGY:     -308.690551254 Eh
FINAL SINGLE POINT ENERGY      -308.690551254285

DIPOLE MOMENT
-------------
                                X             Y             Z
Electronic contribution:     -4.22871      -2.50914       0.71848
Nuclear contribution   :      2.83795       1.38884      -0.56515
                        -----------------------------------------
Total Dipole Moment    :     -1.39076      -1.12030       0.15333
                        -----------------------------------------
Magnitude (a.u.)       :      1.79243
Magnitude (Debye)      :      4.55600

Rotational constants in cm-1:     0.134316     0.067186     0.052562
Rotational constants in MHz :  4026.705958  2014.185119  1575.756766

                             ****ORCA TERMINATED NORMALLY****
TOTAL RUN TIME: 0 days 0 hours 25 minutes 17 seconds 900 msec
