                         Program Version 4.2.1 -  RELEASE  -
|  1> %pal
|  2>  nprocs 32
|  3> end
|  4> !RI-MP2 aug-cc-pVQZ aug-cc-pVQZ/C TightSCF
|  5> %maxcore 4500
|  6> *xyzfile 0 1  06_16P.xyz
|  7>
|  8>
|  9>                          ****END OF INPUT****

CARTESIAN COORDINATES (ANGSTROEM)
---------------------------------
  C     -1.545972    1.519652   -1.605620
  H     -1.487852    1.326855   -2.677564
  H     -1.001553   -0.573850   -1.342076
  C      1.339358   -0.114034   -0.169057
  C      0.921262    0.492790    3.409930
  B      4.043838   -1.379705   -0.715042
  C      3.609942   -1.052930   -2.192677
  H      4.396400   -1.309734   -2.905685
  C      5.020957   -2.560765   -0.389414
  H      5.085483   -2.774298    0.678418
  C      0.498020    2.167587   -0.812052
  O      1.456562    2.859958   -0.640365
  H     -1.791982    1.096556    1.089028
  C     -3.128606   -0.409905    0.343710
  C     -5.528215   -0.125325    0.265114
  C     -4.562045   -2.254623   -0.275203
  H     -2.424818   -2.376233   -0.151281
  H     -6.672099   -1.850484   -0.302848
  H     -4.145013    1.420119    0.810963
  H     -2.559567    1.808663   -1.340041
  C     -1.012213    0.354581   -0.774749
  N      0.363089    0.803144   -0.553706
  C      2.701730    0.418104    0.266605
  O      3.612148   -0.651838    0.357166
  C      1.975497    0.165441    2.676747
  C      2.598913    1.065818    1.654837
  O      1.064284   -1.288132   -0.154963
  H      3.311918   -0.017289   -2.374180
  H      2.748101   -1.683256   -2.440563
  H      6.027688   -2.317534   -0.748858
  H      4.728316   -3.474070   -0.916256
  O     -0.669534    2.618792   -1.303280
  C     -1.744990    0.143827    0.554653
  H     -1.150233   -0.539805    1.162055
  C     -4.258130    0.388036    0.496393
  C     -5.682812   -1.447390   -0.123884
  C     -3.296315   -1.739057   -0.042767
  H     -4.675649   -3.290878   -0.570162
  H     -6.397145    0.508926    0.393217
  H      0.503517   -0.190141    4.139810
  H      0.443323    1.462930    3.313968
  H      3.625366    1.306861    1.944866
  H      2.052377    2.005134    1.576146
  H      2.432100   -0.812960    2.792061
  H      3.044563    1.169926   -0.443723

 Total Charge           Charge          ....    0
 Multiplicity           Mult            ....    1
 Number of Electrons    NEL             ....  168
 Basis Dimension        Dim             .... 2852

ORBITAL ENERGIES
----------------

  NO   OCC          E(Eh)            E(eV)
   0   2.0000     -20.622478      -561.1662
   1   2.0000     -20.558952      -559.4375
   2   2.0000     -20.552666      -559.2665
   3   2.0000     -20.552460      -559.2609
   4   2.0000     -15.628730      -425.2794
   5   2.0000     -11.429357      -311.0086
   6   2.0000     -11.377825      -309.6064
   7   2.0000     -11.315890      -307.9210
   8   2.0000     -11.304326      -307.6064
   9   2.0000     -11.300675      -307.5070
  10   2.0000     -11.252123      -306.1858
  11   2.0000     -11.245663      -306.0100
  12   2.0000     -11.244552      -305.9798
  13   2.0000     -11.244008      -305.9650
  14   2.0000     -11.242617      -305.9272
  15   2.0000     -11.240990      -305.8829
  16   2.0000     -11.240673      -305.8743
  17   2.0000     -11.233997      -305.6926
  18   2.0000     -11.232285      -305.6460
  19   2.0000     -11.221478      -305.3519
  20   2.0000     -11.189312      -304.4767
  21   2.0000     -11.179248      -304.2028
  22   2.0000      -7.602096      -206.8636
  23   2.0000      -1.500595       -40.8333
  24   2.0000      -1.427298       -38.8388
  25   2.0000      -1.394613       -37.9493
  26   2.0000      -1.375163       -37.4201
  27   2.0000      -1.277757       -34.7695
  28   2.0000      -1.172438       -31.9037
  29   2.0000      -1.101942       -29.9854
  30   2.0000      -1.088812       -29.6281
  31   2.0000      -1.035830       -28.1864
  32   2.0000      -1.027529       -27.9605
  33   2.0000      -1.013748       -27.5855
  34   2.0000      -0.962507       -26.1911
  35   2.0000      -0.957109       -26.0443
  36   2.0000      -0.929733       -25.2993
  37   2.0000      -0.921453       -25.0740
  38   2.0000      -0.880470       -23.9588
  39   2.0000      -0.865495       -23.5513
  40   2.0000      -0.840350       -22.8671
  41   2.0000      -0.810400       -22.0521
  42   2.0000      -0.780626       -21.2419
  43   2.0000      -0.762727       -20.7549
  44   2.0000      -0.742530       -20.2053
  45   2.0000      -0.726286       -19.7632
  46   2.0000      -0.710987       -19.3470
  47   2.0000      -0.706455       -19.2236
  48   2.0000      -0.692635       -18.8476
  49   2.0000      -0.663773       -18.0622
  50   2.0000      -0.659220       -17.9383
  51   2.0000      -0.651769       -17.7355
  52   2.0000      -0.646659       -17.5965
  53   2.0000      -0.638767       -17.3817
  54   2.0000      -0.626809       -17.0563
  55   2.0000      -0.623305       -16.9610
  56   2.0000      -0.608889       -16.5687
  57   2.0000      -0.598215       -16.2783
  58   2.0000      -0.595204       -16.1963
  59   2.0000      -0.588115       -16.0034
  60   2.0000      -0.583116       -15.8674
  61   2.0000      -0.578179       -15.7330
  62   2.0000      -0.574246       -15.6260
  63   2.0000      -0.558482       -15.1971
  64   2.0000      -0.553411       -15.0591
  65   2.0000      -0.540172       -14.6988
  66   2.0000      -0.529958       -14.4209
  67   2.0000      -0.525358       -14.2957
  68   2.0000      -0.520618       -14.1667
  69   2.0000      -0.515765       -14.0347
  70   2.0000      -0.510221       -13.8838
  71   2.0000      -0.505505       -13.7555
  72   2.0000      -0.501317       -13.6415
  73   2.0000      -0.497015       -13.5245
  74   2.0000      -0.495181       -13.4746
  75   2.0000      -0.485274       -13.2050
  76   2.0000      -0.475117       -12.9286
  77   2.0000      -0.469343       -12.7715
  78   2.0000      -0.444526       -12.0962
  79   2.0000      -0.429461       -11.6862
  80   2.0000      -0.426993       -11.6191
  81   2.0000      -0.367075        -9.9886
  82   2.0000      -0.350007        -9.5242
  83   2.0000      -0.341828        -9.3016
  84   0.0000       0.017797         0.4843
  85   0.0000       0.023463         0.6385
  86   0.0000       0.025390         0.6909
  87   0.0000       0.026996         0.7346
  88   0.0000       0.030861         0.8398

MULLIKEN ATOMIC CHARGES
-----------------------
   0 C :   -0.187437
   1 H :    0.257682
   2 H :    0.232765
   3 C :    1.602590
   4 C :   -0.933170
   5 B :    1.055310
   6 C :   -1.106994
   7 H :    0.325697
   8 C :   -1.141283
   9 H :    0.323450
  10 C :    1.510837
  11 O :   -1.029359
  12 H :    0.225516
  13 C :    0.606629
  14 C :   -0.372408
  15 C :   -0.406743
  16 H :    0.328699
  17 H :    0.361057
  18 H :    0.215059
  19 H :    0.433144
  20 C :   -0.139621
  21 N :   -0.586530
  22 C :    1.433004
  23 O :   -1.585237
  24 C :   -0.399110
  25 C :   -0.511532
  26 O :   -1.315755
  27 H :    0.266962
  28 H :    0.311929
  29 H :    0.293483
  30 H :    0.328051
  31 O :   -1.140320
  32 C :   -0.406635
  33 H :    0.368844
  34 C :   -0.593354
  35 C :   -0.328327
  36 C :   -0.597326
  37 H :    0.217345
  38 H :    0.221743
  39 H :    0.318525
  40 H :    0.348898
  41 H :    0.296165
  42 H :    0.277174
  43 H :    0.238439
  44 H :    0.382143
Sum of atomic charges:    0.0000000

LOEWDIN ATOMIC CHARGES
----------------------
   0 C :    0.248896
   1 H :   -0.262786
   2 H :   -0.294315
   3 C :   -0.834104
   4 C :    0.803513
   5 B :   -0.905086
   6 C :    1.065788
   7 H :   -0.293707
   8 C :    1.050966
   9 H :   -0.310525
  10 C :   -1.203501
  11 O :    0.733724
  12 H :   -0.278692
  13 C :   -0.066807
  14 C :    0.349804
  15 C :    0.353629
  16 H :   -0.302640
  17 H :   -0.321247
  18 H :   -0.310890
  19 H :   -0.298319
  20 C :   -0.050553
  21 N :    0.406740
  22 C :   -0.280780
  23 O :    1.014524
  24 C :    0.361009
  25 C :    0.473868
  26 O :    0.817962
  27 H :   -0.309593
  28 H :   -0.292668
  29 H :   -0.299888
  30 H :   -0.301291
  31 O :    0.889014
  32 C :    0.507056
  33 H :   -0.293257
  34 C :    0.349614
  35 C :    0.340033
  36 C :    0.357294
  37 H :   -0.316996
  38 H :   -0.317781
  39 H :   -0.345322
  40 H :   -0.344668
  41 H :   -0.263896
  42 H :   -0.344040
  43 H :   -0.311095
  44 H :   -0.368987

  Mayer bond orders larger than 0.100000
B(  0-C ,  1-H ) :   1.0792 B(  0-C , 19-H ) :   0.8546 B(  0-C , 20-C ) :   0.7858
B(  0-C , 21-N ) :  -0.1578 B(  0-C , 31-O ) :   0.3264 B(  1-H , 20-C ) :  -0.1515
B(  2-H , 20-C ) :   0.9260 B(  3-C ,  4-C ) :   0.1034 B(  3-C , 20-C ) :   0.1644
B(  3-C , 21-N ) :   0.3726 B(  3-C , 22-C ) :   0.7089 B(  3-C , 23-O ) :   0.3806
B(  3-C , 25-C ) :   0.1285 B(  4-C , 24-C ) :   1.6992 B(  4-C , 25-C ) :  -0.2293
B(  4-C , 39-H ) :   1.0321 B(  4-C , 40-H ) :   0.8821 B(  5-B ,  6-C ) :   1.0188
B(  5-B ,  8-C ) :   0.9757 B(  5-B , 22-C ) :  -0.1206 B(  6-C ,  7-H ) :   0.9355
B(  6-C , 22-C ) :  -0.1299 B(  6-C , 27-H ) :   0.9331 B(  6-C , 28-H ) :   0.8585
B(  8-C ,  9-H ) :   0.8796 B(  8-C , 23-O ) :  -0.1634 B(  8-C , 29-H ) :   0.9287
B(  8-C , 30-H ) :   0.9036 B( 10-C , 11-O ) :   1.0275 B( 10-C , 21-N ) :   1.4244
B( 10-C , 31-O ) :   0.6729 B( 11-O , 21-N ) :   0.3536 B( 11-O , 22-C ) :  -0.1301
B( 12-H , 32-C ) :   0.9533 B( 13-C , 14-C ) :  -0.3787 B( 13-C , 15-C ) :  -0.3582
B( 13-C , 32-C ) :   0.7452 B( 13-C , 34-C ) :   0.8246 B( 13-C , 36-C ) :   0.8862
B( 14-C , 34-C ) :   1.4025 B( 14-C , 35-C ) :   1.1629 B( 14-C , 36-C ) :   0.1725
B( 14-C , 38-H ) :   1.1831 B( 15-C , 34-C ) :   0.1373 B( 15-C , 35-C ) :   1.1433
B( 15-C , 36-C ) :   1.3356 B( 15-C , 37-H ) :   1.1809 B( 16-H , 36-C ) :   0.9346
B( 17-H , 35-C ) :   0.9822 B( 18-H , 34-C ) :   1.0852 B( 20-C , 21-N ) :   0.8847
B( 20-C , 31-O ) :   0.1810 B( 20-C , 32-C ) :   0.8207 B( 21-N , 22-C ) :   0.1199
B( 21-N , 26-O ) :   0.5203 B( 22-C , 23-O ) :   0.3255 B( 22-C , 24-C ) :  -0.2613
B( 22-C , 25-C ) :   0.3334 B( 22-C , 26-O ) :   0.2681 B( 22-C , 42-H ) :  -0.1145
B( 22-C , 44-H ) :   0.9312 B( 24-C , 25-C ) :   0.9853 B( 24-C , 39-H ) :  -0.1436
B( 24-C , 43-H ) :   1.0107 B( 25-C , 41-H ) :   1.0724 B( 25-C , 42-H ) :   1.0304
B( 32-C , 33-H ) :   0.8717 B( 32-C , 34-C ) :  -0.4183 B( 32-C , 36-C ) :  -0.2526
B( 34-C , 38-H ) :  -0.1653 B( 36-C , 37-H ) :  -0.1599

MP2 TOTAL ENERGY:    -1039.955105383 Eh
FINAL SINGLE POINT ENERGY     -1039.955105383440

DIPOLE MOMENT
-------------
                                X             Y             Z
Electronic contribution:     -4.29777       7.67292      -2.66623
Nuclear contribution   :      2.92612      -7.94086       2.23519
                        -----------------------------------------
Total Dipole Moment    :     -1.37165      -0.26794      -0.43105
                        -----------------------------------------
Magnitude (a.u.)       :      1.46254
Magnitude (Debye)      :      3.71748

Rotational constants in cm-1:     0.014084     0.004807     0.004550
Rotational constants in MHz :   422.221142   144.110657   136.412898

                             ****ORCA TERMINATED NORMALLY****
TOTAL RUN TIME: 0 days 11 hours 14 minutes 41 seconds 434 msec
