                         Program Version 4.2.1 -  RELEASE  -
|  1> %pal
|  2>  nprocs 32
|  3> end
|  4> !RI-MP2 aug-cc-pVQZ aug-cc-pVQZ/C TightSCF
|  5> %maxcore 4500
|  6> *xyzfile 0 1  10_2R1.xyz
|  7>
|  8>
|  9>                          ****END OF INPUT****

CARTESIAN COORDINATES (ANGSTROEM)
---------------------------------
  C     -2.573466   -0.149838   -1.328218
  C     -1.191320    0.453713   -1.099891
  C     -0.408574   -0.157516    0.100551
  C     -1.331480   -0.369160    1.324830
  C     -2.743895   -0.845195    1.066575
  C     -3.454401   -0.126080   -0.082137
  C      0.617556    0.911558    0.427247
  C      0.132625    2.213614   -0.120438
  C     -1.174096    1.962495   -0.844572
  O      0.675514    3.283150   -0.005457
  C      0.130433   -1.573702   -0.200899
  C      1.071706   -1.743232   -1.407579
  C      2.239532   -0.815100   -1.554606
  N      3.174594   -0.621806   -0.678555
  O      4.122992    0.214005   -0.826028
  C      1.763318    0.877188    1.102319
  C      2.450072   -0.315656    1.695403
  C      3.125548   -1.252691    0.648961
  O     -0.910890   -0.240805    2.447037
  C     -4.822991   -0.741659   -0.347254
  H     -0.588612    0.276523   -1.995144
  H     -1.981346    2.273152   -0.172598
  H     -1.248393    2.570756   -1.745616
  H     -2.471428   -1.188200   -1.665730
  H     -3.068024    0.386132   -2.143640
  H     -0.719725   -2.236830   -0.380854
  H      0.601179   -1.953926    0.704164
  H     -3.293350   -0.760392    2.004972
  H     -2.683920   -1.915111    0.828380
  H     -3.609730    0.915826    0.217590
  H     -4.725218   -1.786365   -0.657405
  H     -5.348069   -0.205097   -1.140551
  H     -5.449446   -0.715877    0.547046
  H      1.415194   -2.784562   -1.399448
  H      0.490594   -1.645213   -2.325680
  H      1.734565   -0.895738    2.279419
  H      3.216894    0.035536    2.383381
  H      2.611115   -2.207113    0.571745
  H      4.164140   -1.433037    0.910115
  H      2.366727   -0.229860   -2.455488
  H      2.280366    1.828817    1.179055

 Total Charge           Charge          ....    0
 Multiplicity           Mult            ....    1
 Number of Electrons    NEL             ....  148
 Basis Dimension        Dim             .... 2566

ORBITAL ENERGIES
----------------

  NO   OCC          E(Eh)            E(eV)
   0   2.0000     -20.557458      -559.3969
   1   2.0000     -20.533626      -558.7484
   2   2.0000     -20.498452      -557.7912
   3   2.0000     -15.709492      -427.4770
   4   2.0000     -11.340208      -308.5827
   5   2.0000     -11.322338      -308.0965
   6   2.0000     -11.287689      -307.1536
   7   2.0000     -11.286232      -307.1140
   8   2.0000     -11.270655      -306.6901
   9   2.0000     -11.268937      -306.6434
  10   2.0000     -11.263102      -306.4846
  11   2.0000     -11.256800      -306.3131
  12   2.0000     -11.253298      -306.2178
  13   2.0000     -11.252157      -306.1867
  14   2.0000     -11.247910      -306.0712
  15   2.0000     -11.247417      -306.0578
  16   2.0000     -11.245226      -305.9982
  17   2.0000     -11.239348      -305.8382
  18   2.0000     -11.233628      -305.6826
  19   2.0000     -11.232748      -305.6586
  20   2.0000      -1.439162       -39.1616
  21   2.0000      -1.406487       -38.2725
  22   2.0000      -1.381419       -37.5903
  23   2.0000      -1.188734       -32.3471
  24   2.0000      -1.164586       -31.6900
  25   2.0000      -1.120381       -30.4871
  26   2.0000      -1.097127       -29.8543
  27   2.0000      -1.071588       -29.1594
  28   2.0000      -1.029907       -28.0252
  29   2.0000      -1.012390       -27.5485
  30   2.0000      -0.980463       -26.6798
  31   2.0000      -0.969964       -26.3941
  32   2.0000      -0.916398       -24.9365
  33   2.0000      -0.885109       -24.0850
  34   2.0000      -0.849847       -23.1255
  35   2.0000      -0.812412       -22.1069
  36   2.0000      -0.805131       -21.9087
  37   2.0000      -0.767945       -20.8968
  38   2.0000      -0.738437       -20.0939
  39   2.0000      -0.722295       -19.6547
  40   2.0000      -0.699431       -19.0325
  41   2.0000      -0.687723       -18.7139
  42   2.0000      -0.671028       -18.2596
  43   2.0000      -0.662394       -18.0247
  44   2.0000      -0.662191       -18.0191
  45   2.0000      -0.655351       -17.8330
  46   2.0000      -0.639153       -17.3922
  47   2.0000      -0.634274       -17.2595
  48   2.0000      -0.626318       -17.0430
  49   2.0000      -0.618737       -16.8367
  50   2.0000      -0.611029       -16.6269
  51   2.0000      -0.603538       -16.4231
  52   2.0000      -0.586443       -15.9579
  53   2.0000      -0.583171       -15.8689
  54   2.0000      -0.570344       -15.5198
  55   2.0000      -0.561876       -15.2894
  56   2.0000      -0.558707       -15.2032
  57   2.0000      -0.551486       -15.0067
  58   2.0000      -0.537176       -14.6173
  59   2.0000      -0.533734       -14.5236
  60   2.0000      -0.523758       -14.2522
  61   2.0000      -0.520675       -14.1683
  62   2.0000      -0.509670       -13.8688
  63   2.0000      -0.508572       -13.8390
  64   2.0000      -0.499855       -13.6017
  65   2.0000      -0.498548       -13.5662
  66   2.0000      -0.481884       -13.1127
  67   2.0000      -0.469200       -12.7676
  68   2.0000      -0.461536       -12.5590
  69   2.0000      -0.414709       -11.2848
  70   2.0000      -0.409364       -11.1394
  71   2.0000      -0.397299       -10.8111
  72   2.0000      -0.366151        -9.9635
  73   2.0000      -0.328286        -8.9331
  74   0.0000       0.011144         0.3032
  75   0.0000       0.018867         0.5134
  76   0.0000       0.021327         0.5803
  77   0.0000       0.026475         0.7204
  78   0.0000       0.033348         0.9074

MULLIKEN ATOMIC CHARGES
-----------------------
   0 C :   -0.523161
   1 C :    0.026601
   2 C :    1.325076
   3 C :    1.926502
   4 C :   -0.568163
   5 C :    0.188160
   6 C :   -0.131034
   7 C :    1.547452
   8 C :   -1.064999
   9 O :   -1.074955
  10 C :   -0.499543
  11 C :   -0.472967
  12 C :   -0.087222
  13 N :    0.150591
  14 O :   -1.113663
  15 C :   -0.634706
  16 C :   -0.555818
  17 C :   -0.629305
  18 O :   -1.260283
  19 C :   -1.069365
  20 H :    0.342041
  21 H :    0.122162
  22 H :    0.136998
  23 H :    0.131283
  24 H :    0.087470
  25 H :    0.160679
  26 H :    0.237559
  27 H :    0.180976
  28 H :    0.188391
  29 H :    0.193263
  30 H :    0.163911
  31 H :    0.211841
  32 H :    0.215780
  33 H :    0.231697
  34 H :    0.130937
  35 H :    0.265972
  36 H :    0.242967
  37 H :    0.272228
  38 H :    0.500446
  39 H :    0.364791
  40 H :    0.139411
Sum of atomic charges:    0.0000000

LOEWDIN ATOMIC CHARGES
----------------------
   0 C :    0.554696
   1 C :    0.132288
   2 C :   -0.260235
   3 C :   -0.598288
   4 C :    0.520136
   5 C :    0.127403
   6 C :   -0.072658
   7 C :   -0.635799
   8 C :    0.539761
   9 O :    0.755005
  10 C :    0.546824
  11 C :    0.569036
  12 C :    0.249647
  13 N :   -0.204779
  14 O :    0.534337
  15 C :    0.389677
  16 C :    0.581256
  17 C :    0.397622
  18 O :    0.815110
  19 C :    0.948169
  20 H :   -0.284955
  21 H :   -0.275403
  22 H :   -0.247356
  23 H :   -0.257091
  24 H :   -0.240939
  25 H :   -0.272275
  26 H :   -0.326694
  27 H :   -0.281968
  28 H :   -0.271264
  29 H :   -0.275289
  30 H :   -0.269586
  31 H :   -0.265517
  32 H :   -0.265898
  33 H :   -0.256778
  34 H :   -0.292224
  35 H :   -0.296976
  36 H :   -0.271770
  37 H :   -0.325952
  38 H :   -0.289732
  39 H :   -0.305082
  40 H :   -0.316462

  Mayer bond orders larger than 0.100000
B(  0-C ,  1-C ) :   0.6312 B(  0-C ,  2-C ) :  -0.2611 B(  0-C ,  5-C ) :   0.5788
B(  0-C , 20-H ) :  -0.1706 B(  0-C , 23-H ) :   1.2096 B(  0-C , 24-H ) :   1.1999
B(  1-C ,  2-C ) :   0.4767 B(  1-C ,  5-C ) :  -0.2021 B(  1-C ,  6-C ) :   0.1711
B(  1-C ,  8-C ) :   0.6311 B(  1-C , 20-H ) :   1.0147 B(  1-C , 21-H ) :  -0.2102
B(  1-C , 22-H ) :  -0.1091 B(  1-C , 24-H ) :  -0.1625 B(  2-C ,  3-C ) :   0.9730
B(  2-C ,  5-C ) :   0.1594 B(  2-C ,  6-C ) :   0.5899 B(  2-C ,  7-C ) :  -0.1617
B(  2-C ,  8-C ) :  -0.1845 B(  2-C ,  9-O ) :   0.3255 B(  2-C , 10-C ) :   0.2534
B(  2-C , 13-N ) :  -0.1757 B(  2-C , 18-O ) :   0.6557 B(  2-C , 20-H ) :  -0.1388
B(  2-C , 25-H ) :  -0.2895 B(  2-C , 26-H ) :  -0.2414 B(  2-C , 28-H ) :  -0.1174
B(  3-C ,  4-C ) :   1.1259 B(  3-C ,  6-C ) :  -0.2278 B(  3-C , 10-C ) :   0.2417
B(  3-C , 15-C ) :  -0.1058 B(  3-C , 18-O ) :  -0.4531 B(  3-C , 28-H ) :   0.1218
B(  4-C ,  5-C ) :   0.5346 B(  4-C , 18-O ) :   0.2419 B(  4-C , 19-C ) :   0.1271
B(  4-C , 27-H ) :   1.0794 B(  4-C , 28-H ) :   0.9567 B(  5-C , 19-C ) :   0.3859
B(  5-C , 29-H ) :   1.0615 B(  5-C , 30-H ) :  -0.1678 B(  5-C , 31-H ) :  -0.1211
B(  5-C , 32-H ) :  -0.1865 B(  6-C ,  7-C ) :   1.0004 B(  6-C ,  8-C ) :  -0.3444
B(  6-C ,  9-O ) :   0.6588 B(  6-C , 10-C ) :  -0.1032 B(  6-C , 14-O ) :  -0.1189
B(  6-C , 15-C ) :   1.1592 B(  6-C , 16-C ) :  -0.1653 B(  6-C , 40-H ) :  -0.2463
B(  7-C ,  8-C ) :   1.5065 B(  7-C ,  9-O ) :  -0.5808 B(  7-C , 15-C ) :  -0.1724
B(  7-C , 22-H ) :   0.1055 B(  8-C ,  9-O ) :   0.4401 B(  8-C , 21-H ) :   1.1116
B(  8-C , 22-H ) :   1.1585 B(  9-O , 40-H ) :   0.1715 B( 10-C , 11-C ) :   0.4582
B( 10-C , 12-C ) :  -0.1148 B( 10-C , 25-H ) :   1.2245 B( 10-C , 26-H ) :   1.1338
B( 10-C , 33-H ) :  -0.1001 B( 10-C , 34-H ) :  -0.1125 B( 11-C , 12-C ) :   0.8883
B( 11-C , 13-N ) :  -0.1479 B( 11-C , 33-H ) :   1.1038 B( 11-C , 34-H ) :   1.1685
B( 12-C , 13-N ) :   1.5735 B( 12-C , 14-O ) :   0.1208 B( 12-C , 17-C ) :  -0.1616
B( 12-C , 34-H ) :  -0.1596 B( 12-C , 39-H ) :   0.8987 B( 13-N , 14-O ) :   0.2649
B( 13-N , 15-C ) :   0.1306 B( 13-N , 16-C ) :  -0.1027 B( 13-N , 17-C ) :   0.7466
B( 14-O , 15-C ) :   0.2279 B( 14-O , 17-C ) :   0.2700 B( 14-O , 38-H ) :  -0.1584
B( 15-C , 16-C ) :   0.8603 B( 15-C , 36-H ) :  -0.1601 B( 15-C , 40-H ) :   1.1773
B( 16-C , 17-C ) :   0.9796 B( 16-C , 35-H ) :   0.9384 B( 16-C , 36-H ) :   1.0503
B( 17-C , 37-H ) :   0.9863 B( 17-C , 38-H ) :   0.8597 B( 19-C , 30-H ) :   1.0983
B( 19-C , 31-H ) :   1.0942 B( 19-C , 32-H ) :   1.1297

MP2 TOTAL ENERGY:     -901.223837631 Eh
FINAL SINGLE POINT ENERGY      -901.223837631392

DIPOLE MOMENT
-------------
                                X             Y             Z
Electronic contribution:     14.00207       9.16179       3.75272
Nuclear contribution   :    -16.38019     -11.73293      -4.47679
                        -----------------------------------------
Total Dipole Moment    :     -2.37812      -2.57114      -0.72407
                        -----------------------------------------
Magnitude (a.u.)       :      3.57638
Magnitude (Debye)      :      9.09044

Rotational constants in cm-1:     0.020482     0.008749     0.008242
Rotational constants in MHz :   614.021630   262.284160   247.088565

                             ****ORCA TERMINATED NORMALLY****
TOTAL RUN TIME: 0 days 11 hours 15 minutes 22 seconds 919 msec
