                         Program Version 4.2.1 -  RELEASE  -
|  1> %pal
|  2>  nprocs 32
|  3> end
|  4> !RI-MP2 aug-cc-pVQZ aug-cc-pVQZ/C TightSCF
|  5> %maxcore 4500
|  6> *xyzfile 0 1  10_43TS.xyz
|  7>
|  8>
|  9>                          ****END OF INPUT****

CARTESIAN COORDINATES (ANGSTROEM)
---------------------------------
  C      0.042101   -2.587548    0.080725
  H     -0.342214   -3.365581   -0.604927
  C      1.209212   -1.865766   -0.567011
  C     -0.252545    0.130975   -0.872163
  H     -0.433107    0.962437   -0.194101
  H     -0.298884    0.538236   -1.886670
  C     -1.389281   -0.874823   -0.672618
  H     -1.466923   -1.516964   -1.571687
  N     -1.029808   -1.698491    0.474422
  C      2.168392    0.374131   -0.212731
  C      2.344053   -2.627079   -0.819169
  H      2.803882   -2.593054   -1.788499
  H      2.390339   -3.615829   -0.360766
  C      3.430399   -0.138298    0.115077
  C      4.043953   -1.206936   -0.513844
  C      1.122059   -0.461696   -0.657160
  H      3.991809   -1.196159   -1.590511
  H      3.924453    0.265913    0.996970
  C      5.274645   -1.860390    0.050219
  H      5.355032   -2.899025   -0.275958
  H      6.180007   -1.345683   -0.288317
  H      5.264757   -1.850936    1.141284
  C     -2.150903   -2.416299    1.047555
  H     -2.652134   -3.052360    0.294600
  H     -1.770881   -3.078249    1.828873
  C     -2.716980   -0.166065   -0.504762
  C     -3.540590   -0.406332    0.593714
  C     -3.138104   -1.422685    1.629167
  H     -2.670966   -0.920356    2.481815
  H     -4.024323   -1.942146    2.002371
  H      0.421964   -3.106687    0.967859
  C     -4.744233    0.287209    0.708812
  H     -5.382166    0.093197    1.564738
  C     -3.129291    0.746401   -1.475976
  H     -2.503531    0.922632   -2.343352
  C     -5.138059    1.204520   -0.249319
  H     -6.077576    1.733337   -0.143208
  C     -4.326001    1.430623   -1.354078
  H     -4.626987    2.136036   -2.119177
  Si     1.855281    2.160866    0.358359
  C      0.744917    2.231245    1.877027
  H      1.187514    1.649126    2.689333
  H      0.646193    3.263884    2.223817
  H     -0.258577    1.839919    1.705567
  C      3.501642    2.931500    0.842634
  H      4.229459    2.874396    0.030261
  H      3.352601    3.987388    1.084873
  H      3.943426    2.456626    1.721360
  C      1.147778    3.209809   -1.034737
  H      0.114282    2.960100   -1.276460
  H      1.175539    4.265742   -0.751651
  H      1.742745    3.096400   -1.944585

 Total Charge           Charge          ....    0
 Multiplicity           Mult            ....    1
 Number of Electrons    NEL             ....  176
 Basis Dimension        Dim             .... 3178

ORBITAL ENERGIES
----------------

  NO   OCC          E(Eh)            E(eV)
   0   2.0000     -68.741648     -1870.5553
   1   2.0000     -15.542662      -422.9373
   2   2.0000     -11.257575      -306.3342
   3   2.0000     -11.249902      -306.1254
   4   2.0000     -11.247168      -306.0510
   5   2.0000     -11.241922      -305.9083
   6   2.0000     -11.233477      -305.6784
   7   2.0000     -11.232938      -305.6638
   8   2.0000     -11.232247      -305.6450
   9   2.0000     -11.228066      -305.5312
  10   2.0000     -11.227718      -305.5217
  11   2.0000     -11.226949      -305.5008
  12   2.0000     -11.226032      -305.4759
  13   2.0000     -11.225267      -305.4551
  14   2.0000     -11.225016      -305.4482
  15   2.0000     -11.222500      -305.3798
  16   2.0000     -11.219474      -305.2974
  17   2.0000     -11.217776      -305.2512
  18   2.0000     -11.212338      -305.1032
  19   2.0000     -11.207675      -304.9764
  20   2.0000     -11.187364      -304.4237
  21   2.0000     -11.186224      -304.3926
  22   2.0000     -11.185320      -304.3680
  23   2.0000      -6.090104      -165.7202
  24   2.0000      -4.196716      -114.1985
  25   2.0000      -4.196491      -114.1923
  26   2.0000      -4.196412      -114.1902
  27   2.0000      -1.253891       -34.1201
  28   2.0000      -1.156014       -31.4567
  29   2.0000      -1.123540       -30.5731
  30   2.0000      -1.073021       -29.1984
  31   2.0000      -1.058899       -28.8141
  32   2.0000      -1.046558       -28.4783
  33   2.0000      -1.012793       -27.5595
  34   2.0000      -0.994738       -27.0682
  35   2.0000      -0.967296       -26.3215
  36   2.0000      -0.954456       -25.9721
  37   2.0000      -0.924176       -25.1481
  38   2.0000      -0.914941       -24.8968
  39   2.0000      -0.912737       -24.8368
  40   2.0000      -0.885118       -24.0853
  41   2.0000      -0.856529       -23.3073
  42   2.0000      -0.835745       -22.7418
  43   2.0000      -0.817595       -22.2479
  44   2.0000      -0.808583       -22.0027
  45   2.0000      -0.764628       -20.8066
  46   2.0000      -0.744652       -20.2630
  47   2.0000      -0.694343       -18.8940
  48   2.0000      -0.673391       -18.3239
  49   2.0000      -0.666637       -18.1401
  50   2.0000      -0.653187       -17.7741
  51   2.0000      -0.643241       -17.5035
  52   2.0000      -0.633679       -17.2433
  53   2.0000      -0.627541       -17.0763
  54   2.0000      -0.609671       -16.5900
  55   2.0000      -0.596711       -16.2373
  56   2.0000      -0.591894       -16.1063
  57   2.0000      -0.588800       -16.0221
  58   2.0000      -0.580891       -15.8068
  59   2.0000      -0.571401       -15.5486
  60   2.0000      -0.564231       -15.3535
  61   2.0000      -0.559252       -15.2180
  62   2.0000      -0.557652       -15.1745
  63   2.0000      -0.553008       -15.0481
  64   2.0000      -0.547214       -14.8904
  65   2.0000      -0.542951       -14.7744
  66   2.0000      -0.535181       -14.5630
  67   2.0000      -0.531452       -14.4616
  68   2.0000      -0.527641       -14.3578
  69   2.0000      -0.523195       -14.2369
  70   2.0000      -0.521453       -14.1894
  71   2.0000      -0.518476       -14.1084
  72   2.0000      -0.515118       -14.0171
  73   2.0000      -0.505677       -13.7602
  74   2.0000      -0.495964       -13.4959
  75   2.0000      -0.486118       -13.2279
  76   2.0000      -0.474704       -12.9174
  77   2.0000      -0.458436       -12.4747
  78   2.0000      -0.452748       -12.3199
  79   2.0000      -0.435708       -11.8562
  80   2.0000      -0.420238       -11.4353
  81   2.0000      -0.418182       -11.3793
  82   2.0000      -0.409852       -11.1526
  83   2.0000      -0.361198        -9.8287
  84   2.0000      -0.328110        -8.9283
  85   2.0000      -0.321339        -8.7441
  86   2.0000      -0.296996        -8.0817
  87   2.0000      -0.278686        -7.5834
  88   0.0000       0.019925         0.5422
  89   0.0000       0.023992         0.6528
  90   0.0000       0.025266         0.6875
  91   0.0000       0.027008         0.7349
  92   0.0000       0.031487         0.8568

MULLIKEN ATOMIC CHARGES
-----------------------
   0 C :   -0.182041
   1 H :    0.276936
   2 C :   -0.220088
   3 C :   -0.424067
   4 H :    0.384985
   5 H :    0.122180
   6 C :    1.302423
   7 H :    0.237175
   8 N :   -0.091666
   9 C :   -1.118048
  10 C :   -0.884438
  11 H :    0.276569
  12 H :    0.256902
  13 C :   -0.312796
  14 C :   -0.110847
  15 C :    0.736639
  16 H :    0.185406
  17 H :    0.223719
  18 C :   -0.975976
  19 H :    0.270372
  20 H :    0.258156
  21 H :    0.243969
  22 C :   -0.934300
  23 H :    0.290807
  24 H :    0.234659
  25 C :    0.751125
  26 C :    0.243150
  27 C :   -0.665312
  28 H :    0.209926
  29 H :    0.206579
  30 H :    0.169613
  31 C :   -0.665374
  32 H :    0.215201
  33 C :   -0.830670
  34 H :    0.101233
  35 C :   -0.441199
  36 H :    0.261653
  37 C :   -0.451297
  38 H :    0.190884
  39 Si:    1.834861
  40 C :   -1.318078
  41 H :    0.206452
  42 H :    0.254833
  43 H :    0.323536
  44 C :   -0.889449
  45 H :    0.287753
  46 H :    0.274639
  47 H :    0.262998
  48 C :   -1.414871
  49 H :    0.302035
  50 H :    0.262947
  51 H :    0.270201
Sum of atomic charges:   -0.0000000

LOEWDIN ATOMIC CHARGES
----------------------
   0 C :    0.328846
   1 H :   -0.257248
   2 C :   -0.019032
   3 C :    0.475544
   4 H :   -0.380320
   5 H :   -0.263346
   6 C :   -0.044359
   7 H :   -0.253521
   8 N :    0.537581
   9 C :    0.066394
  10 C :    0.747777
  11 H :   -0.366002
  12 H :   -0.286658
  13 C :    0.285505
  14 C :    0.306113
  15 C :   -0.035731
  16 H :   -0.350870
  17 H :   -0.354682
  18 C :    0.928205
  19 H :   -0.291729
  20 H :   -0.278204
  21 H :   -0.294255
  22 C :    0.356709
  23 H :   -0.239495
  24 H :   -0.271505
  25 C :   -0.029286
  26 C :   -0.036975
  27 C :    0.524875
  28 H :   -0.256072
  29 H :   -0.273277
  30 H :   -0.276943
  31 C :    0.359067
  32 H :   -0.312268
  33 C :    0.361271
  34 H :   -0.314447
  35 C :    0.349822
  36 H :   -0.320499
  37 C :    0.357530
  38 H :   -0.319074
  39 Si:    0.140508
  40 C :    1.018065
  41 H :   -0.326073
  42 H :   -0.327493
  43 H :   -0.344461
  44 C :    0.982990
  45 H :   -0.326975
  46 H :   -0.332542
  47 H :   -0.339004
  48 C :    1.006587
  49 H :   -0.354059
  50 H :   -0.332008
  51 H :   -0.324980

  Mayer bond orders larger than 0.100000
B(  0-C ,  1-H ) :   1.0298 B(  0-C ,  3-C ) :  -0.1186 B(  0-C ,  8-N ) :   1.1909
B(  0-C , 10-C ) :  -0.2463 B(  0-C , 30-H ) :   1.1678 B(  1-H ,  2-C ) :  -0.1447
B(  2-C ,  3-C ) :  -0.1445 B(  2-C ,  6-C ) :   0.2061 B(  2-C ,  8-N ) :   0.1240
B(  2-C ,  9-C ) :  -0.3213 B(  2-C , 10-C ) :   1.4088 B(  2-C , 11-H ) :  -0.2389
B(  2-C , 12-H ) :  -0.1753 B(  2-C , 15-C ) :   1.0617 B(  2-C , 30-H ) :  -0.2112
B(  3-C ,  4-H ) :   0.9071 B(  3-C ,  5-H ) :   0.8793 B(  3-C ,  6-C ) :   0.8519
B(  3-C ,  7-H ) :   0.1484 B(  3-C ,  9-C ) :  -0.4622 B(  3-C , 15-C ) :  -0.2267
B(  3-C , 33-C ) :   0.3095 B(  3-C , 39-Si) :   0.4023 B(  3-C , 40-C ) :   0.1280
B(  3-C , 44-C ) :  -0.1246 B(  4-H ,  5-H ) :   0.1263 B(  4-H , 15-C ) :   0.1905
B(  4-H , 25-C ) :  -0.1419 B(  4-H , 33-C ) :  -0.2605 B(  4-H , 37-C ) :  -0.1227
B(  5-H ,  6-C ) :  -0.1200 B(  5-H ,  8-N ) :   0.1207 B(  5-H ,  9-C ) :  -0.1090
B(  6-C ,  7-H ) :   0.8920 B(  6-C ,  8-N ) :   0.4699 B(  6-C ,  9-C ) :   0.1156
B(  6-C , 15-C ) :  -0.3852 B(  6-C , 22-C ) :  -0.1353 B(  6-C , 25-C ) :  -0.3229
B(  6-C , 26-C ) :  -0.4278 B(  6-C , 33-C ) :  -0.6719 B(  7-H ,  8-N ) :  -0.1055
B(  8-N , 15-C ) :  -0.1833 B(  8-N , 22-C ) :   0.6649 B(  8-N , 23-H ) :  -0.1268
B(  9-C , 10-C ) :   0.3688 B(  9-C , 13-C ) :   0.8622 B(  9-C , 14-C ) :  -0.3519
B(  9-C , 15-C ) :   0.9966 B(  9-C , 17-H ) :  -0.1913 B(  9-C , 39-Si) :   0.6318
B(  9-C , 44-C ) :   0.1756 B( 10-C , 11-H ) :   1.1284 B( 10-C , 12-H ) :   1.0632
B( 10-C , 13-C ) :  -0.2158 B( 10-C , 14-C ) :   0.4087 B( 10-C , 15-C ) :  -0.3546
B( 13-C , 14-C ) :   0.9520 B( 13-C , 15-C ) :  -0.2663 B( 13-C , 17-H ) :   1.0350
B( 13-C , 39-Si) :  -0.1272 B( 13-C , 44-C ) :  -0.1028 B( 14-C , 15-C ) :   0.2158
B( 14-C , 16-H ) :   0.9417 B( 14-C , 18-C ) :   0.6038 B( 14-C , 19-H ) :  -0.1229
B( 14-C , 20-H ) :  -0.1399 B( 15-C , 39-Si) :  -0.3037 B( 15-C , 48-C ) :  -0.1083
B( 18-C , 19-H ) :   1.0492 B( 18-C , 20-H ) :   1.0612 B( 18-C , 21-H ) :   0.9968
B( 22-C , 23-H ) :   0.9633 B( 22-C , 24-H ) :   1.0389 B( 22-C , 25-C ) :   0.1024
B( 22-C , 27-C ) :   1.2353 B( 22-C , 29-H ) :  -0.1032 B( 25-C , 26-C ) :   0.9742
B( 25-C , 27-C ) :  -0.2333 B( 25-C , 31-C ) :  -0.6353 B( 25-C , 33-C ) :   1.0258
B( 25-C , 35-C ) :   0.1072 B( 25-C , 37-C ) :  -0.3247 B( 26-C , 27-C ) :   0.2794
B( 26-C , 29-H ) :  -0.2181 B( 26-C , 31-C ) :   1.1356 B( 26-C , 32-H ) :  -0.1075
B( 26-C , 33-C ) :  -0.1205 B( 26-C , 35-C ) :  -0.3215 B( 27-C , 28-H ) :   1.0329
B( 27-C , 29-H ) :   1.1621 B( 27-C , 31-C ) :  -0.1177 B( 31-C , 32-H ) :   1.0770
B( 31-C , 33-C ) :   0.1407 B( 31-C , 35-C ) :   1.3315 B( 31-C , 36-H ) :  -0.2066
B( 31-C , 37-C ) :   0.1768 B( 33-C , 34-H ) :   1.2695 B( 33-C , 37-C ) :   1.1776
B( 33-C , 38-H ) :  -0.2031 B( 35-C , 36-H ) :   1.1582 B( 35-C , 37-C ) :   1.2010
B( 36-H , 37-C ) :  -0.1274 B( 37-C , 38-H ) :   1.2324 B( 39-Si, 40-C ) :   0.2797
B( 39-Si, 44-C ) :   0.9727 B( 39-Si, 45-H ) :  -0.1021 B( 39-Si, 46-H ) :  -0.1662
B( 39-Si, 48-C ) :   0.3151 B( 40-C , 41-H ) :   1.0186 B( 40-C , 42-H ) :   1.0512
B( 40-C , 43-H ) :   1.0110 B( 44-C , 45-H ) :   0.9927 B( 44-C , 46-H ) :   1.0341
B( 44-C , 47-H ) :   1.0067 B( 48-C , 49-H ) :   0.9646 B( 48-C , 50-H ) :   1.0688
B( 48-C , 51-H ) :   0.9955

MP2 TOTAL ENERGY:    -1159.860661074 Eh
FINAL SINGLE POINT ENERGY     -1159.860661074102

DIPOLE MOMENT
-------------
                                X             Y             Z
Electronic contribution:    -14.30877      -2.95856      -3.68240
Nuclear contribution   :     14.40138       2.47346       3.65205
                        -----------------------------------------
Total Dipole Moment    :      0.09261      -0.48511      -0.03035
                        -----------------------------------------
Magnitude (a.u.)       :      0.49480
Magnitude (Debye)      :      1.25768

Rotational constants in cm-1:     0.012582     0.005476     0.004371
Rotational constants in MHz :   377.189237   164.169757   131.046469

                             ****ORCA TERMINATED NORMALLY****
TOTAL RUN TIME: 0 days 17 hours 3 minutes 46 seconds 426 msec
