                         Program Version 4.2.1 -  RELEASE  -
|  1> %pal
|  2>  nprocs 32
|  3> end
|  4> !RI-MP2 aug-cc-pVQZ aug-cc-pVQZ/C TightSCF
|  5> %maxcore 4500
|  6> *xyzfile 0 1  05_18R1.xyz
|  7>
|  8>
|  9>                          ****END OF INPUT****

CARTESIAN COORDINATES (ANGSTROEM)
---------------------------------
  C      3.257011    1.113620    0.214722
  C      2.350555    2.286078    0.479917
  C      1.027476    2.212941    0.388724
  N      0.354429    1.040504    0.030167
  C      1.103803   -0.108428   -0.079759
  C      2.440409   -0.138776   -0.010246
  C      3.070509   -1.469832   -0.177898
  O      2.435621   -2.489889   -0.394241
  N      4.432930   -1.494227   -0.092530
  C     -1.077305    0.961378    0.142421
  C     -1.778565    0.289275   -1.040930
  C     -3.029177   -0.258896   -0.388514
  C     -2.487152   -0.740828    0.950234
  O     -1.479059    0.227522    1.291566
  H     -1.439003    1.990479    0.220052
  C     -3.500616   -0.837870    2.061934
  H     -2.008190   -1.714825    0.792296
  H     -3.023083   -1.164960    2.986223
  H     -4.272761   -1.561579    1.793689
  H     -3.968220    0.133241    2.237551
  O     -3.642845   -1.318059   -1.081081
  H     -3.735044    0.568139   -0.232076
  O     -2.101935    1.175675   -2.089160
  H     -1.188122   -0.553147   -1.415474
  H     -1.313575    1.361446   -2.606699
  H     -3.977141   -0.984284   -1.918587
  H      4.886183   -2.390227   -0.162000
  H      4.979162   -0.687741    0.150572
  H      0.387906    3.063826    0.581574
  H      2.796450    3.232593    0.756844
  H      0.568579   -1.037169   -0.223476
  H      3.938068    0.984472    1.067250
  H      3.901342    1.321835   -0.651503

 Total Charge           Charge          ....    0
 Multiplicity           Mult            ....    1
 Number of Electrons    NEL             ....  128
 Basis Dimension        Dim             .... 2096

ORBITAL ENERGIES
----------------

  NO   OCC          E(Eh)            E(eV)
   0   2.0000     -20.581490      -560.0508
   1   2.0000     -20.570236      -559.7446
   2   2.0000     -20.564222      -559.5809
   3   2.0000     -20.498134      -557.7826
   4   2.0000     -15.600105      -424.5004
   5   2.0000     -15.574756      -423.8107
   6   2.0000     -11.342188      -308.6366
   7   2.0000     -11.332381      -308.3698
   8   2.0000     -11.295088      -307.3550
   9   2.0000     -11.289600      -307.2056
  10   2.0000     -11.286684      -307.1263
  11   2.0000     -11.284691      -307.0720
  12   2.0000     -11.276838      -306.8584
  13   2.0000     -11.245972      -306.0185
  14   2.0000     -11.228957      -305.5554
  15   2.0000     -11.225264      -305.4550
  16   2.0000     -11.216909      -305.2276
  17   2.0000      -1.412937       -38.4480
  18   2.0000      -1.385112       -37.6908
  19   2.0000      -1.374808       -37.4104
  20   2.0000      -1.368012       -37.2255
  21   2.0000      -1.290698       -35.1217
  22   2.0000      -1.202475       -32.7210
  23   2.0000      -1.102128       -29.9904
  24   2.0000      -1.062962       -28.9247
  25   2.0000      -1.053798       -28.6753
  26   2.0000      -1.031680       -28.0734
  27   2.0000      -0.946104       -25.7448
  28   2.0000      -0.901751       -24.5379
  29   2.0000      -0.882113       -24.0035
  30   2.0000      -0.828015       -22.5314
  31   2.0000      -0.817337       -22.2409
  32   2.0000      -0.796068       -21.6621
  33   2.0000      -0.750863       -20.4320
  34   2.0000      -0.737484       -20.0680
  35   2.0000      -0.722012       -19.6469
  36   2.0000      -0.704469       -19.1696
  37   2.0000      -0.685147       -18.6438
  38   2.0000      -0.680642       -18.5212
  39   2.0000      -0.658603       -17.9215
  40   2.0000      -0.644700       -17.5432
  41   2.0000      -0.633825       -17.2473
  42   2.0000      -0.624600       -16.9962
  43   2.0000      -0.614848       -16.7309
  44   2.0000      -0.612064       -16.6551
  45   2.0000      -0.609099       -16.5744
  46   2.0000      -0.590650       -16.0724
  47   2.0000      -0.558972       -15.2104
  48   2.0000      -0.556869       -15.1532
  49   2.0000      -0.555894       -15.1266
  50   2.0000      -0.551856       -15.0168
  51   2.0000      -0.542393       -14.7593
  52   2.0000      -0.530101       -14.4248
  53   2.0000      -0.526962       -14.3394
  54   2.0000      -0.522893       -14.2287
  55   2.0000      -0.505646       -13.7593
  56   2.0000      -0.491028       -13.3615
  57   2.0000      -0.464526       -12.6404
  58   2.0000      -0.442049       -12.0288
  59   2.0000      -0.431024       -11.7288
  60   2.0000      -0.416640       -11.3373
  61   2.0000      -0.407966       -11.1013
  62   2.0000      -0.381085       -10.3699
  63   2.0000      -0.296639        -8.0720
  64   0.0000       0.018247         0.4965
  65   0.0000       0.024128         0.6566
  66   0.0000       0.027882         0.7587
  67   0.0000       0.029548         0.8040
  68   0.0000       0.036257         0.9866

MULLIKEN ATOMIC CHARGES
-----------------------
   0 C :    0.077062
   1 C :   -0.210953
   2 C :   -0.589996
   3 N :   -0.652131
   4 C :   -0.065737
   5 C :   -0.386614
   6 C :    1.377138
   7 O :   -0.990124
   8 N :   -0.894697
   9 C :    0.716581
  10 C :    0.672570
  11 C :    0.727909
  12 C :    0.375225
  13 O :   -1.024384
  14 H :    0.419547
  15 C :   -0.927936
  16 H :    0.195590
  17 H :    0.231905
  18 H :    0.263384
  19 H :    0.232182
  20 O :   -1.032187
  21 H :    0.110957
  22 O :   -1.138200
  23 H :    0.133501
  24 H :    0.326872
  25 H :    0.320552
  26 H :    0.178581
  27 H :    0.316448
  28 H :    0.230573
  29 H :    0.239362
  30 H :    0.386782
  31 H :    0.166482
  32 H :    0.213755
Sum of atomic charges:   -0.0000000

LOEWDIN ATOMIC CHARGES
----------------------
   0 C :    0.451638
   1 C :    0.409457
   2 C :    0.244258
   3 N :    0.458526
   4 C :    0.186184
   5 C :   -0.060165
   6 C :   -0.863926
   7 O :    0.693542
   8 N :    1.239924
   9 C :   -0.374168
  10 C :   -0.239586
  11 C :   -0.266881
  12 C :   -0.238606
  13 O :    0.949641
  14 H :   -0.330682
  15 C :    0.933076
  16 H :   -0.282734
  17 H :   -0.276866
  18 H :   -0.276035
  19 H :   -0.282874
  20 O :    1.319244
  21 H :   -0.280853
  22 O :    1.319803
  23 H :   -0.306623
  24 H :   -0.757557
  25 H :   -0.763778
  26 H :   -0.492845
  27 H :   -0.539917
  28 H :   -0.322029
  29 H :   -0.320569
  30 H :   -0.360775
  31 H :   -0.292733
  32 H :   -0.275092

  Mayer bond orders larger than 0.100000
B(  0-C ,  1-C ) :   0.7157 B(  0-C ,  2-C ) :  -0.3166 B(  0-C ,  4-C ) :  -0.1408
B(  0-C ,  5-C ) :   0.6426 B(  0-C , 31-H ) :   1.0203 B(  0-C , 32-H ) :   0.9305
B(  1-C ,  2-C ) :   1.4828 B(  1-C ,  5-C ) :  -0.1652 B(  1-C , 28-H ) :  -0.1135
B(  1-C , 29-H ) :   1.0985 B(  2-C ,  3-N ) :   1.1509 B(  2-C ,  4-C ) :   0.3429
B(  2-C ,  5-C ) :  -0.1097 B(  2-C , 28-H ) :   1.0095 B(  2-C , 29-H ) :  -0.1562
B(  3-N ,  4-C ) :   1.1160 B(  3-N ,  5-C ) :  -0.3254 B(  3-N ,  9-C ) :   0.7691
B(  3-N , 13-O ) :   0.1792 B(  4-C ,  5-C ) :   0.8925 B(  4-C ,  6-C ) :  -0.3807
B(  4-C ,  7-O ) :  -0.2203 B(  4-C , 30-H ) :   0.7448 B(  5-C ,  6-C ) :   1.4698
B(  5-C ,  7-O ) :   0.7172 B(  5-C ,  8-N ) :  -0.1438 B(  6-C ,  7-O ) :   0.7774
B(  6-C ,  8-N ) :   0.9415 B(  7-O ,  8-N ) :   0.1702 B(  8-N , 26-H ) :   1.0800
B(  8-N , 27-H ) :   0.9102 B(  9-C , 10-C ) :   0.9469 B(  9-C , 11-C ) :  -0.1423
B(  9-C , 13-O ) :   0.1920 B(  9-C , 14-H ) :   0.7769 B(  9-C , 22-O ) :   0.3036
B( 10-C , 11-C ) :   0.8807 B( 10-C , 13-O ) :   0.1366 B( 10-C , 20-O ) :   0.2546
B( 10-C , 22-O ) :  -0.3504 B( 10-C , 23-H ) :   1.0724 B( 11-C , 12-C ) :   0.9673
B( 11-C , 20-O ) :  -0.1388 B( 11-C , 21-H ) :   1.0756 B( 11-C , 22-O ) :   0.1393
B( 12-C , 13-O ) :   0.6414 B( 12-C , 15-C ) :   0.3220 B( 12-C , 16-H ) :   1.0187
B( 12-C , 17-H ) :  -0.1570 B( 12-C , 18-H ) :  -0.1431 B( 12-C , 20-O ) :   0.1016
B( 15-C , 17-H ) :   1.0760 B( 15-C , 18-H ) :   1.0714 B( 15-C , 19-H ) :   1.0086
B( 20-O , 25-H ) :   0.9657 B( 22-O , 23-H ) :   0.1869 B( 22-O , 24-H ) :   0.9905

MP2 TOTAL ENERGY:     -837.937334380 Eh
FINAL SINGLE POINT ENERGY      -837.937334379812

DIPOLE MOMENT
-------------
                                X             Y             Z
Electronic contribution:      3.93982      -0.96721      -3.55308
Nuclear contribution   :     -3.51680       2.52294       3.34191
                        -----------------------------------------
Total Dipole Moment    :      0.42303       1.55573      -0.21118
                        -----------------------------------------
Magnitude (a.u.)       :      1.62599
Magnitude (Debye)      :      4.13293

Rotational constants in cm-1:     0.025360     0.008947     0.008097
Rotational constants in MHz :   760.279658   268.215111   242.727269

                             ****ORCA TERMINATED NORMALLY****
TOTAL RUN TIME: 0 days 4 hours 23 minutes 29 seconds 633 msec
