                         Program Version 4.2.1 -  RELEASE  -
|  1> %pal
|  2>  nprocs 32
|  3> end
|  4> !RI-MP2 aug-cc-pVQZ aug-cc-pVQZ/C TightSCF
|  5> %maxcore 4500
|  6> *xyzfile 0 1  09_11R2.xyz
|  7>
|  8>
|  9>                          ****END OF INPUT****

CARTESIAN COORDINATES (ANGSTROEM)
---------------------------------
  C     -0.119038   -1.205316    0.000001
  C     -1.504434   -1.201780    0.000003
  C     -2.200372    0.000000    0.000004
  C     -1.504434    1.201779    0.000002
  C     -0.119039    1.205316    0.000000
  C      0.586964    0.000000   -0.000001
  H      0.428488   -2.139125    0.000000
  H     -2.043318   -2.141389    0.000004
  H     -3.283557    0.000000    0.000006
  H     -2.043319    2.141388    0.000003
  H      0.428487    2.139125   -0.000002
  C      2.017244    0.000001   -0.000003
  C      3.215600   -0.000001   -0.000006
  H      4.278282   -0.000001   -0.000008

 Total Charge           Charge          ....    0
 Multiplicity           Mult            ....    1
 Number of Electrons    NEL             ....   54
 Basis Dimension        Dim             ....  916

ORBITAL ENERGIES
----------------

  NO   OCC          E(Eh)            E(eV)
   0   2.0000     -11.263606      -306.4983
   1   2.0000     -11.245098      -305.9947
   2   2.0000     -11.245053      -305.9934
   3   2.0000     -11.243388      -305.9481
   4   2.0000     -11.240884      -305.8800
   5   2.0000     -11.240571      -305.8715
   6   2.0000     -11.236769      -305.7680
   7   2.0000     -11.226591      -305.4911
   8   2.0000      -1.171028       -31.8653
   9   2.0000      -1.068109       -29.0647
  10   2.0000      -1.027312       -27.9546
  11   2.0000      -0.999359       -27.1939
  12   2.0000      -0.855136       -23.2694
  13   2.0000      -0.838174       -22.8079
  14   2.0000      -0.748332       -20.3632
  15   2.0000      -0.705016       -19.1845
  16   2.0000      -0.665316       -18.1042
  17   2.0000      -0.640550       -17.4303
  18   2.0000      -0.611063       -16.6279
  19   2.0000      -0.597655       -16.2630
  20   2.0000      -0.528313       -14.3761
  21   2.0000      -0.519174       -14.1274
  22   2.0000      -0.507094       -13.7987
  23   2.0000      -0.431556       -11.7432
  24   2.0000      -0.399750       -10.8778
  25   2.0000      -0.348031        -9.4704
  26   2.0000      -0.322908        -8.7868
  27   0.0000       0.024202         0.6586
  28   0.0000       0.027177         0.7395
  29   0.0000       0.029893         0.8134
  30   0.0000       0.038144         1.0380
  31   0.0000       0.043874         1.1939

MULLIKEN ATOMIC CHARGES
-----------------------
   0 C :   -0.173162
   1 C :   -0.305785
   2 C :   -0.307973
   3 C :   -0.305837
   4 C :   -0.173115
   5 C :    0.280636
   6 H :    0.347969
   7 H :    0.270548
   8 H :    0.339528
   9 H :    0.270530
  10 H :    0.348031
  11 C :   -0.188864
  12 C :   -0.777738
  13 H :    0.375232
Sum of atomic charges:   -0.0000000

LOEWDIN ATOMIC CHARGES
----------------------
   0 C :    0.312775
   1 C :    0.342528
   2 C :    0.337883
   3 C :    0.342527
   4 C :    0.312775
   5 C :   -0.210580
   6 H :   -0.316942
   7 H :   -0.320342
   8 H :   -0.319844
   9 H :   -0.320341
  10 H :   -0.316942
  11 C :    0.040446
  12 C :    0.574477
  13 H :   -0.458420

  Mayer bond orders larger than 0.100000
B(  0-C ,  1-C ) :   1.2999 B(  0-C ,  3-C ) :   0.1229 B(  0-C ,  5-C ) :   1.0857
B(  0-C ,  6-H ) :   0.9024 B(  0-C ,  7-H ) :  -0.1115 B(  0-C , 11-C ) :  -0.3395
B(  1-C ,  2-C ) :   1.2021 B(  1-C ,  4-C ) :   0.1229 B(  1-C ,  5-C ) :  -0.1853
B(  1-C ,  7-H ) :   1.0853 B(  2-C ,  3-C ) :   1.2022 B(  2-C ,  5-C ) :   0.1563
B(  2-C ,  8-H ) :   0.9694 B(  3-C ,  4-C ) :   1.3000 B(  3-C ,  5-C ) :  -0.1854
B(  3-C ,  9-H ) :   1.0853 B(  4-C ,  5-C ) :   1.0858 B(  4-C ,  9-H ) :  -0.1115
B(  4-C , 10-H ) :   0.9024 B(  4-C , 11-C ) :  -0.3395 B(  5-C , 11-C ) :   1.0352
B(  5-C , 12-C ) :  -0.3957 B( 11-C , 12-C ) :   2.7565 B( 11-C , 13-H ) :  -0.1392
B( 12-C , 13-H ) :   1.0651

MP2 TOTAL ENERGY:     -307.823376165 Eh
FINAL SINGLE POINT ENERGY      -307.823376164779

DIPOLE MOMENT
-------------
                                X             Y             Z
Electronic contribution:      1.91907       0.00000      -0.00000
Nuclear contribution   :     -2.21918      -0.00000       0.00000
                        -----------------------------------------
Total Dipole Moment    :     -0.30011      -0.00000       0.00000
                        -----------------------------------------
Magnitude (a.u.)       :      0.30011
Magnitude (Debye)      :      0.76283

Rotational constants in cm-1:     0.191428     0.051375     0.040505
Rotational constants in MHz :  5738.867924  1540.186429  1214.295987

                             ****ORCA TERMINATED NORMALLY****
TOTAL RUN TIME: 0 days 0 hours 19 minutes 28 seconds 323 msec
