                         Program Version 4.2.1 -  RELEASE  -
|  1> %pal
|  2>  nprocs 32
|  3> end
|  4> !RI-MP2 aug-cc-pVQZ aug-cc-pVQZ/C TightSCF
|  5> %maxcore 4500
|  6> *xyzfile 1 1  08_13R1.xyz
|  7>
|  8>
|  9>                          ****END OF INPUT****

CARTESIAN COORDINATES (ANGSTROEM)
---------------------------------
  C      1.737334   -0.864522   -0.417892
  C      1.364871    0.460783   -0.193021
  C      2.363616    1.412212   -0.053153
  C      3.705513    1.044267   -0.131226
  C      4.033094   -0.295860   -0.359013
  C      3.054830   -1.266009   -0.515292
  H      2.103675    2.449751    0.118762
  H      5.075557   -0.582985   -0.423987
  H      3.326500   -2.296170   -0.709120
  C     -0.092146    0.641581   -0.142645
  C     -0.810331    1.812725    0.039653
  C     -0.768891   -0.558897   -0.321505
  C     -2.206118    1.736918    0.044892
  H     -0.299262    2.754340    0.168314
  C     -2.160053   -0.649073   -0.314320
  C     -2.877863    0.516753   -0.128066
  H     -3.957480    0.530464   -0.108704
  S      0.312475   -1.922839   -0.595041
  O     -2.671725   -1.880772   -0.472075
  O     -3.008421    2.792845    0.212541
  C      4.790823    2.073745   -0.002236
  H      5.184958    2.335580   -0.987489
  H      4.422249    2.987605    0.462713
  H      5.623073    1.696989    0.593324
  C     -4.091445   -2.028339   -0.547170
  H     -4.269421   -3.086739   -0.712672
  H     -4.559791   -1.716334    0.388048
  H     -4.491688   -1.451838   -1.382803
  C     -2.439604    4.084890    0.395023
  H     -1.849381    4.376824   -0.476608
  H     -3.280989    4.762430    0.506588
  H     -1.824419    4.115613    1.297299
  C      0.259198   -2.879962    0.979769
  C      0.400623   -2.047038    2.232668
  H      0.338236   -2.711490    3.096031
  H      1.361258   -1.533751    2.272790
  H     -0.398694   -1.311077    2.317926
  H     -0.698366   -3.398091    0.915946
  H      1.054831   -3.617328    0.861766

 Total Charge           Charge          ....    1
 Multiplicity           Mult            ....    1
 Number of Electrons    NEL             ....  152
 Basis Dimension        Dim             .... 2478

ORBITAL ENERGIES
----------------

  NO   OCC          E(Eh)            E(eV)
   0   2.0000     -92.194281     -2508.7339
   1   2.0000     -20.718384      -563.7759
   2   2.0000     -20.700856      -563.2989
   3   2.0000     -11.449173      -311.5478
   4   2.0000     -11.440921      -311.3233
   5   2.0000     -11.415946      -310.6437
   6   2.0000     -11.406576      -310.3887
   7   2.0000     -11.400274      -310.2172
   8   2.0000     -11.396084      -310.1032
   9   2.0000     -11.391677      -309.9833
  10   2.0000     -11.388625      -309.9002
  11   2.0000     -11.385148      -309.8056
  12   2.0000     -11.382305      -309.7283
  13   2.0000     -11.376359      -309.5665
  14   2.0000     -11.364739      -309.2503
  15   2.0000     -11.361224      -309.1546
  16   2.0000     -11.352826      -308.9261
  17   2.0000     -11.352485      -308.9168
  18   2.0000     -11.348516      -308.8088
  19   2.0000     -11.329514      -308.2917
  20   2.0000      -9.191749      -250.1202
  21   2.0000      -6.873034      -187.0248
  22   2.0000      -6.872964      -187.0229
  23   2.0000      -6.871939      -186.9950
  24   2.0000      -1.550306       -42.1860
  25   2.0000      -1.536098       -41.7994
  26   2.0000      -1.354098       -36.8469
  27   2.0000      -1.284856       -34.9627
  28   2.0000      -1.257385       -34.2152
  29   2.0000      -1.202050       -32.7094
  30   2.0000      -1.177285       -32.0356
  31   2.0000      -1.164209       -31.6797
  32   2.0000      -1.132254       -30.8102
  33   2.0000      -1.117060       -30.3968
  34   2.0000      -1.071018       -29.1439
  35   2.0000      -1.059182       -28.8218
  36   2.0000      -1.049684       -28.5633
  37   2.0000      -0.995830       -27.0979
  38   2.0000      -0.984430       -26.7877
  39   2.0000      -0.936921       -25.4949
  40   2.0000      -0.925083       -25.1728
  41   2.0000      -0.916276       -24.9331
  42   2.0000      -0.849684       -23.1211
  43   2.0000      -0.832926       -22.6651
  44   2.0000      -0.815474       -22.1902
  45   2.0000      -0.796358       -21.6700
  46   2.0000      -0.788332       -21.4516
  47   2.0000      -0.786727       -21.4079
  48   2.0000      -0.772310       -21.0156
  49   2.0000      -0.767436       -20.8830
  50   2.0000      -0.763834       -20.7850
  51   2.0000      -0.758302       -20.6345
  52   2.0000      -0.750593       -20.4247
  53   2.0000      -0.736345       -20.0370
  54   2.0000      -0.723751       -19.6943
  55   2.0000      -0.703085       -19.1319
  56   2.0000      -0.693715       -18.8769
  57   2.0000      -0.690626       -18.7929
  58   2.0000      -0.679001       -18.4766
  59   2.0000      -0.671777       -18.2800
  60   2.0000      -0.662975       -18.0405
  61   2.0000      -0.656104       -17.8535
  62   2.0000      -0.648566       -17.6484
  63   2.0000      -0.645081       -17.5535
  64   2.0000      -0.642825       -17.4921
  65   2.0000      -0.629402       -17.1269
  66   2.0000      -0.626622       -17.0513
  67   2.0000      -0.624781       -17.0012
  68   2.0000      -0.619293       -16.8518
  69   2.0000      -0.607935       -16.5428
  70   2.0000      -0.596289       -16.2259
  71   2.0000      -0.582434       -15.8488
  72   2.0000      -0.498855       -13.5745
  73   2.0000      -0.468010       -12.7352
  74   2.0000      -0.445107       -12.1120
  75   2.0000      -0.433882       -11.8065
  76   0.0000      -0.065658        -1.7866
  77   0.0000      -0.058302        -1.5865
  78   0.0000      -0.051975        -1.4143
  79   0.0000      -0.049327        -1.3422
  80   0.0000      -0.047892        -1.3032

MULLIKEN ATOMIC CHARGES
-----------------------
   0 C :   -0.278528
   1 C :    1.479227
   2 C :   -0.751193
   3 C :    0.252465
   4 C :   -0.314787
   5 C :   -0.564062
   6 H :    0.163978
   7 H :    0.248858
   8 H :    0.297594
   9 C :    0.439613
  10 C :   -1.493316
  11 C :   -0.086996
  12 C :    1.947260
  13 H :    0.221320
  14 C :    1.688033
  15 C :   -1.280696
  16 H :    0.200959
  17 S :    0.318064
  18 O :   -0.951778
  19 O :   -0.991844
  20 C :   -0.970191
  21 H :    0.298712
  22 H :    0.244702
  23 H :    0.234259
  24 C :   -0.870353
  25 H :    0.442084
  26 H :    0.329403
  27 H :    0.345634
  28 C :   -0.762099
  29 H :    0.300747
  30 H :    0.491966
  31 H :    0.287863
  32 C :   -0.616671
  33 C :   -1.019546
  34 H :    0.310548
  35 H :    0.316411
  36 H :    0.310026
  37 H :    0.419292
  38 H :    0.363041
Sum of atomic charges:    1.0000000

LOEWDIN ATOMIC CHARGES
----------------------
   0 C :   -0.321163
   1 C :   -0.137006
   2 C :    0.398786
   3 C :   -0.031435
   4 C :    0.383266
   5 C :    0.339308
   6 H :   -0.305400
   7 H :   -0.300297
   8 H :   -0.302415
   9 C :   -0.151199
  10 C :    0.379099
  11 C :   -0.375806
  12 C :   -0.427110
  13 H :   -0.354475
  14 C :   -0.512015
  15 C :    0.343320
  16 H :   -0.345052
  17 S :    1.517589
  18 O :    0.878908
  19 O :    0.904770
  20 C :    0.936096
  21 H :   -0.266070
  22 H :   -0.292641
  23 H :   -0.280981
  24 C :    0.629855
  25 H :   -0.304621
  26 H :   -0.295207
  27 H :   -0.293455
  28 C :    0.620671
  29 H :   -0.296125
  30 H :   -0.304910
  31 H :   -0.296629
  32 C :    0.413403
  33 C :    0.918288
  34 H :   -0.260244
  35 H :   -0.282337
  36 H :   -0.283623
  37 H :   -0.326749
  38 H :   -0.316394

  Mayer bond orders larger than 0.100000
B(  0-C ,  1-C ) :   0.2629 B(  0-C ,  2-C ) :  -0.1201 B(  0-C ,  4-C ) :  -0.1462
B(  0-C ,  5-C ) :   1.0157 B(  0-C ,  9-C ) :   0.1752 B(  0-C , 11-C ) :  -1.2030
B(  0-C , 14-C ) :   0.3344 B(  0-C , 17-S ) :   0.6781 B(  0-C , 32-C ) :  -0.1353
B(  1-C ,  2-C ) :   1.0135 B(  1-C ,  3-C ) :  -0.6010 B(  1-C ,  5-C ) :  -0.2620
B(  1-C ,  6-H ) :  -0.1343 B(  1-C ,  9-C ) :   0.8575 B(  1-C , 10-C ) :  -0.6914
B(  1-C , 11-C ) :  -0.3224 B(  1-C , 13-H ) :   0.1766 B(  1-C , 15-C ) :  -0.1550
B(  1-C , 17-S ) :  -0.4027 B(  2-C ,  3-C ) :   0.8713 B(  2-C ,  5-C ) :   0.2275
B(  2-C ,  6-H ) :   1.1606 B(  2-C ,  9-C ) :  -0.4063 B(  2-C , 10-C ) :  -0.1611
B(  2-C , 20-C ) :  -0.1547 B(  3-C ,  4-C ) :   1.0602 B(  3-C , 20-C ) :   0.8107
B(  3-C , 21-H ) :  -0.1368 B(  3-C , 22-H ) :  -0.1141 B(  4-C ,  5-C ) :   1.2351
B(  4-C ,  7-H ) :   1.0653 B(  4-C ,  8-H ) :  -0.1924 B(  4-C ,  9-C ) :  -0.2056
B(  5-C ,  7-H ) :  -0.1478 B(  5-C ,  8-H ) :   1.0132 B(  5-C ,  9-C ) :  -0.2032
B(  5-C , 11-C ) :   0.2766 B(  5-C , 17-S ) :  -0.1232 B(  9-C , 10-C ) :   0.8788
B(  9-C , 11-C ) :  -0.1098 B(  9-C , 12-C ) :  -0.6929 B(  9-C , 13-H ) :  -0.1387
B(  9-C , 14-C ) :  -0.2500 B(  9-C , 17-S ) :   0.1597 B( 10-C , 12-C ) :   1.5273
B( 10-C , 13-H ) :   0.9651 B( 10-C , 15-C ) :   0.1489 B( 10-C , 19-O ) :   0.5835
B( 10-C , 28-C ) :   0.2747 B( 11-C , 12-C ) :   0.1083 B( 11-C , 14-C ) :   0.4853
B( 11-C , 15-C ) :  -0.1568 B( 11-C , 17-S ) :   0.6520 B( 11-C , 18-O ) :   0.6864
B( 11-C , 24-C ) :   0.1381 B( 11-C , 32-C ) :  -0.1334 B( 12-C , 13-H ) :  -0.1723
B( 12-C , 14-C ) :  -0.5562 B( 12-C , 15-C ) :   1.2665 B( 12-C , 16-H ) :  -0.1157
B( 12-C , 19-O ) :  -0.7222 B( 12-C , 28-C ) :  -0.3187 B( 14-C , 15-C ) :   1.6283
B( 14-C , 17-S ) :  -0.3043 B( 14-C , 18-O ) :  -0.4763 B( 14-C , 24-C ) :  -0.2973
B( 15-C , 16-H ) :   0.9991 B( 15-C , 18-O ) :   0.2266 B( 15-C , 19-O ) :   0.4209
B( 16-H , 19-O ) :   0.1140 B( 17-S , 32-C ) :   1.1249 B( 18-O , 24-C ) :   1.0006
B( 19-O , 28-C ) :   0.9268 B( 20-C , 21-H ) :   0.9859 B( 20-C , 22-H ) :   1.0337
B( 20-C , 23-H ) :   1.0414 B( 24-C , 25-H ) :   0.8519 B( 24-C , 26-H ) :   0.8752
B( 24-C , 27-H ) :   0.8661 B( 28-C , 29-H ) :   0.8923 B( 28-C , 30-H ) :   0.7608
B( 28-C , 31-H ) :   0.8934 B( 32-C , 33-C ) :   1.0246 B( 32-C , 37-H ) :   0.7584
B( 32-C , 38-H ) :   0.8437 B( 33-C , 34-H ) :   0.9402 B( 33-C , 35-H ) :   0.8789
B( 33-C , 36-H ) :   0.8663

MP2 TOTAL ENERGY:    -1205.826444144 Eh
FINAL SINGLE POINT ENERGY     -1205.826444143679

DIPOLE MOMENT
-------------
                                X             Y             Z
Electronic contribution:     -2.23266      -5.10193      -7.70361
Nuclear contribution   :      2.76117       4.37671       8.21091
                        -----------------------------------------
Total Dipole Moment    :      0.52851      -0.72521       0.50730
                        -----------------------------------------
Magnitude (a.u.)       :      1.03083
Magnitude (Debye)      :      2.62016

Rotational constants in cm-1:     0.014150     0.008473     0.005778
Rotational constants in MHz :   424.196476   254.025898   173.210124

                             ****ORCA TERMINATED NORMALLY****
TOTAL RUN TIME: 0 days 7 hours 27 minutes 35 seconds 634 msec
