                         Program Version 4.2.1 -  RELEASE  -
|  1> %pal
|  2>  nprocs 32
|  3> end
|  4> !RI-MP2 aug-cc-pVQZ aug-cc-pVQZ/C TightSCF
|  5> %maxcore 4500
|  6> *xyzfile 0 2  04_62R2.xyz
|  7>
|  8>
|  9>                          ****END OF INPUT****

CARTESIAN COORDINATES (ANGSTROEM)
---------------------------------
  C     -1.374084   -0.276826   -0.000001
  C      0.014622    0.109387    0.000002
  H     -2.117816    0.505598    0.000011
  H     -1.660192   -1.318519   -0.000017
  O      0.415121    1.252582    0.000014
  O      0.857027   -0.950489   -0.000013
  H      1.757601   -0.599192   -0.000011

 Total Charge           Charge          ....    0
 Multiplicity           Mult            ....    2
 Number of Electrons    NEL             ....   31
 Basis Dimension        Dim             ....  458

ORBITAL ENERGIES
----------------
                 SPIN UP ORBITALS
  NO   OCC          E(Eh)            E(eV)
   0   1.0000     -20.608550      -560.7872
   1   1.0000     -20.563971      -559.5741
   2   1.0000     -11.381410      -309.7039
   3   1.0000     -11.277953      -306.8887
   4   1.0000      -1.469805       -39.9954
   5   1.0000      -1.373677       -37.3796
   6   1.0000      -1.048871       -28.5412
   7   1.0000      -0.824238       -22.4286
   8   1.0000      -0.719736       -19.5850
   9   1.0000      -0.693738       -18.8776
  10   1.0000      -0.650022       -17.6880
  11   1.0000      -0.610313       -16.6075
  12   1.0000      -0.598372       -16.2825
  13   1.0000      -0.522177       -14.2092
  14   1.0000      -0.477516       -12.9939
  15   1.0000      -0.424640       -11.5551
  16   0.0000       0.024764         0.6738
  17   0.0000       0.034372         0.9353
  18   0.0000       0.040419         1.0999
  19   0.0000       0.070196         1.9101
  20   0.0000       0.073142         1.9903

                 SPIN DOWN ORBITALS
  NO   OCC          E(Eh)            E(eV)
   0   1.0000     -20.609139      -560.8032
   1   1.0000     -20.550866      -559.2175
   2   1.0000     -11.387896      -309.8804
   3   1.0000     -11.256578      -306.3071
   4   1.0000      -1.463615       -39.8270
   5   1.0000      -1.353112       -36.8200
   6   1.0000      -0.984175       -26.7808
   7   1.0000      -0.808713       -22.0062
   8   1.0000      -0.708359       -19.2754
   9   1.0000      -0.686004       -18.6671
  10   1.0000      -0.627787       -17.0830
  11   1.0000      -0.598913       -16.2972
  12   1.0000      -0.590883       -16.0787
  13   1.0000      -0.462268       -12.5790
  14   1.0000      -0.458830       -12.4854
  15   0.0000       0.025315         0.6889
  16   0.0000       0.034561         0.9404
  17   0.0000       0.034697         0.9442
  18   0.0000       0.040544         1.1032
  19   0.0000       0.073248         1.9932

MULLIKEN ATOMIC CHARGES AND SPIN POPULATIONS
--------------------------------------------
   0 C :   -0.822307    1.074022
   1 C :    0.831346   -0.243014
   2 H :    0.396780   -0.063286
   3 H :    0.501719   -0.058364
   4 O :   -0.640051    0.296934
   5 O :   -0.588649   -0.003504
   6 H :    0.321162   -0.002788
Sum of atomic charges         :    0.0000000

LOEWDIN ATOMIC CHARGES AND SPIN POPULATIONS
-------------------------------------------
   0 C :    0.771388    0.412118
   1 C :   -1.100515    0.125634
   2 H :   -0.366930    0.141069
   3 H :   -0.358412    0.146212
   4 O :    0.670793    0.194147
   5 O :    1.211840   -0.014060
   6 H :   -0.828165   -0.005119

  Mayer bond orders larger than 0.100000
B(  0-C ,  1-C ) :   1.1188 B(  0-C ,  2-H ) :   0.8913 B(  0-C ,  3-H ) :   0.7568
B(  0-C ,  4-O ) :   0.1376 B(  1-C ,  4-O ) :   1.5542 B(  1-C ,  5-O ) :   0.9275
B(  5-O ,  6-H ) :   0.9231

MP2 TOTAL ENERGY:     -228.116450691 Eh
FINAL SINGLE POINT ENERGY      -228.116450691055

DIPOLE MOMENT
-------------
                                X             Y             Z
Electronic contribution:      1.65178       0.71820       0.00001
Nuclear contribution   :     -1.97245      -1.38772      -0.00002
                        -----------------------------------------
Total Dipole Moment    :     -0.32067      -0.66951      -0.00001
                        -----------------------------------------
Magnitude (a.u.)       :      0.74235
Magnitude (Debye)      :      1.88689

Rotational constants in cm-1:     0.392437     0.354617     0.186285
Rotational constants in MHz : 11764.974727 10631.152191  5584.681552

                             ****ORCA TERMINATED NORMALLY****
TOTAL RUN TIME: 0 days 0 hours 3 minutes 56 seconds 918 msec
