                         Program Version 4.2.1 -  RELEASE  -
|  1> %pal
|  2>  nprocs 32
|  3> end
|  4> !RI-MP2 aug-cc-pVQZ aug-cc-pVQZ/C TightSCF
|  5> %maxcore 4500
|  6> *xyzfile 0 1  02_2TS.xyz
|  7>
|  8>
|  9>                          ****END OF INPUT****

CARTESIAN COORDINATES (ANGSTROEM)
---------------------------------
  C      2.375835    0.522420    0.663576
  O      3.170324   -0.511601    0.914639
  C      1.255856    0.704993    1.459103
  C      0.289913    1.667626    1.215898
  C     -0.939134    1.717613    2.079192
  C      0.385006    2.490465    0.074407
  C     -0.577770    3.618891   -0.160865
  C      0.181305    1.138675   -1.471317
  C      1.243969    0.217134   -1.456414
  C      1.069518   -1.161549   -1.062249
  O      1.935709   -2.012309   -1.220732
  C     -0.229893   -1.511111   -0.408111
  C     -1.319087   -0.625443   -0.487421
  C     -1.181684    0.666156   -1.162328
  O     -2.167555    1.361457   -1.425237
  C     -2.553460   -0.996283    0.077591
  C     -2.659431   -2.206784    0.761599
  C     -1.569958   -3.052710    0.840196
  C     -0.355718   -2.721227    0.244142
  C      4.338609   -0.631871    0.103401
  O     -3.635992   -0.213038   -0.005733
  H      1.085973   -0.041215    2.226913
  H     -1.853079    1.600474    1.492834
  H     -0.920402    0.931367    2.832862
  H     -1.014711    2.681414    2.590665
  H     -0.394767    4.093834   -1.125233
  H     -1.614964    3.285853   -0.151523
  H     -0.458118    4.381938    0.615096
  H      2.132075    0.426241   -2.040450
  H     -3.612944   -2.464598    1.204273
  H     -1.669807   -3.996150    1.364030
  H      0.198596    1.934738   -2.206890
  H      1.389349    2.705831   -0.270265
  H      2.804423    1.320321    0.070479
  H      0.495831   -3.387225    0.272391
  H     -3.402992    0.542258   -0.592861
  H      4.947747   -1.406291    0.561862
  H      4.053960   -0.939105   -0.902379
  H      4.890701    0.312270    0.092314

 Total Charge           Charge          ....    0
 Multiplicity           Mult            ....    1
 Number of Electrons    NEL             ....  152
 Basis Dimension        Dim             .... 2508

ORBITAL ENERGIES
----------------

  NO   OCC          E(Eh)            E(eV)
   0   2.0000     -20.605634      -560.7078
   1   2.0000     -20.574801      -559.8688
   2   2.0000     -20.550529      -559.2083
   3   2.0000     -20.514671      -558.2326
   4   2.0000     -11.347757      -308.7882
   5   2.0000     -11.341605      -308.6208
   6   2.0000     -11.319070      -308.0075
   7   2.0000     -11.317414      -307.9625
   8   2.0000     -11.288099      -307.1648
   9   2.0000     -11.270250      -306.6791
  10   2.0000     -11.266540      -306.5782
  11   2.0000     -11.265399      -306.5471
  12   2.0000     -11.255009      -306.2644
  13   2.0000     -11.253546      -306.2245
  14   2.0000     -11.243824      -305.9600
  15   2.0000     -11.235883      -305.7439
  16   2.0000     -11.234207      -305.6983
  17   2.0000     -11.233492      -305.6788
  18   2.0000     -11.233006      -305.6656
  19   2.0000     -11.228738      -305.5495
  20   2.0000     -11.227657      -305.5201
  21   2.0000      -1.440442       -39.1964
  22   2.0000      -1.417714       -38.5780
  23   2.0000      -1.385517       -37.7018
  24   2.0000      -1.362748       -37.0823
  25   2.0000      -1.173021       -31.9195
  26   2.0000      -1.148964       -31.2649
  27   2.0000      -1.099225       -29.9114
  28   2.0000      -1.052941       -28.6520
  29   2.0000      -1.034697       -28.1555
  30   2.0000      -1.023646       -27.8548
  31   2.0000      -1.000077       -27.2135
  32   2.0000      -0.954231       -25.9660
  33   2.0000      -0.940713       -25.5981
  34   2.0000      -0.890858       -24.2415
  35   2.0000      -0.871466       -23.7138
  36   2.0000      -0.860192       -23.4070
  37   2.0000      -0.839876       -22.8542
  38   2.0000      -0.797006       -21.6876
  39   2.0000      -0.748047       -20.3554
  40   2.0000      -0.725595       -19.7445
  41   2.0000      -0.720868       -19.6158
  42   2.0000      -0.714132       -19.4325
  43   2.0000      -0.704507       -19.1706
  44   2.0000      -0.691828       -18.8256
  45   2.0000      -0.674355       -18.3501
  46   2.0000      -0.672645       -18.3036
  47   2.0000      -0.641671       -17.4607
  48   2.0000      -0.635479       -17.2923
  49   2.0000      -0.623014       -16.9531
  50   2.0000      -0.621725       -16.9180
  51   2.0000      -0.619660       -16.8618
  52   2.0000      -0.599671       -16.3179
  53   2.0000      -0.593435       -16.1482
  54   2.0000      -0.586649       -15.9635
  55   2.0000      -0.575847       -15.6696
  56   2.0000      -0.566793       -15.4232
  57   2.0000      -0.565656       -15.3923
  58   2.0000      -0.555646       -15.1199
  59   2.0000      -0.553637       -15.0652
  60   2.0000      -0.550277       -14.9738
  61   2.0000      -0.540055       -14.6956
  62   2.0000      -0.533474       -14.5166
  63   2.0000      -0.527513       -14.3544
  64   2.0000      -0.525211       -14.2917
  65   2.0000      -0.517970       -14.0947
  66   2.0000      -0.511269       -13.9123
  67   2.0000      -0.498322       -13.5600
  68   2.0000      -0.476777       -12.9738
  69   2.0000      -0.461118       -12.5477
  70   2.0000      -0.434924       -11.8349
  71   2.0000      -0.406437       -11.0597
  72   2.0000      -0.357336        -9.7236
  73   2.0000      -0.346646        -9.4327
  74   2.0000      -0.319093        -8.6830
  75   2.0000      -0.289814        -7.8862
  76   0.0000       0.016319         0.4441
  77   0.0000       0.024249         0.6599
  78   0.0000       0.025663         0.6983
  79   0.0000       0.029794         0.8107
  80   0.0000       0.035809         0.9744

MULLIKEN ATOMIC CHARGES
-----------------------
   0 C :    1.068632
   1 O :   -1.049891
   2 C :   -0.491628
   3 C :    0.731595
   4 C :   -1.169088
   5 C :    0.388340
   6 C :   -1.115337
   7 C :   -0.408678
   8 C :   -1.077667
   9 C :    1.809016
  10 O :   -1.110446
  11 C :    0.334031
  12 C :    0.010745
  13 C :    1.672261
  14 O :   -1.105789
  15 C :    1.283101
  16 C :   -0.805802
  17 C :   -0.409271
  18 C :   -0.931810
  19 C :   -0.877722
  20 O :   -1.072710
  21 H :    0.094391
  22 H :    0.169060
  23 H :    0.231658
  24 H :    0.259218
  25 H :    0.195602
  26 H :    0.190732
  27 H :    0.204110
  28 H :    0.101345
  29 H :    0.274462
  30 H :    0.213632
  31 H :    0.258911
  32 H :    0.389449
  33 H :    0.026736
  34 H :    0.233485
  35 H :    0.385228
  36 H :    0.415761
  37 H :    0.343850
  38 H :    0.340487
Sum of atomic charges:   -0.0000000

LOEWDIN ATOMIC CHARGES
----------------------
   0 C :   -0.079930
   1 O :    0.912650
   2 C :    0.355196
   3 C :   -0.045587
   4 C :    0.926554
   5 C :    0.252851
   6 C :    0.920844
   7 C :    0.228097
   8 C :    0.263934
   9 C :   -0.725466
  10 O :    0.756452
  11 C :   -0.137630
  12 C :   -0.112619
  13 C :   -0.602615
  14 O :    0.915375
  15 C :   -0.435985
  16 C :    0.355988
  17 C :    0.366002
  18 C :    0.346781
  19 C :    0.623540
  20 O :    1.303561
  21 H :   -0.316963
  22 H :   -0.302859
  23 H :   -0.284533
  24 H :   -0.261031
  25 H :   -0.268825
  26 H :   -0.342950
  27 H :   -0.262069
  28 H :   -0.315779
  29 H :   -0.321516
  30 H :   -0.308499
  31 H :   -0.311713
  32 H :   -0.338152
  33 H :   -0.349267
  34 H :   -0.334984
  35 H :   -1.109287
  36 H :   -0.303153
  37 H :   -0.360659
  38 H :   -0.295754

  Mayer bond orders larger than 0.100000
B(  0-C ,  2-C ) :   1.2446 B(  0-C ,  3-C ) :  -0.3310 B(  0-C ,  5-C ) :  -0.1413
B(  0-C , 19-C ) :  -0.3408 B(  0-C , 33-H ) :   1.2911 B(  1-O ,  9-C ) :   0.1117
B(  1-O , 11-C ) :  -0.1126 B(  1-O , 19-C ) :   0.9890 B(  2-C ,  3-C ) :   0.8119
B(  2-C ,  5-C ) :  -0.5279 B(  2-C ,  7-C ) :   0.1014 B(  2-C ,  8-C ) :   0.1278
B(  2-C , 21-H ) :   1.2254 B(  2-C , 33-H ) :  -0.1426 B(  3-C ,  4-C ) :   0.2337
B(  3-C ,  5-C ) :   0.8118 B(  3-C ,  8-C ) :   0.1072 B(  3-C , 21-H ) :  -0.1366
B(  3-C , 23-H ) :  -0.1771 B(  3-C , 24-H ) :  -0.2309 B(  3-C , 32-H ) :  -0.1332
B(  4-C , 22-H ) :   1.0640 B(  4-C , 23-H ) :   1.1276 B(  4-C , 24-H ) :   1.1610
B(  5-C ,  6-C ) :   0.2521 B(  5-C ,  7-C ) :   0.3558 B(  5-C ,  8-C ) :   0.1403
B(  5-C , 25-H ) :  -0.1940 B(  5-C , 26-H ) :  -0.2137 B(  5-C , 27-H ) :  -0.1896
B(  5-C , 32-H ) :   0.8829 B(  5-C , 33-H ) :  -0.1117 B(  6-C , 25-H ) :   1.1480
B(  6-C , 26-H ) :   1.1359 B(  6-C , 27-H ) :   1.1476 B(  7-C ,  8-C ) :   1.1351
B(  7-C ,  9-C ) :  -0.1479 B(  7-C , 10-O ) :   0.1503 B(  7-C , 12-C ) :  -0.3722
B(  7-C , 13-C ) :   1.2907 B(  7-C , 14-O ) :   0.4634 B(  7-C , 15-C ) :   0.1027
B(  7-C , 31-H ) :   1.0047 B(  8-C ,  9-C ) :   1.4805 B(  8-C , 10-O ) :   0.5616
B(  8-C , 13-C ) :   0.3114 B(  8-C , 28-H ) :   1.2007 B(  8-C , 31-H ) :  -0.1901
B(  9-C , 10-O ) :  -0.4423 B(  9-C , 11-C ) :   0.8384 B(  9-C , 12-C ) :  -0.5460
B(  9-C , 18-C ) :  -0.2567 B( 10-O , 11-C ) :   0.3645 B( 10-O , 34-H ) :   0.1080
B( 11-C , 12-C ) :   0.1763 B( 11-C , 13-C ) :  -0.2404 B( 11-C , 15-C ) :  -0.6031
B( 11-C , 16-C ) :  -0.1922 B( 11-C , 17-C ) :  -0.5425 B( 11-C , 18-C ) :   1.4083
B( 12-C , 13-C ) :   0.3655 B( 12-C , 14-O ) :   0.4026 B( 12-C , 15-C ) :   1.6420
B( 12-C , 17-C ) :   0.3001 B( 12-C , 18-C ) :  -0.4965 B( 12-C , 20-O ) :   0.6164
B( 12-C , 35-H ) :   0.2021 B( 13-C , 14-O ) :  -0.4768 B( 13-C , 15-C ) :  -0.1965
B( 13-C , 16-C ) :   0.1241 B( 13-C , 35-H ) :  -0.1221 B( 14-O , 35-H ) :   0.1928
B( 15-C , 16-C ) :   0.9697 B( 15-C , 17-C ) :  -0.3675 B( 15-C , 18-C ) :   0.1208
B( 15-C , 20-O ) :  -0.6433 B( 16-C , 17-C ) :   1.3717 B( 16-C , 18-C ) :   0.3308
B( 16-C , 20-O ) :   0.3244 B( 16-C , 29-H ) :   0.9823 B( 16-C , 30-H ) :  -0.1824
B( 17-C , 18-C ) :   1.3069 B( 17-C , 30-H ) :   1.2432 B( 18-C , 30-H ) :  -0.2297
B( 18-C , 34-H ) :   0.9644 B( 19-C , 36-H ) :   0.8899 B( 19-C , 37-H ) :   0.8360
B( 19-C , 38-H ) :   0.8821 B( 20-O , 35-H ) :   0.7077

MP2 TOTAL ENERGY:     -957.971411849 Eh
FINAL SINGLE POINT ENERGY      -957.971411849305

DIPOLE MOMENT
-------------
                                X             Y             Z
Electronic contribution:     -5.82631     -10.77642      -5.18720
Nuclear contribution   :      7.02471      11.92435       5.98869
                        -----------------------------------------
Total Dipole Moment    :      1.19841       1.14793       0.80150
                        -----------------------------------------
Magnitude (a.u.)       :      1.84291
Magnitude (Debye)      :      4.68431

Rotational constants in cm-1:     0.014369     0.011011     0.008093
Rotational constants in MHz :   430.765676   330.090354   242.610503

                             ****ORCA TERMINATED NORMALLY****
TOTAL RUN TIME: 0 days 10 hours 46 minutes 29 seconds 191 msec
