                         Program Version 4.2.1 -  RELEASE  -
|  1> %pal
|  2>  nprocs 32
|  3> end
|  4> !RI-MP2 aug-cc-pVQZ aug-cc-pVQZ/C TightSCF
|  5> %maxcore 4500
|  6> *xyzfile 0 1  04_30R1.xyz
|  7>
|  8>
|  9>                          ****END OF INPUT****

CARTESIAN COORDINATES (ANGSTROEM)
---------------------------------
  C      0.037273   -0.693679    1.192770
  C      0.037273    0.636609    1.237671
  H      0.117860   -1.301117    2.085073
  C     -0.098335    1.488656    0.000000
  H      0.121596    1.123347    2.200997
  C      0.037273    0.636609   -1.237671
  H      0.660040    2.280919    0.000000
  H     -1.063219    2.015723    0.000000
  C      0.037273   -0.693679   -1.192770
  H      0.121596    1.123347   -2.200997
  H      0.117860   -1.301117   -2.085073
  H      0.186586   -2.370996    0.000000
  N     -0.080980   -1.402458    0.000000

 Total Charge           Charge          ....    0
 Multiplicity           Mult            ....    1
 Number of Electrons    NEL             ....   44
 Basis Dimension        Dim             ....  802

ORBITAL ENERGIES
----------------

  NO   OCC          E(Eh)            E(eV)
   0   2.0000     -15.574151      -423.7942
   1   2.0000     -11.259320      -306.3817
   2   2.0000     -11.259302      -306.3812
   3   2.0000     -11.223667      -305.4115
   4   2.0000     -11.208833      -305.0079
   5   2.0000     -11.208817      -305.0074
   6   2.0000      -1.255537       -34.1649
   7   2.0000      -1.061143       -28.8752
   8   2.0000      -1.025197       -27.8970
   9   2.0000      -0.890416       -24.2294
  10   2.0000      -0.821667       -22.3587
  11   2.0000      -0.735783       -20.0217
  12   2.0000      -0.673063       -18.3150
  13   2.0000      -0.627170       -17.0662
  14   2.0000      -0.592609       -16.1257
  15   2.0000      -0.590531       -16.0692
  16   2.0000      -0.584670       -15.9097
  17   2.0000      -0.521683       -14.1957
  18   2.0000      -0.504038       -13.7156
  19   2.0000      -0.469867       -12.7857
  20   2.0000      -0.365859        -9.9555
  21   2.0000      -0.279614        -7.6087
  22   0.0000       0.023350         0.6354
  23   0.0000       0.031363         0.8534
  24   0.0000       0.031592         0.8597
  25   0.0000       0.042699         1.1619
  26   0.0000       0.044423         1.2088

MULLIKEN ATOMIC CHARGES
-----------------------
   0 C :   -0.300426
   1 C :   -0.342971
   2 H :    0.403530
   3 C :   -0.209946
   4 H :    0.318134
   5 C :   -0.342971
   6 H :    0.177488
   7 H :    0.232415
   8 C :   -0.300426
   9 H :    0.318134
  10 H :    0.403530
  11 H :    0.174985
  12 N :   -0.531476
Sum of atomic charges:    0.0000000

LOEWDIN ATOMIC CHARGES
----------------------
   0 C :    0.207883
   1 C :    0.362419
   2 H :   -0.323734
   3 C :    0.445133
   4 H :   -0.332808
   5 C :    0.362419
   6 H :   -0.298431
   7 H :   -0.289775
   8 C :    0.207883
   9 H :   -0.332808
  10 H :   -0.323734
  11 H :   -0.500018
  12 N :    0.815573

  Mayer bond orders larger than 0.100000
B(  0-C ,  1-C ) :   1.5388 B(  0-C ,  2-H ) :   0.9262 B(  0-C ,  3-C ) :  -0.1150
B(  0-C , 12-N ) :   0.9526 B(  1-C ,  3-C ) :   0.8028 B(  1-C ,  4-H ) :   0.9579
B(  3-C ,  5-C ) :   0.8028 B(  3-C ,  6-H ) :   0.9924 B(  3-C ,  7-H ) :   0.9120
B(  3-C ,  8-C ) :  -0.1150 B(  5-C ,  8-C ) :   1.5388 B(  5-C ,  9-H ) :   0.9579
B(  8-C , 10-H ) :   0.9262 B(  8-C , 12-N ) :   0.9526 B( 11-H , 12-N ) :   1.0812

MP2 TOTAL ENERGY:     -249.012252830 Eh
FINAL SINGLE POINT ENERGY      -249.012252830304

DIPOLE MOMENT
-------------
                                X             Y             Z
Electronic contribution:     -0.08753      -2.09320       0.00000
Nuclear contribution   :      0.26674       1.59109       0.00000
                        -----------------------------------------
Total Dipole Moment    :      0.17921      -0.50211       0.00000
                        -----------------------------------------
Magnitude (a.u.)       :      0.53314
Magnitude (Debye)      :      1.35513

Rotational constants in cm-1:     0.184376     0.171420     0.090672
Rotational constants in MHz :  5527.448975  5139.030376  2718.266424

                             ****ORCA TERMINATED NORMALLY****
TOTAL RUN TIME: 0 days 0 hours 12 minutes 1 seconds 13 msec
