                         Program Version 4.2.1 -  RELEASE  -
|  1> %pal
|  2>  nprocs 32
|  3> end
|  4> !RI-MP2 aug-cc-pVQZ aug-cc-pVQZ/C TightSCF
|  5> %maxcore 4500
|  6> *xyzfile 1 1  10_25TS.xyz
|  7>
|  8>
|  9>                          ****END OF INPUT****

CARTESIAN COORDINATES (ANGSTROEM)
---------------------------------
  C     -2.017044   -2.623465   -0.775851
  C     -0.732829   -1.779121   -0.681585
  C     -1.853322   -1.134035    1.110505
  C     -2.793412   -2.190351    0.503455
  H     -2.568845   -2.424315   -1.695591
  H     -1.773572   -3.685910   -0.765481
  H     -3.777405   -1.777244    0.289010
  H     -2.918611   -3.020390    1.198966
  C     -0.476053   -1.736172    0.825017
  H      0.361260   -1.108293    1.113230
  H     -0.362018   -2.730181    1.253788
  H      0.093395   -2.066871   -1.326711
  H     -2.082159   -0.805167    2.120239
  N     -1.882089    0.005069    0.167451
  N     -1.079606   -0.354392   -0.920862
  C      0.561449    1.448612   -0.507051
  C      1.747102    0.669793   -0.216365
  C      2.292351    0.570460    1.070819
  C      2.392270    0.009701   -1.271200
  C      3.432945   -0.179249    1.293667
  H      1.838136    1.095872    1.900957
  C      3.531688   -0.740501   -1.046886
  H      1.989624    0.093541   -2.274603
  C      4.052236   -0.839166    0.238203
  H      3.850786   -0.240942    2.290462
  H      4.021982   -1.241732   -1.871740
  H      4.948889   -1.419796    0.415644
  H      0.400122    1.656825   -1.559184
  C     -1.891862    1.319392    0.498255
  H     -2.265401    1.482317    1.506382
  C     -0.227749    2.147857    0.417268
  H      0.157754    2.211855    1.429043
  H     -1.561120   -0.205155   -1.804287
  C     -2.278644    2.407124   -0.494530
  C     -1.096899    3.301330   -0.106583
  H     -0.651959    3.884483   -0.911043
  H     -1.354007    3.980075    0.705954
  H     -3.285350    2.804424   -0.363765
  H     -2.182995    2.048614   -1.520228

 Total Charge           Charge          ....    1
 Multiplicity           Mult            ....    1
 Number of Electrons    NEL             ....  130
 Basis Dimension        Dim             .... 2406

ORBITAL ENERGIES
----------------

  NO   OCC          E(Eh)            E(eV)
   0   2.0000     -15.742278      -428.3692
   1   2.0000     -15.739702      -428.2991
   2   2.0000     -11.448879      -311.5398
   3   2.0000     -11.440973      -311.3247
   4   2.0000     -11.398065      -310.1571
   5   2.0000     -11.392894      -310.0164
   6   2.0000     -11.374944      -309.5280
   7   2.0000     -11.371560      -309.4359
   8   2.0000     -11.371103      -309.4234
   9   2.0000     -11.370165      -309.3979
  10   2.0000     -11.365757      -309.2780
  11   2.0000     -11.364081      -309.2324
  12   2.0000     -11.361833      -309.1712
  13   2.0000     -11.355350      -308.9948
  14   2.0000     -11.355238      -308.9917
  15   2.0000     -11.346446      -308.7525
  16   2.0000     -11.342257      -308.6385
  17   2.0000     -11.340451      -308.5894
  18   2.0000      -1.495701       -40.7001
  19   2.0000      -1.306387       -35.5486
  20   2.0000      -1.292901       -35.1816
  21   2.0000      -1.242623       -33.8135
  22   2.0000      -1.237430       -33.6722
  23   2.0000      -1.190587       -32.3975
  24   2.0000      -1.149078       -31.2680
  25   2.0000      -1.113644       -30.3038
  26   2.0000      -1.098137       -29.8818
  27   2.0000      -1.072527       -29.1849
  28   2.0000      -1.016573       -27.6624
  29   2.0000      -0.982721       -26.7412
  30   2.0000      -0.959582       -26.1116
  31   2.0000      -0.944745       -25.7078
  32   2.0000      -0.936342       -25.4792
  33   2.0000      -0.898058       -24.4374
  34   2.0000      -0.894627       -24.3440
  35   2.0000      -0.851983       -23.1836
  36   2.0000      -0.838139       -22.8069
  37   2.0000      -0.812430       -22.1073
  38   2.0000      -0.804453       -21.8903
  39   2.0000      -0.784434       -21.3455
  40   2.0000      -0.769354       -20.9352
  41   2.0000      -0.765539       -20.8314
  42   2.0000      -0.748687       -20.3728
  43   2.0000      -0.727462       -19.7953
  44   2.0000      -0.717149       -19.5146
  45   2.0000      -0.714491       -19.4423
  46   2.0000      -0.706068       -19.2131
  47   2.0000      -0.701223       -19.0813
  48   2.0000      -0.683636       -18.6027
  49   2.0000      -0.673276       -18.3208
  50   2.0000      -0.649960       -17.6863
  51   2.0000      -0.647680       -17.6243
  52   2.0000      -0.642775       -17.4908
  53   2.0000      -0.639824       -17.4105
  54   2.0000      -0.625491       -17.0205
  55   2.0000      -0.617225       -16.7955
  56   2.0000      -0.616804       -16.7841
  57   2.0000      -0.607965       -16.5436
  58   2.0000      -0.601885       -16.3781
  59   2.0000      -0.595048       -16.1921
  60   2.0000      -0.579444       -15.7675
  61   2.0000      -0.524058       -14.2603
  62   2.0000      -0.507240       -13.8027
  63   2.0000      -0.466754       -12.7010
  64   2.0000      -0.432131       -11.7589
  65   0.0000      -0.101085        -2.7507
  66   0.0000      -0.064436        -1.7534
  67   0.0000      -0.060151        -1.6368
  68   0.0000      -0.051973        -1.4143
  69   0.0000      -0.050441        -1.3726

MULLIKEN ATOMIC CHARGES
-----------------------
   0 C :   -0.814973
   1 C :    0.172278
   2 C :    0.124495
   3 C :   -0.748047
   4 H :    0.222141
   5 H :    0.251092
   6 H :    0.254810
   7 H :    0.213306
   8 C :   -1.201984
   9 H :    0.881606
  10 H :    0.134055
  11 H :    0.519583
  12 H :    0.264604
  13 N :   -0.271901
  14 N :   -0.109082
  15 C :    0.634313
  16 C :    0.635000
  17 C :   -0.235727
  18 C :   -0.625917
  19 C :   -0.447472
  20 H :    0.285690
  21 C :   -0.315927
  22 H :    0.224928
  23 C :   -0.358017
  24 H :    0.245091
  25 H :    0.232905
  26 H :    0.374131
  27 H :    0.299066
  28 C :    0.368823
  29 H :    0.290390
  30 C :   -0.557088
  31 H :    0.237646
  32 H :    0.038210
  33 C :   -0.686702
  34 C :   -0.675750
  35 H :    0.321136
  36 H :    0.251535
  37 H :    0.349938
  38 H :    0.221815
Sum of atomic charges:    1.0000000

LOEWDIN ATOMIC CHARGES
----------------------
   0 C :    0.591974
   1 C :    0.035859
   2 C :    0.046571
   3 C :    0.585123
   4 H :   -0.248561
   5 H :   -0.244447
   6 H :   -0.247524
   7 H :   -0.246375
   8 C :    0.557695
   9 H :   -0.297136
  10 H :   -0.227955
  11 H :   -0.232374
  12 H :   -0.229058
  13 N :    0.396716
  14 N :    0.781593
  15 C :    0.389790
  16 C :   -0.063248
  17 C :    0.353060
  18 C :    0.354252
  19 C :    0.391849
  20 H :   -0.315734
  21 C :    0.387390
  22 H :   -0.296573
  23 C :    0.382296
  24 H :   -0.303484
  25 H :   -0.305514
  26 H :   -0.297743
  27 H :   -0.282629
  28 C :    0.127825
  29 H :   -0.249251
  30 C :    0.283087
  31 H :   -0.292046
  32 H :   -0.450423
  33 C :    0.590202
  34 C :    0.563986
  35 H :   -0.241014
  36 H :   -0.248683
  37 H :   -0.226376
  38 H :   -0.273119

  Mayer bond orders larger than 0.100000
B(  0-C ,  1-C ) :   0.4399 B(  0-C ,  2-C ) :  -0.2050 B(  0-C ,  3-C ) :   1.1769
B(  0-C ,  4-H ) :   1.0482 B(  0-C ,  5-H ) :   1.0273 B(  1-C ,  3-C ) :  -0.2804
B(  1-C ,  8-C ) :   0.9170 B(  1-C , 11-H ) :   0.7949 B(  1-C , 14-N ) :   0.8783
B(  2-C ,  3-C ) :   0.6825 B(  2-C ,  8-C ) :   1.0337 B(  2-C , 12-H ) :   0.9538
B(  2-C , 13-N ) :   0.8207 B(  3-C ,  6-H ) :   1.0223 B(  3-C ,  7-H ) :   1.0581
B(  8-C ,  9-H ) :   0.1340 B(  8-C , 10-H ) :   1.2116 B(  9-H , 10-H ) :  -0.1707
B( 13-N , 14-N ) :   0.6842 B( 13-N , 28-C ) :   1.2539 B( 13-N , 30-C ) :   0.1127
B( 14-N , 15-C ) :   0.1281 B( 14-N , 32-H ) :   1.2087 B( 15-C , 16-C ) :   0.2056
B( 15-C , 17-C ) :  -0.2439 B( 15-C , 18-C ) :  -0.4265 B( 15-C , 27-H ) :   1.0429
B( 15-C , 28-C ) :   0.1512 B( 15-C , 30-C ) :   0.9182 B( 15-C , 34-C ) :  -0.3079
B( 16-C , 17-C ) :   1.0798 B( 16-C , 18-C ) :   0.9549 B( 16-C , 19-C ) :  -0.3000
B( 16-C , 21-C ) :  -0.3061 B( 16-C , 22-H ) :  -0.1268 B( 16-C , 27-H ) :  -0.2542
B( 16-C , 30-C ) :  -0.2301 B( 17-C , 19-C ) :   1.2712 B( 17-C , 20-H ) :   0.9955
B( 17-C , 24-H ) :  -0.1232 B( 18-C , 21-C ) :   1.3138 B( 18-C , 22-H ) :   1.0765
B( 18-C , 23-C ) :   0.1595 B( 18-C , 25-H ) :  -0.1699 B( 19-C , 23-C ) :   1.1658
B( 19-C , 24-H ) :   1.1399 B( 19-C , 26-H ) :  -0.1007 B( 21-C , 23-C ) :   1.1090
B( 21-C , 25-H ) :   1.1909 B( 23-C , 25-H ) :  -0.1031 B( 23-C , 26-H ) :   0.9921
B( 28-C , 29-H ) :   0.9749 B( 28-C , 30-C ) :   0.3556 B( 28-C , 33-C ) :   0.5848
B( 28-C , 34-C ) :  -0.2980 B( 30-C , 31-H ) :   1.0179 B( 30-C , 33-C ) :  -0.2133
B( 30-C , 34-C ) :   0.9944 B( 33-C , 34-C ) :   1.3579 B( 33-C , 37-H ) :   0.8745
B( 33-C , 38-H ) :   1.0113 B( 34-C , 35-H ) :   0.8867 B( 34-C , 36-H ) :   1.0180

MP2 TOTAL ENERGY:     -730.222483424 Eh
FINAL SINGLE POINT ENERGY      -730.222483423752

DIPOLE MOMENT
-------------
                                X             Y             Z
Electronic contribution:      6.81443       1.79274      -0.19630
Nuclear contribution   :     -7.27699      -1.49848       0.12907
                        -----------------------------------------
Total Dipole Moment    :     -0.46256       0.29426      -0.06723
                        -----------------------------------------
Magnitude (a.u.)       :      0.55233
Magnitude (Debye)      :      1.40392

Rotational constants in cm-1:     0.020111     0.012556     0.009217
Rotational constants in MHz :   602.917245   376.424400   276.321964

                             ****ORCA TERMINATED NORMALLY****
TOTAL RUN TIME: 0 days 10 hours 2 minutes 16 seconds 577 msec
