                         Program Version 4.2.1 -  RELEASE  -
|  1> %pal
|  2>  nprocs 32
|  3> end
|  4> !RI-MP2 aug-cc-pVQZ aug-cc-pVQZ/C TightSCF
|  5> %maxcore 4500
|  6> *xyzfile -1 1  05_17TS.xyz
|  7>
|  8>
|  9>                          ****END OF INPUT****

CARTESIAN COORDINATES (ANGSTROEM)
---------------------------------
  N      2.714883    2.722776    0.357931
  C      3.906123    3.108973   -0.171150
  N      4.840782    2.100149   -0.453271
  C      4.681867    0.740243   -0.261896
  C      3.420669    0.399118    0.351707
  C      2.499424    1.439428    0.579116
  N      1.262119    1.088106    1.106117
  N      3.157286   -0.925291    0.582184
  C      1.971927   -1.214060    1.209235
  C      0.996419   -0.219620    1.461629
  C     -0.217473   -0.593581    2.040848
  C      1.677198   -2.554136    1.496768
  C      0.458594   -2.914159    2.029274
  C     -0.489504   -1.927095    2.289163
  H     -1.458234   -2.200468    2.688983
  H     -0.981204    0.145748    2.222812
  H      2.443305   -3.288138    1.280585
  H      0.231995   -3.954425    2.226544
  O      4.211273    4.266664   -0.417387
  O      5.539655   -0.056709   -0.626209
  C      3.658298   -2.624751   -2.362280
  C      2.527826   -1.813727   -1.766953
  H      4.618050   -2.147964   -2.158531
  H      3.541610   -2.725363   -3.446354
  H      3.678752   -3.631035   -1.935216
  C      1.261840   -2.402466   -1.552606
  H      2.501483   -0.769369   -2.095494
  C      0.117469   -1.667561   -1.258010
  H      1.196354   -3.487957   -1.517193
  C     -1.115760   -2.176874   -0.900510
  H      0.195761   -0.583766   -1.292719
  C     -2.165457   -1.308299   -0.514624
  H     -1.288256   -3.245724   -0.862065
  O     -2.144080   -0.084921   -0.447223
  S     -3.701756   -2.191856   -0.030795
  C     -4.732393   -0.752655    0.342897
  C     -5.258984   -0.063215   -0.913406
  H     -4.133445   -0.054060    0.926157
  H     -5.555620   -1.108712    0.964976
  N     -6.038157    1.125131   -0.615350
  H     -5.883668   -0.754638   -1.482552
  H     -4.418758    0.206878   -1.549101
  C     -5.568777    2.394890   -0.441025
  O     -6.306698    3.277739   -0.033763
  C     -4.129770    2.653681   -0.813744
  H     -4.025839    2.642659   -1.902039
  H     -3.443395    1.902254   -0.421156
  H     -3.860751    3.641941   -0.449387
  H     -6.993987    1.008140   -0.311768
  H      2.992389   -1.524124   -0.576576
  H      5.701845    2.400566   -0.886358
  C      0.218902    2.091488    1.250240
  H      0.596729    3.017631    0.830718
  H     -0.020982    2.247660    2.305529
  H     -0.676252    1.759949    0.718257

 Total Charge           Charge          ....   -1
 Multiplicity           Mult            ....    1
 Number of Electrons    NEL             ....  234
 Basis Dimension        Dim             .... 3588

ORBITAL ENERGIES
----------------

  NO   OCC          E(Eh)            E(eV)
   0   2.0000     -91.871583     -2499.9529
   1   2.0000     -20.436993      -556.1188
   2   2.0000     -20.434937      -556.0629
   3   2.0000     -20.403481      -555.2069
   4   2.0000     -20.387648      -554.7761
   5   2.0000     -15.516829      -422.2344
   6   2.0000     -15.507329      -421.9759
   7   2.0000     -15.505430      -421.9242
   8   2.0000     -15.481526      -421.2737
   9   2.0000     -15.416143      -419.4946
  10   2.0000     -11.271393      -306.7102
  11   2.0000     -11.253727      -306.2295
  12   2.0000     -11.252629      -306.1996
  13   2.0000     -11.240716      -305.8754
  14   2.0000     -11.234592      -305.7088
  15   2.0000     -11.209248      -305.0192
  16   2.0000     -11.197939      -304.7114
  17   2.0000     -11.185084      -304.3616
  18   2.0000     -11.183168      -304.3095
  19   2.0000     -11.162191      -303.7387
  20   2.0000     -11.161321      -303.7150
  21   2.0000     -11.160069      -303.6809
  22   2.0000     -11.158208      -303.6303
  23   2.0000     -11.154070      -303.5177
  24   2.0000     -11.148462      -303.3651
  25   2.0000     -11.147598      -303.3416
  26   2.0000     -11.144939      -303.2692
  27   2.0000     -11.142175      -303.1940
  28   2.0000     -11.134744      -302.9918
  29   2.0000     -11.133574      -302.9600
  30   2.0000     -11.115173      -302.4592
  31   2.0000      -8.874426      -241.4854
  32   2.0000      -6.555907      -178.3953
  33   2.0000      -6.554970      -178.3698
  34   2.0000      -6.554327      -178.3523
  35   2.0000      -1.303263       -35.4636
  36   2.0000      -1.284309       -34.9478
  37   2.0000      -1.283240       -34.9187
  38   2.0000      -1.255861       -34.1737
  39   2.0000      -1.231958       -33.5233
  40   2.0000      -1.157882       -31.5076
  41   2.0000      -1.155738       -31.4492
  42   2.0000      -1.134785       -30.8791
  43   2.0000      -1.082920       -29.4677
  44   2.0000      -1.053170       -28.6582
  45   2.0000      -1.016878       -27.6707
  46   2.0000      -0.993314       -27.0294
  47   2.0000      -0.957064       -26.0430
  48   2.0000      -0.942747       -25.6535
  49   2.0000      -0.937031       -25.4979
  50   2.0000      -0.923924       -25.1413
  51   2.0000      -0.898570       -24.4513
  52   2.0000      -0.890237       -24.2246
  53   2.0000      -0.851125       -23.1603
  54   2.0000      -0.838558       -22.8183
  55   2.0000      -0.797083       -21.6897
  56   2.0000      -0.784808       -21.3557
  57   2.0000      -0.744226       -20.2514
  58   2.0000      -0.736347       -20.0370
  59   2.0000      -0.726914       -19.7803
  60   2.0000      -0.707403       -19.2494
  61   2.0000      -0.705905       -19.2087
  62   2.0000      -0.678430       -18.4610
  63   2.0000      -0.657564       -17.8932
  64   2.0000      -0.633647       -17.2424
  65   2.0000      -0.628394       -17.0995
  66   2.0000      -0.612789       -16.6748
  67   2.0000      -0.611123       -16.6295
  68   2.0000      -0.593652       -16.1541
  69   2.0000      -0.585330       -15.9276
  70   2.0000      -0.576743       -15.6940
  71   2.0000      -0.567666       -15.4470
  72   2.0000      -0.560595       -15.2546
  73   2.0000      -0.556533       -15.1440
  74   2.0000      -0.547567       -14.9001
  75   2.0000      -0.542375       -14.7588
  76   2.0000      -0.536135       -14.5890
  77   2.0000      -0.535590       -14.5741
  78   2.0000      -0.523315       -14.2401
  79   2.0000      -0.513369       -13.9695
  80   2.0000      -0.509818       -13.8729
  81   2.0000      -0.502757       -13.6807
  82   2.0000      -0.500366       -13.6157
  83   2.0000      -0.495940       -13.4952
  84   2.0000      -0.493043       -13.4164
  85   2.0000      -0.491091       -13.3633
  86   2.0000      -0.482889       -13.1401
  87   2.0000      -0.475323       -12.9342
  88   2.0000      -0.473821       -12.8933
  89   2.0000      -0.464023       -12.6267
  90   2.0000      -0.461477       -12.5574
  91   2.0000      -0.447666       -12.1816
  92   2.0000      -0.440436       -11.9849
  93   2.0000      -0.438161       -11.9230
  94   2.0000      -0.433294       -11.7905
  95   2.0000      -0.432907       -11.7800
  96   2.0000      -0.430820       -11.7232
  97   2.0000      -0.426023       -11.5927
  98   2.0000      -0.414044       -11.2667
  99   2.0000      -0.410921       -11.1817
 100   2.0000      -0.398968       -10.8565
 101   2.0000      -0.396584       -10.7916
 102   2.0000      -0.374508       -10.1909
 103   2.0000      -0.345989        -9.4148
 104   2.0000      -0.342560        -9.3215
 105   2.0000      -0.331307        -9.0153
 106   2.0000      -0.320171        -8.7123
 107   2.0000      -0.318306        -8.6615
 108   2.0000      -0.311587        -8.4787
 109   2.0000      -0.305842        -8.3224
 110   2.0000      -0.304623        -8.2892
 111   2.0000      -0.299107        -8.1391
 112   2.0000      -0.281577        -7.6621
 113   2.0000      -0.249740        -6.7958
 114   2.0000      -0.237028        -6.4499
 115   2.0000      -0.210797        -5.7361
 116   2.0000      -0.128268        -3.4904
 117   0.0000       0.074302         2.0219
 118   0.0000       0.080048         2.1782
 119   0.0000       0.082921         2.2564
 120   0.0000       0.088948         2.4204
 121   0.0000       0.092117         2.5066

MULLIKEN ATOMIC CHARGES
-----------------------
   0 N :   -1.097316
   1 C :    1.190012
   2 N :   -0.982321
   3 C :    1.861475
   4 C :   -0.726639
   5 C :    1.466114
   6 N :   -0.271118
   7 N :   -0.567202
   8 C :    1.222369
   9 C :    1.667904
  10 C :   -0.565440
  11 C :   -0.797406
  12 C :   -0.451993
  13 C :   -0.664703
  14 H :    0.020114
  15 H :   -0.004840
  16 H :    0.216593
  17 H :    0.091541
  18 O :   -1.018269
  19 O :   -1.091957
  20 C :   -1.119951
  21 C :    0.421941
  22 H :    0.294746
  23 H :    0.211060
  24 H :    0.247492
  25 C :   -0.126778
  26 H :    0.153210
  27 C :    0.161953
  28 H :    0.050657
  29 C :   -0.296539
  30 H :    0.086188
  31 C :    0.792631
  32 H :    0.071612
  33 O :   -1.032172
  34 S :   -0.232723
  35 C :   -0.784811
  36 C :   -0.097031
  37 H :    0.254018
  38 H :    0.341730
  39 N :   -0.757748
  40 H :    0.419828
  41 H :    0.304773
  42 C :    1.321618
  43 O :   -0.959678
  44 C :   -0.902434
  45 H :    0.262073
  46 H :    0.212360
  47 H :    0.236478
  48 H :    0.015544
  49 H :    0.435441
  50 H :   -0.053962
  51 C :   -1.502231
  52 H :    0.222501
  53 H :    0.349764
  54 H :    0.501521
Sum of atomic charges:   -1.0000000

LOEWDIN ATOMIC CHARGES
----------------------
   0 N :    0.542105
   1 C :   -1.153789
   2 N :    0.740508
   3 C :   -0.906348
   4 C :   -0.315247
   5 C :   -0.509061
   6 N :    0.469013
   7 N :    0.738654
   8 C :   -0.278624
   9 C :   -0.220585
  10 C :    0.331475
  11 C :    0.331257
  12 C :    0.345846
  13 C :    0.324098
  14 H :   -0.310381
  15 H :   -0.356042
  16 H :   -0.295351
  17 H :   -0.315328
  18 O :    0.602221
  19 O :    0.679026
  20 C :    0.950623
  21 C :    0.381531
  22 H :   -0.298322
  23 H :   -0.274154
  24 H :   -0.283125
  25 C :    0.391477
  26 H :   -0.259043
  27 C :    0.296113
  28 H :   -0.308043
  29 C :    0.168585
  30 H :   -0.337044
  31 C :   -1.100687
  32 H :   -0.387307
  33 O :    0.687358
  34 S :    1.312487
  35 C :    0.111360
  36 C :    0.287464
  37 H :   -0.402539
  38 H :   -0.364777
  39 N :    0.832517
  40 H :   -0.290220
  41 H :   -0.371431
  42 C :   -0.830040
  43 O :    0.678974
  44 C :    0.883637
  45 H :   -0.273075
  46 H :   -0.381953
  47 H :   -0.312235
  48 H :   -0.512208
  49 H :   -0.737882
  50 H :   -0.539146
  51 C :    0.778541
  52 H :   -0.370829
  53 H :   -0.259849
  54 H :   -0.310209

  Mayer bond orders larger than 0.100000
B(  0-N ,  1-C ) :   1.5337 B(  0-N ,  4-C ) :   0.1059 B(  0-N ,  5-C ) :   0.1316
B(  0-N ,  6-N ) :   0.3989 B(  1-C ,  2-N ) :   1.0453 B(  1-C ,  3-C ) :   0.1148
B(  1-C , 18-O ) :   0.9705 B(  1-C , 50-H ) :  -0.1348 B(  2-N ,  3-C ) :   0.7477
B(  2-N ,  4-C ) :  -0.1793 B(  2-N , 18-O ) :   0.1805 B(  2-N , 19-O ) :   0.2945
B(  2-N , 50-H ) :   1.3876 B(  3-C ,  4-C ) :   2.0405 B(  3-C ,  5-C ) :  -0.5525
B(  3-C ,  7-N ) :  -0.1761 B(  3-C , 19-O ) :   0.1608 B(  3-C , 50-H ) :  -0.2031
B(  4-C ,  5-C ) :   0.8029 B(  4-C ,  7-N ) :   0.8676 B(  4-C ,  8-C ) :  -0.4075
B(  4-C , 19-O ) :   0.6812 B(  5-C ,  6-N ) :   1.4383 B(  5-C ,  7-N ) :   0.1407
B(  5-C , 10-C ) :  -0.1187 B(  6-N ,  8-C ) :  -0.3611 B(  6-N ,  9-C ) :   0.5615
B(  6-N , 10-C ) :  -0.3410 B(  6-N , 51-C ) :   1.0150 B(  7-N ,  8-C ) :   0.1754
B(  7-N , 25-C ) :   0.1383 B(  8-C ,  9-C ) :   0.8232 B(  8-C , 10-C ) :  -0.3109
B(  8-C , 11-C ) :   0.9896 B(  8-C , 12-C ) :  -0.2222 B(  8-C , 16-H ) :  -0.2213
B(  8-C , 19-O ) :   0.1532 B(  8-C , 21-C ) :   0.1346 B(  8-C , 49-H ) :   0.1234
B(  9-C , 10-C ) :   0.5153 B(  9-C , 11-C ) :  -0.5469 B(  9-C , 13-C ) :  -0.6995
B(  9-C , 15-H ) :  -0.2211 B(  9-C , 27-C ) :   0.1766 B(  9-C , 51-C ) :  -0.4828
B(  9-C , 53-H ) :  -0.1085 B( 10-C , 11-C ) :   0.1468 B( 10-C , 13-C ) :   1.3802
B( 10-C , 14-H ) :  -0.2104 B( 10-C , 15-H ) :   1.2739 B( 11-C , 12-C ) :   1.4600
B( 11-C , 13-C ) :   0.2642 B( 11-C , 16-H ) :   1.0870 B( 11-C , 17-H ) :  -0.2524
B( 12-C , 13-C ) :   1.3282 B( 12-C , 17-H ) :   1.3382 B( 13-C , 14-H ) :   1.4207
B( 13-C , 15-H ) :  -0.1552 B( 20-C , 21-C ) :   0.2853 B( 20-C , 22-H ) :   1.0711
B( 20-C , 23-H ) :   1.1084 B( 20-C , 24-H ) :   1.0523 B( 21-C , 22-H ) :  -0.1573
B( 21-C , 23-H ) :  -0.1545 B( 21-C , 24-H ) :  -0.2136 B( 21-C , 25-C ) :   0.8399
B( 21-C , 26-H ) :   1.1241 B( 21-C , 27-C ) :  -0.3626 B( 21-C , 49-H ) :   0.3210
B( 24-H , 25-C ) :   0.1308 B( 25-C , 26-H ) :  -0.1626 B( 25-C , 27-C ) :   0.6569
B( 25-C , 28-H ) :   1.2865 B( 25-C , 29-C ) :  -0.6595 B( 25-C , 30-H ) :  -0.1201
B( 27-C , 28-H ) :  -0.1565 B( 27-C , 29-C ) :   0.8449 B( 27-C , 30-H ) :   1.2204
B( 27-C , 31-C ) :  -0.5731 B( 27-C , 32-H ) :  -0.1051 B( 27-C , 33-O ) :  -0.2652
B( 29-C , 31-C ) :   0.4288 B( 29-C , 32-H ) :   1.2478 B( 29-C , 33-O ) :   0.1973
B( 29-C , 34-S ) :  -0.4027 B( 29-C , 35-C ) :   0.1012 B( 30-H , 33-O ) :   0.1309
B( 31-C , 32-H ) :  -0.1079 B( 31-C , 33-O ) :   1.0777 B( 31-C , 34-S ) :   1.0280
B( 31-C , 35-C ) :  -0.1918 B( 34-S , 35-C ) :   0.9762 B( 35-C , 36-C ) :   0.9697
B( 35-C , 37-H ) :   0.8826 B( 35-C , 38-H ) :   0.8799 B( 36-C , 39-N ) :   0.6633
B( 36-C , 40-H ) :   0.8171 B( 36-C , 41-H ) :   0.8868 B( 39-N , 42-C ) :   1.1276
B( 39-N , 43-O ) :   0.2442 B( 39-N , 48-H ) :   1.2597 B( 42-C , 43-O ) :   0.7040
B( 42-C , 44-C ) :   1.0437 B( 42-C , 46-H ) :  -0.1460 B( 42-C , 48-H ) :  -0.1143
B( 43-O , 44-C ) :   0.1633 B( 43-O , 46-H ) :   0.1011 B( 44-C , 45-H ) :   0.9037
B( 44-C , 46-H ) :   0.8462 B( 44-C , 47-H ) :   1.0178 B( 51-C , 52-H ) :   1.0276
B( 51-C , 53-H ) :   0.9307 B( 51-C , 54-H ) :   0.7348 B( 53-H , 54-H ) :   0.1481

MP2 TOTAL ENERGY:    -1785.028087273 Eh
FINAL SINGLE POINT ENERGY     -1785.028087273282

DIPOLE MOMENT
-------------
                                X             Y             Z
Electronic contribution:     11.82568       6.46506       7.05367
Nuclear contribution   :    -14.70709     -10.16773      -6.66432
                        -----------------------------------------
Total Dipole Moment    :     -2.88141      -3.70267       0.38936
                        -----------------------------------------
Magnitude (a.u.)       :      4.70785
Magnitude (Debye)      :     11.96640

Rotational constants in cm-1:     0.006939     0.002738     0.002255
Rotational constants in MHz :   208.011987    82.087503    67.612938

                             ****ORCA TERMINATED NORMALLY****
TOTAL RUN TIME: 1 days 5 hours 9 minutes 3 seconds 98 msec
