                         Program Version 4.2.1 -  RELEASE  -
|  1> %pal
|  2>  nprocs 32
|  3> end
|  4> !RI-MP2 aug-cc-pVQZ aug-cc-pVQZ/C TightSCF
|  5> %maxcore 4500
|  6> *xyzfile 0 1  02_20P.xyz
|  7>
|  8>
|  9>                          ****END OF INPUT****

CARTESIAN COORDINATES (ANGSTROEM)
---------------------------------
  C     -0.043125    0.601643    0.018299
  C     -1.179200    1.533868    0.508753
  C     -0.406586   -0.900475   -0.113364
  C      1.225835    0.802716    0.823465
  C     -2.454956    0.826188    0.925674
  C     -1.413235    2.666231   -0.478755
  C     -2.488319   -0.477850    1.176473
  C     -1.295367   -1.391406    1.048770
  C     -1.744057   -2.839661    0.789043
  C     -0.521910   -1.381344    2.378132
  C     -1.045701   -1.163581   -1.481184
  H      0.385188   -1.989709    2.301699
  H     -0.240653   -0.374178    2.682021
  H     -1.140205   -1.803222    3.174546
  C     -2.400556   -3.074669   -0.567331
  H     -2.424172   -3.141008    1.593745
  H     -0.866570   -3.494769    0.866897
  C     -1.447263   -2.619739   -1.668155
  H     -1.933764   -0.536614   -1.589666
  H     -0.336163   -0.860105   -2.253192
  C     -2.815798   -4.531040   -0.736190
  H     -3.300597   -2.449415   -0.625118
  H     -1.909311   -2.756870   -2.650596
  H     -0.553152   -3.257024   -1.651729
  C     -3.642489    1.707620    1.188391
  H     -3.393074    2.476332    1.926174
  H     -3.966326    2.237722    0.289713
  H     -4.482950    1.125539    1.568197
  H     -1.944082   -5.190922   -0.684458
  H     -3.513735   -4.840474    0.046068
  H     -3.299522   -4.695302   -1.702367
  C     -1.999670    2.283650   -1.809674
  H     -1.281180    1.719796   -2.410718
  H     -2.870494    1.636815   -1.676606
  H     -2.310836    3.147825   -2.393248
  C     -1.069685    3.907898   -0.139508
  C     -1.176362    5.156805   -0.958580
  H     -0.189518    5.608300   -1.098448
  H     -1.604631    4.988364   -1.945590
  H     -1.792347    5.902632   -0.447126
  H     -0.647303    4.048969    0.852925
  C      2.465237    0.137371    0.318519
  O      1.297658    1.462966    1.835500
  C      3.510072   -0.170696    1.084732
  C      2.772300   -0.268770   -1.093310
  H      3.582083    0.013431    2.148145
  C      4.605951   -0.811159    0.287368
  N      4.020667   -0.820863   -1.038272
  H      4.489866   -1.139540   -1.870186
  O      2.093321   -0.134246   -2.089357
  C      5.927181   -0.049826    0.358117
  H      6.677996   -0.524038   -0.276740
  H      6.307718   -0.041942    1.381211
  H      5.790083    0.980545    0.026647
  H      4.760471   -1.837735    0.643472
  H     -3.407157   -0.919488    1.556302
  H      0.518907   -1.486954   -0.077910
  H      0.258529    0.903966   -0.988613
  H     -0.809393    2.002708    1.425205

 Total Charge           Charge          ....    0
 Multiplicity           Mult            ....    1
 Number of Electrons    NEL             ....  194
 Basis Dimension        Dim             .... 3598

ORBITAL ENERGIES
----------------

  NO   OCC          E(Eh)            E(eV)
   0   2.0000     -20.542136      -558.9799
   1   2.0000     -20.525145      -558.5176
   2   2.0000     -15.590806      -424.2474
   3   2.0000     -11.360928      -309.1466
   4   2.0000     -11.333383      -308.3970
   5   2.0000     -11.302295      -307.5511
   6   2.0000     -11.277834      -306.8855
   7   2.0000     -11.253586      -306.2256
   8   2.0000     -11.245776      -306.0131
   9   2.0000     -11.225776      -305.4689
  10   2.0000     -11.223038      -305.3944
  11   2.0000     -11.221260      -305.3460
  12   2.0000     -11.219093      -305.2871
  13   2.0000     -11.218158      -305.2616
  14   2.0000     -11.217769      -305.2510
  15   2.0000     -11.210049      -305.0409
  16   2.0000     -11.208951      -305.0111
  17   2.0000     -11.207675      -304.9763
  18   2.0000     -11.206417      -304.9421
  19   2.0000     -11.205798      -304.9253
  20   2.0000     -11.205559      -304.9187
  21   2.0000     -11.202660      -304.8399
  22   2.0000     -11.201853      -304.8179
  23   2.0000     -11.200866      -304.7911
  24   2.0000     -11.199621      -304.7572
  25   2.0000     -11.196680      -304.6772
  26   2.0000      -1.396025       -37.9878
  27   2.0000      -1.389741       -37.8168
  28   2.0000      -1.276106       -34.7246
  29   2.0000      -1.155556       -31.4443
  30   2.0000      -1.108991       -30.1772
  31   2.0000      -1.099667       -29.9235
  32   2.0000      -1.069823       -29.1114
  33   2.0000      -1.056181       -28.7401
  34   2.0000      -1.043453       -28.3938
  35   2.0000      -1.031914       -28.0798
  36   2.0000      -0.994614       -27.0648
  37   2.0000      -0.970773       -26.4161
  38   2.0000      -0.930150       -25.3107
  39   2.0000      -0.919155       -25.0115
  40   2.0000      -0.915452       -24.9107
  41   2.0000      -0.912042       -24.8179
  42   2.0000      -0.887758       -24.1571
  43   2.0000      -0.864678       -23.5291
  44   2.0000      -0.834707       -22.7135
  45   2.0000      -0.815078       -22.1794
  46   2.0000      -0.799574       -21.7575
  47   2.0000      -0.779362       -21.2075
  48   2.0000      -0.751358       -20.4455
  49   2.0000      -0.732259       -19.9258
  50   2.0000      -0.710595       -19.3363
  51   2.0000      -0.699442       -19.0328
  52   2.0000      -0.671990       -18.2858
  53   2.0000      -0.666869       -18.1464
  54   2.0000      -0.659463       -17.9449
  55   2.0000      -0.646207       -17.5842
  56   2.0000      -0.636179       -17.3113
  57   2.0000      -0.626978       -17.0609
  58   2.0000      -0.620600       -16.8874
  59   2.0000      -0.617742       -16.8096
  60   2.0000      -0.608915       -16.5694
  61   2.0000      -0.601229       -16.3603
  62   2.0000      -0.596110       -16.2210
  63   2.0000      -0.589767       -16.0484
  64   2.0000      -0.584776       -15.9126
  65   2.0000      -0.568474       -15.4690
  66   2.0000      -0.566956       -15.4277
  67   2.0000      -0.560412       -15.2496
  68   2.0000      -0.556984       -15.1563
  69   2.0000      -0.554651       -15.0928
  70   2.0000      -0.549263       -14.9462
  71   2.0000      -0.544101       -14.8057
  72   2.0000      -0.540905       -14.7188
  73   2.0000      -0.536459       -14.5978
  74   2.0000      -0.532452       -14.4888
  75   2.0000      -0.530034       -14.4230
  76   2.0000      -0.526942       -14.3388
  77   2.0000      -0.523774       -14.2526
  78   2.0000      -0.520495       -14.1634
  79   2.0000      -0.504639       -13.7319
  80   2.0000      -0.503484       -13.7005
  81   2.0000      -0.496428       -13.5085
  82   2.0000      -0.491155       -13.3650
  83   2.0000      -0.472873       -12.8675
  84   2.0000      -0.465855       -12.6766
  85   2.0000      -0.464355       -12.6357
  86   2.0000      -0.453760       -12.3474
  87   2.0000      -0.447201       -12.1690
  88   2.0000      -0.434656       -11.8276
  89   2.0000      -0.431222       -11.7341
  90   2.0000      -0.420320       -11.4375
  91   2.0000      -0.408393       -11.1129
  92   2.0000      -0.405940       -11.0462
  93   2.0000      -0.401106       -10.9147
  94   2.0000      -0.392178       -10.6717
  95   2.0000      -0.328410        -8.9365
  96   2.0000      -0.324029        -8.8173
  97   0.0000       0.014487         0.3942
  98   0.0000       0.023502         0.6395
  99   0.0000       0.025651         0.6980
 100   0.0000       0.026811         0.7296
 101   0.0000       0.030805         0.8382

MULLIKEN ATOMIC CHARGES
-----------------------
   0 C :   -1.040748
   1 C :    0.759549
   2 C :    0.471244
   3 C :    3.327971
   4 C :   -0.153105
   5 C :    0.995773
   6 C :   -0.191019
   7 C :    1.913761
   8 C :   -0.577652
   9 C :   -1.222148
  10 C :   -0.360764
  11 H :    0.138737
  12 H :    0.221807
  13 H :   -0.013350
  14 C :    0.326362
  15 H :    0.019264
  16 H :    0.036708
  17 C :   -0.870839
  18 H :    0.105039
  19 H :    0.226747
  20 C :   -1.184132
  21 H :    0.142414
  22 H :    0.069715
  23 H :    0.028642
  24 C :   -1.046785
  25 H :    0.092528
  26 H :    0.163049
  27 H :    0.178275
  28 H :    0.158549
  29 H :    0.189204
  30 H :    0.210108
  31 C :   -0.831851
  32 H :    0.355908
  33 H :    0.123943
  34 H :    0.229591
  35 C :   -0.836630
  36 C :   -1.043917
  37 H :    0.289105
  38 H :    0.236241
  39 H :    0.302959
  40 H :    0.128009
  41 C :   -0.878591
  42 O :   -1.419547
  43 C :   -0.630946
  44 C :    1.875246
  45 H :    0.281938
  46 C :    0.032210
  47 N :   -0.803220
  48 H :    0.005277
  49 O :   -1.253134
  50 C :   -1.021372
  51 H :    0.273669
  52 H :    0.301394
  53 H :    0.258603
  54 H :    0.396194
  55 H :    0.008650
  56 H :   -0.083290
  57 H :    0.394760
  58 H :    0.193901
Sum of atomic charges:    0.0000000

LOEWDIN ATOMIC CHARGES
----------------------
   0 C :    0.139012
   1 C :    0.104234
   2 C :    0.152230
   3 C :   -0.605826
   4 C :    0.029349
   5 C :   -0.002796
   6 C :    0.399925
   7 C :   -0.236406
   8 C :    0.508275
   9 C :    0.940431
  10 C :    0.564332
  11 H :   -0.254065
  12 H :   -0.306894
  13 H :   -0.253579
  14 C :    0.132487
  15 H :   -0.257540
  16 H :   -0.255342
  17 C :    0.562676
  18 H :   -0.287560
  19 H :   -0.283122
  20 C :    0.941368
  21 H :   -0.261934
  22 H :   -0.245393
  23 H :   -0.249330
  24 C :    0.928055
  25 H :   -0.263605
  26 H :   -0.296359
  27 H :   -0.293985
  28 H :   -0.272605
  29 H :   -0.269959
  30 H :   -0.271021
  31 C :    0.934539
  32 H :   -0.271720
  33 H :   -0.289070
  34 H :   -0.306253
  35 C :    0.426658
  36 C :    0.918729
  37 H :   -0.286434
  38 H :   -0.333047
  39 H :   -0.286100
  40 H :   -0.318080
  41 C :   -0.076259
  42 O :    0.822102
  43 C :    0.379483
  44 C :   -0.831211
  45 H :   -0.258863
  46 C :   -0.049357
  47 N :    0.840988
  48 H :   -0.448933
  49 O :    0.749824
  50 C :    0.947428
  51 H :   -0.273624
  52 H :   -0.274887
  53 H :   -0.274610
  54 H :   -0.263680
  55 H :   -0.293716
  56 H :   -0.299979
  57 H :   -0.398796
  58 H :   -0.420186

  Mayer bond orders larger than 0.100000
B(  0-C ,  1-C ) :   0.9877 B(  0-C ,  2-C ) :   0.7851 B(  0-C ,  3-C ) :   1.1857
B(  0-C ,  5-C ) :  -0.2543 B(  0-C , 17-C ) :   0.1358 B(  0-C , 31-C ) :  -0.2424
B(  0-C , 41-C ) :  -0.1406 B(  0-C , 42-O ) :   1.7611 B(  0-C , 49-O ) :   0.1884
B(  0-C , 56-H ) :  -0.2210 B(  0-C , 57-H ) :   0.6085 B(  0-C , 58-H ) :  -0.1638
B(  1-C ,  2-C ) :   0.1512 B(  1-C ,  3-C ) :  -0.1105 B(  1-C ,  5-C ) :   1.1529
B(  1-C ,  6-C ) :  -0.2012 B(  1-C ,  7-C ) :  -0.1627 B(  1-C ,  9-C ) :   0.1314
B(  1-C , 24-C ) :  -0.4895 B(  1-C , 31-C ) :   0.1771 B(  1-C , 35-C ) :   0.1187
B(  1-C , 41-C ) :  -0.2140 B(  1-C , 42-O ) :  -0.3299 B(  1-C , 58-H ) :   1.0382
B(  2-C ,  4-C ) :   0.1855 B(  2-C ,  6-C ) :   0.9146 B(  2-C ,  7-C ) :   0.6889
B(  2-C ,  8-C ) :  -0.4437 B(  2-C , 10-C ) :  -0.1167 B(  2-C , 14-C ) :   0.1790
B(  2-C , 16-H ) :  -0.1541 B(  2-C , 17-C ) :  -0.3706 B(  2-C , 18-H ) :  -0.3516
B(  2-C , 19-H ) :  -0.1547 B(  2-C , 41-C ) :   0.4066 B(  2-C , 42-O ) :   0.1379
B(  2-C , 44-C ) :   0.1762 B(  2-C , 56-H ) :   0.9561 B(  2-C , 57-H ) :  -0.1597
B(  3-C ,  7-C ) :  -0.3202 B(  3-C , 35-C ) :  -0.1207 B(  3-C , 41-C ) :  -0.2698
B(  3-C , 42-O ) :  -1.5226 B(  3-C , 43-C ) :  -0.3546 B(  3-C , 44-C ) :  -0.2677
B(  3-C , 49-O ) :  -0.2306 B(  4-C ,  5-C ) :   0.1969 B(  4-C , 24-C ) :   0.7581
B(  4-C , 25-H ) :  -0.2996 B(  4-C , 26-H ) :  -0.2566 B(  4-C , 42-O ) :  -0.1096
B(  4-C , 55-H ) :  -0.2963 B(  5-C , 31-C ) :   0.2090 B(  5-C , 33-H ) :  -0.2129
B(  5-C , 34-H ) :  -0.1293 B(  5-C , 35-C ) :   0.5369 B(  5-C , 36-C ) :  -0.1165
B(  5-C , 38-H ) :   0.1047 B(  5-C , 40-H ) :  -0.2094 B(  6-C ,  7-C ) :   0.2130
B(  6-C ,  9-C ) :  -0.1777 B(  6-C , 10-C ) :  -0.1096 B(  6-C , 24-C ) :  -0.2417
B(  6-C , 55-H ) :   1.2458 B(  6-C , 56-H ) :   0.1661 B(  7-C ,  8-C ) :   0.3233
B(  7-C ,  9-C ) :  -0.5391 B(  7-C , 11-H ) :  -0.3624 B(  7-C , 12-H ) :  -0.2110
B(  7-C , 13-H ) :  -0.3549 B(  7-C , 14-C ) :  -0.1941 B(  7-C , 15-H ) :  -0.2548
B(  7-C , 16-H ) :  -0.2746 B(  7-C , 20-C ) :  -0.1266 B(  7-C , 41-C ) :   0.1028
B(  7-C , 55-H ) :  -0.1457 B(  7-C , 56-H ) :   0.2060 B(  8-C ,  9-C ) :   0.1385
B(  8-C , 14-C ) :   0.3819 B(  8-C , 15-H ) :   1.3883 B(  8-C , 16-H ) :   1.3542
B(  8-C , 17-C ) :  -0.2041 B(  9-C , 11-H ) :   1.3061 B(  9-C , 12-H ) :   1.1511
B(  9-C , 13-H ) :   1.4680 B( 10-C , 14-C ) :  -0.1942 B( 10-C , 17-C ) :   0.5373
B( 10-C , 18-H ) :   1.2307 B( 10-C , 19-H ) :   1.1221 B( 10-C , 22-H ) :  -0.1775
B( 10-C , 23-H ) :  -0.2360 B( 10-C , 49-O ) :  -0.1529 B( 10-C , 56-H ) :  -0.2574
B( 10-C , 57-H ) :   0.1038 B( 14-C , 17-C ) :   0.5640 B( 14-C , 18-H ) :   0.1450
B( 14-C , 20-C ) :   0.2486 B( 14-C , 21-H ) :   1.0763 B( 14-C , 22-H ) :  -0.1765
B( 14-C , 23-H ) :  -0.1097 B( 14-C , 28-H ) :  -0.2606 B( 14-C , 29-H ) :  -0.2070
B( 14-C , 30-H ) :  -0.1791 B( 17-C , 20-C ) :   0.1645 B( 17-C , 22-H ) :   1.3169
B( 17-C , 23-H ) :   1.4726 B( 20-C , 28-H ) :   1.1884 B( 20-C , 29-H ) :   1.1743
B( 20-C , 30-H ) :   1.1450 B( 24-C , 25-H ) :   1.3642 B( 24-C , 26-H ) :   1.1607
B( 24-C , 27-H ) :   1.0873 B( 31-C , 32-H ) :   0.9605 B( 31-C , 33-H ) :   1.2411
B( 31-C , 34-H ) :   1.1155 B( 31-C , 35-C ) :  -0.1087 B( 35-C , 36-C ) :   0.6252
B( 35-C , 37-H ) :  -0.1920 B( 35-C , 39-H ) :  -0.1994 B( 35-C , 40-H ) :   1.3368
B( 35-C , 58-H ) :  -0.1098 B( 36-C , 37-H ) :   1.0450 B( 36-C , 38-H ) :   1.0019
B( 36-C , 39-H ) :   1.0513 B( 41-C , 42-O ) :   0.5415 B( 41-C , 43-C ) :   1.1854
B( 41-C , 44-C ) :   1.2883 B( 41-C , 46-C ) :  -0.4902 B( 41-C , 49-O ) :   0.5053
B( 41-C , 56-H ) :  -0.1568 B( 41-C , 57-H ) :  -0.2043 B( 43-C , 45-H ) :   1.0389
B( 43-C , 46-C ) :   1.1348 B( 43-C , 50-C ) :  -0.1082 B( 44-C , 47-N ) :   0.5113
B( 44-C , 48-H ) :  -0.2519 B( 44-C , 49-O ) :   0.3544 B( 46-C , 47-N ) :   0.3486
B( 46-C , 50-C ) :   0.8850 B( 46-C , 54-H ) :   0.8416 B( 47-N , 48-H ) :   1.3255
B( 47-N , 49-O ) :   0.1760 B( 47-N , 54-H ) :  -0.1103 B( 49-O , 56-H ) :   0.3318
B( 49-O , 57-H ) :  -0.3685 B( 50-C , 51-H ) :   1.0177 B( 50-C , 52-H ) :   0.9468
B( 50-C , 53-H ) :   0.9864

MP2 TOTAL ENERGY:    -1099.616451019 Eh
FINAL SINGLE POINT ENERGY     -1099.616451019309

DIPOLE MOMENT
-------------
                                X             Y             Z
Electronic contribution:     17.33139       3.87908       2.13276
Nuclear contribution   :    -15.75071      -4.64268      -1.91584
                        -----------------------------------------
Total Dipole Moment    :      1.58069      -0.76360       0.21692
                        -----------------------------------------
Magnitude (a.u.)       :      1.76882
Magnitude (Debye)      :      4.49597

Rotational constants in cm-1:     0.007631     0.005893     0.004201
Rotational constants in MHz :   228.762754   176.664597   125.934295

                             ****ORCA TERMINATED NORMALLY****
TOTAL RUN TIME: 1 days 5 hours 50 minutes 44 seconds 818 msec
