                         Program Version 4.2.1 -  RELEASE  -
|  1> %pal
|  2>  nprocs 32
|  3> end
|  4> !RI-MP2 aug-cc-pVQZ aug-cc-pVQZ/C TightSCF
|  5> %maxcore 4500
|  6> *xyzfile 1 1  05_39P1.xyz
|  7>
|  8>
|  9>                          ****END OF INPUT****

CARTESIAN COORDINATES (ANGSTROEM)
---------------------------------
  C     -0.186931   -0.517847    0.000057
  C      1.191655   -0.209312    0.000022
  C      1.649863    1.123321   -0.000124
  C      2.105858   -1.278997    0.000139
  C      3.002827    1.368628   -0.000151
  H      0.934966    1.935806   -0.000213
  C      3.460420   -1.019301    0.000110
  H      1.744054   -2.300907    0.000251
  C      3.902716    0.299939   -0.000035
  H      3.372571    2.385488   -0.000263
  H      4.173419   -1.832858    0.000199
  O     -1.075449    0.375587   -0.000039
  C     -2.575791    0.032940   -0.000002
  H      4.966905    0.503392   -0.000057
  C     -2.856135   -0.744689   -1.269137
  H     -2.372713   -1.723401   -1.276731
  H     -3.930851   -0.917904   -1.338596
  H     -2.548485   -0.182870   -2.151709
  C     -3.211845    1.404159   -0.000137
  H     -2.925425    1.967945    0.887786
  H     -2.925424    1.967771   -0.888171
  H     -4.296934    1.293928   -0.000127
  C     -2.856132   -0.744438    1.269287
  H     -2.372714   -1.723151    1.277071
  H     -2.548475   -0.182447    2.151746
  H     -3.930848   -0.917635    1.338786
  H     -0.495481   -1.564274    0.000170

 Total Charge           Charge          ....    1
 Multiplicity           Mult            ....    1
 Number of Electrons    NEL             ....   88
 Basis Dimension        Dim             .... 1650

ORBITAL ENERGIES
----------------

  NO   OCC          E(Eh)            E(eV)
   0   2.0000     -20.792793      -565.8007
   1   2.0000     -11.541404      -314.0576
   2   2.0000     -11.465450      -311.9907
   3   2.0000     -11.413395      -310.5743
   4   2.0000     -11.406332      -310.3821
   5   2.0000     -11.404255      -310.3256
   6   2.0000     -11.403653      -310.3092
   7   2.0000     -11.380331      -309.6746
   8   2.0000     -11.380024      -309.6662
   9   2.0000     -11.364627      -309.2472
  10   2.0000     -11.364613      -309.2468
  11   2.0000     -11.352821      -308.9260
  12   2.0000      -1.633994       -44.4632
  13   2.0000      -1.327054       -36.1110
  14   2.0000      -1.262812       -34.3629
  15   2.0000      -1.208189       -32.8765
  16   2.0000      -1.180703       -32.1286
  17   2.0000      -1.101081       -29.9619
  18   2.0000      -1.097756       -29.8715
  19   2.0000      -1.072754       -29.1911
  20   2.0000      -0.999569       -27.1996
  21   2.0000      -0.977421       -26.5970
  22   2.0000      -0.939933       -25.5769
  23   2.0000      -0.886944       -24.1350
  24   2.0000      -0.847643       -23.0656
  25   2.0000      -0.828093       -22.5336
  26   2.0000      -0.810693       -22.0601
  27   2.0000      -0.782758       -21.2999
  28   2.0000      -0.770820       -20.9751
  29   2.0000      -0.750832       -20.4312
  30   2.0000      -0.747758       -20.3475
  31   2.0000      -0.740553       -20.1515
  32   2.0000      -0.728408       -19.8210
  33   2.0000      -0.684692       -18.6314
  34   2.0000      -0.683140       -18.5892
  35   2.0000      -0.674174       -18.3452
  36   2.0000      -0.666164       -18.1273
  37   2.0000      -0.659807       -17.9543
  38   2.0000      -0.659060       -17.9339
  39   2.0000      -0.651262       -17.7217
  40   2.0000      -0.629952       -17.1419
  41   2.0000      -0.629106       -17.1188
  42   2.0000      -0.507805       -13.8181
  43   2.0000      -0.495377       -13.4799
  44   0.0000      -0.125782        -3.4227
  45   0.0000      -0.071505        -1.9458
  46   0.0000      -0.058671        -1.5965
  47   0.0000      -0.054711        -1.4888
  48   0.0000      -0.054090        -1.4719

MULLIKEN ATOMIC CHARGES
-----------------------
   0 C :    0.496782
   1 C :    0.187789
   2 C :   -0.350639
   3 C :   -0.437017
   4 C :   -0.343372
   5 H :    0.400697
   6 C :   -0.275634
   7 H :    0.281122
   8 C :   -0.317041
   9 H :    0.295190
  10 H :    0.277840
  11 O :   -0.724636
  12 C :    1.467934
  13 H :    0.332546
  14 C :   -1.100330
  15 H :    0.227313
  16 H :    0.350546
  17 H :    0.260700
  18 C :   -0.969908
  19 H :    0.240910
  20 H :    0.240843
  21 H :    0.287048
  22 C :   -1.100337
  23 H :    0.227345
  24 H :    0.260642
  25 H :    0.350621
  26 H :    0.433043
Sum of atomic charges:    1.0000000

LOEWDIN ATOMIC CHARGES
----------------------
   0 C :    0.019171
   1 C :   -0.069340
   2 C :    0.371365
   3 C :    0.366812
   4 C :    0.402283
   5 H :   -0.299871
   6 C :    0.400957
   7 H :   -0.293351
   8 C :    0.397899
   9 H :   -0.303689
  10 H :   -0.304357
  11 O :    0.970778
  12 C :   -0.494934
  13 H :   -0.286542
  14 C :    0.934760
  15 H :   -0.276514
  16 H :   -0.254378
  17 H :   -0.257307
  18 C :    0.923770
  19 H :   -0.264784
  20 H :   -0.264783
  21 H :   -0.259434
  22 C :    0.934760
  23 H :   -0.276514
  24 H :   -0.257308
  25 H :   -0.254378
  26 H :   -0.305073

  Mayer bond orders larger than 0.100000
B(  0-C ,  1-C ) :   0.4621 B(  0-C ,  2-C ) :  -0.4649 B(  0-C ,  3-C ) :  -0.4342
B(  0-C ,  5-H ) :   0.1193 B(  0-C , 11-O ) :   1.4013 B(  0-C , 12-C ) :  -0.1658
B(  0-C , 26-H ) :   0.7116 B(  1-C ,  2-C ) :   0.9997 B(  1-C ,  3-C ) :   0.8655
B(  1-C ,  4-C ) :  -0.4019 B(  1-C ,  6-C ) :  -0.4778 B(  1-C ,  7-H ) :  -0.1297
B(  1-C , 11-O ) :   0.1945 B(  1-C , 26-H ) :  -0.2222 B(  2-C ,  3-C ) :   0.1634
B(  2-C ,  4-C ) :   1.2089 B(  2-C ,  5-H ) :   0.7493 B(  2-C ,  9-H ) :  -0.1317
B(  3-C ,  4-C ) :   0.1220 B(  3-C ,  6-C ) :   1.3202 B(  3-C ,  7-H ) :   1.0036
B(  3-C ,  8-C ) :   0.1163 B(  3-C , 10-H ) :  -0.1350 B(  4-C ,  8-C ) :   1.1504
B(  4-C ,  9-H ) :   1.0867 B(  6-C ,  8-C ) :   1.1342 B(  6-C , 10-H ) :   1.1278
B(  8-C , 13-H ) :   1.0211 B( 11-O , 12-C ) :  -0.1238 B( 12-C , 14-C ) :   0.5498
B( 12-C , 18-C ) :   0.3797 B( 12-C , 19-H ) :  -0.1029 B( 12-C , 20-H ) :  -0.1029
B( 12-C , 22-C ) :   0.5500 B( 14-C , 15-H ) :   1.0135 B( 14-C , 16-H ) :   0.9020
B( 14-C , 17-H ) :   1.0245 B( 18-C , 19-H ) :   1.0274 B( 18-C , 20-H ) :   1.0275
B( 18-C , 21-H ) :   1.0041 B( 22-C , 23-H ) :   1.0134 B( 22-C , 24-H ) :   1.0245
B( 22-C , 25-H ) :   0.9019

MP2 TOTAL ENERGY:     -502.282398566 Eh
FINAL SINGLE POINT ENERGY      -502.282398565867

DIPOLE MOMENT
-------------
                                X             Y             Z
Electronic contribution:     13.28197       0.73143      -0.00008
Nuclear contribution   :    -13.48778      -1.31597       0.00014
                        -----------------------------------------
Total Dipole Moment    :     -0.20581      -0.58454       0.00006
                        -----------------------------------------
Magnitude (a.u.)       :      0.61971
Magnitude (Debye)      :      1.57518

Rotational constants in cm-1:     0.080816     0.014513     0.013410
Rotational constants in MHz :  2422.805460   435.080626   402.011055

                             ****ORCA TERMINATED NORMALLY****
TOTAL RUN TIME: 0 days 1 hours 53 minutes 31 seconds 342 msec
