                         Program Version 4.2.1 -  RELEASE  -
|  1> %pal
|  2>  nprocs 32
|  3> end
|  4> !RI-MP2 aug-cc-pVQZ aug-cc-pVQZ/C TightSCF
|  5> %maxcore 4500
|  6> *xyzfile 0 1  03_11R1.xyz
|  7>
|  8>
|  9>                          ****END OF INPUT****

CARTESIAN COORDINATES (ANGSTROEM)
---------------------------------
  C      0.000001   -1.878488    0.765806
  C      0.000001   -1.878488   -0.765806
  C      0.000001   -0.422672    1.184170
  N      0.000012    0.324454    0.000000
  C      0.000001   -0.422672   -1.184170
  O     -0.000009    0.033857   -2.287921
  O     -0.000009    0.033857    2.287921
  Cl     0.000003    2.013483    0.000000
  H      0.878219   -2.357044    1.199375
  H     -0.878218   -2.357044    1.199375
  H     -0.878218   -2.357044   -1.199375
  H      0.878219   -2.357044   -1.199375

 Total Charge           Charge          ....    0
 Multiplicity           Mult            ....    1
 Number of Electrons    NEL             ....   68
 Basis Dimension        Dim             ....  828

ORBITAL ENERGIES
----------------

  NO   OCC          E(Eh)            E(eV)
   0   2.0000    -104.893061     -2854.2853
   1   2.0000     -20.565129      -559.6056
   2   2.0000     -20.565129      -559.6056
   3   2.0000     -15.674694      -426.5301
   4   2.0000     -11.392400      -310.0030
   5   2.0000     -11.392382      -310.0025
   6   2.0000     -11.279241      -306.9237
   7   2.0000     -11.278633      -306.9072
   8   2.0000     -10.614810      -288.8437
   9   2.0000      -8.082213      -219.9282
  10   2.0000      -8.079443      -219.8528
  11   2.0000      -8.079291      -219.8487
  12   2.0000      -1.447717       -39.3944
  13   2.0000      -1.425243       -38.7828
  14   2.0000      -1.316653       -35.8279
  15   2.0000      -1.155272       -31.4366
  16   2.0000      -1.051282       -28.6068
  17   2.0000      -0.975879       -26.5550
  18   2.0000      -0.866509       -23.5789
  19   2.0000      -0.775160       -21.0932
  20   2.0000      -0.711618       -19.3641
  21   2.0000      -0.704665       -19.1749
  22   2.0000      -0.681908       -18.5557
  23   2.0000      -0.636157       -17.3107
  24   2.0000      -0.624657       -16.9978
  25   2.0000      -0.622481       -16.9386
  26   2.0000      -0.603183       -16.4134
  27   2.0000      -0.585727       -15.9384
  28   2.0000      -0.518102       -14.0983
  29   2.0000      -0.517788       -14.0897
  30   2.0000      -0.491104       -13.3636
  31   2.0000      -0.480221       -13.0675
  32   2.0000      -0.445182       -12.1140
  33   2.0000      -0.419012       -11.4019
  34   0.0000       0.018038         0.4908
  35   0.0000       0.030286         0.8241
  36   0.0000       0.034826         0.9477
  37   0.0000       0.045779         1.2457
  38   0.0000       0.051086         1.3901

MULLIKEN ATOMIC CHARGES
-----------------------
   0 C :   -0.492640
   1 C :   -0.492640
   2 C :    0.964901
   3 N :   -0.479930
   4 C :    0.964901
   5 O :   -0.773265
   6 O :   -0.773265
   7 Cl:   -0.040453
   8 H :    0.280599
   9 H :    0.280597
  10 H :    0.280597
  11 H :    0.280599
Sum of atomic charges:   -0.0000000

LOEWDIN ATOMIC CHARGES
----------------------
   0 C :    0.486439
   1 C :    0.486439
   2 C :   -0.985970
   3 N :   -0.363087
   4 C :   -0.985970
   5 O :    0.682239
   6 O :    0.682239
   7 Cl:    1.090537
   8 H :   -0.273216
   9 H :   -0.273216
  10 H :   -0.273216
  11 H :   -0.273216

  Mayer bond orders larger than 0.100000
B(  0-C ,  1-C ) :   1.0446 B(  0-C ,  2-C ) :   1.0518 B(  0-C ,  6-O ) :   0.1673
B(  0-C ,  8-H ) :   0.8853 B(  0-C ,  9-H ) :   0.8853 B(  1-C ,  4-C ) :   1.0518
B(  1-C ,  5-O ) :   0.1673 B(  1-C , 10-H ) :   0.8853 B(  1-C , 11-H ) :   0.8853
B(  2-C ,  3-N ) :   1.1381 B(  2-C ,  6-O ) :   1.2423 B(  3-N ,  4-C ) :   1.1381
B(  3-N ,  5-O ) :   0.2086 B(  3-N ,  6-O ) :   0.2086 B(  3-N ,  7-Cl) :   0.8404
B(  4-C ,  5-O ) :   1.2423

MP2 TOTAL ENERGY:     -819.246744116 Eh
FINAL SINGLE POINT ENERGY      -819.246744116172

DIPOLE MOMENT
-------------
                                X             Y             Z
Electronic contribution:      0.00001      10.28600      -0.00000
Nuclear contribution   :     -0.00000     -11.76900       0.00000
                        -----------------------------------------
Total Dipole Moment    :      0.00001      -1.48300      -0.00000
                        -----------------------------------------
Magnitude (a.u.)       :      1.48300
Magnitude (Debye)      :      3.76947

Rotational constants in cm-1:     0.075197     0.065165     0.035367
Rotational constants in MHz :  2254.357665  1953.609129  1060.274647

                             ****ORCA TERMINATED NORMALLY****
TOTAL RUN TIME: 0 days 0 hours 16 minutes 24 seconds 993 msec
