                         Program Version 4.2.1 -  RELEASE  -
|  1> %pal
|  2>  nprocs 32
|  3> end
|  4> !RI-MP2 aug-cc-pVQZ aug-cc-pVQZ/C TightSCF
|  5> %maxcore 4500
|  6> *xyzfile 0 1  05_10P1.xyz
|  7>
|  8>
|  9>                          ****END OF INPUT****

CARTESIAN COORDINATES (ANGSTROEM)
---------------------------------
  C      0.967379   -0.619298    0.000006
  C      0.948115    0.784524    0.000009
  N     -0.226664    1.484204    0.000001
  N     -0.237390   -1.300434   -0.000008
  C     -1.430687   -0.625999   -0.000016
  C     -1.331727    0.831241   -0.000010
  N     -2.539779   -1.297123   -0.000025
  C     -3.745891   -0.632963   -0.000033
  N     -3.720712    0.775899   -0.000032
  C     -2.619230    1.595359   -0.000018
  C     -0.247061   -2.761745   -0.000014
  H      0.257586   -3.134760   -0.891689
  H     -1.282151   -3.085019   -0.000031
  H      0.257557   -3.134767    0.891674
  H     -4.626329    1.227374   -0.000037
  O     -4.813262   -1.194311   -0.000041
  O     -2.692067    2.797887   -0.000015
  C      2.201609   -1.276539    0.000016
  C      3.387302   -0.565387    0.000029
  C      3.372603    0.850269    0.000033
  C      2.157474    1.492619    0.000022
  C      4.694725   -1.303162    0.000039
  H      5.292109   -1.044457    0.877887
  H      5.292120   -1.044460   -0.877803
  H      4.541700   -2.381759    0.000040
  C      4.655957    1.631837    0.000047
  H      5.263939    1.403179   -0.879025
  H      5.263920    1.403176    0.879131
  H      4.456537    2.702824    0.000047
  H      2.091784    2.573776    0.000024
  H      2.242263   -2.356058    0.000015

 Total Charge           Charge          ....    0
 Multiplicity           Mult            ....    1
 Number of Electrons    NEL             ....  134
 Basis Dimension        Dim             .... 2072

ORBITAL ENERGIES
----------------

  NO   OCC          E(Eh)            E(eV)
   0   2.0000     -20.539758      -558.9152
   1   2.0000     -20.520545      -558.3924
   2   2.0000     -15.657626      -426.0657
   3   2.0000     -15.629539      -425.3014
   4   2.0000     -15.608188      -424.7204
   5   2.0000     -15.555679      -423.2916
   6   2.0000     -11.383079      -309.7493
   7   2.0000     -11.375472      -309.5423
   8   2.0000     -11.375414      -309.5408
   9   2.0000     -11.325401      -308.1798
  10   2.0000     -11.317587      -307.9672
  11   2.0000     -11.293197      -307.3035
  12   2.0000     -11.285238      -307.0869
  13   2.0000     -11.282510      -307.0127
  14   2.0000     -11.264196      -306.5144
  15   2.0000     -11.261797      -306.4491
  16   2.0000     -11.260723      -306.4198
  17   2.0000     -11.251250      -306.1621
  18   2.0000     -11.243914      -305.9624
  19   2.0000      -1.420889       -38.6643
  20   2.0000      -1.395854       -37.9831
  21   2.0000      -1.369961       -37.2785
  22   2.0000      -1.290812       -35.1248
  23   2.0000      -1.267673       -34.4951
  24   2.0000      -1.217499       -33.1298
  25   2.0000      -1.183825       -32.2135
  26   2.0000      -1.087462       -29.5913
  27   2.0000      -1.072964       -29.1968
  28   2.0000      -1.024186       -27.8695
  29   2.0000      -0.995832       -27.0980
  30   2.0000      -0.978631       -26.6299
  31   2.0000      -0.928110       -25.2551
  32   2.0000      -0.901240       -24.5240
  33   2.0000      -0.854138       -23.2423
  34   2.0000      -0.852248       -23.1908
  35   2.0000      -0.817353       -22.2413
  36   2.0000      -0.782815       -21.3015
  37   2.0000      -0.764188       -20.7946
  38   2.0000      -0.717989       -19.5375
  39   2.0000      -0.700342       -19.0573
  40   2.0000      -0.687996       -18.7213
  41   2.0000      -0.679320       -18.4852
  42   2.0000      -0.657043       -17.8791
  43   2.0000      -0.640220       -17.4213
  44   2.0000      -0.637506       -17.3474
  45   2.0000      -0.636567       -17.3219
  46   2.0000      -0.626988       -17.0612
  47   2.0000      -0.622822       -16.9478
  48   2.0000      -0.621512       -16.9122
  49   2.0000      -0.583389       -15.8748
  50   2.0000      -0.583203       -15.8698
  51   2.0000      -0.577175       -15.7057
  52   2.0000      -0.576010       -15.6740
  53   2.0000      -0.566695       -15.4205
  54   2.0000      -0.562262       -15.2999
  55   2.0000      -0.531957       -14.4753
  56   2.0000      -0.530492       -14.4354
  57   2.0000      -0.510856       -13.9011
  58   2.0000      -0.496805       -13.5188
  59   2.0000      -0.488072       -13.2811
  60   2.0000      -0.473600       -12.8873
  61   2.0000      -0.436802       -11.8860
  62   2.0000      -0.431832       -11.7507
  63   2.0000      -0.422439       -11.4951
  64   2.0000      -0.419308       -11.4099
  65   2.0000      -0.356623        -9.7042
  66   2.0000      -0.316534        -8.6133
  67   0.0000       0.010546         0.2870
  68   0.0000       0.011040         0.3004
  69   0.0000       0.019039         0.5181
  70   0.0000       0.026527         0.7218
  71   0.0000       0.027538         0.7493

MULLIKEN ATOMIC CHARGES
-----------------------
   0 C :    1.012818
   1 C :    0.883941
   2 N :   -0.552334
   3 N :   -0.701180
   4 C :    1.264032
   5 C :   -0.329222
   6 N :   -0.890523
   7 C :    1.227882
   8 N :   -0.807729
   9 C :    1.567797
  10 C :   -1.037914
  11 H :    0.317969
  12 H :    0.374333
  13 H :    0.317979
  14 H :   -0.022265
  15 O :   -0.901132
  16 O :   -0.857996
  17 C :   -0.659411
  18 C :    0.765559
  19 C :    0.341875
  20 C :   -0.948635
  21 C :   -0.992460
  22 H :    0.183304
  23 H :    0.183312
  24 H :    0.259441
  25 C :   -0.931461
  26 H :    0.189978
  27 H :    0.189987
  28 H :    0.306388
  29 H :    0.162529
  30 H :    0.083136
Sum of atomic charges:   -0.0000000

LOEWDIN ATOMIC CHARGES
----------------------
   0 C :   -0.216087
   1 C :   -0.311633
   2 N :    0.640327
   3 N :    0.465027
   4 C :   -0.484666
   5 C :   -0.331496
   6 N :    0.559066
   7 C :   -1.105051
   8 N :    0.754200
   9 C :   -0.874361
  10 C :    0.807229
  11 H :   -0.261362
  12 H :   -0.365613
  13 H :   -0.261361
  14 H :   -0.525268
  15 O :    0.659289
  16 O :    0.706078
  17 C :    0.386506
  18 C :   -0.028893
  19 C :   -0.036375
  20 C :    0.361085
  21 C :    0.922463
  22 H :   -0.276019
  23 H :   -0.276017
  24 H :   -0.295350
  25 C :    0.909486
  26 H :   -0.280013
  27 H :   -0.280014
  28 H :   -0.298159
  29 H :   -0.309285
  30 H :   -0.353733

  Mayer bond orders larger than 0.100000
B(  0-C ,  1-C ) :   1.5581 B(  0-C ,  2-N ) :   0.3043 B(  0-C ,  3-N ) :   0.7170
B(  0-C ,  4-C ) :   0.1667 B(  0-C , 10-C ) :  -0.2814 B(  0-C , 17-C ) :   1.0003
B(  0-C , 18-C ) :  -0.5382 B(  0-C , 20-C ) :  -0.4041 B(  1-C ,  2-N ) :  -0.3518
B(  1-C ,  3-N ) :   0.1155 B(  1-C ,  5-C ) :  -0.2057 B(  1-C , 19-C ) :  -0.4469
B(  1-C , 20-C ) :   1.0429 B(  1-C , 29-H ) :  -0.1772 B(  2-N ,  4-C ) :   0.1117
B(  2-N ,  5-C ) :   1.1332 B(  2-N ,  9-C ) :  -0.1408 B(  3-N ,  4-C ) :   1.5045
B(  3-N ,  6-N ) :   0.3280 B(  3-N , 10-C ) :   1.0058 B(  3-N , 18-C ) :  -0.1817
B(  3-N , 19-C ) :   0.1514 B(  3-N , 20-C ) :   0.1366 B(  4-C ,  5-C ) :   0.6209
B(  4-C ,  6-N ) :   0.6695 B(  4-C ,  8-N ) :  -0.1150 B(  4-C ,  9-C ) :  -0.3628
B(  5-C ,  6-N ) :   0.1578 B(  5-C ,  9-C ) :   1.8396 B(  5-C , 16-O ) :   0.5932
B(  5-C , 20-C ) :  -0.2014 B(  6-N ,  7-C ) :   1.3735 B(  6-N , 10-C ) :  -0.1161
B(  7-C ,  8-N ) :   0.9693 B(  7-C , 14-H ) :  -0.1221 B(  7-C , 15-O ) :   1.1078
B(  8-N ,  9-C ) :   0.9275 B(  8-N , 14-H ) :   1.3281 B(  8-N , 15-O ) :   0.1893
B(  8-N , 16-O ) :   0.2891 B(  9-C , 14-H ) :  -0.1507 B(  9-C , 16-O ) :   0.4811
B( 10-C , 11-H ) :   0.9594 B( 10-C , 12-H ) :   0.8064 B( 10-C , 13-H ) :   0.9594
B( 17-C , 18-C ) :   0.6806 B( 17-C , 19-C ) :  -0.2471 B( 17-C , 20-C ) :   0.1829
B( 17-C , 21-C ) :  -0.2723 B( 17-C , 30-H ) :   1.0434 B( 18-C , 19-C ) :   0.6642
B( 18-C , 20-C ) :   0.1135 B( 18-C , 21-C ) :   0.5999 B( 18-C , 22-H ) :  -0.1916
B( 18-C , 23-H ) :  -0.1916 B( 19-C , 20-C ) :   0.9221 B( 19-C , 25-C ) :   0.6953
B( 19-C , 26-H ) :  -0.1642 B( 19-C , 27-H ) :  -0.1642 B( 20-C , 25-C ) :  -0.2307
B( 20-C , 29-H ) :   1.0054 B( 21-C , 22-H ) :   1.0993 B( 21-C , 23-H ) :   1.0993
B( 21-C , 24-H ) :   1.0302 B( 25-C , 26-H ) :   1.0926 B( 25-C , 27-H ) :   1.0926
B( 25-C , 28-H ) :   0.9670

MP2 TOTAL ENERGY:     -870.750636924 Eh
FINAL SINGLE POINT ENERGY      -870.750636923612

DIPOLE MOMENT
-------------
                                X             Y             Z
Electronic contribution:    -24.64996       5.74455      -0.00020
Nuclear contribution   :     28.37425      -6.72465       0.00023
                        -----------------------------------------
Total Dipole Moment    :      3.72429      -0.98010       0.00003
                        -----------------------------------------
Magnitude (a.u.)       :      3.85109
Magnitude (Debye)      :      9.78870

Rotational constants in cm-1:     0.029846     0.007687     0.006133
Rotational constants in MHz :   894.762679   230.440869   183.875380

                             ****ORCA TERMINATED NORMALLY****
TOTAL RUN TIME: 0 days 5 hours 4 minutes 21 seconds 434 msec
