                         Program Version 4.2.1 -  RELEASE  -
|  1> %pal
|  2>  nprocs 32
|  3> end
|  4> !RI-MP2 aug-cc-pVQZ aug-cc-pVQZ/C TightSCF
|  5> %maxcore 4500
|  6> *xyzfile -1 1  09_2P.xyz
|  7>
|  8>
|  9>                          ****END OF INPUT****

CARTESIAN COORDINATES (ANGSTROEM)
---------------------------------
  C      2.751275   -0.276646   -0.214230
  C      2.180404    0.967278   -0.453941
  C      0.824758    1.172341   -0.223964
  C      0.026851    0.139562    0.243511
  C      0.601125   -1.104784    0.483462
  C      1.954188   -1.315868    0.256178
  H      3.809027   -0.438675   -0.393364
  H      2.796942    1.781485   -0.822051
  H      0.325609    2.121161   -0.389419
  H     -0.022624   -1.918902    0.841592
  H      2.390031   -2.292214    0.442450
  C     -1.467671    0.454722    0.523288
  C     -2.271777   -0.600349   -0.237924
  N     -2.932438   -1.357775   -0.801601
  O     -1.844290    1.688259    0.260462
  H     -1.612513    0.127957    1.590016

 Total Charge           Charge          ....   -1
 Multiplicity           Mult            ....    1
 Number of Electrons    NEL             ....   70
 Basis Dimension        Dim             .... 1076

ORBITAL ENERGIES
----------------

  NO   OCC          E(Eh)            E(eV)
   0   2.0000     -20.266598      -551.4822
   1   2.0000     -15.395915      -418.9441
   2   2.0000     -11.142663      -303.2073
   3   2.0000     -11.116176      -302.4865
   4   2.0000     -11.114049      -302.4287
   5   2.0000     -11.112322      -302.3816
   6   2.0000     -11.105895      -302.2068
   7   2.0000     -11.100679      -302.0648
   8   2.0000     -11.098537      -302.0065
   9   2.0000     -11.092105      -301.8315
  10   2.0000      -1.102833       -30.0096
  11   2.0000      -1.047637       -28.5077
  12   2.0000      -1.026357       -27.9286
  13   2.0000      -0.898725       -24.4556
  14   2.0000      -0.889085       -24.1932
  15   2.0000      -0.765280       -20.8243
  16   2.0000      -0.701607       -19.0917
  17   2.0000      -0.669035       -18.2054
  18   2.0000      -0.578446       -15.7403
  19   2.0000      -0.517332       -14.0773
  20   2.0000      -0.500264       -13.6129
  21   2.0000      -0.493749       -13.4356
  22   2.0000      -0.461810       -12.5665
  23   2.0000      -0.455551       -12.3962
  24   2.0000      -0.406410       -11.0590
  25   2.0000      -0.385167       -10.4809
  26   2.0000      -0.375596       -10.2205
  27   2.0000      -0.370752       -10.0887
  28   2.0000      -0.353177        -9.6104
  29   2.0000      -0.302622        -8.2348
  30   2.0000      -0.301176        -8.1954
  31   2.0000      -0.217638        -5.9222
  32   2.0000      -0.205851        -5.6015
  33   2.0000      -0.195062        -5.3079
  34   2.0000      -0.179529        -4.8852
  35   0.0000       0.091719         2.4958
  36   0.0000       0.098220         2.6727
  37   0.0000       0.107593         2.9277
  38   0.0000       0.121319         3.3013
  39   0.0000       0.127801         3.4776

MULLIKEN ATOMIC CHARGES
-----------------------
   0 C :   -0.376880
   1 C :   -0.302746
   2 C :   -0.438275
   3 C :    0.213170
   4 C :   -0.445297
   5 C :   -0.318963
   6 H :    0.295553
   7 H :    0.233070
   8 H :    0.299251
   9 H :    0.279422
  10 H :    0.224694
  11 C :    0.820848
  12 C :    0.289709
  13 N :   -0.790658
  14 O :   -1.177641
  15 H :    0.194743
Sum of atomic charges:   -1.0000000

LOEWDIN ATOMIC CHARGES
----------------------
   0 C :    0.298545
   1 C :    0.320590
   2 C :    0.307708
   3 C :   -0.169824
   4 C :    0.303790
   5 C :    0.312664
   6 H :   -0.340585
   7 H :   -0.334615
   8 H :   -0.383124
   9 H :   -0.326308
  10 H :   -0.334887
  11 C :   -0.741608
  12 C :   -0.391056
  13 N :    0.337753
  14 O :    0.534607
  15 H :   -0.393651

  Mayer bond orders larger than 0.100000
B(  0-C ,  1-C ) :   1.1385 B(  0-C ,  5-C ) :   1.1808 B(  0-C ,  6-H ) :   1.0284
B(  0-C ,  7-H ) :  -0.1081 B(  0-C , 10-H ) :  -0.1043 B(  1-C ,  2-C ) :   1.3335
B(  1-C ,  3-C ) :  -0.3347 B(  1-C ,  4-C ) :   0.1380 B(  1-C ,  5-C ) :  -0.1041
B(  1-C ,  7-H ) :   1.1318 B(  2-C ,  3-C ) :   1.0272 B(  2-C ,  5-C ) :   0.1435
B(  2-C ,  7-H ) :  -0.1398 B(  2-C ,  8-H ) :   0.8891 B(  2-C , 11-C ) :  -0.1661
B(  3-C ,  4-C ) :   0.9475 B(  3-C ,  5-C ) :  -0.3022 B(  3-C , 11-C ) :   0.8216
B(  3-C , 12-C ) :  -0.2458 B(  3-C , 14-O ) :   0.1641 B(  4-C ,  5-C ) :   1.2890
B(  4-C ,  9-H ) :   0.9683 B(  4-C , 10-H ) :  -0.1400 B(  5-C , 10-H ) :   1.1458
B(  8-H , 14-O ) :   0.1145 B( 11-C , 12-C ) :   1.0031 B( 11-C , 14-O ) :   0.7237
B( 11-C , 15-H ) :   0.9797 B( 12-C , 13-N ) :   2.3727 B( 12-C , 14-O ) :   0.1175

MP2 TOTAL ENERGY:     -437.732703821 Eh
FINAL SINGLE POINT ENERGY      -437.732703821107

DIPOLE MOMENT
-------------
                                X             Y             Z
Electronic contribution:     -4.15112      -0.39303      -0.78388
Nuclear contribution   :      7.49246      -0.58893       1.24410
                        -----------------------------------------
Total Dipole Moment    :      3.34135      -0.98196       0.46021
                        -----------------------------------------
Magnitude (a.u.)       :      3.51292
Magnitude (Debye)      :      8.92914

Rotational constants in cm-1:     0.090680     0.032050     0.025563
Rotational constants in MHz :  2718.532322   960.829249   766.366197

                             ****ORCA TERMINATED NORMALLY****
TOTAL RUN TIME: 0 days 0 hours 34 minutes 48 seconds 128 msec
