                         Program Version 4.2.1 -  RELEASE  -
|  1> %pal
|  2>  nprocs 32
|  3> end
|  4> !RI-MP2 aug-cc-pVQZ aug-cc-pVQZ/C TightSCF
|  5> %maxcore 4500
|  6> *xyzfile 0 1  06_12R.xyz
|  7>
|  8>
|  9>                          ****END OF INPUT****

CARTESIAN COORDINATES (ANGSTROEM)
---------------------------------
  C      0.766660    0.315990    1.002889
  H     -0.108635    0.645784    1.569388
  B      0.464475    0.048628   -0.506266
  C      1.227181   -1.037854    1.598968
  H      0.354412   -1.700550    1.628379
  H      1.532161   -0.896219    2.641694
  C      1.824879    1.442924    1.064465
  H      1.333523    2.372229    0.754846
  C     -3.730219   -2.507910    0.210752
  H     -4.598362   -2.162519    0.762016
  H     -3.654432   -3.571974    0.028761
  C     -2.798008   -1.662420   -0.226782
  C     -2.832140   -0.224652   -0.028172
  H     -1.948484   -2.052434   -0.777962
  H      2.140714    1.597729    2.102207
  C     -1.852686    0.589687   -0.437085
  O     -0.763509    0.146464   -1.109689
  O     -1.785740    1.923384   -0.295171
  C     -2.856696    2.571205    0.369199
  H     -3.795829    2.419193   -0.168830
  H     -2.956893    2.204075    1.394091
  H     -2.606636    3.628922    0.379794
  C      3.065928    1.225747    0.184327
  H      3.610243    2.171784    0.108859
  H      3.751090    0.537657    0.678151
  C      1.712576   -0.416770   -1.315192
  H      1.479654   -0.591945   -2.369393
  C      2.757777    0.721471   -1.234218
  H      2.380873    1.560969   -1.829735
  H      3.689664    0.405308   -1.715951
  C      2.173592   -1.758002   -0.694307
  H      3.105674   -2.085934   -1.167701
  H      1.424455   -2.516769   -0.949147
  C      2.356380   -1.743106    0.831663
  H      2.427376   -2.775711    1.186001
  H      3.312431   -1.285469    1.082981
  H     -3.692724    0.196087    0.472711

 Total Charge           Charge          ....    0
 Multiplicity           Mult            ....    1
 Number of Electrons    NEL             ....  120
 Basis Dimension        Dim             .... 2246

ORBITAL ENERGIES
----------------

  NO   OCC          E(Eh)            E(eV)
   0   2.0000     -20.599345      -560.5367
   1   2.0000     -20.582712      -560.0841
   2   2.0000     -11.359686      -309.1128
   3   2.0000     -11.292058      -307.2725
   4   2.0000     -11.231887      -305.6352
   5   2.0000     -11.216661      -305.2209
   6   2.0000     -11.216322      -305.2116
   7   2.0000     -11.216318      -305.2115
   8   2.0000     -11.215486      -305.1889
   9   2.0000     -11.214105      -305.1513
  10   2.0000     -11.211422      -305.0783
  11   2.0000     -11.211197      -305.0722
  12   2.0000     -11.210449      -305.0518
  13   2.0000     -11.192825      -304.5723
  14   2.0000     -11.189671      -304.4864
  15   2.0000      -7.600768      -206.8274
  16   2.0000      -1.462519       -39.7972
  17   2.0000      -1.380159       -37.5560
  18   2.0000      -1.113565       -30.3017
  19   2.0000      -1.082416       -29.4540
  20   2.0000      -1.039990       -28.2996
  21   2.0000      -1.026377       -27.9292
  22   2.0000      -1.001121       -27.2419
  23   2.0000      -0.963362       -26.2144
  24   2.0000      -0.931338       -25.3430
  25   2.0000      -0.912427       -24.8284
  26   2.0000      -0.823808       -22.4170
  27   2.0000      -0.791065       -21.5260
  28   2.0000      -0.787834       -21.4381
  29   2.0000      -0.781394       -21.2628
  30   2.0000      -0.740363       -20.1463
  31   2.0000      -0.724710       -19.7204
  32   2.0000      -0.698519       -19.0077
  33   2.0000      -0.683295       -18.5934
  34   2.0000      -0.665867       -18.1192
  35   2.0000      -0.641461       -17.4550
  36   2.0000      -0.627470       -17.0743
  37   2.0000      -0.613072       -16.6825
  38   2.0000      -0.596033       -16.2189
  39   2.0000      -0.587880       -15.9970
  40   2.0000      -0.580582       -15.7984
  41   2.0000      -0.575720       -15.6661
  42   2.0000      -0.573957       -15.6182
  43   2.0000      -0.560338       -15.2476
  44   2.0000      -0.542153       -14.7527
  45   2.0000      -0.537887       -14.6366
  46   2.0000      -0.518690       -14.1143
  47   2.0000      -0.509649       -13.8682
  48   2.0000      -0.500534       -13.6202
  49   2.0000      -0.495951       -13.4955
  50   2.0000      -0.494761       -13.4631
  51   2.0000      -0.476058       -12.9542
  52   2.0000      -0.471577       -12.8323
  53   2.0000      -0.465406       -12.6643
  54   2.0000      -0.456766       -12.4292
  55   2.0000      -0.427807       -11.6412
  56   2.0000      -0.419247       -11.4083
  57   2.0000      -0.416431       -11.3317
  58   2.0000      -0.383192       -10.4272
  59   2.0000      -0.297583        -8.0977
  60   0.0000       0.020216         0.5501
  61   0.0000       0.025802         0.7021
  62   0.0000       0.027072         0.7367
  63   0.0000       0.030007         0.8165
  64   0.0000       0.036099         0.9823

MULLIKEN ATOMIC CHARGES
-----------------------
   0 C :    0.452465
   1 H :    0.478303
   2 B :    1.832959
   3 C :   -0.719342
   4 H :    0.207347
   5 H :    0.172228
   6 C :   -0.728827
   7 H :    0.118989
   8 C :   -0.920252
   9 H :    0.348867
  10 H :    0.285995
  11 C :   -0.510344
  12 C :   -0.695621
  13 H :    0.489390
  14 H :    0.186641
  15 C :    1.721828
  16 O :   -1.934089
  17 O :   -0.962642
  18 C :   -0.792476
  19 H :    0.324080
  20 H :    0.315762
  21 H :    0.423504
  22 C :   -0.428098
  23 H :    0.200427
  24 H :    0.178415
  25 C :   -0.067930
  26 H :    0.311364
  27 C :   -0.613705
  28 H :    0.131315
  29 H :    0.190709
  30 C :   -0.620285
  31 H :    0.183686
  32 H :    0.145171
  33 C :   -0.422523
  34 H :    0.217378
  35 H :    0.209306
  36 H :    0.290006
Sum of atomic charges:   -0.0000000

LOEWDIN ATOMIC CHARGES
----------------------
   0 C :    0.312437
   1 H :   -0.288373
   2 B :   -1.064849
   3 C :    0.577803
   4 H :   -0.251769
   5 H :   -0.245619
   6 C :    0.577030
   7 H :   -0.252421
   8 C :    0.782483
   9 H :   -0.360303
  10 H :   -0.363251
  11 C :    0.304622
  12 C :    0.296260
  13 H :   -0.356189
  14 H :   -0.246862
  15 C :   -0.827368
  16 O :    1.011039
  17 O :    0.893522
  18 C :    0.589303
  19 H :   -0.301857
  20 H :   -0.301526
  21 H :   -0.310014
  22 C :    0.573983
  23 H :   -0.253067
  24 H :   -0.306322
  25 C :    0.312119
  26 H :   -0.269757
  27 C :    0.572970
  28 H :   -0.251783
  29 H :   -0.248835
  30 C :    0.571699
  31 H :   -0.248073
  32 H :   -0.253267
  33 C :    0.575142
  34 H :   -0.252402
  35 H :   -0.305968
  36 H :   -0.390537

  Mayer bond orders larger than 0.100000
B(  0-C ,  1-H ) :   0.7037 B(  0-C ,  2-B ) :   0.7675 B(  0-C ,  3-C ) :   0.6621
B(  0-C ,  6-C ) :   0.5069 B(  0-C ,  7-H ) :  -0.1281 B(  0-C , 16-O ) :  -0.4105
B(  0-C , 17-O ) :  -0.1835 B(  0-C , 22-C ) :  -0.1577 B(  0-C , 33-C ) :  -0.1183
B(  1-H ,  6-C ) :  -0.1125 B(  2-B , 16-O ) :  -0.6476 B(  2-B , 17-O ) :   0.2927
B(  2-B , 25-C ) :   0.8511 B(  3-C ,  4-H ) :   1.0877 B(  3-C ,  5-H ) :   1.0724
B(  3-C , 33-C ) :   0.8865 B(  6-C ,  7-H ) :   1.2060 B(  6-C , 14-H ) :   1.0717
B(  6-C , 22-C ) :   0.8568 B(  8-C ,  9-H ) :   0.9292 B(  8-C , 10-H ) :   1.0865
B(  8-C , 11-C ) :   1.6794 B(  8-C , 12-C ) :  -0.3425 B( 10-H , 11-C ) :  -0.1831
B( 11-C , 12-C ) :   0.7167 B( 11-C , 13-H ) :   0.6685 B( 11-C , 15-C ) :  -0.3475
B( 12-C , 13-H ) :  -0.1094 B( 12-C , 15-C ) :   1.3883 B( 12-C , 17-O ) :   0.2339
B( 12-C , 36-H ) :   0.9558 B( 15-C , 16-O ) :   1.0755 B( 15-C , 18-C ) :  -0.1088
B( 16-O , 25-C ) :  -0.1018 B( 17-O , 18-C ) :   0.9379 B( 18-C , 19-H ) :   0.9107
B( 18-C , 20-H ) :   0.8736 B( 18-C , 21-H ) :   0.8470 B( 22-C , 23-H ) :   1.0141
B( 22-C , 24-H ) :   1.1095 B( 22-C , 25-C ) :  -0.1538 B( 22-C , 27-C ) :   0.8279
B( 25-C , 26-H ) :   0.8699 B( 25-C , 27-C ) :   0.7153 B( 25-C , 30-C ) :   0.7650
B( 27-C , 28-H ) :   1.1267 B( 27-C , 29-H ) :   1.0243 B( 30-C , 31-H ) :   1.0393
B( 30-C , 32-H ) :   1.1138 B( 30-C , 33-C ) :   0.8162 B( 33-C , 34-H ) :   0.9941
B( 33-C , 35-H ) :   1.0636

MP2 TOTAL ENERGY:     -682.149804731 Eh
FINAL SINGLE POINT ENERGY      -682.149804731251

DIPOLE MOMENT
-------------
                                X             Y             Z
Electronic contribution:     -7.01557       2.52033      -5.80042
Nuclear contribution   :      6.92718      -1.95181       6.34476
                        -----------------------------------------
Total Dipole Moment    :     -0.08840       0.56852       0.54434
                        -----------------------------------------
Magnitude (a.u.)       :      0.79204
Magnitude (Debye)      :      2.01322

Rotational constants in cm-1:     0.025737     0.012643     0.010312
Rotational constants in MHz :   771.586238   379.039077   309.154061

                             ****ORCA TERMINATED NORMALLY****
TOTAL RUN TIME: 0 days 5 hours 59 minutes 30 seconds 898 msec
