                         Program Version 4.2.1 -  RELEASE  -
|  1> %pal
|  2>  nprocs 32
|  3> end
|  4> !RI-MP2 aug-cc-pVQZ aug-cc-pVQZ/C TightSCF
|  5> %maxcore 4500
|  6> *xyzfile 0 2  01_8P.xyz
|  7>
|  8>
|  9>                          ****END OF INPUT****

CARTESIAN COORDINATES (ANGSTROEM)
---------------------------------
  C      2.431669   -0.647951   -0.142953
  C      1.026935   -0.173209    0.021223
  H      2.475541   -1.732772   -0.066286
  H      3.075605   -0.206182    0.622966
  H      2.829355   -0.337431   -1.113094
  N      0.053095   -0.959652    0.219693
  C      0.672370    1.299701    0.000157
  C     -0.852562    1.249331   -0.118119
  H      1.164504    1.836187   -0.813750
  H      1.005506    1.764017    0.935452
  C     -1.184392   -0.180397    0.379654
  H     -1.154705    1.347960   -1.162878
  H     -1.363600    2.022995    0.455007
  C     -2.337179   -0.826232   -0.290802
  H     -3.266976   -0.285628   -0.415152
  H     -2.295406   -1.877273   -0.540028
  H     -1.382536   -0.141768    1.464943

 Total Charge           Charge          ....    0
 Multiplicity           Mult            ....    2
 Number of Electrons    NEL             ....   53
 Basis Dimension        Dim             .... 1020

ORBITAL ENERGIES
----------------
                 SPIN UP ORBITALS
  NO   OCC          E(Eh)            E(eV)
   0   1.0000     -15.538744      -422.8307
   1   1.0000     -11.269075      -306.6471
   2   1.0000     -11.250129      -306.1316
   3   1.0000     -11.231067      -305.6129
   4   1.0000     -11.223607      -305.4099
   5   1.0000     -11.223527      -305.4077
   6   1.0000     -11.221614      -305.3557
   7   1.0000      -1.250462       -34.0268
   8   1.0000      -1.052020       -28.6269
   9   1.0000      -1.027802       -27.9679
  10   1.0000      -0.971038       -26.4233
  11   1.0000      -0.874413       -23.7940
  12   1.0000      -0.792920       -21.5764
  13   1.0000      -0.707362       -19.2483
  14   1.0000      -0.665032       -18.0964
  15   1.0000      -0.637600       -17.3500
  16   1.0000      -0.599543       -16.3144
  17   1.0000      -0.581167       -15.8144
  18   1.0000      -0.570730       -15.5303
  19   1.0000      -0.564000       -15.3472
  20   1.0000      -0.524088       -14.2611
  21   1.0000      -0.499864       -13.6020
  22   1.0000      -0.493629       -13.4323
  23   1.0000      -0.488775       -13.3002
  24   1.0000      -0.402541       -10.9537
  25   1.0000      -0.395037       -10.7495
  26   1.0000      -0.344129        -9.3642
  27   0.0000       0.024909         0.6778
  28   0.0000       0.029045         0.7904
  29   0.0000       0.033155         0.9022
  30   0.0000       0.034865         0.9487
  31   0.0000       0.046326         1.2606

                 SPIN DOWN ORBITALS
  NO   OCC          E(Eh)            E(eV)
   0   1.0000     -15.536828      -422.7786
   1   1.0000     -11.270310      -306.6807
   2   1.0000     -11.253474      -306.2226
   3   1.0000     -11.230952      -305.6097
   4   1.0000     -11.223441      -305.4054
   5   1.0000     -11.222083      -305.3684
   6   1.0000     -11.198075      -304.7151
   7   1.0000      -1.247651       -33.9503
   8   1.0000      -1.040227       -28.3060
   9   1.0000      -1.023854       -27.8605
  10   1.0000      -0.947411       -25.7804
  11   1.0000      -0.845499       -23.0072
  12   1.0000      -0.771862       -21.0034
  13   1.0000      -0.704665       -19.1749
  14   1.0000      -0.659200       -17.9377
  15   1.0000      -0.634536       -17.2666
  16   1.0000      -0.595242       -16.1974
  17   1.0000      -0.576966       -15.7000
  18   1.0000      -0.564771       -15.3682
  19   1.0000      -0.554333       -15.0842
  20   1.0000      -0.518767       -14.1164
  21   1.0000      -0.496186       -13.5019
  22   1.0000      -0.490101       -13.3363
  23   1.0000      -0.480915       -13.0864
  24   1.0000      -0.399884       -10.8814
  25   1.0000      -0.383416       -10.4333
  26   0.0000       0.024840         0.6759
  27   0.0000       0.029185         0.7942
  28   0.0000       0.033067         0.8998
  29   0.0000       0.035114         0.9555
  30   0.0000       0.046427         1.2633

MULLIKEN ATOMIC CHARGES AND SPIN POPULATIONS
--------------------------------------------
   0 C :   -0.755162    0.007343
   1 C :    0.358222   -0.056732
   2 H :    0.281097   -0.000258
   3 H :    0.232786   -0.002320
   4 H :    0.234571   -0.002669
   5 N :   -0.647322    0.058138
   6 C :   -0.512148    0.007067
   7 C :   -0.569178    0.043604
   8 H :    0.325511   -0.000301
   9 H :    0.197888   -0.002853
  10 C :    0.331875   -0.210520
  11 H :    0.235317   -0.003106
  12 H :    0.327904   -0.004810
  13 C :   -1.045267    1.240031
  14 H :    0.341242   -0.073105
  15 H :    0.387379   -0.076322
  16 H :    0.275283    0.076812
Sum of atomic charges         :    0.0000000

LOEWDIN ATOMIC CHARGES AND SPIN POPULATIONS
-------------------------------------------
   0 C :    0.909720   -0.005238
   1 C :   -0.299296   -0.010322
   2 H :   -0.311709   -0.000354
   3 H :   -0.287588   -0.000903
   4 H :   -0.288691   -0.000961
   5 N :    0.654098    0.029683
   6 C :    0.513492   -0.001539
   7 C :    0.492884    0.021340
   8 H :   -0.265077   -0.000245
   9 H :   -0.260256   -0.000519
  10 C :   -0.185969    0.149180
  11 H :   -0.278558    0.013634
  12 H :   -0.255915    0.002607
  13 C :    0.843091    0.464352
  14 H :   -0.332962    0.151868
  15 H :   -0.341780    0.154421
  16 H :   -0.305486    0.032995

  Mayer bond orders larger than 0.100000
B(  0-C ,  1-C ) :   0.6159 B(  0-C ,  2-H ) :   1.0091 B(  0-C ,  3-H ) :   0.9969
B(  0-C ,  4-H ) :   1.0019 B(  1-C ,  5-N ) :   1.5573 B(  1-C ,  6-C ) :   0.8554
B(  5-N , 10-C ) :   0.6388 B(  6-C ,  7-C ) :   1.0354 B(  6-C ,  8-H ) :   0.8920
B(  6-C ,  9-H ) :   0.9326 B(  7-C , 10-C ) :   0.9290 B(  7-C , 11-H ) :   0.9294
B(  7-C , 12-H ) :   0.8649 B( 10-C , 13-C ) :   0.6105 B( 10-C , 16-H ) :   0.8773
B( 13-C , 14-H ) :   0.9804 B( 13-C , 15-H ) :   0.9181

MP2 TOTAL ENERGY:     -288.805058504 Eh
FINAL SINGLE POINT ENERGY      -288.805058504310

DIPOLE MOMENT
-------------
                                X             Y             Z
Electronic contribution:     -0.81360      -1.60417       0.63361
Nuclear contribution   :      1.12589       2.46841      -0.65376
                        -----------------------------------------
Total Dipole Moment    :      0.31228       0.86424      -0.02015
                        -----------------------------------------
Magnitude (a.u.)       :      0.91915
Magnitude (Debye)      :      2.33629

Rotational constants in cm-1:     0.174815     0.070550     0.053871
Rotational constants in MHz :  5240.829400  2115.034151  1615.015058

                             ****ORCA TERMINATED NORMALLY****
TOTAL RUN TIME: 0 days 1 hours 20 minutes 44 seconds 476 msec
