                         Program Version 4.2.1 -  RELEASE  -
|  1> %pal
|  2>  nprocs 32
|  3> end
|  4> !RI-MP2 aug-cc-pVQZ aug-cc-pVQZ/C TightSCF
|  5> %maxcore 4500
|  6> *xyzfile 0 1  10_51TS.xyz
|  7>
|  8>
|  9>                          ****END OF INPUT****

CARTESIAN COORDINATES (ANGSTROEM)
---------------------------------
  C     -0.315361    1.364487    1.169897
  N      0.309387    0.071914    0.914649
  C     -0.299825   -1.141864    1.430195
  C     -0.926658   -2.067205    0.359006
  C     -1.797461   -1.262471   -0.550493
  C     -2.935000    0.493068   -0.054793
  C     -2.507890    1.927227   -0.122012
  C     -0.973774    2.060322   -0.044937
  C     -3.123161   -1.502802   -0.985888
  C     -3.710466   -0.250585   -0.978417
  H     -2.864863    0.061747    0.934010
  H     -1.240752   -0.537438   -1.125853
  C      1.564556    0.029572    0.328645
  C      2.178616    1.193256   -0.168015
  C      3.441201    1.148686   -0.736475
  C      4.140910   -0.043949   -0.842545
  C      3.543402   -1.200318   -0.362780
  C      2.282400   -1.173564    0.209145
  H     -1.058674    1.219441    1.955271
  H      0.440569    2.030589    1.596302
  H      0.430469   -1.707389    2.017694
  H     -1.083854   -0.840574    2.124399
  H     -1.487498   -2.853308    0.871256
  H     -0.128144   -2.546978   -0.215684
  H     -2.857311    2.392379   -1.047341
  H     -2.945562    2.489282    0.712552
  H     -0.530269    1.662595   -0.959601
  H     -0.724723    3.125507   -0.018571
  H     -3.576602   -2.472767   -1.163510
  H     -4.508159    0.138888   -1.603281
  H      1.669655    2.144318   -0.121518
  H      3.879340    2.068646   -1.106228
  H      5.125078   -0.072628   -1.291955
  H      4.064695   -2.148203   -0.431965
  H      1.861961   -2.100658    0.568287

 Total Charge           Charge          ....    0
 Multiplicity           Mult            ....    1
 Number of Electrons    NEL             ....  116
 Basis Dimension        Dim             .... 2154

ORBITAL ENERGIES
----------------

  NO   OCC          E(Eh)            E(eV)
   0   2.0000     -15.563977      -423.5174
   1   2.0000     -11.276378      -306.8458
   2   2.0000     -11.265195      -306.5415
   3   2.0000     -11.261672      -306.4457
   4   2.0000     -11.241954      -305.9091
   5   2.0000     -11.241259      -305.8902
   6   2.0000     -11.228935      -305.5549
   7   2.0000     -11.228853      -305.5526
   8   2.0000     -11.226900      -305.4995
   9   2.0000     -11.226119      -305.4782
  10   2.0000     -11.225304      -305.4560
  11   2.0000     -11.217700      -305.2491
  12   2.0000     -11.216439      -305.2148
  13   2.0000     -11.216247      -305.2096
  14   2.0000     -11.216028      -305.2036
  15   2.0000     -11.211256      -305.0738
  16   2.0000      -1.260738       -34.3064
  17   2.0000      -1.138849       -30.9896
  18   2.0000      -1.127253       -30.6741
  19   2.0000      -1.077572       -29.3222
  20   2.0000      -1.033725       -28.1291
  21   2.0000      -1.011101       -27.5135
  22   2.0000      -0.992090       -26.9961
  23   2.0000      -0.969695       -26.3867
  24   2.0000      -0.889377       -24.2012
  25   2.0000      -0.869650       -23.6644
  26   2.0000      -0.829952       -22.5841
  27   2.0000      -0.817796       -22.2534
  28   2.0000      -0.789298       -21.4779
  29   2.0000      -0.776722       -21.1357
  30   2.0000      -0.722541       -19.6613
  31   2.0000      -0.702748       -19.1227
  32   2.0000      -0.664974       -18.0949
  33   2.0000      -0.658114       -17.9082
  34   2.0000      -0.638777       -17.3820
  35   2.0000      -0.633293       -17.2328
  36   2.0000      -0.627174       -17.0663
  37   2.0000      -0.618517       -16.8307
  38   2.0000      -0.597158       -16.2495
  39   2.0000      -0.591234       -16.0883
  40   2.0000      -0.575859       -15.6699
  41   2.0000      -0.572336       -15.5741
  42   2.0000      -0.563298       -15.3281
  43   2.0000      -0.537816       -14.6347
  44   2.0000      -0.529221       -14.4008
  45   2.0000      -0.519612       -14.1394
  46   2.0000      -0.513952       -13.9853
  47   2.0000      -0.502376       -13.6704
  48   2.0000      -0.498799       -13.5730
  49   2.0000      -0.488090       -13.2816
  50   2.0000      -0.480979       -13.0881
  51   2.0000      -0.478511       -13.0209
  52   2.0000      -0.467548       -12.7226
  53   2.0000      -0.404240       -10.9999
  54   2.0000      -0.335145        -9.1198
  55   2.0000      -0.330479        -8.9928
  56   2.0000      -0.303970        -8.2714
  57   2.0000      -0.278958        -7.5908
  58   0.0000       0.022228         0.6049
  59   0.0000       0.025184         0.6853
  60   0.0000       0.026880         0.7314
  61   0.0000       0.028593         0.7781
  62   0.0000       0.035688         0.9711

MULLIKEN ATOMIC CHARGES
-----------------------
   0 C :   -0.433882
   1 N :    0.284463
   2 C :   -0.525908
   3 C :   -0.530696
   4 C :   -0.066640
   5 C :    0.073840
   6 C :   -0.606120
   7 C :   -0.378080
   8 C :   -0.667735
   9 C :   -0.700273
  10 H :    0.341076
  11 H :    0.362192
  12 C :    1.213087
  13 C :   -0.382491
  14 C :   -0.629498
  15 C :   -0.479771
  16 C :   -0.517407
  17 C :   -0.467399
  18 H :    0.212773
  19 H :    0.268304
  20 H :    0.222145
  21 H :    0.193085
  22 H :    0.261854
  23 H :    0.292695
  24 H :    0.211969
  25 H :    0.194349
  26 H :    0.277967
  27 H :    0.274158
  28 H :    0.351695
  29 H :    0.353239
  30 H :    0.204269
  31 H :    0.163636
  32 H :    0.326103
  33 H :    0.177372
  34 H :    0.125630
Sum of atomic charges:    0.0000000

LOEWDIN ATOMIC CHARGES
----------------------
   0 C :    0.397046
   1 N :    0.514772
   2 C :    0.387080
   3 C :    0.575137
   4 C :    0.284592
   5 C :    0.280882
   6 C :    0.559867
   7 C :    0.560141
   8 C :    0.372207
   9 C :    0.367132
  10 H :   -0.339771
  11 H :   -0.341433
  12 C :   -0.200234
  13 C :    0.349659
  14 C :    0.344110
  15 C :    0.334590
  16 C :    0.343669
  17 C :    0.352409
  18 H :   -0.304962
  19 H :   -0.289982
  20 H :   -0.282291
  21 H :   -0.304454
  22 H :   -0.265011
  23 H :   -0.291029
  24 H :   -0.275385
  25 H :   -0.267500
  26 H :   -0.292418
  27 H :   -0.257811
  28 H :   -0.298887
  29 H :   -0.297848
  30 H :   -0.373764
  31 H :   -0.316342
  32 H :   -0.331112
  33 H :   -0.316332
  34 H :   -0.376727

  Mayer bond orders larger than 0.100000
B(  0-C ,  1-N ) :   0.7957 B(  0-C ,  7-C ) :   0.9284 B(  0-C , 13-C ) :  -0.1061
B(  0-C , 18-H ) :   1.0484 B(  0-C , 19-H ) :   0.9352 B(  1-N ,  2-C ) :   0.7410
B(  1-N ,  3-C ) :  -0.2771 B(  1-N ,  7-C ) :  -0.1009 B(  1-N , 12-C ) :   0.8959
B(  1-N , 13-C ) :  -0.1796 B(  1-N , 17-C ) :  -0.1156 B(  2-C ,  3-C ) :   1.0101
B(  2-C , 20-H ) :   0.9733 B(  2-C , 21-H ) :   1.0493 B(  3-C ,  4-C ) :   0.8230
B(  3-C , 22-H ) :   0.9845 B(  3-C , 23-H ) :   0.9505 B(  4-C ,  5-C ) :   0.3589
B(  4-C ,  8-C ) :   1.2588 B(  4-C ,  9-C ) :  -0.3547 B(  4-C , 11-H ) :   0.8759
B(  5-C ,  6-C ) :   0.7222 B(  5-C ,  8-C ) :  -0.3234 B(  5-C ,  9-C ) :   1.2973
B(  5-C , 10-H ) :   0.9119 B(  6-C ,  7-C ) :   0.7496 B(  6-C , 24-H ) :   1.0714
B(  6-C , 25-H ) :   1.0437 B(  7-C , 24-H ) :  -0.1265 B(  7-C , 26-H ) :   0.9684
B(  7-C , 27-H ) :   0.9173 B(  8-C ,  9-C ) :   1.6978 B(  8-C , 11-H ) :  -0.1349
B(  8-C , 28-H ) :   0.9178 B(  9-C , 29-H ) :   0.9230 B( 12-C , 13-C ) :   0.9877
B( 12-C , 14-C ) :  -0.4310 B( 12-C , 15-C ) :  -0.1678 B( 12-C , 16-C ) :  -0.4247
B( 12-C , 17-C ) :   0.8551 B( 13-C , 14-C ) :   1.1465 B( 13-C , 15-C ) :  -0.1047
B( 13-C , 30-H ) :   1.0334 B( 13-C , 31-H ) :  -0.1754 B( 14-C , 15-C ) :   1.2972
B( 14-C , 17-C ) :   0.1145 B( 14-C , 31-H ) :   1.2441 B( 14-C , 32-H ) :  -0.1044
B( 15-C , 16-C ) :   1.2041 B( 15-C , 31-H ) :  -0.1290 B( 15-C , 32-H ) :   1.0457
B( 15-C , 33-H ) :  -0.1274 B( 16-C , 17-C ) :   1.2249 B( 16-C , 32-H ) :  -0.1102
B( 16-C , 33-H ) :   1.2491 B( 17-C , 33-H ) :  -0.1950 B( 17-C , 34-H ) :   1.1137

MP2 TOTAL ENERGY:     -636.507652668 Eh
FINAL SINGLE POINT ENERGY      -636.507652667592

DIPOLE MOMENT
-------------
                                X             Y             Z
Electronic contribution:      5.39020      -1.92202      -1.28429
Nuclear contribution   :     -5.65038       2.09751       1.73574
                        -----------------------------------------
Total Dipole Moment    :     -0.26019       0.17549       0.45146
                        -----------------------------------------
Magnitude (a.u.)       :      0.54982
Magnitude (Debye)      :      1.39754

Rotational constants in cm-1:     0.033512     0.011771     0.010040
Rotational constants in MHz :  1004.650300   352.893793   300.984151

                             ****ORCA TERMINATED NORMALLY****
TOTAL RUN TIME: 0 days 5 hours 38 minutes 49 seconds 607 msec
