                         Program Version 4.2.1 -  RELEASE  -
|  1> %pal
|  2>  nprocs 32
|  3> end
|  4> !RI-MP2 aug-cc-pVQZ aug-cc-pVQZ/C TightSCF
|  5> %maxcore 4500
|  6> *xyzfile 0 2  04_38TS.xyz
|  7>
|  8>
|  9>                          ****END OF INPUT****

CARTESIAN COORDINATES (ANGSTROEM)
---------------------------------
  C     -0.108393    0.888603    1.015833
  C     -1.430652    1.376399    0.467326
  O     -1.954533    0.242909   -0.241322
  C     -1.544674   -0.952107    0.402846
  C     -0.277378   -0.577969    1.170064
  H      0.348046    1.419133    1.847045
  C     -1.381035    2.562042   -0.467422
  H     -2.103916    1.597930    1.310335
  H     -2.378046    2.767627   -0.858551
  H     -0.702632    2.362026   -1.296844
  H     -1.027875    3.447379    0.064891
  C     -1.315200   -2.023692   -0.644319
  H     -2.299406   -1.290510    1.127425
  O     -0.372385   -1.600540   -1.604886
  H     -2.271074   -2.281784   -1.113283
  H     -0.909836   -2.912703   -0.160055
  H     -0.667791   -0.748973   -1.946923
  O      0.421725   -1.348562    1.776195
  C      3.365575    0.041181    0.378198
  C      2.434276    0.024819   -0.818308
  H      2.807063   -0.123091    1.302060
  H      3.892575    0.994749    0.445024
  H      4.103414   -0.760086    0.292985
  H      3.001746    0.127340   -1.754529
  H      1.881350   -0.917277   -0.899126
  H      0.736597    1.016534    0.077073
  O      1.547027    1.114449   -0.862841

 Total Charge           Charge          ....    0
 Multiplicity           Mult            ....    2
 Number of Electrons    NEL             ....   95
 Basis Dimension        Dim             .... 1650

ORBITAL ENERGIES
----------------
                 SPIN UP ORBITALS
  NO   OCC          E(Eh)            E(eV)
   0   1.0000     -20.611066      -560.8556
   1   1.0000     -20.574541      -559.8617
   2   1.0000     -20.561472      -559.5061
   3   1.0000     -20.559513      -559.4528
   4   1.0000     -11.333873      -308.4104
   5   1.0000     -11.300816      -307.5108
   6   1.0000     -11.296446      -307.3919
   7   1.0000     -11.284257      -307.0603
   8   1.0000     -11.274032      -306.7820
   9   1.0000     -11.254877      -306.2608
  10   1.0000     -11.224176      -305.4254
  11   1.0000     -11.211997      -305.0940
  12   1.0000      -1.421068       -38.6692
  13   1.0000      -1.403231       -38.1839
  14   1.0000      -1.399418       -38.0801
  15   1.0000      -1.365150       -37.1476
  16   1.0000      -1.088021       -29.6065
  17   1.0000      -1.050148       -28.5760
  18   1.0000      -1.010620       -27.5004
  19   1.0000      -0.979734       -26.6599
  20   1.0000      -0.879392       -23.9295
  21   1.0000      -0.855813       -23.2879
  22   1.0000      -0.819212       -22.2919
  23   1.0000      -0.769582       -20.9414
  24   1.0000      -0.739720       -20.1288
  25   1.0000      -0.706750       -19.2317
  26   1.0000      -0.696136       -18.9428
  27   1.0000      -0.665833       -18.1182
  28   1.0000      -0.663928       -18.0664
  29   1.0000      -0.645594       -17.5675
  30   1.0000      -0.635027       -17.2800
  31   1.0000      -0.616856       -16.7855
  32   1.0000      -0.600284       -16.3346
  33   1.0000      -0.595536       -16.2054
  34   1.0000      -0.575221       -15.6526
  35   1.0000      -0.565996       -15.4015
  36   1.0000      -0.563416       -15.3313
  37   1.0000      -0.550417       -14.9776
  38   1.0000      -0.535781       -14.5794
  39   1.0000      -0.530270       -14.4294
  40   1.0000      -0.515237       -14.0203
  41   1.0000      -0.507244       -13.8028
  42   1.0000      -0.491796       -13.3824
  43   1.0000      -0.480342       -13.0708
  44   1.0000      -0.466105       -12.6834
  45   1.0000      -0.445756       -12.1296
  46   1.0000      -0.419805       -11.4235
  47   1.0000      -0.404871       -11.0171
  48   0.0000       0.021596         0.5877
  49   0.0000       0.028090         0.7644
  50   0.0000       0.029604         0.8056
  51   0.0000       0.031672         0.8618
  52   0.0000       0.040032         1.0893

                 SPIN DOWN ORBITALS
  NO   OCC          E(Eh)            E(eV)
   0   1.0000     -20.578514      -559.9698
   1   1.0000     -20.574557      -559.8622
   2   1.0000     -20.559510      -559.4527
   3   1.0000     -20.554127      -559.3062
   4   1.0000     -11.337925      -308.5206
   5   1.0000     -11.301933      -307.5412
   6   1.0000     -11.296197      -307.3851
   7   1.0000     -11.284339      -307.0625
   8   1.0000     -11.275779      -306.8295
   9   1.0000     -11.242050      -305.9117
  10   1.0000     -11.223791      -305.4149
  11   1.0000     -11.211887      -305.0910
  12   1.0000      -1.416095       -38.5339
  13   1.0000      -1.388785       -37.7908
  14   1.0000      -1.365116       -37.1467
  15   1.0000      -1.300349       -35.3843
  16   1.0000      -1.074339       -29.2343
  17   1.0000      -1.042855       -28.3775
  18   1.0000      -0.999429       -27.1958
  19   1.0000      -0.974031       -26.5047
  20   1.0000      -0.877156       -23.8686
  21   1.0000      -0.838095       -22.8057
  22   1.0000      -0.808810       -22.0088
  23   1.0000      -0.766998       -20.8711
  24   1.0000      -0.708356       -19.2753
  25   1.0000      -0.694760       -18.9054
  26   1.0000      -0.672906       -18.3107
  27   1.0000      -0.662102       -18.0167
  28   1.0000      -0.642492       -17.4831
  29   1.0000      -0.633071       -17.2267
  30   1.0000      -0.615719       -16.7546
  31   1.0000      -0.597427       -16.2568
  32   1.0000      -0.597095       -16.2478
  33   1.0000      -0.590494       -16.0682
  34   1.0000      -0.565733       -15.3944
  35   1.0000      -0.551138       -14.9972
  36   1.0000      -0.543549       -14.7907
  37   1.0000      -0.533455       -14.5160
  38   1.0000      -0.521209       -14.1828
  39   1.0000      -0.517799       -14.0900
  40   1.0000      -0.506123       -13.7723
  41   1.0000      -0.502995       -13.6872
  42   1.0000      -0.473145       -12.8749
  43   1.0000      -0.447635       -12.1808
  44   1.0000      -0.446008       -12.1365
  45   1.0000      -0.433911       -11.8073
  46   1.0000      -0.403353       -10.9758
  47   0.0000       0.021081         0.5736
  48   0.0000       0.028109         0.7649
  49   0.0000       0.029426         0.8007
  50   0.0000       0.030554         0.8314
  51   0.0000       0.037410         1.0180

MULLIKEN ATOMIC CHARGES AND SPIN POPULATIONS
--------------------------------------------
   0 C :   -0.364923    0.573508
   1 C :    0.379955   -0.049838
   2 O :   -1.052796   -0.002280
   3 C :    0.250468    0.023823
   4 C :    0.998516   -0.194474
   5 H :    0.384575   -0.038653
   6 C :   -0.998929    0.010586
   7 H :    0.244368    0.035795
   8 H :    0.274448   -0.003241
   9 H :    0.252849    0.001672
  10 H :    0.197049   -0.003032
  11 C :   -0.241162   -0.004835
  12 H :    0.440604   -0.005477
  13 O :   -0.986323   -0.001229
  14 H :    0.332330   -0.000389
  15 H :    0.310014   -0.000165
  16 H :    0.440294    0.001104
  17 O :   -1.072977    0.188565
  18 C :   -0.957275    0.010245
  19 C :   -0.176609   -0.119361
  20 H :    0.278544    0.002157
  21 H :    0.260423   -0.003547
  22 H :    0.305748   -0.003895
  23 H :    0.404583    0.074307
  24 H :    0.337037    0.015328
  25 H :    0.559731   -0.361420
  26 O :   -0.800541    0.854747
Sum of atomic charges         :    0.0000000

LOEWDIN ATOMIC CHARGES AND SPIN POPULATIONS
-------------------------------------------
   0 C :    0.405272    0.139769
   1 C :   -0.222239    0.032313
   2 O :    0.916778   -0.000072
   3 C :   -0.265573   -0.011905
   4 C :   -0.670369    0.002438
   5 H :   -0.232899    0.034930
   6 C :    0.928150    0.001029
   7 H :   -0.274360    0.010313
   8 H :   -0.277052    0.000669
   9 H :   -0.308119   -0.001884
  10 H :   -0.270558    0.000526
  11 C :    0.174493   -0.001614
  12 H :   -0.278585   -0.003325
  13 O :    1.297929   -0.000678
  14 H :   -0.284097   -0.000126
  15 H :   -0.310676   -0.000579
  16 H :   -0.809340   -0.000610
  17 O :    0.765274    0.102251
  18 C :    0.913124   -0.002997
  19 C :    0.157620    0.078355
  20 H :   -0.320029   -0.001046
  21 H :   -0.289341   -0.001024
  22 H :   -0.283709   -0.000392
  23 H :   -0.313334    0.025654
  24 H :   -0.350392    0.000315
  25 H :   -0.964211    0.068734
  26 O :    1.166244    0.528954

  Mayer bond orders larger than 0.100000
B(  0-C ,  1-C ) :   0.9391 B(  0-C ,  2-O ) :   0.1366 B(  0-C ,  3-C ) :  -0.1338
B(  0-C ,  4-C ) :   1.1816 B(  0-C ,  5-H ) :   0.8495 B(  0-C , 17-O ) :   0.2425
B(  0-C , 25-H ) :   0.4542 B(  1-C ,  2-O ) :   0.4661 B(  1-C ,  4-C ) :  -0.1362
B(  1-C ,  6-C ) :   0.6264 B(  1-C ,  7-H ) :   1.0581 B(  1-C ,  8-H ) :  -0.1445
B(  2-O ,  3-C ) :   0.5774 B(  2-O ,  6-C ) :   0.1192 B(  3-C ,  4-C ) :   1.0744
B(  3-C , 11-C ) :   0.8288 B(  3-C , 12-H ) :   0.7440 B(  3-C , 17-O ) :   0.1527
B(  4-C , 17-O ) :   0.5079 B(  4-C , 25-H ) :   0.1060 B(  6-C ,  8-H ) :   1.0437
B(  6-C ,  9-H ) :   0.9200 B(  6-C , 10-H ) :   1.0780 B( 11-C , 13-O ) :   0.6726
B( 11-C , 14-H ) :   0.9300 B( 11-C , 15-H ) :   0.9337 B( 13-O , 16-H ) :   0.7620
B( 18-C , 19-C ) :   1.0440 B( 18-C , 20-H ) :   0.8832 B( 18-C , 21-H ) :   0.9453
B( 18-C , 22-H ) :   0.9331 B( 19-C , 23-H ) :   0.7671 B( 19-C , 24-H ) :   0.8096
B( 19-C , 26-O ) :   0.6827 B( 25-H , 26-O ) :  -0.1126

MP2 TOTAL ENERGY:     -613.750789967 Eh
FINAL SINGLE POINT ENERGY      -613.750789967327

DIPOLE MOMENT
-------------
                                X             Y             Z
Electronic contribution:     -4.97530      -4.07115       1.72460
Nuclear contribution   :      4.48534       4.75890      -1.60610
                        -----------------------------------------
Total Dipole Moment    :     -0.48996       0.68775       0.11850
                        -----------------------------------------
Magnitude (a.u.)       :      0.85270
Magnitude (Debye)      :      2.16739

Rotational constants in cm-1:     0.034364     0.025472     0.021016
Rotational constants in MHz :  1030.195637   763.617474   630.032139

                             ****ORCA TERMINATED NORMALLY****
TOTAL RUN TIME: 0 days 4 hours 34 minutes 20 seconds 478 msec
