                         Program Version 4.2.1 -  RELEASE  -
|  1> %pal
|  2>  nprocs 32
|  3> end
|  4> !RI-MP2 aug-cc-pVQZ aug-cc-pVQZ/C TightSCF
|  5> %maxcore 4500
|  6> *xyzfile 0 2  01_29R.xyz
|  7>
|  8>
|  9>                          ****END OF INPUT****

CARTESIAN COORDINATES (ANGSTROEM)
---------------------------------
  C      0.469259   -1.205499   -0.593194
  C      1.707036   -1.529221    0.150789
  C      2.894487   -0.608781   -0.174748
  H      2.002325   -2.558481   -0.094295
  H      1.495017   -1.504358    1.221705
  C      2.710802    0.832607    0.311076
  H      3.078661   -0.612201   -1.254777
  H      3.789673   -1.027828    0.292081
  C      1.662141    1.599953   -0.435676
  H      3.668088    1.353990    0.198330
  H      2.475136    0.833866    1.379485
  C      0.618821    2.204233    0.115362
  C     -0.770405   -0.909754    0.085991
  O     -1.770926   -0.653033   -0.785121
  C     -3.046258   -0.311454   -0.220303
  H      0.467936   -1.174852   -1.676140
  O     -0.917066   -0.886757    1.291162
  C     -3.113600    1.155809    0.147997
  H     -2.901341    1.781160   -0.720997
  H     -2.396935    1.387999    0.935549
  H     -4.114435    1.400251    0.511437
  H     -3.227969   -0.943369    0.649259
  H     -3.763943   -0.558483   -1.001716
  H     -0.098316    2.753904   -0.481921
  H      0.438385    2.156976    1.184143
  H      1.797943    1.662397   -1.514234

 Total Charge           Charge          ....    0
 Multiplicity           Mult            ....    2
 Number of Electrons    NEL             ....   85
 Basis Dimension        Dim             .... 1570

ORBITAL ENERGIES
----------------
                 SPIN UP ORBITALS
  NO   OCC          E(Eh)            E(eV)
   0   1.0000     -20.585378      -560.1566
   1   1.0000     -20.538272      -558.8748
   2   1.0000     -11.361924      -309.1737
   3   1.0000     -11.279479      -306.9302
   4   1.0000     -11.254884      -306.2610
   5   1.0000     -11.230164      -305.5883
   6   1.0000     -11.227513      -305.5162
   7   1.0000     -11.227103      -305.5050
   8   1.0000     -11.226160      -305.4793
   9   1.0000     -11.218129      -305.2608
  10   1.0000     -11.214465      -305.1611
  11   1.0000      -1.449976       -39.4558
  12   1.0000      -1.355115       -36.8746
  13   1.0000      -1.112851       -30.2822
  14   1.0000      -1.067433       -29.0463
  15   1.0000      -1.031821       -28.0773
  16   1.0000      -0.995681       -27.0938
  17   1.0000      -0.919702       -25.0264
  18   1.0000      -0.864260       -23.5177
  19   1.0000      -0.808251       -21.9936
  20   1.0000      -0.756990       -20.5988
  21   1.0000      -0.751007       -20.4359
  22   1.0000      -0.708824       -19.2881
  23   1.0000      -0.676928       -18.4202
  24   1.0000      -0.653160       -17.7734
  25   1.0000      -0.637119       -17.3369
  26   1.0000      -0.626049       -17.0357
  27   1.0000      -0.619038       -16.8449
  28   1.0000      -0.607809       -16.5393
  29   1.0000      -0.571273       -15.5451
  30   1.0000      -0.566376       -15.4119
  31   1.0000      -0.549028       -14.9398
  32   1.0000      -0.540759       -14.7148
  33   1.0000      -0.523230       -14.2378
  34   1.0000      -0.508752       -13.8439
  35   1.0000      -0.507694       -13.8151
  36   1.0000      -0.489473       -13.3192
  37   1.0000      -0.479271       -13.0416
  38   1.0000      -0.475728       -12.9452
  39   1.0000      -0.464862       -12.6495
  40   1.0000      -0.451962       -12.2985
  41   1.0000      -0.392528       -10.6812
  42   1.0000      -0.344865        -9.3842
  43   0.0000       0.024071         0.6550
  44   0.0000       0.027520         0.7489
  45   0.0000       0.030954         0.8423
  46   0.0000       0.032169         0.8754
  47   0.0000       0.040396         1.0992

                 SPIN DOWN ORBITALS
  NO   OCC          E(Eh)            E(eV)
   0   1.0000     -20.584987      -560.1460
   1   1.0000     -20.528175      -558.6000
   2   1.0000     -11.366967      -309.3109
   3   1.0000     -11.279589      -306.9332
   4   1.0000     -11.233397      -305.6763
   5   1.0000     -11.231859      -305.6344
   6   1.0000     -11.229907      -305.5813
   7   1.0000     -11.228765      -305.5502
   8   1.0000     -11.225744      -305.4680
   9   1.0000     -11.214385      -305.1589
  10   1.0000     -11.213271      -305.1286
  11   1.0000      -1.444486       -39.3065
  12   1.0000      -1.338393       -36.4195
  13   1.0000      -1.102147       -29.9910
  14   1.0000      -1.049561       -28.5600
  15   1.0000      -1.031189       -28.0601
  16   1.0000      -0.972735       -26.4695
  17   1.0000      -0.911138       -24.7933
  18   1.0000      -0.854485       -23.2517
  19   1.0000      -0.802218       -21.8295
  20   1.0000      -0.758152       -20.6304
  21   1.0000      -0.743483       -20.2312
  22   1.0000      -0.698850       -19.0167
  23   1.0000      -0.669133       -18.2080
  24   1.0000      -0.639746       -17.4084
  25   1.0000      -0.634694       -17.2709
  26   1.0000      -0.620889       -16.8953
  27   1.0000      -0.614668       -16.7260
  28   1.0000      -0.603047       -16.4097
  29   1.0000      -0.563265       -15.3272
  30   1.0000      -0.562135       -15.2965
  31   1.0000      -0.541566       -14.7368
  32   1.0000      -0.523095       -14.2341
  33   1.0000      -0.518617       -14.1123
  34   1.0000      -0.503752       -13.7078
  35   1.0000      -0.496583       -13.5127
  36   1.0000      -0.488271       -13.2865
  37   1.0000      -0.478300       -13.0152
  38   1.0000      -0.473762       -12.8917
  39   1.0000      -0.441893       -12.0245
  40   1.0000      -0.428697       -11.6655
  41   1.0000      -0.360877        -9.8200
  42   0.0000       0.024124         0.6564
  43   0.0000       0.027312         0.7432
  44   0.0000       0.030833         0.8390
  45   0.0000       0.032205         0.8763
  46   0.0000       0.040397         1.0993

MULLIKEN ATOMIC CHARGES AND SPIN POPULATIONS
--------------------------------------------
   0 C :   -0.470886    1.128549
   1 C :   -0.298618   -0.232033
   2 C :   -0.437063    0.044707
   3 H :    0.291202    0.076151
   4 H :    0.260003    0.004152
   5 C :   -0.347513    0.033985
   6 H :    0.244982    0.000659
   7 H :    0.249929   -0.000796
   8 C :   -0.262585   -0.256390
   9 H :    0.313370   -0.015539
  10 H :    0.243162    0.000937
  11 C :   -0.826421    0.279026
  12 C :    1.448335   -0.180018
  13 O :   -0.889265    0.018718
  14 C :   -0.274519   -0.006215
  15 H :    0.241914   -0.116605
  16 O :   -0.941900    0.237299
  17 C :   -0.972352    0.000323
  18 H :    0.225350    0.000902
  19 H :    0.298683   -0.001420
  20 H :    0.369781    0.000140
  21 H :    0.320606    0.000913
  22 H :    0.378759    0.000109
  23 H :    0.264727   -0.020383
  24 H :    0.302649   -0.017339
  25 H :    0.267669    0.020169
Sum of atomic charges         :    0.0000000

LOEWDIN ATOMIC CHARGES AND SPIN POPULATIONS
-------------------------------------------
   0 C :    0.344907    0.395178
   1 C :    0.482918    0.112595
   2 C :    0.520292    0.016012
   3 H :   -0.271224    0.025430
   4 H :   -0.320925    0.003522
   5 C :    0.486591   -0.014112
   6 H :   -0.272213    0.002556
   7 H :   -0.267475    0.003420
   8 C :    0.344722   -0.035425
   9 H :   -0.273882   -0.004478
  10 H :   -0.294941   -0.000980
  11 C :    0.784588    0.061275
  12 C :   -1.098731    0.122850
  13 O :    0.857006    0.002985
  14 C :    0.162529   -0.002437
  15 H :   -0.306828    0.126600
  16 O :    0.742230    0.152626
  17 C :    0.905124   -0.000144
  18 H :   -0.289130    0.000228
  19 H :   -0.313625    0.000503
  20 H :   -0.282161    0.000168
  21 H :   -0.336497   -0.000907
  22 H :   -0.309922   -0.000229
  23 H :   -0.345478    0.026590
  24 H :   -0.337975    0.026551
  25 H :   -0.309900   -0.020379

  Mayer bond orders larger than 0.100000
B(  0-C ,  1-C ) :   0.7863 B(  0-C ,  2-C ) :  -0.1489 B(  0-C , 12-C ) :   1.0367
B(  0-C , 15-H ) :   1.0324 B(  0-C , 16-O ) :   0.1738 B(  1-C ,  2-C ) :   0.9342
B(  1-C ,  3-H ) :   0.9007 B(  1-C ,  4-H ) :   0.9146 B(  1-C , 12-C ) :  -0.1220
B(  2-C ,  5-C ) :   0.9414 B(  2-C ,  6-H ) :   0.8828 B(  2-C ,  7-H ) :   0.9685
B(  2-C ,  8-C ) :  -0.1168 B(  5-C ,  8-C ) :   0.8358 B(  5-C ,  9-H ) :   0.8982
B(  5-C , 10-H ) :   0.9242 B(  8-C , 11-C ) :   1.6451 B(  8-C , 23-H ) :  -0.1422
B(  8-C , 25-H ) :   0.9840 B( 11-C , 23-H ) :   1.0859 B( 11-C , 24-H ) :   0.8955
B( 12-C , 13-O ) :   0.6217 B( 12-C , 16-O ) :   0.9748 B( 13-O , 14-C ) :   0.8059
B( 13-O , 16-O ) :   0.1341 B( 14-C , 17-C ) :   1.1026 B( 14-C , 21-H ) :   0.8928
B( 14-C , 22-H ) :   0.7946 B( 17-C , 18-H ) :   0.9250 B( 17-C , 19-H ) :   0.8851
B( 17-C , 20-H ) :   0.8819

MP2 TOTAL ENERGY:     -501.538087984 Eh
FINAL SINGLE POINT ENERGY      -501.538087984290

DIPOLE MOMENT
-------------
                                X             Y             Z
Electronic contribution:     -2.50624      -5.03088      -0.27656
Nuclear contribution   :      2.74381       5.06696      -0.37448
                        -----------------------------------------
Total Dipole Moment    :      0.23757       0.03608      -0.65104
                        -----------------------------------------
Magnitude (a.u.)       :      0.69397
Magnitude (Debye)      :      1.76394

Rotational constants in cm-1:     0.057694     0.022964     0.018641
Rotational constants in MHz :  1729.628450   688.448021   558.830814

                             ****ORCA TERMINATED NORMALLY****
TOTAL RUN TIME: 0 days 4 hours 31 minutes 20 seconds 35 msec
