                         Program Version 4.2.1 -  RELEASE  -
|  1> %pal
|  2>  nprocs 32
|  3> end
|  4> !RI-MP2 aug-cc-pVQZ aug-cc-pVQZ/C TightSCF
|  5> %maxcore 4500
|  6> *xyzfile 0 1  04_11R1.xyz
|  7>
|  8>
|  9>                          ****END OF INPUT****

CARTESIAN COORDINATES (ANGSTROEM)
---------------------------------
  N     -0.601833   -1.052271   -0.366448
  H     -0.082616   -1.615215   -1.026657
  C      0.181423   -0.250242    0.561512
  H     -0.363111   -0.205097    1.508177
  C      1.534899   -0.915724    0.766717
  C      0.358854    1.180285    0.025271
  H      2.138552   -0.305350    1.443969
  H      1.391051   -1.897822    1.219042
  O      1.436025    1.571120   -0.396908
  N     -0.751716    1.937850    0.063340
  H     -1.641372    1.522929    0.317658
  H     -0.716448    2.857901   -0.346990
  C     -1.945177   -1.011627   -0.411983
  H     -2.380769   -1.713447   -1.138971
  O     -2.632687   -0.277506    0.276726
  O      2.190462   -1.121242   -0.467236
  H      2.399165   -0.238085   -0.804222

 Total Charge           Charge          ....    0
 Multiplicity           Mult            ....    1
 Number of Electrons    NEL             ....   70
 Basis Dimension        Dim             .... 1088

ORBITAL ENERGIES
----------------

  NO   OCC          E(Eh)            E(eV)
   0   2.0000     -20.559382      -559.4492
   1   2.0000     -20.544849      -559.0538
   2   2.0000     -20.533296      -558.7394
   3   2.0000     -15.611496      -424.8104
   4   2.0000     -15.585791      -424.1109
   5   2.0000     -11.370582      -309.4093
   6   2.0000     -11.363183      -309.2079
   7   2.0000     -11.296989      -307.4067
   8   2.0000     -11.291634      -307.2610
   9   2.0000      -1.411012       -38.3956
  10   2.0000      -1.399672       -38.0870
  11   2.0000      -1.368479       -37.2382
  12   2.0000      -1.262974       -34.3673
  13   2.0000      -1.220502       -33.2115
  14   2.0000      -1.046640       -28.4805
  15   2.0000      -0.904050       -24.6004
  16   2.0000      -0.857898       -23.3446
  17   2.0000      -0.798997       -21.7418
  18   2.0000      -0.762881       -20.7591
  19   2.0000      -0.741664       -20.1817
  20   2.0000      -0.704588       -19.1728
  21   2.0000      -0.692510       -18.8442
  22   2.0000      -0.664337       -18.0775
  23   2.0000      -0.626583       -17.0502
  24   2.0000      -0.616058       -16.7638
  25   2.0000      -0.613205       -16.6862
  26   2.0000      -0.596871       -16.2417
  27   2.0000      -0.571487       -15.5510
  28   2.0000      -0.555775       -15.1234
  29   2.0000      -0.516297       -14.0492
  30   2.0000      -0.467277       -12.7152
  31   2.0000      -0.463293       -12.6069
  32   2.0000      -0.453726       -12.3465
  33   2.0000      -0.424849       -11.5607
  34   2.0000      -0.406154       -11.0520
  35   0.0000       0.021760         0.5921
  36   0.0000       0.028873         0.7857
  37   0.0000       0.030203         0.8219
  38   0.0000       0.039143         1.0651
  39   0.0000       0.045546         1.2394

MULLIKEN ATOMIC CHARGES
-----------------------
   0 N :   -0.453323
   1 H :    0.213608
   2 C :   -0.021116
   3 H :    0.329434
   4 C :   -0.010053
   5 C :    1.048289
   6 H :    0.270750
   7 H :    0.294452
   8 O :   -0.896454
   9 N :   -0.792497
  10 H :    0.377279
  11 H :    0.178745
  12 C :    0.300329
  13 H :    0.520698
  14 O :   -0.826005
  15 O :   -0.946449
  16 H :    0.412312
Sum of atomic charges:    0.0000000

LOEWDIN ATOMIC CHARGES
----------------------
   0 N :    0.827749
   1 H :   -0.506295
   2 C :   -0.085900
   3 H :   -0.306186
   4 C :    0.159222
   5 C :   -0.793615
   6 H :   -0.286096
   7 H :   -0.298592
   8 O :    0.759287
   9 N :    1.252673
  10 H :   -0.644454
  11 H :   -0.474495
  12 C :   -0.379509
  13 H :   -0.341204
  14 O :    0.739882
  15 O :    1.292659
  16 H :   -0.915128

  Mayer bond orders larger than 0.100000
B(  0-N ,  1-H ) :   1.0154 B(  0-N ,  2-C ) :   0.6234 B(  0-N , 12-C ) :   1.2220
B(  2-C ,  3-H ) :   0.8633 B(  2-C ,  4-C ) :   0.8277 B(  2-C ,  5-C ) :   0.8768
B(  2-C ,  8-O ) :   0.1571 B(  4-C ,  6-H ) :   0.9859 B(  4-C ,  7-H ) :   0.9579
B(  4-C , 15-O ) :   0.6535 B(  5-C ,  8-O ) :   1.1515 B(  5-C ,  9-N ) :   1.1690
B(  8-O ,  9-N ) :   0.1382 B(  9-N , 10-H ) :   0.8126 B(  9-N , 11-H ) :   1.0811
B( 12-C , 13-H ) :   0.7380 B( 12-C , 14-O ) :   1.5421 B( 15-O , 16-H ) :   0.7928

MP2 TOTAL ENERGY:     -491.785303984 Eh
FINAL SINGLE POINT ENERGY      -491.785303984193

DIPOLE MOMENT
-------------
                                X             Y             Z
Electronic contribution:     -1.24071       1.14842      -1.19394
Nuclear contribution   :      0.74845      -1.57842       1.15522
                        -----------------------------------------
Total Dipole Moment    :     -0.49226      -0.43000      -0.03872
                        -----------------------------------------
Magnitude (a.u.)       :      0.65477
Magnitude (Debye)      :      1.66428

Rotational constants in cm-1:     0.076708     0.046558     0.032443
Rotational constants in MHz :  2299.654351  1395.763241   972.626872

                             ****ORCA TERMINATED NORMALLY****
TOTAL RUN TIME: 0 days 0 hours 32 minutes 4 seconds 637 msec
