                         Program Version 4.2.1 -  RELEASE  -
|  1> %pal
|  2>  nprocs 32
|  3> end
|  4> !RI-MP2 aug-cc-pVQZ aug-cc-pVQZ/C TightSCF
|  5> %maxcore 4500
|  6> *xyzfile 0 1  03_19R1.xyz
|  7>
|  8>
|  9>                          ****END OF INPUT****

CARTESIAN COORDINATES (ANGSTROEM)
---------------------------------
  S     -3.083717   -0.455257    0.000040
  C     -1.335560   -0.253689    0.000009
  C     -0.727455    0.994096    0.000046
  C      0.657506    1.069186    0.000037
  C      1.440262   -0.080934    0.000002
  C      0.808505   -1.325824   -0.000032
  C     -0.566996   -1.419757   -0.000035
  H     -1.328426    1.892228    0.000076
  H      1.120715    2.047375    0.000062
  H      1.424365   -2.215832   -0.000065
  H     -1.041787   -2.394781   -0.000076
  C      2.934176   -0.042329   -0.000005
  O      3.573804   -1.070553   -0.000034
  C      3.625298    1.299084    0.000027
  H      3.344616    1.879777   -0.881627
  H      4.700585    1.137216    0.000019
  H      3.344621    1.879733    0.881711
  F     -3.536675    1.131537   -0.000084

 Total Charge           Charge          ....    0
 Multiplicity           Mult            ....    1
 Number of Electrons    NEL             ....   88
 Basis Dimension        Dim             .... 1206

ORBITAL ENERGIES
----------------

  NO   OCC          E(Eh)            E(eV)
   0   2.0000     -92.054586     -2504.9326
   1   2.0000     -26.320457      -716.2160
   2   2.0000     -20.546314      -559.0936
   3   2.0000     -11.338776      -308.5438
   4   2.0000     -11.302510      -307.5569
   5   2.0000     -11.266666      -306.5816
   6   2.0000     -11.260667      -306.4183
   7   2.0000     -11.259272      -306.3804
   8   2.0000     -11.256513      -306.3053
   9   2.0000     -11.253506      -306.2235
  10   2.0000     -11.238817      -305.8238
  11   2.0000      -9.048496      -246.2221
  12   2.0000      -6.730014      -183.1330
  13   2.0000      -6.728077      -183.0803
  14   2.0000      -6.726838      -183.0466
  15   2.0000      -1.611641       -43.8550
  16   2.0000      -1.394264       -37.9399
  17   2.0000      -1.192825       -32.4584
  18   2.0000      -1.091456       -29.7000
  19   2.0000      -1.047819       -28.5126
  20   2.0000      -1.019339       -27.7376
  21   2.0000      -0.966452       -26.2985
  22   2.0000      -0.861875       -23.4528
  23   2.0000      -0.851909       -23.1816
  24   2.0000      -0.775157       -21.0931
  25   2.0000      -0.730072       -19.8663
  26   2.0000      -0.697357       -18.9761
  27   2.0000      -0.697205       -18.9719
  28   2.0000      -0.679693       -18.4954
  29   2.0000      -0.658516       -17.9191
  30   2.0000      -0.646962       -17.6047
  31   2.0000      -0.616142       -16.7661
  32   2.0000      -0.613356       -16.6903
  33   2.0000      -0.607947       -16.5431
  34   2.0000      -0.599787       -16.3210
  35   2.0000      -0.552646       -15.0383
  36   2.0000      -0.548392       -14.9225
  37   2.0000      -0.520338       -14.1591
  38   2.0000      -0.509848       -13.8737
  39   2.0000      -0.503123       -13.6907
  40   2.0000      -0.433525       -11.7968
  41   2.0000      -0.425611       -11.5815
  42   2.0000      -0.366510        -9.9732
  43   2.0000      -0.329516        -8.9666
  44   0.0000       0.021881         0.5954
  45   0.0000       0.026924         0.7326
  46   0.0000       0.031475         0.8565
  47   0.0000       0.036489         0.9929
  48   0.0000       0.043651         1.1878

MULLIKEN ATOMIC CHARGES
-----------------------
   0 S :    0.483304
   1 C :   -0.263920
   2 C :   -0.203910
   3 C :   -0.123679
   4 C :   -0.269796
   5 C :   -0.154631
   6 C :   -0.099060
   7 H :    0.321359
   8 H :    0.258818
   9 H :    0.227422
  10 H :    0.309107
  11 C :    1.124582
  12 O :   -0.803590
  13 C :   -0.859892
  14 H :    0.206229
  15 H :    0.308528
  16 H :    0.206233
  17 F :   -0.667103
Sum of atomic charges:   -0.0000000

LOEWDIN ATOMIC CHARGES
----------------------
   0 S :    0.774877
   1 C :   -0.571658
   2 C :    0.252707
   3 C :    0.328163
   4 C :   -0.118626
   5 C :    0.316248
   6 C :    0.226186
   7 H :   -0.380110
   8 H :   -0.337235
   9 H :   -0.337346
  10 H :   -0.338497
  11 C :   -0.655549
  12 O :    0.746444
  13 C :    0.879247
  14 H :   -0.290969
  15 H :   -0.315785
  16 H :   -0.290970
  17 F :    0.112873

  Mayer bond orders larger than 0.100000
B(  0-S ,  1-C ) :   0.9775 B(  0-S ,  2-C ) :  -0.1964 B(  0-S ,  6-C ) :  -0.1952
B(  0-S , 17-F ) :   0.5785 B(  1-C ,  2-C ) :   1.0288 B(  1-C ,  3-C ) :  -0.1844
B(  1-C ,  6-C ) :   0.9975 B(  1-C ,  7-H ) :  -0.1135 B(  1-C , 17-F ) :  -0.2829
B(  2-C ,  3-C ) :   1.1069 B(  2-C ,  4-C ) :  -0.2092 B(  2-C ,  5-C ) :   0.1067
B(  2-C ,  7-H ) :   0.9427 B(  2-C ,  8-H ) :  -0.1585 B(  3-C ,  4-C ) :   0.9883
B(  3-C ,  8-H ) :   1.0310 B(  3-C , 11-C ) :  -0.2970 B(  4-C ,  5-C ) :   0.9739
B(  4-C ,  6-C ) :  -0.3040 B(  4-C ,  8-H ) :  -0.1504 B(  4-C , 11-C ) :   0.9097
B(  4-C , 12-O ) :   0.5987 B(  5-C ,  6-C ) :   1.2580 B(  5-C ,  9-H ) :   1.0085
B(  5-C , 10-H ) :  -0.1344 B(  5-C , 11-C ) :  -0.2650 B(  5-C , 12-O ) :  -0.1281
B(  6-C ,  9-H ) :  -0.1145 B(  6-C , 10-H ) :   0.9559 B( 11-C , 12-O ) :   0.8022
B( 11-C , 13-C ) :   0.9427 B( 13-C , 14-H ) :   0.9932 B( 13-C , 15-H ) :   0.9586
B( 13-C , 16-H ) :   0.9932

MP2 TOTAL ENERGY:     -881.117898771 Eh
FINAL SINGLE POINT ENERGY      -881.117898771388

DIPOLE MOMENT
-------------
                                X             Y             Z
Electronic contribution:    -14.95295      -2.41622      -0.00012
Nuclear contribution   :     14.76837       3.01543       0.00018
                        -----------------------------------------
Total Dipole Moment    :     -0.18457       0.59921       0.00006
                        -----------------------------------------
Magnitude (a.u.)       :      0.62700
Magnitude (Debye)      :      1.59370

Rotational constants in cm-1:     0.099505     0.014926     0.013011
Rotational constants in MHz :  2983.099834   447.477171   390.050453

                             ****ORCA TERMINATED NORMALLY****
TOTAL RUN TIME: 0 days 0 hours 55 minutes 6 seconds 959 msec
