                         Program Version 4.2.1 -  RELEASE  -
|  1> %pal
|  2>  nprocs 32
|  3> end
|  4> !RI-MP2 aug-cc-pVQZ aug-cc-pVQZ/C TightSCF
|  5> %maxcore 4500
|  6> *xyzfile 0 1  02_48R1.xyz
|  7>
|  8>
|  9>                          ****END OF INPUT****

CARTESIAN COORDINATES (ANGSTROEM)
---------------------------------
  C      2.663836   -0.703286    0.000015
  C      1.481755   -1.396616    0.000008
  C      0.254755   -0.701825    0.000002
  C      0.254755    0.701825    0.000002
  C      1.481755    1.396616    0.000008
  C      2.663836    0.703286    0.000015
  H      3.605713   -1.238204    0.000020
  H      1.486940   -2.478563    0.000008
  C     -1.023004   -1.348784   -0.000005
  C     -1.023004    1.348784   -0.000005
  H      1.486940    2.478563    0.000008
  H      3.605713    1.238204    0.000020
  N     -2.139768   -0.678130   -0.000012
  N     -2.139768    0.678130   -0.000012
  C     -1.141647    2.843363   -0.000008
  H     -0.666232    3.278786    0.882433
  H     -0.666216    3.278785   -0.882439
  H     -2.196003    3.110234   -0.000017
  C     -1.141647   -2.843363   -0.000008
  H     -0.666216   -3.278785   -0.882439
  H     -0.666232   -3.278786    0.882433
  H     -2.196003   -3.110234   -0.000017

 Total Charge           Charge          ....    0
 Multiplicity           Mult            ....    1
 Number of Electrons    NEL             ....   84
 Basis Dimension        Dim             .... 1420

ORBITAL ENERGIES
----------------

  NO   OCC          E(Eh)            E(eV)
   0   2.0000     -15.582508      -424.0216
   1   2.0000     -15.581797      -424.0023
   2   2.0000     -11.279986      -306.9440
   3   2.0000     -11.279965      -306.9434
   4   2.0000     -11.260465      -306.4128
   5   2.0000     -11.259309      -306.3814
   6   2.0000     -11.257178      -306.3234
   7   2.0000     -11.256304      -306.2996
   8   2.0000     -11.255131      -306.2677
   9   2.0000     -11.254864      -306.2604
  10   2.0000     -11.226445      -305.4871
  11   2.0000     -11.226445      -305.4871
  12   2.0000      -1.327384       -36.1200
  13   2.0000      -1.180818       -32.1317
  14   2.0000      -1.144534       -31.1444
  15   2.0000      -1.070158       -29.1205
  16   2.0000      -1.040993       -28.3269
  17   2.0000      -0.998735       -27.1770
  18   2.0000      -0.950917       -25.8758
  19   2.0000      -0.879196       -23.9241
  20   2.0000      -0.876808       -23.8592
  21   2.0000      -0.802755       -21.8441
  22   2.0000      -0.743938       -20.2436
  23   2.0000      -0.721171       -19.6240
  24   2.0000      -0.674727       -18.3603
  25   2.0000      -0.644200       -17.5296
  26   2.0000      -0.627501       -17.0752
  27   2.0000      -0.612207       -16.6590
  28   2.0000      -0.595243       -16.1974
  29   2.0000      -0.583931       -15.8896
  30   2.0000      -0.583725       -15.8840
  31   2.0000      -0.556515       -15.1435
  32   2.0000      -0.543661       -14.7938
  33   2.0000      -0.537492       -14.6259
  34   2.0000      -0.535487       -14.5713
  35   2.0000      -0.518252       -14.1024
  36   2.0000      -0.499695       -13.5974
  37   2.0000      -0.446646       -12.1539
  38   2.0000      -0.396502       -10.7894
  39   2.0000      -0.391435       -10.6515
  40   2.0000      -0.359969        -9.7953
  41   2.0000      -0.324917        -8.8414
  42   0.0000       0.018743         0.5100
  43   0.0000       0.023097         0.6285
  44   0.0000       0.030070         0.8182
  45   0.0000       0.036700         0.9987
  46   0.0000       0.037770         1.0278

MULLIKEN ATOMIC CHARGES
-----------------------
   0 C :   -0.366792
   1 C :   -0.414075
   2 C :    0.355472
   3 C :    0.354968
   4 C :   -0.414196
   5 C :   -0.367046
   6 H :    0.239304
   7 H :    0.273601
   8 C :    0.517332
   9 C :    0.517824
  10 H :    0.273564
  11 H :    0.239242
  12 N :   -0.484937
  13 N :   -0.485022
  14 C :   -0.884112
  15 H :    0.200875
  16 H :    0.200873
  17 H :    0.362723
  18 C :   -0.884101
  19 H :    0.200871
  20 H :    0.200874
  21 H :    0.362758
Sum of atomic charges:   -0.0000000

LOEWDIN ATOMIC CHARGES
----------------------
   0 C :    0.371640
   1 C :    0.365370
   2 C :   -0.113086
   3 C :   -0.113086
   4 C :    0.365370
   5 C :    0.371640
   6 H :   -0.314498
   7 H :   -0.331374
   8 C :   -0.347232
   9 C :   -0.347232
  10 H :   -0.331374
  11 H :   -0.314498
  12 N :    0.378188
  13 N :    0.378188
  14 C :    0.876727
  15 H :   -0.283292
  16 H :   -0.283294
  17 H :   -0.319149
  18 C :    0.876727
  19 H :   -0.283294
  20 H :   -0.283292
  21 H :   -0.319149

  Mayer bond orders larger than 0.100000
B(  0-C ,  1-C ) :   1.1294 B(  0-C ,  2-C ) :  -0.1924 B(  0-C ,  3-C ) :   0.1000
B(  0-C ,  5-C ) :   1.1515 B(  0-C ,  6-H ) :   1.1916 B(  0-C ,  7-H ) :  -0.1010
B(  1-C ,  2-C ) :   0.8269 B(  1-C ,  3-C ) :  -0.1604 B(  1-C ,  6-H ) :  -0.2014
B(  1-C ,  7-H ) :   1.0047 B(  1-C ,  8-C ) :  -0.1928 B(  2-C ,  3-C ) :   0.6861
B(  2-C ,  4-C ) :  -0.1603 B(  2-C ,  7-H ) :  -0.2261 B(  2-C ,  8-C ) :   0.8117
B(  2-C ,  9-C ) :  -0.4641 B(  2-C , 12-N ) :   0.3203 B(  3-C ,  4-C ) :   0.8276
B(  3-C ,  5-C ) :  -0.1921 B(  3-C ,  8-C ) :  -0.4641 B(  3-C ,  9-C ) :   0.8114
B(  3-C , 10-H ) :  -0.2260 B(  3-C , 13-N ) :   0.3202 B(  4-C ,  5-C ) :   1.1292
B(  4-C ,  9-C ) :  -0.1928 B(  4-C , 10-H ) :   1.0048 B(  4-C , 11-H ) :  -0.2014
B(  5-C , 10-H ) :  -0.1011 B(  5-C , 11-H ) :   1.1917 B(  7-H ,  8-C ) :   0.1550
B(  8-C ,  9-C ) :   0.2824 B(  8-C , 12-N ) :   0.8239 B(  8-C , 18-C ) :   0.8353
B(  9-C , 10-H ) :   0.1550 B(  9-C , 13-N ) :   0.8240 B(  9-C , 14-C ) :   0.8351
B( 12-N , 13-N ) :   0.2989 B( 14-C , 15-H ) :   1.0436 B( 14-C , 16-H ) :   1.0436
B( 14-C , 17-H ) :   0.9007 B( 18-C , 19-H ) :   1.0436 B( 18-C , 20-H ) :   1.0436
B( 18-C , 21-H ) :   0.9006

MP2 TOTAL ENERGY:     -495.708316691 Eh
FINAL SINGLE POINT ENERGY      -495.708316691416

DIPOLE MOMENT
-------------
                                X             Y             Z
Electronic contribution:     -1.17626       0.00000      -0.00000
Nuclear contribution   :      3.09454       0.00000       0.00001
                        -----------------------------------------
Total Dipole Moment    :      1.91828       0.00000       0.00001
                        -----------------------------------------
Magnitude (a.u.)       :      1.91828
Magnitude (Debye)      :      4.87587

Rotational constants in cm-1:     0.041848     0.037071     0.019803
Rotational constants in MHz :  1254.580894  1111.370144   593.667675

                             ****ORCA TERMINATED NORMALLY****
TOTAL RUN TIME: 0 days 1 hours 22 minutes 41 seconds 294 msec
