                         Program Version 4.2.1 -  RELEASE  -
|  1> %pal
|  2>  nprocs 32
|  3> end
|  4> !RI-MP2 aug-cc-pVQZ aug-cc-pVQZ/C TightSCF
|  5> %maxcore 4500
|  6> *xyzfile 0 1  02_26P.xyz
|  7>
|  8>
|  9>                          ****END OF INPUT****

CARTESIAN COORDINATES (ANGSTROEM)
---------------------------------
  C      1.297458    0.856202   -0.138823
  C     -0.962722   -0.056831   -0.878462
  C     -1.243850    1.478266   -0.922559
  C     -0.638810    2.232618    0.232631
  C      0.607957    1.954781    0.605537
  C      2.640058    0.295222    0.326550
  C      2.694647   -1.126231   -0.300634
  C      1.312939   -1.358019   -0.958045
  H      3.475757    0.922633    0.013416
  H      2.886205   -1.874682    0.470177
  H      1.347160   -1.089121   -2.017696
  H      2.677883    0.237530    1.416923
  H      3.499337   -1.218967   -1.030965
  H      0.983519   -2.397389   -0.897084
  C      0.044029   -0.943301    1.208729
  H      0.540169   -0.367447    1.989463
  H      0.403675   -1.970279    1.296553
  C     -1.476354   -0.903793    1.374639
  H     -1.913122   -1.781206    1.850582
  C      0.386434   -0.388825   -0.218018
  C     -2.027115   -0.715721   -0.018993
  O     -3.131716   -1.014896   -0.392376
  H     -1.787466   -0.026730    1.952126
  H     -1.221070    3.005021    0.722372
  H      1.097971    2.481045    1.417848
  H      1.429038    1.192976   -1.177665
  H     -1.046030   -0.450040   -1.892862
  H     -0.808205    1.862749   -1.851645
  H     -2.319119    1.646857   -0.997860

 Total Charge           Charge          ....    0
 Multiplicity           Mult            ....    1
 Number of Electrons    NEL             ....   96
 Basis Dimension        Dim             .... 1776

ORBITAL ENERGIES
----------------

  NO   OCC          E(Eh)            E(eV)
   0   2.0000     -20.536242      -558.8196
   1   2.0000     -11.316477      -307.9370
   2   2.0000     -11.237729      -305.7941
   3   2.0000     -11.236924      -305.7723
   4   2.0000     -11.233652      -305.6832
   5   2.0000     -11.229804      -305.5785
   6   2.0000     -11.229453      -305.5689
   7   2.0000     -11.227405      -305.5132
   8   2.0000     -11.227269      -305.5095
   9   2.0000     -11.226534      -305.4895
  10   2.0000     -11.224208      -305.4262
  11   2.0000     -11.223558      -305.4085
  12   2.0000     -11.222529      -305.3805
  13   2.0000      -1.382898       -37.6306
  14   2.0000      -1.178699       -32.0740
  15   2.0000      -1.091284       -29.6953
  16   2.0000      -1.082096       -29.4453
  17   2.0000      -1.013901       -27.5897
  18   2.0000      -0.966470       -26.2990
  19   2.0000      -0.957150       -26.0454
  20   2.0000      -0.896815       -24.4036
  21   2.0000      -0.855265       -23.2729
  22   2.0000      -0.794112       -21.6089
  23   2.0000      -0.772750       -21.0276
  24   2.0000      -0.730768       -19.8852
  25   2.0000      -0.701218       -19.0811
  26   2.0000      -0.674148       -18.3445
  27   2.0000      -0.661927       -18.0120
  28   2.0000      -0.650848       -17.7105
  29   2.0000      -0.631944       -17.1961
  30   2.0000      -0.612129       -16.6569
  31   2.0000      -0.590185       -16.0597
  32   2.0000      -0.587727       -15.9929
  33   2.0000      -0.581865       -15.8333
  34   2.0000      -0.553007       -15.0481
  35   2.0000      -0.545027       -14.8309
  36   2.0000      -0.533813       -14.5258
  37   2.0000      -0.519943       -14.1484
  38   2.0000      -0.514710       -14.0060
  39   2.0000      -0.485748       -13.2179
  40   2.0000      -0.476396       -12.9634
  41   2.0000      -0.471526       -12.8309
  42   2.0000      -0.467308       -12.7161
  43   2.0000      -0.457567       -12.4510
  44   2.0000      -0.448525       -12.2050
  45   2.0000      -0.430169       -11.7055
  46   2.0000      -0.387929       -10.5561
  47   2.0000      -0.352187        -9.5835
  48   0.0000       0.021154         0.5756
  49   0.0000       0.026301         0.7157
  50   0.0000       0.027123         0.7381
  51   0.0000       0.030708         0.8356
  52   0.0000       0.039329         1.0702

MULLIKEN ATOMIC CHARGES
-----------------------
   0 C :    0.271785
   1 C :   -0.542906
   2 C :   -0.565062
   3 C :   -0.418443
   4 C :   -0.586897
   5 C :   -0.840714
   6 C :   -0.533933
   7 C :   -1.088784
   8 H :    0.239436
   9 H :    0.140593
  10 H :    0.142355
  11 H :    0.086547
  12 H :    0.253528
  13 H :    0.247866
  14 C :   -0.646296
  15 H :    0.153714
  16 H :    0.181218
  17 C :   -0.728069
  18 H :    0.262134
  19 C :    2.161438
  20 C :    1.491636
  21 O :   -1.049261
  22 H :    0.133288
  23 H :    0.233590
  24 H :    0.199958
  25 H :    0.264614
  26 H :    0.165347
  27 H :    0.189601
  28 H :    0.181718
Sum of atomic charges:   -0.0000000

LOEWDIN ATOMIC CHARGES
----------------------
   0 C :    0.068287
   1 C :    0.140752
   2 C :    0.528189
   3 C :    0.422072
   4 C :    0.420462
   5 C :    0.571410
   6 C :    0.585459
   7 C :    0.555352
   8 H :   -0.245294
   9 H :   -0.259880
  10 H :   -0.254097
  11 H :   -0.270047
  12 H :   -0.254081
  13 H :   -0.244710
  14 C :    0.553359
  15 H :   -0.274411
  16 H :   -0.266010
  17 C :    0.550365
  18 H :   -0.266481
  19 C :   -0.246757
  20 C :   -0.631340
  21 O :    0.752555
  22 H :   -0.264962
  23 H :   -0.295459
  24 H :   -0.284595
  25 H :   -0.275164
  26 H :   -0.273619
  27 H :   -0.264047
  28 H :   -0.277307

  Mayer bond orders larger than 0.100000
B(  0-C ,  1-C ) :   0.1373 B(  0-C ,  3-C ) :  -0.3631 B(  0-C ,  4-C ) :   0.6076
B(  0-C ,  5-C ) :   0.4834 B(  0-C ,  6-C ) :  -0.1575 B(  0-C ,  8-H ) :  -0.1077
B(  0-C , 11-H ) :  -0.1877 B(  0-C , 19-C ) :   0.4139 B(  0-C , 25-H ) :   1.0091
B(  1-C ,  2-C ) :   0.8087 B(  1-C , 19-C ) :   0.1871 B(  1-C , 20-C ) :   1.1624
B(  1-C , 21-O ) :   0.4079 B(  1-C , 26-H ) :   1.0491 B(  2-C ,  3-C ) :   0.9160
B(  2-C , 19-C ) :  -0.2153 B(  2-C , 27-H ) :   1.0551 B(  2-C , 28-H ) :   1.1074
B(  3-C ,  4-C ) :   1.6929 B(  3-C , 23-H ) :   1.1586 B(  4-C , 23-H ) :  -0.1598
B(  4-C , 24-H ) :   1.1187 B(  5-C ,  6-C ) :   1.1149 B(  5-C ,  8-H ) :   1.0550
B(  5-C , 11-H ) :   1.2210 B(  5-C , 19-C ) :  -0.1606 B(  6-C ,  7-C ) :   1.1847
B(  6-C ,  9-H ) :   1.0883 B(  6-C , 12-H ) :   0.9628 B(  6-C , 19-C ) :  -0.4379
B(  7-C , 10-H ) :   1.1716 B(  7-C , 13-H ) :   1.0847 B( 10-H , 19-C ) :  -0.1444
B( 13-H , 19-C ) :  -0.1419 B( 14-C , 15-H ) :   1.0791 B( 14-C , 16-H ) :   1.0440
B( 14-C , 17-C ) :   0.9562 B( 14-C , 19-C ) :   0.2666 B( 15-H , 19-C ) :  -0.1184
B( 16-H , 19-C ) :  -0.1168 B( 17-C , 18-H ) :   0.9922 B( 17-C , 19-C ) :  -0.2068
B( 17-C , 20-C ) :   1.1092 B( 17-C , 21-O ) :   0.2677 B( 17-C , 22-H ) :   1.0300
B( 19-C , 20-C ) :  -0.2151 B( 19-C , 21-O ) :   0.3292 B( 20-C , 22-H ) :   0.1190
B( 20-C , 26-H ) :   0.1088

MP2 TOTAL ENERGY:     -541.164931902 Eh
FINAL SINGLE POINT ENERGY      -541.164931902117

DIPOLE MOMENT
-------------
                                X             Y             Z
Electronic contribution:     -8.04630       0.20705      -0.97735
Nuclear contribution   :      9.40691       0.16055       1.28629
                        -----------------------------------------
Total Dipole Moment    :      1.36061       0.36760       0.30895
                        -----------------------------------------
Magnitude (a.u.)       :      1.44285
Magnitude (Debye)      :      3.66744

Rotational constants in cm-1:     0.044151     0.025461     0.020694
Rotational constants in MHz :  1323.611745   763.315956   620.393243

                             ****ORCA TERMINATED NORMALLY****
TOTAL RUN TIME: 0 days 3 hours 12 minutes 15 seconds 173 msec
