                         Program Version 4.2.1 -  RELEASE  -
|  1> %pal
|  2>  nprocs 32
|  3> end
|  4> !RI-MP2 aug-cc-pVQZ aug-cc-pVQZ/C TightSCF
|  5> %maxcore 4500
|  6> *xyzfile 0 2  03_5R2.xyz
|  7>
|  8>
|  9>                          ****END OF INPUT****

CARTESIAN COORDINATES (ANGSTROEM)
---------------------------------
  C      0.383108    0.007994   -0.178738
  C      1.076547    1.309361    0.037367
  C      1.124879   -1.271720    0.010758
  H      2.088941    1.272543   -0.372309
  H      1.164678    1.553046    1.106881
  H      0.551523    2.140462   -0.440316
  H      2.091246   -1.227771   -0.498059
  H      0.572628   -2.125726   -0.386710
  H      1.328767   -1.477112    1.072470
  S     -1.353599   -0.099333    0.034739
  H     -1.647407    1.180078   -0.254098

 Total Charge           Charge          ....    0
 Multiplicity           Mult            ....    2
 Number of Electrons    NEL             ....   41
 Basis Dimension        Dim             ....  646

ORBITAL ENERGIES
----------------
                 SPIN UP ORBITALS
  NO   OCC          E(Eh)            E(eV)
   0   1.0000     -91.956744     -2502.2702
   1   1.0000     -11.262603      -306.4710
   2   1.0000     -11.227768      -305.5231
   3   1.0000     -11.225357      -305.4575
   4   1.0000      -8.959134      -243.7904
   5   1.0000      -6.641123      -180.7141
   6   1.0000      -6.640122      -180.6869
   7   1.0000      -6.638700      -180.6482
   8   1.0000      -1.109556       -30.1926
   9   1.0000      -0.956407       -26.0252
  10   1.0000      -0.951731       -25.8979
  11   1.0000      -0.757165       -20.6035
  12   1.0000      -0.626310       -17.0428
  13   1.0000      -0.616572       -16.7778
  14   1.0000      -0.595200       -16.1962
  15   1.0000      -0.551404       -15.0045
  16   1.0000      -0.521194       -14.1824
  17   1.0000      -0.508916       -13.8483
  18   1.0000      -0.465285       -12.6610
  19   1.0000      -0.424013       -11.5380
  20   1.0000      -0.294729        -8.0200
  21   0.0000       0.025752         0.7008
  22   0.0000       0.033477         0.9109
  23   0.0000       0.038097         1.0367
  24   0.0000       0.041165         1.1202
  25   0.0000       0.053965         1.4684

                 SPIN DOWN ORBITALS
  NO   OCC          E(Eh)            E(eV)
   0   1.0000     -91.956535     -2502.2645
   1   1.0000     -11.237309      -305.7827
   2   1.0000     -11.230433      -305.5956
   3   1.0000     -11.228265      -305.5366
   4   1.0000      -8.958894      -243.7839
   5   1.0000      -6.641343      -180.7201
   6   1.0000      -6.640182      -180.6885
   7   1.0000      -6.637101      -180.6047
   8   1.0000      -1.072171       -29.1753
   9   1.0000      -0.953269       -25.9398
  10   1.0000      -0.951204       -25.8836
  11   1.0000      -0.712592       -19.3906
  12   1.0000      -0.613396       -16.6914
  13   1.0000      -0.587960       -15.9992
  14   1.0000      -0.577521       -15.7151
  15   1.0000      -0.541944       -14.7471
  16   1.0000      -0.518751       -14.1159
  17   1.0000      -0.502296       -13.6682
  18   1.0000      -0.451056       -12.2739
  19   1.0000      -0.376623       -10.2484
  20   0.0000       0.025788         0.7017
  21   0.0000       0.033562         0.9133
  22   0.0000       0.038129         1.0376
  23   0.0000       0.040559         1.1037
  24   0.0000       0.054032         1.4703

MULLIKEN ATOMIC CHARGES AND SPIN POPULATIONS
--------------------------------------------
   0 C :   -0.026060    1.052922
   1 C :   -0.793062   -0.142573
   2 C :   -0.777748   -0.144412
   3 H :    0.247622    0.010631
   4 H :    0.256922    0.074417
   5 H :    0.266204    0.013657
   6 H :    0.265264    0.018599
   7 H :    0.289699    0.012705
   8 H :    0.242804    0.071120
   9 S :   -0.017851    0.029622
  10 H :    0.046206    0.003312
Sum of atomic charges         :   -0.0000000

LOEWDIN ATOMIC CHARGES AND SPIN POPULATIONS
-------------------------------------------
   0 C :   -0.487605    0.474149
   1 C :    0.784342    0.121442
   2 C :    0.761900    0.120363
   3 H :   -0.310683    0.011162
   4 H :   -0.291220    0.027080
   5 H :   -0.330280    0.011684
   6 H :   -0.311252    0.014483
   7 H :   -0.333238    0.009402
   8 H :   -0.292962    0.025778
   9 S :    1.593076    0.165031
  10 H :   -0.782078    0.019427

  Mayer bond orders larger than 0.100000
B(  0-C ,  1-C ) :   0.8206 B(  0-C ,  2-C ) :   0.8418 B(  0-C ,  9-S ) :   0.8682
B(  1-C ,  3-H ) :   0.9777 B(  1-C ,  4-H ) :   0.8973 B(  1-C ,  5-H ) :   0.9767
B(  2-C ,  6-H ) :   0.9646 B(  2-C ,  7-H ) :   0.9630 B(  2-C ,  8-H ) :   0.9140
B(  9-S , 10-H ) :   1.0653

MP2 TOTAL ENERGY:     -515.974862144 Eh
FINAL SINGLE POINT ENERGY      -515.974862144016

DIPOLE MOMENT
-------------
                                X             Y             Z
Electronic contribution:     -5.84830      -1.03181      -0.26059
Nuclear contribution   :      6.34474       1.35108       0.23238
                        -----------------------------------------
Total Dipole Moment    :      0.49644       0.31927      -0.02821
                        -----------------------------------------
Magnitude (a.u.)       :      0.59092
Magnitude (Debye)      :      1.50199

Rotational constants in cm-1:     0.270947     0.155857     0.103343
Rotational constants in MHz :  8122.800837  4672.469117  3098.137527

                             ****ORCA TERMINATED NORMALLY****
TOTAL RUN TIME: 0 days 0 hours 8 minutes 25 seconds 5 msec
