                         Program Version 4.2.1 -  RELEASE  -
|  1> %pal
|  2>  nprocs 32
|  3> end
|  4> !RI-MP2 aug-cc-pVQZ aug-cc-pVQZ/C TightSCF
|  5> %maxcore 4500
|  6> *xyzfile 0 1  02_9P.xyz
|  7>
|  8>
|  9>                          ****END OF INPUT****

CARTESIAN COORDINATES (ANGSTROEM)
---------------------------------
  C     -3.363589    0.926032   -0.095798
  C     -1.930701    1.225151   -0.542758
  C     -0.950467    0.215379    0.077930
  C     -1.391543   -1.234260   -0.215504
  C     -3.810088   -0.507316   -0.371585
  H     -1.881282    1.096270   -1.632929
  H     -3.443099    1.119622    0.982795
  H     -4.047176    1.628309   -0.583519
  H     -3.788820   -0.663290   -1.458497
  H     -2.859901   -1.384926    1.348501
  H     -3.107707   -2.514378    0.024654
  C     -2.819978   -1.483530    0.255580
  C      0.514406    0.476399   -0.352821
  C     -0.404833   -2.190076    0.386659
  C      1.335964   -0.834403   -0.645111
  C      0.894005   -1.983811    0.215049
  C     -5.232043   -0.754854    0.117739
  H     -5.556654   -1.774745   -0.102959
  H     -5.939193   -0.067892   -0.353418
  H     -5.299368   -0.610583    1.200321
  C      1.263466    1.342459    0.650893
  O      1.787393    2.376327    0.305193
  C      1.331874    0.894082    2.091593
  C      2.826993   -0.547918   -0.690810
  C      3.649232   -0.926960    0.285711
  H      3.227903   -1.475984    1.122409
  C      5.118390   -0.665075    0.406231
  H      5.323145   -0.046774    1.285659
  H      5.536585   -0.153222   -0.458422
  H      5.667994   -1.600651    0.544409
  C      3.253731    0.251382   -1.891089
  H      4.334495    0.300237   -2.003169
  H      2.881395    1.277201   -1.818957
  H      2.840447   -0.184243   -2.805497
  C     -1.575662    2.673747   -0.216324
  H     -1.576182    2.836409    0.866300
  H     -0.594823    2.963345   -0.592565
  H     -2.314042    3.352742   -0.649108
  H      1.188909   -0.179409    2.204529
  H      0.540962    1.401888    2.650579
  H      2.288370    1.202186    2.510488
  H      1.629991   -2.667582    0.618422
  H     -0.771814   -3.039294    0.954764
  H      1.044609   -1.102283   -1.669522
  H      0.511503    1.054528   -1.277972
  H     -1.019005    0.327694    1.166624
  H     -1.371321   -1.364356   -1.308964

 Total Charge           Charge          ....    0
 Multiplicity           Mult            ....    1
 Number of Electrons    NEL             ....  144
 Basis Dimension        Dim             .... 2808

ORBITAL ENERGIES
----------------

  NO   OCC          E(Eh)            E(eV)
   0   2.0000     -20.530547      -558.6646
   1   2.0000     -11.318761      -307.9992
   2   2.0000     -11.242894      -305.9347
   3   2.0000     -11.235640      -305.7373
   4   2.0000     -11.232154      -305.6424
   5   2.0000     -11.230570      -305.5993
   6   2.0000     -11.229892      -305.5809
   7   2.0000     -11.224571      -305.4361
   8   2.0000     -11.224156      -305.4248
   9   2.0000     -11.223345      -305.4028
  10   2.0000     -11.222032      -305.3670
  11   2.0000     -11.221678      -305.3574
  12   2.0000     -11.219357      -305.2942
  13   2.0000     -11.218616      -305.2741
  14   2.0000     -11.216246      -305.2096
  15   2.0000     -11.214228      -305.1547
  16   2.0000     -11.211959      -305.0929
  17   2.0000     -11.210869      -305.0633
  18   2.0000     -11.205127      -304.9070
  19   2.0000      -1.379444       -37.5366
  20   2.0000      -1.164196       -31.6794
  21   2.0000      -1.121337       -30.5131
  22   2.0000      -1.079872       -29.3848
  23   2.0000      -1.066048       -29.0086
  24   2.0000      -1.025881       -27.9156
  25   2.0000      -1.011880       -27.5346
  26   2.0000      -0.989929       -26.9373
  27   2.0000      -0.969364       -26.3777
  28   2.0000      -0.926598       -25.2140
  29   2.0000      -0.921032       -25.0626
  30   2.0000      -0.893915       -24.3247
  31   2.0000      -0.855310       -23.2742
  32   2.0000      -0.833815       -22.6893
  33   2.0000      -0.789604       -21.4862
  34   2.0000      -0.766179       -20.8488
  35   2.0000      -0.736382       -20.0380
  36   2.0000      -0.729179       -19.8420
  37   2.0000      -0.683758       -18.6060
  38   2.0000      -0.673770       -18.3342
  39   2.0000      -0.658653       -17.9229
  40   2.0000      -0.641135       -17.4462
  41   2.0000      -0.627916       -17.0865
  42   2.0000      -0.620109       -16.8740
  43   2.0000      -0.613649       -16.6983
  44   2.0000      -0.607569       -16.5328
  45   2.0000      -0.600636       -16.3441
  46   2.0000      -0.581707       -15.8290
  47   2.0000      -0.576362       -15.6836
  48   2.0000      -0.567512       -15.4428
  49   2.0000      -0.561995       -15.2927
  50   2.0000      -0.554168       -15.0797
  51   2.0000      -0.549327       -14.9479
  52   2.0000      -0.544136       -14.8067
  53   2.0000      -0.540973       -14.7206
  54   2.0000      -0.532392       -14.4871
  55   2.0000      -0.529553       -14.4099
  56   2.0000      -0.527692       -14.3592
  57   2.0000      -0.523063       -14.2333
  58   2.0000      -0.510647       -13.8954
  59   2.0000      -0.505338       -13.7509
  60   2.0000      -0.493240       -13.4218
  61   2.0000      -0.487448       -13.2641
  62   2.0000      -0.478664       -13.0251
  63   2.0000      -0.469193       -12.7674
  64   2.0000      -0.463532       -12.6134
  65   2.0000      -0.459331       -12.4990
  66   2.0000      -0.450147       -12.2491
  67   2.0000      -0.425481       -11.5779
  68   2.0000      -0.419756       -11.4221
  69   2.0000      -0.392464       -10.6795
  70   2.0000      -0.352253        -9.5853
  71   2.0000      -0.336459        -9.1555
  72   0.0000       0.020348         0.5537
  73   0.0000       0.024132         0.6567
  74   0.0000       0.024815         0.6752
  75   0.0000       0.028123         0.7653
  76   0.0000       0.033019         0.8985

MULLIKEN ATOMIC CHARGES
-----------------------
   0 C :   -0.582883
   1 C :    0.482401
   2 C :    1.026144
   3 C :    0.705729
   4 C :    0.049784
   5 H :    0.029413
   6 H :    0.092682
   7 H :    0.170462
   8 H :    0.124692
   9 H :    0.117538
  10 H :    0.187798
  11 C :   -0.369502
  12 C :   -0.214834
  13 C :   -1.241575
  14 C :    0.630372
  15 C :   -0.364470
  16 C :   -1.111313
  17 H :    0.195200
  18 H :    0.206716
  19 H :    0.159785
  20 C :    2.101333
  21 O :   -1.235463
  22 C :   -1.167936
  23 C :    0.261428
  24 C :   -0.596340
  25 H :    0.181965
  26 C :   -0.947008
  27 H :    0.213522
  28 H :    0.256844
  29 H :    0.297431
  30 C :   -1.116874
  31 H :    0.297438
  32 H :    0.244029
  33 H :    0.211292
  34 C :   -1.214224
  35 H :    0.127581
  36 H :    0.227388
  37 H :    0.137089
  38 H :    0.173479
  39 H :    0.294675
  40 H :    0.160359
  41 H :    0.047728
  42 H :    0.066718
  43 H :    0.639069
  44 H :    0.180017
  45 H :   -0.361865
  46 H :    0.226182
Sum of atomic charges:    0.0000000

LOEWDIN ATOMIC CHARGES
----------------------
   0 C :    0.531101
   1 C :    0.162239
   2 C :    0.159399
   3 C :    0.127577
   4 C :    0.137512
   5 H :   -0.249753
   6 H :   -0.252604
   7 H :   -0.251913
   8 H :   -0.253998
   9 H :   -0.249649
  10 H :   -0.248149
  11 C :    0.530143
  12 C :    0.138607
  13 C :    0.442897
  14 C :    0.103002
  15 C :    0.412849
  16 C :    0.940926
  17 H :   -0.270337
  18 H :   -0.270281
  19 H :   -0.271822
  20 C :   -0.650241
  21 O :    0.806406
  22 C :    0.916550
  23 C :   -0.008969
  24 C :    0.395330
  25 H :   -0.360752
  26 C :    0.925409
  27 H :   -0.281495
  28 H :   -0.331055
  29 H :   -0.283177
  30 C :    0.927451
  31 H :   -0.315646
  32 H :   -0.293387
  33 H :   -0.269921
  34 C :    0.950778
  35 H :   -0.257195
  36 H :   -0.307099
  37 H :   -0.261489
  38 H :   -0.308992
  39 H :   -0.270431
  40 H :   -0.288303
  41 H :   -0.319399
  42 H :   -0.288876
  43 H :   -0.298942
  44 H :   -0.335228
  45 H :   -0.303678
  46 H :   -0.255394

  Mayer bond orders larger than 0.100000
B(  0-C ,  1-C ) :   0.5146 B(  0-C ,  2-C ) :  -0.3022 B(  0-C ,  4-C ) :   0.5325
B(  0-C ,  6-H ) :   1.1530 B(  0-C ,  7-H ) :   1.1317 B(  0-C , 34-C ) :   0.2749
B(  1-C ,  2-C ) :   0.5172 B(  1-C ,  3-C ) :   0.1428 B(  1-C ,  4-C ) :  -0.1512
B(  1-C ,  5-H ) :   1.1976 B(  1-C ,  6-H ) :  -0.1340 B(  1-C ,  7-H ) :  -0.1729
B(  1-C , 12-C ) :   0.1432 B(  1-C , 34-C ) :   0.1821 B(  1-C , 35-H ) :  -0.2660
B(  1-C , 36-H ) :  -0.2069 B(  1-C , 37-H ) :  -0.1745 B(  1-C , 45-H ) :  -0.1691
B(  2-C ,  3-C ) :   0.6439 B(  2-C ,  4-C ) :   0.2525 B(  2-C , 11-C ) :  -0.2655
B(  2-C , 12-C ) :   0.9472 B(  2-C , 13-C ) :   0.1644 B(  2-C , 20-C ) :   0.4166
B(  2-C , 21-O ) :   0.1030 B(  2-C , 22-C ) :  -0.1093 B(  2-C , 34-C ) :  -0.3150
B(  2-C , 38-H ) :  -0.1219 B(  2-C , 45-H ) :   0.8985 B(  3-C ,  4-C ) :  -0.2855
B(  3-C ,  5-H ) :  -0.1297 B(  3-C ,  9-H ) :  -0.1414 B(  3-C , 10-H ) :  -0.1991
B(  3-C , 11-C ) :   0.3768 B(  3-C , 12-C ) :  -0.1337 B(  3-C , 13-C ) :   0.3773
B(  3-C , 14-C ) :   0.3747 B(  3-C , 15-C ) :  -0.2449 B(  3-C , 46-H ) :   1.1067
B(  4-C ,  7-H ) :  -0.1261 B(  4-C ,  8-H ) :   1.1532 B(  4-C , 10-H ) :  -0.1136
B(  4-C , 11-C ) :   0.6727 B(  4-C , 16-C ) :   0.4923 B(  4-C , 17-H ) :  -0.1424
B(  4-C , 18-H ) :  -0.1498 B(  4-C , 19-H ) :  -0.1848 B(  5-H , 12-C ) :  -0.1090
B(  9-H , 11-C ) :   1.1703 B( 10-H , 11-C ) :   1.1940 B( 11-C , 13-C ) :  -0.2261
B( 11-C , 46-H ) :  -0.1244 B( 12-C , 13-C ) :  -0.2716 B( 12-C , 14-C ) :   0.6867
B( 12-C , 15-C ) :  -0.1685 B( 12-C , 20-C ) :   0.8225 B( 12-C , 21-O ) :   0.1554
B( 12-C , 22-C ) :   0.2190 B( 12-C , 24-C ) :   0.1059 B( 12-C , 30-C ) :   0.1388
B( 12-C , 43-H ) :   0.1258 B( 12-C , 44-H ) :   1.0406 B( 13-C , 14-C ) :  -0.2295
B( 13-C , 15-C ) :   0.8984 B( 13-C , 41-H ) :  -0.3222 B( 13-C , 42-H ) :   1.4374
B( 13-C , 45-H ) :   0.1943 B( 14-C , 15-C ) :   0.8742 B( 14-C , 23-C ) :   0.1829
B( 14-C , 24-C ) :  -0.3885 B( 14-C , 30-C ) :  -0.1376 B( 14-C , 32-H ) :   0.1506
B( 14-C , 41-H ) :  -0.1051 B( 14-C , 43-H ) :   0.6171 B( 15-C , 41-H ) :   1.4067
B( 15-C , 42-H ) :  -0.4036 B( 15-C , 43-H ) :  -0.3270 B( 15-C , 45-H ) :   0.1766
B( 15-C , 46-H ) :  -0.1301 B( 16-C , 17-H ) :   1.1357 B( 16-C , 18-H ) :   1.1364
B( 16-C , 19-H ) :   1.1165 B( 20-C , 22-C ) :   0.3410 B( 20-C , 44-H ) :   0.1539
B( 21-O , 22-C ) :   0.1983 B( 22-C , 38-H ) :   1.1312 B( 22-C , 39-H ) :   0.9595
B( 22-C , 40-H ) :   1.1387 B( 23-C , 24-C ) :   1.3018 B( 23-C , 28-H ) :   0.1020
B( 23-C , 30-C ) :   0.5737 B( 23-C , 31-H ) :  -0.1307 B( 23-C , 32-H ) :  -0.1998
B( 23-C , 33-H ) :  -0.1027 B( 23-C , 43-H ) :  -0.1154 B( 24-C , 25-H ) :   1.1504
B( 24-C , 26-C ) :   0.5172 B( 24-C , 27-H ) :  -0.2023 B( 24-C , 29-H ) :  -0.1525
B( 26-C , 27-H ) :   1.1023 B( 26-C , 28-H ) :   1.0037 B( 26-C , 29-H ) :   1.0255
B( 30-C , 31-H ) :   1.0632 B( 30-C , 32-H ) :   1.0045 B( 30-C , 33-H ) :   1.1171
B( 34-C , 35-H ) :   1.2148 B( 34-C , 36-H ) :   1.1368 B( 34-C , 37-H ) :   1.2039

MP2 TOTAL ENERGY:     -776.580296069 Eh
FINAL SINGLE POINT ENERGY      -776.580296069192

DIPOLE MOMENT
-------------
                                X             Y             Z
Electronic contribution:      6.19973      -0.69372      -0.68172
Nuclear contribution   :     -6.77703      -0.24064       0.79939
                        -----------------------------------------
Total Dipole Moment    :     -0.57731      -0.93436       0.11766
                        -----------------------------------------
Magnitude (a.u.)       :      1.10461
Magnitude (Debye)      :      2.80769

Rotational constants in cm-1:     0.024514     0.007758     0.006764
Rotational constants in MHz :   734.914516   232.593064   202.769088

                             ****ORCA TERMINATED NORMALLY****
TOTAL RUN TIME: 0 days 11 hours 43 minutes 23 seconds 475 msec
