                         Program Version 4.2.1 -  RELEASE  -
|  1> %pal
|  2>  nprocs 32
|  3> end
|  4> !RI-MP2 aug-cc-pVQZ aug-cc-pVQZ/C TightSCF
|  5> %maxcore 4500
|  6> *xyzfile 0 1  02_32R2.xyz
|  7>
|  8>
|  9>                          ****END OF INPUT****

CARTESIAN COORDINATES (ANGSTROEM)
---------------------------------
  C      0.907898    0.813593   -0.000007
  C     -0.154084    0.087446    0.000015
  C      1.142448   -0.673532   -0.000001
  H      1.477833   -1.168206    0.912491
  H      1.477797   -1.168219   -0.912499
  C     -1.618202   -0.071480   -0.000003
  H     -2.125321    0.894336   -0.000146
  H     -1.938782   -0.637241   -0.878701
  H     -1.938834   -0.636999    0.878833
  H      1.378950    1.780174    0.000000

 Total Charge           Charge          ....    0
 Multiplicity           Mult            ....    1
 Number of Electrons    NEL             ....   30
 Basis Dimension        Dim             ....  596

ORBITAL ENERGIES
----------------

  NO   OCC          E(Eh)            E(eV)
   0   2.0000     -11.241542      -305.8979
   1   2.0000     -11.235047      -305.7212
   2   2.0000     -11.227765      -305.5230
   3   2.0000     -11.227148      -305.5062
   4   2.0000      -1.158298       -31.5189
   5   2.0000      -0.987556       -26.8728
   6   2.0000      -0.812395       -22.1064
   7   2.0000      -0.724740       -19.7212
   8   2.0000      -0.633904       -17.2494
   9   2.0000      -0.605036       -16.4639
  10   2.0000      -0.588198       -16.0057
  11   2.0000      -0.559255       -15.2181
  12   2.0000      -0.470783       -12.8107
  13   2.0000      -0.405715       -11.0401
  14   2.0000      -0.343642        -9.3510
  15   0.0000       0.026603         0.7239
  16   0.0000       0.031307         0.8519
  17   0.0000       0.035521         0.9666
  18   0.0000       0.038687         1.0527
  19   0.0000       0.053328         1.4511

MULLIKEN ATOMIC CHARGES
-----------------------
   0 C :   -0.768256
   1 C :    0.108346
   2 C :   -0.511674
   3 H :    0.312397
   4 H :    0.312408
   5 C :   -0.547075
   6 H :    0.217422
   7 H :    0.233787
   8 H :    0.233793
   9 H :    0.408851
Sum of atomic charges:    0.0000000

LOEWDIN ATOMIC CHARGES
----------------------
   0 C :    0.446933
   1 C :   -0.016836
   2 C :    0.520665
   3 H :   -0.324514
   4 H :   -0.324514
   5 C :    0.924588
   6 H :   -0.304666
   7 H :   -0.302419
   8 H :   -0.302417
   9 H :   -0.316821

  Mayer bond orders larger than 0.100000
B(  0-C ,  1-C ) :   1.6780 B(  0-C ,  2-C ) :   1.0448 B(  0-C ,  9-H ) :   0.8523
B(  1-C ,  2-C ) :   0.8326 B(  1-C ,  5-C ) :   0.6221 B(  2-C ,  3-H ) :   0.8690
B(  2-C ,  4-H ) :   0.8690 B(  5-C ,  6-H ) :   1.0243 B(  5-C ,  7-H ) :   0.9795
B(  5-C ,  8-H ) :   0.9795

MP2 TOTAL ENERGY:     -155.638203034 Eh
FINAL SINGLE POINT ENERGY      -155.638203033631

DIPOLE MOMENT
-------------
                                X             Y             Z
Electronic contribution:      1.39826       1.09615       0.00002
Nuclear contribution   :     -1.73776      -0.97510      -0.00002
                        -----------------------------------------
Total Dipole Moment    :     -0.33950       0.12105       0.00000
                        -----------------------------------------
Magnitude (a.u.)       :      0.36043
Magnitude (Debye)      :      0.91615

Rotational constants in cm-1:     0.692613     0.213517     0.174112
Rotational constants in MHz : 20764.013814  6401.083952  5219.756912

                             ****ORCA TERMINATED NORMALLY****
TOTAL RUN TIME: 0 days 0 hours 3 minutes 54 seconds 221 msec
