                         Program Version 4.2.1 -  RELEASE  -
|  1> %pal
|  2>  nprocs 32
|  3> end
|  4> !RI-MP2 aug-cc-pVQZ aug-cc-pVQZ/C TightSCF
|  5> %maxcore 4500
|  6> *xyzfile 0 1  02_6P.xyz
|  7>
|  8>
|  9>                          ****END OF INPUT****

CARTESIAN COORDINATES (ANGSTROEM)
---------------------------------
  C     -1.713542   -1.620539   -0.092079
  C     -3.056674   -0.911449    0.193453
  C     -2.810151    0.586945   -0.094344
  C     -1.313243    0.706089   -0.021438
  C     -0.722617   -0.491630   -0.022205
  H     -1.501410   -2.415315    0.627634
  H     -1.695350   -2.081695   -1.086238
  H     -3.312208   -1.036490    1.247514
  H     -3.881204   -1.320818   -0.390830
  H     -3.162460    0.876358   -1.092083
  H     -3.323279    1.240208    0.617033
  C      0.720045   -0.551117   -0.009634
  C     -0.558789    1.996101   -0.007099
  C      1.603093   -1.555029   -0.021639
  C      3.029620   -1.068499   -0.001440
  H      3.574723   -1.413324   -0.885261
  H      3.569174   -1.464114    0.864113
  C      2.910041    0.471178    0.041496
  H      3.351741    0.896779    0.943639
  H      3.393437    0.953245   -0.809033
  C      1.422541    0.749454    0.018123
  N      0.897227    1.900664    0.019298
  H     -0.867284    2.599527    0.855983
  H     -0.835855    2.599548   -0.881199
  H      1.347440   -2.607577   -0.045513

 Total Charge           Charge          ....    0
 Multiplicity           Mult            ....    1
 Number of Electrons    NEL             ....   86
 Basis Dimension        Dim             .... 1558

ORBITAL ENERGIES
----------------

  NO   OCC          E(Eh)            E(eV)
   0   2.0000     -15.534992      -422.7286
   1   2.0000     -11.268193      -306.6231
   2   2.0000     -11.249658      -306.1188
   3   2.0000     -11.236640      -305.7645
   4   2.0000     -11.231684      -305.6296
   5   2.0000     -11.230890      -305.6081
   6   2.0000     -11.227769      -305.5231
   7   2.0000     -11.226029      -305.4758
   8   2.0000     -11.224681      -305.4391
   9   2.0000     -11.222912      -305.3910
  10   2.0000     -11.222757      -305.3867
  11   2.0000     -11.221006      -305.3391
  12   2.0000      -1.237647       -33.6781
  13   2.0000      -1.142552       -31.0904
  14   2.0000      -1.124493       -30.5990
  15   2.0000      -1.017461       -27.6865
  16   2.0000      -0.995998       -27.1025
  17   2.0000      -0.946200       -25.7474
  18   2.0000      -0.938094       -25.5268
  19   2.0000      -0.865507       -23.5516
  20   2.0000      -0.808872       -22.0105
  21   2.0000      -0.760026       -20.6814
  22   2.0000      -0.755107       -20.5475
  23   2.0000      -0.688193       -18.7267
  24   2.0000      -0.648456       -17.6454
  25   2.0000      -0.632263       -17.2048
  26   2.0000      -0.628639       -17.1061
  27   2.0000      -0.608409       -16.5557
  28   2.0000      -0.593479       -16.1494
  29   2.0000      -0.579451       -15.7677
  30   2.0000      -0.556435       -15.1414
  31   2.0000      -0.534597       -14.5471
  32   2.0000      -0.516670       -14.0593
  33   2.0000      -0.508514       -13.8374
  34   2.0000      -0.503144       -13.6912
  35   2.0000      -0.492547       -13.4029
  36   2.0000      -0.488869       -13.3028
  37   2.0000      -0.484464       -13.1829
  38   2.0000      -0.481575       -13.1043
  39   2.0000      -0.448691       -12.2095
  40   2.0000      -0.378747       -10.3062
  41   2.0000      -0.374929       -10.2023
  42   2.0000      -0.293927        -7.9982
  43   0.0000       0.023919         0.6509
  44   0.0000       0.026504         0.7212
  45   0.0000       0.030744         0.8366
  46   0.0000       0.032509         0.8846
  47   0.0000       0.039270         1.0686

MULLIKEN ATOMIC CHARGES
-----------------------
   0 C :   -0.664250
   1 C :   -0.553169
   2 C :   -0.550904
   3 C :   -0.036233
   4 C :    0.701163
   5 H :    0.211371
   6 H :    0.230904
   7 H :    0.213439
   8 H :    0.279072
   9 H :    0.239268
  10 H :    0.223461
  11 C :    0.128213
  12 C :   -0.093612
  13 C :   -0.686081
  14 C :   -0.513166
  15 H :    0.222438
  16 H :    0.211544
  17 C :   -0.560037
  18 H :    0.244083
  19 H :    0.248279
  20 C :    0.762315
  21 N :   -1.027358
  22 H :    0.245459
  23 H :    0.226410
  24 H :    0.297391
Sum of atomic charges:    0.0000000

LOEWDIN ATOMIC CHARGES
----------------------
   0 C :    0.525007
   1 C :    0.536260
   2 C :    0.535319
   3 C :   -0.028139
   4 C :   -0.040701
   5 H :   -0.264499
   6 H :   -0.258069
   7 H :   -0.267884
   8 H :   -0.257750
   9 H :   -0.257275
  10 H :   -0.261417
  11 C :   -0.048374
  12 C :    0.291988
  13 C :    0.423824
  14 C :    0.509115
  15 H :   -0.273067
  16 H :   -0.273184
  17 C :    0.504578
  18 H :   -0.269458
  19 H :   -0.269746
  20 C :   -0.330316
  21 N :    0.667557
  22 H :   -0.305159
  23 H :   -0.303617
  24 H :   -0.284993

  Mayer bond orders larger than 0.100000
B(  0-C ,  1-C ) :   1.0804 B(  0-C ,  3-C ) :  -0.1029 B(  0-C ,  4-C ) :   0.6088
B(  0-C ,  5-H ) :   1.0839 B(  0-C ,  6-H ) :   0.9356 B(  1-C ,  2-C ) :   1.1108
B(  1-C ,  3-C ) :  -0.1378 B(  1-C ,  7-H ) :   0.9599 B(  1-C ,  8-H ) :   0.9447
B(  2-C ,  3-C ) :   0.5793 B(  2-C ,  4-C ) :  -0.1582 B(  2-C ,  9-H ) :   0.9117
B(  2-C , 10-H ) :   1.0452 B(  3-C ,  4-C ) :   1.2199 B(  3-C , 10-H ) :  -0.1213
B(  3-C , 11-C ) :  -0.1789 B(  3-C , 12-C ) :   0.9285 B(  3-C , 13-C ) :   0.1086
B(  3-C , 21-N ) :   0.1821 B(  4-C ,  5-H ) :  -0.1387 B(  4-C , 12-C ) :  -0.2993
B(  4-C , 13-C ) :  -0.3067 B(  4-C , 20-C ) :  -0.3202 B(  4-C , 21-N ) :  -0.1006
B( 11-C , 12-C ) :   0.1833 B( 11-C , 13-C ) :   1.0421 B( 11-C , 14-C ) :  -0.2956
B( 11-C , 20-C ) :   0.5412 B( 11-C , 21-N ) :   0.4521 B( 11-C , 24-H ) :  -0.1832
B( 12-C , 20-C ) :  -0.1127 B( 12-C , 21-N ) :   0.7242 B( 12-C , 22-H ) :   0.9493
B( 12-C , 23-H ) :   0.9565 B( 13-C , 14-C ) :   1.0396 B( 13-C , 20-C ) :   0.1437
B( 13-C , 24-H ) :   1.0244 B( 14-C , 15-H ) :   0.9824 B( 14-C , 16-H ) :   1.0101
B( 14-C , 17-C ) :   1.1303 B( 14-C , 20-C ) :  -0.1198 B( 17-C , 18-H ) :   0.9536
B( 17-C , 19-H ) :   0.9672 B( 17-C , 20-C ) :   0.6533 B( 20-C , 21-N ) :   0.7560

MP2 TOTAL ENERGY:     -480.846319943 Eh
FINAL SINGLE POINT ENERGY      -480.846319942840

DIPOLE MOMENT
-------------
                                X             Y             Z
Electronic contribution:      3.09731       2.38801      -0.00334
Nuclear contribution   :     -3.38510      -3.20784      -0.03462
                        -----------------------------------------
Total Dipole Moment    :     -0.28779      -0.81983      -0.03796
                        -----------------------------------------
Magnitude (a.u.)       :      0.86970
Magnitude (Debye)      :      2.21061

Rotational constants in cm-1:     0.064649     0.025069     0.018469
Rotational constants in MHz :  1938.115761   751.538558   553.678317

                             ****ORCA TERMINATED NORMALLY****
TOTAL RUN TIME: 0 days 1 hours 54 minutes 28 seconds 417 msec
