                         Program Version 4.2.1 -  RELEASE  -
|  1> %pal
|  2>  nprocs 32
|  3> end
|  4> !RI-MP2 aug-cc-pVQZ aug-cc-pVQZ/C TightSCF
|  5> %maxcore 4500
|  6> *xyzfile 1 1  10_12TS.xyz
|  7>
|  8>
|  9>                          ****END OF INPUT****

CARTESIAN COORDINATES (ANGSTROEM)
---------------------------------
  C      2.006923   -1.077392    0.030090
  N      0.689198   -0.905608   -0.028744
  N     -0.019978    0.059216   -0.215865
  C     -1.416552   -0.053792   -0.107389
  C     -2.128204    1.111609   -0.382552
  C     -2.067876   -1.235835    0.256020
  C     -3.509875    1.098010   -0.294002
  H     -1.591624    2.008816   -0.663337
  C     -3.444212   -1.236309    0.341130
  H     -1.495139   -2.130757    0.462924
  C     -4.162979   -0.072356    0.066983
  H     -4.076074    1.995317   -0.505957
  H     -3.967862   -2.141409    0.620198
  H     -5.243630   -0.084126    0.136234
  C      2.584321   -1.111440    1.416451
  H      2.188247   -0.308331    2.036022
  H      2.321172   -2.066198    1.880547
  H      3.670142   -1.052995    1.372571
  C      2.607903   -1.962473   -1.020242
  H      2.150180   -1.803002   -1.994847
  H      3.681890   -1.794318   -1.079529
  H      2.450649   -3.004833   -0.726996
  C      2.840486    0.910740   -0.751729
  C      1.895077    1.829998   -0.447904
  H      3.690122    0.774462   -0.092939
  H      2.952432    0.575030   -1.774566
  C      1.803054    2.553065    0.848885
  H      2.493375    2.157418    1.594161
  H      2.051993    3.606797    0.687684
  H      0.787637    2.532915    1.249487
  H      1.203554    2.137011   -1.223834

 Total Charge           Charge          ....    1
 Multiplicity           Mult            ....    1
 Number of Electrons    NEL             ....  102
 Basis Dimension        Dim             .... 1902

ORBITAL ENERGIES
----------------

  NO   OCC          E(Eh)            E(eV)
   0   2.0000     -15.818702      -430.4488
   1   2.0000     -15.805737      -430.0960
   2   2.0000     -11.523420      -313.5682
   3   2.0000     -11.409744      -310.4749
   4   2.0000     -11.403482      -310.3045
   5   2.0000     -11.393281      -310.0269
   6   2.0000     -11.391473      -309.9777
   7   2.0000     -11.374913      -309.5271
   8   2.0000     -11.372388      -309.4584
   9   2.0000     -11.365826      -309.2799
  10   2.0000     -11.360334      -309.1304
  11   2.0000     -11.357947      -309.0655
  12   2.0000     -11.356404      -309.0235
  13   2.0000     -11.356197      -309.0178
  14   2.0000      -1.573985       -42.8303
  15   2.0000      -1.334995       -36.3271
  16   2.0000      -1.278790       -34.7976
  17   2.0000      -1.219153       -33.1748
  18   2.0000      -1.184297       -32.2264
  19   2.0000      -1.152939       -31.3731
  20   2.0000      -1.127345       -30.6766
  21   2.0000      -1.103314       -30.0227
  22   2.0000      -1.080054       -29.3898
  23   2.0000      -0.996669       -27.1208
  24   2.0000      -0.964345       -26.2412
  25   2.0000      -0.914223       -24.8773
  26   2.0000      -0.890004       -24.2182
  27   2.0000      -0.854119       -23.2418
  28   2.0000      -0.830697       -22.6044
  29   2.0000      -0.808471       -21.9996
  30   2.0000      -0.807537       -21.9742
  31   2.0000      -0.787035       -21.4163
  32   2.0000      -0.764371       -20.7996
  33   2.0000      -0.744909       -20.2700
  34   2.0000      -0.739708       -20.1285
  35   2.0000      -0.727695       -19.8016
  36   2.0000      -0.720171       -19.5968
  37   2.0000      -0.716923       -19.5085
  38   2.0000      -0.712648       -19.3921
  39   2.0000      -0.707520       -19.2526
  40   2.0000      -0.700575       -19.0636
  41   2.0000      -0.683715       -18.6048
  42   2.0000      -0.662514       -18.0279
  43   2.0000      -0.646345       -17.5879
  44   2.0000      -0.642563       -17.4850
  45   2.0000      -0.628931       -17.1141
  46   2.0000      -0.618941       -16.8422
  47   2.0000      -0.558495       -15.1974
  48   2.0000      -0.503975       -13.7138
  49   2.0000      -0.469106       -12.7650
  50   2.0000      -0.466532       -12.6950
  51   0.0000      -0.097631        -2.6567
  52   0.0000      -0.084861        -2.3092
  53   0.0000      -0.065848        -1.7918
  54   0.0000      -0.055767        -1.5175
  55   0.0000      -0.053828        -1.4647

MULLIKEN ATOMIC CHARGES
-----------------------
   0 C :    1.727089
   1 N :   -0.531596
   2 N :   -0.586688
   3 C :    1.153012
   4 C :   -0.443043
   5 C :   -0.507033
   6 C :   -0.360408
   7 H :    0.347973
   8 C :   -0.291331
   9 H :    0.280515
  10 C :   -0.472147
  11 H :    0.271018
  12 H :    0.316513
  13 H :    0.309642
  14 C :   -1.126969
  15 H :    0.317493
  16 H :    0.356909
  17 H :    0.327758
  18 C :   -1.130927
  19 H :    0.285657
  20 H :    0.311577
  21 H :    0.349053
  22 C :   -0.840985
  23 C :   -0.068918
  24 H :    0.345644
  25 H :    0.270972
  26 C :   -0.929253
  27 H :    0.256751
  28 H :    0.360227
  29 H :    0.252252
  30 H :    0.449242
Sum of atomic charges:    1.0000000

LOEWDIN ATOMIC CHARGES
----------------------
   0 C :   -0.298406
   1 N :    0.412736
   2 N :    0.399889
   3 C :   -0.317567
   4 C :    0.324550
   5 C :    0.341107
   6 C :    0.376084
   7 H :   -0.314146
   8 C :    0.376858
   9 H :   -0.318104
  10 C :    0.375555
  11 H :   -0.308193
  12 H :   -0.307680
  13 H :   -0.300265
  14 C :    0.949075
  15 H :   -0.275472
  16 H :   -0.246747
  17 H :   -0.271902
  18 C :    0.947190
  19 H :   -0.265401
  20 H :   -0.272354
  21 H :   -0.248607
  22 C :    0.724770
  23 C :    0.363110
  24 H :   -0.332433
  25 H :   -0.318282
  26 C :    0.937625
  27 H :   -0.295490
  28 H :   -0.266238
  29 H :   -0.280850
  30 H :   -0.290414

  Mayer bond orders larger than 0.100000
B(  0-C ,  1-N ) :   0.5033 B(  0-C ,  2-N ) :  -0.2717 B(  0-C ,  5-C ) :  -0.1098
B(  0-C , 14-C ) :   0.5096 B(  0-C , 15-H ) :  -0.1660 B(  0-C , 18-C ) :   0.3414
B(  0-C , 19-H ) :  -0.1691 B(  0-C , 21-H ) :  -0.1146 B(  0-C , 22-C ) :   0.2367
B(  0-C , 23-C ) :   0.1502 B(  1-N ,  2-N ) :   1.1311 B(  1-N ,  5-C ) :   0.1008
B(  1-N ,  9-H ) :   0.1004 B(  2-N ,  3-C ) :   0.9563 B(  2-N ,  4-C ) :   0.1708
B(  2-N , 10-C ) :   0.1106 B(  3-C ,  4-C ) :   0.8011 B(  3-C ,  5-C ) :   0.7594
B(  3-C ,  6-C ) :  -0.4656 B(  3-C ,  8-C ) :  -0.3899 B(  3-C , 10-C ) :  -0.1733
B(  4-C ,  6-C ) :   1.3020 B(  4-C ,  7-H ) :   0.8644 B(  4-C , 11-H ) :  -0.1215
B(  5-C ,  6-C ) :   0.1237 B(  5-C ,  8-C ) :   1.2139 B(  5-C ,  9-H ) :   0.9744
B(  5-C , 10-C ) :   0.1500 B(  5-C , 12-H ) :  -0.1676 B(  6-C , 10-C ) :   1.1911
B(  6-C , 11-H ) :   1.1158 B(  8-C , 10-C ) :   1.1065 B(  8-C , 12-H ) :   1.0845
B(  8-C , 13-H ) :  -0.1107 B( 10-C , 11-H ) :  -0.1068 B( 10-C , 13-H ) :   1.0542
B( 14-C , 15-H ) :   1.0099 B( 14-C , 16-H ) :   0.8803 B( 14-C , 17-H ) :   0.9572
B( 14-C , 18-C ) :   0.1038 B( 18-C , 19-H ) :   1.0457 B( 18-C , 20-H ) :   0.9752
B( 18-C , 21-H ) :   0.9199 B( 22-C , 23-C ) :   1.6706 B( 22-C , 24-H ) :   0.8775
B( 22-C , 25-H ) :   1.0194 B( 22-C , 26-C ) :   0.1066 B( 23-C , 26-C ) :   0.7162
B( 23-C , 30-H ) :   0.7464 B( 26-C , 27-H ) :   0.9564 B( 26-C , 28-H ) :   0.9013
B( 26-C , 29-H ) :   0.9885

MP2 TOTAL ENERGY:     -575.635132624 Eh
FINAL SINGLE POINT ENERGY      -575.635132624313

DIPOLE MOMENT
-------------
                                X             Y             Z
Electronic contribution:    -11.99124      -1.86776      -1.85071
Nuclear contribution   :     13.56262       1.42752       2.01982
                        -----------------------------------------
Total Dipole Moment    :      1.57138      -0.44024       0.16911
                        -----------------------------------------
Magnitude (a.u.)       :      1.64062
Magnitude (Debye)      :      4.17014

Rotational constants in cm-1:     0.038696     0.013397     0.011080
Rotational constants in MHz :  1160.076969   401.631820   332.164175

                             ****ORCA TERMINATED NORMALLY****
TOTAL RUN TIME: 0 days 3 hours 34 minutes 39 seconds 275 msec
