                         Program Version 4.2.1 -  RELEASE  -
|  1> %pal
|  2>  nprocs 32
|  3> end
|  4> !RI-MP2 aug-cc-pVQZ aug-cc-pVQZ/C TightSCF
|  5> %maxcore 4500
|  6> *xyzfile 0 1  03_37P2.xyz
|  7>
|  8>
|  9>                          ****END OF INPUT****

CARTESIAN COORDINATES (ANGSTROEM)
---------------------------------
  C      1.162747   -0.032666   -0.370986
  C      2.004167    0.647188    0.688335
  C     -0.298586    0.357261   -0.238455
  O     -0.674749    1.477515   -0.464326
  O     -1.079498   -0.635969    0.162470
  C     -2.467200   -0.312531    0.317877
  H      3.053448    0.390423    0.543754
  H      1.695500    0.320259    1.682684
  H      1.887014    1.728486    0.615859
  H     -2.945084   -1.233035    0.640147
  H     -2.883179    0.027710   -0.629826
  H     -2.590798    0.470349    1.065512
  F      1.325688   -1.406393   -0.278969
  H      1.479121    0.265465   -1.373181

 Total Charge           Charge          ....    0
 Multiplicity           Mult            ....    1
 Number of Electrons    NEL             ....   56
 Basis Dimension        Dim             ....  882

ORBITAL ENERGIES
----------------

  NO   OCC          E(Eh)            E(eV)
   0   2.0000     -26.285705      -715.2704
   1   2.0000     -20.613111      -560.9113
   2   2.0000     -20.551099      -559.2238
   3   2.0000     -11.387240      -309.8625
   4   2.0000     -11.334986      -308.4406
   5   2.0000     -11.291958      -307.2698
   6   2.0000     -11.238004      -305.8016
   7   2.0000      -1.601055       -43.5669
   8   2.0000      -1.476892       -40.1883
   9   2.0000      -1.373384       -37.3717
  10   2.0000      -1.072411       -29.1818
  11   2.0000      -0.989809       -26.9341
  12   2.0000      -0.898738       -24.4559
  13   2.0000      -0.791717       -21.5437
  14   2.0000      -0.747604       -20.3433
  15   2.0000      -0.725151       -19.7324
  16   2.0000      -0.696839       -18.9620
  17   2.0000      -0.676297       -18.4030
  18   2.0000      -0.660477       -17.9725
  19   2.0000      -0.629271       -17.1233
  20   2.0000      -0.599097       -16.3023
  21   2.0000      -0.572629       -15.5820
  22   2.0000      -0.558005       -15.1841
  23   2.0000      -0.550330       -14.9752
  24   2.0000      -0.531145       -14.4532
  25   2.0000      -0.513955       -13.9854
  26   2.0000      -0.471053       -12.8180
  27   2.0000      -0.455744       -12.4014
  28   0.0000       0.026249         0.7143
  29   0.0000       0.029951         0.8150
  30   0.0000       0.034745         0.9454
  31   0.0000       0.041368         1.1257
  32   0.0000       0.049826         1.3558

MULLIKEN ATOMIC CHARGES
-----------------------
   0 C :    0.597003
   1 C :   -0.889816
   2 C :    0.960755
   3 O :   -0.818518
   4 O :   -0.635589
   5 C :   -0.709322
   6 H :    0.305835
   7 H :    0.264913
   8 H :    0.256711
   9 H :    0.407653
  10 H :    0.323610
  11 H :    0.302053
  12 F :   -0.750203
  13 H :    0.384913
Sum of atomic charges:    0.0000000

LOEWDIN ATOMIC CHARGES
----------------------
   0 C :   -0.524444
   1 C :    0.884143
   2 C :   -1.135690
   3 O :    0.725742
   4 O :    0.840883
   5 C :    0.585886
   6 H :   -0.287508
   7 H :   -0.285095
   8 H :   -0.294307
   9 H :   -0.320257
  10 H :   -0.314144
  11 H :   -0.313450
  12 F :    0.786882
  13 H :   -0.348640

  Mayer bond orders larger than 0.100000
B(  0-C ,  1-C ) :   0.9673 B(  0-C ,  2-C ) :   0.9506 B(  0-C , 12-F ) :   0.3183
B(  0-C , 13-H ) :   0.7766 B(  1-C ,  6-H ) :   0.9265 B(  1-C ,  7-H ) :   0.9049
B(  1-C ,  8-H ) :   0.9361 B(  2-C ,  3-O ) :   1.3517 B(  2-C ,  4-O ) :   0.9440
B(  4-O ,  5-C ) :   0.8625 B(  5-C ,  9-H ) :   0.8515 B(  5-C , 10-H ) :   0.9039
B(  5-C , 11-H ) :   0.9142

MP2 TOTAL ENERGY:     -406.402148791 Eh
FINAL SINGLE POINT ENERGY      -406.402148791037

DIPOLE MOMENT
-------------
                                X             Y             Z
Electronic contribution:      1.51651      -3.32093      -2.53211
Nuclear contribution   :     -1.62658       3.34250       2.79118
                        -----------------------------------------
Total Dipole Moment    :     -0.11007       0.02157       0.25907
                        -----------------------------------------
Magnitude (a.u.)       :      0.28230
Magnitude (Debye)      :      0.71756

Rotational constants in cm-1:     0.149158     0.064236     0.050827
Rotational constants in MHz :  4471.646453  1925.748276  1523.757393

                             ****ORCA TERMINATED NORMALLY****
TOTAL RUN TIME: 0 days 0 hours 14 minutes 36 seconds 870 msec
