                         Program Version 4.2.1 -  RELEASE  -
|  1> %pal
|  2>  nprocs 32
|  3> end
|  4> !RI-MP2 aug-cc-pVQZ aug-cc-pVQZ/C TightSCF
|  5> %maxcore 4500
|  6> *xyzfile 0 1  02_25TS.xyz
|  7>
|  8>
|  9>                          ****END OF INPUT****

CARTESIAN COORDINATES (ANGSTROEM)
---------------------------------
  C     -1.209803    1.054318    0.199872
  C     -0.151751   -0.784617    0.274601
  C      1.051311   -0.578936    0.981984
  C      1.479771    1.668140    0.866325
  C      0.927812    2.066263   -0.329092
  C     -0.409994    1.800550   -0.643323
  C     -2.590062    0.563793   -0.148915
  C     -2.564514   -0.977997   -0.215523
  C     -1.426991   -1.471313    0.673489
  H      1.271980   -0.633771    2.041126
  H      2.549845    1.728412    1.020895
  H      1.584687    2.402136   -1.124025
  H     -0.753368    1.994537   -1.655408
  H     -3.298887    0.890804    0.616535
  H     -2.363662   -1.292499   -1.243779
  H     -1.641961   -1.273486    1.728183
  C      0.592720   -1.036505   -1.047241
  H      0.439895   -2.014889   -1.509299
  H      0.497889   -0.250884   -1.802053
  C      1.866463   -0.948083   -0.188818
  O      3.025382   -1.185410   -0.398043
  H      0.881823    1.647501    1.766520
  H     -1.015004    1.134232    1.262833
  H     -2.925668    0.986864   -1.098028
  H     -3.522900   -1.415680    0.070425
  H     -1.297498   -2.553682    0.570274

 Total Charge           Charge          ....    0
 Multiplicity           Mult            ....    1
 Number of Electrons    NEL             ....   88
 Basis Dimension        Dim             .... 1604

ORBITAL ENERGIES
----------------

  NO   OCC          E(Eh)            E(eV)
   0   2.0000     -20.519988      -558.3773
   1   2.0000     -11.314303      -307.8778
   2   2.0000     -11.268145      -306.6218
   3   2.0000     -11.255151      -306.2682
   4   2.0000     -11.246807      -306.0412
   5   2.0000     -11.242533      -305.9249
   6   2.0000     -11.241442      -305.8952
   7   2.0000     -11.237410      -305.7855
   8   2.0000     -11.235589      -305.7359
   9   2.0000     -11.234058      -305.6943
  10   2.0000     -11.231335      -305.6202
  11   2.0000     -11.230205      -305.5894
  12   2.0000      -1.367411       -37.2091
  13   2.0000      -1.172600       -31.9081
  14   2.0000      -1.112465       -30.2717
  15   2.0000      -1.087850       -29.6019
  16   2.0000      -1.002739       -27.2859
  17   2.0000      -0.951673       -25.8963
  18   2.0000      -0.920878       -25.0584
  19   2.0000      -0.872131       -23.7319
  20   2.0000      -0.809742       -22.0342
  21   2.0000      -0.764881       -20.8135
  22   2.0000      -0.740108       -20.1394
  23   2.0000      -0.705916       -19.2089
  24   2.0000      -0.677935       -18.4476
  25   2.0000      -0.654576       -17.8119
  26   2.0000      -0.652287       -17.7496
  27   2.0000      -0.628868       -17.1124
  28   2.0000      -0.620813       -16.8932
  29   2.0000      -0.600810       -16.3489
  30   2.0000      -0.597034       -16.2461
  31   2.0000      -0.566229       -15.4079
  32   2.0000      -0.557017       -15.1572
  33   2.0000      -0.533209       -14.5093
  34   2.0000      -0.518296       -14.1036
  35   2.0000      -0.501468       -13.6456
  36   2.0000      -0.498781       -13.5725
  37   2.0000      -0.490796       -13.3552
  38   2.0000      -0.484704       -13.1895
  39   2.0000      -0.471690       -12.8353
  40   2.0000      -0.461036       -12.5454
  41   2.0000      -0.386670       -10.5218
  42   2.0000      -0.319277        -8.6880
  43   2.0000      -0.316022        -8.5994
  44   0.0000       0.018515         0.5038
  45   0.0000       0.024820         0.6754
  46   0.0000       0.028155         0.7661
  47   0.0000       0.030605         0.8328
  48   0.0000       0.039937         1.0867

MULLIKEN ATOMIC CHARGES
-----------------------
   0 C :    0.203633
   1 C :    1.240942
   2 C :   -0.761377
   3 C :   -0.650221
   4 C :   -0.345155
   5 C :   -0.350054
   6 C :   -0.561367
   7 C :   -0.578446
   8 C :   -0.699599
   9 H :    0.171631
  10 H :    0.313513
  11 H :    0.185651
  12 H :    0.149730
  13 H :    0.202155
  14 H :    0.130547
  15 H :    0.141472
  16 C :   -0.778805
  17 H :    0.237065
  18 H :    0.196769
  19 C :    1.243653
  20 O :   -1.062858
  21 H :    0.273845
  22 H :    0.334878
  23 H :    0.175364
  24 H :    0.298540
  25 H :    0.288491
Sum of atomic charges:   -0.0000000

LOEWDIN ATOMIC CHARGES
----------------------
   0 C :    0.263154
   1 C :   -0.161433
   2 C :    0.317220
   3 C :    0.715120
   4 C :    0.349155
   5 C :    0.354508
   6 C :    0.551604
   7 C :    0.547312
   8 C :    0.533090
   9 H :   -0.265359
  10 H :   -0.280991
  11 H :   -0.310743
  12 H :   -0.296421
  13 H :   -0.261442
  14 H :   -0.265647
  15 H :   -0.259157
  16 C :    0.520500
  17 H :   -0.250520
  18 H :   -0.295803
  19 C :   -0.709076
  20 O :    0.674913
  21 H :   -0.349793
  22 H :   -0.339939
  23 H :   -0.275248
  24 H :   -0.251053
  25 H :   -0.253951

  Mayer bond orders larger than 0.100000
B(  0-C ,  1-C ) :   0.2229 B(  0-C ,  4-C ) :  -0.3665 B(  0-C ,  5-C ) :   1.1206
B(  0-C ,  6-C ) :   0.5029 B(  0-C , 13-H ) :  -0.1701 B(  0-C , 22-H ) :   0.9194
B(  0-C , 23-H ) :  -0.1582 B(  1-C ,  2-C ) :   0.6289 B(  1-C ,  7-C ) :  -0.2189
B(  1-C ,  8-C ) :   0.2748 B(  1-C ,  9-H ) :  -0.1068 B(  1-C , 15-H ) :  -0.1837
B(  1-C , 16-C ) :   0.5510 B(  1-C , 18-H ) :  -0.1108 B(  1-C , 19-C ) :  -0.5120
B(  1-C , 20-O ) :   0.1085 B(  1-C , 25-H ) :  -0.1701 B(  2-C ,  3-C ) :   0.2984
B(  2-C ,  9-H ) :   1.1291 B(  2-C , 19-C ) :   1.3758 B(  2-C , 20-O ) :   0.3410
B(  3-C ,  4-C ) :   1.5266 B(  3-C , 10-H ) :   0.9460 B(  3-C , 21-H ) :   0.9987
B(  4-C ,  5-C ) :   1.0789 B(  4-C , 11-H ) :   1.1289 B(  5-C , 11-H ) :  -0.1557
B(  5-C , 12-H ) :   1.1167 B(  6-C ,  7-C ) :   1.0368 B(  6-C , 13-H ) :   1.0885
B(  6-C , 23-H ) :   1.1058 B(  7-C ,  8-C ) :   1.1052 B(  7-C , 14-H ) :   1.0384
B(  7-C , 24-H ) :   0.9155 B(  8-C , 15-H ) :   1.1993 B(  8-C , 25-H ) :   0.9779
B( 16-C , 17-H ) :   0.9469 B( 16-C , 18-H ) :   1.0355 B( 16-C , 19-C ) :   1.3094
B( 16-C , 20-O ) :   0.2207 B( 19-C , 20-O ) :   0.3548

MP2 TOTAL ENERGY:     -501.829010367 Eh
FINAL SINGLE POINT ENERGY      -501.829010366596

DIPOLE MOMENT
-------------
                                X             Y             Z
Electronic contribution:      7.87477      -1.02377      -0.24401
Nuclear contribution   :     -9.72391       1.35584       0.64987
                        -----------------------------------------
Total Dipole Moment    :     -1.84913       0.33207       0.40586
                        -----------------------------------------
Magnitude (a.u.)       :      1.92205
Magnitude (Debye)      :      4.88547

Rotational constants in cm-1:     0.048572     0.029119     0.021822
Rotational constants in MHz :  1456.138935   872.958216   654.196894

                             ****ORCA TERMINATED NORMALLY****
TOTAL RUN TIME: 0 days 2 hours 28 minutes 50 seconds 646 msec
