                         Program Version 4.2.1 -  RELEASE  -
|  1> %pal
|  2>  nprocs 32
|  3> end
|  4> !RI-MP2 aug-cc-pVQZ aug-cc-pVQZ/C TightSCF
|  5> %maxcore 4500
|  6> *xyzfile 1 1  10_32TS.xyz
|  7>
|  8>
|  9>                          ****END OF INPUT****

CARTESIAN COORDINATES (ANGSTROEM)
---------------------------------
  C     -1.636549   -2.663014   -0.497989
  C     -0.969804   -1.644414    0.441837
  C     -2.982165   -0.769486    0.140852
  C     -3.046006   -2.042060   -0.720748
  H     -1.069481   -2.787437   -1.418926
  H     -1.695496   -3.633990   -0.005878
  H     -3.250920   -1.812985   -1.767341
  H     -3.842698   -2.697855   -0.369437
  C     -2.135913   -1.215023    1.335531
  H     -1.894392   -0.412802    2.031450
  H     -2.577696   -2.051246    1.873804
  H     -0.042494   -1.959140    0.902084
  H     -3.926045   -0.269100    0.341167
  N     -2.029419    0.183304   -0.485620
  N     -0.785079   -0.417674   -0.368723
  C      0.277995    0.395058   -0.512893
  C      1.647955   -0.091803   -0.246693
  C      2.052668   -0.531976    1.014317
  C      2.572902   -0.065459   -1.288905
  C      3.352507   -0.962853    1.218477
  H      1.363218   -0.512303    1.849585
  C      3.871837   -0.505786   -1.084926
  H      2.273838    0.295721   -2.266112
  C      4.261787   -0.956720    0.167553
  H      3.661524   -1.295341    2.201335
  H      4.580583   -0.489722   -1.902985
  H      5.278066   -1.292873    0.330218
  H      0.195861    1.045550   -1.379590
  H     -2.249632    0.424170   -1.449977
  C     -1.440760    2.194708    0.569193
  H     -2.098598    1.822041    1.343048
  C     -0.074682    2.005343    0.717479
  H      0.229990    1.543829    1.651859
  C      0.923289    2.985447    0.141055
  H      0.908887    3.918186    0.708860
  H      1.935904    2.585752    0.189303
  H      0.709108    3.237237   -0.899478
  C     -2.042556    3.152635   -0.401294
  H     -3.106108    2.967501   -0.548414
  H     -1.936906    4.174414   -0.020084
  H     -1.540057    3.133397   -1.371172

 Total Charge           Charge          ....    1
 Multiplicity           Mult            ....    1
 Number of Electrons    NEL             ....  132
 Basis Dimension        Dim             .... 2498

ORBITAL ENERGIES
----------------

  NO   OCC          E(Eh)            E(eV)
   0   2.0000     -15.763899      -428.9575
   1   2.0000     -15.754316      -428.6967
   2   2.0000     -11.463316      -311.9327
   3   2.0000     -11.416604      -310.6616
   4   2.0000     -11.407927      -310.4255
   5   2.0000     -11.404595      -310.3348
   6   2.0000     -11.372646      -309.4654
   7   2.0000     -11.361237      -309.1550
   8   2.0000     -11.361075      -309.1506
   9   2.0000     -11.360172      -309.1260
  10   2.0000     -11.358199      -309.0723
  11   2.0000     -11.356550      -309.0274
  12   2.0000     -11.351094      -308.8790
  13   2.0000     -11.350303      -308.8574
  14   2.0000     -11.349141      -308.8258
  15   2.0000     -11.348637      -308.8121
  16   2.0000     -11.347495      -308.7810
  17   2.0000     -11.337871      -308.5192
  18   2.0000      -1.515169       -41.2298
  19   2.0000      -1.309346       -35.6291
  20   2.0000      -1.271409       -34.5968
  21   2.0000      -1.249912       -34.0118
  22   2.0000      -1.227337       -33.3975
  23   2.0000      -1.164310       -31.6825
  24   2.0000      -1.139973       -31.0202
  25   2.0000      -1.116276       -30.3754
  26   2.0000      -1.111062       -30.2335
  27   2.0000      -1.084355       -29.5068
  28   2.0000      -1.029362       -28.0104
  29   2.0000      -1.004587       -27.3362
  30   2.0000      -0.965417       -26.2703
  31   2.0000      -0.952720       -25.9248
  32   2.0000      -0.922726       -25.1087
  33   2.0000      -0.904543       -24.6139
  34   2.0000      -0.882843       -24.0234
  35   2.0000      -0.858310       -23.3558
  36   2.0000      -0.834756       -22.7149
  37   2.0000      -0.815820       -22.1996
  38   2.0000      -0.797401       -21.6984
  39   2.0000      -0.793512       -21.5926
  40   2.0000      -0.779648       -21.2153
  41   2.0000      -0.754898       -20.5418
  42   2.0000      -0.742490       -20.2042
  43   2.0000      -0.729419       -19.8485
  44   2.0000      -0.719083       -19.5672
  45   2.0000      -0.710242       -19.3267
  46   2.0000      -0.707272       -19.2458
  47   2.0000      -0.697500       -18.9799
  48   2.0000      -0.682087       -18.5605
  49   2.0000      -0.678858       -18.4727
  50   2.0000      -0.672629       -18.3032
  51   2.0000      -0.660752       -17.9800
  52   2.0000      -0.655265       -17.8307
  53   2.0000      -0.644971       -17.5506
  54   2.0000      -0.638087       -17.3632
  55   2.0000      -0.630060       -17.1448
  56   2.0000      -0.623963       -16.9789
  57   2.0000      -0.622104       -16.9283
  58   2.0000      -0.617157       -16.7937
  59   2.0000      -0.614516       -16.7218
  60   2.0000      -0.601248       -16.3608
  61   2.0000      -0.593456       -16.1488
  62   2.0000      -0.520132       -14.1535
  63   2.0000      -0.462597       -12.5879
  64   2.0000      -0.457497       -12.4491
  65   2.0000      -0.452373       -12.3097
  66   0.0000      -0.071768        -1.9529
  67   0.0000      -0.065209        -1.7744
  68   0.0000      -0.057733        -1.5710
  69   0.0000      -0.051710        -1.4071
  70   0.0000      -0.049533        -1.3479

MULLIKEN ATOMIC CHARGES
-----------------------
   0 C :   -0.750397
   1 C :    0.088632
   2 C :   -0.073112
   3 C :   -0.714831
   4 H :    0.268695
   5 H :    0.214245
   6 H :    0.253206
   7 H :    0.219528
   8 C :   -0.752417
   9 H :    0.285227
  10 H :    0.149802
  11 H :    0.467515
  12 H :    0.394872
  13 N :   -0.327866
  14 N :   -0.097298
  15 C :    1.429579
  16 C :    0.621584
  17 C :   -0.442699
  18 C :   -0.606245
  19 C :   -0.447004
  20 H :    0.220122
  21 C :   -0.440342
  22 H :    0.198223
  23 C :   -0.406721
  24 H :    0.214352
  25 H :    0.235516
  26 H :    0.365292
  27 H :    0.186391
  28 H :    0.104343
  29 C :    0.068695
  30 H :    0.435774
  31 C :    0.138975
  32 H :    0.310981
  33 C :   -1.094461
  34 H :    0.217276
  35 H :    0.279470
  36 H :    0.162420
  37 C :   -1.072890
  38 H :    0.236452
  39 H :    0.279152
  40 H :    0.179966
Sum of atomic charges:    1.0000000

LOEWDIN ATOMIC CHARGES
----------------------
   0 C :    0.594952
   1 C :    0.051731
   2 C :    0.052122
   3 C :    0.594000
   4 H :   -0.243425
   5 H :   -0.242125
   6 H :   -0.247350
   7 H :   -0.243288
   8 C :    0.567073
   9 H :   -0.246289
  10 H :   -0.228981
  11 H :   -0.278531
  12 H :   -0.220681
  13 N :    0.761435
  14 N :    0.399277
  15 C :    0.114926
  16 C :   -0.081475
  17 C :    0.344747
  18 C :    0.370664
  19 C :    0.389533
  20 H :   -0.313214
  21 C :    0.382200
  22 H :   -0.295837
  23 C :    0.375284
  24 H :   -0.303809
  25 H :   -0.305759
  26 H :   -0.303201
  27 H :   -0.328677
  28 H :   -0.432076
  29 C :    0.370813
  30 H :   -0.282911
  31 C :    0.283341
  32 H :   -0.307102
  33 C :    0.923570
  34 H :   -0.251758
  35 H :   -0.281233
  36 H :   -0.287858
  37 C :    0.956818
  38 H :   -0.269795
  39 H :   -0.253596
  40 H :   -0.283514

  Mayer bond orders larger than 0.100000
B(  0-C ,  1-C ) :   0.3155 B(  0-C ,  2-C ) :  -0.2152 B(  0-C ,  3-C ) :   1.1600
B(  0-C ,  4-H ) :   1.0153 B(  0-C ,  5-H ) :   1.0826 B(  0-C ,  8-C ) :   0.1061
B(  1-C ,  3-C ) :  -0.2288 B(  1-C ,  8-C ) :   0.7719 B(  1-C , 11-H ) :   0.8488
B(  1-C , 14-N ) :   0.6188 B(  1-C , 15-C ) :   0.1172 B(  2-C ,  3-C ) :   0.6750
B(  2-C ,  8-C ) :   0.9090 B(  2-C , 12-H ) :   0.9136 B(  2-C , 13-N ) :   1.0607
B(  2-C , 14-N ) :  -0.1808 B(  3-C ,  6-H ) :   1.0025 B(  3-C ,  7-H ) :   1.0434
B(  3-C , 14-N ) :   0.1327 B(  8-C ,  9-H ) :   0.9603 B(  8-C , 10-H ) :   1.1034
B( 13-N , 14-N ) :   0.8602 B( 13-N , 15-C ) :   0.1093 B( 13-N , 28-H ) :   1.0594
B( 13-N , 29-C ) :   0.1439 B( 14-N , 15-C ) :   0.9736 B( 14-N , 18-C ) :  -0.1598
B( 15-C , 16-C ) :  -0.1057 B( 15-C , 17-C ) :  -0.3262 B( 15-C , 18-C ) :  -0.1671
B( 15-C , 23-C ) :  -0.1414 B( 15-C , 27-H ) :   0.9501 B( 15-C , 31-C ) :   0.3483
B( 16-C , 17-C ) :   0.7597 B( 16-C , 18-C ) :   0.8947 B( 16-C , 19-C ) :  -0.4351
B( 16-C , 21-C ) :  -0.3836 B( 16-C , 26-H ) :   0.1120 B( 16-C , 27-H ) :  -0.1423
B( 17-C , 18-C ) :  -0.1021 B( 17-C , 19-C ) :   1.5884 B( 17-C , 20-H ) :   1.1103
B( 17-C , 21-C ) :   0.1645 B( 18-C , 19-C ) :   0.2273 B( 18-C , 21-C ) :   1.4184
B( 18-C , 22-H ) :   1.0963 B( 18-C , 23-C ) :   0.1182 B( 18-C , 25-H ) :  -0.1435
B( 18-C , 26-H ) :  -0.1119 B( 19-C , 23-C ) :   1.1226 B( 19-C , 24-H ) :   1.1583
B( 19-C , 26-H ) :  -0.1151 B( 21-C , 23-C ) :   1.0942 B( 21-C , 25-H ) :   1.1813
B( 23-C , 24-H ) :  -0.1198 B( 23-C , 25-H ) :  -0.1028 B( 23-C , 26-H ) :   1.0141
B( 29-C , 30-H ) :   0.9122 B( 29-C , 31-C ) :   1.3469 B( 29-C , 33-C ) :   0.1945
B( 29-C , 37-C ) :   0.4871 B( 29-C , 38-H ) :  -0.1447 B( 29-C , 40-H ) :  -0.1196
B( 31-C , 32-H ) :   0.9950 B( 31-C , 33-C ) :   0.2270 B( 31-C , 34-H ) :  -0.1308
B( 31-C , 35-H ) :  -0.1637 B( 31-C , 36-H ) :  -0.1841 B( 33-C , 34-H ) :   1.0979
B( 33-C , 35-H ) :   1.0389 B( 33-C , 36-H ) :   1.1237 B( 37-C , 38-H ) :   1.1176
B( 37-C , 39-H ) :   1.0042 B( 37-C , 40-H ) :   1.0574

MP2 TOTAL ENERGY:     -731.428558752 Eh
FINAL SINGLE POINT ENERGY      -731.428558752007

DIPOLE MOMENT
-------------
                                X             Y             Z
Electronic contribution:      7.09461      -5.71624      -0.14139
Nuclear contribution   :     -8.32366       6.08785       0.01879
                        -----------------------------------------
Total Dipole Moment    :     -1.22904       0.37161      -0.12260
                        -----------------------------------------
Magnitude (a.u.)       :      1.28984
Magnitude (Debye)      :      3.27850

Rotational constants in cm-1:     0.020035     0.011365     0.008430
Rotational constants in MHz :   600.644536   340.723556   252.739688

                             ****ORCA TERMINATED NORMALLY****
TOTAL RUN TIME: 0 days 10 hours 26 minutes 48 seconds 109 msec
