                         Program Version 4.2.1 -  RELEASE  -
|  1> %pal
|  2>  nprocs 32
|  3> end
|  4> !RI-MP2 aug-cc-pVQZ aug-cc-pVQZ/C TightSCF
|  5> %maxcore 4500
|  6> *xyzfile 0 1  02_27R.xyz
|  7>
|  8>
|  9>                          ****END OF INPUT****

CARTESIAN COORDINATES (ANGSTROEM)
---------------------------------
  C      2.421343   -1.133342   -0.423367
  C     -0.862605    0.665782    0.690163
  C      3.877571    2.204112    0.122938
  C      3.737982    0.880733    0.113401
  C      2.589472    0.187503   -0.452865
  C      1.233154   -1.859234   -0.972524
  C      0.432532   -2.596448    0.109166
  C     -0.164144   -1.664050    1.173642
  H      0.586535   -1.150287   -1.497272
  H      1.080696   -3.321528    0.610186
  H     -0.703536   -2.272825    1.907705
  H      1.564722   -2.592397   -1.715497
  H     -0.363051   -3.176328   -0.367018
  H      0.640346   -1.152182    1.704617
  C     -2.337109   -1.166878   -0.097686
  H     -2.687306   -2.069657    0.411364
  H     -2.056601   -1.485385   -1.110242
  C     -2.914366    1.194372   -0.716166
  C     -1.109607   -0.646823    0.602654
  C     -1.714972    1.689011    0.064810
  O     -1.443138    2.870030    0.135067
  C     -3.448171   -0.125300   -0.171276
  H     -3.666925    1.983325   -0.719749
  H     -2.581988    1.063867   -1.753811
  H     -3.852395    0.035792    0.832898
  H     -4.270842   -0.489555   -0.790324
  H      0.019259    1.037526    1.199991
  H      3.185285   -1.747853    0.051974
  H      1.826209    0.810614   -0.913768
  H      4.745831    2.679883    0.560756
  H      3.121371    2.853689   -0.304757
  H      4.511008    0.256436    0.555070

 Total Charge           Charge          ....    0
 Multiplicity           Mult            ....    1
 Number of Electrons    NEL             ....  104
 Basis Dimension        Dim             .... 1948

ORBITAL ENERGIES
----------------

  NO   OCC          E(Eh)            E(eV)
   0   2.0000     -20.527076      -558.5701
   1   2.0000     -11.316443      -307.9361
   2   2.0000     -11.263130      -306.4854
   3   2.0000     -11.242879      -305.9343
   4   2.0000     -11.236775      -305.7682
   5   2.0000     -11.236583      -305.7630
   6   2.0000     -11.235755      -305.7404
   7   2.0000     -11.232892      -305.6625
   8   2.0000     -11.232475      -305.6512
   9   2.0000     -11.231730      -305.6309
  10   2.0000     -11.230988      -305.6107
  11   2.0000     -11.228158      -305.5337
  12   2.0000     -11.221448      -305.3511
  13   2.0000     -11.220900      -305.3362
  14   2.0000      -1.371877       -37.3307
  15   2.0000      -1.149939       -31.2914
  16   2.0000      -1.109781       -30.1987
  17   2.0000      -1.076985       -29.3063
  18   2.0000      -1.041036       -28.3280
  19   2.0000      -1.003123       -27.2964
  20   2.0000      -0.985224       -26.8093
  21   2.0000      -0.936027       -25.4706
  22   2.0000      -0.853551       -23.2263
  23   2.0000      -0.846875       -23.0446
  24   2.0000      -0.794628       -21.6229
  25   2.0000      -0.764333       -20.7986
  26   2.0000      -0.755081       -20.5468
  27   2.0000      -0.705784       -19.2054
  28   2.0000      -0.666632       -18.1400
  29   2.0000      -0.658782       -17.9264
  30   2.0000      -0.647254       -17.6127
  31   2.0000      -0.636119       -17.3097
  32   2.0000      -0.624852       -17.0031
  33   2.0000      -0.612470       -16.6661
  34   2.0000      -0.594996       -16.1907
  35   2.0000      -0.586230       -15.9521
  36   2.0000      -0.570179       -15.5154
  37   2.0000      -0.568859       -15.4794
  38   2.0000      -0.550598       -14.9825
  39   2.0000      -0.534937       -14.5564
  40   2.0000      -0.532367       -14.4864
  41   2.0000      -0.513133       -13.9631
  42   2.0000      -0.505310       -13.7502
  43   2.0000      -0.497253       -13.5309
  44   2.0000      -0.489857       -13.3297
  45   2.0000      -0.480213       -13.0673
  46   2.0000      -0.474585       -12.9141
  47   2.0000      -0.471616       -12.8333
  48   2.0000      -0.436418       -11.8755
  49   2.0000      -0.397749       -10.8233
  50   2.0000      -0.363327        -9.8866
  51   2.0000      -0.315036        -8.5726
  52   0.0000       0.017816         0.4848
  53   0.0000       0.023729         0.6457
  54   0.0000       0.026562         0.7228
  55   0.0000       0.029518         0.8032
  56   0.0000       0.036362         0.9895

MULLIKEN ATOMIC CHARGES
-----------------------
   0 C :   -0.153594
   1 C :   -1.295702
   2 C :   -0.866859
   3 C :   -0.559241
   4 C :   -0.411303
   5 C :   -0.457765
   6 C :   -0.346218
   7 C :   -0.523005
   8 H :    0.155866
   9 H :    0.205972
  10 H :    0.226862
  11 H :    0.340308
  12 H :    0.183215
  13 H :    0.208218
  14 C :   -0.267454
  15 H :    0.296353
  16 H :    0.207539
  17 C :   -0.649207
  18 C :    1.024083
  19 C :    1.344624
  20 O :   -0.980056
  21 C :   -0.737271
  22 H :    0.277406
  23 H :    0.156810
  24 H :    0.181795
  25 H :    0.279919
  26 H :    0.314370
  27 H :    0.225498
  28 H :    0.496876
  29 H :    0.319054
  30 H :    0.409570
  31 H :    0.393339
Sum of atomic charges:   -0.0000000

LOEWDIN ATOMIC CHARGES
----------------------
   0 C :    0.378893
   1 C :    0.359635
   2 C :    0.786965
   3 C :    0.319800
   4 C :    0.333314
   5 C :    0.502014
   6 C :    0.533601
   7 C :    0.522580
   8 H :   -0.306758
   9 H :   -0.260233
  10 H :   -0.257269
  11 H :   -0.265091
  12 H :   -0.274467
  13 H :   -0.300477
  14 C :    0.510633
  15 H :   -0.263350
  16 H :   -0.260002
  17 C :    0.484729
  18 C :   -0.014764
  19 C :   -0.660205
  20 O :    0.724044
  21 C :    0.526218
  22 H :   -0.288392
  23 H :   -0.268271
  24 H :   -0.258603
  25 H :   -0.254595
  26 H :   -0.343880
  27 H :   -0.305947
  28 H :   -0.342695
  29 H :   -0.354883
  30 H :   -0.353745
  31 H :   -0.348798

  Mayer bond orders larger than 0.100000
B(  0-C ,  3-C ) :  -0.4063 B(  0-C ,  4-C ) :   1.3891 B(  0-C ,  5-C ) :   0.9621
B(  0-C ,  6-C ) :  -0.1573 B(  0-C ,  8-H ) :   0.1050 B(  0-C , 27-H ) :   0.9893
B(  1-C ,  7-C ) :  -0.1362 B(  1-C , 14-C ) :  -0.1346 B(  1-C , 18-C ) :   1.3238
B(  1-C , 19-C ) :   1.4350 B(  1-C , 20-O ) :   0.3915 B(  1-C , 26-H ) :   0.7966
B(  2-C ,  3-C ) :   1.7629 B(  2-C ,  4-C ) :  -0.2703 B(  2-C , 29-H ) :   1.0430
B(  2-C , 30-H ) :   0.8230 B(  3-C ,  4-C ) :   0.9008 B(  3-C , 29-H ) :  -0.1581
B(  3-C , 31-H ) :   0.8406 B(  4-C ,  5-C ) :  -0.3331 B(  4-C , 28-H ) :   0.6976
B(  5-C ,  6-C ) :   0.8654 B(  5-C ,  8-H ) :   0.9521 B(  5-C , 11-H ) :   0.9052
B(  6-C ,  7-C ) :   0.8769 B(  6-C ,  9-H ) :   0.9844 B(  6-C , 12-H ) :   0.9879
B(  6-C , 18-C ) :  -0.1984 B(  7-C , 10-H ) :   1.0804 B(  7-C , 13-H ) :   1.0737
B(  7-C , 18-C ) :   0.3811 B( 10-H , 18-C ) :  -0.1206 B( 14-C , 15-H ) :   0.9377
B( 14-C , 16-H ) :   0.9211 B( 14-C , 18-C ) :   0.4776 B( 14-C , 21-C ) :   0.9027
B( 15-H , 18-C ) :  -0.1036 B( 17-C , 19-C ) :   1.0147 B( 17-C , 20-O ) :   0.2514
B( 17-C , 21-C ) :   1.0624 B( 17-C , 22-H ) :   0.9377 B( 17-C , 23-H ) :   0.9560
B( 18-C , 19-C ) :  -0.4781 B( 18-C , 21-C ) :  -0.1576 B( 19-C , 20-O ) :   0.4587
B( 21-C , 24-H ) :   1.0007 B( 21-C , 25-H ) :   0.9769

MP2 TOTAL ENERGY:     -580.364505674 Eh
FINAL SINGLE POINT ENERGY      -580.364505674433

DIPOLE MOMENT
-------------
                                X             Y             Z
Electronic contribution:     -1.45276       6.95701       1.25487
Nuclear contribution   :      1.10433      -8.92154      -1.37108
                        -----------------------------------------
Total Dipole Moment    :     -0.34843      -1.96453      -0.11621
                        -----------------------------------------
Magnitude (a.u.)       :      1.99857
Magnitude (Debye)      :      5.07997

Rotational constants in cm-1:     0.028644     0.014893     0.010689
Rotational constants in MHz :   858.731216   446.494225   320.462713

                             ****ORCA TERMINATED NORMALLY****
TOTAL RUN TIME: 0 days 3 hours 31 minutes 37 seconds 365 msec
