                         Program Version 4.2.1 -  RELEASE  -
|  1> %pal
|  2>  nprocs 32
|  3> end
|  4> !RI-MP2 aug-cc-pVQZ aug-cc-pVQZ/C TightSCF
|  5> %maxcore 4500
|  6> *xyzfile -1 1  09_21P.xyz
|  7>
|  8>
|  9>                          ****END OF INPUT****

CARTESIAN COORDINATES (ANGSTROEM)
---------------------------------
  C     -2.285945    1.689378   -0.337256
  N     -1.201140    1.216987    0.317846
  C     -1.234566   -0.033594    0.838114
  C     -2.347020   -0.812707    0.724622
  C     -3.513825   -0.355756    0.051171
  C     -3.422574    0.960036   -0.489628
  C      0.056328    2.032497    0.469177
  C      1.270067    1.421636   -0.114972
  C      2.008325    0.534859    0.643931
  O      1.675577    0.122029    1.797479
  C     -4.660094   -1.157327   -0.060716
  N     -5.741040   -0.688477   -0.694557
  O     -6.734680   -1.445597   -0.761890
  C      3.293386   -0.024289    0.071153
  C      3.817443   -1.178430    0.649723
  C      4.988822   -1.750100    0.173932
  C      5.668774   -1.169119   -0.889183
  C      5.165531   -0.008667   -1.464714
  C      3.991408    0.557014   -0.987096
  H     -4.267430    1.370731   -1.022335
  H     -2.189685    2.690087   -0.738095
  H      3.620423    1.472381   -1.430332
  H      5.694728    0.462315   -2.286295
  H      6.586381   -1.611165   -1.261573
  H      5.375719   -2.652393    0.635639
  H      3.276356   -1.599183    1.487941
  H     -0.182382    2.999234    0.021333
  H      0.188837    2.163971    1.545664
  H     -0.319482   -0.333803    1.344287
  H     -2.332971   -1.803230    1.160581
  H     -4.690249   -2.160545    0.362526
  H      1.531481    1.657982   -1.136634

 Total Charge           Charge          ....   -1
 Multiplicity           Mult            ....    1
 Number of Electrons    NEL             ....  134
 Basis Dimension        Dim             .... 2118

ORBITAL ENERGIES
----------------

  NO   OCC          E(Eh)            E(eV)
   0   2.0000     -20.411434      -555.4234
   1   2.0000     -20.343837      -553.5839
   2   2.0000     -15.525800      -422.4785
   3   2.0000     -15.523898      -422.4267
   4   2.0000     -11.201671      -304.8130
   5   2.0000     -11.186573      -304.4021
   6   2.0000     -11.175539      -304.1019
   7   2.0000     -11.163165      -303.7652
   8   2.0000     -11.159321      -303.6606
   9   2.0000     -11.139172      -303.1123
  10   2.0000     -11.137198      -303.0586
  11   2.0000     -11.135184      -303.0038
  12   2.0000     -11.134917      -302.9965
  13   2.0000     -11.131172      -302.8946
  14   2.0000     -11.130917      -302.8877
  15   2.0000     -11.125682      -302.7452
  16   2.0000     -11.122558      -302.6602
  17   2.0000     -11.104423      -302.1667
  18   2.0000     -11.054445      -300.8067
  19   2.0000      -1.298784       -35.3417
  20   2.0000      -1.216661       -33.1070
  21   2.0000      -1.182271       -32.1712
  22   2.0000      -1.052687       -28.6451
  23   2.0000      -1.035239       -28.1703
  24   2.0000      -0.956712       -26.0335
  25   2.0000      -0.952970       -25.9316
  26   2.0000      -0.928260       -25.2592
  27   2.0000      -0.914909       -24.8959
  28   2.0000      -0.897862       -24.4321
  29   2.0000      -0.811740       -22.0886
  30   2.0000      -0.780083       -21.2271
  31   2.0000      -0.767303       -20.8794
  32   2.0000      -0.729135       -19.8408
  33   2.0000      -0.712251       -19.3813
  34   2.0000      -0.673232       -18.3196
  35   2.0000      -0.628508       -17.1026
  36   2.0000      -0.604973       -16.4622
  37   2.0000      -0.593111       -16.1394
  38   2.0000      -0.581162       -15.8142
  39   2.0000      -0.562316       -15.3014
  40   2.0000      -0.542691       -14.7674
  41   2.0000      -0.530524       -14.4363
  42   2.0000      -0.525001       -14.2860
  43   2.0000      -0.520303       -14.1582
  44   2.0000      -0.511941       -13.9306
  45   2.0000      -0.499823       -13.6009
  46   2.0000      -0.496398       -13.5077
  47   2.0000      -0.486295       -13.2328
  48   2.0000      -0.452877       -12.3234
  49   2.0000      -0.452369       -12.3096
  50   2.0000      -0.440561       -11.9883
  51   2.0000      -0.433141       -11.7864
  52   2.0000      -0.418872       -11.3981
  53   2.0000      -0.414449       -11.2777
  54   2.0000      -0.401911       -10.9365
  55   2.0000      -0.398542       -10.8449
  56   2.0000      -0.390067       -10.6143
  57   2.0000      -0.377849       -10.2818
  58   2.0000      -0.365416        -9.9435
  59   2.0000      -0.317736        -8.6460
  60   2.0000      -0.274540        -7.4706
  61   2.0000      -0.261480        -7.1152
  62   2.0000      -0.240595        -6.5469
  63   2.0000      -0.239603        -6.5199
  64   2.0000      -0.232345        -6.3224
  65   2.0000      -0.166605        -4.5336
  66   2.0000      -0.155195        -4.2231
  67   0.0000       0.079104         2.1525
  68   0.0000       0.086433         2.3520
  69   0.0000       0.091005         2.4764
  70   0.0000       0.096093         2.6148
  71   0.0000       0.102815         2.7977

MULLIKEN ATOMIC CHARGES
-----------------------
   0 C :   -0.184681
   1 N :   -0.257164
   2 C :    0.094518
   3 C :   -0.435511
   4 C :    0.291719
   5 C :   -0.026680
   6 C :   -0.623503
   7 C :   -0.529361
   8 C :    1.220775
   9 O :   -1.195376
  10 C :   -0.426808
  11 N :   -0.023065
  12 O :   -0.716653
  13 C :    0.230121
  14 C :   -0.550342
  15 C :   -0.284769
  16 C :   -0.395021
  17 C :   -0.340126
  18 C :   -0.414713
  19 H :    0.188104
  20 H :    0.250016
  21 H :    0.214267
  22 H :    0.228833
  23 H :    0.325722
  24 H :    0.235155
  25 H :    0.235006
  26 H :    0.264793
  27 H :    0.287401
  28 H :    0.646710
  29 H :    0.128316
  30 H :    0.281792
  31 H :    0.280525
Sum of atomic charges:   -1.0000000

LOEWDIN ATOMIC CHARGES
----------------------
   0 C :    0.234106
   1 N :    0.464929
   2 C :    0.232603
   3 C :    0.367813
   4 C :   -0.175950
   5 C :    0.340271
   6 C :    0.342799
   7 C :    0.298847
   8 C :   -0.752863
   9 O :    0.678444
  10 C :   -0.032316
  11 N :   -0.136740
  12 O :    0.271768
  13 C :   -0.133731
  14 C :    0.305840
  15 C :    0.327404
  16 C :    0.309684
  17 C :    0.325545
  18 C :    0.315762
  19 H :   -0.359739
  20 H :   -0.310502
  21 H :   -0.353593
  22 H :   -0.331584
  23 H :   -0.334295
  24 H :   -0.331376
  25 H :   -0.364745
  26 H :   -0.324821
  27 H :   -0.313718
  28 H :   -0.437542
  29 H :   -0.332558
  30 H :   -0.403455
  31 H :   -0.386284

  Mayer bond orders larger than 0.100000
B(  0-C ,  1-N ) :   1.1483 B(  0-C ,  2-C ) :   0.2313 B(  0-C ,  4-C ) :  -0.2647
B(  0-C ,  5-C ) :   1.2078 B(  0-C , 19-H ) :  -0.1384 B(  0-C , 20-H ) :   1.0910
B(  1-N ,  2-C ) :   0.9911 B(  1-N ,  3-C ) :  -0.1005 B(  1-N ,  6-C ) :   0.8660
B(  1-N ,  7-C ) :  -0.1296 B(  2-C ,  3-C ) :   1.0455 B(  2-C ,  4-C ) :  -0.4017
B(  2-C ,  9-O ) :  -0.1163 B(  2-C , 28-H ) :   0.6448 B(  2-C , 29-H ) :  -0.1657
B(  3-C ,  4-C ) :   0.9972 B(  3-C , 10-C ) :  -0.5061 B(  3-C , 28-H ) :  -0.1667
B(  3-C , 29-H ) :   1.1782 B(  4-C ,  5-C ) :   0.9780 B(  4-C , 10-C ) :   1.2137
B(  4-C , 30-H ) :  -0.1393 B(  5-C , 10-C ) :  -0.3333 B(  5-C , 19-H ) :   1.1058
B(  5-C , 20-H ) :  -0.1864 B(  6-C ,  7-C ) :   0.9664 B(  6-C ,  8-C ) :  -0.2268
B(  6-C , 26-H ) :   0.9992 B(  6-C , 27-H ) :   0.8783 B(  7-C ,  8-C ) :   1.2551
B(  7-C ,  9-O ) :   0.1225 B(  7-C , 13-C ) :  -0.4380 B(  7-C , 18-C ) :  -0.1011
B(  7-C , 27-H ) :   0.1165 B(  7-C , 31-H ) :   1.0023 B(  8-C ,  9-O ) :   0.1792
B(  8-C , 13-C ) :   0.9816 B(  8-C , 14-C ) :  -0.4928 B(  8-C , 18-C ) :  -0.3359
B(  9-O , 13-C ) :   0.2598 B(  9-O , 25-H ) :   0.1337 B( 10-C , 11-N ) :   1.3178
B( 10-C , 30-H ) :   0.9959 B( 11-N , 12-O ) :   1.2299 B( 13-C , 14-C ) :   1.1327
B( 13-C , 15-C ) :  -0.3922 B( 13-C , 17-C ) :  -0.4055 B( 13-C , 18-C ) :   1.1072
B( 13-C , 21-H ) :  -0.1075 B( 14-C , 15-C ) :   1.2633 B( 14-C , 17-C ) :   0.1461
B( 14-C , 18-C ) :   0.1200 B( 14-C , 24-H ) :  -0.1581 B( 14-C , 25-H ) :   0.9533
B( 15-C , 16-C ) :   1.1702 B( 15-C , 18-C ) :   0.1293 B( 15-C , 24-H ) :   1.1440
B( 16-C , 17-C ) :   1.2017 B( 16-C , 23-H ) :   0.9969 B( 16-C , 24-H ) :  -0.1009
B( 17-C , 18-C ) :   1.2055 B( 17-C , 22-H ) :   1.1432 B( 18-C , 21-H ) :   1.0366
B( 18-C , 22-H ) :  -0.1420

MP2 TOTAL ENERGY:     -837.968221041 Eh
FINAL SINGLE POINT ENERGY      -837.968221041373

DIPOLE MOMENT
-------------
                                X             Y             Z
Electronic contribution:     -8.77357      -1.34613       0.81479
Nuclear contribution   :     12.00317       2.60219      -1.28518
                        -----------------------------------------
Total Dipole Moment    :      3.22959       1.25605      -0.47039
                        -----------------------------------------
Magnitude (a.u.)       :      3.49703
Magnitude (Debye)      :      8.88875

Rotational constants in cm-1:     0.033723     0.004356     0.004179
Rotational constants in MHz :  1010.987572   130.592204   125.281470

                             ****ORCA TERMINATED NORMALLY****
TOTAL RUN TIME: 0 days 4 hours 9 minutes 1 seconds 793 msec
