                         Program Version 4.2.1 -  RELEASE  -
|  1> %pal
|  2>  nprocs 32
|  3> end
|  4> !RI-MP2 aug-cc-pVQZ aug-cc-pVQZ/C TightSCF
|  5> %maxcore 4500
|  6> *xyzfile 0 1  04_44R1.xyz
|  7>
|  8>
|  9>                          ****END OF INPUT****

CARTESIAN COORDINATES (ANGSTROEM)
---------------------------------
  H      3.153478   -0.791745    0.005133
  O      2.779314    0.092758    0.011178
  C      1.410888    0.018082    0.002974
  C      0.721104   -1.184328   -0.000765
  C     -0.667326   -1.196420   -0.007621
  C     -1.391841   -0.008344   -0.009053
  C     -0.684072    1.194288   -0.008131
  C      0.699717    1.209550   -0.000638
  H      1.244078    2.145339    0.001421
  H     -1.191364   -2.145709   -0.017558
  H      1.264480   -2.123930    0.001571
  H     -1.226611    2.133287   -0.018531
  N     -2.792035   -0.016661   -0.070956
  H     -3.228041   -0.853255    0.285518
  H     -3.237110    0.813614    0.289124

 Total Charge           Charge          ....    0
 Multiplicity           Mult            ....    1
 Number of Electrons    NEL             ....   58
 Basis Dimension        Dim             ....  962

ORBITAL ENERGIES
----------------

  NO   OCC          E(Eh)            E(eV)
   0   2.0000     -20.578294      -559.9638
   1   2.0000     -15.558958      -423.3808
   2   2.0000     -11.285284      -307.0882
   3   2.0000     -11.268141      -306.6217
   4   2.0000     -11.232491      -305.6516
   5   2.0000     -11.228693      -305.5483
   6   2.0000     -11.228353      -305.5390
   7   2.0000     -11.226699      -305.4940
   8   2.0000      -1.394738       -37.9528
   9   2.0000      -1.220309       -33.2063
  10   2.0000      -1.126494       -30.6534
  11   2.0000      -1.019281       -27.7360
  12   2.0000      -0.980555       -26.6823
  13   2.0000      -0.850796       -23.1513
  14   2.0000      -0.815827       -22.1998
  15   2.0000      -0.732965       -19.9450
  16   2.0000      -0.699734       -19.0407
  17   2.0000      -0.681737       -18.5510
  18   2.0000      -0.632244       -17.2042
  19   2.0000      -0.606570       -16.5056
  20   2.0000      -0.588050       -16.0016
  21   2.0000      -0.585156       -15.9229
  22   2.0000      -0.565676       -15.3928
  23   2.0000      -0.542342       -14.7579
  24   2.0000      -0.520434       -14.1617
  25   2.0000      -0.490433       -13.3454
  26   2.0000      -0.433729       -11.8024
  27   2.0000      -0.343400        -9.3444
  28   2.0000      -0.280983        -7.6459
  29   0.0000       0.022641         0.6161
  30   0.0000       0.026257         0.7145
  31   0.0000       0.031069         0.8454
  32   0.0000       0.041989         1.1426
  33   0.0000       0.044930         1.2226

MULLIKEN ATOMIC CHARGES
-----------------------
   0 H :    0.363404
   1 O :   -0.829712
   2 C :    1.017861
   3 C :   -0.566719
   4 C :   -0.272756
   5 C :    0.481385
   6 C :   -0.367652
   7 C :   -0.543249
   8 H :    0.293592
   9 H :    0.260677
  10 H :    0.184231
  11 H :    0.240216
  12 N :   -0.816395
  13 H :    0.275648
  14 H :    0.279470
Sum of atomic charges:   -0.0000000

LOEWDIN ATOMIC CHARGES
----------------------
   0 H :   -0.813610
   1 O :    1.264072
   2 C :   -0.446000
   3 C :    0.322855
   4 C :    0.328453
   5 C :   -0.252218
   6 C :    0.328974
   7 C :    0.316146
   8 H :   -0.323241
   9 H :   -0.320110
  10 H :   -0.321789
  11 H :   -0.319560
  12 N :    1.263087
  13 H :   -0.513401
  14 H :   -0.513658

  Mayer bond orders larger than 0.100000
B(  0-H ,  1-O ) :   0.8989 B(  0-H ,  2-C ) :  -0.1211 B(  1-O ,  2-C ) :  -0.1043
B(  1-O ,  3-C ) :   0.2095 B(  1-O ,  7-C ) :   0.3280 B(  2-C ,  3-C ) :   1.3037
B(  2-C ,  4-C ) :  -0.1218 B(  2-C ,  6-C ) :  -0.1391 B(  2-C ,  7-C ) :   1.3226
B(  3-C ,  4-C ) :   1.2085 B(  3-C ,  5-C ) :  -0.1702 B(  3-C ,  9-H ) :  -0.1425
B(  3-C , 10-H ) :   1.1170 B(  4-C ,  5-C ) :   1.2242 B(  4-C ,  9-H ) :   0.9786
B(  4-C , 10-H ) :  -0.1670 B(  5-C ,  6-C ) :   1.1917 B(  5-C ,  7-C ) :  -0.1761
B(  5-C , 12-N ) :   0.7332 B(  6-C ,  7-C ) :   1.2810 B(  6-C ,  8-H ) :  -0.1356
B(  6-C , 11-H ) :   1.0176 B(  7-C ,  8-H ) :   0.9908 B(  7-C , 11-H ) :  -0.1389
B( 12-N , 13-H ) :   0.9268 B( 12-N , 14-H ) :   0.9244

MP2 TOTAL ENERGY:     -362.246650376 Eh
FINAL SINGLE POINT ENERGY      -362.246650376496

DIPOLE MOMENT
-------------
                                X             Y             Z
Electronic contribution:      2.73398       0.29923      -0.15065
Nuclear contribution   :     -3.18782      -0.81953       0.54544
                        -----------------------------------------
Total Dipole Moment    :     -0.45384      -0.52030       0.39479
                        -----------------------------------------
Magnitude (a.u.)       :      0.79532
Magnitude (Debye)      :      2.02155

Rotational constants in cm-1:     0.188273     0.049519     0.039249
Rotational constants in MHz :  5644.276373  1484.536162  1176.648660

                             ****ORCA TERMINATED NORMALLY****
TOTAL RUN TIME: 0 days 0 hours 22 minutes 55 seconds 431 msec
