                         Program Version 4.2.1 -  RELEASE  -
|  1> %pal
|  2>  nprocs 32
|  3> end
|  4> !RI-MP2 aug-cc-pVQZ aug-cc-pVQZ/C TightSCF
|  5> %maxcore 4500
|  6> *xyzfile 0 1  10_19R2.xyz
|  7>
|  8>
|  9>                          ****END OF INPUT****

CARTESIAN COORDINATES (ANGSTROEM)
---------------------------------
  C     -4.345202   -0.975535    0.404128
  C     -2.981089   -1.217184    0.362725
  C     -2.079369   -0.230522   -0.049105
  C     -2.605538    1.004027   -0.445585
  C     -3.968354    1.249887   -0.395637
  C     -4.848289    0.263437    0.031139
  H     -5.019016   -1.758827    0.731284
  H     -2.598407   -2.186050    0.664586
  H     -1.943592    1.775050   -0.820905
  H     -4.348715    2.215287   -0.708908
  H     -5.913880    0.454983    0.061205
  C     -0.644029   -0.527364   -0.052731
  C      0.318375    0.406884   -0.020300
  C      2.500804    1.160690    0.653755
  C      2.195713   -1.133585   -0.161585
  C      3.937684    1.180966    0.154828
  H      2.489113    0.891922    1.723308
  H      2.050202    2.151150    0.566547
  C      3.638772   -1.162597   -0.650784
  H      2.121944   -1.610748    0.830582
  H      1.567796   -1.707580   -0.843254
  C      4.526408   -0.226220    0.162034
  H      4.526548    1.853638    0.783536
  H      3.956692    1.582791   -0.863041
  H      4.008791   -2.189778   -0.602267
  H      3.658741   -0.860376   -1.702447
  H      5.543795   -0.220988   -0.236082
  H      4.591918   -0.587666    1.195136
  N      1.682004    0.223661   -0.107650
  H      0.040421    1.452543    0.072311
  H     -0.381705   -1.578280   -0.055339

 Total Charge           Charge          ....    0
 Multiplicity           Mult            ....    1
 Number of Electrons    NEL             ....  102
 Basis Dimension        Dim             .... 1902

ORBITAL ENERGIES
----------------

  NO   OCC          E(Eh)            E(eV)
   0   2.0000     -15.565045      -423.5464
   1   2.0000     -11.263701      -306.5009
   2   2.0000     -11.258615      -306.3625
   3   2.0000     -11.253819      -306.2320
   4   2.0000     -11.234715      -305.7121
   5   2.0000     -11.224214      -305.4264
   6   2.0000     -11.223796      -305.4150
   7   2.0000     -11.223642      -305.4108
   8   2.0000     -11.223065      -305.3951
   9   2.0000     -11.222444      -305.3782
  10   2.0000     -11.218486      -305.2705
  11   2.0000     -11.218143      -305.2612
  12   2.0000     -11.217926      -305.2553
  13   2.0000     -11.207650      -304.9757
  14   2.0000      -1.261374       -34.3237
  15   2.0000      -1.148593       -31.2548
  16   2.0000      -1.091824       -29.7100
  17   2.0000      -1.048076       -28.5196
  18   2.0000      -1.028902       -27.9978
  19   2.0000      -1.005749       -27.3678
  20   2.0000      -0.973969       -26.5030
  21   2.0000      -0.893163       -24.3042
  22   2.0000      -0.862960       -23.4823
  23   2.0000      -0.827265       -22.5110
  24   2.0000      -0.811695       -22.0873
  25   2.0000      -0.777088       -21.1456
  26   2.0000      -0.743057       -20.2196
  27   2.0000      -0.694915       -18.9096
  28   2.0000      -0.685571       -18.6553
  29   2.0000      -0.645423       -17.5628
  30   2.0000      -0.635519       -17.2933
  31   2.0000      -0.625198       -17.0125
  32   2.0000      -0.613896       -16.7049
  33   2.0000      -0.605060       -16.4645
  34   2.0000      -0.592216       -16.1150
  35   2.0000      -0.581917       -15.8348
  36   2.0000      -0.574834       -15.6420
  37   2.0000      -0.560680       -15.2569
  38   2.0000      -0.538670       -14.6579
  39   2.0000      -0.519993       -14.1497
  40   2.0000      -0.504013       -13.7149
  41   2.0000      -0.498491       -13.5646
  42   2.0000      -0.488711       -13.2985
  43   2.0000      -0.482989       -13.1428
  44   2.0000      -0.477925       -13.0050
  45   2.0000      -0.462775       -12.5927
  46   2.0000      -0.456774       -12.4295
  47   2.0000      -0.433069       -11.7844
  48   2.0000      -0.360990        -9.8230
  49   2.0000      -0.329482        -8.9656
  50   2.0000      -0.268351        -7.3022
  51   0.0000       0.021954         0.5974
  52   0.0000       0.026357         0.7172
  53   0.0000       0.027159         0.7390
  54   0.0000       0.030622         0.8333
  55   0.0000       0.034114         0.9283

MULLIKEN ATOMIC CHARGES
-----------------------
   0 C :   -0.275282
   1 C :   -0.554705
   2 C :    0.600813
   3 C :   -0.437842
   4 C :   -0.318905
   5 C :   -0.409564
   6 H :    0.237454
   7 H :    0.179645
   8 H :    0.229091
   9 H :    0.239917
  10 H :    0.347988
  11 C :   -0.245160
  12 C :    0.128571
  13 C :   -0.357593
  14 C :   -0.332828
  15 C :   -0.547579
  16 H :    0.225248
  17 H :    0.272089
  18 C :   -0.486859
  19 H :    0.228605
  20 H :    0.228126
  21 C :   -0.512909
  22 H :    0.270219
  23 H :    0.194815
  24 H :    0.260576
  25 H :    0.202272
  26 H :    0.271953
  27 H :    0.134547
  28 N :   -0.388433
  29 H :    0.330942
  30 H :    0.284788
Sum of atomic charges:   -0.0000000

LOEWDIN ATOMIC CHARGES
----------------------
   0 C :    0.333948
   1 C :    0.328258
   2 C :   -0.105582
   3 C :    0.328330
   4 C :    0.337990
   5 C :    0.329055
   6 H :   -0.322375
   7 H :   -0.323478
   8 H :   -0.336991
   9 H :   -0.321681
  10 H :   -0.327431
  11 C :    0.377205
  12 C :    0.225471
  13 C :    0.370547
  14 C :    0.352121
  15 C :    0.537381
  16 H :   -0.245950
  17 H :   -0.288721
  18 C :    0.542844
  19 H :   -0.240842
  20 H :   -0.309889
  21 C :    0.532478
  22 H :   -0.258036
  23 H :   -0.260654
  24 H :   -0.257396
  25 H :   -0.260393
  26 H :   -0.257300
  27 H :   -0.262787
  28 N :    0.502938
  29 H :   -0.350061
  30 H :   -0.368999

  Mayer bond orders larger than 0.100000
B(  0-C ,  1-C ) :   1.2545 B(  0-C ,  2-C ) :  -0.3732 B(  0-C ,  3-C ) :   0.1112
B(  0-C ,  5-C ) :   1.1712 B(  0-C ,  6-H ) :   1.1615 B(  1-C ,  2-C ) :   1.0861
B(  1-C ,  3-C ) :   0.1381 B(  1-C ,  4-C ) :   0.1409 B(  1-C ,  5-C ) :   0.1077
B(  1-C ,  6-H ) :  -0.1566 B(  1-C ,  7-H ) :   1.0969 B(  1-C , 11-C ) :  -0.5118
B(  2-C ,  3-C ) :   1.1118 B(  2-C ,  4-C ) :  -0.3641 B(  2-C ,  7-H ) :  -0.1111
B(  2-C , 11-C ) :   0.7328 B(  2-C , 12-C ) :  -0.5246 B(  3-C ,  4-C ) :   1.2623
B(  3-C ,  8-H ) :   1.0039 B(  3-C ,  9-H ) :  -0.1322 B(  3-C , 11-C ) :  -0.2863
B(  3-C , 12-C ) :  -0.1237 B(  4-C ,  5-C ) :   1.1608 B(  4-C ,  9-H ) :   1.1321
B(  5-C ,  6-H ) :  -0.1073 B(  5-C , 10-H ) :   0.9720 B( 11-C , 12-C ) :   1.3688
B( 11-C , 30-H ) :   0.9733 B( 12-C , 28-N ) :   1.2255 B( 12-C , 29-H ) :   0.8949
B( 13-C , 15-C ) :   0.8887 B( 13-C , 16-H ) :   0.9152 B( 13-C , 17-H ) :   0.9711
B( 13-C , 28-N ) :   0.7758 B( 14-C , 18-C ) :   0.7532 B( 14-C , 19-H ) :   0.9250
B( 14-C , 20-H ) :   0.9975 B( 14-C , 21-C ) :  -0.1285 B( 14-C , 28-N ) :   0.8525
B( 15-C , 21-C ) :   0.9382 B( 15-C , 22-H ) :   0.9490 B( 15-C , 23-H ) :   0.9834
B( 18-C , 21-C ) :   0.9953 B( 18-C , 24-H ) :   0.9752 B( 18-C , 25-H ) :   0.9769
B( 21-C , 26-H ) :   0.9142 B( 21-C , 27-H ) :   1.0304

MP2 TOTAL ENERGY:     -559.331724576 Eh
FINAL SINGLE POINT ENERGY      -559.331724576450

DIPOLE MOMENT
-------------
                                X             Y             Z
Electronic contribution:    -13.73349       0.40468      -0.66115
Nuclear contribution   :     14.68850      -0.32896       0.81379
                        -----------------------------------------
Total Dipole Moment    :      0.95501       0.07572       0.15265
                        -----------------------------------------
Magnitude (a.u.)       :      0.97010
Magnitude (Debye)      :      2.46579

Rotational constants in cm-1:     0.080678     0.008574     0.007987
Rotational constants in MHz :  2418.664114   257.038795   239.445831

                             ****ORCA TERMINATED NORMALLY****
TOTAL RUN TIME: 0 days 3 hours 24 minutes 55 seconds 175 msec
