                         Program Version 4.2.1 -  RELEASE  -
|  1> %pal
|  2>  nprocs 32
|  3> end
|  4> !RI-MP2 aug-cc-pVQZ aug-cc-pVQZ/C TightSCF
|  5> %maxcore 4500
|  6> *xyzfile 0 1  10_53P.xyz
|  7>
|  8>
|  9>                          ****END OF INPUT****

CARTESIAN COORDINATES (ANGSTROEM)
---------------------------------
  C      0.166942    1.373663    1.284477
  N     -0.412046    0.058528    1.077348
  C      0.379465   -1.095988    1.453088
  C      1.421455   -1.551286    0.427723
  C      2.686376   -0.703281    0.378821
  C      2.686401    0.704638   -0.354184
  C      1.406383    1.261261   -0.962245
  C      0.570262    2.102397   -0.000852
  C      3.706800   -1.104369   -0.667223
  C      3.689007    0.068275   -1.295132
  C     -1.611218   -0.090850    0.401623
  C     -2.488915    0.994400    0.235730
  C     -3.699773    0.840699   -0.417273
  C     -4.087032   -0.388372   -0.933196
  C     -3.226754   -1.465652   -0.782149
  C     -2.009149   -1.327105   -0.135182
  H     -0.513373    2.006803    1.865585
  H      1.049234    1.231290    1.909913
  H      0.885436   -0.861481    2.395514
  H     -0.301295   -1.918153    1.677845
  H      0.965411   -1.609579   -0.563959
  H      1.725100   -2.572906    0.685167
  H      1.680084    1.890114   -1.815452
  H      0.799409    0.450599   -1.373375
  H      1.130368    2.998801    0.287833
  H     -0.321881    2.450112   -0.525561
  H     -2.232705    1.965117    0.634995
  H     -4.352487    1.700281   -0.518525
  H     -5.033976   -0.501780   -1.444982
  H     -3.497830   -2.435621   -1.183121
  H     -1.360451   -2.188196   -0.064032
  H      4.215419    0.461808   -2.157143
  H      4.253153   -2.027458   -0.822989
  H      3.106641   -0.635246    1.389792
  H      3.146549    1.475212    0.276902

 Total Charge           Charge          ....    0
 Multiplicity           Mult            ....    1
 Number of Electrons    NEL             ....  116
 Basis Dimension        Dim             .... 2154

ORBITAL ENERGIES
----------------

  NO   OCC          E(Eh)            E(eV)
   0   2.0000     -15.556372      -423.3104
   1   2.0000     -11.272758      -306.7474
   2   2.0000     -11.254988      -306.2638
   3   2.0000     -11.254939      -306.2625
   4   2.0000     -11.231942      -305.6367
   5   2.0000     -11.229789      -305.5781
   6   2.0000     -11.226484      -305.4881
   7   2.0000     -11.226419      -305.4864
   8   2.0000     -11.224611      -305.4372
   9   2.0000     -11.222854      -305.3894
  10   2.0000     -11.218763      -305.2781
  11   2.0000     -11.215920      -305.2007
  12   2.0000     -11.214062      -305.1501
  13   2.0000     -11.213737      -305.1413
  14   2.0000     -11.213421      -305.1327
  15   2.0000     -11.209095      -305.0150
  16   2.0000      -1.257543       -34.2195
  17   2.0000      -1.160781       -31.5865
  18   2.0000      -1.132977       -30.8299
  19   2.0000      -1.065669       -28.9983
  20   2.0000      -1.031853       -28.0781
  21   2.0000      -1.007234       -27.4082
  22   2.0000      -0.989726       -26.9318
  23   2.0000      -0.951381       -25.8884
  24   2.0000      -0.894933       -24.3524
  25   2.0000      -0.864393       -23.5213
  26   2.0000      -0.824546       -22.4370
  27   2.0000      -0.808797       -22.0085
  28   2.0000      -0.801105       -21.7992
  29   2.0000      -0.762697       -20.7540
  30   2.0000      -0.708465       -19.2783
  31   2.0000      -0.694555       -18.8998
  32   2.0000      -0.684519       -18.6267
  33   2.0000      -0.656858       -17.8740
  34   2.0000      -0.649039       -17.6612
  35   2.0000      -0.632075       -17.1996
  36   2.0000      -0.619687       -16.8626
  37   2.0000      -0.604721       -16.4553
  38   2.0000      -0.594886       -16.1877
  39   2.0000      -0.581824       -15.8322
  40   2.0000      -0.576935       -15.6992
  41   2.0000      -0.566887       -15.4258
  42   2.0000      -0.553182       -15.0529
  43   2.0000      -0.533153       -14.5078
  44   2.0000      -0.526384       -14.3236
  45   2.0000      -0.507434       -13.8080
  46   2.0000      -0.501028       -13.6337
  47   2.0000      -0.497290       -13.5319
  48   2.0000      -0.491809       -13.3828
  49   2.0000      -0.480028       -13.0622
  50   2.0000      -0.472800       -12.8655
  51   2.0000      -0.458183       -12.4678
  52   2.0000      -0.436044       -11.8654
  53   2.0000      -0.425490       -11.5782
  54   2.0000      -0.396748       -10.7961
  55   2.0000      -0.351603        -9.5676
  56   2.0000      -0.331953        -9.0329
  57   2.0000      -0.274864        -7.4794
  58   0.0000       0.022673         0.6170
  59   0.0000       0.025438         0.6922
  60   0.0000       0.027313         0.7432
  61   0.0000       0.027783         0.7560
  62   0.0000       0.035348         0.9619

MULLIKEN ATOMIC CHARGES
-----------------------
   0 C :   -0.428656
   1 N :    0.126936
   2 C :   -0.580687
   3 C :   -0.431630
   4 C :    0.075335
   5 C :    0.254983
   6 C :   -0.638972
   7 C :   -0.548611
   8 C :   -0.643191
   9 C :   -0.708232
  10 C :    1.298579
  11 C :   -0.461240
  12 C :   -0.475093
  13 C :   -0.508569
  14 C :   -0.573803
  15 C :   -0.454733
  16 H :    0.147910
  17 H :    0.205232
  18 H :    0.299121
  19 H :    0.236491
  20 H :    0.298167
  21 H :    0.206834
  22 H :    0.211615
  23 H :    0.283842
  24 H :    0.224335
  25 H :    0.279133
  26 H :    0.185332
  27 H :    0.174829
  28 H :    0.339790
  29 H :    0.177476
  30 H :    0.207671
  31 H :    0.337968
  32 H :    0.301830
  33 H :    0.282365
  34 H :    0.297643
Sum of atomic charges:    0.0000000

LOEWDIN ATOMIC CHARGES
----------------------
   0 C :    0.389425
   1 N :    0.514020
   2 C :    0.393694
   3 C :    0.557962
   4 C :    0.115324
   5 C :    0.112464
   6 C :    0.548612
   7 C :    0.560543
   8 C :    0.430279
   9 C :    0.433731
  10 C :   -0.210670
  11 C :    0.345668
  12 C :    0.342158
  13 C :    0.333064
  14 C :    0.340958
  15 C :    0.352542
  16 H :   -0.270115
  17 H :   -0.302007
  18 H :   -0.279676
  19 H :   -0.308513
  20 H :   -0.289324
  21 H :   -0.256886
  22 H :   -0.258353
  23 H :   -0.286053
  24 H :   -0.255589
  25 H :   -0.287893
  26 H :   -0.361664
  27 H :   -0.316767
  28 H :   -0.331722
  29 H :   -0.317580
  30 H :   -0.358112
  31 H :   -0.277875
  32 H :   -0.278278
  33 H :   -0.259716
  34 H :   -0.263651

  Mayer bond orders larger than 0.100000
B(  0-C ,  1-N ) :   0.8434 B(  0-C ,  7-C ) :   0.8687 B(  0-C , 16-H ) :   1.0697
B(  0-C , 17-H ) :   0.9897 B(  1-N ,  2-C ) :   1.0347 B(  1-N ,  3-C ) :  -0.1785
B(  1-N ,  7-C ) :  -0.1483 B(  1-N , 10-C ) :   0.7659 B(  1-N , 11-C ) :  -0.1647
B(  1-N , 15-C ) :  -0.1264 B(  2-C ,  3-C ) :   0.8960 B(  2-C , 15-C ) :  -0.1078
B(  2-C , 18-H ) :   0.9301 B(  2-C , 19-H ) :   1.0119 B(  3-C ,  4-C ) :   0.6006
B(  3-C , 20-H ) :   0.9142 B(  3-C , 21-H ) :   1.0590 B(  4-C ,  5-C ) :   0.6461
B(  4-C ,  8-C ) :   0.9233 B(  4-C ,  9-C ) :  -0.3041 B(  4-C , 21-H ) :  -0.1384
B(  4-C , 33-H ) :   0.9414 B(  5-C ,  6-C ) :   0.7324 B(  5-C ,  7-C ) :  -0.1514
B(  5-C ,  8-C ) :  -0.4112 B(  5-C ,  9-C ) :   0.8272 B(  5-C , 34-H ) :   0.9004
B(  6-C ,  7-C ) :   0.8595 B(  6-C , 22-H ) :   1.0413 B(  6-C , 23-H ) :   0.8841
B(  7-C , 24-H ) :   0.9755 B(  7-C , 25-H ) :   0.9724 B(  8-C ,  9-C ) :   2.0265
B(  8-C , 32-H ) :   1.0670 B(  9-C , 31-H ) :   0.9846 B( 10-C , 11-C ) :   0.8393
B( 10-C , 12-C ) :  -0.4180 B( 10-C , 13-C ) :  -0.1336 B( 10-C , 14-C ) :  -0.4812
B( 10-C , 15-C ) :   1.0008 B( 11-C , 12-C ) :   1.2714 B( 11-C , 14-C ) :   0.1417
B( 11-C , 26-H ) :   1.0436 B( 11-C , 27-H ) :  -0.1901 B( 11-C , 28-H ) :  -0.1088
B( 12-C , 13-C ) :   1.1963 B( 12-C , 27-H ) :   1.2585 B( 13-C , 14-C ) :   1.2556
B( 13-C , 27-H ) :  -0.1206 B( 13-C , 28-H ) :   1.0182 B( 13-C , 29-H ) :  -0.1267
B( 14-C , 15-C ) :   1.2367 B( 14-C , 28-H ) :  -0.1015 B( 14-C , 29-H ) :   1.2274
B( 15-C , 29-H ) :  -0.1602 B( 15-C , 30-H ) :   1.0145

MP2 TOTAL ENERGY:     -636.559764077 Eh
FINAL SINGLE POINT ENERGY      -636.559764076880

DIPOLE MOMENT
-------------
                                X             Y             Z
Electronic contribution:     -4.83992      -1.81936      -0.45076
Nuclear contribution   :      5.45386       1.92001       0.67477
                        -----------------------------------------
Total Dipole Moment    :      0.61393       0.10065       0.22401
                        -----------------------------------------
Magnitude (a.u.)       :      0.66123
Magnitude (Debye)      :      1.68071

Rotational constants in cm-1:     0.036879     0.011291     0.010341
Rotational constants in MHz :  1105.617273   338.491002   310.008187

                             ****ORCA TERMINATED NORMALLY****
TOTAL RUN TIME: 0 days 5 hours 54 minutes 24 seconds 736 msec
