                         Program Version 4.2.1 -  RELEASE  -
|  1> %pal
|  2>  nprocs 32
|  3> end
|  4> !RI-MP2 aug-cc-pVQZ aug-cc-pVQZ/C TightSCF
|  5> %maxcore 4500
|  6> *xyzfile -1 1  09_1TS.xyz
|  7>
|  8>
|  9>                          ****END OF INPUT****

CARTESIAN COORDINATES (ANGSTROEM)
---------------------------------
  C     -0.554517    0.000000    0.182533
  C     -0.834878   -1.276212   -0.623662
  H     -0.366699   -1.261971   -1.610833
  H     -1.922141   -1.366356   -0.736601
  H     -0.473471   -2.138046   -0.063129
  C     -0.834872    1.276214   -0.623662
  H     -0.366695    1.261971   -1.610833
  H     -0.473461    2.138046   -0.063130
  H     -1.922136    1.366363   -0.736600
  C      1.379770   -0.000003   -0.000483
  N      2.539704   -0.000001    0.015069
  O     -0.898293    0.000001    1.388411

 Total Charge           Charge          ....   -1
 Multiplicity           Mult            ....    1
 Number of Electrons    NEL             ....   46
 Basis Dimension        Dim             ....  756

ORBITAL ENERGIES
----------------

  NO   OCC          E(Eh)            E(eV)
   0   2.0000     -20.299350      -552.3734
   1   2.0000     -15.346233      -417.5922
   2   2.0000     -11.165339      -303.8243
   3   2.0000     -11.068303      -301.1838
   4   2.0000     -11.068285      -301.1833
   5   2.0000     -11.033769      -300.2441
   6   2.0000      -1.149200       -31.2713
   7   2.0000      -0.994881       -27.0721
   8   2.0000      -0.863644       -23.5009
   9   2.0000      -0.793430       -21.5903
  10   2.0000      -0.579580       -15.7712
  11   2.0000      -0.486062       -13.2264
  12   2.0000      -0.449147       -12.2219
  13   2.0000      -0.446963       -12.1625
  14   2.0000      -0.400689       -10.9033
  15   2.0000      -0.388087       -10.5604
  16   2.0000      -0.370492       -10.0816
  17   2.0000      -0.359656        -9.7867
  18   2.0000      -0.327607        -8.9146
  19   2.0000      -0.258735        -7.0405
  20   2.0000      -0.258526        -7.0349
  21   2.0000      -0.204583        -5.5670
  22   2.0000      -0.201811        -5.4916
  23   0.0000       0.111317         3.0291
  24   0.0000       0.118330         3.2199
  25   0.0000       0.126346         3.4381
  26   0.0000       0.132650         3.6096
  27   0.0000       0.136660         3.7187

MULLIKEN ATOMIC CHARGES
-----------------------
   0 C :    1.339502
   1 C :   -1.043120
   2 H :    0.230868
   3 H :    0.309269
   4 H :    0.288196
   5 C :   -1.043121
   6 H :    0.230869
   7 H :    0.288194
   8 H :    0.309270
   9 C :    0.020213
  10 N :   -0.768744
  11 O :   -1.161397
Sum of atomic charges:   -1.0000000

LOEWDIN ATOMIC CHARGES
----------------------
   0 C :   -1.040858
   1 C :    0.772108
   2 H :   -0.326320
   3 H :   -0.307143
   4 H :   -0.323683
   5 C :    0.772108
   6 H :   -0.326321
   7 H :   -0.323684
   8 H :   -0.307142
   9 C :   -0.347902
  10 N :    0.157103
  11 O :    0.601732

  Mayer bond orders larger than 0.100000
B(  0-C ,  1-C ) :   0.8493 B(  0-C ,  5-C ) :   0.8493 B(  0-C ,  9-C ) :   0.3990
B(  0-C , 11-O ) :   0.7440 B(  1-C ,  2-H ) :   0.9943 B(  1-C ,  3-H ) :   0.8857
B(  1-C ,  4-H ) :   0.9391 B(  1-C , 11-O ) :   0.1502 B(  5-C ,  6-H ) :   0.9943
B(  5-C ,  7-H ) :   0.9391 B(  5-C ,  8-H ) :   0.8857 B(  5-C , 11-O ) :   0.1502
B(  9-C , 10-N ) :   2.4456 B(  9-C , 11-O ) :   0.1001

MP2 TOTAL ENERGY:     -285.567703819 Eh
FINAL SINGLE POINT ENERGY      -285.567703819327

DIPOLE MOMENT
-------------
                                X             Y             Z
Electronic contribution:      3.98191      -0.00001       3.40836
Nuclear contribution   :     -5.55113       0.00001      -4.82285
                        -----------------------------------------
Total Dipole Moment    :     -1.56922       0.00000      -1.41449
                        -----------------------------------------
Magnitude (a.u.)       :      2.11264
Magnitude (Debye)      :      5.36990

Rotational constants in cm-1:     0.165611     0.083859     0.080327
Rotational constants in MHz :  4964.880596  2514.038188  2408.147798

                             ****ORCA TERMINATED NORMALLY****
TOTAL RUN TIME: 0 days 0 hours 10 minutes 25 seconds 946 msec
