                         Program Version 4.2.1 -  RELEASE  -
|  1> %pal
|  2>  nprocs 32
|  3> end
|  4> !RI-MP2 aug-cc-pVQZ aug-cc-pVQZ/C TightSCF
|  5> %maxcore 4500
|  6> *xyzfile -1 1  09_19P.xyz
|  7>
|  8>
|  9>                          ****END OF INPUT****

CARTESIAN COORDINATES (ANGSTROEM)
---------------------------------
  C     -3.672693   -1.045470   -0.127380
  C     -3.750010   -0.646252    1.202956
  C     -2.802111    0.232446    1.707908
  C     -1.785163    0.714614    0.891513
  C     -1.695565    0.316597   -0.435651
  C     -2.651588   -0.567113   -0.934019
  H     -2.579803   -0.888939   -1.968135
  H     -4.409133   -1.731560   -0.532372
  H     -4.545982   -1.018082    1.838985
  H     -2.853118    0.547082    2.744668
  H     -1.045175    1.411949    1.265860
  C     -0.565680    0.803947   -1.353330
  C      0.235593    1.963059   -0.874315
  C      1.339583    1.793208   -0.067282
  C      1.753996    0.349748    0.089926
  C      1.202078   -0.648230   -0.719586
  C      1.648038   -1.962750   -0.635151
  C      2.640564   -2.297974    0.275595
  C      3.190881   -1.321103    1.098359
  C      2.747347   -0.009309    0.991845
  H      3.168436    0.793875    1.585741
  H      2.979268   -3.326524    0.344414
  H      3.966354   -1.581181    1.810756
  H      1.200015   -2.705401   -1.284882
  O      0.247103   -0.366917   -1.644169
  O      2.036625    2.673720    0.510446
  H     -1.025294    1.032933   -2.319156
  H     -0.137012    2.958903   -1.084422

 Total Charge           Charge          ....   -1
 Multiplicity           Mult            ....    1
 Number of Electrons    NEL             ....  118
 Basis Dimension        Dim             .... 1866

ORBITAL ENERGIES
----------------

  NO   OCC          E(Eh)            E(eV)
   0   2.0000     -20.440623      -556.2176
   1   2.0000     -20.299841      -552.3868
   2   2.0000     -11.162379      -303.7438
   3   2.0000     -11.158438      -303.6365
   4   2.0000     -11.130620      -302.8796
   5   2.0000     -11.129308      -302.8439
   6   2.0000     -11.126263      -302.7610
   7   2.0000     -11.122516      -302.6591
   8   2.0000     -11.118748      -302.5565
   9   2.0000     -11.116351      -302.4913
  10   2.0000     -11.114870      -302.4510
  11   2.0000     -11.112488      -302.3862
  12   2.0000     -11.100380      -302.0567
  13   2.0000     -11.100279      -302.0539
  14   2.0000     -11.097514      -301.9787
  15   2.0000     -11.085497      -301.6517
  16   2.0000     -11.015278      -299.7410
  17   2.0000      -1.270842       -34.5814
  18   2.0000      -1.136028       -30.9129
  19   2.0000      -1.047188       -28.4954
  20   2.0000      -1.018315       -27.7098
  21   2.0000      -0.937145       -25.5010
  22   2.0000      -0.907753       -24.7012
  23   2.0000      -0.898211       -24.4416
  24   2.0000      -0.878835       -23.9143
  25   2.0000      -0.854444       -23.2506
  26   2.0000      -0.758796       -20.6479
  27   2.0000      -0.719461       -19.5775
  28   2.0000      -0.702365       -19.1123
  29   2.0000      -0.697745       -18.9866
  30   2.0000      -0.668893       -18.2015
  31   2.0000      -0.598905       -16.2970
  32   2.0000      -0.573722       -15.6118
  33   2.0000      -0.569251       -15.4901
  34   2.0000      -0.540929       -14.7194
  35   2.0000      -0.532011       -14.4768
  36   2.0000      -0.516532       -14.0555
  37   2.0000      -0.500497       -13.6192
  38   2.0000      -0.488905       -13.3038
  39   2.0000      -0.478550       -13.0220
  40   2.0000      -0.467343       -12.7171
  41   2.0000      -0.460557       -12.5324
  42   2.0000      -0.430517       -11.7150
  43   2.0000      -0.424688       -11.5564
  44   2.0000      -0.405746       -11.0409
  45   2.0000      -0.395972       -10.7749
  46   2.0000      -0.390795       -10.6341
  47   2.0000      -0.382527       -10.4091
  48   2.0000      -0.377134       -10.2623
  49   2.0000      -0.370682       -10.0868
  50   2.0000      -0.351538        -9.5658
  51   2.0000      -0.324164        -8.8209
  52   2.0000      -0.315324        -8.5804
  53   2.0000      -0.230808        -6.2806
  54   2.0000      -0.224858        -6.1187
  55   2.0000      -0.214312        -5.8317
  56   2.0000      -0.204674        -5.5695
  57   2.0000      -0.184981        -5.0336
  58   2.0000      -0.113239        -3.0814
  59   0.0000       0.084390         2.2964
  60   0.0000       0.091926         2.5014
  61   0.0000       0.092973         2.5299
  62   0.0000       0.102095         2.7782
  63   0.0000       0.102768         2.7964

MULLIKEN ATOMIC CHARGES
-----------------------
   0 C :   -0.329434
   1 C :   -0.368961
   2 C :   -0.414722
   3 C :   -0.473825
   4 C :    0.289839
   5 C :   -0.627282
   6 H :    0.250094
   7 H :    0.231516
   8 H :    0.333454
   9 H :    0.215409
  10 H :    0.435390
  11 C :    0.601102
  12 C :   -0.999389
  13 C :    1.537758
  14 C :   -0.170981
  15 C :    1.299224
  16 C :   -0.668596
  17 C :   -0.405969
  18 C :   -0.488012
  19 C :   -0.560049
  20 H :    0.177005
  21 H :    0.221412
  22 H :    0.246430
  23 H :    0.262621
  24 O :   -0.984155
  25 O :   -1.175511
  26 H :    0.404025
  27 H :    0.161609
Sum of atomic charges:   -1.0000000

LOEWDIN ATOMIC CHARGES
----------------------
   0 C :    0.324189
   1 C :    0.312113
   2 C :    0.341065
   3 C :    0.345582
   4 C :   -0.087913
   5 C :    0.332042
   6 H :   -0.316124
   7 H :   -0.331897
   8 H :   -0.334783
   9 H :   -0.326544
  10 H :   -0.339484
  11 C :   -0.287027
  12 C :    0.247556
  13 C :   -0.823570
  14 C :   -0.168058
  15 C :   -0.497280
  16 C :    0.308599
  17 C :    0.298791
  18 C :    0.318924
  19 C :    0.302345
  20 H :   -0.355864
  21 H :   -0.336231
  22 H :   -0.341652
  23 H :   -0.335685
  24 O :    0.886665
  25 O :    0.572473
  26 H :   -0.350526
  27 H :   -0.357707

  Mayer bond orders larger than 0.100000
B(  0-C ,  1-C ) :   1.1152 B(  0-C ,  3-C ) :   0.1095 B(  0-C ,  4-C ) :  -0.3891
B(  0-C ,  5-C ) :   1.4302 B(  0-C ,  7-H ) :   1.1476 B(  1-C ,  2-C ) :   1.2027
B(  1-C ,  5-C ) :   0.1343 B(  1-C ,  7-H ) :  -0.1118 B(  1-C ,  8-H ) :   1.0058
B(  2-C ,  3-C ) :   1.2451 B(  2-C ,  4-C ) :  -0.4012 B(  2-C ,  5-C ) :   0.1377
B(  2-C ,  9-H ) :   1.1640 B(  3-C ,  4-C ) :   1.1012 B(  3-C ,  9-H ) :  -0.1362
B(  3-C , 10-H ) :   0.8216 B(  3-C , 11-C ) :  -0.1654 B(  4-C ,  5-C ) :   0.8609
B(  4-C , 11-C ) :   0.3773 B(  4-C , 12-C ) :   0.2055 B(  4-C , 24-O ) :   0.1636
B(  4-C , 26-H ) :  -0.1175 B(  5-C ,  6-H ) :   1.0260 B(  5-C ,  7-H ) :  -0.1478
B(  5-C , 11-C ) :  -0.1742 B( 11-C , 12-C ) :   1.0472 B( 11-C , 13-C ) :  -0.1688
B( 11-C , 14-C ) :   0.1415 B( 11-C , 24-O ) :   0.4708 B( 11-C , 26-H ) :   0.8902
B( 12-C , 13-C ) :   1.6437 B( 12-C , 14-C ) :  -0.1911 B( 12-C , 25-O ) :   0.4322
B( 12-C , 27-H ) :   1.0578 B( 13-C , 14-C ) :   0.9733 B( 13-C , 15-C ) :  -0.2385
B( 13-C , 19-C ) :  -0.2302 B( 14-C , 15-C ) :   1.0062 B( 14-C , 16-C ) :  -0.2526
B( 14-C , 18-C ) :  -0.2804 B( 14-C , 19-C ) :   1.0672 B( 14-C , 24-O ) :   0.3554
B( 14-C , 25-O ) :   0.4569 B( 15-C , 16-C ) :   0.9780 B( 15-C , 17-C ) :  -0.4096
B( 15-C , 19-C ) :  -0.2243 B( 15-C , 24-O ) :   0.2335 B( 16-C , 17-C ) :   1.3576
B( 16-C , 18-C ) :   0.1348 B( 16-C , 19-C ) :   0.1943 B( 16-C , 21-H ) :  -0.1813
B( 16-C , 23-H ) :   0.9703 B( 17-C , 18-C ) :   1.2518 B( 17-C , 21-H ) :   1.1834
B( 18-C , 19-C ) :   1.2931 B( 18-C , 22-H ) :   1.1151 B( 19-C , 20-H ) :   1.0554
B( 19-C , 22-H ) :  -0.1569 B( 20-H , 25-O ) :   0.1494 B( 25-O , 27-H ) :   0.1156

MP2 TOTAL ENERGY:     -727.486973573 Eh
FINAL SINGLE POINT ENERGY      -727.486973573367

DIPOLE MOMENT
-------------
                                X             Y             Z
Electronic contribution:      2.96954       1.74938      -2.27803
Nuclear contribution   :     -5.16282      -4.40016       2.34604
                        -----------------------------------------
Total Dipole Moment    :     -2.19328      -2.65079       0.06801
                        -----------------------------------------
Magnitude (a.u.)       :      3.44119
Magnitude (Debye)      :      8.74680

Rotational constants in cm-1:     0.026426     0.012248     0.010749
Rotational constants in MHz :   792.219284   367.200291   322.235780

                             ****ORCA TERMINATED NORMALLY****
TOTAL RUN TIME: 0 days 3 hours 43 minutes 53 seconds 208 msec
