                         Program Version 4.2.1 -  RELEASE  -
|  1> %pal
|  2>  nprocs 32
|  3> end
|  4> !RI-MP2 aug-cc-pVQZ aug-cc-pVQZ/C TightSCF
|  5> %maxcore 4500
|  6> *xyzfile -1 1  10_34P.xyz
|  7>
|  8>
|  9>                          ****END OF INPUT****

CARTESIAN COORDINATES (ANGSTROEM)
---------------------------------
  C     -4.825412    0.170655    0.294560
  C     -3.582617    0.899726   -0.206471
  C     -2.283952    0.135140   -0.011116
  C     -2.327744   -1.301770   -0.167807
  C     -3.624421   -2.002892    0.203690
  C     -4.871833   -1.251718   -0.245621
  H     -3.731834    1.128207   -1.276138
  H     -3.484019    1.869839    0.281898
  H     -4.808129    0.130615    1.391344
  H     -5.728295    0.724188    0.009631
  H     -3.616437   -3.018203   -0.203403
  H     -3.663474   -2.096075    1.298000
  H     -4.906187   -1.222998   -1.342023
  H     -5.773950   -1.776798    0.091042
  C      0.789649   -0.947788    0.253612
  C      0.242473    0.477564    0.610008
  C     -1.159917    0.955773    0.169318
  C     -1.318298   -2.079235   -0.610629
  C      0.023970   -1.533968   -0.952161
  H      0.201663    0.542389    1.703428
  H     -0.076854   -0.716908   -1.680202
  H      0.630765   -2.309556   -1.425492
  O     -1.259723    2.218321    0.149877
  C      1.390544    1.452764    0.243260
  C      2.291586   -0.724081   -0.145082
  H      2.307287   -0.586494   -1.233827
  C      2.639201    0.622848    0.468739
  H      2.805623    0.535807    1.547897
  H      3.499628    1.120469    0.021771
  C      0.647069   -1.837155    1.493796
  H     -0.392997   -1.838706    1.819417
  H      0.933437   -2.875137    1.307402
  H      1.259312   -1.455554    2.316720
  C      3.299141   -1.837367    0.184295
  H      3.227727   -2.058199    1.255083
  C      4.733773   -1.378754   -0.093739
  H      5.023837   -0.536546    0.535606
  H      5.442145   -2.192875    0.087189
  H      4.842949   -1.067110   -1.137850
  C      3.040257   -3.133611   -0.585761
  H      2.060206   -3.557388   -0.372910
  H      3.095036   -2.954692   -1.664291
  H      3.793942   -3.886386   -0.334122
  O      1.376247    1.868470   -1.114078
  O      1.471600    2.633634    1.011669
  C      1.023109    3.741268    0.247252
  H      0.038997    4.054256    0.590543
  H      1.758479    4.543748    0.368326
  C      0.949164    3.219938   -1.193584
  H     -0.073987    3.265999   -1.563807
  H      1.633420    3.743501   -1.869467
  H     -1.457734   -3.156802   -0.640862

 Total Charge           Charge          ....   -1
 Multiplicity           Mult            ....    1
 Number of Electrons    NEL             ....  174
 Basis Dimension        Dim             .... 3174

ORBITAL ENERGIES
----------------

  NO   OCC          E(Eh)            E(eV)
   0   2.0000     -20.425936      -555.8180
   1   2.0000     -20.425566      -555.8079
   2   2.0000     -20.309389      -552.6466
   3   2.0000     -11.199583      -304.7561
   4   2.0000     -11.144479      -303.2567
   5   2.0000     -11.143199      -303.2219
   6   2.0000     -11.128645      -302.8258
   7   2.0000     -11.125101      -302.7294
   8   2.0000     -11.119880      -302.5873
   9   2.0000     -11.116237      -302.4882
  10   2.0000     -11.105791      -302.2039
  11   2.0000     -11.103646      -302.1456
  12   2.0000     -11.094918      -301.9081
  13   2.0000     -11.093197      -301.8612
  14   2.0000     -11.091080      -301.8036
  15   2.0000     -11.089375      -301.7572
  16   2.0000     -11.085265      -301.6454
  17   2.0000     -11.084918      -301.6359
  18   2.0000     -11.084271      -301.6184
  19   2.0000     -11.078967      -301.4740
  20   2.0000     -11.059894      -300.9550
  21   2.0000     -11.050343      -300.6951
  22   2.0000     -11.023201      -299.9566
  23   2.0000      -1.303856       -35.4797
  24   2.0000      -1.197814       -32.5942
  25   2.0000      -1.152650       -31.3652
  26   2.0000      -1.029759       -28.0212
  27   2.0000      -0.986273       -26.8378
  28   2.0000      -0.965070       -26.2609
  29   2.0000      -0.933541       -25.4030
  30   2.0000      -0.894507       -24.3408
  31   2.0000      -0.867301       -23.6005
  32   2.0000      -0.858666       -23.3655
  33   2.0000      -0.836106       -22.7516
  34   2.0000      -0.832936       -22.6653
  35   2.0000      -0.815897       -22.2017
  36   2.0000      -0.774302       -21.0698
  37   2.0000      -0.732869       -19.9424
  38   2.0000      -0.722598       -19.6629
  39   2.0000      -0.717253       -19.5174
  40   2.0000      -0.679626       -18.4936
  41   2.0000      -0.654027       -17.7970
  42   2.0000      -0.639902       -17.4126
  43   2.0000      -0.624561       -16.9952
  44   2.0000      -0.594460       -16.1761
  45   2.0000      -0.561045       -15.2668
  46   2.0000      -0.558255       -15.1909
  47   2.0000      -0.535628       -14.5752
  48   2.0000      -0.530763       -14.4428
  49   2.0000      -0.519284       -14.1304
  50   2.0000      -0.504713       -13.7339
  51   2.0000      -0.499809       -13.6005
  52   2.0000      -0.487170       -13.2566
  53   2.0000      -0.480032       -13.0623
  54   2.0000      -0.471433       -12.8283
  55   2.0000      -0.462705       -12.5909
  56   2.0000      -0.456740       -12.4285
  57   2.0000      -0.454082       -12.3562
  58   2.0000      -0.452204       -12.3051
  59   2.0000      -0.443491       -12.0680
  60   2.0000      -0.440378       -11.9833
  61   2.0000      -0.430462       -11.7135
  62   2.0000      -0.420431       -11.4405
  63   2.0000      -0.416800       -11.3417
  64   2.0000      -0.410706       -11.1759
  65   2.0000      -0.399995       -10.8844
  66   2.0000      -0.399540       -10.8720
  67   2.0000      -0.387097       -10.5334
  68   2.0000      -0.382563       -10.4101
  69   2.0000      -0.381057       -10.3691
  70   2.0000      -0.378643       -10.3034
  71   2.0000      -0.366497        -9.9729
  72   2.0000      -0.361043        -9.8245
  73   2.0000      -0.352204        -9.5840
  74   2.0000      -0.349371        -9.5069
  75   2.0000      -0.339480        -9.2377
  76   2.0000      -0.331108        -9.0099
  77   2.0000      -0.326183        -8.8759
  78   2.0000      -0.320476        -8.7206
  79   2.0000      -0.310138        -8.4393
  80   2.0000      -0.303750        -8.2655
  81   2.0000      -0.293896        -7.9973
  82   2.0000      -0.286870        -7.8061
  83   2.0000      -0.260074        -7.0770
  84   2.0000      -0.225772        -6.1436
  85   2.0000      -0.206482        -5.6187
  86   2.0000      -0.090112        -2.4521
  87   0.0000       0.081058         2.2057
  88   0.0000       0.089949         2.4476
  89   0.0000       0.091407         2.4873
  90   0.0000       0.094517         2.5719
  91   0.0000       0.096640         2.6297

MULLIKEN ATOMIC CHARGES
-----------------------
   0 C :   -0.620167
   1 C :   -0.396568
   2 C :   -0.122911
   3 C :    0.504021
   4 C :   -0.600274
   5 C :   -0.579752
   6 H :    0.155469
   7 H :    0.270203
   8 H :    0.128027
   9 H :    0.185196
  10 H :    0.224531
  11 H :    0.145297
  12 H :    0.136577
  13 H :    0.195210
  14 C :    1.665963
  15 C :   -0.365158
  16 C :    2.012094
  17 C :   -0.865105
  18 C :   -0.826425
  19 H :    0.039387
  20 H :    0.160136
  21 H :    0.164438
  22 O :   -1.430776
  23 C :    2.811641
  24 C :    1.437428
  25 H :    0.046096
  26 C :   -0.907396
  27 H :    0.258595
  28 H :    0.115315
  29 C :   -1.580232
  30 H :    0.074248
  31 H :    0.101494
  32 H :    0.132918
  33 C :    0.231575
  34 H :   -0.038866
  35 C :   -1.093197
  36 H :    0.162092
  37 H :    0.205839
  38 H :    0.089946
  39 C :   -1.079994
  40 H :    0.252243
  41 H :    0.107635
  42 H :    0.162272
  43 O :   -1.208790
  44 O :   -1.419773
  45 C :   -0.710559
  46 H :    0.381862
  47 H :    0.349705
  48 C :   -0.726188
  49 H :    0.364550
  50 H :    0.374256
  51 H :   -0.074129
Sum of atomic charges:   -1.0000000

LOEWDIN ATOMIC CHARGES
----------------------
   0 C :    0.501705
   1 C :    0.430604
   2 C :   -0.056392
   3 C :   -0.061300
   4 C :    0.479349
   5 C :    0.508677
   6 H :   -0.265167
   7 H :   -0.363586
   8 H :   -0.270658
   9 H :   -0.267883
  10 H :   -0.306070
  11 H :   -0.266311
  12 H :   -0.265482
  13 H :   -0.265547
  14 C :   -0.187623
  15 C :    0.112401
  16 C :   -0.614017
  17 C :    0.370327
  18 C :    0.485857
  19 H :   -0.319302
  20 H :   -0.275361
  21 H :   -0.317834
  22 O :    0.746726
  23 C :   -0.977228
  24 C :    0.139095
  25 H :   -0.290481
  26 C :    0.476407
  27 H :   -0.248361
  28 H :   -0.264245
  29 C :    0.922787
  30 H :   -0.282109
  31 H :   -0.280807
  32 H :   -0.260091
  33 C :    0.134482
  34 H :   -0.294996
  35 C :    0.923126
  36 H :   -0.292143
  37 H :   -0.277960
  38 H :   -0.262794
  39 C :    0.934148
  40 H :   -0.310266
  41 H :   -0.259792
  42 H :   -0.268775
  43 O :    0.926577
  44 O :    0.923493
  45 C :    0.156762
  46 H :   -0.371569
  47 H :   -0.306930
  48 C :    0.163623
  49 H :   -0.356483
  50 H :   -0.304370
  51 H :   -0.324213

  Mayer bond orders larger than 0.100000
B(  0-C ,  1-C ) :   0.8837 B(  0-C ,  2-C ) :  -0.2489 B(  0-C ,  5-C ) :   0.8987
B(  0-C ,  8-H ) :   1.1109 B(  0-C ,  9-H ) :   1.0761 B(  1-C ,  5-C ) :  -0.1073
B(  1-C ,  6-H ) :   1.0164 B(  1-C ,  7-H ) :   0.9855 B(  1-C ,  9-H ) :  -0.1015
B(  1-C , 16-C ) :   0.1117 B(  1-C , 22-O ) :  -0.1991 B(  2-C ,  3-C ) :   1.1133
B(  2-C ,  7-H ) :  -0.1752 B(  2-C , 15-C ) :  -0.3567 B(  2-C , 16-C ) :   0.3403
B(  2-C , 17-C ) :  -0.3691 B(  2-C , 18-C ) :   0.1686 B(  2-C , 22-O ) :   0.6118
B(  3-C ,  4-C ) :   0.2571 B(  3-C ,  5-C ) :  -0.3434 B(  3-C , 10-H ) :  -0.1887
B(  3-C , 14-C ) :   0.2023 B(  3-C , 16-C ) :  -0.4362 B(  3-C , 17-C ) :   1.2970
B(  3-C , 18-C ) :  -0.3373 B(  3-C , 22-O ) :   0.1468 B(  3-C , 29-C ) :  -0.1111
B(  3-C , 51-H ) :  -0.1887 B(  4-C ,  5-C ) :   1.0223 B(  4-C , 10-H ) :   1.0921
B(  4-C , 11-H ) :   1.0360 B(  4-C , 17-C ) :  -0.1100 B(  5-C , 12-H ) :   1.0965
B(  5-C , 13-H ) :   1.0472 B( 14-C , 15-C ) :   0.8045 B( 14-C , 16-C ) :   0.2555
B( 14-C , 20-H ) :  -0.1955 B( 14-C , 21-H ) :  -0.1351 B( 14-C , 24-C ) :   0.9100
B( 14-C , 25-H ) :   0.3068 B( 14-C , 28-H ) :   0.1320 B( 14-C , 29-C ) :  -0.9501
B( 14-C , 30-H ) :  -0.3376 B( 14-C , 31-H ) :  -0.4440 B( 14-C , 32-H ) :  -0.3501
B( 14-C , 33-C ) :   0.1435 B( 15-C , 16-C ) :   0.3875 B( 15-C , 19-H ) :   0.9368
B( 15-C , 22-O ) :   1.2397 B( 15-C , 23-C ) :   1.0077 B( 15-C , 24-C ) :   0.3283
B( 15-C , 26-C ) :  -0.1015 B( 15-C , 43-O ) :   0.1063 B( 15-C , 44-O ) :   0.2640
B( 15-C , 45-C ) :   0.2090 B( 15-C , 48-C ) :   0.1406 B( 15-C , 49-H ) :   0.1281
B( 16-C , 17-C ) :  -0.1046 B( 16-C , 19-H ) :   0.1110 B( 16-C , 22-O ) :  -1.5705
B( 16-C , 23-C ) :   0.1660 B( 16-C , 24-C ) :  -0.1396 B( 16-C , 44-O ) :   0.2005
B( 16-C , 48-C ) :  -0.1541 B( 17-C , 18-C ) :   1.0776 B( 17-C , 21-H ) :  -0.1925
B( 17-C , 51-H ) :   1.3877 B( 18-C , 19-H ) :   0.1395 B( 18-C , 20-H ) :   1.2444
B( 18-C , 21-H ) :   1.2406 B( 19-H , 43-O ) :   0.1168 B( 22-O , 23-C ) :   0.1074
B( 22-O , 44-O ) :   0.1015 B( 23-C , 26-C ) :   1.1149 B( 23-C , 43-O ) :   0.2018
B( 23-C , 44-O ) :  -0.9917 B( 23-C , 45-C ) :  -0.7638 B( 23-C , 46-H ) :  -0.1421
B( 23-C , 48-C ) :  -0.5739 B( 23-C , 49-H ) :  -0.1588 B( 24-C , 25-H ) :   0.9673
B( 24-C , 26-C ) :   0.2314 B( 24-C , 27-H ) :  -0.1206 B( 24-C , 28-H ) :  -0.2912
B( 24-C , 35-C ) :  -0.3923 B( 24-C , 38-H ) :  -0.1320 B( 24-C , 39-C ) :  -0.5126
B( 24-C , 43-O ) :  -0.1648 B( 25-H , 43-O ) :  -0.2108 B( 26-C , 27-H ) :   1.1707
B( 26-C , 28-H ) :   1.1942 B( 26-C , 43-O ) :  -0.1179 B( 28-H , 44-O ) :   0.1710
B( 29-C , 30-H ) :   1.3978 B( 29-C , 31-H ) :   1.4376 B( 29-C , 32-H ) :   1.3288
B( 33-C , 34-H ) :   1.2064 B( 33-C , 35-C ) :   0.3481 B( 33-C , 36-H ) :  -0.1886
B( 33-C , 37-H ) :  -0.1962 B( 33-C , 38-H ) :  -0.1758 B( 33-C , 39-C ) :   0.5224
B( 33-C , 41-H ) :  -0.2485 B( 33-C , 42-H ) :  -0.1568 B( 35-C , 36-H ) :   1.1763
B( 35-C , 37-H ) :   1.1312 B( 35-C , 38-H ) :   1.2260 B( 35-C , 39-C ) :   0.1106
B( 39-C , 40-H ) :   0.9874 B( 39-C , 41-H ) :   1.2258 B( 39-C , 42-H ) :   1.1799
B( 43-O , 44-O ) :   0.1866 B( 43-O , 45-C ) :   0.1535 B( 43-O , 48-C ) :   1.2239
B( 44-O , 45-C ) :   1.1363 B( 44-O , 48-C ) :   0.1549 B( 45-C , 46-H ) :   0.8555
B( 45-C , 47-H ) :   0.8845 B( 45-C , 48-C ) :   1.3902 B( 48-C , 49-H ) :   0.8734
B( 48-C , 50-H ) :   0.8585

MP2 TOTAL ENERGY:    -1003.594608837 Eh
FINAL SINGLE POINT ENERGY     -1003.594608836784

DIPOLE MOMENT
-------------
                                X             Y             Z
Electronic contribution:     -3.07006      14.90835       0.16481
Nuclear contribution   :      4.97989     -15.90658      -0.12113
                        -----------------------------------------
Total Dipole Moment    :      1.90983      -0.99823       0.04368
                        -----------------------------------------
Magnitude (a.u.)       :      2.15542
Magnitude (Debye)      :      5.47864

Rotational constants in cm-1:     0.012781     0.007243     0.005056
Rotational constants in MHz :   383.172383   217.128493   151.571664

                             ****ORCA TERMINATED NORMALLY****
TOTAL RUN TIME: 0 days 20 hours 3 minutes 29 seconds 465 msec
