                         Program Version 4.2.1 -  RELEASE  -
|  1> %pal
|  2>  nprocs 32
|  3> end
|  4> !RI-MP2 aug-cc-pVQZ aug-cc-pVQZ/C TightSCF
|  5> %maxcore 4500
|  6> *xyzfile 1 1  05_8R.xyz
|  7>
|  8>
|  9>                          ****END OF INPUT****

CARTESIAN COORDINATES (ANGSTROEM)
---------------------------------
  C     -3.464900   -0.415541   -0.106613
  C     -2.413983   -1.178327    0.687329
  C     -1.016665   -1.075804    0.062488
  H     -2.387207   -0.785226    1.710863
  H     -2.684868   -2.231796    0.768610
  C     -0.941361   -1.999791   -1.160102
  H     -1.073859   -3.037116   -0.847981
  H      0.016404   -1.931040   -1.674441
  H     -1.721830   -1.772984   -1.889653
  C     -0.691734    0.409327   -0.360108
  C     -1.715886    1.416761   -0.147652
  C     -3.134471    1.064604   -0.061442
  H     -4.461811   -0.573822    0.304573
  H     -3.500228   -0.762692   -1.141517
  C     -1.362799    2.839720   -0.056847
  C      0.032637   -1.490116    1.105709
  C      1.470634   -1.470389    0.584261
  H     -0.220257   -2.490030    1.466512
  H     -0.058751   -0.827625    1.972591
  C      0.750065    0.862481   -0.072594
  H     -0.827770    0.431258   -1.476416
  C      1.762884   -0.256774   -0.327815
  H      0.812556    1.187261    0.970164
  H      1.012710    1.723937   -0.688545
  H      1.692244   -2.384936    0.032561
  H      2.147980   -1.469014    1.439247
  C      3.188382    0.234177   -0.189716
  H      1.642117   -0.565836   -1.369269
  C      4.062630    0.036757   -1.169083
  H      3.781379   -0.458184   -2.091783
  H      5.094493    0.354685   -1.081002
  C      3.567187    0.930588    1.088519
  H      3.286416    0.349146    1.970836
  H      3.074209    1.903689    1.175536
  H      4.641290    1.104403    1.132876
  H     -3.451791    1.517509    0.895147
  H     -3.676233    1.672721   -0.799573
  H     -0.671498    3.123682   -0.854547
  H     -0.790775    2.980918    0.870380
  H     -2.230655    3.495055   -0.053180

 Total Charge           Charge          ....    1
 Multiplicity           Mult            ....    1
 Number of Electrons    NEL             ....  114
 Basis Dimension        Dim             .... 2350

ORBITAL ENERGIES
----------------

  NO   OCC          E(Eh)            E(eV)
   0   2.0000     -11.527458      -313.6781
   1   2.0000     -11.414939      -310.6163
   2   2.0000     -11.411607      -310.5256
   3   2.0000     -11.410206      -310.4875
   4   2.0000     -11.385334      -309.8107
   5   2.0000     -11.370833      -309.4161
   6   2.0000     -11.370347      -309.4029
   7   2.0000     -11.358278      -309.0745
   8   2.0000     -11.349069      -308.8239
   9   2.0000     -11.342699      -308.6505
  10   2.0000     -11.340108      -308.5800
  11   2.0000     -11.333968      -308.4130
  12   2.0000     -11.331561      -308.3475
  13   2.0000     -11.315447      -307.9090
  14   2.0000     -11.307986      -307.7059
  15   2.0000      -1.347762       -36.6745
  16   2.0000      -1.262649       -34.3584
  17   2.0000      -1.234173       -33.5836
  18   2.0000      -1.200518       -32.6677
  19   2.0000      -1.153183       -31.3797
  20   2.0000      -1.136511       -30.9260
  21   2.0000      -1.103945       -30.0399
  22   2.0000      -1.071366       -29.1533
  23   2.0000      -1.035164       -28.1682
  24   2.0000      -1.013784       -27.5865
  25   2.0000      -0.996737       -27.1226
  26   2.0000      -0.937818       -25.5193
  27   2.0000      -0.900297       -24.4983
  28   2.0000      -0.846335       -23.0299
  29   2.0000      -0.833046       -22.6683
  30   2.0000      -0.823685       -22.4136
  31   2.0000      -0.810845       -22.0642
  32   2.0000      -0.797911       -21.7123
  33   2.0000      -0.775219       -21.0948
  34   2.0000      -0.754198       -20.5228
  35   2.0000      -0.747487       -20.3402
  36   2.0000      -0.736322       -20.0363
  37   2.0000      -0.728295       -19.8179
  38   2.0000      -0.717499       -19.5241
  39   2.0000      -0.708013       -19.2660
  40   2.0000      -0.692993       -18.8573
  41   2.0000      -0.687152       -18.6983
  42   2.0000      -0.674006       -18.3406
  43   2.0000      -0.668329       -18.1862
  44   2.0000      -0.659339       -17.9415
  45   2.0000      -0.653657       -17.7869
  46   2.0000      -0.646427       -17.5902
  47   2.0000      -0.641131       -17.4461
  48   2.0000      -0.634098       -17.2547
  49   2.0000      -0.618464       -16.8293
  50   2.0000      -0.610121       -16.6022
  51   2.0000      -0.599689       -16.3184
  52   2.0000      -0.592494       -16.1226
  53   2.0000      -0.568993       -15.4831
  54   2.0000      -0.566066       -15.4034
  55   2.0000      -0.550678       -14.9847
  56   2.0000      -0.449625       -12.2349
  57   0.0000      -0.117970        -3.2101
  58   0.0000      -0.077406        -2.1063
  59   0.0000      -0.063018        -1.7148
  60   0.0000      -0.058107        -1.5812
  61   0.0000      -0.053603        -1.4586

MULLIKEN ATOMIC CHARGES
-----------------------
   0 C :   -0.640160
   1 C :   -0.884866
   2 C :    2.236363
   3 H :    0.181324
   4 H :    0.117862
   5 C :   -1.382977
   6 H :    0.090035
   7 H :    0.271849
   8 H :    0.151839
   9 C :    1.135376
  10 C :   -0.173178
  11 C :   -0.526242
  12 H :    0.205683
  13 H :    0.199225
  14 C :   -0.860292
  15 C :   -0.653234
  16 C :   -0.755666
  17 H :    0.146068
  18 H :    0.074911
  19 C :    0.088946
  20 H :    0.218219
  21 C :    1.017242
  22 H :    0.226773
  23 H :    0.134581
  24 H :    0.067767
  25 H :    0.141884
  26 C :   -0.265921
  27 H :    0.238934
  28 C :   -1.030110
  29 H :    0.138331
  30 H :    0.203117
  31 C :   -0.809302
  32 H :    0.128342
  33 H :    0.205061
  34 H :    0.344991
  35 H :    0.047090
  36 H :    0.255782
  37 H :    0.214599
  38 H :    0.199933
  39 H :    0.299817
Sum of atomic charges:    1.0000000

LOEWDIN ATOMIC CHARGES
----------------------
   0 C :    0.597916
   1 C :    0.548335
   2 C :   -0.177172
   3 H :   -0.249472
   4 H :   -0.240602
   5 C :    0.967215
   6 H :   -0.238299
   7 H :   -0.280137
   8 H :   -0.260659
   9 C :    0.231721
  10 C :    0.186401
  11 C :    0.612476
  12 H :   -0.233387
  13 H :   -0.261482
  14 C :    1.033455
  15 C :    0.555899
  16 C :    0.593401
  17 H :   -0.239197
  18 H :   -0.253710
  19 C :    0.546180
  20 H :   -0.256119
  21 C :    0.140128
  22 H :   -0.266761
  23 H :   -0.257270
  24 H :   -0.242276
  25 H :   -0.273034
  26 C :   -0.014760
  27 H :   -0.323319
  28 C :    0.842501
  29 H :   -0.328867
  30 H :   -0.330264
  31 C :    0.915807
  32 H :   -0.281271
  33 H :   -0.277130
  34 H :   -0.291583
  35 H :   -0.233831
  36 H :   -0.224757
  37 H :   -0.248134
  38 H :   -0.235994
  39 H :   -0.251949

  Mayer bond orders larger than 0.100000
B(  0-C ,  1-C ) :   0.8494 B(  0-C ,  2-C ) :  -0.2145 B(  0-C , 10-C ) :  -0.1620
B(  0-C , 11-C ) :   1.0011 B(  0-C , 12-H ) :   1.0753 B(  0-C , 13-H ) :   1.0701
B(  1-C ,  2-C ) :  -0.4972 B(  1-C ,  3-H ) :   1.3535 B(  1-C ,  4-H ) :   1.3314
B(  1-C ,  9-C ) :  -0.1901 B(  2-C ,  3-H ) :  -0.2964 B(  2-C ,  4-H ) :  -0.2758
B(  2-C ,  5-C ) :  -0.3315 B(  2-C ,  6-H ) :  -0.4041 B(  2-C ,  7-H ) :  -0.1916
B(  2-C ,  8-H ) :  -0.2287 B(  2-C ,  9-C ) :   0.8442 B(  2-C , 10-C ) :   0.1693
B(  2-C , 15-C ) :   0.3401 B(  2-C , 16-C ) :  -0.2774 B(  2-C , 17-H ) :  -0.1329
B(  2-C , 18-H ) :  -0.1126 B(  2-C , 21-C ) :   0.1008 B(  5-C ,  6-H ) :   1.4147
B(  5-C ,  7-H ) :   1.1031 B(  5-C ,  8-H ) :   1.2718 B(  5-C , 21-C ) :  -0.1070
B(  9-C , 10-C ) :  -0.6900 B(  9-C , 11-C ) :  -0.2738 B(  9-C , 14-C ) :  -0.1239
B(  9-C , 19-C ) :   1.2181 B(  9-C , 20-H ) :   0.7655 B(  9-C , 22-H ) :   0.1163
B( 10-C , 11-C ) :   0.3701 B( 10-C , 14-C ) :   0.7723 B( 10-C , 19-C ) :  -0.4043
B( 10-C , 20-H ) :   0.2274 B( 10-C , 21-C ) :  -0.1277 B( 10-C , 22-H ) :  -0.1064
B( 10-C , 35-H ) :  -0.1541 B( 10-C , 36-H ) :  -0.2291 B( 10-C , 37-H ) :  -0.1142
B( 10-C , 38-H ) :  -0.1321 B( 11-C , 35-H ) :   1.2194 B( 11-C , 36-H ) :   1.0496
B( 14-C , 37-H ) :   1.1180 B( 14-C , 38-H ) :   1.0503 B( 14-C , 39-H ) :   0.9634
B( 15-C , 16-C ) :   0.8006 B( 15-C , 17-H ) :   1.1775 B( 15-C , 18-H ) :   1.2889
B( 15-C , 25-H ) :  -0.1779 B( 16-C , 17-H ) :  -0.1379 B( 16-C , 21-C ) :   0.5034
B( 16-C , 24-H ) :   1.3061 B( 16-C , 25-H ) :   1.1549 B( 19-C , 21-C ) :   0.8965
B( 19-C , 22-H ) :   0.8946 B( 19-C , 23-H ) :   0.9685 B( 19-C , 26-C ) :  -0.2088
B( 19-C , 28-C ) :  -0.1698 B( 21-C , 24-H ) :  -0.2155 B( 21-C , 25-H ) :  -0.1119
B( 21-C , 27-H ) :   1.0379 B( 21-C , 28-C ) :  -0.5255 B( 23-H , 26-C ) :   0.1056
B( 26-C , 28-C ) :   1.7354 B( 26-C , 29-H ) :  -0.2370 B( 26-C , 30-H ) :  -0.1510
B( 26-C , 31-C ) :   0.6489 B( 26-C , 32-H ) :  -0.1258 B( 28-C , 29-H ) :   1.2769
B( 28-C , 30-H ) :   1.1489 B( 28-C , 31-C ) :   0.1124 B( 31-C , 32-H ) :   1.1544
B( 31-C , 33-H ) :   1.0007 B( 31-C , 34-H ) :   0.9380 B( 35-H , 36-H ) :   0.1156

MP2 TOTAL ENERGY:     -585.235193281 Eh
FINAL SINGLE POINT ENERGY      -585.235193280776

DIPOLE MOMENT
-------------
                                X             Y             Z
Electronic contribution:     -1.94725       1.09969      -0.87700
Nuclear contribution   :     -0.58445       0.58259       0.78034
                        -----------------------------------------
Total Dipole Moment    :     -2.53170       1.68228      -0.09667
                        -----------------------------------------
Magnitude (a.u.)       :      3.04120
Magnitude (Debye)      :      7.73012

Rotational constants in cm-1:     0.034339     0.013436     0.011138
Rotational constants in MHz :  1029.442772   402.798195   333.896110

                             ****ORCA TERMINATED NORMALLY****
TOTAL RUN TIME: 0 days 7 hours 54 minutes 57 seconds 167 msec
