                         Program Version 4.2.1 -  RELEASE  -
|  1> %pal
|  2>  nprocs 32
|  3> end
|  4> !RI-MP2 aug-cc-pVQZ aug-cc-pVQZ/C TightSCF
|  5> %maxcore 4500
|  6> *xyzfile 0 1  10_42TS.xyz
|  7>
|  8>
|  9>                          ****END OF INPUT****

CARTESIAN COORDINATES (ANGSTROEM)
---------------------------------
  C     -0.778080   -1.839727    0.141397
  H     -0.911309   -2.860510   -0.219439
  H     -0.964670   -1.854478    1.235592
  C     -1.792677   -0.924185   -0.508152
  C     -0.047928    0.837823   -0.656265
  H      0.324114    0.737945   -1.680724
  H      0.090140    1.875079   -0.369685
  C      0.815335   -0.053436    0.241047
  H      0.481712    0.097312    1.287859
  N      0.586505   -1.440421   -0.141529
  C     -2.494671    1.412135   -0.330044
  C     -3.044276   -1.411670   -0.845061
  H     -3.461927   -1.053262   -1.769202
  H     -3.296605   -2.442628   -0.610490
  C     -3.754901    1.095140    0.197643
  H     -4.063698    1.761675    1.005762
  C     -4.555215   -0.027634    0.004705
  C     -1.507467    0.441728   -0.596470
  C     -5.515988   -0.450902    1.086290
  H     -5.667156   -1.532026    1.065445
  H     -5.148398   -0.184946    2.078505
  H     -6.499015    0.011601    0.945641
  H     -4.916486   -0.233838   -0.986454
  C      2.283793    0.328050    0.179080
  C      1.552636   -2.353173    0.437339
  H      1.237068   -3.374773    0.215975
  H      1.593356   -2.254502    1.537975
  C      2.917358   -2.081415   -0.164508
  H      2.896668   -2.359577   -1.222553
  C      3.279745   -0.626963   -0.025099
  H      3.677212   -2.699603    0.320630
  C      4.613992   -0.226911   -0.071014
  H      5.381094   -0.977685   -0.229633
  C      2.657003    1.659024    0.367861
  H      1.897528    2.407345    0.559966
  C      4.972380    1.099249    0.093252
  H      6.014995    1.391070    0.055680
  C      3.984555    2.048146    0.323518
  H      4.248463    3.088378    0.471441
  C     -2.092500    2.870584   -0.224011
  H     -1.373900    3.052205    0.580000
  H     -2.966351    3.493637   -0.037548
  H     -1.636936    3.219363   -1.153075

 Total Charge           Charge          ....    0
 Multiplicity           Mult            ....    1
 Number of Electrons    NEL             ....  144
 Basis Dimension        Dim             .... 2658

ORBITAL ENERGIES
----------------

  NO   OCC          E(Eh)            E(eV)
   0   2.0000     -15.542671      -422.9376
   1   2.0000     -11.257481      -306.3316
   2   2.0000     -11.248302      -306.0819
   3   2.0000     -11.246010      -306.0195
   4   2.0000     -11.243355      -305.9472
   5   2.0000     -11.237564      -305.7897
   6   2.0000     -11.232123      -305.6416
   7   2.0000     -11.230904      -305.6084
   8   2.0000     -11.226261      -305.4821
   9   2.0000     -11.225622      -305.4647
  10   2.0000     -11.224469      -305.4333
  11   2.0000     -11.224003      -305.4206
  12   2.0000     -11.223594      -305.4095
  13   2.0000     -11.222157      -305.3704
  14   2.0000     -11.220910      -305.3365
  15   2.0000     -11.220643      -305.3292
  16   2.0000     -11.217751      -305.2505
  17   2.0000     -11.216332      -305.2119
  18   2.0000     -11.216267      -305.2101
  19   2.0000     -11.214921      -305.1735
  20   2.0000      -1.250909       -34.0390
  21   2.0000      -1.154308       -31.4103
  22   2.0000      -1.133095       -30.8331
  23   2.0000      -1.072979       -29.1973
  24   2.0000      -1.059153       -28.8210
  25   2.0000      -1.046675       -28.4815
  26   2.0000      -1.029682       -28.0191
  27   2.0000      -0.996756       -27.1231
  28   2.0000      -0.971380       -26.4326
  29   2.0000      -0.933562       -25.4035
  30   2.0000      -0.918979       -25.0067
  31   2.0000      -0.884291       -24.0628
  32   2.0000      -0.855410       -23.2769
  33   2.0000      -0.834513       -22.7082
  34   2.0000      -0.808988       -22.0137
  35   2.0000      -0.794245       -21.6125
  36   2.0000      -0.767003       -20.8712
  37   2.0000      -0.748556       -20.3692
  38   2.0000      -0.692485       -18.8435
  39   2.0000      -0.669276       -18.2119
  40   2.0000      -0.661274       -17.9942
  41   2.0000      -0.656940       -17.8762
  42   2.0000      -0.635445       -17.2913
  43   2.0000      -0.621848       -16.9214
  44   2.0000      -0.618893       -16.8409
  45   2.0000      -0.605451       -16.4752
  46   2.0000      -0.592807       -16.1311
  47   2.0000      -0.589302       -16.0357
  48   2.0000      -0.579298       -15.7635
  49   2.0000      -0.574387       -15.6299
  50   2.0000      -0.571267       -15.5450
  51   2.0000      -0.563243       -15.3266
  52   2.0000      -0.558266       -15.1912
  53   2.0000      -0.547413       -14.8959
  54   2.0000      -0.544878       -14.8269
  55   2.0000      -0.533897       -14.5281
  56   2.0000      -0.523403       -14.2425
  57   2.0000      -0.516016       -14.0415
  58   2.0000      -0.514408       -13.9978
  59   2.0000      -0.509608       -13.8671
  60   2.0000      -0.493997       -13.4423
  61   2.0000      -0.490839       -13.3564
  62   2.0000      -0.477088       -12.9822
  63   2.0000      -0.470139       -12.7931
  64   2.0000      -0.451989       -12.2993
  65   2.0000      -0.444771       -12.1028
  66   2.0000      -0.422769       -11.5041
  67   2.0000      -0.360008        -9.7963
  68   2.0000      -0.326435        -8.8827
  69   2.0000      -0.319474        -8.6933
  70   2.0000      -0.296842        -8.0775
  71   2.0000      -0.277544        -7.5523
  72   0.0000       0.021914         0.5963
  73   0.0000       0.024940         0.6786
  74   0.0000       0.025190         0.6854
  75   0.0000       0.030050         0.8177
  76   0.0000       0.032145         0.8747

MULLIKEN ATOMIC CHARGES
-----------------------
   0 C :   -0.052326
   1 H :    0.247573
   2 H :    0.200097
   3 C :   -0.093252
   4 C :   -0.279585
   5 H :    0.307123
   6 H :    0.237350
   7 C :    1.714201
   8 H :    0.159755
   9 N :   -0.193395
  10 C :    0.266160
  11 C :   -1.021220
  12 H :    0.239065
  13 H :    0.175339
  14 C :   -0.415792
  15 H :    0.215202
  16 C :   -0.052861
  17 C :    0.147069
  18 C :   -0.910461
  19 H :    0.239610
  20 H :    0.229465
  21 H :    0.284168
  22 H :    0.274331
  23 C :    0.374640
  24 C :   -0.760501
  25 H :    0.191467
  26 H :    0.250952
  27 C :   -0.688216
  28 H :    0.202674
  29 C :    0.345269
  30 H :    0.193488
  31 C :   -0.697769
  32 H :    0.236283
  33 C :   -0.801361
  34 H :    0.152074
  35 C :   -0.414194
  36 H :    0.256872
  37 C :   -0.506941
  38 H :    0.193007
  39 C :   -1.042725
  40 H :    0.188735
  41 H :    0.242775
  42 H :    0.165854
Sum of atomic charges:   -0.0000000

LOEWDIN ATOMIC CHARGES
----------------------
   0 C :    0.346652
   1 H :   -0.300340
   2 H :   -0.239054
   3 C :   -0.032330
   4 C :    0.508870
   5 H :   -0.235859
   6 H :   -0.383767
   7 C :   -0.044925
   8 H :   -0.250535
   9 N :    0.534636
  10 C :   -0.003686
  11 C :    0.725673
  12 H :   -0.359433
  13 H :   -0.279933
  14 C :    0.360239
  15 H :   -0.329705
  16 C :    0.326939
  17 C :   -0.004045
  18 C :    0.922835
  19 H :   -0.292191
  20 H :   -0.298608
  21 H :   -0.279999
  22 H :   -0.369447
  23 C :   -0.019369
  24 C :    0.353087
  25 H :   -0.277929
  26 H :   -0.237740
  27 C :    0.524033
  28 H :   -0.255925
  29 C :   -0.037991
  30 H :   -0.273915
  31 C :    0.356913
  32 H :   -0.312948
  33 C :    0.362238
  34 H :   -0.322257
  35 C :    0.348962
  36 H :   -0.320709
  37 C :    0.357601
  38 H :   -0.319670
  39 C :    0.902221
  40 H :   -0.275916
  41 H :   -0.300542
  42 H :   -0.272129

  Mayer bond orders larger than 0.100000
B(  0-C ,  1-H ) :   1.1170 B(  0-C ,  2-H ) :   0.9239 B(  0-C ,  3-C ) :   0.1979
B(  0-C ,  9-N ) :   1.1381 B(  0-C , 11-C ) :  -0.2759 B(  1-H ,  3-C ) :  -0.1563
B(  3-C ,  4-C ) :  -0.2201 B(  3-C , 10-C ) :  -0.2961 B(  3-C , 11-C ) :   1.2809
B(  3-C , 12-H ) :  -0.1372 B(  3-C , 13-H ) :  -0.1676 B(  3-C , 17-C ) :   1.1041
B(  4-C ,  5-H ) :   0.9099 B(  4-C ,  6-H ) :   1.0693 B(  4-C ,  7-C ) :   0.8711
B(  4-C , 10-C ) :  -0.1713 B(  4-C , 17-C ) :   0.2030 B(  4-C , 33-C ) :   0.1247
B(  5-H ,  8-H ) :   0.1017 B(  7-C ,  8-H ) :   0.9482 B(  7-C ,  9-N ) :   0.4815
B(  7-C , 17-C ) :  -0.2194 B(  7-C , 23-C ) :  -0.3030 B(  7-C , 24-C ) :  -0.1890
B(  7-C , 29-C ) :  -0.5080 B(  7-C , 33-C ) :  -0.8179 B(  9-N , 17-C ) :   0.2035
B(  9-N , 23-C ) :  -0.1311 B(  9-N , 24-C ) :   0.7347 B(  9-N , 26-H ) :  -0.1180
B(  9-N , 28-H ) :  -0.1003 B( 10-C , 11-C ) :   0.3262 B( 10-C , 14-C ) :   0.7112
B( 10-C , 15-H ) :  -0.1301 B( 10-C , 16-C ) :  -0.3324 B( 10-C , 17-C ) :   1.1263
B( 10-C , 39-C ) :   0.6549 B( 10-C , 40-H ) :  -0.1507 B( 10-C , 41-H ) :  -0.1140
B( 10-C , 42-H ) :  -0.1341 B( 11-C , 12-H ) :   1.0848 B( 11-C , 13-H ) :   1.1695
B( 11-C , 16-C ) :   0.4336 B( 11-C , 17-C ) :  -0.1272 B( 14-C , 15-H ) :   1.0531
B( 14-C , 16-C ) :   1.1130 B( 14-C , 22-H ) :  -0.1116 B( 14-C , 39-C ) :  -0.2145
B( 16-C , 17-C ) :   0.1920 B( 16-C , 18-C ) :   0.7144 B( 16-C , 22-H ) :   0.9375
B( 17-C , 40-H ) :   0.1175 B( 18-C , 19-H ) :   1.0218 B( 18-C , 20-H ) :   0.9981
B( 18-C , 21-H ) :   1.0026 B( 23-C , 24-C ) :   0.1223 B( 23-C , 27-C ) :  -0.1152
B( 23-C , 29-C ) :   1.1316 B( 23-C , 31-C ) :  -0.5426 B( 23-C , 33-C ) :   1.0395
B( 23-C , 34-H ) :  -0.1147 B( 23-C , 37-C ) :  -0.4004 B( 24-C , 25-H ) :   1.0504
B( 24-C , 26-H ) :   1.0061 B( 24-C , 27-C ) :   1.1300 B( 24-C , 30-H ) :  -0.1011
B( 27-C , 28-H ) :   1.0695 B( 27-C , 29-C ) :   0.3699 B( 27-C , 30-H ) :   1.1504
B( 29-C , 30-H ) :  -0.1729 B( 29-C , 31-C ) :   1.0251 B( 29-C , 32-H ) :  -0.1038
B( 29-C , 35-C ) :  -0.2385 B( 31-C , 32-H ) :   1.0547 B( 31-C , 33-C ) :   0.1478
B( 31-C , 35-C ) :   1.2735 B( 31-C , 36-H ) :  -0.2009 B( 31-C , 37-C ) :   0.1549
B( 33-C , 34-H ) :   1.2076 B( 33-C , 37-C ) :   1.1952 B( 33-C , 38-H ) :  -0.1868
B( 35-C , 36-H ) :   1.1604 B( 35-C , 37-C ) :   1.2149 B( 36-H , 37-C ) :  -0.1378
B( 37-C , 38-H ) :   1.2153 B( 39-C , 40-H ) :   1.0600 B( 39-C , 41-H ) :   1.0400
B( 39-C , 42-H ) :   1.1527

MP2 TOTAL ENERGY:     -791.087900324 Eh
FINAL SINGLE POINT ENERGY      -791.087900324085

DIPOLE MOMENT
-------------
                                X             Y             Z
Electronic contribution:     13.02637       0.49308      -2.80706
Nuclear contribution   :    -13.30881      -0.71399       3.13937
                        -----------------------------------------
Total Dipole Moment    :     -0.28243      -0.22091       0.33231
                        -----------------------------------------
Magnitude (a.u.)       :      0.48887
Magnitude (Debye)      :      1.24262

Rotational constants in cm-1:     0.025713     0.006425     0.005368
Rotational constants in MHz :   770.865029   192.626729   160.923723

                             ****ORCA TERMINATED NORMALLY****
TOTAL RUN TIME: 0 days 9 hours 13 minutes 2 seconds 413 msec
