                         Program Version 4.2.1 -  RELEASE  -
|  1> %pal
|  2>  nprocs 32
|  3> end
|  4> !RI-MP2 aug-cc-pVQZ aug-cc-pVQZ/C TightSCF
|  5> %maxcore 4500
|  6> *xyzfile 0 2  04_19P.xyz
|  7>
|  8>
|  9>                          ****END OF INPUT****

CARTESIAN COORDINATES (ANGSTROEM)
---------------------------------
  C      0.735287    0.520539    1.403523
  H      0.445699    1.079691    2.303968
  C      2.228938    0.699645   -0.675504
  H      1.399667    0.703437   -1.381237
  H      1.169003   -0.416037    1.762598
  H      3.034469    1.285203   -1.119520
  C      1.811725    1.314064    0.654708
  H      2.683828    1.414364    1.305752
  H      1.446622    2.326463    0.452488
  C     -0.459830    0.197843    0.571248
  C     -2.712534   -0.925319   -0.267188
  C     -2.364940    0.231204   -1.189810
  H     -3.042443   -1.799762   -0.827800
  H     -3.490272   -0.637333    0.439712
  H     -1.758985   -0.104762   -2.031499
  H     -3.260004    0.726826   -1.565063
  S     -1.213998   -1.382430    0.668528
  S     -1.412796    1.435646   -0.212126
  S      2.891079   -1.001682   -0.574571
  H      1.711988   -1.630501   -0.430570

 Total Charge           Charge          ....    0
 Multiplicity           Mult            ....    2
 Number of Electrons    NEL             ....   95
 Basis Dimension        Dim             .... 1238

ORBITAL ENERGIES
----------------
                 SPIN UP ORBITALS
  NO   OCC          E(Eh)            E(eV)
   0   1.0000     -91.965661     -2502.5128
   1   1.0000     -91.965411     -2502.5061
   2   1.0000     -91.942088     -2501.8714
   3   1.0000     -11.281415      -306.9829
   4   1.0000     -11.278017      -306.8904
   5   1.0000     -11.276244      -306.8422
   6   1.0000     -11.255498      -306.2777
   7   1.0000     -11.237699      -305.7933
   8   1.0000     -11.231651      -305.6288
   9   1.0000      -8.967392      -244.0151
  10   1.0000      -8.967286      -244.0123
  11   1.0000      -8.944602      -243.3950
  12   1.0000      -6.649402      -180.9394
  13   1.0000      -6.648940      -180.9269
  14   1.0000      -6.648196      -180.9066
  15   1.0000      -6.648029      -180.9021
  16   1.0000      -6.647025      -180.8748
  17   1.0000      -6.646924      -180.8720
  18   1.0000      -6.626207      -180.3083
  19   1.0000      -6.625316      -180.2840
  20   1.0000      -6.624445      -180.2603
  21   1.0000      -1.161078       -31.5945
  22   1.0000      -1.095674       -29.8148
  23   1.0000      -1.034563       -28.1519
  24   1.0000      -0.995978       -27.1019
  25   1.0000      -0.967946       -26.3392
  26   1.0000      -0.895681       -24.3727
  27   1.0000      -0.818995       -22.2860
  28   1.0000      -0.805536       -21.9198
  29   1.0000      -0.725868       -19.7519
  30   1.0000      -0.664986       -18.0952
  31   1.0000      -0.647178       -17.6106
  32   1.0000      -0.639358       -17.3978
  33   1.0000      -0.624727       -16.9997
  34   1.0000      -0.570335       -15.5196
  35   1.0000      -0.560721       -15.2580
  36   1.0000      -0.553586       -15.0638
  37   1.0000      -0.540907       -14.7188
  38   1.0000      -0.509189       -13.8557
  39   1.0000      -0.496628       -13.5139
  40   1.0000      -0.489937       -13.3319
  41   1.0000      -0.477407       -12.9909
  42   1.0000      -0.459784       -12.5113
  43   1.0000      -0.440903       -11.9976
  44   1.0000      -0.433605       -11.7990
  45   1.0000      -0.369330       -10.0500
  46   1.0000      -0.351436        -9.5631
  47   1.0000      -0.275469        -7.4959
  48   0.0000       0.022073         0.6006
  49   0.0000       0.029177         0.7939
  50   0.0000       0.032154         0.8750
  51   0.0000       0.035026         0.9531
  52   0.0000       0.041280         1.1233

                 SPIN DOWN ORBITALS
  NO   OCC          E(Eh)            E(eV)
   0   1.0000     -91.965349     -2502.5044
   1   1.0000     -91.965200     -2502.5003
   2   1.0000     -91.942096     -2501.8716
   3   1.0000     -11.277720      -306.8824
   4   1.0000     -11.276262      -306.8427
   5   1.0000     -11.256146      -306.2953
   6   1.0000     -11.255539      -306.2788
   7   1.0000     -11.240647      -305.8735
   8   1.0000     -11.230562      -305.5991
   9   1.0000      -8.967202      -244.0100
  10   1.0000      -8.966844      -244.0002
  11   1.0000      -8.944611      -243.3952
  12   1.0000      -6.649700      -180.9475
  13   1.0000      -6.649386      -180.9390
  14   1.0000      -6.648346      -180.9107
  15   1.0000      -6.647998      -180.9012
  16   1.0000      -6.645444      -180.8317
  17   1.0000      -6.644586      -180.8084
  18   1.0000      -6.626225      -180.3088
  19   1.0000      -6.625335      -180.2845
  20   1.0000      -6.624452      -180.2605
  21   1.0000      -1.143125       -31.1060
  22   1.0000      -1.092674       -29.7332
  23   1.0000      -1.019467       -27.7411
  24   1.0000      -0.991919       -26.9915
  25   1.0000      -0.959532       -26.1102
  26   1.0000      -0.894900       -24.3515
  27   1.0000      -0.817060       -22.2333
  28   1.0000      -0.799311       -21.7504
  29   1.0000      -0.691969       -18.8294
  30   1.0000      -0.660046       -17.9608
  31   1.0000      -0.641029       -17.4433
  32   1.0000      -0.627849       -17.0846
  33   1.0000      -0.622536       -16.9401
  34   1.0000      -0.566339       -15.4109
  35   1.0000      -0.557635       -15.1740
  36   1.0000      -0.548230       -14.9181
  37   1.0000      -0.518316       -14.1041
  38   1.0000      -0.501189       -13.6380
  39   1.0000      -0.488543       -13.2939
  40   1.0000      -0.483329       -13.1520
  41   1.0000      -0.472685       -12.8624
  42   1.0000      -0.440255       -11.9800
  43   1.0000      -0.432075       -11.7574
  44   1.0000      -0.400228       -10.8908
  45   1.0000      -0.351616        -9.5679
  46   1.0000      -0.345305        -9.3962
  47   0.0000       0.022037         0.5997
  48   0.0000       0.028927         0.7872
  49   0.0000       0.031827         0.8661
  50   0.0000       0.035071         0.9543
  51   0.0000       0.041319         1.1243

MULLIKEN ATOMIC CHARGES AND SPIN POPULATIONS
--------------------------------------------
   0 C :   -0.282323   -0.178754
   1 H :    0.324672    0.086990
   2 C :   -0.547500   -0.002983
   3 H :    0.305073    0.006112
   4 H :    0.287852    0.000578
   5 H :    0.263950    0.000809
   6 C :   -0.419915    0.031605
   7 H :    0.304836   -0.008266
   8 H :    0.228411   -0.004732
   9 C :   -0.187577    0.985473
  10 C :   -0.570878   -0.010826
  11 C :   -0.664168    0.011555
  12 H :    0.362333    0.001304
  13 H :    0.268233    0.000536
  14 H :    0.259515    0.001492
  15 H :    0.394381   -0.003083
  16 S :   -0.068932    0.058572
  17 S :   -0.092445    0.020276
  18 S :   -0.202891   -0.001147
  19 H :    0.037374    0.004486
Sum of atomic charges         :   -0.0000000

LOEWDIN ATOMIC CHARGES AND SPIN POPULATIONS
-------------------------------------------
   0 C :    0.269947    0.109045
   1 H :   -0.286411    0.022950
   2 C :    0.104765    0.008634
   3 H :   -0.384872    0.005595
   4 H :   -0.365297    0.005352
   5 H :   -0.372557    0.000365
   6 C :    0.395146    0.016389
   7 H :   -0.284455    0.002635
   8 H :   -0.292163    0.001705
   9 C :   -0.910339    0.464026
  10 C :    0.084074    0.014325
  11 C :    0.081719    0.016043
  12 H :   -0.358278    0.001859
  13 H :   -0.366001    0.004305
  14 H :   -0.356528    0.003565
  15 H :   -0.355915    0.003063
  16 S :    1.290602    0.167724
  17 S :    1.297127    0.150034
  18 S :    1.607966    0.000912
  19 H :   -0.798532    0.001474

  Mayer bond orders larger than 0.100000
B(  0-C ,  1-H ) :   0.8421 B(  0-C ,  4-H ) :   0.9481 B(  0-C ,  6-C ) :   1.0031
B(  0-C ,  9-C ) :   0.4575 B(  0-C , 16-S ) :  -0.1131 B(  2-C ,  3-H ) :   0.8638
B(  2-C ,  5-H ) :   0.9452 B(  2-C ,  6-C ) :   0.9506 B(  2-C , 18-S ) :   0.8902
B(  6-C ,  7-H ) :   0.8956 B(  6-C ,  8-H ) :   0.8753 B(  6-C ,  9-C ) :  -0.1131
B(  6-C , 18-S ) :  -0.1042 B(  9-C , 16-S ) :   0.9001 B(  9-C , 17-S ) :   0.8396
B( 10-C , 11-C ) :   1.0571 B( 10-C , 12-H ) :   0.8172 B( 10-C , 13-H ) :   0.8991
B( 10-C , 16-S ) :   0.9732 B( 11-C , 14-H ) :   0.8950 B( 11-C , 15-H ) :   0.7817
B( 11-C , 17-S ) :   1.0113 B( 18-S , 19-H ) :   1.0306

MP2 TOTAL ENERGY:    -1427.978674421 Eh
FINAL SINGLE POINT ENERGY     -1427.978674420798

DIPOLE MOMENT
-------------
                                X             Y             Z
Electronic contribution:     -1.30911      -2.60894       0.75785
Nuclear contribution   :      0.32972       2.96163      -1.08196
                        -----------------------------------------
Total Dipole Moment    :     -0.97939       0.35269      -0.32411
                        -----------------------------------------
Magnitude (a.u.)       :      1.09025
Magnitude (Debye)      :      2.77119

Rotational constants in cm-1:     0.052403     0.020875     0.018276
Rotational constants in MHz :  1570.999807   625.821785   547.888354

                             ****ORCA TERMINATED NORMALLY****
TOTAL RUN TIME: 0 days 1 hours 16 minutes 28 seconds 100 msec
