                         Program Version 4.2.1 -  RELEASE  -
|  1> %pal
|  2>  nprocs 32
|  3> end
|  4> !RI-MP2 aug-cc-pVQZ aug-cc-pVQZ/C TightSCF
|  5> %maxcore 4500
|  6> *xyzfile 0 2  01_21P.xyz
|  7>
|  8>
|  9>                          ****END OF INPUT****

CARTESIAN COORDINATES (ANGSTROEM)
---------------------------------
  N      0.187027   -0.238057   -0.018432
  C     -0.581353   -1.469505    0.174538
  C     -2.029214   -0.986340    0.197021
  H     -0.272283   -1.971386    1.091276
  H     -0.389918   -2.159215   -0.653171
  C     -1.999291    0.256865   -0.691242
  H     -2.322021   -0.712790    1.213394
  H     -2.725383   -1.745902   -0.158160
  C     -0.655164    0.925434   -0.316627
  H     -2.846575    0.925075   -0.540727
  H     -1.972395   -0.032005   -1.745343
  C     -0.768661    1.868095    0.831323
  C      1.544908   -0.276506   -0.018634
  O      2.146094   -1.318333    0.187019
  C      2.267155    1.020669   -0.302329
  H      1.894250    1.838741    0.315545
  H      2.135684    1.305755   -1.349369
  H      3.325965    0.865675   -0.111745
  H     -1.149989    2.869458    0.674568
  H     -0.560932    1.535683    1.839727
  H     -0.264625    1.461698   -1.187413

 Total Charge           Charge          ....    0
 Multiplicity           Mult            ....    2
 Number of Electrons    NEL             ....   69
 Basis Dimension        Dim             .... 1272

ORBITAL ENERGIES
----------------
                 SPIN UP ORBITALS
  NO   OCC          E(Eh)            E(eV)
   0   1.0000     -20.501978      -557.8872
   1   1.0000     -15.572571      -423.7512
   2   1.0000     -11.335633      -308.4583
   3   1.0000     -11.279463      -306.9298
   4   1.0000     -11.254775      -306.2580
   5   1.0000     -11.241932      -305.9085
   6   1.0000     -11.236952      -305.7730
   7   1.0000     -11.230095      -305.5864
   8   1.0000     -11.227031      -305.5031
   9   1.0000      -1.371105       -37.3097
  10   1.0000      -1.255535       -34.1648
  11   1.0000      -1.079107       -29.3640
  12   1.0000      -1.045099       -28.4386
  13   1.0000      -0.992179       -26.9986
  14   1.0000      -0.930153       -25.3107
  15   1.0000      -0.849881       -23.1264
  16   1.0000      -0.807012       -21.9599
  17   1.0000      -0.742547       -20.2057
  18   1.0000      -0.678197       -18.4547
  19   1.0000      -0.674774       -18.3615
  20   1.0000      -0.639905       -17.4127
  21   1.0000      -0.607098       -16.5200
  22   1.0000      -0.600675       -16.3452
  23   1.0000      -0.587251       -15.9799
  24   1.0000      -0.583851       -15.8874
  25   1.0000      -0.558319       -15.1926
  26   1.0000      -0.550807       -14.9882
  27   1.0000      -0.527310       -14.3488
  28   1.0000      -0.512012       -13.9326
  29   1.0000      -0.497245       -13.5307
  30   1.0000      -0.494837       -13.4652
  31   1.0000      -0.477844       -13.0028
  32   1.0000      -0.412060       -11.2127
  33   1.0000      -0.374705       -10.1962
  34   1.0000      -0.363016        -9.8782
  35   0.0000       0.021033         0.5723
  36   0.0000       0.027652         0.7524
  37   0.0000       0.028843         0.7849
  38   0.0000       0.033363         0.9079
  39   0.0000       0.043018         1.1706

                 SPIN DOWN ORBITALS
  NO   OCC          E(Eh)            E(eV)
   0   1.0000     -20.502083      -557.8900
   1   1.0000     -15.572145      -423.7396
   2   1.0000     -11.335667      -308.4592
   3   1.0000     -11.282736      -307.0189
   4   1.0000     -11.254802      -306.2587
   5   1.0000     -11.234573      -305.7083
   6   1.0000     -11.230167      -305.5884
   7   1.0000     -11.226784      -305.4963
   8   1.0000     -11.218274      -305.2647
   9   1.0000      -1.371161       -37.3112
  10   1.0000      -1.253807       -34.1178
  11   1.0000      -1.074159       -29.2293
  12   1.0000      -1.025183       -27.8967
  13   1.0000      -0.988917       -26.9098
  14   1.0000      -0.893254       -24.3067
  15   1.0000      -0.835183       -22.7265
  16   1.0000      -0.798457       -21.7271
  17   1.0000      -0.736889       -20.0518
  18   1.0000      -0.675029       -18.3685
  19   1.0000      -0.670753       -18.2521
  20   1.0000      -0.635432       -17.2910
  21   1.0000      -0.604133       -16.4393
  22   1.0000      -0.594577       -16.1793
  23   1.0000      -0.582189       -15.8422
  24   1.0000      -0.581599       -15.8261
  25   1.0000      -0.554086       -15.0774
  26   1.0000      -0.545957       -14.8563
  27   1.0000      -0.522886       -14.2284
  28   1.0000      -0.496966       -13.5231
  29   1.0000      -0.495139       -13.4734
  30   1.0000      -0.493213       -13.4210
  31   1.0000      -0.476427       -12.9642
  32   1.0000      -0.411466       -11.1966
  33   1.0000      -0.367435        -9.9984
  34   0.0000       0.021075         0.5735
  35   0.0000       0.027272         0.7421
  36   0.0000       0.029108         0.7921
  37   0.0000       0.033225         0.9041
  38   0.0000       0.042923         1.1680

MULLIKEN ATOMIC CHARGES AND SPIN POPULATIONS
--------------------------------------------
   0 N :   -0.122567    0.026083
   1 C :   -0.656863    0.004409
   2 C :   -0.489925   -0.003055
   3 H :    0.315005    0.000440
   4 H :    0.242007    0.000702
   5 C :   -0.551463    0.071092
   6 H :    0.181559   -0.000859
   7 H :    0.304056    0.001730
   8 C :    0.107671   -0.266399
   9 H :    0.288602   -0.010185
  10 H :    0.198645    0.003940
  11 C :   -0.875966    1.329402
  12 C :    1.012094   -0.001713
  13 O :   -0.890725   -0.001761
  14 C :   -0.780663    0.008231
  15 H :    0.219506   -0.010105
  16 H :    0.242172   -0.001245
  17 H :    0.285037   -0.000846
  18 H :    0.341973   -0.086372
  19 H :    0.278265   -0.092668
  20 H :    0.351580    0.029180
Sum of atomic charges         :    0.0000000

LOEWDIN ATOMIC CHARGES AND SPIN POPULATIONS
-------------------------------------------
   0 N :    0.413099    0.007167
   1 C :    0.367179    0.001353
   2 C :    0.537222    0.008627
   3 H :   -0.269337   -0.000024
   4 H :   -0.258742    0.000036
   5 C :    0.530153    0.033367
   6 H :   -0.262687    0.003791
   7 H :   -0.251957    0.000932
   8 C :   -0.085047    0.129750
   9 H :   -0.256762    0.013770
  10 H :   -0.253967    0.007303
  11 C :    0.866519    0.453788
  12 C :   -0.841962    0.003063
  13 O :    0.711951   -0.001856
  14 C :    0.890910    0.008962
  15 H :   -0.308975    0.016132
  16 H :   -0.282751    0.000826
  17 H :   -0.313618    0.001050
  18 H :   -0.312648    0.146685
  19 H :   -0.314179    0.149302
  20 H :   -0.304400    0.015976

  Mayer bond orders larger than 0.100000
B(  0-N ,  1-C ) :   0.6966 B(  0-N ,  8-C ) :   0.5161 B(  0-N , 12-C ) :   1.1350
B(  0-N , 13-O ) :   0.3626 B(  1-C ,  2-C ) :   0.9910 B(  1-C ,  3-H ) :   0.9273
B(  1-C ,  4-H ) :   1.0192 B(  2-C ,  5-C ) :   1.0362 B(  2-C ,  6-H ) :   0.9938
B(  2-C ,  7-H ) :   0.8896 B(  2-C ,  8-C ) :  -0.1079 B(  5-C ,  8-C ) :   0.8782
B(  5-C ,  9-H ) :   0.9287 B(  5-C , 10-H ) :   0.9910 B(  8-C , 11-C ) :   0.9146
B(  8-C , 20-H ) :   0.7981 B( 11-C , 18-H ) :   0.9211 B( 11-C , 19-H ) :   0.9696
B( 12-C , 13-O ) :   1.0164 B( 12-C , 14-C ) :   0.8373 B( 14-C , 15-H ) :   1.0033
B( 14-C , 16-H ) :   0.9536 B( 14-C , 17-H ) :   0.9810

MP2 TOTAL ENERGY:     -403.216635949 Eh
FINAL SINGLE POINT ENERGY      -403.216635949284

DIPOLE MOMENT
-------------
                                X             Y             Z
Electronic contribution:      3.94564      -3.09865       0.31379
Nuclear contribution   :     -5.25140       4.27093      -0.62502
                        -----------------------------------------
Total Dipole Moment    :     -1.30576       1.17228      -0.31123
                        -----------------------------------------
Magnitude (a.u.)       :      1.78217
Magnitude (Debye)      :      4.52991

Rotational constants in cm-1:     0.086361     0.047282     0.034489
Rotational constants in MHz :  2589.046015  1417.485717  1033.963025

                             ****ORCA TERMINATED NORMALLY****
TOTAL RUN TIME: 0 days 1 hours 27 minutes 3 seconds 750 msec
