                         Program Version 4.2.1 -  RELEASE  -
|  1> %pal
|  2>  nprocs 32
|  3> end
|  4> !RI-MP2 aug-cc-pVQZ aug-cc-pVQZ/C TightSCF
|  5> %maxcore 4500
|  6> *xyzfile 0 1  04_68R1.xyz
|  7>
|  8>
|  9>                          ****END OF INPUT****

CARTESIAN COORDINATES (ANGSTROEM)
---------------------------------
  C      0.663289    1.204430   -0.000001
  C     -0.724189    1.230154   -0.000004
  C     -1.408751    0.014714   -0.000002
  C     -0.739530   -1.208037    0.000001
  C      0.651340   -1.203065    0.000002
  C      1.338048   -0.004509    0.000002
  H      1.219803    2.132824   -0.000002
  H      1.195670   -2.138603    0.000004
  O     -2.773800    0.088285    0.000000
  H     -3.156782   -0.792578   -0.000045
  C     -1.511841   -2.498608    0.000006
  H     -0.836823   -3.353324   -0.000010
  H     -2.149609   -2.590580    0.885549
  H     -2.149634   -2.590573   -0.885521
  C     -1.492583    2.518909   -0.000006
  H     -2.140844    2.586694    0.876289
  H     -0.816379    3.373580   -0.000039
  H     -2.140892    2.586662   -0.876268
  Cl     3.088894   -0.014371    0.000004

 Total Charge           Charge          ....    0
 Multiplicity           Mult            ....    1
 Number of Electrons    NEL             ....   82
 Basis Dimension        Dim             .... 1218

ORBITAL ENERGIES
----------------

  NO   OCC          E(Eh)            E(eV)
   0   2.0000    -104.831045     -2852.5978
   1   2.0000     -20.592778      -560.3580
   2   2.0000     -11.299320      -307.4701
   3   2.0000     -11.289149      -307.1934
   4   2.0000     -11.249921      -306.1259
   5   2.0000     -11.244438      -305.9767
   6   2.0000     -11.244035      -305.9657
   7   2.0000     -11.242916      -305.9353
   8   2.0000     -11.240493      -305.8694
   9   2.0000     -11.222829      -305.3887
  10   2.0000     -10.556335      -287.2525
  11   2.0000      -8.023475      -218.3298
  12   2.0000      -8.021796      -218.2842
  13   2.0000      -8.021717      -218.2820
  14   2.0000      -1.412331       -38.4315
  15   2.0000      -1.186453       -32.2850
  16   2.0000      -1.116933       -30.3933
  17   2.0000      -1.076837       -29.3022
  18   2.0000      -1.003916       -27.3180
  19   2.0000      -0.954024       -25.9603
  20   2.0000      -0.941246       -25.6126
  21   2.0000      -0.824188       -22.4273
  22   2.0000      -0.801630       -21.8135
  23   2.0000      -0.742627       -20.2079
  24   2.0000      -0.692563       -18.8456
  25   2.0000      -0.631299       -17.1785
  26   2.0000      -0.622638       -16.9428
  27   2.0000      -0.605911       -16.4877
  28   2.0000      -0.588023       -16.0009
  29   2.0000      -0.582348       -15.8465
  30   2.0000      -0.572583       -15.5808
  31   2.0000      -0.570347       -15.5199
  32   2.0000      -0.554640       -15.0925
  33   2.0000      -0.543116       -14.7789
  34   2.0000      -0.525106       -14.2888
  35   2.0000      -0.508766       -13.8442
  36   2.0000      -0.497746       -13.5444
  37   2.0000      -0.447891       -12.1877
  38   2.0000      -0.445338       -12.1183
  39   2.0000      -0.340014        -9.2522
  40   2.0000      -0.309712        -8.4277
  41   0.0000       0.020601         0.5606
  42   0.0000       0.027799         0.7565
  43   0.0000       0.032809         0.8928
  44   0.0000       0.035814         0.9745
  45   0.0000       0.041825         1.1381

MULLIKEN ATOMIC CHARGES
-----------------------
   0 C :   -0.244509
   1 C :    0.228789
   2 C :    1.070677
   3 C :    0.207775
   4 C :   -0.356633
   5 C :   -0.548957
   6 H :    0.417448
   7 H :    0.376655
   8 O :   -0.830314
   9 H :    0.349936
  10 C :   -0.746510
  11 H :    0.217501
  12 H :    0.188231
  13 H :    0.188200
  14 C :   -0.863370
  15 H :    0.231139
  16 H :    0.273005
  17 H :    0.231130
  18 Cl:   -0.390194
Sum of atomic charges:    0.0000000

LOEWDIN ATOMIC CHARGES
----------------------
   0 C :    0.203259
   1 C :   -0.100121
   2 C :   -0.419569
   3 C :   -0.077177
   4 C :    0.200726
   5 C :   -0.832371
   6 H :   -0.353603
   7 H :   -0.354618
   8 O :    1.310040
   9 H :   -0.843374
  10 C :    0.910249
  11 H :   -0.299470
  12 H :   -0.270720
  13 H :   -0.270722
  14 C :    0.900603
  15 H :   -0.283053
  16 H :   -0.304707
  17 H :   -0.283056
  18 Cl:    1.167686

  Mayer bond orders larger than 0.100000
B(  0-C ,  1-C ) :   1.0229 B(  0-C ,  4-C ) :   0.1717 B(  0-C ,  5-C ) :   1.1429
B(  0-C ,  6-H ) :   0.8432 B(  0-C , 14-C ) :  -0.1822 B(  0-C , 18-Cl) :  -0.4050
B(  1-C ,  2-C ) :   1.0071 B(  1-C ,  3-C ) :  -0.2574 B(  1-C ,  5-C ) :  -0.4045
B(  1-C ,  8-O ) :   0.3522 B(  1-C , 14-C ) :   0.7473 B(  2-C ,  3-C ) :   1.0457
B(  2-C ,  5-C ) :   0.2360 B(  2-C ,  8-O ) :  -0.4092 B(  2-C ,  9-H ) :  -0.1629
B(  2-C , 10-C ) :  -0.1037 B(  3-C ,  4-C ) :   1.0220 B(  3-C ,  5-C ) :  -0.4015
B(  3-C ,  8-O ) :   0.4081 B(  3-C ,  9-H ) :   0.1041 B(  3-C , 10-C ) :   0.7238
B(  3-C , 11-H ) :  -0.1220 B(  3-C , 12-H ) :  -0.1057 B(  3-C , 13-H ) :  -0.1057
B(  4-C ,  5-C ) :   1.3041 B(  4-C ,  7-H ) :   0.8874 B(  4-C , 10-C ) :  -0.1683
B(  4-C , 18-Cl) :  -0.3794 B(  5-C , 18-Cl) :   1.4535 B(  8-O ,  9-H ) :   0.9358
B( 10-C , 11-H ) :   1.0624 B( 10-C , 12-H ) :   1.0361 B( 10-C , 13-H ) :   1.0361
B( 14-C , 15-H ) :   1.0119 B( 14-C , 16-H ) :   1.0325 B( 14-C , 17-H ) :   1.0119

MP2 TOTAL ENERGY:     -844.590560445 Eh
FINAL SINGLE POINT ENERGY      -844.590560444953

DIPOLE MOMENT
-------------
                                X             Y             Z
Electronic contribution:     14.23746       0.18955       0.00002
Nuclear contribution   :    -15.18107      -0.75122      -0.00005
                        -----------------------------------------
Total Dipole Moment    :     -0.94361      -0.56166      -0.00002
                        -----------------------------------------
Magnitude (a.u.)       :      1.09812
Magnitude (Debye)      :      2.79120

Rotational constants in cm-1:     0.059233     0.027246     0.018792
Rotational constants in MHz :  1775.771378   816.800761   563.366974

                             ****ORCA TERMINATED NORMALLY****
TOTAL RUN TIME: 0 days 0 hours 50 minutes 37 seconds 563 msec
