                         Program Version 4.2.1 -  RELEASE  -
|  1> %pal
|  2>  nprocs 32
|  3> end
|  4> !RI-MP2 aug-cc-pVQZ aug-cc-pVQZ/C TightSCF
|  5> %maxcore 4500
|  6> *xyzfile 0 2  03_11P1.xyz
|  7>
|  8>
|  9>                          ****END OF INPUT****

CARTESIAN COORDINATES (ANGSTROEM)
---------------------------------
  C      0.721469    1.237090    0.000001
  C     -0.795501    1.212317   -0.000002
  C      1.138948   -0.241525   -0.000001
  N      0.004629   -1.082254   -0.000001
  C     -1.039817   -0.332696    0.000000
  O     -2.256521   -0.657925    0.000001
  O      2.264105   -0.641337    0.000000
  H      1.140466    1.719215    0.882685
  H      1.140471    1.719221   -0.882677
  H     -1.262306    1.640161   -0.885710
  H     -1.262310    1.640165    0.885703

 Total Charge           Charge          ....    0
 Multiplicity           Mult            ....    2
 Number of Electrons    NEL             ....   51
 Basis Dimension        Dim             ....  744

ORBITAL ENERGIES
----------------
                 SPIN UP ORBITALS
  NO   OCC          E(Eh)            E(eV)
   0   1.0000     -20.721082      -563.8493
   1   1.0000     -20.540121      -558.9251
   2   1.0000     -15.574366      -423.8000
   3   1.0000     -11.391549      -309.9798
   4   1.0000     -11.358388      -309.0775
   5   1.0000     -11.292264      -307.2781
   6   1.0000     -11.263987      -306.5087
   7   1.0000      -1.551005       -42.2050
   8   1.0000      -1.404888       -38.2289
   9   1.0000      -1.272760       -34.6336
  10   1.0000      -1.092755       -29.7354
  11   1.0000      -0.959016       -26.0962
  12   1.0000      -0.857235       -23.3266
  13   1.0000      -0.813745       -22.1431
  14   1.0000      -0.738161       -20.0864
  15   1.0000      -0.723175       -19.6786
  16   1.0000      -0.712346       -19.3839
  17   1.0000      -0.662486       -18.0272
  18   1.0000      -0.656674       -17.8690
  19   1.0000      -0.598643       -16.2899
  20   1.0000      -0.580542       -15.7974
  21   1.0000      -0.552041       -15.0218
  22   1.0000      -0.528562       -14.3829
  23   1.0000      -0.475083       -12.9277
  24   1.0000      -0.431124       -11.7315
  25   1.0000      -0.424721       -11.5573
  26   0.0000       0.016361         0.4452
  27   0.0000       0.029300         0.7973
  28   0.0000       0.033677         0.9164
  29   0.0000       0.047737         1.2990
  30   0.0000       0.050897         1.3850

                 SPIN DOWN ORBITALS
  NO   OCC          E(Eh)            E(eV)
   0   1.0000     -20.680549      -562.7464
   1   1.0000     -20.540317      -558.9304
   2   1.0000     -15.573326      -423.7717
   3   1.0000     -11.394795      -310.0681
   4   1.0000     -11.358332      -309.0759
   5   1.0000     -11.289155      -307.1935
   6   1.0000     -11.263801      -306.5036
   7   1.0000      -1.434060       -39.0228
   8   1.0000      -1.402164       -38.1548
   9   1.0000      -1.255109       -34.1533
  10   1.0000      -1.084053       -29.4986
  11   1.0000      -0.940671       -25.5970
  12   1.0000      -0.831394       -22.6234
  13   1.0000      -0.759903       -20.6780
  14   1.0000      -0.714541       -19.4436
  15   1.0000      -0.707277       -19.2460
  16   1.0000      -0.660278       -17.9671
  17   1.0000      -0.639942       -17.4137
  18   1.0000      -0.596573       -16.2336
  19   1.0000      -0.580620       -15.7995
  20   1.0000      -0.571754       -15.5582
  21   1.0000      -0.523971       -14.2580
  22   1.0000      -0.479839       -13.0571
  23   1.0000      -0.426480       -11.6051
  24   1.0000      -0.422353       -11.4928
  25   0.0000       0.011332         0.3084
  26   0.0000       0.017328         0.4715
  27   0.0000       0.029332         0.7982
  28   0.0000       0.034678         0.9436
  29   0.0000       0.050847         1.3836

MULLIKEN ATOMIC CHARGES AND SPIN POPULATIONS
--------------------------------------------
   0 C :   -0.518414   -0.002096
   1 C :   -0.530128    0.124530
   2 C :    0.855684    0.013276
   3 N :   -0.579355    0.041940
   4 C :    0.877646   -0.227668
   5 O :   -0.456963    1.051662
   6 O :   -0.777859   -0.006659
   7 H :    0.267982    0.003488
   8 H :    0.267983    0.003485
   9 H :    0.296716   -0.000977
  10 H :    0.296709   -0.000980
Sum of atomic charges         :   -0.0000000

LOEWDIN ATOMIC CHARGES AND SPIN POPULATIONS
-------------------------------------------
   0 C :    0.459806    0.012116
   1 C :    0.485798    0.043578
   2 C :   -0.970415    0.002887
   3 N :    0.530718    0.009156
   4 C :   -0.905052    0.174635
   5 O :    0.833162    0.741375
   6 O :    0.671966   -0.002644
   7 H :   -0.277694    0.002352
   8 H :   -0.277694    0.002352
   9 H :   -0.275298    0.007097
  10 H :   -0.275297    0.007097

  Mayer bond orders larger than 0.100000
B(  0-C ,  1-C ) :   1.0928 B(  0-C ,  2-C ) :   1.1122 B(  0-C ,  4-C ) :  -0.1020
B(  0-C ,  6-O ) :   0.1486 B(  0-C ,  7-H ) :   0.8747 B(  0-C ,  8-H ) :   0.8747
B(  1-C ,  4-C ) :   1.0160 B(  1-C ,  5-O ) :   0.1500 B(  1-C ,  9-H ) :   0.8710
B(  1-C , 10-H ) :   0.8710 B(  2-C ,  3-N ) :   0.9924 B(  2-C ,  6-O ) :   1.3188
B(  3-N ,  4-C ) :   1.5770 B(  3-N ,  5-O ) :   0.1214 B(  3-N ,  6-O ) :   0.1134
B(  4-C ,  5-O ) :   0.7216

MP2 TOTAL ENERGY:     -359.427552591 Eh
FINAL SINGLE POINT ENERGY      -359.427552590887

DIPOLE MOMENT
-------------
                                X             Y             Z
Electronic contribution:     -1.21263      -4.73570      -0.00000
Nuclear contribution   :     -0.23782       6.53505       0.00000
                        -----------------------------------------
Total Dipole Moment    :     -1.45045       1.79935      -0.00000
                        -----------------------------------------
Magnitude (a.u.)       :      2.31116
Magnitude (Debye)      :      5.87451

Rotational constants in cm-1:     0.205433     0.078449     0.058002
Rotational constants in MHz :  6158.712755  2351.854470  1738.848288

                             ****ORCA TERMINATED NORMALLY****
TOTAL RUN TIME: 0 days 0 hours 19 minutes 56 seconds 957 msec
