                         Program Version 4.2.1 -  RELEASE  -
|  1> %pal
|  2>  nprocs 32
|  3> end
|  4> !RI-MP2 aug-cc-pVQZ aug-cc-pVQZ/C TightSCF
|  5> %maxcore 4500
|  6> *xyzfile 0 1  10_49TS.xyz
|  7>
|  8>
|  9>                          ****END OF INPUT****

CARTESIAN COORDINATES (ANGSTROEM)
---------------------------------
  C      1.012204   -0.139601    0.354518
  C      0.680831    1.215497    0.076327
  C     -0.680831    1.215497   -0.076327
  C     -1.012204   -0.139601   -0.354518
  H      0.575936   -0.563380    1.249518
  H     -0.575936   -0.563381   -1.249518
  H     -1.389153    2.023706    0.082412
  H      1.389153    2.023706   -0.082412
  C     -2.265165   -0.818554    0.120581
  H     -3.094202   -0.628901   -0.571915
  H     -2.131543   -1.901608    0.163532
  H     -2.568048   -0.473869    1.110669
  C      2.265165   -0.818554   -0.120581
  H      3.094202   -0.628901    0.571915
  H      2.131543   -1.901608   -0.163531
  H      2.568048   -0.473869   -1.110669

 Total Charge           Charge          ....    0
 Multiplicity           Mult            ....    1
 Number of Electrons    NEL             ....   46
 Basis Dimension        Dim             ....  940

ORBITAL ENERGIES
----------------

  NO   OCC          E(Eh)            E(eV)
   0   2.0000     -11.242290      -305.9183
   1   2.0000     -11.242217      -305.9163
   2   2.0000     -11.216623      -305.2198
   3   2.0000     -11.216623      -305.2198
   4   2.0000     -11.215166      -305.1802
   5   2.0000     -11.213793      -305.1428
   6   2.0000      -1.124013       -30.5860
   7   2.0000      -1.017915       -27.6989
   8   2.0000      -0.973587       -26.4926
   9   2.0000      -0.853060       -23.2129
  10   2.0000      -0.803218       -21.8567
  11   2.0000      -0.713710       -19.4210
  12   2.0000      -0.636723       -17.3261
  13   2.0000      -0.614237       -16.7142
  14   2.0000      -0.591467       -16.0946
  15   2.0000      -0.565325       -15.3833
  16   2.0000      -0.561329       -15.2745
  17   2.0000      -0.539411       -14.6781
  18   2.0000      -0.508166       -13.8279
  19   2.0000      -0.501466       -13.6456
  20   2.0000      -0.490366       -13.3435
  21   2.0000      -0.335167        -9.1204
  22   2.0000      -0.300728        -8.1832
  23   0.0000       0.026638         0.7248
  24   0.0000       0.031590         0.8596
  25   0.0000       0.031649         0.8612
  26   0.0000       0.035125         0.9558
  27   0.0000       0.045354         1.2341

MULLIKEN ATOMIC CHARGES
-----------------------
   0 C :   -0.069401
   1 C :   -0.600261
   2 C :   -0.600264
   3 C :   -0.069403
   4 H :    0.375814
   5 H :    0.375814
   6 H :    0.457551
   7 H :    0.457553
   8 C :   -0.851842
   9 H :    0.240829
  10 H :    0.225040
  11 H :    0.222271
  12 C :   -0.851844
  13 H :    0.240829
  14 H :    0.225042
  15 H :    0.222271
Sum of atomic charges:   -0.0000000

LOEWDIN ATOMIC CHARGES
----------------------
   0 C :    0.258136
   1 C :    0.325123
   2 C :    0.325123
   3 C :    0.258136
   4 H :   -0.319804
   5 H :   -0.319804
   6 H :   -0.298957
   7 H :   -0.298957
   8 C :    0.920869
   9 H :   -0.288980
  10 H :   -0.297740
  11 H :   -0.298647
  12 C :    0.920869
  13 H :   -0.288980
  14 H :   -0.297740
  15 H :   -0.298647

  Mayer bond orders larger than 0.100000
B(  0-C ,  1-C ) :   1.2935 B(  0-C ,  2-C ) :  -0.2352 B(  0-C ,  3-C ) :   0.4943
B(  0-C ,  4-H ) :   0.7674 B(  0-C , 12-C ) :   0.8088 B(  1-C ,  2-C ) :   1.6751
B(  1-C ,  3-C ) :  -0.2352 B(  1-C ,  7-H ) :   0.7503 B(  2-C ,  3-C ) :   1.2935
B(  2-C ,  6-H ) :   0.7503 B(  3-C ,  5-H ) :   0.7674 B(  3-C ,  8-C ) :   0.8088
B(  8-C ,  9-H ) :   1.0112 B(  8-C , 10-H ) :   1.0047 B(  8-C , 11-H ) :   0.9751
B( 12-C , 13-H ) :   1.0112 B( 12-C , 14-H ) :   1.0047 B( 12-C , 15-H ) :   0.9751

MP2 TOTAL ENERGY:     -234.098507547 Eh
FINAL SINGLE POINT ENERGY      -234.098507546515

DIPOLE MOMENT
-------------
                                X             Y             Z
Electronic contribution:      0.00000       2.96561      -0.00000
Nuclear contribution   :      0.00000      -3.24770       0.00000
                        -----------------------------------------
Total Dipole Moment    :      0.00000      -0.28209       0.00000
                        -----------------------------------------
Magnitude (a.u.)       :      0.28209
Magnitude (Debye)      :      0.71701

Rotational constants in cm-1:     0.212762     0.078339     0.061366
Rotational constants in MHz :  6378.456662  2348.545560  1839.694489

                             ****ORCA TERMINATED NORMALLY****
TOTAL RUN TIME: 0 days 0 hours 17 minutes 32 seconds 206 msec
