                         Program Version 4.2.1 -  RELEASE  -
|  1> %pal
|  2>  nprocs 32
|  3> end
|  4> !RI-MP2 aug-cc-pVQZ aug-cc-pVQZ/C TightSCF
|  5> %maxcore 4500
|  6> *xyzfile 0 1  09_26R1.xyz
|  7>
|  8>
|  9>                          ****END OF INPUT****

CARTESIAN COORDINATES (ANGSTROEM)
---------------------------------
  C      2.618024    0.239804   -0.700101
  C      1.833182   -0.812192    0.056827
  C      0.566464   -1.201488   -0.686128
  O      3.013380    1.227813   -0.145451
  O      1.535740   -0.325159    1.346136
  H      2.473140   -1.704565    0.127071
  H      2.048192    0.493750    1.460028
  O     -0.232377   -0.042780   -0.885519
  H      0.026205   -1.970880   -0.131291
  H      0.821707   -1.600754   -1.669589
  P     -1.542102    0.285478    0.001569
  O     -2.617459   -0.829351   -0.416284
  H     -3.337580   -0.455123   -0.934813
  O     -1.165593   -0.229463    1.450798
  H     -0.210152   -0.166874    1.661098
  O     -1.986036    1.664202   -0.198844
  H      2.822752    0.043433   -1.766320

 Total Charge           Charge          ....    0
 Multiplicity           Mult            ....    1
 Number of Electrons    NEL             ....   88
 Basis Dimension        Dim             .... 1126

ORBITAL ENERGIES
----------------

  NO   OCC          E(Eh)            E(eV)
   0   2.0000     -80.098723     -2179.5971
   1   2.0000     -20.607998      -560.7721
   2   2.0000     -20.603883      -560.6602
   3   2.0000     -20.601094      -560.5843
   4   2.0000     -20.599764      -560.5481
   5   2.0000     -20.589142      -560.2591
   6   2.0000     -20.505833      -557.9921
   7   2.0000     -11.369927      -309.3914
   8   2.0000     -11.336810      -308.4903
   9   2.0000     -11.332659      -308.3773
  10   2.0000      -7.615015      -207.2151
  11   2.0000      -5.514191      -150.0488
  12   2.0000      -5.513765      -150.0372
  13   2.0000      -5.512230      -149.9954
  14   2.0000      -1.464965       -39.8637
  15   2.0000      -1.451677       -39.5021
  16   2.0000      -1.410400       -38.3789
  17   2.0000      -1.393762       -37.9262
  18   2.0000      -1.378645       -37.5148
  19   2.0000      -1.296426       -35.2775
  20   2.0000      -1.081821       -29.4379
  21   2.0000      -0.943190       -25.6655
  22   2.0000      -0.859764       -23.3954
  23   2.0000      -0.830640       -22.6029
  24   2.0000      -0.781750       -21.2725
  25   2.0000      -0.748518       -20.3682
  26   2.0000      -0.729213       -19.8429
  27   2.0000      -0.723391       -19.6845
  28   2.0000      -0.708942       -19.2913
  29   2.0000      -0.674048       -18.3418
  30   2.0000      -0.650631       -17.7046
  31   2.0000      -0.639738       -17.4082
  32   2.0000      -0.622150       -16.9296
  33   2.0000      -0.593084       -16.1386
  34   2.0000      -0.582548       -15.8519
  35   2.0000      -0.573727       -15.6119
  36   2.0000      -0.561597       -15.2818
  37   2.0000      -0.548389       -14.9224
  38   2.0000      -0.537518       -14.6266
  39   2.0000      -0.530782       -14.4433
  40   2.0000      -0.487230       -13.2582
  41   2.0000      -0.469637       -12.7795
  42   2.0000      -0.465781       -12.6745
  43   2.0000      -0.463597       -12.6151
  44   0.0000       0.013309         0.3621
  45   0.0000       0.026807         0.7295
  46   0.0000       0.028459         0.7744
  47   0.0000       0.035671         0.9707
  48   0.0000       0.044272         1.2047

MULLIKEN ATOMIC CHARGES
-----------------------
   0 C :    0.142879
   1 C :    0.423265
   2 C :   -0.261541
   3 O :   -0.808077
   4 O :   -0.829316
   5 H :    0.487878
   6 H :    0.369780
   7 O :   -0.924182
   8 H :    0.281592
   9 H :    0.395903
  10 P :    2.637199
  11 O :   -0.928015
  12 H :    0.379255
  13 O :   -0.952494
  14 H :    0.351178
  15 O :   -1.214708
  16 H :    0.449403
Sum of atomic charges:   -0.0000000

LOEWDIN ATOMIC CHARGES
----------------------
   0 C :   -0.198476
   1 C :   -0.235195
   2 C :    0.090443
   3 O :    0.800651
   4 O :    1.338399
   5 H :   -0.290915
   6 H :   -0.866920
   7 O :    0.696993
   8 H :   -0.310905
   9 H :   -0.301074
  10 P :   -0.924397
  11 O :    1.095360
  12 H :   -0.874692
  13 O :    1.112881
  14 H :   -1.092689
  15 O :    0.275014
  16 H :   -0.314477

  Mayer bond orders larger than 0.100000
B(  0-C ,  1-C ) :   0.9511 B(  0-C ,  3-O ) :   1.5142 B(  0-C , 16-H ) :   0.7774
B(  1-C ,  2-C ) :   0.9691 B(  1-C ,  4-O ) :   0.5407 B(  1-C ,  5-H ) :   0.7100
B(  2-C ,  7-O ) :   0.6482 B(  2-C ,  8-H ) :   0.9142 B(  2-C ,  9-H ) :   0.8079
B(  4-O ,  6-H ) :   0.8651 B(  7-O , 10-P ) :   0.7734 B(  7-O , 15-O ) :  -0.1478
B( 10-P , 11-O ) :   0.5572 B( 10-P , 13-O ) :   0.7193 B( 10-P , 15-O ) :   1.2380
B( 11-O , 12-H ) :   0.9182 B( 13-O , 14-H ) :   0.8486

MP2 TOTAL ENERGY:     -910.248715535 Eh
FINAL SINGLE POINT ENERGY      -910.248715534634

DIPOLE MOMENT
-------------
                                X             Y             Z
Electronic contribution:     -4.70116       3.39039       0.38484
Nuclear contribution   :      5.91861      -5.45190      -1.20235
                        -----------------------------------------
Total Dipole Moment    :      1.21745      -2.06150      -0.81750
                        -----------------------------------------
Magnitude (a.u.)       :      2.52988
Magnitude (Debye)      :      6.43044

Rotational constants in cm-1:     0.075760     0.023731     0.023107
Rotational constants in MHz :  2271.218144   711.433828   692.716188

                             ****ORCA TERMINATED NORMALLY****
TOTAL RUN TIME: 0 days 0 hours 30 minutes 55 seconds 311 msec
