                         Program Version 4.2.1 -  RELEASE  -
|  1> %pal
|  2>  nprocs 32
|  3> end
|  4> !RI-MP2 aug-cc-pVQZ aug-cc-pVQZ/C TightSCF
|  5> %maxcore 4500
|  6> *xyzfile 0 1  10_12R2.xyz
|  7>
|  8>
|  9>                          ****END OF INPUT****

CARTESIAN COORDINATES (ANGSTROEM)
---------------------------------
  C      1.285244    0.150499    0.000000
  C      0.000000    0.473257    0.000000
  H      1.608938   -0.885482    0.000000
  H      2.060569    0.906982    0.000000
  C     -1.132627   -0.504341    0.000000
  H     -0.770315   -1.533804    0.000000
  H     -1.769470   -0.364829    0.878219
  H     -1.769470   -0.364829   -0.878219
  H     -0.275955    1.525468    0.000000

 Total Charge           Charge          ....    0
 Multiplicity           Mult            ....    1
 Number of Electrons    NEL             ....   24
 Basis Dimension        Dim             ....  516

ORBITAL ENERGIES
----------------

  NO   OCC          E(Eh)            E(eV)
   0   2.0000     -11.231979      -305.6377
   1   2.0000     -11.220628      -305.3288
   2   2.0000     -11.215587      -305.1916
   3   2.0000      -1.065811       -29.0022
   4   2.0000      -0.933389       -25.3988
   5   2.0000      -0.756826       -20.5943
   6   2.0000      -0.639767       -17.4089
   7   2.0000      -0.584037       -15.8925
   8   2.0000      -0.567631       -15.4460
   9   2.0000      -0.523860       -14.2550
  10   2.0000      -0.490173       -13.3383
  11   2.0000      -0.360787        -9.8175
  12   0.0000       0.028215         0.7678
  13   0.0000       0.034629         0.9423
  14   0.0000       0.036718         0.9992
  15   0.0000       0.043281         1.1777
  16   0.0000       0.051661         1.4058

MULLIKEN ATOMIC CHARGES
-----------------------
   0 C :   -0.924494
   1 C :   -0.379476
   2 H :    0.390250
   3 H :    0.364245
   4 C :   -0.630189
   5 H :    0.258573
   6 H :    0.225503
   7 H :    0.225503
   8 H :    0.470085
Sum of atomic charges:   -0.0000000

LOEWDIN ATOMIC CHARGES
----------------------
   0 C :    0.773708
   1 C :    0.336292
   2 H :   -0.361105
   3 H :   -0.363721
   4 C :    0.867361
   5 H :   -0.319319
   6 H :   -0.298651
   7 H :   -0.298651
   8 H :   -0.335915

  Mayer bond orders larger than 0.100000
B(  0-C ,  1-C ) :   1.8683 B(  0-C ,  2-H ) :   0.8339 B(  0-C ,  3-H ) :   0.9438
B(  1-C ,  4-C ) :   0.8275 B(  1-C ,  8-H ) :   0.7400 B(  4-C ,  5-H ) :   0.9393
B(  4-C ,  6-H ) :   0.9670 B(  4-C ,  7-H ) :   0.9670

MP2 TOTAL ENERGY:     -117.668356600 Eh
FINAL SINGLE POINT ENERGY      -117.668356599509

DIPOLE MOMENT
-------------
                                X             Y             Z
Electronic contribution:      0.81990       0.74848      -0.00000
Nuclear contribution   :     -0.98083      -0.76745       0.00000
                        -----------------------------------------
Total Dipole Moment    :     -0.16093      -0.01897      -0.00000
                        -----------------------------------------
Magnitude (a.u.)       :      0.16204
Magnitude (Debye)      :      0.41188

Rotational constants in cm-1:     1.568956     0.311713     0.273151
Rotational constants in MHz : 47036.111093  9344.910878  8188.863329

                             ****ORCA TERMINATED NORMALLY****
TOTAL RUN TIME: 0 days 0 hours 2 minutes 6 seconds 27 msec
