                         Program Version 4.2.1 -  RELEASE  -
|  1> %pal
|  2>  nprocs 32
|  3> end
|  4> !RI-MP2 aug-cc-pVQZ aug-cc-pVQZ/C TightSCF
|  5> %maxcore 4500
|  6> *xyzfile 0 1  07_3TS.xyz
|  7>
|  8>
|  9>                          ****END OF INPUT****

CARTESIAN COORDINATES (ANGSTROEM)
---------------------------------
  C     -0.298581    1.353158    0.000939
  C      0.851205    0.557217    0.001191
  C      0.593991   -0.819741   -0.000256
  N     -0.583125   -1.455956   -0.000113
  C     -1.624069   -0.637345   -0.004586
  N     -1.499633    0.703263   -0.000068
  N      2.210100    0.805333    0.002254
  C      2.756113   -0.367706    0.001656
  N      1.829784   -1.396073    0.000524
  N     -2.873907   -1.162049   -0.040499
  O     -0.584720    2.591363   -0.000460
  H      3.817362   -0.565303    0.002002
  H      2.012700   -2.386690   -0.003060
  H     -1.786641    1.966650   -0.005093
  H     -3.660424   -0.569681    0.160796
  H     -2.959715   -2.151010    0.120684

 Total Charge           Charge          ....    0
 Multiplicity           Mult            ....    1
 Number of Electrons    NEL             ....   78
 Basis Dimension        Dim             .... 1110

ORBITAL ENERGIES
----------------

  NO   OCC          E(Eh)            E(eV)
   0   2.0000     -20.546605      -559.1016
   1   2.0000     -15.630223      -425.3200
   2   2.0000     -15.596964      -424.4150
   3   2.0000     -15.585970      -424.1158
   4   2.0000     -15.564862      -423.5414
   5   2.0000     -15.557331      -423.3365
   6   2.0000     -11.382519      -309.7341
   7   2.0000     -11.361553      -309.1636
   8   2.0000     -11.331725      -308.3519
   9   2.0000     -11.316070      -307.9259
  10   2.0000     -11.251004      -306.1554
  11   2.0000      -1.422446       -38.7067
  12   2.0000      -1.370162       -37.2840
  13   2.0000      -1.326708       -36.1016
  14   2.0000      -1.218263       -33.1506
  15   2.0000      -1.202448       -32.7203
  16   2.0000      -1.172007       -31.8919
  17   2.0000      -1.039711       -28.2920
  18   2.0000      -0.901645       -24.5350
  19   2.0000      -0.896613       -24.3981
  20   2.0000      -0.844440       -22.9784
  21   2.0000      -0.811963       -22.0946
  22   2.0000      -0.738196       -20.0873
  23   2.0000      -0.712271       -19.3819
  24   2.0000      -0.699979       -19.0474
  25   2.0000      -0.670030       -18.2324
  26   2.0000      -0.659708       -17.9516
  27   2.0000      -0.623307       -16.9610
  28   2.0000      -0.617159       -16.7938
  29   2.0000      -0.599630       -16.3167
  30   2.0000      -0.560398       -15.2492
  31   2.0000      -0.545345       -14.8396
  32   2.0000      -0.503857       -13.7106
  33   2.0000      -0.461649       -12.5621
  34   2.0000      -0.453648       -12.3444
  35   2.0000      -0.431002       -11.7281
  36   2.0000      -0.429478       -11.6867
  37   2.0000      -0.401478       -10.9248
  38   2.0000      -0.309327        -8.4172
  39   0.0000       0.016445         0.4475
  40   0.0000       0.020895         0.5686
  41   0.0000       0.034157         0.9295
  42   0.0000       0.041238         1.1221
  43   0.0000       0.050144         1.3645

MULLIKEN ATOMIC CHARGES
-----------------------
   0 C :    1.631302
   1 C :   -0.293567
   2 C :    1.022766
   3 N :   -0.756700
   4 C :    0.871795
   5 N :   -0.722378
   6 N :   -0.685184
   7 C :   -0.264293
   8 N :   -0.628231
   9 N :   -0.799137
  10 O :   -0.923330
  11 H :    0.565759
  12 H :    0.159847
  13 H :    0.245311
  14 H :    0.296234
  15 H :    0.279805
Sum of atomic charges:    0.0000000

LOEWDIN ATOMIC CHARGES
----------------------
   0 C :   -0.711200
   1 C :   -0.390015
   2 C :   -0.593178
   3 N :    0.621782
   4 C :   -0.675297
   5 N :    0.697975
   6 N :    0.591882
   7 C :   -0.039800
   8 N :    0.838246
   9 N :    1.251496
  10 O :    0.959199
  11 H :   -0.317250
  12 H :   -0.438101
  13 H :   -0.808982
  14 H :   -0.487102
  15 H :   -0.499655

  Mayer bond orders larger than 0.100000
B(  0-C ,  1-C ) :   1.3765 B(  0-C ,  2-C ) :  -0.2305 B(  0-C ,  5-N ) :   0.9699
B(  0-C , 10-O ) :   0.4883 B(  0-C , 13-H ) :  -0.1099 B(  1-C ,  2-C ) :   1.4314
B(  1-C ,  6-N ) :   0.3414 B(  1-C , 10-O ) :   0.4899 B(  2-C ,  3-N ) :   0.9327
B(  2-C ,  8-N ) :   0.7681 B(  3-N ,  4-C ) :   1.4116 B(  4-C ,  5-N ) :   1.2165
B(  4-C ,  9-N ) :   1.0923 B(  5-N , 10-O ) :   0.1192 B(  5-N , 13-H ) :   0.7234
B(  6-N ,  7-C ) :   1.8280 B(  7-C ,  8-N ) :   1.3052 B(  7-C , 11-H ) :   0.6944
B(  8-N , 12-H ) :   1.0885 B(  9-N , 14-H ) :   0.9187 B(  9-N , 15-H ) :   0.9423
B( 10-O , 13-H ) :   0.4883

MP2 TOTAL ENERGY:     -541.719522980 Eh
FINAL SINGLE POINT ENERGY      -541.719522980002

DIPOLE MOMENT
-------------
                                X             Y             Z
Electronic contribution:      1.90378       1.38074      -0.05529
Nuclear contribution   :     -2.51177      -3.56693       0.26665
                        -----------------------------------------
Total Dipole Moment    :     -0.60798      -2.18619       0.21136
                        -----------------------------------------
Magnitude (a.u.)       :      2.27897
Magnitude (Debye)      :      5.79269

Rotational constants in cm-1:     0.066223     0.037129     0.023795
Rotational constants in MHz :  1985.322173  1113.098050   713.344259

                             ****ORCA TERMINATED NORMALLY****
TOTAL RUN TIME: 0 days 0 hours 39 minutes 50 seconds 4 msec
