                         Program Version 4.2.1 -  RELEASE  -
|  1> %pal
|  2>  nprocs 32
|  3> end
|  4> !RI-MP2 aug-cc-pVQZ aug-cc-pVQZ/C TightSCF
|  5> %maxcore 4500
|  6> *xyzfile 0 1  04_38P2.xyz
|  7>
|  8>
|  9>                          ****END OF INPUT****

CARTESIAN COORDINATES (ANGSTROEM)
---------------------------------
  C     -1.217947   -0.222275   -0.000049
  C      0.082144    0.547875   -0.000086
  H     -1.282813   -0.858415   -0.884363
  H     -2.069344    0.461836   -0.000306
  H     -1.283020   -0.858012    0.884539
  H      0.140487    1.191350    0.886441
  H      0.140606    1.191057   -0.886818
  H      1.985850    0.073502    0.000171
  O      1.147882   -0.394365    0.000143

 Total Charge           Charge          ....    0
 Multiplicity           Mult            ....    1
 Number of Electrons    NEL             ....   26
 Basis Dimension        Dim             ....  516

ORBITAL ENERGIES
----------------

  NO   OCC          E(Eh)            E(eV)
   0   2.0000     -20.552389      -559.2589
   1   2.0000     -11.273806      -306.7759
   2   2.0000     -11.211049      -305.0682
   3   2.0000      -1.356333       -36.9077
   4   2.0000      -1.012443       -27.5500
   5   2.0000      -0.833966       -22.6934
   6   2.0000      -0.699740       -19.0409
   7   2.0000      -0.645181       -17.5563
   8   2.0000      -0.571076       -15.5398
   9   2.0000      -0.533332       -14.5127
  10   2.0000      -0.525082       -14.2882
  11   2.0000      -0.488439       -13.2911
  12   2.0000      -0.442083       -12.0297
  13   0.0000       0.025945         0.7060
  14   0.0000       0.035635         0.9697
  15   0.0000       0.038098         1.0367
  16   0.0000       0.040166         1.0930
  17   0.0000       0.057505         1.5648

MULLIKEN ATOMIC CHARGES
-----------------------
   0 C :   -0.861317
   1 C :    0.023686
   2 H :    0.259744
   3 H :    0.263874
   4 H :    0.259743
   5 H :    0.256429
   6 H :    0.256426
   7 H :    0.310756
   8 O :   -0.769340
Sum of atomic charges:   -0.0000000

LOEWDIN ATOMIC CHARGES
----------------------
   0 C :    0.884333
   1 C :    0.149948
   2 H :   -0.296298
   3 H :   -0.294282
   4 H :   -0.296294
   5 H :   -0.302066
   6 H :   -0.302065
   7 H :   -0.796180
   8 O :    1.252904

  Mayer bond orders larger than 0.100000
B(  0-C ,  1-C ) :   1.0314 B(  0-C ,  2-H ) :   0.9155 B(  0-C ,  3-H ) :   0.9462
B(  0-C ,  4-H ) :   0.9155 B(  1-C ,  5-H ) :   0.8818 B(  1-C ,  6-H ) :   0.8818
B(  1-C ,  8-O ) :   0.6989 B(  7-H ,  8-O ) :   0.9248

MP2 TOTAL ENERGY:     -154.803730645 Eh
FINAL SINGLE POINT ENERGY      -154.803730644689

DIPOLE MOMENT
-------------
                                X             Y             Z
Electronic contribution:      2.53399      -0.60247       0.00028
Nuclear contribution   :     -2.49098       1.26672      -0.00035
                        -----------------------------------------
Total Dipole Moment    :      0.04301       0.66425      -0.00008
                        -----------------------------------------
Magnitude (a.u.)       :      0.66565
Magnitude (Debye)      :      1.69194

Rotational constants in cm-1:     1.177623     0.313684     0.273077
Rotational constants in MHz : 35304.260445  9403.996539  8186.636660

                             ****ORCA TERMINATED NORMALLY****
TOTAL RUN TIME: 0 days 0 hours 2 minutes 4 seconds 847 msec
