                         Program Version 4.2.1 -  RELEASE  -
|  1> %pal
|  2>  nprocs 32
|  3> end
|  4> !RI-MP2 aug-cc-pVQZ aug-cc-pVQZ/C TightSCF
|  5> %maxcore 4500
|  6> *xyzfile 0 2  03_24P1.xyz
|  7>
|  8>
|  9>                          ****END OF INPUT****

CARTESIAN COORDINATES (ANGSTROEM)
---------------------------------
  C      1.593888    0.300012   -0.348313
  C      1.860059   -1.086464    0.260751
  O      3.068486   -1.573943   -0.004515
  O      1.033776   -1.683568    0.892417
  C      0.841535    1.178669    0.590296
  H      0.975864    0.100273   -1.230115
  N      2.871221    0.867067   -0.841165
  H      3.527490   -0.869115   -0.511949
  C     -0.245385    2.088897    0.138526
  H      3.254094    1.524072   -0.169643
  H      2.750925    1.358490   -1.717653
  H     -0.145055    3.063785    0.628134
  C     -1.651152    1.535651    0.446710
  H     -0.162216    2.267852   -0.939519
  H     -2.393597    2.284569    0.150788
  H     -1.749265    1.408560    1.529867
  C     -1.940048    0.212098   -0.251540
  H     -1.839006    0.326866   -1.336280
  C     -3.330012   -0.327405    0.045485
  H     -1.202116   -0.533423    0.062792
  H     -4.082853    0.385597   -0.304660
  H     -3.453647   -0.411866    1.135875
  N     -3.543297   -1.588643   -0.659064
  H     -4.477469   -1.947510   -0.505601
  H     -2.888042   -2.293517   -0.339854
  H      0.998019    1.037737    1.654721

 Total Charge           Charge          ....    0
 Multiplicity           Mult            ....    2
 Number of Electrons    NEL             ....   87
 Basis Dimension        Dim             .... 1570

ORBITAL ENERGIES
----------------
                 SPIN UP ORBITALS
  NO   OCC          E(Eh)            E(eV)
   0   1.0000     -20.593313      -560.3725
   1   1.0000     -20.531925      -558.7021
   2   1.0000     -15.583632      -424.0522
   3   1.0000     -15.529896      -422.5899
   4   1.0000     -11.372222      -309.4539
   5   1.0000     -11.292038      -307.2720
   6   1.0000     -11.245599      -306.0083
   7   1.0000     -11.240252      -305.8628
   8   1.0000     -11.232808      -305.6603
   9   1.0000     -11.223927      -305.4186
  10   1.0000     -11.209095      -305.0150
  11   1.0000      -1.454772       -39.5864
  12   1.0000      -1.357525       -36.9401
  13   1.0000      -1.226091       -33.3636
  14   1.0000      -1.171979       -31.8912
  15   1.0000      -1.099102       -29.9081
  16   1.0000      -1.030153       -28.0319
  17   1.0000      -0.967509       -26.3273
  18   1.0000      -0.890216       -24.2240
  19   1.0000      -0.825914       -22.4743
  20   1.0000      -0.802787       -21.8449
  21   1.0000      -0.787265       -21.4226
  22   1.0000      -0.742301       -20.1990
  23   1.0000      -0.696464       -18.9517
  24   1.0000      -0.673275       -18.3207
  25   1.0000      -0.658559       -17.9203
  26   1.0000      -0.641483       -17.4556
  27   1.0000      -0.624863       -17.0034
  28   1.0000      -0.623198       -16.9581
  29   1.0000      -0.609061       -16.5734
  30   1.0000      -0.598385       -16.2829
  31   1.0000      -0.577945       -15.7267
  32   1.0000      -0.565789       -15.3959
  33   1.0000      -0.543567       -14.7912
  34   1.0000      -0.522117       -14.2075
  35   1.0000      -0.506618       -13.7858
  36   1.0000      -0.485962       -13.2237
  37   1.0000      -0.477641       -12.9973
  38   1.0000      -0.474260       -12.9053
  39   1.0000      -0.468699       -12.7539
  40   1.0000      -0.464515       -12.6401
  41   1.0000      -0.422365       -11.4931
  42   1.0000      -0.382561       -10.4100
  43   1.0000      -0.352638        -9.5958
  44   0.0000       0.015731         0.4281
  45   0.0000       0.026138         0.7113
  46   0.0000       0.028340         0.7712
  47   0.0000       0.031852         0.8667
  48   0.0000       0.040833         1.1111

                 SPIN DOWN ORBITALS
  NO   OCC          E(Eh)            E(eV)
   0   1.0000     -20.593250      -560.3708
   1   1.0000     -20.531762      -558.6976
   2   1.0000     -15.580662      -423.9714
   3   1.0000     -15.529877      -422.5894
   4   1.0000     -11.371725      -309.4404
   5   1.0000     -11.295368      -307.3626
   6   1.0000     -11.240269      -305.8633
   7   1.0000     -11.235987      -305.7467
   8   1.0000     -11.221550      -305.3539
   9   1.0000     -11.221130      -305.3425
  10   1.0000     -11.209124      -305.0158
  11   1.0000      -1.454327       -39.5743
  12   1.0000      -1.357094       -36.9284
  13   1.0000      -1.216215       -33.0949
  14   1.0000      -1.171838       -31.8873
  15   1.0000      -1.080133       -29.3919
  16   1.0000      -1.010049       -27.4848
  17   1.0000      -0.966838       -26.3090
  18   1.0000      -0.870346       -23.6833
  19   1.0000      -0.818023       -22.2595
  20   1.0000      -0.797875       -21.7113
  21   1.0000      -0.773457       -21.0468
  22   1.0000      -0.740563       -20.1517
  23   1.0000      -0.686458       -18.6795
  24   1.0000      -0.670283       -18.2393
  25   1.0000      -0.657287       -17.8857
  26   1.0000      -0.637036       -17.3346
  27   1.0000      -0.622866       -16.9490
  28   1.0000      -0.618849       -16.8397
  29   1.0000      -0.600898       -16.3513
  30   1.0000      -0.593090       -16.1388
  31   1.0000      -0.571870       -15.5614
  32   1.0000      -0.556230       -15.1358
  33   1.0000      -0.541697       -14.7403
  34   1.0000      -0.517355       -14.0779
  35   1.0000      -0.500336       -13.6148
  36   1.0000      -0.476707       -12.9719
  37   1.0000      -0.473319       -12.8797
  38   1.0000      -0.470988       -12.8162
  39   1.0000      -0.464401       -12.6370
  40   1.0000      -0.460522       -12.5314
  41   1.0000      -0.417414       -11.3584
  42   1.0000      -0.382204       -10.4003
  43   0.0000       0.015260         0.4152
  44   0.0000       0.025728         0.7001
  45   0.0000       0.028263         0.7691
  46   0.0000       0.031535         0.8581
  47   0.0000       0.040877         1.1123

MULLIKEN ATOMIC CHARGES AND SPIN POPULATIONS
--------------------------------------------
   0 C :   -0.012882   -0.207272
   1 C :    1.443578    0.028879
   2 O :   -0.954386    0.003314
   3 O :   -0.892005    0.001140
   4 C :   -0.249500    1.269773
   5 H :    0.283538    0.022707
   6 N :   -0.805347    0.081698
   7 H :    0.416257   -0.003760
   8 C :   -0.625506   -0.170176
   9 H :    0.240478   -0.005745
  10 H :    0.229959   -0.008726
  11 H :    0.289154    0.044604
  12 C :   -0.469775    0.078449
  13 H :    0.200402    0.013754
  14 H :    0.268388    0.000121
  15 H :    0.259858   -0.003370
  16 C :   -0.314781   -0.007803
  17 H :    0.218509   -0.001187
  18 C :   -0.183088    0.000605
  19 H :    0.333278    0.006249
  20 H :    0.275456   -0.000127
  21 H :    0.208609    0.000286
  22 N :   -0.845339    0.000462
  23 H :    0.156663   -0.000057
  24 H :    0.290595    0.000111
  25 H :    0.237888   -0.143929
Sum of atomic charges         :    0.0000000

LOEWDIN ATOMIC CHARGES AND SPIN POPULATIONS
-------------------------------------------
   0 C :   -0.081687    0.117187
   1 C :   -1.034954    0.013913
   2 O :    1.259581    0.001919
   3 O :    0.695669    0.006533
   4 C :    0.421696    0.446529
   5 H :   -0.318118    0.009188
   6 N :    1.301935    0.039543
   7 H :   -0.956530    0.000679
   8 C :    0.514268    0.118892
   9 H :   -0.467872    0.019775
  10 H :   -0.460029    0.007290
  11 H :   -0.277726    0.018477
  12 C :    0.523289    0.028275
  13 H :   -0.287660    0.006041
  14 H :   -0.262192    0.006516
  15 H :   -0.265487    0.006671
  16 C :    0.487465    0.009432
  17 H :   -0.262128    0.000421
  18 C :    0.355323    0.000792
  19 H :   -0.317426    0.006253
  20 H :   -0.285861    0.000529
  21 H :   -0.266258    0.000242
  22 N :    1.286302    0.000195
  23 H :   -0.506533    0.000033
  24 H :   -0.509742    0.000065
  25 H :   -0.285325    0.134611

  Mayer bond orders larger than 0.100000
B(  0-C ,  1-C ) :   1.1849 B(  0-C ,  2-O ) :   0.2570 B(  0-C ,  3-O ) :   0.2699
B(  0-C ,  4-C ) :   0.8158 B(  0-C ,  5-H ) :   0.7780 B(  0-C ,  6-N ) :   0.5795
B(  1-C ,  2-O ) :   0.4181 B(  1-C ,  3-O ) :   1.2822 B(  2-O ,  3-O ) :   0.1604
B(  2-O ,  7-H ) :   0.7268 B(  4-C ,  8-C ) :   0.8023 B(  4-C , 11-H ) :  -0.1015
B(  4-C , 25-H ) :   1.0186 B(  6-N ,  9-H ) :   0.9088 B(  6-N , 10-H ) :   1.0098
B(  8-C , 11-H ) :   0.9275 B(  8-C , 12-C ) :   1.0644 B(  8-C , 13-H ) :   1.0030
B( 12-C , 14-H ) :   0.9009 B( 12-C , 15-H ) :   0.8848 B( 12-C , 16-C ) :   0.8274
B( 16-C , 17-H ) :   0.9016 B( 16-C , 18-C ) :   0.9025 B( 16-C , 19-H ) :   0.8165
B( 18-C , 20-H ) :   0.9372 B( 18-C , 21-H ) :   0.9590 B( 18-C , 22-N ) :   0.8322
B( 22-N , 23-H ) :   1.0540 B( 22-N , 24-H ) :   0.8523

MP2 TOTAL ENERGY:     -534.851968043 Eh
FINAL SINGLE POINT ENERGY      -534.851968043143

DIPOLE MOMENT
-------------
                                X             Y             Z
Electronic contribution:     11.34271      -5.99763       1.49776
Nuclear contribution   :    -11.11062       7.84771      -1.93751
                        -----------------------------------------
Total Dipole Moment    :      0.23210       1.85008      -0.43975
                        -----------------------------------------
Magnitude (a.u.)       :      1.91574
Magnitude (Debye)      :      4.86941

Rotational constants in cm-1:     0.050192     0.018557     0.014817
Rotational constants in MHz :  1504.714056   556.314480   444.214049

                             ****ORCA TERMINATED NORMALLY****
TOTAL RUN TIME: 0 days 2 hours 4 minutes 19 seconds 98 msec
