                         Program Version 4.2.1 -  RELEASE  -
|  1> %pal
|  2>  nprocs 32
|  3> end
|  4> !RI-MP2 aug-cc-pVQZ aug-cc-pVQZ/C TightSCF
|  5> %maxcore 4500
|  6> *xyzfile -1 1  08_10TS.xyz
|  7>
|  8>
|  9>                          ****END OF INPUT****

CARTESIAN COORDINATES (ANGSTROEM)
---------------------------------
  S      1.935179    1.744099   -1.726279
  C      0.412094    2.700630   -1.393279
  S      0.791111   -0.340574   -1.512202
  C      1.628290   -0.813193    0.043847
  C      2.758714   -1.829718   -0.127660
  H      0.870303   -1.223736    0.708328
  H      2.034461    0.095375    0.482803
  C     -0.088860    2.640884    0.060191
  H     -0.382114    2.299882   -2.022909
  H      0.574853    3.738221   -1.691233
  N      2.281406   -3.065860   -0.714267
  C      3.420088   -2.024746    1.227667
  H      3.531523   -1.396100   -0.766364
  O      4.549633   -1.715706    1.509033
  O      2.603804   -2.609744    2.131547
  N     -1.443136    3.163251    0.146566
  C      0.812104    3.388541    1.041642
  H     -0.040929    1.587816    0.366617
  O      0.379601    4.123059    1.894231
  O      2.119509    3.156667    0.939741
  S     -0.931264   -2.144426   -1.169906
  C     -1.972877   -0.917718   -0.315059
  C     -3.396971   -1.399524   -0.114601
  H     -1.988922   -0.006057   -0.911156
  H     -1.548224   -0.668624    0.661482
  N     -3.435442   -2.539113    0.798265
  C     -4.266798   -0.289672    0.436952
  H     -3.814985   -1.636821   -1.106324
  O     -3.973758    0.871120    0.549803
  O     -5.499227   -0.736147    0.774100
  H      2.310636    2.596412    0.141876
  H      3.101397   -2.670253    2.957853
  H     -5.986043    0.026485    1.114889
  H     -2.130294    2.418014    0.127767
  H     -1.548823    3.679353    1.012661
  H      1.344286   -3.300330   -0.405196
  H      2.911521   -3.842201   -0.567818
  H     -4.333817   -3.004588    0.768123
  H     -2.716233   -3.193282    0.503003

 Total Charge           Charge          ....   -1
 Multiplicity           Mult            ....    1
 Number of Electrons    NEL             ....  190
 Basis Dimension        Dim             .... 2520

ORBITAL ENERGIES
----------------

  NO   OCC          E(Eh)            E(eV)
   0   2.0000     -91.870426     -2499.9214
   1   2.0000     -91.809167     -2498.2544
   2   2.0000     -91.774496     -2497.3110
   3   2.0000     -20.530558      -558.6649
   4   2.0000     -20.526681      -558.5594
   5   2.0000     -20.482020      -557.3441
   6   2.0000     -20.466346      -556.9176
   7   2.0000     -20.464225      -556.8599
   8   2.0000     -20.428716      -555.8936
   9   2.0000     -15.453590      -420.5136
  10   2.0000     -15.447847      -420.3573
  11   2.0000     -15.427401      -419.8009
  12   2.0000     -11.298070      -307.4361
  13   2.0000     -11.293746      -307.3185
  14   2.0000     -11.266811      -306.5855
  15   2.0000     -11.183096      -304.3075
  16   2.0000     -11.180787      -304.2447
  17   2.0000     -11.165981      -303.8418
  18   2.0000     -11.158969      -303.6510
  19   2.0000     -11.145129      -303.2744
  20   2.0000     -11.134321      -302.9803
  21   2.0000      -8.865965      -241.2552
  22   2.0000      -8.811558      -239.7747
  23   2.0000      -8.777127      -238.8378
  24   2.0000      -6.546225      -178.1318
  25   2.0000      -6.544241      -178.0779
  26   2.0000      -6.543058      -178.0457
  27   2.0000      -6.492743      -176.6765
  28   2.0000      -6.492037      -176.6573
  29   2.0000      -6.491439      -176.6410
  30   2.0000      -6.458546      -175.7460
  31   2.0000      -6.457562      -175.7192
  32   2.0000      -6.456963      -175.7029
  33   2.0000      -1.387526       -37.7565
  34   2.0000      -1.383930       -37.6587
  35   2.0000      -1.344292       -36.5800
  36   2.0000      -1.281758       -34.8784
  37   2.0000      -1.277629       -34.7661
  38   2.0000      -1.247086       -33.9349
  39   2.0000      -1.105893       -30.0929
  40   2.0000      -1.104848       -30.0644
  41   2.0000      -1.082209       -29.4484
  42   2.0000      -0.956756       -26.0347
  43   2.0000      -0.929411       -25.2905
  44   2.0000      -0.926780       -25.2190
  45   2.0000      -0.864758       -23.5313
  46   2.0000      -0.838675       -22.8215
  47   2.0000      -0.815870       -22.2010
  48   2.0000      -0.752548       -20.4779
  49   2.0000      -0.730034       -19.8652
  50   2.0000      -0.718064       -19.5395
  51   2.0000      -0.700484       -19.0611
  52   2.0000      -0.690039       -18.7769
  53   2.0000      -0.661383       -17.9971
  54   2.0000      -0.630251       -17.1500
  55   2.0000      -0.622584       -16.9414
  56   2.0000      -0.616033       -16.7631
  57   2.0000      -0.604472       -16.4485
  58   2.0000      -0.603759       -16.4291
  59   2.0000      -0.584431       -15.9032
  60   2.0000      -0.573462       -15.6047
  61   2.0000      -0.557434       -15.1685
  62   2.0000      -0.556397       -15.1403
  63   2.0000      -0.550960       -14.9924
  64   2.0000      -0.538123       -14.6431
  65   2.0000      -0.528693       -14.3865
  66   2.0000      -0.521366       -14.1871
  67   2.0000      -0.515597       -14.0301
  68   2.0000      -0.508390       -13.8340
  69   2.0000      -0.498788       -13.5727
  70   2.0000      -0.484313       -13.1788
  71   2.0000      -0.470867       -12.8129
  72   2.0000      -0.455500       -12.3948
  73   2.0000      -0.448061       -12.1924
  74   2.0000      -0.443987       -12.0815
  75   2.0000      -0.437372       -11.9015
  76   2.0000      -0.424494       -11.5511
  77   2.0000      -0.424091       -11.5401
  78   2.0000      -0.407599       -11.0913
  79   2.0000      -0.401560       -10.9270
  80   2.0000      -0.394712       -10.7407
  81   2.0000      -0.380239       -10.3468
  82   2.0000      -0.367121        -9.9899
  83   2.0000      -0.363973        -9.9042
  84   2.0000      -0.355726        -9.6798
  85   2.0000      -0.338834        -9.2201
  86   2.0000      -0.333486        -9.0746
  87   2.0000      -0.310256        -8.4425
  88   2.0000      -0.301989        -8.2175
  89   2.0000      -0.295638        -8.0447
  90   2.0000      -0.287482        -7.8228
  91   2.0000      -0.252535        -6.8718
  92   2.0000      -0.222116        -6.0441
  93   2.0000      -0.198314        -5.3964
  94   2.0000      -0.159636        -4.3439
  95   0.0000       0.082391         2.2420
  96   0.0000       0.087824         2.3898
  97   0.0000       0.095996         2.6122
  98   0.0000       0.100155         2.7254
  99   0.0000       0.102813         2.7977

MULLIKEN ATOMIC CHARGES
-----------------------
   0 S :   -0.723644
   1 C :   -0.743672
   2 S :    0.089980
   3 C :   -0.529860
   4 C :    0.455014
   5 H :    0.439245
   6 H :    0.216174
   7 C :    0.278356
   8 H :    0.314277
   9 H :    0.314499
  10 N :   -0.938474
  11 C :    1.226305
  12 H :    0.414616
  13 O :   -0.951244
  14 O :   -0.846128
  15 N :   -1.104526
  16 C :    1.728623
  17 H :    0.307817
  18 O :   -0.992480
  19 O :   -1.093238
  20 S :   -0.878259
  21 C :    0.058676
  22 C :    0.055606
  23 H :    0.184389
  24 H :    0.176314
  25 N :   -0.918561
  26 C :    1.441590
  27 H :    0.327140
  28 O :   -1.071182
  29 O :   -0.831000
  30 H :    0.577152
  31 H :    0.303440
  32 H :    0.373986
  33 H :    0.388437
  34 H :    0.137579
  35 H :    0.271592
  36 H :    0.147125
  37 H :    0.163687
  38 H :    0.230648
Sum of atomic charges:   -1.0000000

LOEWDIN ATOMIC CHARGES
----------------------
   0 S :    0.998948
   1 C :    0.029480
   2 S :    0.822154
   3 C :    0.039267
   4 C :   -0.188849
   5 H :   -0.426943
   6 H :   -0.421446
   7 C :   -0.199452
   8 H :   -0.404747
   9 H :   -0.366138
  10 N :    1.249267
  11 C :   -1.041259
  12 H :   -0.345474
  13 O :    0.707063
  14 O :    1.258616
  15 N :    1.275654
  16 C :   -1.043169
  17 H :   -0.380889
  18 O :    0.695692
  19 O :    1.226160
  20 S :    0.934600
  21 C :   -0.107303
  22 C :   -0.236603
  23 H :   -0.437545
  24 H :   -0.374096
  25 N :    1.252698
  26 C :   -1.016776
  27 H :   -0.311195
  28 O :    0.755415
  29 O :    1.254920
  30 H :   -1.129276
  31 H :   -0.819162
  32 H :   -0.823457
  33 H :   -0.565475
  34 H :   -0.614995
  35 H :   -0.630876
  36 H :   -0.495497
  37 H :   -0.519976
  38 H :   -0.599333

  Mayer bond orders larger than 0.100000
B(  0-S ,  1-C ) :   0.9580 B(  0-S ,  2-S ) :   0.7831 B(  0-S ,  3-C ) :  -0.1282
B(  0-S ,  6-H ) :   0.1268 B(  0-S , 20-S ) :   0.1197 B(  1-C ,  7-C ) :   0.6394
B(  1-C ,  8-H ) :   0.8723 B(  1-C ,  9-H ) :   0.9082 B(  1-C , 15-N ) :   0.1770
B(  2-S ,  3-C ) :   0.8312 B(  2-S , 20-S ) :   0.6797 B(  2-S , 21-C ) :  -0.1209
B(  3-C ,  4-C ) :   0.6089 B(  3-C ,  5-H ) :   0.8001 B(  3-C ,  6-H ) :   0.9599
B(  3-C , 11-C ) :  -0.1306 B(  3-C , 13-O ) :   0.1748 B(  3-C , 14-O ) :  -0.1356
B(  3-C , 20-S ) :  -0.1669 B(  4-C ,  6-H ) :  -0.1005 B(  4-C , 10-N ) :   0.5766
B(  4-C , 11-C ) :   1.1834 B(  4-C , 12-H ) :   0.8855 B(  7-C , 15-N ) :   0.1150
B(  7-C , 16-C ) :   1.1931 B(  7-C , 17-H ) :   0.7225 B(  7-C , 18-O ) :   0.1994
B( 10-N , 11-C ) :   0.1096 B( 10-N , 35-H ) :   0.8784 B( 10-N , 36-H ) :   1.1098
B( 11-C , 13-O ) :   1.0283 B( 11-C , 14-O ) :   0.7562 B( 13-O , 14-O ) :   0.1263
B( 14-O , 31-H ) :   0.9439 B( 15-N , 33-H ) :   0.7390 B( 15-N , 34-H ) :   1.1325
B( 16-C , 18-O ) :   0.7663 B( 16-C , 19-O ) :   0.6889 B( 17-H , 18-O ) :   0.1344
B( 18-O , 19-O ) :   0.1410 B( 19-O , 30-H ) :   0.4768 B( 20-S , 21-C ) :   0.5481
B( 21-C , 22-C ) :   0.9064 B( 21-C , 23-H ) :   0.8146 B( 21-C , 24-H ) :   0.9214
B( 21-C , 25-N ) :  -0.1323 B( 21-C , 26-C ) :  -0.2488 B( 21-C , 28-O ) :  -0.2007
B( 22-C , 25-N ) :   0.6373 B( 22-C , 26-C ) :   1.1734 B( 22-C , 27-H ) :   0.8206
B( 22-C , 28-O ) :   0.2748 B( 22-C , 29-O ) :   0.1008 B( 25-N , 37-H ) :   1.0365
B( 25-N , 38-H ) :   0.9289 B( 26-C , 28-O ) :   1.1410 B( 26-C , 29-O ) :   0.4893
B( 29-O , 32-H ) :   0.9144

MP2 TOTAL ENERGY:    -2161.418354487 Eh
FINAL SINGLE POINT ENERGY     -2161.418354487287

DIPOLE MOMENT
-------------
                                X             Y             Z
Electronic contribution:      6.18050       2.40922      -0.76867
Nuclear contribution   :     -7.75937      -4.37562       1.60985
                        -----------------------------------------
Total Dipole Moment    :     -1.57887      -1.96640       0.84119
                        -----------------------------------------
Magnitude (a.u.)       :      2.65841
Magnitude (Debye)      :      6.75715

Rotational constants in cm-1:     0.007414     0.005613     0.003953
Rotational constants in MHz :   222.275380   168.282795   118.493017

                             ****ORCA TERMINATED NORMALLY****
TOTAL RUN TIME: 0 days 6 hours 55 minutes 9 seconds 421 msec
