                         Program Version 4.2.1 -  RELEASE  -
|  1> %pal
|  2>  nprocs 32
|  3> end
|  4> !RI-MP2 aug-cc-pVQZ aug-cc-pVQZ/C TightSCF
|  5> %maxcore 4500
|  6> *xyzfile 0 1  05_39R1.xyz
|  7>
|  8>
|  9>                          ****END OF INPUT****

CARTESIAN COORDINATES (ANGSTROEM)
---------------------------------
  C      0.218208   -0.792242   -0.000008
  C     -1.215595   -0.326581   -0.000001
  C     -2.234897   -1.275950    0.000003
  C     -1.547628    1.021356   -0.000001
  C     -3.564508   -0.885686    0.000003
  H     -1.984904   -2.332418    0.000005
  C     -2.881365    1.413393    0.000000
  H     -0.753740    1.755268   -0.000001
  C     -3.892667    0.464917    0.000002
  H     -4.346871   -1.635370    0.000006
  H     -3.128897    2.468487    0.000000
  O      1.079575    0.317844    0.000040
  C      2.495237    0.078628    0.000001
  H     -4.931247    0.773105    0.000003
  C      3.091043    1.479397    0.000101
  H      2.761136    2.026473    0.884681
  H      4.181853    1.437099    0.000080
  H      2.761107    2.026612   -0.884382
  C      2.918525   -0.675785   -1.259475
  H      2.549223   -1.702770   -1.266631
  H      2.544124   -0.164823   -2.148630
  H      4.007710   -0.719502   -1.320412
  C      2.918563   -0.675982    1.259347
  H      2.544186   -0.165161    2.148594
  H      2.549263   -1.702969    1.266351
  H      4.007750   -0.719705    1.320245
  H      0.386599   -1.419967    0.883895
  H      0.386611   -1.419901   -0.883956

 Total Charge           Charge          ....    0
 Multiplicity           Mult            ....    1
 Number of Electrons    NEL             ....   90
 Basis Dimension        Dim             .... 1696

ORBITAL ENERGIES
----------------

  NO   OCC          E(Eh)            E(eV)
   0   2.0000     -20.547703      -559.1314
   1   2.0000     -11.286882      -307.1317
   2   2.0000     -11.276597      -306.8518
   3   2.0000     -11.232651      -305.6560
   4   2.0000     -11.227545      -305.5170
   5   2.0000     -11.225230      -305.4540
   6   2.0000     -11.224716      -305.4400
   7   2.0000     -11.222736      -305.3862
   8   2.0000     -11.218062      -305.2590
   9   2.0000     -11.214750      -305.1688
  10   2.0000     -11.214734      -305.1684
  11   2.0000     -11.209634      -305.0297
  12   2.0000      -1.375143       -37.4195
  13   2.0000      -1.151080       -31.3225
  14   2.0000      -1.083312       -29.4784
  15   2.0000      -1.027484       -27.9593
  16   2.0000      -1.008001       -27.4291
  17   2.0000      -0.945920       -25.7398
  18   2.0000      -0.943590       -25.6764
  19   2.0000      -0.910867       -24.7859
  20   2.0000      -0.824114       -22.4253
  21   2.0000      -0.795770       -21.6540
  22   2.0000      -0.753822       -20.5126
  23   2.0000      -0.697958       -18.9924
  24   2.0000      -0.663316       -18.0497
  25   2.0000      -0.656058       -17.8522
  26   2.0000      -0.637239       -17.3402
  27   2.0000      -0.615500       -16.7486
  28   2.0000      -0.608928       -16.5698
  29   2.0000      -0.604345       -16.4451
  30   2.0000      -0.581374       -15.8200
  31   2.0000      -0.576381       -15.6841
  32   2.0000      -0.555794       -15.1239
  33   2.0000      -0.541438       -14.7333
  34   2.0000      -0.531290       -14.4571
  35   2.0000      -0.518517       -14.1096
  36   2.0000      -0.507118       -13.7994
  37   2.0000      -0.501988       -13.6598
  38   2.0000      -0.485938       -13.2231
  39   2.0000      -0.483908       -13.1678
  40   2.0000      -0.477349       -12.9893
  41   2.0000      -0.448986       -12.2175
  42   2.0000      -0.419833       -11.4242
  43   2.0000      -0.330849        -9.0028
  44   2.0000      -0.321662        -8.7529
  45   0.0000       0.023022         0.6264
  46   0.0000       0.026566         0.7229
  47   0.0000       0.028271         0.7693
  48   0.0000       0.032720         0.8904
  49   0.0000       0.036986         1.0064

MULLIKEN ATOMIC CHARGES
-----------------------
   0 C :    0.562195
   1 C :    0.404141
   2 C :   -0.542305
   3 C :   -0.686978
   4 C :   -0.296830
   5 H :    0.214132
   6 C :   -0.403417
   7 H :    0.354529
   8 C :   -0.391334
   9 H :    0.213349
  10 H :    0.244538
  11 O :   -1.005193
  12 C :    1.841128
  13 H :    0.316653
  14 C :   -1.141045
  15 H :    0.214459
  16 H :    0.260311
  17 H :    0.214476
  18 C :   -1.168419
  19 H :    0.202958
  20 H :    0.233813
  21 H :    0.308983
  22 C :   -1.168482
  23 H :    0.233671
  24 H :    0.203027
  25 H :    0.308895
  26 H :    0.236269
  27 H :    0.236479
Sum of atomic charges:   -0.0000000

LOEWDIN ATOMIC CHARGES
----------------------
   0 C :    0.136411
   1 C :   -0.075461
   2 C :    0.338155
   3 C :    0.343779
   4 C :    0.336654
   5 H :   -0.310593
   6 C :    0.342428
   7 H :   -0.350077
   8 C :    0.329706
   9 H :   -0.322302
  10 H :   -0.321597
  11 O :    0.922394
  12 C :   -0.629383
  13 H :   -0.325497
  14 C :    0.881617
  15 H :   -0.276510
  16 H :   -0.275831
  17 H :   -0.276510
  18 C :    0.903560
  19 H :   -0.290821
  20 H :   -0.265941
  21 H :   -0.271362
  22 C :    0.903559
  23 H :   -0.265941
  24 H :   -0.290820
  25 H :   -0.271362
  26 H :   -0.309128
  27 H :   -0.309127

  Mayer bond orders larger than 0.100000
B(  0-C ,  1-C ) :   0.4026 B(  0-C ,  2-C ) :  -0.5655 B(  0-C ,  3-C ) :  -0.5156
B(  0-C , 11-O ) :   0.9296 B(  0-C , 26-H ) :   0.9589 B(  0-C , 27-H ) :   0.9588
B(  1-C ,  2-C ) :   0.9772 B(  1-C ,  3-C ) :   1.0765 B(  1-C ,  4-C ) :  -0.3984
B(  1-C ,  5-H ) :  -0.1031 B(  1-C ,  6-C ) :  -0.3979 B(  2-C ,  4-C ) :   1.4035
B(  2-C ,  5-H ) :   1.0634 B(  2-C ,  6-C ) :   0.1398 B(  2-C ,  8-C ) :   0.1425
B(  2-C ,  9-H ) :  -0.1441 B(  3-C ,  4-C ) :   0.1336 B(  3-C ,  6-C ) :   1.1412
B(  3-C ,  7-H ) :   0.8410 B(  3-C , 10-H ) :  -0.1388 B(  3-C , 11-O ) :   0.1027
B(  4-C ,  8-C ) :   1.1165 B(  4-C ,  9-H ) :   1.1770 B(  6-C ,  8-C ) :   1.2461
B(  6-C , 10-H ) :   1.1245 B(  6-C , 13-H ) :  -0.1059 B(  7-H , 11-O ) :   0.1197
B(  8-C ,  9-H ) :  -0.1002 B(  8-C , 13-H ) :   1.0409 B( 11-O , 14-C ) :   0.1078
B( 12-C , 14-C ) :   0.1920 B( 12-C , 15-H ) :  -0.1624 B( 12-C , 16-H ) :  -0.1050
B( 12-C , 17-H ) :  -0.1624 B( 12-C , 18-C ) :   0.4384 B( 12-C , 19-H ) :  -0.1114
B( 12-C , 22-C ) :   0.4380 B( 12-C , 24-H ) :  -0.1115 B( 14-C , 15-H ) :   1.0804
B( 14-C , 16-H ) :   1.0346 B( 14-C , 17-H ) :   1.0804 B( 14-C , 18-C ) :   0.1291
B( 14-C , 22-C ) :   0.1291 B( 18-C , 19-H ) :   1.0489 B( 18-C , 20-H ) :   1.0530
B( 18-C , 21-H ) :   0.9547 B( 18-C , 22-C ) :   0.1171 B( 22-C , 23-H ) :   1.0532
B( 22-C , 24-H ) :   1.0488 B( 22-C , 25-H ) :   0.9548

MP2 TOTAL ENERGY:     -503.134639200 Eh
FINAL SINGLE POINT ENERGY      -503.134639199994

DIPOLE MOMENT
-------------
                                X             Y             Z
Electronic contribution:    -13.41960       1.10638       0.00013
Nuclear contribution   :     13.94517      -1.53390      -0.00016
                        -----------------------------------------
Total Dipole Moment    :      0.52556      -0.42751      -0.00003
                        -----------------------------------------
Magnitude (a.u.)       :      0.67748
Magnitude (Debye)      :      1.72203

Rotational constants in cm-1:     0.079306     0.014530     0.013399
Rotational constants in MHz :  2377.544177   435.589402   401.679747

                             ****ORCA TERMINATED NORMALLY****
TOTAL RUN TIME: 0 days 2 hours 4 minutes 19 seconds 604 msec
