                         Program Version 4.2.1 -  RELEASE  -
|  1> %pal
|  2>  nprocs 320
|  3> end
|  4> !RI-MP2 aug-cc-pVQZ aug-cc-pVQZ/C TightSCF MORead
|  5> %maxcore 4500
|  6> %moinp "05_32TS.gbw"
|  7> *xyzfile 1 1  05_32TS.xyz
|  8>
|  9>
| 10>                          ****END OF INPUT****

CARTESIAN COORDINATES (ANGSTROEM)
---------------------------------
  H      1.423947   -0.556225    1.030373
  C     -1.523818   -0.971446    1.730823
  C     -0.755979   -1.889134   -0.612342
  C     -1.874811   -1.054754   -1.238521
  C     -3.071663   -0.821515   -0.319119
  C     -2.633890   -0.206040    1.008405
  H     -1.469240   -0.085878   -1.527315
  H     -2.206548   -1.559497   -2.148381
  H     -3.569490   -1.774285   -0.127313
  H     -2.293241    0.809043    0.812400
  H     -3.491917   -0.139019    1.680768
  N     -0.453325   -1.306511    0.736509
  O      0.717495   -1.487327    1.200169
  C     -0.937820   -0.081062    2.818873
  H     -1.740546    0.198755    3.501132
  H     -0.167666   -0.594007    3.393285
  H     -0.530086    0.831072    2.393029
  C     -2.037575   -2.258037    2.400632
  H     -1.205389   -2.873088    2.745089
  H     -2.633486   -1.978336    3.270284
  H     -2.668921   -2.858213    1.751586
  C      0.482111   -1.811332   -1.496411
  H      0.230797   -2.239302   -2.467010
  H      0.786469   -0.781849   -1.648650
  H      1.314934   -2.378414   -1.083100
  C     -1.136784   -3.372784   -0.463081
  H     -1.151264   -3.823876   -1.455778
  H     -0.394735   -3.901837    0.136142
  H     -2.116252   -3.527450   -0.019591
  N     -4.077505    0.014528   -0.970726
  C     -3.869454    1.299408   -1.363514
  C     -5.031691    1.984170   -2.033249
  H     -5.922858    1.361531   -2.109265
  H     -5.272092    2.888027   -1.472984
  H     -4.723325    2.291443   -3.033057
  O     -2.803254    1.872150   -1.186943
  H     -4.979657   -0.391791   -1.154225
  C      5.114635   -0.936920   -0.482717
  C      4.057331   -0.527293    0.307676
  C      2.997278    0.193158   -0.252630
  C      3.014612    0.490488   -1.617007
  C      4.084487    0.092708   -2.401140
  C      5.131540   -0.624697   -1.838213
  H      5.929267   -1.499700   -0.045148
  H      4.047034   -0.780076    1.361600
  H      2.197816    1.049071   -2.054133
  H      4.102723    0.343762   -3.454134
  H      5.964313   -0.939815   -2.454418
  C      1.877528    0.649704    0.599799
  C      2.196532    1.405894    1.874193
  C      1.973046    2.905942    1.642275
  C      0.250645    2.366402   -0.082477
  C      0.537733    3.134524    1.186247
  H      2.675767    3.273416    0.888248
  H      2.179904    3.447849    2.565532
  H      0.754125    2.831185   -0.934655
  H     -0.806720    2.268866   -0.316208
  O      0.762427    0.991632   -0.063721
  H      0.355192    4.190848    0.976337
  H     -0.158208    2.850941    1.979405
  H      1.552816    1.074112    2.689752
  H      3.225051    1.200662    2.162885

 Total Charge           Charge          ....    1
 Multiplicity           Mult            ....    1
 Number of Electrons    NEL             ....  204
 Basis Dimension        Dim             .... 3770

ORBITAL ENERGIES
----------------

  NO   OCC          E(Eh)            E(eV)
   0   2.0000     -20.790056      -565.7262
   1   2.0000     -20.719697      -563.8116
   2   2.0000     -20.609442      -560.8114
   3   2.0000     -15.787590      -429.6022
   4   2.0000     -15.683648      -426.7738
   5   2.0000     -11.474765      -312.2442
   6   2.0000     -11.446760      -311.4822
   7   2.0000     -11.398739      -310.1755
   8   2.0000     -11.398103      -310.1582
   9   2.0000     -11.393735      -310.0393
  10   2.0000     -11.379707      -309.6576
  11   2.0000     -11.363571      -309.2185
  12   2.0000     -11.358613      -309.0836
  13   2.0000     -11.354371      -308.9681
  14   2.0000     -11.353226      -308.9370
  15   2.0000     -11.347404      -308.7786
  16   2.0000     -11.344873      -308.7097
  17   2.0000     -11.341442      -308.6163
  18   2.0000     -11.340784      -308.5984
  19   2.0000     -11.338469      -308.5354
  20   2.0000     -11.329117      -308.2809
  21   2.0000     -11.328463      -308.2631
  22   2.0000     -11.326144      -308.2001
  23   2.0000     -11.325310      -308.1774
  24   2.0000     -11.322667      -308.1054
  25   2.0000     -11.320162      -308.0373
  26   2.0000     -11.315384      -307.9073
  27   2.0000      -1.629382       -44.3378
  28   2.0000      -1.549052       -42.1519
  29   2.0000      -1.479884       -40.2697
  30   2.0000      -1.339437       -36.4479
  31   2.0000      -1.295338       -35.2479
  32   2.0000      -1.278522       -34.7903
  33   2.0000      -1.219438       -33.1826
  34   2.0000      -1.213900       -33.0319
  35   2.0000      -1.192440       -32.4479
  36   2.0000      -1.158278       -31.5183
  37   2.0000      -1.133261       -30.8376
  38   2.0000      -1.123158       -30.5627
  39   2.0000      -1.109214       -30.1832
  40   2.0000      -1.081750       -29.4359
  41   2.0000      -1.059075       -28.8189
  42   2.0000      -1.044518       -28.4228
  43   2.0000      -1.043655       -28.3993
  44   2.0000      -1.016489       -27.6601
  45   2.0000      -1.009810       -27.4783
  46   2.0000      -0.964203       -26.2373
  47   2.0000      -0.944472       -25.7004
  48   2.0000      -0.936599       -25.4862
  49   2.0000      -0.934378       -25.4257
  50   2.0000      -0.901119       -24.5207
  51   2.0000      -0.871497       -23.7146
  52   2.0000      -0.867898       -23.6167
  53   2.0000      -0.843610       -22.9558
  54   2.0000      -0.829176       -22.5630
  55   2.0000      -0.807754       -21.9801
  56   2.0000      -0.802520       -21.8377
  57   2.0000      -0.792253       -21.5583
  58   2.0000      -0.786209       -21.3938
  59   2.0000      -0.777099       -21.1459
  60   2.0000      -0.762899       -20.7595
  61   2.0000      -0.751755       -20.4563
  62   2.0000      -0.745638       -20.2898
  63   2.0000      -0.733295       -19.9540
  64   2.0000      -0.729529       -19.8515
  65   2.0000      -0.723549       -19.6888
  66   2.0000      -0.722234       -19.6530
  67   2.0000      -0.713307       -19.4101
  68   2.0000      -0.707133       -19.2421
  69   2.0000      -0.703485       -19.1428
  70   2.0000      -0.696410       -18.9503
  71   2.0000      -0.692834       -18.8530
  72   2.0000      -0.687050       -18.6956
  73   2.0000      -0.682207       -18.5638
  74   2.0000      -0.678527       -18.4637
  75   2.0000      -0.677852       -18.4453
  76   2.0000      -0.671713       -18.2782
  77   2.0000      -0.662783       -18.0353
  78   2.0000      -0.653654       -17.7868
  79   2.0000      -0.643733       -17.5169
  80   2.0000      -0.639840       -17.4109
  81   2.0000      -0.638643       -17.3784
  82   2.0000      -0.632757       -17.2182
  83   2.0000      -0.630689       -17.1619
  84   2.0000      -0.621787       -16.9197
  85   2.0000      -0.617613       -16.8061
  86   2.0000      -0.616105       -16.7651
  87   2.0000      -0.607157       -16.5216
  88   2.0000      -0.606529       -16.5045
  89   2.0000      -0.604828       -16.4582
  90   2.0000      -0.594835       -16.1863
  91   2.0000      -0.590214       -16.0605
  92   2.0000      -0.580979       -15.8092
  93   2.0000      -0.580011       -15.7829
  94   2.0000      -0.570174       -15.5152
  95   2.0000      -0.567773       -15.4499
  96   2.0000      -0.560281       -15.2460
  97   2.0000      -0.515787       -14.0353
  98   2.0000      -0.492791       -13.4095
  99   2.0000      -0.489370       -13.3164
 100   2.0000      -0.451442       -12.2844
 101   2.0000      -0.422741       -11.5034
 102   0.0000      -0.128322        -3.4918
 103   0.0000      -0.053001        -1.4422
 104   0.0000      -0.048449        -1.3184
 105   0.0000      -0.045267        -1.2318
 106   0.0000      -0.043694        -1.1890

MULLIKEN ATOMIC CHARGES
-----------------------
   0 H :   -0.335356
   1 C :    1.285704
   2 C :    1.238415
   3 C :   -0.868609
   4 C :    1.538267
   5 C :   -0.772896
   6 H :    0.357095
   7 H :   -0.066079
   8 H :    0.334119
   9 H :    0.316392
  10 H :   -0.129648
  11 N :    2.732162
  12 O :   -1.836734
  13 C :   -0.998121
  14 H :   -0.017713
  15 H :    0.193279
  16 H :    0.445421
  17 C :   -1.215956
  18 H :    0.132312
  19 H :    0.125312
  20 H :    0.259940
  21 C :   -1.107257
  22 H :    0.053582
  23 H :    0.276936
  24 H :    0.218311
  25 C :   -1.277156
  26 H :    0.111463
  27 H :    0.141812
  28 H :    0.228465
  29 N :   -1.025715
  30 C :    1.048155
  31 C :   -0.890271
  32 H :    0.254989
  33 H :    0.283892
  34 H :    0.285252
  35 O :   -1.202368
  36 H :   -0.120213
  37 C :   -0.431511
  38 C :   -0.991677
  39 C :    0.812759
  40 C :   -0.307002
  41 C :   -0.589873
  42 C :   -0.428677
  43 H :    0.205494
  44 H :    0.064995
  45 H :    0.367744
  46 H :    0.192518
  47 H :    0.346596
  48 C :    2.542730
  49 C :   -0.856779
  50 C :   -0.628346
  51 C :   -1.217004
  52 C :   -0.425093
  53 H :    0.193027
  54 H :    0.148255
  55 H :    0.067272
  56 H :    0.922627
  57 O :    0.023974
  58 H :    0.216666
  59 H :    0.172877
  60 H :    0.438708
  61 H :    0.162535
Sum of atomic charges:    1.0000000

LOEWDIN ATOMIC CHARGES
----------------------
   0 H :   -0.948849
   1 C :   -0.345202
   2 C :   -0.345037
   3 C :    0.535678
   4 C :    0.043030
   5 C :    0.533915
   6 H :   -0.323476
   7 H :   -0.237575
   8 H :   -0.284935
   9 H :   -0.348239
  10 H :   -0.236589
  11 N :    0.193962
  12 O :    1.112305
  13 C :    0.926165
  14 H :   -0.244275
  15 H :   -0.254579
  16 H :   -0.346193
  17 C :    0.957883
  18 H :   -0.248432
  19 H :   -0.258632
  20 H :   -0.307686
  21 C :    0.918189
  22 H :   -0.249727
  23 H :   -0.362142
  24 H :   -0.259033
  25 C :    0.957603
  26 H :   -0.259044
  27 H :   -0.247193
  28 H :   -0.312585
  29 N :    0.897733
  30 C :   -0.768448
  31 C :    0.920621
  32 H :   -0.302340
  33 H :   -0.288167
  34 H :   -0.287114
  35 O :    0.800376
  36 H :   -0.479528
  37 C :    0.386765
  38 C :    0.370462
  39 C :   -0.063749
  40 C :    0.349182
  41 C :    0.389302
  42 C :    0.376554
  43 H :   -0.306230
  44 H :   -0.297803
  45 H :   -0.319091
  46 H :   -0.304715
  47 H :   -0.302417
  48 C :   -0.359928
  49 C :    0.586236
  50 C :    0.581653
  51 C :    0.329999
  52 C :    0.566080
  53 H :   -0.244135
  54 H :   -0.239004
  55 H :   -0.269480
  56 H :   -0.396033
  57 O :    1.000326
  58 H :   -0.243304
  59 H :   -0.276644
  60 H :   -0.292819
  61 H :   -0.273648

  Mayer bond orders larger than 0.100000
B(  0-H ,  2-C ) :  -0.1316 B(  0-H , 11-N ) :  -0.1079 B(  0-H , 12-O ) :   1.1350
B(  0-H , 38-C ) :   0.1512 B(  0-H , 40-C ) :  -0.1006 B(  0-H , 48-C ) :   0.3294
B(  0-H , 57-O ) :   0.2353 B(  1-C ,  2-C ) :   0.4315 B(  1-C ,  9-H ) :  -0.2310
B(  1-C , 11-N ) :   1.0714 B(  1-C , 12-O ) :   0.1086 B(  1-C , 14-H ) :  -0.1048
B(  1-C , 15-H ) :  -0.3218 B(  1-C , 16-H ) :  -0.2505 B(  1-C , 17-C ) :  -0.2540
B(  1-C , 18-H ) :  -0.3308 B(  1-C , 19-H ) :  -0.1973 B(  1-C , 20-H ) :  -0.1496
B(  2-C ,  6-H ) :  -0.1938 B(  2-C , 11-N ) :   1.0968 B(  2-C , 12-O ) :   0.2040
B(  2-C , 21-C ) :   0.2541 B(  2-C , 23-H ) :  -0.2736 B(  2-C , 24-H ) :  -0.3259
B(  2-C , 25-C ) :  -0.3724 B(  2-C , 26-H ) :  -0.2194 B(  2-C , 27-H ) :  -0.2830
B(  2-C , 28-H ) :  -0.2042 B(  2-C , 48-C ) :   0.1903 B(  2-C , 57-O ) :  -0.1707
B(  3-C ,  4-C ) :   0.7297 B(  3-C ,  6-H ) :   1.1384 B(  3-C ,  7-H ) :   1.2437
B(  3-C , 11-N ) :   0.1702 B(  3-C , 21-C ) :   0.1652 B(  3-C , 29-N ) :   0.1175
B(  3-C , 35-O ) :   0.1117 B(  4-C ,  5-C ) :   0.7129 B(  4-C ,  7-H ) :  -0.1643
B(  4-C ,  8-H ) :   0.9259 B(  4-C ,  9-H ) :  -0.1015 B(  4-C , 10-H ) :  -0.1895
B(  4-C , 29-N ) :  -0.9959 B(  4-C , 30-C ) :  -0.2687 B(  4-C , 35-O ) :   0.1341
B(  4-C , 36-H ) :  -0.3700 B(  5-C ,  9-H ) :   1.1967 B(  5-C , 10-H ) :   1.3327
B(  5-C , 29-N ) :   0.1023 B(  6-H , 29-N ) :   0.1680 B(  6-H , 35-O ) :  -0.1755
B(  9-H , 29-N ) :   0.1072 B( 10-H , 29-N ) :   0.1066 B( 11-N , 12-O ) :  -1.0098
B( 11-N , 13-C ) :  -0.3744 B( 11-N , 17-C ) :  -0.2278 B( 11-N , 18-H ) :  -0.1134
B( 11-N , 21-C ) :  -0.4853 B( 11-N , 25-C ) :  -0.1915 B( 11-N , 27-H ) :  -0.1297
B( 11-N , 48-C ) :   0.2324 B( 11-N , 57-O ) :  -0.2057 B( 12-O , 23-H ) :   0.1038
B( 12-O , 48-C ) :  -0.3462 B( 13-C , 14-H ) :   1.4260 B( 13-C , 15-H ) :   1.3527
B( 13-C , 16-H ) :   0.8026 B( 13-C , 57-O ) :  -0.1010 B( 14-H , 16-H ) :  -0.1615
B( 17-C , 18-H ) :   1.4072 B( 17-C , 19-H ) :   1.2078 B( 17-C , 20-H ) :   1.1269
B( 21-C , 22-H ) :   1.2502 B( 21-C , 23-H ) :   1.1445 B( 21-C , 24-H ) :   1.1242
B( 21-C , 48-C ) :  -0.1003 B( 23-H , 24-H ) :   0.1319 B( 25-C , 26-H ) :   1.2528
B( 25-C , 27-H ) :   1.3926 B( 25-C , 28-H ) :   1.1846 B( 29-N , 30-C ) :   1.1170
B( 29-N , 31-C ) :  -0.1072 B( 29-N , 36-H ) :   1.6296 B( 30-C , 31-C ) :   0.4866
B( 30-C , 32-H ) :  -0.1672 B( 30-C , 33-H ) :  -0.1233 B( 30-C , 34-H ) :  -0.1264
B( 30-C , 35-O ) :   0.8561 B( 31-C , 32-H ) :   1.0544 B( 31-C , 33-H ) :   1.0195
B( 31-C , 34-H ) :   1.0213 B( 37-C , 38-C ) :   1.6210 B( 37-C , 39-C ) :  -0.4869
B( 37-C , 40-C ) :   0.1252 B( 37-C , 42-C ) :   1.1351 B( 37-C , 43-H ) :   1.1902
B( 38-C , 39-C ) :   0.7173 B( 38-C , 41-C ) :   0.1463 B( 38-C , 42-C ) :   0.1491
B( 38-C , 44-H ) :   1.3142 B( 38-C , 47-H ) :  -0.1260 B( 38-C , 48-C ) :  -0.6950
B( 38-C , 57-O ) :  -0.1057 B( 39-C , 40-C ) :   0.9420 B( 39-C , 41-C ) :  -0.2420
B( 39-C , 42-C ) :   0.1114 B( 39-C , 44-H ) :  -0.1616 B( 39-C , 47-H ) :   0.1063
B( 39-C , 48-C ) :  -0.2347 B( 39-C , 49-C ) :  -0.1782 B( 40-C , 41-C ) :   1.2746
B( 40-C , 42-C ) :  -0.1182 B( 40-C , 45-H ) :   0.9857 B( 40-C , 57-O ) :  -0.2633
B( 41-C , 42-C ) :   1.1709 B( 41-C , 45-H ) :  -0.1385 B( 41-C , 46-H ) :   1.1778
B( 41-C , 47-H ) :  -0.1299 B( 41-C , 48-C ) :  -0.1727 B( 42-C , 43-H ) :  -0.1116
B( 42-C , 47-H ) :   1.0430 B( 48-C , 49-C ) :  -0.1129 B( 48-C , 50-C ) :  -0.2257
B( 48-C , 52-C ) :  -0.1415 B( 48-C , 57-O ) :   0.4474 B( 48-C , 60-H ) :  -0.1886
B( 49-C , 50-C ) :   0.8757 B( 49-C , 53-H ) :  -0.1281 B( 49-C , 60-H ) :   0.9066
B( 49-C , 61-H ) :   1.2293 B( 50-C , 51-C ) :  -0.1700 B( 50-C , 52-C ) :   0.8830
B( 50-C , 53-H ) :   1.1626 B( 50-C , 54-H ) :   1.1179 B( 51-C , 52-C ) :   0.8191
B( 51-C , 55-H ) :   1.4223 B( 51-C , 57-O ) :   0.1966 B( 52-C , 58-H ) :   0.9871
B( 52-C , 59-H ) :   1.0856 B( 55-H , 57-O ) :  -0.2810

MP2 TOTAL ENERGY:    -1192.315487194 Eh
FINAL SINGLE POINT ENERGY     -1192.315487194219

DIPOLE MOMENT
-------------
                                X             Y             Z
Electronic contribution:     10.82127       1.57190      -5.60075
Nuclear contribution   :    -11.08157      -1.80230       5.97736
                        -----------------------------------------
Total Dipole Moment    :     -0.26030      -0.23040       0.37661
                        -----------------------------------------
Magnitude (a.u.)       :      0.51252
Magnitude (Debye)      :      1.30272

Rotational constants in cm-1:     0.009336     0.004539     0.004275
Rotational constants in MHz :   279.883157   136.072097   128.164789

                             ****ORCA TERMINATED NORMALLY****
TOTAL RUN TIME: 0 days 10 hours 33 minutes 46 seconds 505 msec
