                         Program Version 4.2.1 -  RELEASE  -
|  1> %pal
|  2>  nprocs 32
|  3> end
|  4> !RI-MP2 aug-cc-pVQZ aug-cc-pVQZ/C TightSCF
|  5> %maxcore 4500
|  6> *xyzfile 1 1  05_41P1.xyz
|  7>
|  8>
|  9>                          ****END OF INPUT****

CARTESIAN COORDINATES (ANGSTROEM)
---------------------------------
  C     -0.709979    0.387617    0.041305
  C      0.710261    0.070069    0.043415
  C      1.572673    0.839980   -0.750496
  C      1.217066   -1.017977    0.764818
  C      2.914108    0.515507   -0.827596
  H      1.187649    1.657437   -1.346785
  C      2.568848   -1.301580    0.719879
  H      0.567885   -1.616372    1.387358
  C      3.414688   -0.544724   -0.082482
  H      3.570763    1.091722   -1.466268
  H      2.963939   -2.122745    1.303574
  H      4.469312   -0.785643   -0.130338
  O     -1.120750    1.580985    0.208431
  C     -0.324348    2.711252    0.672500
  H     -0.070246    3.318706   -0.191601
  H     -0.991597    3.256739    1.332908
  H      0.563628    2.362234    1.191650
  C     -1.815457   -0.611643   -0.178391
  C     -2.277733   -1.065143    1.231337
  H     -2.623776   -0.219650    1.827091
  H     -3.114798   -1.751715    1.098784
  H     -1.502596   -1.594296    1.784722
  C     -2.997137    0.070544   -0.888105
  H     -2.703821    0.460929   -1.864379
  H     -3.776760   -0.674262   -1.046745
  H     -3.418312    0.883700   -0.300316
  C     -1.343694   -1.812328   -1.008054
  H     -0.953587   -1.497925   -1.977795
  H     -0.578803   -2.402545   -0.507901
  H     -2.198655   -2.463638   -1.190198

 Total Charge           Charge          ....    1
 Multiplicity           Mult            ....    1
 Number of Electrons    NEL             ....   96
 Basis Dimension        Dim             .... 1822

ORBITAL ENERGIES
----------------

  NO   OCC          E(Eh)            E(eV)
   0   2.0000     -20.812846      -566.3463
   1   2.0000     -11.555481      -314.4406
   2   2.0000     -11.454284      -311.6869
   3   2.0000     -11.409645      -310.4722
   4   2.0000     -11.407252      -310.4071
   5   2.0000     -11.404103      -310.3214
   6   2.0000     -11.401688      -310.2557
   7   2.0000     -11.389355      -309.9201
   8   2.0000     -11.380208      -309.6712
   9   2.0000     -11.379422      -309.6498
  10   2.0000     -11.365528      -309.2717
  11   2.0000     -11.352245      -308.9103
  12   2.0000     -11.350705      -308.8684
  13   2.0000      -1.653679       -44.9989
  14   2.0000      -1.326364       -36.0922
  15   2.0000      -1.277845       -34.7719
  16   2.0000      -1.202073       -32.7101
  17   2.0000      -1.176903       -32.0252
  18   2.0000      -1.167104       -31.7585
  19   2.0000      -1.082408       -29.4538
  20   2.0000      -1.075977       -29.2788
  21   2.0000      -1.049045       -28.5460
  22   2.0000      -0.990838       -26.9621
  23   2.0000      -0.975410       -26.5422
  24   2.0000      -0.928695       -25.2711
  25   2.0000      -0.888479       -24.1767
  26   2.0000      -0.849058       -23.1040
  27   2.0000      -0.838885       -22.8272
  28   2.0000      -0.824285       -22.4299
  29   2.0000      -0.784883       -21.3577
  30   2.0000      -0.775859       -21.1122
  31   2.0000      -0.754180       -20.5223
  32   2.0000      -0.748186       -20.3592
  33   2.0000      -0.744842       -20.2682
  34   2.0000      -0.732557       -19.9339
  35   2.0000      -0.711277       -19.3548
  36   2.0000      -0.701049       -19.0765
  37   2.0000      -0.680692       -18.5226
  38   2.0000      -0.671357       -18.2686
  39   2.0000      -0.669674       -18.2227
  40   2.0000      -0.660998       -17.9867
  41   2.0000      -0.654131       -17.7998
  42   2.0000      -0.647956       -17.6318
  43   2.0000      -0.632187       -17.2027
  44   2.0000      -0.615024       -16.7357
  45   2.0000      -0.612423       -16.6649
  46   2.0000      -0.499733       -13.5984
  47   2.0000      -0.492827       -13.4105
  48   0.0000      -0.104799        -2.8517
  49   0.0000      -0.070690        -1.9236
  50   0.0000      -0.058634        -1.5955
  51   0.0000      -0.055979        -1.5233
  52   0.0000      -0.054540        -1.4841

MULLIKEN ATOMIC CHARGES
-----------------------
   0 C :    1.901044
   1 C :    0.295221
   2 C :   -0.543309
   3 C :   -0.550356
   4 C :   -0.343866
   5 H :    0.246598
   6 C :   -0.478522
   7 H :    0.506943
   8 C :   -0.385751
   9 H :    0.259096
  10 H :    0.213980
  11 H :    0.336919
  12 O :   -0.785651
  13 C :   -0.911638
  14 H :    0.362408
  15 H :    0.369516
  16 H :    0.306404
  17 C :    1.404159
  18 C :   -1.186522
  19 H :    0.218070
  20 H :    0.234343
  21 H :    0.294214
  22 C :   -1.092386
  23 H :    0.225172
  24 H :    0.278232
  25 H :    0.229087
  26 C :   -1.151062
  27 H :    0.211183
  28 H :    0.230115
  29 H :    0.306359
Sum of atomic charges:    1.0000000

LOEWDIN ATOMIC CHARGES
----------------------
   0 C :   -0.373026
   1 C :   -0.077977
   2 C :    0.348435
   3 C :    0.366684
   4 C :    0.402045
   5 H :   -0.308940
   6 C :    0.407974
   7 H :   -0.324138
   8 C :    0.395761
   9 H :   -0.299215
  10 H :   -0.297655
  11 H :   -0.292328
  12 O :    0.988613
  13 C :    0.751889
  14 H :   -0.277362
  15 H :   -0.276154
  16 H :   -0.302784
  17 C :   -0.283155
  18 C :    0.957125
  19 H :   -0.250812
  20 H :   -0.251991
  21 H :   -0.277718
  22 C :    0.920669
  23 H :   -0.248556
  24 H :   -0.263273
  25 H :   -0.277050
  26 C :    0.935572
  27 H :   -0.244372
  28 H :   -0.291319
  29 H :   -0.256942

  Mayer bond orders larger than 0.100000
B(  0-C ,  1-C ) :   0.5536 B(  0-C ,  2-C ) :  -0.5602 B(  0-C ,  3-C ) :  -0.4093
B(  0-C , 12-O ) :   0.2202 B(  0-C , 13-C ) :  -0.1521 B(  0-C , 17-C ) :   0.8247
B(  1-C ,  2-C ) :   1.0447 B(  1-C ,  3-C ) :   1.0605 B(  1-C ,  4-C ) :  -0.3494
B(  1-C ,  6-C ) :  -0.4645 B(  1-C , 12-O ) :   0.2930 B(  1-C , 13-C ) :  -0.1043
B(  2-C ,  4-C ) :   1.4472 B(  2-C ,  5-H ) :   1.0044 B(  2-C ,  6-C ) :   0.1554
B(  2-C ,  9-H ) :  -0.1160 B(  3-C ,  6-C ) :   1.3423 B(  3-C ,  7-H ) :   0.7905
B(  4-C ,  8-C ) :   1.1009 B(  4-C ,  9-H ) :   1.1109 B(  4-C , 11-H ) :  -0.1128
B(  6-C ,  7-H ) :  -0.1470 B(  6-C ,  8-C ) :   1.2231 B(  6-C , 10-H ) :   1.1636
B(  6-C , 11-H ) :  -0.1203 B(  8-C , 11-H ) :   1.0530 B( 12-O , 13-C ) :   0.8488
B( 13-C , 14-H ) :   0.8805 B( 13-C , 15-H ) :   0.9164 B( 13-C , 16-H ) :   0.9073
B( 17-C , 18-C ) :   0.3459 B( 17-C , 19-H ) :  -0.1007 B( 17-C , 20-H ) :  -0.1288
B( 17-C , 21-H ) :  -0.1125 B( 17-C , 22-C ) :   0.2054 B( 17-C , 23-H ) :  -0.1340
B( 17-C , 24-H ) :  -0.1312 B( 17-C , 25-H ) :  -0.1653 B( 17-C , 26-C ) :   0.2255
B( 17-C , 27-H ) :  -0.1540 B( 17-C , 28-H ) :  -0.1652 B( 17-C , 29-H ) :  -0.1115
B( 18-C , 19-H ) :   1.0949 B( 18-C , 20-H ) :   1.0600 B( 18-C , 21-H ) :   1.0080
B( 18-C , 22-C ) :   0.1255 B( 18-C , 26-C ) :   0.1627 B( 22-C , 23-H ) :   1.0756
B( 22-C , 24-H ) :   1.0464 B( 22-C , 25-H ) :   1.0630 B( 22-C , 26-C ) :   0.1353
B( 26-C , 27-H ) :   1.1047 B( 26-C , 28-H ) :   1.1037 B( 26-C , 29-H ) :   1.0055

MP2 TOTAL ENERGY:     -541.507298366 Eh
FINAL SINGLE POINT ENERGY      -541.507298365925

DIPOLE MOMENT
-------------
                                X             Y             Z
Electronic contribution:      8.96920       2.84899       0.38106
Nuclear contribution   :     -8.86622      -2.12976      -0.09552
                        -----------------------------------------
Total Dipole Moment    :      0.10299       0.71923       0.28554
                        -----------------------------------------
Magnitude (a.u.)       :      0.78066
Magnitude (Debye)      :      1.98428

Rotational constants in cm-1:     0.042145     0.020048     0.016316
Rotational constants in MHz :  1263.472305   601.033000   489.129028

                             ****ORCA TERMINATED NORMALLY****
TOTAL RUN TIME: 0 days 3 hours 21 minutes 19 seconds 680 msec
