                         Program Version 4.2.1 -  RELEASE  -
|  1> %pal
|  2>  nprocs 32
|  3> end
|  4> !RI-MP2 aug-cc-pVQZ aug-cc-pVQZ/C TightSCF
|  5> %maxcore 4500
|  6> *xyzfile -1 1  08_6TS.xyz
|  7>
|  8>
|  9>                          ****END OF INPUT****

CARTESIAN COORDINATES (ANGSTROEM)
---------------------------------
  N      3.808981   -1.865750    0.290445
  C      2.566743   -2.322048    0.289240
  N      1.574543   -1.413524    0.110909
  C      2.242660   -0.245029   -0.016671
  C      3.631863   -0.517705    0.095074
  C      4.487218    0.561161   -0.005632
  N      4.006219    1.792761   -0.199506
  N      1.754430    0.987888   -0.216846
  C      2.681999    1.935615   -0.294295
  H      2.321135    2.946667   -0.455646
  H      5.565488    0.451553    0.067473
  H      2.337960   -3.371815    0.423736
  C     -0.528172   -1.365296    0.114636
  C     -1.873893    2.038984   -0.498658
  C     -2.561712    1.463938    0.737983
  C     -3.315403    0.098271    0.627128
  O     -2.521352   -0.948804    1.048042
  H     -3.300157    2.234301    1.010756
  O     -1.637706    1.323086    1.797947
  O     -0.863820    1.245204   -1.109758
  C     -3.911060   -0.196412   -0.753994
  H     -4.180571    0.190478    1.314937
  O     -4.395431   -1.525982   -0.737658
  H     -3.158632   -0.084871   -1.543765
  H     -4.747423    0.474037   -0.982222
  O     -0.824398   -1.328957   -1.142305
  H     -3.786034   -1.950823   -0.105308
  H      0.010662    1.323933   -0.655916
  H     -2.628186    2.231672   -1.267092
  H     -1.694292    0.356022    1.978042
  H     -1.437099    3.002587   -0.214490
  H     -0.597492   -2.312974    0.619211
  H     -0.386422   -0.462218    0.671510
  H     -0.907939   -0.363410   -1.375243

 Total Charge           Charge          ....   -1
 Multiplicity           Mult            ....    1
 Number of Electrons    NEL             ....  144
 Basis Dimension        Dim             .... 2210

ORBITAL ENERGIES
----------------

  NO   OCC          E(Eh)            E(eV)
   0   2.0000     -20.486248      -557.4592
   1   2.0000     -20.451322      -556.5088
   2   2.0000     -20.417663      -555.5929
   3   2.0000     -20.413244      -555.4726
   4   2.0000     -20.325866      -553.0949
   5   2.0000     -15.460646      -420.7056
   6   2.0000     -15.450608      -420.4324
   7   2.0000     -15.436741      -420.0551
   8   2.0000     -15.427784      -419.8113
   9   2.0000     -11.261143      -306.4313
  10   2.0000     -11.199042      -304.7414
  11   2.0000     -11.186096      -304.3891
  12   2.0000     -11.184039      -304.3332
  13   2.0000     -11.177137      -304.1454
  14   2.0000     -11.170400      -303.9620
  15   2.0000     -11.152879      -303.4853
  16   2.0000     -11.139374      -303.1178
  17   2.0000     -11.137473      -303.0661
  18   2.0000     -11.129445      -302.8476
  19   2.0000      -1.332061       -36.2472
  20   2.0000      -1.260356       -34.2960
  21   2.0000      -1.234323       -33.5876
  22   2.0000      -1.227838       -33.4112
  23   2.0000      -1.223398       -33.2904
  24   2.0000      -1.173419       -31.9304
  25   2.0000      -1.116855       -30.3912
  26   2.0000      -1.088266       -29.6132
  27   2.0000      -1.020636       -27.7729
  28   2.0000      -0.922395       -25.0997
  29   2.0000      -0.903030       -24.5727
  30   2.0000      -0.832051       -22.6413
  31   2.0000      -0.810775       -22.0623
  32   2.0000      -0.780923       -21.2500
  33   2.0000      -0.752812       -20.4851
  34   2.0000      -0.738638       -20.0994
  35   2.0000      -0.689421       -18.7601
  36   2.0000      -0.666379       -18.1331
  37   2.0000      -0.645879       -17.5753
  38   2.0000      -0.615488       -16.7483
  39   2.0000      -0.593619       -16.1532
  40   2.0000      -0.584386       -15.9020
  41   2.0000      -0.568815       -15.4783
  42   2.0000      -0.566577       -15.4173
  43   2.0000      -0.553648       -15.0655
  44   2.0000      -0.539462       -14.6795
  45   2.0000      -0.531783       -14.4706
  46   2.0000      -0.504346       -13.7240
  47   2.0000      -0.500262       -13.6128
  48   2.0000      -0.498784       -13.5726
  49   2.0000      -0.481530       -13.1031
  50   2.0000      -0.476926       -12.9778
  51   2.0000      -0.465230       -12.6596
  52   2.0000      -0.459636       -12.5073
  53   2.0000      -0.448278       -12.1983
  54   2.0000      -0.442899       -12.0519
  55   2.0000      -0.417934       -11.3726
  56   2.0000      -0.415458       -11.3052
  57   2.0000      -0.410888       -11.1808
  58   2.0000      -0.392506       -10.6806
  59   2.0000      -0.381047       -10.3688
  60   2.0000      -0.356901        -9.7118
  61   2.0000      -0.343159        -9.3378
  62   2.0000      -0.341062        -9.2808
  63   2.0000      -0.338452        -9.2098
  64   2.0000      -0.317948        -8.6518
  65   2.0000      -0.315080        -8.5738
  66   2.0000      -0.307147        -8.3579
  67   2.0000      -0.294197        -8.0055
  68   2.0000      -0.251041        -6.8312
  69   2.0000      -0.240201        -6.5362
  70   2.0000      -0.228268        -6.2115
  71   2.0000      -0.204387        -5.5616
  72   0.0000       0.092752         2.5239
  73   0.0000       0.094413         2.5691
  74   0.0000       0.097604         2.6559
  75   0.0000       0.101723         2.7680
  76   0.0000       0.105522         2.8714

MULLIKEN ATOMIC CHARGES
-----------------------
   0 N :   -0.996615
   1 C :   -0.096733
   2 N :   -0.653167
   3 C :    0.819676
   4 C :    0.337331
   5 C :   -0.095361
   6 N :   -0.997568
   7 N :   -0.649871
   8 C :    0.113896
   9 H :    0.562814
  10 H :    0.507781
  11 H :    0.586648
  12 C :    0.639513
  13 C :   -0.365375
  14 C :    0.715366
  15 C :    0.301633
  16 O :   -1.318194
  17 H :    0.352041
  18 O :   -1.302496
  19 O :   -0.944581
  20 C :   -0.004324
  21 H :    0.323674
  22 O :   -1.099166
  23 H :    0.162117
  24 H :    0.323685
  25 O :   -1.233093
  26 H :    0.344220
  27 H :    0.393994
  28 H :    0.254784
  29 H :    0.369407
  30 H :    0.324893
  31 H :    0.421875
  32 H :    0.329954
  33 H :    0.571242
Sum of atomic charges:   -1.0000000

LOEWDIN ATOMIC CHARGES
----------------------
   0 N :    0.556245
   1 C :   -0.181765
   2 N :    0.515642
   3 C :   -0.661962
   4 C :   -0.477914
   5 C :    0.064709
   6 N :    0.553892
   7 N :    0.634256
   8 C :   -0.165521
   9 H :   -0.384891
  10 H :   -0.350006
  11 H :   -0.352572
  12 C :    0.218642
  13 C :    0.240508
  14 C :   -0.224293
  15 C :   -0.435936
  16 O :    0.783597
  17 H :   -0.317751
  18 O :    1.286205
  19 O :    1.374745
  20 C :    0.119047
  21 H :   -0.332497
  22 O :    1.260001
  23 H :   -0.355687
  24 H :   -0.301704
  25 O :    1.353388
  26 H :   -0.974268
  27 H :   -0.928976
  28 H :   -0.322149
  29 H :   -1.069026
  30 H :   -0.298432
  31 H :   -0.300151
  32 H :   -0.464558
  33 H :   -1.060820

  Mayer bond orders larger than 0.100000
B(  0-N ,  1-C ) :   1.5271 B(  0-N ,  3-C ) :   0.2133 B(  0-N ,  4-C ) :   0.3828
B(  1-C ,  2-N ) :   1.5192 B(  1-C , 11-H ) :   0.6582 B(  2-N ,  3-C ) :   1.1860
B(  2-N ,  4-C ) :  -0.1466 B(  2-N , 12-C ) :   0.5527 B(  3-C ,  4-C ) :   1.0933
B(  3-C ,  5-C ) :  -0.2817 B(  3-C ,  6-N ) :   0.1368 B(  3-C ,  7-N ) :   1.3894
B(  3-C ,  8-C ) :   0.1370 B(  4-C ,  5-C ) :   1.2750 B(  4-C , 10-H ) :  -0.1127
B(  5-C ,  6-N ) :   1.1808 B(  5-C , 10-H ) :   0.8089 B(  6-N ,  8-C ) :   1.1628
B(  6-N ,  9-H ) :  -0.1151 B(  6-N , 10-H ) :  -0.1390 B(  7-N ,  8-C ) :   1.5458
B(  7-N , 19-O ) :  -0.1093 B(  7-N , 27-H ) :   0.1323 B(  8-C ,  9-H ) :   0.7242
B( 12-C , 25-O ) :   0.5732 B( 12-C , 31-H ) :   0.8278 B( 12-C , 32-H ) :   0.8452
B( 13-C , 14-C ) :   0.8261 B( 13-C , 18-O ) :   0.1301 B( 13-C , 19-O ) :   0.8045
B( 13-C , 27-H ) :   0.1014 B( 13-C , 28-H ) :   0.9744 B( 13-C , 30-H ) :   0.9077
B( 14-C , 15-C ) :   0.7645 B( 14-C , 17-H ) :   0.9535 B( 14-C , 18-O ) :   0.1660
B( 15-C , 16-O ) :   0.6077 B( 15-C , 18-O ) :   0.1705 B( 15-C , 20-C ) :   0.9212
B( 15-C , 21-H ) :   0.8707 B( 16-O , 26-H ) :   0.1118 B( 16-O , 29-H ) :   0.1429
B( 18-O , 29-H ) :   0.7370 B( 18-O , 32-H ) :  -0.2109 B( 19-O , 27-H ) :   0.8032
B( 20-C , 22-O ) :   0.4674 B( 20-C , 23-H ) :   0.9798 B( 20-C , 24-H ) :   0.9202
B( 22-O , 26-H ) :   0.8005 B( 25-O , 32-H ) :   0.1240 B( 25-O , 33-H ) :   0.4635

MP2 TOTAL ENERGY:     -983.845997262 Eh
FINAL SINGLE POINT ENERGY      -983.845997262237

DIPOLE MOMENT
-------------
                                X             Y             Z
Electronic contribution:     16.85675      -3.70035       0.07425
Nuclear contribution   :    -16.51968       4.59672      -0.51125
                        -----------------------------------------
Total Dipole Moment    :      0.33707       0.89637      -0.43700
                        -----------------------------------------
Magnitude (a.u.)       :      1.05264
Magnitude (Debye)      :      2.67561

Rotational constants in cm-1:     0.024244     0.007208     0.006210
Rotational constants in MHz :   726.817551   216.082325   186.175109

                             ****ORCA TERMINATED NORMALLY****
TOTAL RUN TIME: 0 days 5 hours 6 minutes 3 seconds 412 msec
