                         Program Version 4.2.1 -  RELEASE  -
|  1> %pal
|  2>  nprocs 32
|  3> end
|  4> !RI-MP2 aug-cc-pVQZ aug-cc-pVQZ/C TightSCF
|  5> %maxcore 4500
|  6> *xyzfile 0 1  09_13R1.xyz
|  7>
|  8>
|  9>                          ****END OF INPUT****

CARTESIAN COORDINATES (ANGSTROEM)
---------------------------------
  C      0.000000    0.000000    0.000000
  O      0.000000    0.000000    1.155856
  O      0.000000    0.000000   -1.155856

 Total Charge           Charge          ....    0
 Multiplicity           Mult            ....    1
 Number of Electrons    NEL             ....   22
 Basis Dimension        Dim             ....  240

ORBITAL ENERGIES
----------------

  NO   OCC          E(Eh)            E(eV)
   0   2.0000     -20.649114      -561.8910
   1   2.0000     -20.649069      -561.8897
   2   2.0000     -11.456907      -311.7583
   3   2.0000      -1.533617       -41.7318
   4   2.0000      -1.480416       -40.2842
   5   2.0000      -0.800404       -21.7801
   6   2.0000      -0.744607       -20.2618
   7   2.0000      -0.717895       -19.5349
   8   2.0000      -0.717895       -19.5349
   9   2.0000      -0.545235       -14.8366
  10   2.0000      -0.545235       -14.8366
  11   0.0000       0.041528         1.1300
  12   0.0000       0.063294         1.7223
  13   0.0000       0.063294         1.7223
  14   0.0000       0.069046         1.8788
  15   0.0000       0.129084         3.5126

MULLIKEN ATOMIC CHARGES
-----------------------
   0 C :    0.994216
   1 O :   -0.497108
   2 O :   -0.497108
Sum of atomic charges:   -0.0000000

LOEWDIN ATOMIC CHARGES
----------------------
   0 C :   -1.142353
   1 O :    0.571176
   2 O :    0.571176

  Mayer bond orders larger than 0.100000
B(  0-C ,  1-O ) :   1.9960 B(  0-C ,  2-O ) :   1.9960 B(  1-O ,  2-O ) :   0.1812

MP2 TOTAL ENERGY:     -188.373352886 Eh
FINAL SINGLE POINT ENERGY      -188.373352886135

DIPOLE MOMENT
-------------
                                X             Y             Z
Electronic contribution:     -0.00000      -0.00000       0.00000
Nuclear contribution   :      0.00000       0.00000       0.00000
                        -----------------------------------------
Total Dipole Moment    :     -0.00000      -0.00000       0.00000
                        -----------------------------------------
Magnitude (a.u.)       :      0.00000
Magnitude (Debye)      :      0.00000

Rotational constants in cm-1:     0.000000     0.394336     0.394336
Rotational constants in MHz :     0.000000 11821.900681 11821.900681

                             ****ORCA TERMINATED NORMALLY****
TOTAL RUN TIME: 0 days 0 hours 0 minutes 20 seconds 264 msec
