                         Program Version 4.2.1 -  RELEASE  -
|  1> %pal
|  2>  nprocs 32
|  3> end
|  4> !RI-MP2 aug-cc-pVQZ aug-cc-pVQZ/C TightSCF
|  5> %maxcore 4500
|  6> *xyzfile 0 2  04_83TS.xyz
|  7>
|  8>
|  9>                          ****END OF INPUT****

CARTESIAN COORDINATES (ANGSTROEM)
---------------------------------
  O      1.138493   -0.526179   -0.526241
  C     -0.172127    0.080708   -0.507390
  C      0.038458    1.559178   -0.112569
  C      1.539989    1.757178   -0.339668
  C      2.078874    0.374950    0.039351
  C     -1.038508   -0.710009    0.428945
  H     -0.553994    0.018685   -1.530396
  H     -0.769565   -0.613053    1.476998
  H     -1.196941   -1.739294    0.114120
  O     -0.194754    1.815266    1.254191
  O      2.086705    2.812128    0.385673
  N      3.384297    0.063416   -0.461950
  H      2.135350    0.271816    1.126472
  C      4.442513   -0.400810    0.285684
  C      3.828122    0.096311   -1.767310
  H      1.737417    1.937327   -1.399120
  H     -0.566245    2.226852   -0.728538
  H     -1.125641    2.079975    1.350366
  H      1.572337    2.878131    1.202746
  O     -2.828087    2.339686    0.761155
  C     -3.601681    1.594883    0.199016
  O     -4.424018    2.067751   -0.727755
  C     -3.597446    0.128393    0.497605
  C     -4.290394   -0.869343   -0.413131
  H     -2.322785   -0.199365    0.424386
  H     -3.772587   -0.043431    1.558458
  C     -5.798880   -0.763247   -0.371261
  H     -3.977494   -1.877552   -0.137326
  H     -3.991414   -0.707027   -1.453118
  S     -6.637113   -2.164956    0.253089
  C     -8.345675   -1.580950    0.144498
  H     -8.477057   -0.692868    0.757946
  H     -8.973003   -2.388767    0.516316
  H     -8.599104   -1.356331   -0.888704
  O     -6.379376    0.240016   -0.739094
  N      5.061387   -0.289547   -1.906651
  C      5.467911   -0.604794   -0.624274
  C      6.678939   -1.075819   -0.097370
  N      6.762606   -1.296052    1.216895
  C      5.687910   -1.059587    1.975932
  N      4.497771   -0.614465    1.598930
  N      7.754100   -1.318677   -0.874349
  H      7.722408   -1.111769   -1.857473
  H      8.612014   -1.611468   -0.439824
  H      5.812558   -1.258294    3.035264
  H      3.181224    0.405362   -2.573578
  H     -5.174525    1.456051   -0.906312

 Total Charge           Charge          ....    0
 Multiplicity           Mult            ....    2
 Number of Electrons    NEL             ....  209
 Basis Dimension        Dim             .... 3084

ORBITAL ENERGIES
----------------
                 SPIN UP ORBITALS
  NO   OCC          E(Eh)            E(eV)
   0   1.0000     -92.008773     -2503.6860
   1   1.0000     -20.608773      -560.7932
   2   1.0000     -20.599218      -560.5332
   3   1.0000     -20.572301      -559.8008
   4   1.0000     -20.557605      -559.4009
   5   1.0000     -20.555914      -559.3549
   6   1.0000     -20.554722      -559.3224
   7   1.0000     -15.614162      -424.8829
   8   1.0000     -15.573495      -423.7763
   9   1.0000     -15.554541      -423.2606
  10   1.0000     -15.542483      -422.9325
  11   1.0000     -15.536693      -422.7749
  12   1.0000     -11.405109      -310.3488
  13   1.0000     -11.404039      -310.3197
  14   1.0000     -11.326923      -308.2212
  15   1.0000     -11.325379      -308.1792
  16   1.0000     -11.307463      -307.6917
  17   1.0000     -11.302019      -307.5436
  18   1.0000     -11.301839      -307.5387
  19   1.0000     -11.298080      -307.4364
  20   1.0000     -11.292866      -307.2945
  21   1.0000     -11.292546      -307.2858
  22   1.0000     -11.291885      -307.2678
  23   1.0000     -11.289159      -307.1936
  24   1.0000     -11.288429      -307.1738
  25   1.0000     -11.260537      -306.4148
  26   1.0000     -11.236934      -305.7725
  27   1.0000      -9.011784      -245.2231
  28   1.0000      -6.693274      -182.1332
  29   1.0000      -6.692096      -182.1012
  30   1.0000      -6.691544      -182.0862
  31   1.0000      -1.476722       -40.1837
  32   1.0000      -1.450274       -39.4640
  33   1.0000      -1.419382       -38.6234
  34   1.0000      -1.384241       -37.6671
  35   1.0000      -1.375174       -37.4204
  36   1.0000      -1.359507       -36.9941
  37   1.0000      -1.352662       -36.8078
  38   1.0000      -1.294227       -35.2177
  39   1.0000      -1.240535       -33.7567
  40   1.0000      -1.191450       -32.4210
  41   1.0000      -1.147446       -31.2236
  42   1.0000      -1.137805       -30.9613
  43   1.0000      -1.097933       -29.8763
  44   1.0000      -1.067624       -29.0515
  45   1.0000      -1.040085       -28.3022
  46   1.0000      -1.023865       -27.8608
  47   1.0000      -0.995850       -27.0984
  48   1.0000      -0.952276       -25.9127
  49   1.0000      -0.924461       -25.1559
  50   1.0000      -0.886817       -24.1315
  51   1.0000      -0.868904       -23.6441
  52   1.0000      -0.857001       -23.3202
  53   1.0000      -0.847088       -23.0504
  54   1.0000      -0.818068       -22.2608
  55   1.0000      -0.788762       -21.4633
  56   1.0000      -0.781297       -21.2602
  57   1.0000      -0.768813       -20.9205
  58   1.0000      -0.753682       -20.5087
  59   1.0000      -0.745444       -20.2846
  60   1.0000      -0.725665       -19.7463
  61   1.0000      -0.709706       -19.3121
  62   1.0000      -0.703436       -19.1415
  63   1.0000      -0.699504       -19.0345
  64   1.0000      -0.692570       -18.8458
  65   1.0000      -0.685194       -18.6451
  66   1.0000      -0.675760       -18.3884
  67   1.0000      -0.659848       -17.9554
  68   1.0000      -0.656827       -17.8732
  69   1.0000      -0.650216       -17.6933
  70   1.0000      -0.643257       -17.5039
  71   1.0000      -0.642107       -17.4726
  72   1.0000      -0.624994       -17.0070
  73   1.0000      -0.621126       -16.9017
  74   1.0000      -0.615452       -16.7473
  75   1.0000      -0.611617       -16.6429
  76   1.0000      -0.610534       -16.6135
  77   1.0000      -0.598233       -16.2787
  78   1.0000      -0.592180       -16.1140
  79   1.0000      -0.586781       -15.9671
  80   1.0000      -0.584444       -15.9035
  81   1.0000      -0.579761       -15.7761
  82   1.0000      -0.568502       -15.4697
  83   1.0000      -0.564752       -15.3677
  84   1.0000      -0.549249       -14.9458
  85   1.0000      -0.545867       -14.8538
  86   1.0000      -0.543366       -14.7857
  87   1.0000      -0.530863       -14.4455
  88   1.0000      -0.517466       -14.0810
  89   1.0000      -0.499714       -13.5979
  90   1.0000      -0.495091       -13.4721
  91   1.0000      -0.490694       -13.3525
  92   1.0000      -0.484335       -13.1794
  93   1.0000      -0.473864       -12.8945
  94   1.0000      -0.468064       -12.7367
  95   1.0000      -0.458516       -12.4769
  96   1.0000      -0.445841       -12.1319
  97   1.0000      -0.439001       -11.9458
  98   1.0000      -0.434703       -11.8289
  99   1.0000      -0.411193       -11.1891
 100   1.0000      -0.403112       -10.9692
 101   1.0000      -0.399450       -10.8696
 102   1.0000      -0.365706        -9.9514
 103   1.0000      -0.355864        -9.6836
 104   1.0000      -0.300728        -8.1832
 105   0.0000       0.011476         0.3123
 106   0.0000       0.018033         0.4907
 107   0.0000       0.023213         0.6317
 108   0.0000       0.027561         0.7500
 109   0.0000       0.029895         0.8135

MULLIKEN ATOMIC CHARGES AND SPIN POPULATIONS
--------------------------------------------
   0 O :   -1.157382    0.035034
   1 C :    0.186729   -0.083061
   2 C :    0.572838    0.011497
   3 C :    0.429604   -0.003498
   4 C :    1.550902    0.011281
   5 C :   -0.831379    0.876378
   6 H :    0.126022    0.013972
   7 H :    0.283871   -0.057343
   8 H :    0.204861   -0.037941
   9 O :   -0.995462   -0.001771
  10 O :   -1.242653   -0.000005
  11 N :   -0.933034   -0.003425
  12 H :    0.308649    0.008068
  13 C :    1.080571   -0.001916
  14 C :    0.477298   -0.000833
  15 H :    0.035615    0.000238
  16 H :    0.466075   -0.000220
  17 H :    0.307570    0.000356
  18 H :    0.345470    0.000023
  19 O :   -1.017870    0.050337
  20 C :    1.624236   -0.049996
  21 O :   -1.013489    0.009989
  22 C :   -0.440244    0.688057
  23 C :   -0.554732   -0.070200
  24 H :    0.286134   -0.374929
  25 H :    0.385897   -0.062454
  26 C :    0.675099    0.014663
  27 H :    0.306654    0.009326
  28 H :    0.295794    0.013648
  29 S :    0.208208    0.001387
  30 C :   -1.043308    0.000251
  31 H :    0.303212   -0.000151
  32 H :    0.444758    0.000293
  33 H :    0.304243    0.000027
  34 O :   -0.911590    0.006092
  35 N :   -1.041272   -0.000245
  36 C :   -0.381860    0.001284
  37 C :    1.079473   -0.000267
  38 N :   -0.981222    0.000413
  39 C :   -0.010270   -0.000896
  40 N :   -0.946387   -0.000375
  41 N :   -0.840735   -0.000049
  42 H :    0.309093   -0.000002
  43 H :    0.265993    0.000024
  44 H :    0.584392    0.000063
  45 H :    0.508963   -0.000049
  46 H :    0.384667   -0.003076
Sum of atomic charges         :   -0.0000000

LOEWDIN ATOMIC CHARGES AND SPIN POPULATIONS
-------------------------------------------
   0 O :    0.933808    0.034584
   1 C :   -0.174358    0.058097
   2 C :   -0.197207   -0.000284
   3 C :   -0.242331   -0.000639
   4 C :   -0.369820    0.003498
   5 C :    0.852876    0.274880
   6 H :   -0.287873    0.000649
   7 H :   -0.264392    0.070373
   8 H :   -0.247513    0.070470
   9 O :    1.331969   -0.000267
  10 O :    1.328350   -0.000095
  11 N :    0.430206    0.001607
  12 H :   -0.321527   -0.000157
  13 C :   -0.594675    0.000231
  14 C :   -0.031517    0.000447
  15 H :   -0.309492   -0.000098
  16 H :   -0.278656   -0.000282
  17 H :   -1.017945   -0.000161
  18 H :   -0.871420   -0.000008
  19 O :    0.826227    0.031507
  20 C :   -0.928953    0.038698
  21 O :    1.272563    0.003236
  22 C :    0.398623    0.207159
  23 C :    0.394088    0.035737
  24 H :   -0.586587    0.100736
  25 H :   -0.255592    0.045477
  26 C :   -1.004033    0.009705
  27 H :   -0.332729    0.000072
  28 H :   -0.277659    0.001477
  29 S :    1.366888    0.001294
  30 C :    0.560845    0.000506
  31 H :   -0.366273   -0.000031
  32 H :   -0.382073    0.000194
  33 H :   -0.367182    0.000070
  34 O :    0.805897    0.007670
  35 N :    0.624068   -0.000103
  36 C :   -0.427110    0.000164
  37 C :   -0.503971   -0.000009
  38 N :    0.590820    0.000111
  39 C :   -0.180517   -0.000108
  40 N :    0.629973    0.000143
  41 N :    1.262283   -0.000060
  42 H :   -0.485615   -0.000006
  43 H :   -0.488479   -0.000008
  44 H :   -0.384430   -0.000060
  45 H :   -0.305270    0.000085
  46 H :   -1.124284    0.003502

  Mayer bond orders larger than 0.100000
B(  0-O ,  1-C ) :   0.5638 B(  0-O ,  3-C ) :   0.3157 B(  0-O , 11-N ) :   0.1889
B(  1-C ,  2-C ) :   0.8589 B(  1-C ,  3-C ) :   0.2651 B(  1-C ,  5-C ) :   0.6648
B(  1-C ,  6-H ) :   1.0738 B(  1-C ,  8-H ) :  -0.1195 B(  1-C ,  9-O ) :   0.1478
B(  2-C ,  3-C ) :   1.0239 B(  2-C , 10-O ) :   0.3817 B(  2-C , 16-H ) :   0.7813
B(  3-C ,  4-C ) :   0.5370 B(  3-C ,  9-O ) :   0.1561 B(  3-C , 10-O ) :  -0.5019
B(  3-C , 11-N ) :   0.1322 B(  3-C , 15-H ) :   1.2064 B(  4-C , 10-O ) :   0.1618
B(  4-C , 11-N ) :   0.7370 B(  4-C , 12-H ) :   0.6893 B(  4-C , 40-N ) :  -0.2048
B(  5-C ,  7-H ) :   0.8538 B(  5-C ,  8-H ) :   1.0692 B(  5-C , 22-C ) :   0.1160
B(  5-C , 24-H ) :   0.3206 B(  9-O , 17-H ) :   0.9496 B(  9-O , 18-H ) :   0.1061
B( 10-O , 11-N ) :   0.1080 B( 10-O , 15-H ) :   0.1085 B( 10-O , 18-H ) :   0.8234
B( 11-N , 13-C ) :   0.9482 B( 11-N , 14-C ) :   1.2413 B( 11-N , 35-N ) :   0.1115
B( 11-N , 40-N ) :   0.1702 B( 13-C , 14-C ) :   0.4526 B( 13-C , 35-N ) :   0.3243
B( 13-C , 36-C ) :   0.8692 B( 13-C , 37-C ) :  -0.4134 B( 13-C , 39-C ) :  -0.1348
B( 13-C , 40-N ) :   0.6466 B( 14-C , 35-N ) :   0.7542 B( 14-C , 36-C ) :   0.1823
B( 14-C , 45-H ) :   0.6777 B( 19-O , 20-C ) :   1.0065 B( 19-O , 21-O ) :   0.1532
B( 19-O , 22-C ) :   0.2493 B( 20-C , 21-O ) :   0.3942 B( 20-C , 22-C ) :   1.1485
B( 21-O , 22-C ) :   0.1149 B( 21-O , 46-H ) :   0.7363 B( 22-C , 23-C ) :   0.9436
B( 22-C , 24-H ) :   0.2602 B( 22-C , 25-H ) :   0.8403 B( 23-C , 24-H ) :  -0.1894
B( 23-C , 26-C ) :   0.9955 B( 23-C , 27-H ) :   0.9015 B( 23-C , 28-H ) :   0.8680
B( 23-C , 34-O ) :   0.2504 B( 26-C , 29-S ) :   0.9619 B( 26-C , 34-O ) :   0.9267
B( 29-S , 30-C ) :   1.0676 B( 30-C , 31-H ) :   0.8961 B( 30-C , 32-H ) :   0.8134
B( 30-C , 33-H ) :   0.8834 B( 34-O , 46-H ) :   0.1093 B( 35-N , 36-C ) :   0.4216
B( 35-N , 45-H ) :  -0.1067 B( 36-C , 37-C ) :   1.4643 B( 36-C , 38-N ) :   0.2335
B( 36-C , 39-C ) :   0.2531 B( 37-C , 38-N ) :   0.7196 B( 37-C , 39-C ) :   0.1106
B( 37-C , 41-N ) :   0.8402 B( 38-N , 39-C ) :   1.2330 B( 38-N , 40-N ) :   0.1215
B( 38-N , 41-N ) :   0.1607 B( 39-C , 40-N ) :   1.6227 B( 39-C , 44-H ) :   0.7049
B( 41-N , 42-H ) :   0.9088 B( 41-N , 43-H ) :   0.9895

MP2 TOTAL ENERGY:    -1704.543671204 Eh
FINAL SINGLE POINT ENERGY     -1704.543671203766

DIPOLE MOMENT
-------------
                                X             Y             Z
Electronic contribution:     14.80917       0.24498      -0.35679
Nuclear contribution   :    -18.25395      -2.10890      -0.34995
                        -----------------------------------------
Total Dipole Moment    :     -3.44478      -1.86392      -0.70674
                        -----------------------------------------
Magnitude (a.u.)       :      3.97998
Magnitude (Debye)      :     10.11630

Rotational constants in cm-1:     0.015331     0.001819     0.001735
Rotational constants in MHz :   459.615161    54.529939    52.003519

                             ****ORCA TERMINATED NORMALLY****
TOTAL RUN TIME: 0 days 21 hours 20 minutes 39 seconds 380 msec
