                         Program Version 4.2.1 -  RELEASE  -
|  1> %pal
|  2>  nprocs 32
|  3> end
|  4> !RI-MP2 aug-cc-pVQZ aug-cc-pVQZ/C TightSCF
|  5> %maxcore 4500
|  6> *xyzfile 0 1  08_12R2.xyz
|  7>
|  8>
|  9>                          ****END OF INPUT****

CARTESIAN COORDINATES (ANGSTROEM)
---------------------------------
  N      2.700720   -1.193779   -0.000002
  C      1.720316   -0.269105   -0.000001
  N      2.046088    1.025554   -0.000001
  C      1.066492    1.935908    0.000001
  N     -0.243401    1.733413    0.000002
  C     -0.541403    0.433394    0.000001
  C      0.361727   -0.620488   -0.000000
  H      1.392695    2.970712    0.000001
  N     -0.295188   -1.832965    0.000000
  C     -1.556814   -1.508592    0.000002
  N     -1.781109   -0.152517    0.000004
  H     -2.380167   -2.208298    0.000003
  C     -3.051283    0.543592   -0.000005
  H     -3.136697    1.172548    0.885983
  H     -3.854512   -0.191405    0.000078
  H     -3.136763    1.172422   -0.886076
  H      2.472633   -2.172702   -0.000000
  H      3.658832   -0.889468   -0.000000

 Total Charge           Charge          ....    0
 Multiplicity           Mult            ....    1
 Number of Electrons    NEL             ....   78
 Basis Dimension        Dim             .... 1202

ORBITAL ENERGIES
----------------

  NO   OCC          E(Eh)            E(eV)
   0   2.0000     -15.624484      -425.1638
   1   2.0000     -15.579529      -423.9405
   2   2.0000     -15.559436      -423.3938
   3   2.0000     -15.549195      -423.1151
   4   2.0000     -15.542927      -422.9446
   5   2.0000     -11.331909      -308.3569
   6   2.0000     -11.314106      -307.8725
   7   2.0000     -11.305272      -307.6321
   8   2.0000     -11.304044      -307.5987
   9   2.0000     -11.283236      -307.0325
  10   2.0000     -11.243992      -305.9646
  11   2.0000      -1.370242       -37.2862
  12   2.0000      -1.301023       -35.4026
  13   2.0000      -1.246485       -33.9186
  14   2.0000      -1.198537       -32.6138
  15   2.0000      -1.153198       -31.3801
  16   2.0000      -1.034317       -28.1452
  17   2.0000      -0.982996       -26.7487
  18   2.0000      -0.892309       -24.2810
  19   2.0000      -0.873113       -23.7586
  20   2.0000      -0.806528       -21.9467
  21   2.0000      -0.759369       -20.6635
  22   2.0000      -0.728357       -19.8196
  23   2.0000      -0.685762       -18.6605
  24   2.0000      -0.681155       -18.5352
  25   2.0000      -0.666200       -18.1282
  26   2.0000      -0.627668       -17.0797
  27   2.0000      -0.608122       -16.5478
  28   2.0000      -0.596164       -16.2225
  29   2.0000      -0.596124       -16.2214
  30   2.0000      -0.571234       -15.5441
  31   2.0000      -0.538974       -14.6662
  32   2.0000      -0.496906       -13.5215
  33   2.0000      -0.487377       -13.2622
  34   2.0000      -0.446040       -12.1374
  35   2.0000      -0.409486       -11.1427
  36   2.0000      -0.405510       -11.0345
  37   2.0000      -0.366354        -9.9690
  38   2.0000      -0.306338        -8.3359
  39   0.0000       0.020168         0.5488
  40   0.0000       0.027889         0.7589
  41   0.0000       0.031165         0.8481
  42   0.0000       0.040307         1.0968
  43   0.0000       0.040993         1.1155

MULLIKEN ATOMIC CHARGES
-----------------------
   0 N :   -0.804745
   1 C :    1.109751
   2 N :   -0.837322
   3 C :   -0.161236
   4 N :   -0.760338
   5 C :    1.263440
   6 C :   -0.321231
   7 H :    0.588411
   8 N :   -0.807330
   9 C :    0.042363
  10 N :   -0.406238
  11 H :    0.495495
  12 C :   -0.972976
  13 H :    0.333703
  14 H :    0.320742
  15 H :    0.333695
  16 H :    0.305691
  17 H :    0.278125
Sum of atomic charges:   -0.0000000

LOEWDIN ATOMIC CHARGES
----------------------
   0 N :    1.262461
   1 C :   -0.504944
   2 N :    0.589650
   3 C :   -0.187972
   4 N :    0.617183
   5 C :   -0.620794
   6 C :   -0.439293
   7 H :   -0.385766
   8 N :    0.610447
   9 C :   -0.043042
  10 N :    0.410362
  11 H :   -0.310660
  12 C :    0.821600
  13 H :   -0.274992
  14 H :   -0.297193
  15 H :   -0.274989
  16 H :   -0.484723
  17 H :   -0.487336

  Mayer bond orders larger than 0.100000
B(  0-N ,  1-C ) :   0.8967 B(  0-N ,  2-N ) :   0.1514 B(  0-N , 16-H ) :   0.9145
B(  0-N , 17-H ) :   0.9628 B(  1-C ,  2-N ) :   0.8681 B(  1-C ,  5-C ) :  -0.4240
B(  1-C ,  6-C ) :   1.3382 B(  2-N ,  3-C ) :   1.3298 B(  2-N ,  6-C ) :   0.1953
B(  3-C ,  4-N ) :   1.4466 B(  3-C ,  6-C ) :   0.2125 B(  3-C ,  7-H ) :   0.7170
B(  4-N ,  5-C ) :   0.8188 B(  4-N , 10-N ) :   0.1659 B(  5-C ,  6-C ) :   1.2367
B(  5-C ,  8-N ) :   0.1231 B(  5-C ,  9-C ) :   0.1033 B(  5-C , 10-N ) :   0.9718
B(  5-C , 12-C ) :  -0.1449 B(  6-C ,  8-N ) :   0.4221 B(  6-C ,  9-C ) :   0.1285
B(  8-N ,  9-C ) :   1.5175 B(  9-C , 10-N ) :   1.3693 B(  9-C , 11-H ) :   0.7205
B( 10-N , 12-C ) :   0.7009 B( 12-C , 13-H ) :   0.9606 B( 12-C , 14-H ) :   0.9011
B( 12-C , 15-H ) :   0.9606

MP2 TOTAL ENERGY:     -505.845766419 Eh
FINAL SINGLE POINT ENERGY      -505.845766418590

DIPOLE MOMENT
-------------
                                X             Y             Z
Electronic contribution:      3.99916      -0.39963       0.00001
Nuclear contribution   :     -4.88086      -0.14600      -0.00001
                        -----------------------------------------
Total Dipole Moment    :     -0.88170      -0.54563       0.00000
                        -----------------------------------------
Magnitude (a.u.)       :      1.03687
Magnitude (Debye)      :      2.63552

Rotational constants in cm-1:     0.072841     0.036158     0.024273
Rotational constants in MHz :  2183.731986  1083.980922   727.699359

                             ****ORCA TERMINATED NORMALLY****
TOTAL RUN TIME: 0 days 0 hours 49 minutes 43 seconds 602 msec
