                         Program Version 4.2.1 -  RELEASE  -
|  1> %pal
|  2>  nprocs 32
|  3> end
|  4> !RI-MP2 aug-cc-pVQZ aug-cc-pVQZ/C TightSCF
|  5> %maxcore 4500
|  6> *xyzfile 0 1  05_26R1.xyz
|  7>
|  8>
|  9>                          ****END OF INPUT****

CARTESIAN COORDINATES (ANGSTROEM)
---------------------------------
  C      2.834098   -0.218360   -0.878271
  O      3.754745   -0.394753    0.182001
  C      3.641482    0.580115    1.194046
  H      2.660763    0.552353    1.681089
  H      3.803234    1.588288    0.789792
  C      1.419596   -0.501339   -0.476168
  H      1.249317   -1.480211   -0.036299
  C      0.419755    0.361986   -0.628356
  H      0.649583    1.343160   -1.039191
  H      4.413637    0.364959    1.931045
  C     -0.993387    0.150025   -0.281975
  C     -1.519333   -1.110130    0.014215
  C     -1.852535    1.248908   -0.244337
  C     -2.852898   -1.258800    0.355047
  H     -0.882847   -1.984831   -0.034060
  C     -3.189216    1.102385    0.096555
  H     -1.462610    2.232752   -0.481113
  C     -3.694279   -0.153041    0.400321
  H     -3.242351   -2.244585    0.579714
  H     -3.836849    1.970473    0.122996
  H     -4.737969   -0.272878    0.664129
  H      2.914415    0.798292   -1.288688
  H      3.154024   -0.920245   -1.651882

 Total Charge           Charge          ....    0
 Multiplicity           Mult            ....    1
 Number of Electrons    NEL             ....   80
 Basis Dimension        Dim             .... 1432

ORBITAL ENERGIES
----------------

  NO   OCC          E(Eh)            E(eV)
   0   2.0000     -20.552838      -559.2712
   1   2.0000     -11.278555      -306.9051
   2   2.0000     -11.264817      -306.5313
   3   2.0000     -11.245603      -306.0084
   4   2.0000     -11.239074      -305.8307
   5   2.0000     -11.236483      -305.7602
   6   2.0000     -11.236183      -305.7521
   7   2.0000     -11.234968      -305.7190
   8   2.0000     -11.234384      -305.7031
   9   2.0000     -11.233964      -305.6917
  10   2.0000     -11.231391      -305.6217
  11   2.0000      -1.373691       -37.3800
  12   2.0000      -1.164251       -31.6809
  13   2.0000      -1.087309       -29.5872
  14   2.0000      -1.021814       -27.8050
  15   2.0000      -1.018175       -27.7060
  16   2.0000      -0.955150       -25.9910
  17   2.0000      -0.883583       -24.0435
  18   2.0000      -0.837844       -22.7989
  19   2.0000      -0.818437       -22.2708
  20   2.0000      -0.763449       -20.7745
  21   2.0000      -0.708962       -19.2918
  22   2.0000      -0.662259       -18.0210
  23   2.0000      -0.659980       -17.9590
  24   2.0000      -0.654071       -17.7982
  25   2.0000      -0.631939       -17.1959
  26   2.0000      -0.622243       -16.9321
  27   2.0000      -0.594702       -16.1827
  28   2.0000      -0.589408       -16.0386
  29   2.0000      -0.569732       -15.5032
  30   2.0000      -0.533488       -14.5169
  31   2.0000      -0.520890       -14.1741
  32   2.0000      -0.516001       -14.0411
  33   2.0000      -0.503832       -13.7100
  34   2.0000      -0.490382       -13.3440
  35   2.0000      -0.472764       -12.8646
  36   2.0000      -0.425332       -11.5739
  37   2.0000      -0.410176       -11.1614
  38   2.0000      -0.342192        -9.3115
  39   2.0000      -0.308054        -8.3826
  40   0.0000       0.023468         0.6386
  41   0.0000       0.026526         0.7218
  42   0.0000       0.029043         0.7903
  43   0.0000       0.035320         0.9611
  44   0.0000       0.038656         1.0519

MULLIKEN ATOMIC CHARGES
-----------------------
   0 C :    0.057871
   1 O :   -0.885096
   2 C :   -0.653255
   3 H :    0.297466
   4 H :    0.212488
   5 C :   -0.354144
   6 H :    0.314524
   7 C :   -0.348501
   8 H :    0.210106
   9 H :    0.470391
  10 C :    0.512838
  11 C :   -0.308137
  12 C :   -0.480702
  13 C :   -0.306052
  14 H :    0.262984
  15 C :   -0.283833
  16 H :    0.237236
  17 C :   -0.406552
  18 H :    0.250817
  19 H :    0.251793
  20 H :    0.330316
  21 H :    0.168629
  22 H :    0.448811
Sum of atomic charges:    0.0000000

LOEWDIN ATOMIC CHARGES
----------------------
   0 C :    0.129038
   1 O :    0.871484
   2 C :    0.554963
   3 H :   -0.316616
   4 H :   -0.305892
   5 C :    0.363824
   6 H :   -0.325836
   7 C :    0.366736
   8 H :   -0.341830
   9 H :   -0.324534
  10 C :   -0.095102
  11 C :    0.333220
  12 C :    0.330277
  13 C :    0.347507
  14 H :   -0.336293
  15 C :    0.342986
  16 H :   -0.321651
  17 C :    0.336540
  18 H :   -0.319369
  19 H :   -0.320456
  20 H :   -0.322348
  21 H :   -0.328350
  22 H :   -0.318299

  Mayer bond orders larger than 0.100000
B(  0-C ,  1-O ) :   0.6691 B(  0-C ,  5-C ) :   1.0046 B(  0-C ,  7-C ) :  -0.1413
B(  0-C , 21-H ) :   1.0368 B(  0-C , 22-H ) :   0.7609 B(  1-O ,  2-C ) :   0.8903
B(  2-C ,  3-H ) :   0.8659 B(  2-C ,  4-H ) :   0.9641 B(  2-C ,  9-H ) :   0.7962
B(  5-C ,  6-H ) :   0.9217 B(  5-C ,  7-C ) :   1.4859 B(  5-C , 10-C ) :  -0.3847
B(  5-C , 11-C ) :  -0.1096 B(  7-C ,  8-H ) :   1.0307 B(  7-C , 10-C ) :   0.6621
B(  7-C , 11-C ) :  -0.3421 B(  7-C , 12-C ) :  -0.4401 B(  8-H , 10-C ) :  -0.1757
B( 10-C , 11-C ) :   1.2052 B( 10-C , 12-C ) :   1.0228 B( 10-C , 13-C ) :  -0.3662
B( 10-C , 15-C ) :  -0.3593 B( 10-C , 16-H ) :  -0.1157 B( 11-C , 13-C ) :   1.2306
B( 11-C , 14-H ) :   0.9801 B( 11-C , 15-C ) :   0.1394 B( 11-C , 18-H ) :  -0.1256
B( 12-C , 13-C ) :   0.1175 B( 12-C , 15-C ) :   1.2554 B( 12-C , 16-H ) :   1.0321
B( 12-C , 17-C ) :   0.1021 B( 12-C , 19-H ) :  -0.1547 B( 13-C , 17-C ) :   1.1746
B( 13-C , 18-H ) :   1.1160 B( 15-C , 17-C ) :   1.1860 B( 15-C , 19-H ) :   1.1391
B( 17-C , 19-H ) :  -0.1124 B( 17-C , 20-H ) :   0.9866

MP2 TOTAL ENERGY:     -462.666314310 Eh
FINAL SINGLE POINT ENERGY      -462.666314309892

DIPOLE MOMENT
-------------
                                X             Y             Z
Electronic contribution:     -5.24374      -1.59143      -1.24191
Nuclear contribution   :      4.80683       1.96804       1.25748
                        -----------------------------------------
Total Dipole Moment    :     -0.43692       0.37661       0.01557
                        -----------------------------------------
Magnitude (a.u.)       :      0.57704
Magnitude (Debye)      :      1.46671

Rotational constants in cm-1:     0.105827     0.014807     0.014154
Rotational constants in MHz :  3172.615444   443.900748   424.321648

                             ****ORCA TERMINATED NORMALLY****
TOTAL RUN TIME: 0 days 1 hours 7 minutes 41 seconds 323 msec
