                         Program Version 4.2.1 -  RELEASE  -
|  1> %pal
|  2>  nprocs 32
|  3> end
|  4> !RI-MP2 aug-cc-pVQZ aug-cc-pVQZ/C TightSCF
|  5> %maxcore 4500
|  6> *xyzfile 0 1  04_57R1.xyz
|  7>
|  8>
|  9>                          ****END OF INPUT****

CARTESIAN COORDINATES (ANGSTROEM)
---------------------------------
  C     -0.905783    0.021795   -0.350035
  C     -0.179565    1.200812   -0.230010
  C      1.192509    1.187540   -0.016615
  C      1.863325   -0.023441    0.079759
  C      1.158753   -1.214073   -0.039769
  C     -0.208962   -1.181660   -0.251636
  C     -2.401847    0.040863   -0.532115
  C     -3.157566   -0.025708    0.797214
  H     -2.701611   -0.800598   -1.162883
  H     -2.690501    0.948186   -1.069580
  H     -2.905127   -0.937471    1.343159
  H     -4.238324   -0.013368    0.638263
  H     -2.897779    0.822335    1.434759
  O      3.210830   -0.104959    0.285558
  H     -0.691569    2.154036   -0.307312
  H      1.739406    2.121181    0.069805
  H     -0.749147   -2.117686   -0.347315
  H      1.696308   -2.151084    0.031007
  H      3.586527    0.777374    0.344880

 Total Charge           Charge          ....    0
 Multiplicity           Mult            ....    1
 Number of Electrons    NEL             ....   66
 Basis Dimension        Dim             .... 1180

ORBITAL ENERGIES
----------------

  NO   OCC          E(Eh)            E(eV)
   0   2.0000     -20.584764      -560.1399
   1   2.0000     -11.295367      -307.3626
   2   2.0000     -11.233862      -305.6889
   3   2.0000     -11.232295      -305.6463
   4   2.0000     -11.229522      -305.5708
   5   2.0000     -11.227095      -305.5048
   6   2.0000     -11.224789      -305.4420
   7   2.0000     -11.223895      -305.4177
   8   2.0000     -11.213347      -305.1307
   9   2.0000      -1.402777       -38.1715
  10   2.0000      -1.154222       -31.4080
  11   2.0000      -1.058532       -28.8041
  12   2.0000      -1.018714       -27.7206
  13   2.0000      -0.976970       -26.5847
  14   2.0000      -0.863357       -23.4931
  15   2.0000      -0.843871       -22.9629
  16   2.0000      -0.793879       -21.6025
  17   2.0000      -0.733311       -19.9544
  18   2.0000      -0.673785       -18.3346
  19   2.0000      -0.647685       -17.6244
  20   2.0000      -0.613420       -16.6920
  21   2.0000      -0.596923       -16.2431
  22   2.0000      -0.589875       -16.0513
  23   2.0000      -0.586918       -15.9708
  24   2.0000      -0.569620       -15.5002
  25   2.0000      -0.556040       -15.1306
  26   2.0000      -0.524052       -14.2602
  27   2.0000      -0.497744       -13.5443
  28   2.0000      -0.480343       -13.0708
  29   2.0000      -0.478110       -13.0100
  30   2.0000      -0.469638       -12.7795
  31   2.0000      -0.341668        -9.2973
  32   2.0000      -0.305964        -8.3257
  33   0.0000       0.023327         0.6348
  34   0.0000       0.027618         0.7515
  35   0.0000       0.030827         0.8388
  36   0.0000       0.037465         1.0195
  37   0.0000       0.039911         1.0860

MULLIKEN ATOMIC CHARGES
-----------------------
   0 C :    0.507481
   1 C :   -0.365087
   2 C :   -0.574472
   3 C :    1.100036
   4 C :   -0.583281
   5 C :   -0.494668
   6 C :   -0.295731
   7 C :   -0.909407
   8 H :    0.207282
   9 H :    0.194634
  10 H :    0.240242
  11 H :    0.335903
  12 H :    0.244396
  13 O :   -0.843849
  14 H :    0.231352
  15 H :    0.140178
  16 H :    0.215809
  17 H :    0.272085
  18 H :    0.377096
Sum of atomic charges:    0.0000000

LOEWDIN ATOMIC CHARGES
----------------------
   0 C :   -0.089730
   1 C :    0.341029
   2 C :    0.339603
   3 C :   -0.441317
   4 C :    0.332466
   5 C :    0.339551
   6 C :    0.477852
   7 C :    0.927249
   8 H :   -0.288165
   9 H :   -0.291573
  10 H :   -0.283343
  11 H :   -0.279862
  12 H :   -0.282028
  13 O :    1.272218
  14 H :   -0.310300
  15 H :   -0.321961
  16 H :   -0.309340
  17 H :   -0.323752
  18 H :   -0.808596

  Mayer bond orders larger than 0.100000
B(  0-C ,  1-C ) :   1.0106 B(  0-C ,  2-C ) :  -0.2507 B(  0-C ,  4-C ) :  -0.2557
B(  0-C ,  5-C ) :   0.9999 B(  0-C ,  6-C ) :   0.7391 B(  1-C ,  2-C ) :   1.2466
B(  1-C ,  4-C ) :   0.1230 B(  1-C ,  6-C ) :  -0.1832 B(  1-C , 14-H ) :   1.0322
B(  1-C , 15-H ) :  -0.1643 B(  2-C ,  3-C ) :   1.2703 B(  2-C ,  5-C ) :   0.1289
B(  2-C , 13-O ) :   0.2246 B(  2-C , 14-H ) :  -0.1329 B(  2-C , 15-H ) :   1.1655
B(  3-C ,  4-C ) :   1.3250 B(  3-C , 13-O ) :  -0.1594 B(  3-C , 15-H ) :  -0.1140
B(  3-C , 18-H ) :  -0.1253 B(  4-C ,  5-C ) :   1.3474 B(  4-C , 13-O ) :   0.3520
B(  4-C , 16-H ) :  -0.1250 B(  4-C , 17-H ) :   1.0127 B(  5-C ,  6-C ) :  -0.1368
B(  5-C , 16-H ) :   1.0674 B(  5-C , 17-H ) :  -0.1293 B(  6-C ,  7-C ) :   0.9878
B(  6-C ,  8-H ) :   0.9807 B(  6-C ,  9-H ) :   0.9975 B(  7-C , 10-H ) :   0.9437
B(  7-C , 11-H ) :   0.9212 B(  7-C , 12-H ) :   0.9439 B( 13-O , 18-H ) :   0.8914

MP2 TOTAL ENERGY:     -385.440001507 Eh
FINAL SINGLE POINT ENERGY      -385.440001506880

DIPOLE MOMENT
-------------
                                X             Y             Z
Electronic contribution:      9.72896      -0.29030      -1.00895
Nuclear contribution   :     -9.94447       0.81296       0.99360
                        -----------------------------------------
Total Dipole Moment    :     -0.21552       0.52267      -0.01535
                        -----------------------------------------
Magnitude (a.u.)       :      0.56556
Magnitude (Debye)      :      1.43755

Rotational constants in cm-1:     0.148533     0.031744     0.028112
Rotational constants in MHz :  4452.906724   951.646766   842.766473

                             ****ORCA TERMINATED NORMALLY****
TOTAL RUN TIME: 0 days 0 hours 42 minutes 9 seconds 26 msec
