                         Program Version 4.2.1 -  RELEASE  -
|  1> %pal
|  2>  nprocs 32
|  3> end
|  4> !RI-MP2 aug-cc-pVQZ aug-cc-pVQZ/C TightSCF
|  5> %maxcore 4500
|  6> *xyzfile 0 2  03_21R2.xyz
|  7>
|  8>
|  9>                          ****END OF INPUT****

CARTESIAN COORDINATES (ANGSTROEM)
---------------------------------
  O     -1.526802   -0.520161    0.000255
  C     -0.941977    0.500064    0.000076
  C      0.551295    0.730373   -0.000177
  C      1.378087   -0.551574   -0.000096
  H      0.762846    1.358322    0.869833
  H      0.762577    1.358034   -0.870464
  H      1.160798   -1.156585    0.880818
  H      2.443293   -0.314757   -0.000334
  H      1.160473   -1.156906   -0.880709

 Total Charge           Charge          ....    0
 Multiplicity           Mult            ....    2
 Number of Electrons    NEL             ....   31
 Basis Dimension        Dim             ....  550

ORBITAL ENERGIES
----------------
                 SPIN UP ORBITALS
  NO   OCC          E(Eh)            E(eV)
   0   1.0000     -20.591392      -560.3203
   1   1.0000     -11.334562      -308.4291
   2   1.0000     -11.264282      -306.5167
   3   1.0000     -11.232893      -305.6625
   4   1.0000      -1.441619       -39.2284
   5   1.0000      -1.077426       -29.3182
   6   1.0000      -0.915069       -24.9003
   7   1.0000      -0.760669       -20.6989
   8   1.0000      -0.685288       -18.6476
   9   1.0000      -0.647692       -17.6246
  10   1.0000      -0.632300       -17.2058
  11   1.0000      -0.562704       -15.3120
  12   1.0000      -0.554901       -15.0996
  13   1.0000      -0.530229       -14.4283
  14   1.0000      -0.510881       -13.9018
  15   1.0000      -0.357931        -9.7398
  16   0.0000       0.023199         0.6313
  17   0.0000       0.035241         0.9589
  18   0.0000       0.035710         0.9717
  19   0.0000       0.043064         1.1718
  20   0.0000       0.058008         1.5785

                 SPIN DOWN ORBITALS
  NO   OCC          E(Eh)            E(eV)
   0   1.0000     -20.580582      -560.0261
   1   1.0000     -11.315041      -307.8979
   2   1.0000     -11.258862      -306.3692
   3   1.0000     -11.231891      -305.6353
   4   1.0000      -1.414208       -38.4825
   5   1.0000      -1.059929       -28.8421
   6   1.0000      -0.894378       -24.3373
   7   1.0000      -0.728778       -19.8310
   8   1.0000      -0.643153       -17.5011
   9   1.0000      -0.636976       -17.3330
  10   1.0000      -0.566772       -15.4227
  11   1.0000      -0.554483       -15.0883
  12   1.0000      -0.534812       -14.5530
  13   1.0000      -0.511436       -13.9169
  14   1.0000      -0.492616       -13.4048
  15   0.0000       0.022605         0.6151
  16   0.0000       0.034708         0.9445
  17   0.0000       0.035350         0.9619
  18   0.0000       0.041459         1.1282
  19   0.0000       0.058079         1.5804

MULLIKEN ATOMIC CHARGES AND SPIN POPULATIONS
--------------------------------------------
   0 O :   -0.644722    0.166339
   1 C :    0.397345    0.787699
   2 C :   -0.372265    0.034806
   3 C :   -0.773591    0.050474
   4 H :    0.306442   -0.021234
   5 H :    0.306438   -0.021232
   6 H :    0.228353   -0.003061
   7 H :    0.323642    0.009269
   8 H :    0.228359   -0.003061
Sum of atomic charges         :   -0.0000000

LOEWDIN ATOMIC CHARGES AND SPIN POPULATIONS
-------------------------------------------
   0 O :    0.576819    0.263157
   1 C :   -0.327038    0.500827
   2 C :    0.397737    0.145587
   3 C :    0.879298    0.031176
   4 H :   -0.327427    0.022332
   5 H :   -0.327424    0.022332
   6 H :   -0.292933    0.003441
   7 H :   -0.286094    0.007707
   8 H :   -0.292938    0.003441

  Mayer bond orders larger than 0.100000
B(  0-O ,  1-C ) :   1.8058 B(  1-C ,  2-C ) :   0.8793 B(  2-C ,  3-C ) :   0.9611
B(  2-C ,  4-H ) :   0.8661 B(  2-C ,  5-H ) :   0.8661 B(  3-C ,  6-H ) :   0.9454
B(  3-C ,  7-H ) :   0.8941 B(  3-C ,  8-H ) :   0.9454

MP2 TOTAL ENERGY:     -192.184272666 Eh
FINAL SINGLE POINT ENERGY      -192.184272666128

DIPOLE MOMENT
-------------
                                X             Y             Z
Electronic contribution:     -5.34256       0.44324       0.00066
Nuclear contribution   :      6.39199       0.08152      -0.00087
                        -----------------------------------------
Total Dipole Moment    :      1.04942       0.52476      -0.00021
                        -----------------------------------------
Magnitude (a.u.)       :      1.17331
Magnitude (Debye)      :      2.98232

Rotational constants in cm-1:     0.625064     0.194299     0.156742
Rotational constants in MHz : 18738.933596  5824.928831  4699.005270

                             ****ORCA TERMINATED NORMALLY****
TOTAL RUN TIME: 0 days 0 hours 6 minutes 17 seconds 895 msec
