                         Program Version 4.2.1 -  RELEASE  -
|  1> %pal
|  2>  nprocs 32
|  3> end
|  4> !RI-MP2 aug-cc-pVQZ aug-cc-pVQZ/C TightSCF
|  5> %maxcore 4500
|  6> *xyzfile 0 2  04_2P1.xyz
|  7>
|  8>
|  9>                          ****END OF INPUT****

CARTESIAN COORDINATES (ANGSTROEM)
---------------------------------
  C     -0.211161   -0.536903   -0.045231
  C      1.082128    0.055976    0.001457
  O      1.287397    1.260417    0.025823
  N     -1.278236    0.288102   -0.109782
  H     -0.360532   -1.605536   -0.064086
  C     -2.639819   -0.157166    0.067032
  H     -3.323018    0.590062   -0.334784
  H     -2.884808   -0.326400    1.121404
  H     -2.796669   -1.088964   -0.478771
  H     -1.061566    1.273117   -0.027924
  O      2.096620   -0.847200    0.019004
  H      2.915217   -0.336174    0.054463

 Total Charge           Charge          ....    0
 Multiplicity           Mult            ....    2
 Number of Electrons    NEL             ....   47
 Basis Dimension        Dim             ....  756

ORBITAL ENERGIES
----------------
                 SPIN UP ORBITALS
  NO   OCC          E(Eh)            E(eV)
   0   1.0000     -20.595695      -560.4374
   1   1.0000     -20.533508      -558.7452
   2   1.0000     -15.594823      -424.3567
   3   1.0000     -11.366605      -309.3010
   4   1.0000     -11.274968      -306.8075
   5   1.0000     -11.272732      -306.7466
   6   1.0000      -1.449978       -39.4559
   7   1.0000      -1.349830       -36.7307
   8   1.0000      -1.268048       -34.5053
   9   1.0000      -1.026259       -27.9259
  10   1.0000      -0.919804       -25.0291
  11   1.0000      -0.810141       -22.0450
  12   1.0000      -0.730938       -19.8898
  13   1.0000      -0.698793       -19.0151
  14   1.0000      -0.655579       -17.8392
  15   1.0000      -0.645740       -17.5715
  16   1.0000      -0.625977       -17.0337
  17   1.0000      -0.619340       -16.8531
  18   1.0000      -0.572007       -15.5651
  19   1.0000      -0.559363       -15.2210
  20   1.0000      -0.513008       -13.9597
  21   1.0000      -0.485793       -13.2191
  22   1.0000      -0.455863       -12.4047
  23   1.0000      -0.301378        -8.2009
  24   0.0000       0.021926         0.5966
  25   0.0000       0.033040         0.8991
  26   0.0000       0.036130         0.9831
  27   0.0000       0.039129         1.0647
  28   0.0000       0.049925         1.3585

                 SPIN DOWN ORBITALS
  NO   OCC          E(Eh)            E(eV)
   0   1.0000     -20.594832      -560.4139
   1   1.0000     -20.524646      -558.5040
   2   1.0000     -15.583863      -424.0585
   3   1.0000     -11.369079      -309.3684
   4   1.0000     -11.273727      -306.7737
   5   1.0000     -11.260459      -306.4127
   6   1.0000      -1.443863       -39.2895
   7   1.0000      -1.334696       -36.3189
   8   1.0000      -1.239969       -33.7413
   9   1.0000      -0.996640       -27.1199
  10   1.0000      -0.904166       -24.6036
  11   1.0000      -0.796860       -21.6837
  12   1.0000      -0.725368       -19.7383
  13   1.0000      -0.691101       -18.8058
  14   1.0000      -0.635570       -17.2947
  15   1.0000      -0.619748       -16.8642
  16   1.0000      -0.616692       -16.7810
  17   1.0000      -0.602027       -16.3820
  18   1.0000      -0.566108       -15.4046
  19   1.0000      -0.556779       -15.1507
  20   1.0000      -0.459144       -12.4940
  21   1.0000      -0.445211       -12.1148
  22   1.0000      -0.401459       -10.9243
  23   0.0000       0.022029         0.5994
  24   0.0000       0.033165         0.9025
  25   0.0000       0.036147         0.9836
  26   0.0000       0.038512         1.0480
  27   0.0000       0.050091         1.3630

MULLIKEN ATOMIC CHARGES AND SPIN POPULATIONS
--------------------------------------------
   0 C :   -0.504824    0.736142
   1 C :    1.278799   -0.079150
   2 O :   -0.755898    0.197110
   3 N :   -0.415943    0.222055
   4 H :    0.316164   -0.063514
   5 C :   -0.736605   -0.043834
   6 H :    0.321747    0.003783
   7 H :    0.285505    0.021278
   8 H :    0.260233    0.008778
   9 H :    0.326969   -0.014977
  10 O :   -0.692509    0.017163
  11 H :    0.316363   -0.004833
Sum of atomic charges         :    0.0000000

LOEWDIN ATOMIC CHARGES AND SPIN POPULATIONS
-------------------------------------------
   0 C :    0.160329    0.320830
   1 C :   -1.086846    0.125952
   2 O :    0.685228    0.140513
   3 N :    0.804733    0.231700
   4 H :   -0.337180    0.095809
   5 C :    0.793865    0.024638
   6 H :   -0.292923    0.001907
   7 H :   -0.279736    0.007408
   8 H :   -0.301587    0.001035
   9 H :   -0.533840    0.030048
  10 O :    1.223112    0.022098
  11 H :   -0.835155   -0.001936

  Mayer bond orders larger than 0.100000
B(  0-C ,  1-C ) :   1.2629 B(  0-C ,  2-O ) :   0.1765 B(  0-C ,  3-N ) :   1.1303
B(  0-C ,  4-H ) :   0.9732 B(  0-C , 10-O ) :   0.1631 B(  1-C ,  2-O ) :   1.2998
B(  1-C , 10-O ) :   0.7466 B(  3-N ,  5-C ) :   0.8117 B(  3-N ,  9-H ) :   0.9082
B(  5-C ,  6-H ) :   0.9328 B(  5-C ,  7-H ) :   0.9245 B(  5-C ,  8-H ) :   0.9633
B( 10-O , 11-H ) :   0.9317

MP2 TOTAL ENERGY:     -322.650877662 Eh
FINAL SINGLE POINT ENERGY      -322.650877662462

DIPOLE MOMENT
-------------
                                X             Y             Z
Electronic contribution:      6.52277       0.96856      -0.19960
Nuclear contribution   :     -7.48108      -1.48878       0.27093
                        -----------------------------------------
Total Dipole Moment    :     -0.95830      -0.52022       0.07133
                        -----------------------------------------
Magnitude (a.u.)       :      1.09273
Magnitude (Debye)      :      2.77750

Rotational constants in cm-1:     0.339087     0.065715     0.055732
Rotational constants in MHz : 10165.570585  1970.081774  1670.788661

                             ****ORCA TERMINATED NORMALLY****
TOTAL RUN TIME: 0 days 0 hours 17 minutes 23 seconds 750 msec
