                         Program Version 4.2.1 -  RELEASE  -
|  1> %pal
|  2>  nprocs 32
|  3> end
|  4> !RI-MP2 aug-cc-pVQZ aug-cc-pVQZ/C TightSCF
|  5> %maxcore 4500
|  6> *xyzfile 0 1  06_10P.xyz
|  7>
|  8>
|  9>                          ****END OF INPUT****

CARTESIAN COORDINATES (ANGSTROEM)
---------------------------------
  C      1.312948   -0.681078   -0.801955
  C      2.531614    0.453038    1.187287
  C      2.587918   -1.493852   -1.105843
  H      2.452355   -2.493349   -0.676132
  H      2.682377   -1.645894   -2.186862
  H      2.524125    0.671858    2.260626
  H      0.452794   -1.262227   -1.145902
  C      3.791514   -0.380699    0.878725
  H      3.797177   -1.238454    1.561863
  H      4.690432    0.197742    1.120087
  B      1.237799   -0.285166    0.708441
  C     -1.309159   -0.715175    0.940032
  C     -2.334781    0.126352    0.841607
  H     -2.330331    1.103795    1.309559
  C     -0.027241   -0.431036    1.635545
  C     -3.537419   -0.244899    0.077431
  O     -3.717023   -1.283073   -0.510029
  O     -4.452224    0.743081    0.106542
  C     -5.662973    0.487397   -0.606464
  H     -6.273132    1.377882   -0.479589
  H     -5.454763    0.312216   -1.662057
  H     -6.169947   -0.386338   -0.196775
  C      2.462791    1.818599    0.445687
  H      1.619378    2.384340    0.859499
  H      3.358446    2.404551    0.678592
  C      1.235948    0.696876   -1.522456
  H      0.237417    1.113323   -1.344773
  H      1.307146    0.541500   -2.604179
  C      3.894586   -0.902039   -0.560594
  H      4.241797   -0.104815   -1.217039
  H      4.672845   -1.669786   -0.602004
  C      2.287585    1.724060   -1.077657
  H      2.000577    2.708193   -1.459592
  H      3.244445    1.498660   -1.546105
  H     -1.408569   -1.673409    0.436547
  H      0.232956   -1.276106    2.294110
  H     -0.112533    0.436816    2.297748

 Total Charge           Charge          ....    0
 Multiplicity           Mult            ....    1
 Number of Electrons    NEL             ....  120
 Basis Dimension        Dim             .... 2246

ORBITAL ENERGIES
----------------

  NO   OCC          E(Eh)            E(eV)
   0   2.0000     -20.592079      -560.3390
   1   2.0000     -20.525856      -558.5369
   2   2.0000     -11.367534      -309.3263
   3   2.0000     -11.276782      -306.8568
   4   2.0000     -11.256243      -306.2979
   5   2.0000     -11.225761      -305.4685
   6   2.0000     -11.224032      -305.4214
   7   2.0000     -11.222011      -305.3664
   8   2.0000     -11.218510      -305.2712
   9   2.0000     -11.217545      -305.2449
  10   2.0000     -11.216258      -305.2099
  11   2.0000     -11.215480      -305.1887
  12   2.0000     -11.213428      -305.1329
  13   2.0000     -11.196897      -304.6831
  14   2.0000     -11.195506      -304.6452
  15   2.0000      -7.579170      -206.2397
  16   2.0000      -1.452100       -39.5137
  17   2.0000      -1.347477       -36.6667
  18   2.0000      -1.119240       -30.4561
  19   2.0000      -1.093251       -29.7489
  20   2.0000      -1.044544       -28.4235
  21   2.0000      -1.029002       -28.0006
  22   2.0000      -0.997733       -27.1497
  23   2.0000      -0.949917       -25.8486
  24   2.0000      -0.924393       -25.1540
  25   2.0000      -0.916501       -24.9392
  26   2.0000      -0.816040       -22.2056
  27   2.0000      -0.795112       -21.6361
  28   2.0000      -0.785337       -21.3701
  29   2.0000      -0.751519       -20.4499
  30   2.0000      -0.744485       -20.2585
  31   2.0000      -0.709461       -19.3054
  32   2.0000      -0.673503       -18.3270
  33   2.0000      -0.668087       -18.1796
  34   2.0000      -0.664404       -18.0793
  35   2.0000      -0.646050       -17.5799
  36   2.0000      -0.607326       -16.5262
  37   2.0000      -0.601079       -16.3562
  38   2.0000      -0.595709       -16.2101
  39   2.0000      -0.583504       -15.8780
  40   2.0000      -0.579826       -15.7779
  41   2.0000      -0.568304       -15.4643
  42   2.0000      -0.563099       -15.3227
  43   2.0000      -0.552238       -15.0272
  44   2.0000      -0.546077       -14.8595
  45   2.0000      -0.543762       -14.7965
  46   2.0000      -0.522391       -14.2150
  47   2.0000      -0.515897       -14.0383
  48   2.0000      -0.505089       -13.7442
  49   2.0000      -0.485571       -13.2131
  50   2.0000      -0.481659       -13.1066
  51   2.0000      -0.476304       -12.9609
  52   2.0000      -0.471618       -12.8334
  53   2.0000      -0.459643       -12.5075
  54   2.0000      -0.455718       -12.4007
  55   2.0000      -0.442252       -12.0343
  56   2.0000      -0.424528       -11.5520
  57   2.0000      -0.409609       -11.1460
  58   2.0000      -0.388469       -10.5708
  59   2.0000      -0.361965        -9.8496
  60   0.0000       0.018642         0.5073
  61   0.0000       0.025587         0.6963
  62   0.0000       0.027320         0.7434
  63   0.0000       0.028603         0.7783
  64   0.0000       0.034527         0.9395

MULLIKEN ATOMIC CHARGES
-----------------------
   0 C :   -0.046383
   1 C :    0.087205
   2 C :   -0.728456
   3 H :    0.085203
   4 H :    0.165024
   5 H :    0.323652
   6 H :    0.464643
   7 C :   -0.687239
   8 H :    0.108275
   9 H :    0.160739
  10 B :    0.845800
  11 C :    0.012328
  12 C :   -1.064669
  13 H :    0.231907
  14 C :   -0.730886
  15 C :    1.679744
  16 O :   -0.889580
  17 O :   -0.817221
  18 C :   -0.771677
  19 H :    0.441874
  20 H :    0.323640
  21 H :    0.333746
  22 C :   -0.592871
  23 H :    0.146280
  24 H :    0.200758
  25 C :   -0.552612
  26 H :    0.213257
  27 H :    0.182544
  28 C :   -0.367491
  29 H :    0.147727
  30 H :    0.228925
  31 C :   -0.454982
  32 H :    0.217880
  33 H :    0.219246
  34 H :    0.350803
  35 H :    0.316188
  36 H :    0.216679
Sum of atomic charges:   -0.0000000

LOEWDIN ATOMIC CHARGES
----------------------
   0 C :    0.325865
   1 C :    0.318926
   2 C :    0.576037
   3 H :   -0.252046
   4 H :   -0.249024
   5 H :   -0.268908
   6 H :   -0.282060
   7 C :    0.571305
   8 H :   -0.252857
   9 H :   -0.249865
  10 B :   -0.642852
  11 C :    0.363453
  12 C :    0.327445
  13 H :   -0.348023
  14 C :    0.701768
  15 C :   -1.122559
  16 O :    0.709021
  17 O :    0.830319
  18 C :    0.564389
  19 H :   -0.325742
  20 H :   -0.318620
  21 H :   -0.317929
  22 C :    0.576734
  23 H :   -0.249861
  24 H :   -0.243915
  25 C :    0.579825
  26 H :   -0.250120
  27 H :   -0.241146
  28 C :    0.568999
  29 H :   -0.305557
  30 H :   -0.253466
  31 C :    0.582355
  32 H :   -0.249876
  33 H :   -0.304460
  34 H :   -0.318436
  35 H :   -0.260177
  36 H :   -0.288941

  Mayer bond orders larger than 0.100000
B(  0-C ,  2-C ) :   0.4172 B(  0-C ,  3-H ) :  -0.2091 B(  0-C ,  6-H ) :   0.7246
B(  0-C , 10-B ) :   0.9530 B(  0-C , 25-C ) :   0.7242 B(  1-C ,  5-H ) :   0.8813
B(  1-C ,  7-C ) :   0.4887 B(  1-C ,  8-H ) :  -0.1659 B(  1-C , 10-B ) :   0.9334
B(  1-C , 22-C ) :   0.6667 B(  1-C , 23-H ) :  -0.1251 B(  1-C , 28-C ) :  -0.1095
B(  2-C ,  3-H ) :   1.2673 B(  2-C ,  4-H ) :   1.1072 B(  2-C ,  6-H ) :  -0.1365
B(  2-C , 28-C ) :   0.8281 B(  7-C ,  8-H ) :   1.2057 B(  7-C ,  9-H ) :   1.0919
B(  7-C , 28-C ) :   0.8427 B( 10-B , 11-C ) :  -0.1421 B( 10-B , 14-C ) :   0.7255
B( 11-C , 12-C ) :   1.2556 B( 11-C , 14-C ) :   1.1684 B( 11-C , 15-C ) :  -0.3512
B( 11-C , 34-H ) :   0.8034 B( 12-C , 13-H ) :   0.9865 B( 12-C , 14-C ) :  -0.2371
B( 12-C , 15-C ) :   1.2385 B( 12-C , 16-O ) :   0.2118 B( 14-C , 35-H ) :   0.8827
B( 14-C , 36-H ) :   1.0114 B( 15-C , 16-O ) :   1.0026 B( 15-C , 17-O ) :   0.7551
B( 15-C , 18-C ) :  -0.1618 B( 16-O , 17-O ) :   0.1446 B( 17-O , 18-C ) :   0.8908
B( 18-C , 19-H ) :   0.8196 B( 18-C , 20-H ) :   0.9040 B( 18-C , 21-H ) :   0.8900
B( 22-C , 23-H ) :   1.1438 B( 22-C , 24-H ) :   1.0088 B( 22-C , 31-C ) :   0.8594
B( 25-C , 26-H ) :   1.0725 B( 25-C , 27-H ) :   1.0280 B( 25-C , 31-C ) :   0.8010
B( 28-C , 29-H ) :   1.1016 B( 28-C , 30-H ) :   0.9900 B( 31-C , 32-H ) :   0.9862
B( 31-C , 33-H ) :   1.0702

MP2 TOTAL ENERGY:     -682.142196067 Eh
FINAL SINGLE POINT ENERGY      -682.142196066732

DIPOLE MOMENT
-------------
                                X             Y             Z
Electronic contribution:    -14.37363      -2.76708       3.28198
Nuclear contribution   :     14.98792       3.29861      -2.94828
                        -----------------------------------------
Total Dipole Moment    :      0.61429       0.53153       0.33370
                        -----------------------------------------
Magnitude (a.u.)       :      0.87819
Magnitude (Debye)      :      2.23219

Rotational constants in cm-1:     0.039075     0.007283     0.007244
Rotational constants in MHz :  1171.447975   218.344593   217.161797

                             ****ORCA TERMINATED NORMALLY****
TOTAL RUN TIME: 0 days 5 hours 20 minutes 1 seconds 282 msec
