                         Program Version 4.2.1 -  RELEASE  -
|  1> %pal
|  2>  nprocs 32
|  3> end
|  4> !RI-MP2 aug-cc-pVQZ aug-cc-pVQZ/C TightSCF
|  5> %maxcore 4500
|  6> *xyzfile 0 2  01_3R.xyz
|  7>
|  8>
|  9>                          ****END OF INPUT****

CARTESIAN COORDINATES (ANGSTROEM)
---------------------------------
  C     -2.458829   -0.162747   -0.137240
  C     -1.121887    0.482729   -0.146767
  C      0.009691   -0.451075    0.299589
  C      1.337048    0.239097    0.359653
  C      2.404733   -0.098974   -0.348696
  H     -3.279311    0.247035   -0.711634
  H     -2.670794   -0.985949    0.534423
  H     -1.128033    1.365856    0.513414
  H     -0.898241    0.877095   -1.144117
  H      0.067078   -1.307954   -0.377047
  H     -0.238141   -0.846439    1.291797
  H      3.338164    0.444476   -0.265420
  H      2.383350   -0.937105   -1.037946
  H      1.401393    1.088808    1.037300

 Total Charge           Charge          ....    0
 Multiplicity           Mult            ....    2
 Number of Electrons    NEL             ....   39
 Basis Dimension        Dim             ....  814

ORBITAL ENERGIES
----------------
                 SPIN UP ORBITALS
  NO   OCC          E(Eh)            E(eV)
   0   1.0000     -11.230058      -305.5854
   1   1.0000     -11.228619      -305.5463
   2   1.0000     -11.225455      -305.4602
   3   1.0000     -11.224526      -305.4349
   4   1.0000     -11.217132      -305.2337
   5   1.0000      -1.094142       -29.7731
   6   1.0000      -1.029875       -28.0243
   7   1.0000      -0.924990       -25.1703
   8   1.0000      -0.811626       -22.0855
   9   1.0000      -0.758214       -20.6320
  10   1.0000      -0.653593       -17.7852
  11   1.0000      -0.613594       -16.6968
  12   1.0000      -0.599426       -16.3112
  13   1.0000      -0.578193       -15.7334
  14   1.0000      -0.540928       -14.7194
  15   1.0000      -0.499325       -13.5873
  16   1.0000      -0.496239       -13.5034
  17   1.0000      -0.480308       -13.0698
  18   1.0000      -0.364652        -9.9227
  19   1.0000      -0.347684        -9.4610
  20   0.0000       0.027575         0.7504
  21   0.0000       0.030844         0.8393
  22   0.0000       0.034918         0.9502
  23   0.0000       0.035619         0.9692
  24   0.0000       0.047053         1.2804

                 SPIN DOWN ORBITALS
  NO   OCC          E(Eh)            E(eV)
   0   1.0000     -11.230172      -305.5885
   1   1.0000     -11.227830      -305.5248
   2   1.0000     -11.224729      -305.4404
   3   1.0000     -11.217066      -305.2319
   4   1.0000     -11.205081      -304.9058
   5   1.0000      -1.088249       -29.6128
   6   1.0000      -1.011844       -27.5337
   7   1.0000      -0.894490       -24.3403
   8   1.0000      -0.776450       -21.1283
   9   1.0000      -0.757345       -20.6084
  10   1.0000      -0.650318       -17.6960
  11   1.0000      -0.605202       -16.4684
  12   1.0000      -0.589829       -16.0501
  13   1.0000      -0.569839       -15.5061
  14   1.0000      -0.530168       -14.4266
  15   1.0000      -0.492546       -13.4029
  16   1.0000      -0.487551       -13.2669
  17   1.0000      -0.476759       -12.9733
  18   1.0000      -0.361568        -9.8388
  19   0.0000       0.027911         0.7595
  20   0.0000       0.031094         0.8461
  21   0.0000       0.034655         0.9430
  22   0.0000       0.035714         0.9718
  23   0.0000       0.046929         1.2770

MULLIKEN ATOMIC CHARGES AND SPIN POPULATIONS
--------------------------------------------
   0 C :   -0.919658    1.223890
   1 C :   -0.306816   -0.205743
   2 C :   -0.230770    0.036261
   3 C :   -0.488197   -0.006905
   4 C :   -0.896628    0.004416
   5 H :    0.363566   -0.069666
   6 H :    0.340830   -0.070858
   7 H :    0.220713    0.075037
   8 H :    0.256487    0.025612
   9 H :    0.308936   -0.009702
  10 H :    0.255605   -0.002253
  11 H :    0.357724   -0.000262
  12 H :    0.306073    0.000202
  13 H :    0.432135   -0.000028
Sum of atomic charges         :    0.0000000

LOEWDIN ATOMIC CHARGES AND SPIN POPULATIONS
-------------------------------------------
   0 C :    0.860733    0.467410
   1 C :    0.440209    0.149797
   2 C :    0.438927    0.015140
   3 C :    0.350023    0.001641
   4 C :    0.795556    0.001116
   5 H :   -0.337738    0.152866
   6 H :   -0.340685    0.155242
   7 H :   -0.291315    0.032901
   8 H :   -0.294305    0.016167
   9 H :   -0.302941    0.006325
  10 H :   -0.285555    0.000133
  11 H :   -0.357581    0.000496
  12 H :   -0.353511    0.000436
  13 H :   -0.321816    0.000330

  Mayer bond orders larger than 0.100000
B(  0-C ,  1-C ) :   0.9341 B(  0-C ,  5-H ) :   0.8935 B(  0-C ,  6-H ) :   0.9092
B(  1-C ,  2-C ) :   0.9309 B(  1-C ,  7-H ) :   0.8623 B(  1-C ,  8-H ) :   0.9036
B(  2-C ,  3-C ) :   0.9162 B(  2-C ,  4-C ) :  -0.1459 B(  2-C ,  9-H ) :   0.8770
B(  2-C , 10-H ) :   0.8500 B(  3-C ,  4-C ) :   1.8757 B(  3-C , 13-H ) :   0.7847
B(  4-C , 11-H ) :   0.9462 B(  4-C , 12-H ) :   0.9280

MP2 TOTAL ENERGY:     -195.467453348 Eh
FINAL SINGLE POINT ENERGY      -195.467453347866

DIPOLE MOMENT
-------------
                                X             Y             Z
Electronic contribution:      0.98887       0.11082       0.22307
Nuclear contribution   :     -1.08557      -0.05741      -0.16872
                        -----------------------------------------
Total Dipole Moment    :     -0.09670       0.05342       0.05436
                        -----------------------------------------
Magnitude (a.u.)       :      0.12312
Magnitude (Debye)      :      0.31294

Rotational constants in cm-1:     0.653116     0.073690     0.072474
Rotational constants in MHz : 19579.928496  2209.162637  2172.708735

                             ****ORCA TERMINATED NORMALLY****
TOTAL RUN TIME: 0 days 0 hours 13 minutes 6 seconds 505 msec
