                         Program Version 4.2.1 -  RELEASE  -
|  1> %pal
|  2>  nprocs 32
|  3> end
|  4> !RI-MP2 aug-cc-pVQZ aug-cc-pVQZ/C TightSCF
|  5> %maxcore 4500
|  6> *xyzfile 0 1  06_5TS.xyz
|  7>
|  8>
|  9>                          ****END OF INPUT****

CARTESIAN COORDINATES (ANGSTROEM)
---------------------------------
  C     -3.379036    1.443455   -0.355572
  C     -2.208331    0.717348   -0.484397
  C     -2.168254   -0.622335   -0.093495
  C     -3.313915   -1.211878    0.435420
  C     -4.488861   -0.484025    0.555869
  C     -4.522990    0.844427    0.160599
  H     -3.399241    2.483728   -0.655453
  H     -1.320287    1.204618   -0.870725
  H     -3.286833   -2.249252    0.749288
  H     -5.374834   -0.954660    0.963432
  H     -5.436795    1.417200    0.259340
  C     -0.958127   -1.449403   -0.241622
  C      0.144624   -1.138828   -1.075207
  C      0.525038   -0.783440    0.405319
  H     -1.040973   -2.464953    0.124215
  H      0.096158   -0.273703   -1.722673
  H      0.773994   -1.940261   -1.438401
  H      0.074897    0.054542    0.916919
  H      0.890633   -1.578797    1.038969
  B      2.123351    0.136040    0.119655
  Cl     2.654863    0.475824    1.830402
  Cl     1.710213    1.659005   -0.811531
  Cl     3.259961   -0.974275   -0.772087

 Total Charge           Charge          ....    0
 Multiplicity           Mult            ....    1
 Number of Electrons    NEL             ....  120
 Basis Dimension        Dim             .... 1512

ORBITAL ENERGIES
----------------

  NO   OCC          E(Eh)            E(eV)
   0   2.0000    -104.801338     -2851.7894
   1   2.0000    -104.799760     -2851.7465
   2   2.0000    -104.796821     -2851.6665
   3   2.0000     -11.332954      -308.3854
   4   2.0000     -11.297391      -307.4176
   5   2.0000     -11.279355      -306.9269
   6   2.0000     -11.271513      -306.7134
   7   2.0000     -11.268463      -306.6305
   8   2.0000     -11.264256      -306.5160
   9   2.0000     -11.262912      -306.4794
  10   2.0000     -11.261189      -306.4325
  11   2.0000     -11.260416      -306.4115
  12   2.0000     -10.529182      -286.5136
  13   2.0000     -10.527587      -286.4702
  14   2.0000     -10.524551      -286.3876
  15   2.0000      -7.996007      -217.5824
  16   2.0000      -7.994945      -217.5535
  17   2.0000      -7.994889      -217.5520
  18   2.0000      -7.994421      -217.5392
  19   2.0000      -7.993328      -217.5095
  20   2.0000      -7.993276      -217.5081
  21   2.0000      -7.991381      -217.4565
  22   2.0000      -7.990251      -217.4258
  23   2.0000      -7.990203      -217.4245
  24   2.0000      -7.728291      -210.2975
  25   2.0000      -1.216552       -33.1041
  26   2.0000      -1.173060       -31.9206
  27   2.0000      -1.115231       -30.3470
  28   2.0000      -1.058517       -28.8037
  29   2.0000      -1.057488       -28.7757
  30   2.0000      -1.055070       -28.7099
  31   2.0000      -1.048333       -28.5266
  32   2.0000      -0.920692       -25.0533
  33   2.0000      -0.894397       -24.3378
  34   2.0000      -0.862678       -23.4747
  35   2.0000      -0.821049       -22.3419
  36   2.0000      -0.749985       -20.4081
  37   2.0000      -0.716029       -19.4841
  38   2.0000      -0.684074       -18.6146
  39   2.0000      -0.658090       -17.9075
  40   2.0000      -0.649804       -17.6821
  41   2.0000      -0.638385       -17.3713
  42   2.0000      -0.618082       -16.8189
  43   2.0000      -0.601240       -16.3606
  44   2.0000      -0.581256       -15.8168
  45   2.0000      -0.572703       -15.5840
  46   2.0000      -0.545705       -14.8494
  47   2.0000      -0.534718       -14.5504
  48   2.0000      -0.531120       -14.4525
  49   2.0000      -0.525504       -14.2997
  50   2.0000      -0.519107       -14.1256
  51   2.0000      -0.503070       -13.6892
  52   2.0000      -0.449457       -12.2304
  53   2.0000      -0.448285       -12.1985
  54   2.0000      -0.424174       -11.5424
  55   2.0000      -0.422552       -11.4982
  56   2.0000      -0.418514       -11.3883
  57   2.0000      -0.407459       -11.0875
  58   2.0000      -0.368845       -10.0368
  59   2.0000      -0.349157        -9.5010
  60   0.0000       0.011925         0.3245
  61   0.0000       0.019220         0.5230
  62   0.0000       0.025172         0.6850
  63   0.0000       0.031187         0.8486
  64   0.0000       0.035312         0.9609

MULLIKEN ATOMIC CHARGES
-----------------------
   0 C :   -0.415531
   1 C :   -0.386305
   2 C :    0.602185
   3 C :   -0.631880
   4 C :   -0.310678
   5 C :   -0.379907
   6 H :    0.239670
   7 H :    0.322823
   8 H :    0.228478
   9 H :    0.241455
  10 H :    0.339853
  11 C :   -0.255397
  12 C :   -0.397974
  13 C :   -0.254509
  14 H :    0.308998
  15 H :    0.319136
  16 H :    0.327942
  17 H :    0.423466
  18 H :    0.281324
  19 B :    0.884770
  20 Cl:   -0.478148
  21 Cl:   -0.517014
  22 Cl:   -0.492756
Sum of atomic charges:    0.0000000

LOEWDIN ATOMIC CHARGES
----------------------
   0 C :    0.373504
   1 C :    0.355017
   2 C :   -0.039564
   3 C :    0.358964
   4 C :    0.360400
   5 C :    0.354657
   6 H :   -0.310654
   7 H :   -0.342637
   8 H :   -0.309869
   9 H :   -0.315228
  10 H :   -0.314382
  11 C :    0.292600
  12 C :    0.523088
  13 C :    0.363778
  14 H :   -0.258705
  15 H :   -0.332826
  16 H :   -0.284930
  17 H :   -0.375028
  18 H :   -0.303690
  19 B :   -3.317945
  20 Cl:    1.162567
  21 Cl:    1.185864
  22 Cl:    1.175023

  Mayer bond orders larger than 0.100000
B(  0-C ,  1-C ) :   1.1684 B(  0-C ,  2-C ) :  -0.4274 B(  0-C ,  3-C ) :   0.1253
B(  0-C ,  5-C ) :   1.2366 B(  0-C ,  6-H ) :   1.1256 B(  0-C , 10-H ) :  -0.1088
B(  1-C ,  2-C ) :   1.1779 B(  1-C ,  4-C ) :   0.1144 B(  1-C ,  6-H ) :  -0.1164
B(  1-C ,  7-H ) :   0.8773 B(  1-C , 11-C ) :  -0.2567 B(  1-C , 12-C ) :  -0.1199
B(  2-C ,  3-C ) :   0.8082 B(  2-C ,  4-C ) :  -0.4436 B(  2-C ,  8-H ) :  -0.1221
B(  2-C , 11-C ) :   0.5354 B(  2-C , 13-C ) :  -0.1634 B(  2-C , 14-H ) :  -0.1302
B(  3-C ,  4-C ) :   1.3520 B(  3-C ,  5-C ) :   0.1588 B(  3-C ,  8-H ) :   1.0574
B(  3-C ,  9-H ) :  -0.1729 B(  3-C , 11-C ) :  -0.3109 B(  4-C ,  5-C ) :   1.1417
B(  4-C ,  9-H ) :   1.1658 B(  5-C ,  9-H ) :  -0.1199 B(  5-C , 10-H ) :   1.0015
B( 11-C , 12-C ) :   1.1017 B( 11-C , 13-C ) :   0.5428 B( 11-C , 14-H ) :   1.0387
B( 11-C , 16-H ) :  -0.1201 B( 12-C , 13-C ) :   0.7325 B( 12-C , 15-H ) :   0.9052
B( 12-C , 16-H ) :   0.9158 B( 13-C , 17-H ) :   0.8060 B( 13-C , 18-H ) :   0.9510
B( 13-C , 19-B ) :   0.3894 B( 13-C , 21-Cl) :  -0.1081 B( 13-C , 22-Cl) :  -0.1245
B( 19-B , 20-Cl) :   0.7463 B( 19-B , 21-Cl) :   0.6843 B( 19-B , 22-Cl) :   0.6910

MP2 TOTAL ENERGY:    -1752.395963556 Eh
FINAL SINGLE POINT ENERGY     -1752.395963556271

DIPOLE MOMENT
-------------
                                X             Y             Z
Electronic contribution:     26.24252       4.60734       0.80847
Nuclear contribution   :    -29.34375      -5.81407      -1.03858
                        -----------------------------------------
Total Dipole Moment    :     -3.10124      -1.20673      -0.23011
                        -----------------------------------------
Magnitude (a.u.)       :      3.33569
Magnitude (Debye)      :      8.47864

Rotational constants in cm-1:     0.035044     0.008655     0.008312
Rotational constants in MHz :  1050.599282   259.485071   249.189414

                             ****ORCA TERMINATED NORMALLY****
TOTAL RUN TIME: 0 days 1 hours 47 minutes 5 seconds 455 msec
