                         Program Version 4.2.1 -  RELEASE  -
|  1> %pal
|  2>  nprocs 32
|  3> end
|  4> !RI-MP2 aug-cc-pVQZ aug-cc-pVQZ/C TightSCF
|  5> %maxcore 4500
|  6> *xyzfile 0 2  04_42TS.xyz
|  7>
|  8>
|  9>                          ****END OF INPUT****

CARTESIAN COORDINATES (ANGSTROEM)
---------------------------------
  N     -0.319081   -0.375176   -0.487895
  S      0.973748   -1.414794   -0.562597
  O      1.567574   -1.420615    0.945578
  C      2.435103   -0.339880    1.362612
  C      1.644671    0.887453    1.792896
  H      2.979721   -0.759034    2.206009
  H      3.138282   -0.125310    0.558042
  C      0.914578    1.614512    0.684024
  H      2.355370    1.581601    2.259347
  H      0.944752    0.590612    2.578241
  C      1.740349    2.307911   -0.373681
  H      0.102114    2.239560    1.060861
  C     -1.388857   -0.797332    0.395217
  H     -1.666860   -1.828439    0.163968
  C     -2.600692    0.074502    0.164781
  F     -3.067234   -0.011339   -1.081504
  F     -3.588061   -0.288177    1.000892
  F     -2.330329    1.372509    0.406224
  O      1.951396   -0.802854   -1.424530
  O      0.475713   -2.745914   -0.770825
  C      0.888524    2.889049   -1.496481
  H      2.308874    3.108015    0.120231
  H      2.473231    1.615342   -0.793018
  H      0.354892    2.096341   -2.023882
  H      1.507724    3.417399   -2.222691
  H      0.148722    3.593627   -1.108289
  H      0.247308    0.758961    0.051953
  H     -1.129427   -0.744915    1.457543

 Total Charge           Charge          ....    0
 Multiplicity           Mult            ....    2
 Number of Electrons    NEL             ....  129
 Basis Dimension        Dim             .... 1802

ORBITAL ENERGIES
----------------
                 SPIN UP ORBITALS
  NO   OCC          E(Eh)            E(eV)
   0   1.0000     -92.240635     -2509.9953
   1   1.0000     -26.345967      -716.9102
   2   1.0000     -26.345564      -716.8992
   3   1.0000     -26.343617      -716.8463
   4   1.0000     -20.628597      -561.3327
   5   1.0000     -20.572581      -559.8084
   6   1.0000     -20.570283      -559.7459
   7   1.0000     -15.647742      -425.7967
   8   1.0000     -11.517459      -313.4060
   9   1.0000     -11.318769      -307.9994
  10   1.0000     -11.315996      -307.9239
  11   1.0000     -11.272897      -306.7511
  12   1.0000     -11.260778      -306.4213
  13   1.0000     -11.237764      -305.7951
  14   1.0000     -11.219965      -305.3108
  15   1.0000      -9.200962      -250.3709
  16   1.0000      -6.887745      -187.4251
  17   1.0000      -6.886384      -187.3880
  18   1.0000      -6.885885      -187.3745
  19   1.0000      -1.738758       -47.3140
  20   1.0000      -1.643580       -44.7241
  21   1.0000      -1.642978       -44.7077
  22   1.0000      -1.521429       -41.4002
  23   1.0000      -1.401062       -38.1248
  24   1.0000      -1.373359       -37.3710
  25   1.0000      -1.282907       -34.9097
  26   1.0000      -1.129199       -30.7271
  27   1.0000      -1.067703       -29.0537
  28   1.0000      -1.045204       -28.4415
  29   1.0000      -0.967780       -26.3346
  30   1.0000      -0.935337       -25.4518
  31   1.0000      -0.891229       -24.2516
  32   1.0000      -0.850781       -23.1509
  33   1.0000      -0.836315       -22.7573
  34   1.0000      -0.833518       -22.6812
  35   1.0000      -0.816479       -22.2175
  36   1.0000      -0.785188       -21.3661
  37   1.0000      -0.768923       -20.9235
  38   1.0000      -0.739383       -20.1196
  39   1.0000      -0.724486       -19.7143
  40   1.0000      -0.716623       -19.5003
  41   1.0000      -0.706747       -19.2316
  42   1.0000      -0.693525       -18.8718
  43   1.0000      -0.675862       -18.3911
  44   1.0000      -0.673490       -18.3266
  45   1.0000      -0.666737       -18.1428
  46   1.0000      -0.658583       -17.9209
  47   1.0000      -0.648111       -17.6360
  48   1.0000      -0.636128       -17.3099
  49   1.0000      -0.627096       -17.0641
  50   1.0000      -0.602319       -16.3899
  51   1.0000      -0.598822       -16.2948
  52   1.0000      -0.584347       -15.9009
  53   1.0000      -0.566517       -15.4157
  54   1.0000      -0.557377       -15.1670
  55   1.0000      -0.543080       -14.7780
  56   1.0000      -0.532685       -14.4951
  57   1.0000      -0.522698       -14.2233
  58   1.0000      -0.512242       -13.9388
  59   1.0000      -0.509885       -13.8747
  60   1.0000      -0.506021       -13.7695
  61   1.0000      -0.491546       -13.3757
  62   1.0000      -0.488156       -13.2834
  63   1.0000      -0.476013       -12.9530
  64   1.0000      -0.410829       -11.1792
  65   0.0000       0.014825         0.4034
  66   0.0000       0.025343         0.6896
  67   0.0000       0.027942         0.7603
  68   0.0000       0.032444         0.8828
  69   0.0000       0.041804         1.1375

                 SPIN DOWN ORBITALS
  NO   OCC          E(Eh)            E(eV)
   0   1.0000     -92.241054     -2510.0067
   1   1.0000     -26.346030      -716.9119
   2   1.0000     -26.345594      -716.9001
   3   1.0000     -26.343621      -716.8464
   4   1.0000     -20.628798      -561.3381
   5   1.0000     -20.570941      -559.7638
   6   1.0000     -20.570590      -559.7542
   7   1.0000     -15.622232      -425.1025
   8   1.0000     -11.517405      -313.4045
   9   1.0000     -11.318433      -307.9902
  10   1.0000     -11.317571      -307.9668
  11   1.0000     -11.261935      -306.4528
  12   1.0000     -11.258624      -306.3627
  13   1.0000     -11.238728      -305.8213
  14   1.0000     -11.219811      -305.3066
  15   1.0000      -9.201538      -250.3866
  16   1.0000      -6.888147      -187.4360
  17   1.0000      -6.887497      -187.4183
  18   1.0000      -6.886256      -187.3845
  19   1.0000      -1.738821       -47.3157
  20   1.0000      -1.643701       -44.7274
  21   1.0000      -1.643039       -44.7094
  22   1.0000      -1.518930       -41.3322
  23   1.0000      -1.400398       -38.1068
  24   1.0000      -1.371725       -37.3265
  25   1.0000      -1.228148       -33.4196
  26   1.0000      -1.111623       -30.2488
  27   1.0000      -1.060205       -28.8497
  28   1.0000      -1.041286       -28.3348
  29   1.0000      -0.955877       -26.0107
  30   1.0000      -0.931062       -25.3355
  31   1.0000      -0.880794       -23.9676
  32   1.0000      -0.843888       -22.9633
  33   1.0000      -0.835621       -22.7384
  34   1.0000      -0.827295       -22.5118
  35   1.0000      -0.806668       -21.9505
  36   1.0000      -0.776207       -21.1217
  37   1.0000      -0.748460       -20.3666
  38   1.0000      -0.728710       -19.8292
  39   1.0000      -0.723076       -19.6759
  40   1.0000      -0.714221       -19.4349
  41   1.0000      -0.696088       -18.9415
  42   1.0000      -0.681397       -18.5418
  43   1.0000      -0.672191       -18.2912
  44   1.0000      -0.664613       -18.0850
  45   1.0000      -0.658869       -17.9287
  46   1.0000      -0.657613       -17.8946
  47   1.0000      -0.641522       -17.4567
  48   1.0000      -0.626656       -17.0522
  49   1.0000      -0.620787       -16.8925
  50   1.0000      -0.597179       -16.2501
  51   1.0000      -0.594171       -16.1682
  52   1.0000      -0.568663       -15.4741
  53   1.0000      -0.563728       -15.3398
  54   1.0000      -0.547363       -14.8945
  55   1.0000      -0.534638       -14.5482
  56   1.0000      -0.518970       -14.1219
  57   1.0000      -0.511470       -13.9178
  58   1.0000      -0.509818       -13.8729
  59   1.0000      -0.502609       -13.6767
  60   1.0000      -0.490336       -13.3427
  61   1.0000      -0.486807       -13.2467
  62   1.0000      -0.484375       -13.1805
  63   1.0000      -0.441141       -12.0041
  64   0.0000       0.013518         0.3678
  65   0.0000       0.022268         0.6059
  66   0.0000       0.025462         0.6929
  67   0.0000       0.030006         0.8165
  68   0.0000       0.032486         0.8840

MULLIKEN ATOMIC CHARGES AND SPIN POPULATIONS
--------------------------------------------
   0 N :   -0.542715    0.766370
   1 S :    3.290409   -0.051025
   2 O :   -0.995245   -0.000650
   3 C :   -0.286523    0.008185
   4 C :   -0.682408   -0.060816
   5 H :    0.400385   -0.002205
   6 H :    0.261688   -0.003018
   7 C :    0.240891    0.595710
   8 H :    0.226474    0.046158
   9 H :    0.163254   -0.001849
  10 C :   -0.597639   -0.051529
  11 H :    0.406524   -0.024095
  12 C :   -0.791345   -0.046092
  13 H :    0.407577    0.038263
  14 C :    2.110253    0.002010
  15 F :   -0.669068   -0.000016
  16 F :   -0.690943   -0.000762
  17 F :   -0.706291    0.000521
  18 O :   -1.344416   -0.005004
  19 O :   -1.454972    0.032135
  20 C :   -0.917650    0.006731
  21 H :    0.215233    0.046747
  22 H :    0.228341    0.002212
  23 H :    0.239500    0.000829
  24 H :    0.316679   -0.002322
  25 H :    0.196573   -0.000510
  26 H :    0.698606   -0.313457
  27 H :    0.276829    0.017478
Sum of atomic charges         :   -0.0000000

LOEWDIN ATOMIC CHARGES AND SPIN POPULATIONS
-------------------------------------------
   0 N :    0.561606    0.395677
   1 S :   -0.654905    0.042198
   2 O :    0.665872   -0.005006
   3 C :    0.165241    0.000179
   4 C :    0.544837    0.040924
   5 H :   -0.302461    0.000311
   6 H :   -0.352072    0.000353
   7 C :    0.445948    0.200498
   8 H :   -0.261998    0.012124
   9 H :   -0.272378    0.001701
  10 C :    0.523016    0.045462
  11 H :   -0.244579    0.051841
  12 C :    0.150829    0.061741
  13 H :   -0.345198    0.014269
  14 C :   -2.132818   -0.000941
  15 F :    0.788904   -0.000346
  16 F :    0.775687   -0.000672
  17 F :    0.782924   -0.001211
  18 O :    0.369856   -0.007385
  19 O :    0.327282    0.026153
  20 C :    0.941812    0.000314
  21 H :   -0.256103    0.014822
  22 H :   -0.317136    0.002479
  23 H :   -0.284848   -0.001270
  24 H :   -0.272690   -0.000046
  25 H :   -0.275346   -0.000205
  26 H :   -0.768049    0.103583
  27 H :   -0.303236    0.002452

  Mayer bond orders larger than 0.100000
B(  0-N ,  1-S ) :   0.9688 B(  0-N , 12-C ) :   0.8416 B(  0-N , 18-O ) :  -0.1208
B(  1-S ,  2-O ) :   0.5460 B(  1-S , 18-O ) :   1.0003 B(  1-S , 19-O ) :   0.6904
B(  2-O ,  3-C ) :   0.6441 B(  3-C ,  4-C ) :   0.9757 B(  3-C ,  5-H ) :   0.8366
B(  3-C ,  6-H ) :   1.0061 B(  3-C ,  7-C ) :  -0.1049 B(  4-C ,  7-C ) :   0.6545
B(  4-C ,  8-H ) :   0.9999 B(  4-C ,  9-H ) :   1.0614 B(  4-C , 26-H ) :  -0.1047
B(  7-C , 10-C ) :   0.7647 B(  7-C , 11-H ) :   0.7832 B(  7-C , 20-C ) :  -0.1839
B(  7-C , 26-H ) :   0.3927 B( 10-C , 20-C ) :   1.0822 B( 10-C , 21-H ) :   0.9384
B( 10-C , 22-H ) :   0.9270 B( 10-C , 26-H ) :  -0.1524 B( 12-C , 13-H ) :   0.8264
B( 12-C , 14-C ) :   1.0668 B( 12-C , 26-H ) :  -0.1389 B( 12-C , 27-H ) :   0.8643
B( 14-C , 15-F ) :   0.3299 B( 14-C , 16-F ) :   0.3252 B( 14-C , 17-F ) :   0.4056
B( 17-F , 26-H ) :  -0.3047 B( 18-O , 26-H ) :  -0.1021 B( 20-C , 23-H ) :   0.9119
B( 20-C , 24-H ) :   0.9642 B( 20-C , 25-H ) :   1.0103

MP2 TOTAL ENERGY:    -1251.126988857 Eh
FINAL SINGLE POINT ENERGY     -1251.126988856644

DIPOLE MOMENT
-------------
                                X             Y             Z
Electronic contribution:    -21.43131     -12.83579      -2.18900
Nuclear contribution   :     22.12489      14.09989       3.88582
                        -----------------------------------------
Total Dipole Moment    :      0.69358       1.26410       1.69683
                        -----------------------------------------
Magnitude (a.u.)       :      2.22671
Magnitude (Debye)      :      5.65985

Rotational constants in cm-1:     0.021736     0.013914     0.011217
Rotational constants in MHz :   651.614555   417.121363   336.269379

                             ****ORCA TERMINATED NORMALLY****
TOTAL RUN TIME: 0 days 5 hours 37 minutes 58 seconds 370 msec
