                         Program Version 4.2.1 -  RELEASE  -
|  1> %pal
|  2>  nprocs 32
|  3> end
|  4> !RI-MP2 aug-cc-pVQZ aug-cc-pVQZ/C TightSCF
|  5> %maxcore 4500
|  6> *xyzfile 0 1  08_9R1.xyz
|  7>
|  8>
|  9>                          ****END OF INPUT****

CARTESIAN COORDINATES (ANGSTROEM)
---------------------------------
  N     -2.528648   -1.959243   -0.097290
  C     -1.285019   -2.272837   -0.277018
  N     -0.426224   -1.191828   -0.319339
  C     -1.220955   -0.083277   -0.155496
  C     -2.518620   -0.584308   -0.021153
  C     -3.521223    0.372292    0.143921
  N     -0.897803    1.213873   -0.141897
  C     -1.937785    2.015833    0.023811
  N     -3.215658    1.659948    0.164156
  C      1.005056   -1.305837   -0.504568
  C      1.866528   -1.145862    0.759773
  O      1.436668   -0.338962   -1.430993
  C      3.186601   -0.673417    0.130377
  C      2.727136    0.186695   -1.072553
  C      2.610988    1.676344   -0.809933
  H      3.393655    0.040522   -1.926878
  O      1.694159    1.976945    0.225673
  H      2.310862    2.172759   -1.737588
  H      3.587484    2.059930   -0.511960
  H      0.772554    1.826786   -0.091609
  O      4.045056   -0.029566    1.026933
  H      3.722997   -1.542578   -0.258848
  H      3.509035    0.347625    1.736192
  O      1.379753   -0.244433    1.710943
  H      1.975129   -2.103932    1.268226
  H      1.407586    0.661176    1.333838
  H     -0.907826   -3.278880   -0.392067
  H     -1.731062    3.079768    0.049423
  O     -4.792435    0.016863    0.282093
  H     -5.308497    0.828552    0.384261
  H      1.164571   -2.311522   -0.912550

 Total Charge           Charge          ....    0
 Multiplicity           Mult            ....    1
 Number of Electrons    NEL             ....  140
 Basis Dimension        Dim             .... 2072

ORBITAL ENERGIES
----------------

  NO   OCC          E(Eh)            E(eV)
   0   2.0000     -20.616802      -561.0117
   1   2.0000     -20.585360      -560.1561
   2   2.0000     -20.569325      -559.7198
   3   2.0000     -20.562185      -559.5255
   4   2.0000     -20.556334      -559.3663
   5   2.0000     -15.641508      -425.6271
   6   2.0000     -15.583550      -424.0499
   7   2.0000     -15.572653      -423.7534
   8   2.0000     -15.572442      -423.7477
   9   2.0000     -11.372899      -309.4723
  10   2.0000     -11.356767      -309.0333
  11   2.0000     -11.337303      -308.5037
  12   2.0000     -11.333461      -308.3991
  13   2.0000     -11.329075      -308.2798
  14   2.0000     -11.303109      -307.5732
  15   2.0000     -11.300580      -307.5044
  16   2.0000     -11.297504      -307.4207
  17   2.0000     -11.282408      -307.0099
  18   2.0000     -11.269214      -306.6509
  19   2.0000      -1.456398       -39.6306
  20   2.0000      -1.436699       -39.0946
  21   2.0000      -1.393228       -37.9117
  22   2.0000      -1.378662       -37.5153
  23   2.0000      -1.368876       -37.2490
  24   2.0000      -1.361260       -37.0418
  25   2.0000      -1.313260       -35.7356
  26   2.0000      -1.227118       -33.3916
  27   2.0000      -1.195213       -32.5234
  28   2.0000      -1.067242       -29.0411
  29   2.0000      -1.058772       -28.8107
  30   2.0000      -1.040923       -28.3250
  31   2.0000      -0.948375       -25.8066
  32   2.0000      -0.916935       -24.9511
  33   2.0000      -0.903432       -24.5836
  34   2.0000      -0.867100       -23.5950
  35   2.0000      -0.833305       -22.6754
  36   2.0000      -0.815617       -22.1941
  37   2.0000      -0.785619       -21.3778
  38   2.0000      -0.773052       -21.0358
  39   2.0000      -0.746866       -20.3233
  40   2.0000      -0.723516       -19.6879
  41   2.0000      -0.710704       -19.3392
  42   2.0000      -0.700128       -19.0515
  43   2.0000      -0.688066       -18.7232
  44   2.0000      -0.676223       -18.4010
  45   2.0000      -0.669274       -18.2119
  46   2.0000      -0.657509       -17.8917
  47   2.0000      -0.647557       -17.6209
  48   2.0000      -0.636865       -17.3300
  49   2.0000      -0.625756       -17.0277
  50   2.0000      -0.619594       -16.8600
  51   2.0000      -0.610325       -16.6078
  52   2.0000      -0.595387       -16.2013
  53   2.0000      -0.587625       -15.9901
  54   2.0000      -0.570385       -15.5210
  55   2.0000      -0.562493       -15.3062
  56   2.0000      -0.550804       -14.9881
  57   2.0000      -0.543397       -14.7866
  58   2.0000      -0.523597       -14.2478
  59   2.0000      -0.515284       -14.0216
  60   2.0000      -0.502291       -13.6680
  61   2.0000      -0.483064       -13.1448
  62   2.0000      -0.477660       -12.9978
  63   2.0000      -0.468308       -12.7433
  64   2.0000      -0.454733       -12.3739
  65   2.0000      -0.438728       -11.9384
  66   2.0000      -0.435922       -11.8621
  67   2.0000      -0.425028       -11.5656
  68   2.0000      -0.388610       -10.5746
  69   2.0000      -0.338200        -9.2029
  70   0.0000       0.017002         0.4627
  71   0.0000       0.024448         0.6653
  72   0.0000       0.027239         0.7412
  73   0.0000       0.032666         0.8889
  74   0.0000       0.035306         0.9607

MULLIKEN ATOMIC CHARGES
-----------------------
   0 N :   -0.963435
   1 C :    0.109172
   2 N :   -0.423980
   3 C :    0.995718
   4 C :   -0.575633
   5 C :    1.546816
   6 N :   -0.660803
   7 C :    0.140977
   8 N :   -0.981237
   9 C :    0.536492
  10 C :    0.180820
  11 O :   -0.984612
  12 C :    0.512973
  13 C :    0.099905
  14 C :   -0.277038
  15 H :    0.408588
  16 O :   -0.980469
  17 H :    0.310999
  18 H :    0.346701
  19 H :    0.396960
  20 O :   -1.177384
  21 H :    0.281329
  22 H :    0.405896
  23 O :   -1.284999
  24 H :    0.500058
  25 H :    0.613802
  26 H :    0.490158
  27 H :    0.529292
  28 O :   -0.797456
  29 H :    0.398411
  30 H :    0.301976
Sum of atomic charges:    0.0000000

LOEWDIN ATOMIC CHARGES
----------------------
   0 N :    0.628631
   1 C :   -0.028518
   2 N :    0.445138
   3 C :   -0.529697
   4 C :   -0.421217
   5 C :   -0.691865
   6 N :    0.670227
   7 C :   -0.106143
   8 N :    0.598768
   9 C :   -0.355178
  10 C :   -0.191439
  11 O :    0.936688
  12 C :   -0.217480
  13 C :   -0.178884
  14 C :    0.235988
  15 H :   -0.289224
  16 O :    1.354402
  17 H :   -0.282470
  18 H :   -0.308412
  19 H :   -0.984431
  20 O :    1.324544
  21 H :   -0.295399
  22 H :   -0.840965
  23 O :    1.341648
  24 H :   -0.287639
  25 H :   -1.041906
  26 H :   -0.299040
  27 H :   -0.356657
  28 O :    1.286507
  29 H :   -0.804094
  30 H :   -0.311882

  Mayer bond orders larger than 0.100000
B(  0-N ,  1-C ) :   1.4516 B(  0-N ,  3-C ) :   0.2586 B(  0-N ,  4-C ) :   0.2072
B(  1-C ,  2-N ) :   1.3170 B(  1-C ,  3-C ) :   0.3100 B(  1-C ,  4-C ) :   0.1621
B(  1-C ,  9-C ) :   0.1185 B(  1-C , 26-H ) :   0.6710 B(  2-N ,  3-C ) :   0.9113
B(  2-N ,  4-C ) :  -0.1948 B(  2-N ,  9-C ) :   0.7090 B(  3-C ,  4-C ) :   1.0014
B(  3-C ,  5-C ) :  -0.3866 B(  3-C ,  6-N ) :   1.1991 B(  4-C ,  5-C ) :   1.5562
B(  4-C ,  7-C ) :   0.1717 B(  4-C ,  8-N ) :   0.1974 B(  4-C , 28-O ) :   0.5676
B(  5-C ,  8-N ) :   1.0562 B(  6-N ,  7-C ) :   1.7307 B(  6-N , 19-H ) :   0.1265
B(  7-C ,  8-N ) :   1.1306 B(  7-C , 27-H ) :   0.7288 B(  8-N , 28-O ) :   0.2391
B(  9-C , 10-C ) :   1.0123 B(  9-C , 11-O ) :   0.4081 B(  9-C , 30-H ) :   0.8772
B( 10-C , 12-C ) :   1.0235 B( 10-C , 13-C ) :  -0.1158 B( 10-C , 20-O ) :   0.2742
B( 10-C , 23-O ) :   0.4667 B( 10-C , 24-H ) :   0.7073 B( 10-C , 30-H ) :   0.1029
B( 11-O , 12-C ) :   0.1496 B( 11-O , 13-C ) :   0.5712 B( 12-C , 13-C ) :   1.0613
B( 12-C , 21-H ) :   0.9939 B( 13-C , 14-C ) :   0.8474 B( 13-C , 15-H ) :   0.7784
B( 13-C , 20-O ) :   0.2411 B( 14-C , 16-O ) :   0.6972 B( 14-C , 17-H ) :   0.9249
B( 14-C , 18-H ) :   0.8983 B( 14-C , 19-H ) :   0.1014 B( 16-O , 19-H ) :   0.7192
B( 20-O , 22-H ) :   0.7988 B( 23-O , 25-H ) :   0.6214 B( 28-O , 29-H ) :   0.8578

MP2 TOTAL ENERGY:     -982.056275858 Eh
FINAL SINGLE POINT ENERGY      -982.056275857733

DIPOLE MOMENT
-------------
                                X             Y             Z
Electronic contribution:    -13.14008      -1.98733       0.23577
Nuclear contribution   :     13.63945       1.76478      -1.01286
                        -----------------------------------------
Total Dipole Moment    :      0.49936      -0.22254      -0.77709
                        -----------------------------------------
Magnitude (a.u.)       :      0.95014
Magnitude (Debye)      :      2.41505

Rotational constants in cm-1:     0.028770     0.008935     0.007751
Rotational constants in MHz :   862.517544   267.874029   232.368041

                             ****ORCA TERMINATED NORMALLY****
TOTAL RUN TIME: 0 days 4 hours 57 minutes 26 seconds 728 msec
