                         Program Version 4.2.1 -  RELEASE  -
|  1> %pal
|  2>  nprocs 32
|  3> end
|  4> !RI-MP2 aug-cc-pVQZ aug-cc-pVQZ/C TightSCF
|  5> %maxcore 4500
|  6> *xyzfile 0 1  02_45R1.xyz
|  7>
|  8>
|  9>                          ****END OF INPUT****

CARTESIAN COORDINATES (ANGSTROEM)
---------------------------------
  C      0.556558    1.288319    0.000196
  C      1.763509    0.742149    0.000110
  C      0.556549   -1.288319   -0.000198
  C      1.763504   -0.742156   -0.000116
  S     -0.687295    0.000004    0.000001
  O     -1.420280   -0.000194    1.255715
  O     -1.420284    0.000193   -1.255710
  H      2.683961   -1.309866   -0.000203
  H      0.256282   -2.324321   -0.000353
  H      0.256297    2.324322    0.000352
  H      2.683970    1.309853    0.000194

 Total Charge           Charge          ....    0
 Multiplicity           Mult            ....    1
 Number of Electrons    NEL             ....   60
 Basis Dimension        Dim             ....  748

ORBITAL ENERGIES
----------------

  NO   OCC          E(Eh)            E(eV)
   0   2.0000     -92.183410     -2508.4381
   1   2.0000     -20.550312      -559.2024
   2   2.0000     -20.550291      -559.2018
   3   2.0000     -11.296086      -307.3821
   4   2.0000     -11.295360      -307.3624
   5   2.0000     -11.289245      -307.1960
   6   2.0000     -11.289233      -307.1957
   7   2.0000      -9.152509      -249.0524
   8   2.0000      -6.838198      -186.0768
   9   2.0000      -6.837184      -186.0492
  10   2.0000      -6.836691      -186.0358
  11   2.0000      -1.450983       -39.4833
  12   2.0000      -1.338038       -36.4099
  13   2.0000      -1.189807       -32.3763
  14   2.0000      -1.044838       -28.4315
  15   2.0000      -0.960124       -26.1263
  16   2.0000      -0.807260       -21.9667
  17   2.0000      -0.802656       -21.8414
  18   2.0000      -0.739713       -20.1286
  19   2.0000      -0.658791       -17.9266
  20   2.0000      -0.644939       -17.5497
  21   2.0000      -0.644731       -17.5440
  22   2.0000      -0.635940       -17.3048
  23   2.0000      -0.590679       -16.0732
  24   2.0000      -0.522607       -14.2209
  25   2.0000      -0.512397       -13.9430
  26   2.0000      -0.497069       -13.5259
  27   2.0000      -0.461937       -12.5699
  28   2.0000      -0.449993       -12.2449
  29   2.0000      -0.377697       -10.2777
  30   0.0000       0.015232         0.4145
  31   0.0000       0.024711         0.6724
  32   0.0000       0.032843         0.8937
  33   0.0000       0.034021         0.9258
  34   0.0000       0.041231         1.1220

MULLIKEN ATOMIC CHARGES
-----------------------
   0 C :   -0.571064
   1 C :   -0.355888
   2 C :   -0.571026
   3 C :   -0.355940
   4 S :    2.484669
   5 O :   -1.177404
   6 O :   -1.177404
   7 H :    0.406353
   8 H :    0.455666
   9 H :    0.455673
  10 H :    0.406365
Sum of atomic charges:   -0.0000000

LOEWDIN ATOMIC CHARGES
----------------------
   0 C :    0.247965
   1 C :    0.281542
   2 C :    0.247963
   3 C :    0.281542
   4 S :   -0.267699
   5 O :    0.265611
   6 O :    0.265611
   7 H :   -0.317064
   8 H :   -0.344203
   9 H :   -0.344204
  10 H :   -0.317063

  Mayer bond orders larger than 0.100000
B(  0-C ,  1-C ) :   1.6150 B(  0-C ,  4-S ) :   0.9409 B(  0-C ,  9-H ) :   0.8672
B(  1-C ,  3-C ) :   0.8692 B(  1-C , 10-H ) :   0.9178 B(  2-C ,  3-C ) :   1.6151
B(  2-C ,  4-S ) :   0.9408 B(  2-C ,  8-H ) :   0.8672 B(  3-C ,  7-H ) :   0.9178
B(  4-S ,  5-O ) :   0.9586 B(  4-S ,  6-O ) :   0.9586

MP2 TOTAL ENERGY:     -702.503268972 Eh
FINAL SINGLE POINT ENERGY      -702.503268972365

DIPOLE MOMENT
-------------
                                X             Y             Z
Electronic contribution:     -3.35286       0.00002       0.00000
Nuclear contribution   :      5.68297      -0.00001      -0.00001
                        -----------------------------------------
Total Dipole Moment    :      2.33010       0.00001      -0.00001
                        -----------------------------------------
Magnitude (a.u.)       :      2.33010
Magnitude (Debye)      :      5.92265

Rotational constants in cm-1:     0.142974     0.074375     0.069187
Rotational constants in MHz :  4286.248922  2229.709621  2074.164617

                             ****ORCA TERMINATED NORMALLY****
TOTAL RUN TIME: 0 days 0 hours 10 minutes 52 seconds 67 msec
