                         Program Version 4.2.1 -  RELEASE  -
|  1> %pal
|  2>  nprocs 32
|  3> end
|  4> !RI-MP2 aug-cc-pVQZ aug-cc-pVQZ/C TightSCF MORead
|  5> %maxcore 4500
|  6> %moinp "10_72P.gbw"
|  7> *xyzfile 0 1  10_72P.xyz
|  8>
|  9>
| 10>                          ****END OF INPUT****

CARTESIAN COORDINATES (ANGSTROEM)
---------------------------------
  C     -3.061080   -1.319760   -0.635470
  C     -4.366533   -1.678086    0.074902
  C     -5.149506   -0.450467    0.522385
  C     -4.286503    0.503363    1.344282
  C     -3.007237    0.883901    0.605547
  C     -2.212322   -0.388174    0.238285
  H     -4.990263   -2.285525   -0.584126
  H     -4.135778   -2.280876    0.957927
  H     -2.491971   -2.236992   -0.811130
  H     -4.864146    1.400509    1.594431
  H     -4.037999    0.018579    2.295320
  H     -6.016192   -0.767957    1.112140
  O     -5.617940    0.186616   -0.677995
  H     -6.108625    0.982033   -0.453569
  O     -3.291686   -0.763309   -1.922681
  H     -4.100305   -0.236726   -1.880730
  C     -0.836425   -0.104865   -0.402248
  C     -2.122216    1.837864    1.354491
  H     -2.463718    2.276823    2.286607
  C      0.325537   -0.831817    0.251561
  C      0.381317   -0.907549    1.753534
  H     -0.431522   -1.514174    2.159586
  H      0.276555    0.084298    2.201663
  H      1.312407   -1.346433    2.106747
  C      1.344402   -1.220681   -0.516665
  C      1.895920    1.667624   -0.314715
  C      2.711174   -1.691340   -0.078316
  H      1.232411   -1.098152   -1.591618
  H      1.856478    1.557265    0.761337
  C      3.569233   -0.522044    0.460904
  H      2.599208   -2.371047    0.772524
  H      2.991713    0.003160    1.222747
  C     -0.927257    2.111235    0.843404
  H     -0.231085    2.790558    1.322253
  C      3.405146   -2.448753   -1.209861
  H      2.758958   -3.248021   -1.577181
  H      3.624140   -1.777560   -2.042572
  H      4.343136   -2.900084   -0.885413
  C      4.881095   -0.968410    1.087351
  H      4.662436   -1.774882    1.794135
  H      5.519971   -1.388670    0.308029
  C      5.609093    0.167884    1.794385
  H      4.998682    0.588672    2.598687
  H      6.544373   -0.180672    2.235980
  H      5.845393    0.969313    1.093319
  O      3.940852    0.409505   -0.579149
  C      3.185883    1.450767   -1.009511
  O      3.565423    2.081763   -1.956612
  C      0.777799    1.737093   -1.025868
  H      0.865378    1.781964   -2.107522
  C     -0.580696    1.471274   -0.471173
  H     -3.297347    1.368944   -0.335409
  H     -2.055948   -0.916896    1.181848
  H     -0.882666   -0.424902   -1.444073
  H     -1.317800    1.816493   -1.203670

 Total Charge           Charge          ....    0
 Multiplicity           Mult            ....    1
 Number of Electrons    NEL             ....  188
 Basis Dimension        Dim             .... 3380

ORBITAL ENERGIES
----------------

  NO   OCC          E(Eh)            E(eV)
   0   2.0000     -20.581932      -560.0628
   1   2.0000     -20.577002      -559.9287
   2   2.0000     -20.539671      -558.9129
   3   2.0000     -20.520757      -558.3982
   4   2.0000     -11.368967      -309.3653
   5   2.0000     -11.297259      -307.4140
   6   2.0000     -11.294323      -307.3342
   7   2.0000     -11.277717      -306.8823
   8   2.0000     -11.246512      -306.0332
   9   2.0000     -11.245252      -305.9989
  10   2.0000     -11.239305      -305.8370
  11   2.0000     -11.238298      -305.8096
  12   2.0000     -11.238035      -305.8025
  13   2.0000     -11.237031      -305.7752
  14   2.0000     -11.234439      -305.7046
  15   2.0000     -11.232141      -305.6421
  16   2.0000     -11.231871      -305.6347
  17   2.0000     -11.229954      -305.5826
  18   2.0000     -11.229819      -305.5789
  19   2.0000     -11.229425      -305.5682
  20   2.0000     -11.225267      -305.4550
  21   2.0000     -11.225118      -305.4510
  22   2.0000     -11.219061      -305.2862
  23   2.0000     -11.213375      -305.1314
  24   2.0000     -11.212276      -305.1015
  25   2.0000      -1.440482       -39.1975
  26   2.0000      -1.385717       -37.7073
  27   2.0000      -1.350565       -36.7507
  28   2.0000      -1.346296       -36.6346
  29   2.0000      -1.167088       -31.7581
  30   2.0000      -1.122038       -30.5322
  31   2.0000      -1.108663       -30.1683
  32   2.0000      -1.076730       -29.2993
  33   2.0000      -1.067990       -29.0615
  34   2.0000      -1.040823       -28.3222
  35   2.0000      -1.015674       -27.6379
  36   2.0000      -1.006486       -27.3879
  37   2.0000      -0.976971       -26.5847
  38   2.0000      -0.942676       -25.6515
  39   2.0000      -0.935052       -25.4441
  40   2.0000      -0.890643       -24.2356
  41   2.0000      -0.863184       -23.4884
  42   2.0000      -0.854708       -23.2578
  43   2.0000      -0.831686       -22.6313
  44   2.0000      -0.820031       -22.3142
  45   2.0000      -0.798390       -21.7253
  46   2.0000      -0.779422       -21.2092
  47   2.0000      -0.740065       -20.1382
  48   2.0000      -0.737487       -20.0681
  49   2.0000      -0.722350       -19.6562
  50   2.0000      -0.711185       -19.3523
  51   2.0000      -0.700450       -19.0602
  52   2.0000      -0.680839       -18.5266
  53   2.0000      -0.667654       -18.1678
  54   2.0000      -0.659588       -17.9483
  55   2.0000      -0.651748       -17.7350
  56   2.0000      -0.649281       -17.6678
  57   2.0000      -0.643587       -17.5129
  58   2.0000      -0.622088       -16.9279
  59   2.0000      -0.618097       -16.8193
  60   2.0000      -0.610604       -16.6154
  61   2.0000      -0.609121       -16.5750
  62   2.0000      -0.603131       -16.4120
  63   2.0000      -0.591169       -16.0865
  64   2.0000      -0.584568       -15.9069
  65   2.0000      -0.582641       -15.8545
  66   2.0000      -0.570389       -15.5211
  67   2.0000      -0.565936       -15.3999
  68   2.0000      -0.559135       -15.2148
  69   2.0000      -0.552444       -15.0328
  70   2.0000      -0.541187       -14.7264
  71   2.0000      -0.540501       -14.7078
  72   2.0000      -0.534552       -14.5459
  73   2.0000      -0.528600       -14.3839
  74   2.0000      -0.524862       -14.2822
  75   2.0000      -0.519973       -14.1492
  76   2.0000      -0.511792       -13.9266
  77   2.0000      -0.505947       -13.7675
  78   2.0000      -0.503442       -13.6994
  79   2.0000      -0.496222       -13.5029
  80   2.0000      -0.492722       -13.4077
  81   2.0000      -0.491596       -13.3770
  82   2.0000      -0.485762       -13.2183
  83   2.0000      -0.476765       -12.9734
  84   2.0000      -0.467990       -12.7347
  85   2.0000      -0.459991       -12.5170
  86   2.0000      -0.449243       -12.2245
  87   2.0000      -0.439881       -11.9698
  88   2.0000      -0.432973       -11.7818
  89   2.0000      -0.426530       -11.6065
  90   2.0000      -0.418702       -11.3935
  91   2.0000      -0.379138       -10.3169
  92   2.0000      -0.352636        -9.5957
  93   2.0000      -0.326069        -8.8728
  94   0.0000       0.012489         0.3398
  95   0.0000       0.018973         0.5163
  96   0.0000       0.022717         0.6182
  97   0.0000       0.025826         0.7028
  98   0.0000       0.030262         0.8235

MULLIKEN ATOMIC CHARGES
-----------------------
   0 C :    0.764289
   1 C :   -1.106221
   2 C :    0.569164
   3 C :   -0.898518
   4 C :    0.823267
   5 C :    0.999684
   6 H :    0.130908
   7 H :    0.128384
   8 H :    0.243134
   9 H :    0.148155
  10 H :    0.120194
  11 H :    0.328891
  12 O :   -1.045231
  13 H :    0.285934
  14 O :   -1.404202
  15 H :    0.479712
  16 C :    0.330662
  17 C :   -1.094947
  18 H :    0.101772
  19 C :    1.025619
  20 C :   -1.263533
  21 H :    0.234505
  22 H :    0.180566
  23 H :    0.241963
  24 C :   -0.702371
  25 C :   -0.717160
  26 C :    0.031105
  27 H :   -0.073455
  28 H :    0.288930
  29 C :    1.408212
  30 H :    0.299176
  31 H :    0.287212
  32 C :   -0.402189
  33 H :    0.082444
  34 C :   -1.206840
  35 H :    0.224185
  36 H :    0.188745
  37 H :    0.207101
  38 C :   -0.722441
  39 H :    0.210434
  40 H :    0.161741
  41 C :   -0.934686
  42 H :    0.152441
  43 H :    0.268142
  44 H :    0.212012
  45 O :   -1.260717
  46 C :    1.704033
  47 O :   -1.207811
  48 C :   -0.691384
  49 H :   -0.002818
  50 C :    0.808910
  51 H :    0.340247
  52 H :    0.130808
  53 H :    0.208985
  54 H :    0.382858
Sum of atomic charges:   -0.0000000

LOEWDIN ATOMIC CHARGES
----------------------
   0 C :   -0.155824
   1 C :    0.534008
   2 C :   -0.138902
   3 C :    0.537184
   4 C :    0.105401
   5 C :    0.148728
   6 H :   -0.258303
   7 H :   -0.256347
   8 H :   -0.281226
   9 H :   -0.253287
  10 H :   -0.251115
  11 H :   -0.270176
  12 O :    1.344566
  13 H :   -0.736671
  14 O :    1.344386
  15 H :   -0.929049
  16 C :    0.181805
  17 C :    0.440591
  18 H :   -0.286476
  19 C :    0.033875
  20 C :    0.945335
  21 H :   -0.271704
  22 H :   -0.272569
  23 H :   -0.312322
  24 C :    0.392014
  25 C :    0.310266
  26 C :    0.124270
  27 H :   -0.306988
  28 H :   -0.354792
  29 C :   -0.200397
  30 H :   -0.304323
  31 H :   -0.371021
  32 C :    0.411041
  33 H :   -0.293667
  34 C :    0.937502
  35 H :   -0.264430
  36 H :   -0.271351
  37 H :   -0.281635
  38 C :    0.502704
  39 H :   -0.261118
  40 H :   -0.284026
  41 C :    0.944540
  42 H :   -0.275878
  43 H :   -0.275722
  44 H :   -0.286814
  45 O :    0.882966
  46 C :   -1.057096
  47 O :    0.674902
  48 C :    0.388668
  49 H :   -0.285913
  50 C :    0.130330
  51 H :   -0.297651
  52 H :   -0.341279
  53 H :   -0.326590
  54 H :   -0.300422

  Mayer bond orders larger than 0.100000
B(  0-C ,  1-C ) :   0.8839 B(  0-C ,  5-C ) :   0.4582 B(  0-C ,  6-H ) :  -0.1096
B(  0-C ,  8-H ) :   1.0737 B(  0-C , 14-O ) :  -0.1762 B(  0-C , 52-H ) :  -0.1286
B(  1-C ,  2-C ) :   0.7710 B(  1-C ,  5-C ) :  -0.5187 B(  1-C ,  6-H ) :   1.1542
B(  1-C ,  7-H ) :   1.1714 B(  1-C , 12-O ) :   0.2257 B(  1-C , 14-O ) :   0.2644
B(  2-C ,  3-C ) :   0.9658 B(  2-C , 11-H ) :   0.9802 B(  2-C , 12-O ) :   0.2387
B(  3-C ,  4-C ) :  -0.1438 B(  3-C ,  5-C ) :  -0.1237 B(  3-C ,  9-H ) :   1.2572
B(  3-C , 10-H ) :   1.2843 B(  4-C ,  5-C ) :   0.7110 B(  4-C ,  9-H ) :  -0.2631
B(  4-C , 10-H ) :  -0.2302 B(  4-C , 17-C ) :   0.4610 B(  4-C , 32-C ) :  -0.1032
B(  4-C , 50-C ) :   0.2636 B(  4-C , 51-H ) :   1.0261 B(  5-C ,  7-H ) :  -0.1808
B(  5-C ,  8-H ) :  -0.1156 B(  5-C , 16-C ) :   1.0446 B(  5-C , 19-C ) :   0.2183
B(  5-C , 20-C ) :  -0.1755 B(  5-C , 32-C ) :  -0.1456 B(  5-C , 50-C ) :   0.2217
B(  5-C , 52-H ) :   0.8099 B( 12-O , 13-H ) :   0.9602 B( 14-O , 15-H ) :   0.7314
B( 16-C , 19-C ) :   0.2309 B( 16-C , 24-C ) :  -0.2945 B( 16-C , 32-C ) :  -0.1523
B( 16-C , 50-C ) :   0.4047 B( 16-C , 52-H ) :  -0.1028 B( 16-C , 53-H ) :   1.1086
B( 17-C , 18-H ) :   1.3157 B( 17-C , 32-C ) :   1.1363 B( 17-C , 33-H ) :  -0.2948
B( 17-C , 50-C ) :  -0.3760 B( 18-H , 32-C ) :  -0.3167 B( 19-C , 20-C ) :   0.4567
B( 19-C , 21-H ) :  -0.1681 B( 19-C , 22-H ) :  -0.2174 B( 19-C , 24-C ) :   0.2213
B( 19-C , 25-C ) :  -0.1004 B( 19-C , 26-C ) :  -0.2034 B( 19-C , 27-H ) :  -0.5419
B( 19-C , 29-C ) :   0.1120 B( 19-C , 48-C ) :  -0.1403 B( 19-C , 50-C ) :   0.3015
B( 19-C , 52-H ) :   0.1933 B( 20-C , 21-H ) :   1.1262 B( 20-C , 22-H ) :   1.1902
B( 20-C , 23-H ) :   1.0651 B( 21-H , 22-H ) :   0.1548 B( 24-C , 25-C ) :   0.1203
B( 24-C , 26-C ) :   0.4447 B( 24-C , 27-H ) :   1.8344 B( 24-C , 29-C ) :   0.1015
B( 24-C , 30-H ) :  -0.1505 B( 24-C , 34-C ) :  -0.3787 B( 24-C , 48-C ) :   0.1880
B( 24-C , 53-H ) :  -0.2031 B( 25-C , 28-H ) :   0.9095 B( 25-C , 46-C ) :   1.3811
B( 25-C , 47-O ) :   0.2290 B( 25-C , 48-C ) :   1.6374 B( 25-C , 50-C ) :  -0.3586
B( 26-C , 29-C ) :   0.6187 B( 26-C , 30-H ) :   1.0124 B( 26-C , 34-C ) :   0.4698
B( 26-C , 35-H ) :  -0.1217 B( 26-C , 36-H ) :  -0.2657 B( 26-C , 37-H ) :  -0.1646
B( 26-C , 38-C ) :   0.1857 B( 29-C , 31-H ) :   0.8901 B( 29-C , 39-H ) :  -0.1585
B( 29-C , 40-H ) :  -0.2170 B( 29-C , 41-C ) :  -0.1290 B( 29-C , 45-O ) :  -0.4537
B( 29-C , 46-C ) :   0.1057 B( 31-H , 38-C ) :  -0.1025 B( 31-H , 45-O ) :   0.2325
B( 32-C , 33-H ) :   1.3473 B( 32-C , 50-C ) :   1.0609 B( 32-C , 51-H ) :  -0.1084
B( 32-C , 52-H ) :   0.1631 B( 32-C , 54-H ) :  -0.1074 B( 33-H , 50-C ) :  -0.1196
B( 34-C , 35-H ) :   1.1268 B( 34-C , 36-H ) :   1.1732 B( 34-C , 37-H ) :   1.1462
B( 38-C , 39-H ) :   1.0857 B( 38-C , 40-H ) :   1.1381 B( 38-C , 41-C ) :   0.8649
B( 38-C , 43-H ) :  -0.1459 B( 41-C , 42-H ) :   1.0344 B( 41-C , 43-H ) :   1.0584
B( 41-C , 44-H ) :   1.0101 B( 45-O , 46-C ) :   1.1537 B( 45-O , 47-O ) :   0.2093
B( 46-C , 47-O ) :   0.1496 B( 46-C , 48-C ) :  -0.3810 B( 47-O , 48-C ) :   0.1740
B( 48-C , 49-H ) :   1.5979 B( 48-C , 50-C ) :  -0.1736 B( 48-C , 54-H ) :  -0.3649
B( 49-H , 50-C ) :  -0.4529 B( 50-C , 54-H ) :   1.0184

MP2 TOTAL ENERGY:    -1117.319823940 Eh
FINAL SINGLE POINT ENERGY     -1117.319823939936

DIPOLE MOMENT
-------------
                                X             Y             Z
Electronic contribution:     -3.98147      10.49932     -10.80252
Nuclear contribution   :      2.02160     -11.29220      13.25548
                        -----------------------------------------
Total Dipole Moment    :     -1.95987      -0.79288       2.45296
                        -----------------------------------------
Magnitude (a.u.)       :      3.23833
Magnitude (Debye)      :      8.23117

Rotational constants in cm-1:     0.016423     0.003887     0.003722
Rotational constants in MHz :   492.353538   116.525725   111.573964

                             ****ORCA TERMINATED NORMALLY****
TOTAL RUN TIME: 0 days 13 hours 3 minutes 48 seconds 771 msec
