                         Program Version 4.2.1 -  RELEASE  -
|  1> %pal
|  2>  nprocs 32
|  3> end
|  4> !RI-MP2 aug-cc-pVQZ aug-cc-pVQZ/C TightSCF
|  5> %maxcore 4500
|  6> *xyzfile 0 2  03_10TS.xyz
|  7>
|  8>
|  9>                          ****END OF INPUT****

CARTESIAN COORDINATES (ANGSTROEM)
---------------------------------
  C      1.489183   -0.473108   -0.107864
  C      2.954490   -0.879472    0.179472
  O      3.716804   -0.919781   -0.910766
  O      3.366511   -1.085501    1.284971
  C      1.346835    0.956527    0.327003
  F     -0.764595    1.164566   -0.368944
  S     -2.520196    1.025057   -0.651450
  C     -2.579821   -0.572821    0.179806
  H      0.862361   -1.098028    0.532875
  N      1.219593   -0.654688   -1.535463
  H      3.108097   -0.750825   -1.663642
  C      1.963591    2.033806   -0.492179
  C      1.101853    1.199011    1.769321
  F     -3.845886   -1.000160    0.151729
  F     -2.182571   -0.513484    1.452987
  F     -1.814309   -1.497328   -0.418616
  H      0.485258   -0.023570   -1.833998
  H      0.895152   -1.597708   -1.717884
  H      1.932303    1.823350   -1.560854
  H      1.470922    2.988630   -0.304256
  H      0.850349    2.243109    1.958226
  H      2.003807    0.952193    2.346541
  H      0.299307    0.563827    2.148293
  H      3.021378    2.157183   -0.215255

 Total Charge           Charge          ....    0
 Multiplicity           Mult            ....    2
 Number of Electrons    NEL             ....  121
 Basis Dimension        Dim             .... 1584

ORBITAL ENERGIES
----------------
                 SPIN UP ORBITALS
  NO   OCC          E(Eh)            E(eV)
   0   1.0000     -92.104437     -2506.2891
   1   1.0000     -26.388040      -718.0551
   2   1.0000     -26.378656      -717.7997
   3   1.0000     -26.377313      -717.7632
   4   1.0000     -26.346226      -716.9173
   5   1.0000     -20.586798      -560.1953
   6   1.0000     -20.523729      -558.4791
   7   1.0000     -15.571206      -423.7140
   8   1.0000     -11.577001      -315.0262
   9   1.0000     -11.363526      -309.2173
  10   1.0000     -11.277286      -306.8705
  11   1.0000     -11.238668      -305.8197
  12   1.0000     -11.218934      -305.2827
  13   1.0000     -11.209745      -305.0327
  14   1.0000      -9.098633      -247.5864
  15   1.0000      -6.782209      -184.5533
  16   1.0000      -6.777574      -184.4272
  17   1.0000      -6.775999      -184.3843
  18   1.0000      -1.776080       -48.3296
  19   1.0000      -1.683518       -45.8108
  20   1.0000      -1.674623       -45.5688
  21   1.0000      -1.604143       -43.6510
  22   1.0000      -1.447651       -39.3926
  23   1.0000      -1.350858       -36.7587
  24   1.0000      -1.219752       -33.1911
  25   1.0000      -1.106718       -30.1153
  26   1.0000      -1.090966       -29.6867
  27   1.0000      -0.968922       -26.3657
  28   1.0000      -0.956388       -26.0246
  29   1.0000      -0.940735       -25.5987
  30   1.0000      -0.870710       -23.6932
  31   1.0000      -0.867565       -23.6076
  32   1.0000      -0.830163       -22.5899
  33   1.0000      -0.810718       -22.0608
  34   1.0000      -0.782987       -21.3062
  35   1.0000      -0.756647       -20.5894
  36   1.0000      -0.752709       -20.4823
  37   1.0000      -0.720650       -19.6099
  38   1.0000      -0.715209       -19.4618
  39   1.0000      -0.706706       -19.2304
  40   1.0000      -0.703524       -19.1439
  41   1.0000      -0.695362       -18.9218
  42   1.0000      -0.691580       -18.8188
  43   1.0000      -0.684987       -18.6394
  44   1.0000      -0.672356       -18.2957
  45   1.0000      -0.662463       -18.0265
  46   1.0000      -0.626208       -17.0400
  47   1.0000      -0.615463       -16.7476
  48   1.0000      -0.594689       -16.1823
  49   1.0000      -0.586570       -15.9614
  50   1.0000      -0.567664       -15.4469
  51   1.0000      -0.563166       -15.3245
  52   1.0000      -0.543704       -14.7949
  53   1.0000      -0.537741       -14.6327
  54   1.0000      -0.505496       -13.7552
  55   1.0000      -0.499557       -13.5936
  56   1.0000      -0.462185       -12.5767
  57   1.0000      -0.459811       -12.5121
  58   1.0000      -0.456204       -12.4139
  59   1.0000      -0.419228       -11.4078
  60   1.0000      -0.308097        -8.3837
  61   0.0000       0.005339         0.1453
  62   0.0000       0.019286         0.5248
  63   0.0000       0.028129         0.7654
  64   0.0000       0.033097         0.9006
  65   0.0000       0.037535         1.0214

                 SPIN DOWN ORBITALS
  NO   OCC          E(Eh)            E(eV)
   0   1.0000     -92.102988     -2506.2497
   1   1.0000     -26.387818      -718.0490
   2   1.0000     -26.378638      -717.7992
   3   1.0000     -26.377272      -717.7621
   4   1.0000     -26.351420      -717.0586
   5   1.0000     -20.586610      -560.1901
   6   1.0000     -20.523053      -558.4607
   7   1.0000     -15.570384      -423.6917
   8   1.0000     -11.576965      -315.0252
   9   1.0000     -11.361790      -309.1700
  10   1.0000     -11.280271      -306.9518
  11   1.0000     -11.221873      -305.3627
  12   1.0000     -11.213535      -305.1358
  13   1.0000     -11.212544      -305.1088
  14   1.0000      -9.097154      -247.5461
  15   1.0000      -6.777474      -184.4244
  16   1.0000      -6.775330      -184.3661
  17   1.0000      -6.774217      -184.3358
  18   1.0000      -1.775793       -48.3218
  19   1.0000      -1.683079       -45.7989
  20   1.0000      -1.674535       -45.5664
  21   1.0000      -1.620526       -44.0967
  22   1.0000      -1.446309       -39.3561
  23   1.0000      -1.349390       -36.7188
  24   1.0000      -1.214811       -33.0567
  25   1.0000      -1.098052       -29.8795
  26   1.0000      -1.056062       -28.7369
  27   1.0000      -0.966424       -26.2977
  28   1.0000      -0.954530       -25.9741
  29   1.0000      -0.939817       -25.5737
  30   1.0000      -0.870167       -23.6785
  31   1.0000      -0.867392       -23.6029
  32   1.0000      -0.830957       -22.6115
  33   1.0000      -0.804652       -21.8957
  34   1.0000      -0.760901       -20.7052
  35   1.0000      -0.755664       -20.5627
  36   1.0000      -0.751879       -20.4597
  37   1.0000      -0.719761       -19.5857
  38   1.0000      -0.715595       -19.4723
  39   1.0000      -0.703825       -19.1521
  40   1.0000      -0.699605       -19.0372
  41   1.0000      -0.698029       -18.9943
  42   1.0000      -0.691164       -18.8075
  43   1.0000      -0.685365       -18.6497
  44   1.0000      -0.676387       -18.4054
  45   1.0000      -0.660955       -17.9855
  46   1.0000      -0.621838       -16.9211
  47   1.0000      -0.612161       -16.6577
  48   1.0000      -0.589113       -16.0306
  49   1.0000      -0.572005       -15.5651
  50   1.0000      -0.564230       -15.3535
  51   1.0000      -0.554598       -15.0914
  52   1.0000      -0.540479       -14.7072
  53   1.0000      -0.529210       -14.4005
  54   1.0000      -0.498595       -13.5675
  55   1.0000      -0.494372       -13.4526
  56   1.0000      -0.459578       -12.5057
  57   1.0000      -0.458187       -12.4679
  58   1.0000      -0.449839       -12.2407
  59   1.0000      -0.413080       -11.2405
  60   0.0000       0.002381         0.0648
  61   0.0000       0.019394         0.5277
  62   0.0000       0.027990         0.7616
  63   0.0000       0.033275         0.9055
  64   0.0000       0.038258         1.0411

MULLIKEN ATOMIC CHARGES AND SPIN POPULATIONS
--------------------------------------------
   0 C :    0.285426   -0.159234
   1 C :    1.366777    0.048072
   2 O :   -1.043790    0.005654
   3 O :   -0.905861    0.016080
   4 C :    0.809484    1.044132
   5 F :   -0.437678   -0.137123
   6 S :    0.335987    0.169863
   7 C :    1.684217   -0.007289
   8 H :    0.389142    0.017981
   9 N :   -0.801341    0.024626
  10 H :    0.402538   -0.001179
  11 C :   -1.066034   -0.135087
  12 C :   -1.062772   -0.109505
  13 F :   -0.577496   -0.000080
  14 F :   -0.600798    0.000232
  15 F :   -0.615822   -0.000069
  16 H :    0.229805    0.003675
  17 H :    0.129150   -0.002400
  18 H :    0.182888    0.013361
  19 H :    0.294281    0.021999
  20 H :    0.229522    0.010403
  21 H :    0.272437    0.070620
  22 H :    0.234963    0.026626
  23 H :    0.264976    0.078642
Sum of atomic charges         :   -0.0000000

LOEWDIN ATOMIC CHARGES AND SPIN POPULATIONS
-------------------------------------------
   0 C :   -0.113973    0.095587
   1 C :   -1.041066    0.025587
   2 O :    1.266926    0.005128
   3 O :    0.693627    0.014568
   4 C :   -0.198496    0.430233
   5 F :    0.243222   -0.051847
   6 S :    0.767202    0.100157
   7 C :   -2.680111    0.028755
   8 H :   -0.325855    0.008645
   9 N :    1.280290    0.009881
  10 H :   -0.947285    0.001213
  11 C :    0.890535    0.113001
  12 C :    0.879359    0.110239
  13 F :    0.676093    0.005371
  14 F :    0.694461    0.001213
  15 F :    0.684672    0.000914
  16 H :   -0.561795    0.007008
  17 H :   -0.451802    0.001223
  18 H :   -0.309429    0.008091
  19 H :   -0.292077    0.011971
  20 H :   -0.290663    0.007327
  21 H :   -0.289357    0.025553
  22 H :   -0.309127    0.011965
  23 H :   -0.265350    0.028217

  Mayer bond orders larger than 0.100000
B(  0-C ,  1-C ) :   1.0700 B(  0-C ,  3-O ) :   0.1613 B(  0-C ,  4-C ) :   0.7738
B(  0-C ,  8-H ) :   0.7702 B(  0-C ,  9-N ) :   0.6340 B(  0-C , 15-F ) :  -0.1147
B(  1-C ,  2-O ) :   0.6256 B(  1-C ,  3-O ) :   1.1637 B(  2-O ,  3-O ) :   0.1896
B(  2-O , 10-H ) :   0.7008 B(  4-C ,  5-F ) :  -0.3573 B(  4-C , 11-C ) :   0.5530
B(  4-C , 12-C ) :   0.4079 B(  4-C , 18-H ) :  -0.1080 B(  4-C , 19-H ) :  -0.1300
B(  4-C , 20-H ) :  -0.1584 B(  4-C , 22-H ) :  -0.1331 B(  5-F ,  6-S ) :   0.5200
B(  6-S ,  7-C ) :   1.0139 B(  7-C , 13-F ) :   0.4356 B(  7-C , 14-F ) :   0.5946
B(  7-C , 15-F ) :   0.6044 B(  9-N , 10-H ) :   0.1569 B(  9-N , 16-H ) :   1.0062
B(  9-N , 17-H ) :   1.0774 B( 11-C , 18-H ) :   1.0973 B( 11-C , 19-H ) :   1.0152
B( 11-C , 23-H ) :   0.9972 B( 12-C , 20-H ) :   1.1023 B( 12-C , 21-H ) :   0.9967
B( 12-C , 22-H ) :   1.0546

MP2 TOTAL ENERGY:    -1235.901060835 Eh
FINAL SINGLE POINT ENERGY     -1235.901060835025

DIPOLE MOMENT
-------------
                                X             Y             Z
Electronic contribution:    -25.23856      -7.86906      -0.24290
Nuclear contribution   :     22.73023       8.67276      -1.05827
                        -----------------------------------------
Total Dipole Moment    :     -2.50833       0.80370      -1.30118
                        -----------------------------------------
Magnitude (a.u.)       :      2.93781
Magnitude (Debye)      :      7.46732

Rotational constants in cm-1:     0.034601     0.010561     0.010025
Rotational constants in MHz :  1037.302089   316.614606   300.530139

                             ****ORCA TERMINATED NORMALLY****
TOTAL RUN TIME: 0 days 3 hours 34 minutes 30 seconds 723 msec
