                         Program Version 4.2.1 -  RELEASE  -
|  1> %pal
|  2>  nprocs 32
|  3> end
|  4> !RI-MP2 aug-cc-pVQZ aug-cc-pVQZ/C TightSCF
|  5> %maxcore 4500
|  6> *xyzfile 0 2  03_10R2.xyz
|  7>
|  8>
|  9>                          ****END OF INPUT****

CARTESIAN COORDINATES (ANGSTROEM)
---------------------------------
  S     -1.479997   -0.040422    0.000067
  C      0.323519   -0.004107    0.000003
  F      0.716912    1.275611   -0.001235
  F      0.849204   -0.601553   -1.073285
  F      0.849311   -0.599459    1.074399

 Total Charge           Charge          ....    0
 Multiplicity           Mult            ....    2
 Number of Electrons    NEL             ....   49
 Basis Dimension        Dim             ....  404

ORBITAL ENERGIES
----------------
                 SPIN UP ORBITALS
  NO   OCC          E(Eh)            E(eV)
   0   1.0000     -92.026734     -2504.1748
   1   1.0000     -26.359602      -717.2812
   2   1.0000     -26.354456      -717.1412
   3   1.0000     -26.354433      -717.1406
   4   1.0000     -11.548269      -314.2444
   5   1.0000      -9.028854      -245.6876
   6   1.0000      -6.724792      -182.9909
   7   1.0000      -6.705981      -182.4790
   8   1.0000      -6.704244      -182.4318
   9   1.0000      -1.751483       -47.6603
  10   1.0000      -1.657669       -45.1075
  11   1.0000      -1.652411       -44.9644
  12   1.0000      -1.087901       -29.6033
  13   1.0000      -0.946295       -25.7500
  14   1.0000      -0.846450       -23.0331
  15   1.0000      -0.842820       -22.9343
  16   1.0000      -0.791392       -21.5349
  17   1.0000      -0.732792       -19.9403
  18   1.0000      -0.728057       -19.8115
  19   1.0000      -0.685778       -18.6610
  20   1.0000      -0.682711       -18.5775
  21   1.0000      -0.667732       -18.1699
  22   1.0000      -0.553399       -15.0587
  23   1.0000      -0.503207       -13.6930
  24   1.0000      -0.435790       -11.8584
  25   0.0000       0.043094         1.1726
  26   0.0000       0.062232         1.6934
  27   0.0000       0.069023         1.8782
  28   0.0000       0.072965         1.9855
  29   0.0000       0.084493         2.2992

                 SPIN DOWN ORBITALS
  NO   OCC          E(Eh)            E(eV)
   0   1.0000     -92.017445     -2503.9220
   1   1.0000     -26.358295      -717.2457
   2   1.0000     -26.354269      -717.1361
   3   1.0000     -26.354246      -717.1355
   4   1.0000     -11.549397      -314.2751
   5   1.0000      -9.018606      -245.4087
   6   1.0000      -6.701112      -182.3465
   7   1.0000      -6.698982      -182.2886
   8   1.0000      -6.682521      -181.8406
   9   1.0000      -1.750152       -47.6241
  10   1.0000      -1.654947       -45.0334
  11   1.0000      -1.651906       -44.9506
  12   1.0000      -1.042349       -28.3638
  13   1.0000      -0.918757       -25.0006
  14   1.0000      -0.842622       -22.9289
  15   1.0000      -0.842582       -22.9278
  16   1.0000      -0.762014       -20.7355
  17   1.0000      -0.727424       -19.7942
  18   1.0000      -0.726390       -19.7661
  19   1.0000      -0.683403       -18.5963
  20   1.0000      -0.682185       -18.5632
  21   1.0000      -0.666782       -18.1441
  22   1.0000      -0.540446       -14.7063
  23   1.0000      -0.415482       -11.3058
  24   0.0000      -0.025986        -0.7071
  25   0.0000       0.044377         1.2075
  26   0.0000       0.062525         1.7014
  27   0.0000       0.073282         1.9941
  28   0.0000       0.077003         2.0954

MULLIKEN ATOMIC CHARGES AND SPIN POPULATIONS
--------------------------------------------
   0 S :    0.113505    1.059909
   1 C :    1.364773   -0.063772
   2 F :   -0.494834    0.005265
   3 F :   -0.491723   -0.000700
   4 F :   -0.491720   -0.000703
Sum of atomic charges         :    0.0000000

LOEWDIN ATOMIC CHARGES AND SPIN POPULATIONS
-------------------------------------------
   0 S :    0.905013    0.763794
   1 C :   -2.830818    0.194182
   2 F :    0.642273    0.027169
   3 F :    0.641767    0.007434
   4 F :    0.641766    0.007422

  Mayer bond orders larger than 0.100000
B(  0-S ,  1-C ) :   1.0411 B(  1-C ,  2-F ) :   0.6555 B(  1-C ,  3-F ) :   0.6533
B(  1-C ,  4-F ) :   0.6533

MP2 TOTAL ENERGY:     -735.017477980 Eh
FINAL SINGLE POINT ENERGY      -735.017477979566

DIPOLE MOMENT
-------------
                                X             Y             Z
Electronic contribution:      1.64428       0.03285      -0.00007
Nuclear contribution   :     -2.13051      -0.06595       0.00011
                        -----------------------------------------
Total Dipole Moment    :     -0.48623      -0.03310       0.00004
                        -----------------------------------------
Magnitude (a.u.)       :      0.48735
Magnitude (Debye)      :      1.23875

Rotational constants in cm-1:     0.190521     0.110607     0.109991
Rotational constants in MHz :  5711.670592  3315.903646  3297.456055

                             ****ORCA TERMINATED NORMALLY****
TOTAL RUN TIME: 0 days 0 hours 1 minutes 58 seconds 385 msec
