                         Program Version 4.2.1 -  RELEASE  -
|  1> %pal
|  2>  nprocs 32
|  3> end
|  4> !RI-MP2 aug-cc-pVQZ aug-cc-pVQZ/C TightSCF
|  5> %maxcore 4500
|  6> *xyzfile 0 1  02_40TS.xyz
|  7>
|  8>
|  9>                          ****END OF INPUT****

CARTESIAN COORDINATES (ANGSTROEM)
---------------------------------
  C      0.080678   -0.433051   -0.314444
  C      0.315333   -0.210657    1.100274
  C     -1.573670   -2.458912   -0.151011
  O     -2.045119   -1.869222   -1.245082
  C     -2.144360   -1.913152    0.993942
  C     -2.831004   -0.794902    0.582237
  C     -2.568408   -0.658541   -0.807726
  C     -0.960827    0.315059   -0.909126
  C     -1.342538    1.680537   -0.385936
  O     -0.272612    2.476911   -0.341786
  O     -2.460368    2.049469   -0.140438
  O     -0.416993    0.463616    1.800805
  O      1.411874   -0.820236    1.603130
  C      1.660193   -0.591247    2.991841
  C     -0.501332    3.792476    0.174486
  S      1.216649   -1.341810   -1.324517
  C      2.332938   -0.017518   -1.916790
  C      3.046857    0.727340   -0.800283
  O      3.810199   -0.119680    0.028534
  H     -0.975789   -3.344849   -0.296343
  H     -1.987602   -2.260240    2.002039
  H     -3.329820   -0.057778    1.187243
  H     -3.217517   -0.170756   -1.519160
  H      2.576354   -1.130607    3.218515
  H      0.834528   -0.968051    3.595231
  H      1.786620    0.473331    3.186759
  H      0.462492    4.292729    0.136226
  H     -0.860258    3.726479    1.201205
  H     -1.234972    4.320288   -0.433957
  H     -0.895199    0.341850   -1.994655
  H      1.768674    0.682744   -2.536576
  H      3.056851   -0.535596   -2.549036
  H      2.315928    1.300567   -0.217558
  H      3.744304    1.442282   -1.242882
  H      3.190029   -0.714899    0.469142

 Total Charge           Charge          ....    0
 Multiplicity           Mult            ....    1
 Number of Electrons    NEL             ....  152
 Basis Dimension        Dim             .... 2260

ORBITAL ENERGIES
----------------

  NO   OCC          E(Eh)            E(eV)
   0   2.0000     -91.940525     -2501.8289
   1   2.0000     -20.641355      -561.6798
   2   2.0000     -20.602652      -560.6267
   3   2.0000     -20.593382      -560.3744
   4   2.0000     -20.544460      -559.0432
   5   2.0000     -20.532784      -558.7254
   6   2.0000     -20.523492      -558.4726
   7   2.0000     -11.387129      -309.8595
   8   2.0000     -11.366218      -309.2905
   9   2.0000     -11.355321      -308.9940
  10   2.0000     -11.322174      -308.0920
  11   2.0000     -11.284494      -307.0667
  12   2.0000     -11.283542      -307.0408
  13   2.0000     -11.280169      -306.9490
  14   2.0000     -11.275386      -306.8188
  15   2.0000     -11.264189      -306.5142
  16   2.0000     -11.256878      -306.3152
  17   2.0000     -11.243949      -305.9634
  18   2.0000     -11.243023      -305.9382
  19   2.0000      -8.941884      -243.3210
  20   2.0000      -6.623553      -180.2361
  21   2.0000      -6.622474      -180.2067
  22   2.0000      -6.621923      -180.1917
  23   2.0000      -1.495013       -40.6814
  24   2.0000      -1.469497       -39.9870
  25   2.0000      -1.452253       -39.5178
  26   2.0000      -1.366500       -37.1844
  27   2.0000      -1.348110       -36.6839
  28   2.0000      -1.342326       -36.5266
  29   2.0000      -1.131929       -30.8013
  30   2.0000      -1.108194       -30.1555
  31   2.0000      -1.051665       -28.6172
  32   2.0000      -1.026394       -27.9296
  33   2.0000      -0.994718       -27.0676
  34   2.0000      -0.964780       -26.2530
  35   2.0000      -0.923841       -25.1390
  36   2.0000      -0.873432       -23.7673
  37   2.0000      -0.833347       -22.6765
  38   2.0000      -0.824490       -22.4355
  39   2.0000      -0.804693       -21.8968
  40   2.0000      -0.784978       -21.3603
  41   2.0000      -0.774137       -21.0654
  42   2.0000      -0.755245       -20.5513
  43   2.0000      -0.728041       -19.8110
  44   2.0000      -0.698019       -18.9941
  45   2.0000      -0.687437       -18.7061
  46   2.0000      -0.680343       -18.5131
  47   2.0000      -0.672310       -18.2945
  48   2.0000      -0.665094       -18.0981
  49   2.0000      -0.657187       -17.8830
  50   2.0000      -0.644403       -17.5351
  51   2.0000      -0.631668       -17.1886
  52   2.0000      -0.622581       -16.9413
  53   2.0000      -0.607443       -16.5294
  54   2.0000      -0.600752       -16.3473
  55   2.0000      -0.591621       -16.0988
  56   2.0000      -0.587863       -15.9966
  57   2.0000      -0.576777       -15.6949
  58   2.0000      -0.566495       -15.4151
  59   2.0000      -0.560112       -15.2414
  60   2.0000      -0.550824       -14.9887
  61   2.0000      -0.542978       -14.7752
  62   2.0000      -0.530404       -14.4330
  63   2.0000      -0.526054       -14.3146
  64   2.0000      -0.521577       -14.1928
  65   2.0000      -0.488350       -13.2887
  66   2.0000      -0.472720       -12.8634
  67   2.0000      -0.462952       -12.5976
  68   2.0000      -0.460512       -12.5312
  69   2.0000      -0.457005       -12.4357
  70   2.0000      -0.443051       -12.0560
  71   2.0000      -0.435812       -11.8590
  72   2.0000      -0.423166       -11.5149
  73   2.0000      -0.399388       -10.8679
  74   2.0000      -0.341927        -9.3043
  75   2.0000      -0.301622        -8.2075
  76   0.0000       0.020460         0.5568
  77   0.0000       0.024259         0.6601
  78   0.0000       0.027822         0.7571
  79   0.0000       0.030524         0.8306
  80   0.0000       0.036162         0.9840

MULLIKEN ATOMIC CHARGES
-----------------------
   0 C :    0.097807
   1 C :    2.143370
   2 C :    0.067021
   3 O :   -1.187264
   4 C :   -0.425832
   5 C :   -0.570904
   6 C :    0.584344
   7 C :   -0.296750
   8 C :    2.060102
   9 O :   -0.887697
  10 O :   -1.128791
  11 O :   -1.202199
  12 O :   -1.094912
  13 C :   -1.059864
  14 C :   -0.995093
  15 S :   -0.472845
  16 C :   -0.829912
  17 C :    0.136557
  18 O :   -1.085470
  19 H :    0.521458
  20 H :    0.331131
  21 H :    0.410354
  22 H :    0.610602
  23 H :    0.434622
  24 H :    0.388534
  25 H :    0.381778
  26 H :    0.413782
  27 H :    0.364995
  28 H :    0.381277
  29 H :    0.349203
  30 H :    0.361296
  31 H :    0.323974
  32 H :    0.035253
  33 H :    0.409120
  34 H :    0.430952
Sum of atomic charges:    0.0000000

LOEWDIN ATOMIC CHARGES
----------------------
   0 C :   -0.628302
   1 C :   -1.227789
   2 C :   -0.041854
   3 O :    0.909916
   4 C :    0.340984
   5 C :    0.330660
   6 C :   -0.174301
   7 C :   -0.027894
   8 C :   -1.141827
   9 O :    0.864603
  10 O :    0.762086
  11 O :    0.754639
  12 O :    0.845965
  13 C :    0.589252
  14 C :    0.593523
  15 S :    1.353300
  16 C :    0.197288
  17 C :    0.097825
  18 O :    1.279568
  19 H :   -0.281795
  20 H :   -0.289234
  21 H :   -0.277856
  22 H :   -0.282674
  23 H :   -0.314609
  24 H :   -0.312563
  25 H :   -0.309706
  26 H :   -0.317025
  27 H :   -0.307137
  28 H :   -0.314545
  29 H :   -0.336442
  30 H :   -0.352084
  31 H :   -0.373129
  32 H :   -0.335848
  33 H :   -0.310833
  34 H :   -0.962163

  Mayer bond orders larger than 0.100000
B(  0-C ,  1-C ) :   1.0797 B(  0-C ,  2-C ) :   0.1440 B(  0-C ,  4-C ) :  -0.1466
B(  0-C ,  7-C ) :   1.0419 B(  0-C ,  8-C ) :   0.1900 B(  0-C , 11-O ) :   0.4039
B(  0-C , 12-O ) :   0.1454 B(  0-C , 15-S ) :   0.8247 B(  1-C ,  4-C ) :   0.1101
B(  1-C , 11-O ) :   0.6784 B(  1-C , 12-O ) :   0.2330 B(  1-C , 13-C ) :  -0.4604
B(  1-C , 15-S ) :  -0.3408 B(  2-C ,  3-O ) :   0.9221 B(  2-C ,  4-C ) :   1.4831
B(  2-C , 19-H ) :   0.7269 B(  3-O ,  6-C ) :   0.4600 B(  3-O , 22-H ) :  -0.1029
B(  4-C ,  5-C ) :   1.3375 B(  4-C ,  6-C ) :  -0.4100 B(  4-C , 20-H ) :   0.9418
B(  5-C ,  6-C ) :   1.2109 B(  5-C , 21-H ) :   0.8604 B(  6-C ,  7-C ) :   0.5639
B(  6-C , 22-H ) :   0.6906 B(  7-C ,  8-C ) :   1.0017 B(  7-C , 10-O ) :   0.5592
B(  7-C , 15-S ) :  -0.2822 B(  7-C , 29-H ) :   0.9862 B(  8-C ,  9-O ) :   0.9170
B(  8-C , 10-O ) :   0.2619 B(  8-C , 14-C ) :  -0.2327 B(  9-O , 10-O ) :   0.1973
B(  9-O , 14-C ) :   0.9823 B(  9-O , 29-H ) :  -0.1192 B( 11-O , 12-O ) :   0.2255
B( 12-O , 13-C ) :   1.1221 B( 13-C , 23-H ) :   0.8630 B( 13-C , 24-H ) :   0.8866
B( 13-C , 25-H ) :   0.8914 B( 14-C , 26-H ) :   0.8737 B( 14-C , 27-H ) :   0.8793
B( 14-C , 28-H ) :   0.8905 B( 15-S , 16-C ) :   1.1395 B( 16-C , 17-C ) :   1.0267
B( 16-C , 18-O ) :   0.1422 B( 16-C , 30-H ) :   0.8356 B( 16-C , 31-H ) :   0.8512
B( 17-C , 18-O ) :   0.4151 B( 17-C , 32-H ) :   1.0019 B( 17-C , 33-H ) :   0.7790
B( 18-O , 32-H ) :   0.1135 B( 18-O , 34-H ) :   0.7399

MP2 TOTAL ENERGY:    -1314.607311204 Eh
FINAL SINGLE POINT ENERGY     -1314.607311203828

DIPOLE MOMENT
-------------
                                X             Y             Z
Electronic contribution:     -8.03401      -7.56435      -4.08851
Nuclear contribution   :      7.12643       7.39948       4.23174
                        -----------------------------------------
Total Dipole Moment    :     -0.90758      -0.16486       0.14323
                        -----------------------------------------
Magnitude (a.u.)       :      0.93348
Magnitude (Debye)      :      2.37273

Rotational constants in cm-1:     0.014424     0.011100     0.009422
Rotational constants in MHz :   432.413444   332.763017   282.475831

                             ****ORCA TERMINATED NORMALLY****
TOTAL RUN TIME: 0 days 6 hours 49 minutes 44 seconds 464 msec
