                         Program Version 4.2.1 -  RELEASE  -
|  1> %pal
|  2>  nprocs 32
|  3> end
|  4> !RI-MP2 aug-cc-pVQZ aug-cc-pVQZ/C TightSCF
|  5> %maxcore 4500
|  6> *xyzfile 0 1  05_18TS.xyz
|  7>
|  8>
|  9>                          ****END OF INPUT****

CARTESIAN COORDINATES (ANGSTROEM)
---------------------------------
  C      1.290956   -3.097931   -0.357344
  C      1.621286   -2.751874   -1.692983
  C      2.173558   -1.538190   -1.940145
  N      2.635907   -0.742598   -0.935603
  C      2.582653   -1.183779    0.351835
  C      1.992997   -2.362008    0.670270
  C      1.870758   -2.838574    2.072957
  O      0.954431   -3.567736    2.399423
  N      2.799374   -2.383342    2.963750
  C      2.817785    0.686593   -1.201241
  C      1.554933    1.498075   -0.885924
  C      2.158700    2.858834   -0.610966
  C      3.423347    2.493946    0.158552
  O      3.827371    1.206287   -0.380467
  H      3.073983    0.774826   -2.261313
  C      4.565492    3.470147    0.040944
  H      3.148425    2.354000    1.209481
  H      4.257809    4.438946    0.439556
  H      4.856065    3.595190   -1.003999
  H      5.432851    3.122380    0.603590
  O      1.347858    3.702654    0.167999
  H      2.413704    3.335900   -1.567092
  O      0.594222    1.515029   -1.882494
  H      1.140173    1.125912    0.061040
  H      0.085625    0.665082   -1.813137
  H      0.495741    3.790822   -0.272227
  H      3.698564   -2.057925    2.651437
  H      2.738087   -2.753702    3.899548
  H      2.294232   -1.148423   -2.940806
  H      1.291448   -3.356962   -2.524576
  H      3.027996   -0.517933    1.077369
  H     -0.083849   -2.522425   -0.311722
  H      0.973378   -4.104269   -0.112295
  C     -4.355977    0.735828   -0.042480
  C     -4.267062    1.919824    0.683776
  C     -3.122125    2.183661    1.411072
  C     -2.054995    1.281544    1.442311
  C     -2.139166    0.103707    0.735777
  C     -3.288399   -0.190496   -0.029589
  C     -3.372745   -1.393723   -0.847677
  C     -2.190492   -2.335543   -0.879567
  C     -0.892069   -1.585253   -0.581758
  H     -2.158889   -2.801032   -1.864002
  H     -2.374043   -3.113645   -0.130017
  C     -1.008264   -0.889462    0.776456
  H     -1.197350   -1.634175    1.556425
  H     -0.078014   -0.383229    1.033007
  H     -5.098327    2.614227    0.652420
  H     -1.177339    1.530422    2.024514
  O     -4.377576   -1.660251   -1.507677
  O     -0.390301   -0.911327   -1.563547
  O     -2.972857    3.326447    2.124748
  H     -3.758776    3.874246    2.038904
  O     -5.466226    0.515836   -0.743857
  H     -5.350869   -0.354144   -1.201808

 Total Charge           Charge          ....    0
 Multiplicity           Mult            ....    1
 Number of Electrons    NEL             ....  228
 Basis Dimension        Dim             .... 3584

ORBITAL ENERGIES
----------------

  NO   OCC          E(Eh)            E(eV)
   0   2.0000     -20.597994      -560.4999
   1   2.0000     -20.590796      -560.3040
   2   2.0000     -20.569909      -559.7357
   3   2.0000     -20.564190      -559.5801
   4   2.0000     -20.542436      -558.9881
   5   2.0000     -20.539808      -558.9166
   6   2.0000     -20.532064      -558.7059
   7   2.0000     -20.476286      -557.1881
   8   2.0000     -15.658096      -426.0785
   9   2.0000     -15.605325      -424.6425
  10   2.0000     -11.379955      -309.6643
  11   2.0000     -11.352173      -308.9083
  12   2.0000     -11.335704      -308.4602
  13   2.0000     -11.331314      -308.3407
  14   2.0000     -11.328889      -308.2747
  15   2.0000     -11.317466      -307.9639
  16   2.0000     -11.317297      -307.9593
  17   2.0000     -11.314582      -307.8854
  18   2.0000     -11.303214      -307.5761
  19   2.0000     -11.296018      -307.3803
  20   2.0000     -11.292388      -307.2815
  21   2.0000     -11.289929      -307.2146
  22   2.0000     -11.276210      -306.8413
  23   2.0000     -11.261308      -306.4358
  24   2.0000     -11.259619      -306.3898
  25   2.0000     -11.230760      -305.6045
  26   2.0000     -11.228816      -305.5516
  27   2.0000     -11.223500      -305.4069
  28   2.0000     -11.218646      -305.2749
  29   2.0000     -11.215547      -305.1905
  30   2.0000     -11.213051      -305.1226
  31   2.0000      -1.434828       -39.0436
  32   2.0000      -1.418901       -38.6102
  33   2.0000      -1.410653       -38.3858
  34   2.0000      -1.406930       -38.2845
  35   2.0000      -1.382358       -37.6159
  36   2.0000      -1.369396       -37.2631
  37   2.0000      -1.358466       -36.9657
  38   2.0000      -1.343388       -36.5554
  39   2.0000      -1.308734       -35.6125
  40   2.0000      -1.237036       -33.6615
  41   2.0000      -1.159223       -31.5441
  42   2.0000      -1.153005       -31.3749
  43   2.0000      -1.097985       -29.8777
  44   2.0000      -1.075253       -29.2591
  45   2.0000      -1.071709       -29.1627
  46   2.0000      -1.046018       -28.4636
  47   2.0000      -1.028322       -27.9821
  48   2.0000      -1.001380       -27.2489
  49   2.0000      -0.966973       -26.3127
  50   2.0000      -0.963156       -26.2088
  51   2.0000      -0.943003       -25.6604
  52   2.0000      -0.905965       -24.6526
  53   2.0000      -0.861658       -23.4469
  54   2.0000      -0.846917       -23.0458
  55   2.0000      -0.835963       -22.7477
  56   2.0000      -0.832798       -22.6616
  57   2.0000      -0.819536       -22.3007
  58   2.0000      -0.805813       -21.9273
  59   2.0000      -0.780563       -21.2402
  60   2.0000      -0.754175       -20.5222
  61   2.0000      -0.751439       -20.4477
  62   2.0000      -0.745599       -20.2888
  63   2.0000      -0.736015       -20.0280
  64   2.0000      -0.727836       -19.8054
  65   2.0000      -0.717481       -19.5236
  66   2.0000      -0.697709       -18.9856
  67   2.0000      -0.689990       -18.7756
  68   2.0000      -0.683754       -18.6059
  69   2.0000      -0.679291       -18.4844
  70   2.0000      -0.678690       -18.4681
  71   2.0000      -0.667886       -18.1741
  72   2.0000      -0.658609       -17.9217
  73   2.0000      -0.651151       -17.7187
  74   2.0000      -0.650083       -17.6896
  75   2.0000      -0.635491       -17.2926
  76   2.0000      -0.630585       -17.1591
  77   2.0000      -0.625590       -17.0232
  78   2.0000      -0.620243       -16.8777
  79   2.0000      -0.613313       -16.6891
  80   2.0000      -0.604655       -16.4535
  81   2.0000      -0.600620       -16.3437
  82   2.0000      -0.595206       -16.1964
  83   2.0000      -0.590623       -16.0717
  84   2.0000      -0.583021       -15.8648
  85   2.0000      -0.578920       -15.7532
  86   2.0000      -0.576593       -15.6899
  87   2.0000      -0.573778       -15.6133
  88   2.0000      -0.570258       -15.5175
  89   2.0000      -0.559246       -15.2179
  90   2.0000      -0.558598       -15.2002
  91   2.0000      -0.556985       -15.1563
  92   2.0000      -0.551403       -15.0044
  93   2.0000      -0.545714       -14.8496
  94   2.0000      -0.544214       -14.8088
  95   2.0000      -0.538314       -14.6483
  96   2.0000      -0.525613       -14.3027
  97   2.0000      -0.512941       -13.9578
  98   2.0000      -0.496910       -13.5216
  99   2.0000      -0.493547       -13.4301
 100   2.0000      -0.487294       -13.2599
 101   2.0000      -0.464839       -12.6489
 102   2.0000      -0.458293       -12.4708
 103   2.0000      -0.456603       -12.4248
 104   2.0000      -0.451284       -12.2801
 105   2.0000      -0.447482       -12.1766
 106   2.0000      -0.436605       -11.8806
 107   2.0000      -0.422150       -11.4873
 108   2.0000      -0.412622       -11.2280
 109   2.0000      -0.385424       -10.4879
 110   2.0000      -0.377837       -10.2815
 111   2.0000      -0.329632        -8.9697
 112   2.0000      -0.321402        -8.7458
 113   2.0000      -0.310700        -8.4546
 114   0.0000       0.010627         0.2892
 115   0.0000       0.019382         0.5274
 116   0.0000       0.021504         0.5852
 117   0.0000       0.025911         0.7051
 118   0.0000       0.030831         0.8390

MULLIKEN ATOMIC CHARGES
-----------------------
   0 C :    0.663544
   1 C :   -0.816783
   2 C :    0.334632
   3 N :   -0.687666
   4 C :    0.494388
   5 C :   -0.774686
   6 C :    1.561420
   7 O :   -1.085631
   8 N :   -0.974022
   9 C :    0.729828
  10 C :    0.773417
  11 C :    0.852192
  12 C :    0.469179
  13 O :   -1.236331
  14 H :    0.378356
  15 C :   -1.047066
  16 H :    0.161142
  17 H :    0.252806
  18 H :    0.231759
  19 H :    0.241951
  20 O :   -1.155701
  21 H :    0.124622
  22 O :   -1.432216
  23 H :    0.018800
  24 H :    0.479452
  25 H :    0.324446
  26 H :    0.336332
  27 H :    0.163491
  28 H :    0.238974
  29 H :    0.042335
  30 H :    0.401220
  31 H :   -0.280571
  32 H :    0.374657
  33 C :    1.469179
  34 C :   -1.232926
  35 C :    1.447426
  36 C :   -1.272701
  37 C :    0.620732
  38 C :   -0.872873
  39 C :    1.500358
  40 C :   -0.770595
  41 C :    1.338920
  42 H :    0.165476
  43 H :    0.261283
  44 C :   -0.115438
  45 H :    0.191486
  46 H :    0.196284
  47 H :    0.191456
  48 H :    0.155366
  49 O :   -1.051443
  50 O :   -1.219453
  51 O :   -0.885192
  52 H :    0.372071
  53 O :   -1.026851
  54 H :    0.379164
Sum of atomic charges:   -0.0000000

LOEWDIN ATOMIC CHARGES
----------------------
   0 C :    0.345762
   1 C :    0.404851
   2 C :    0.234290
   3 N :    0.494530
   4 C :    0.224365
   5 C :   -0.075855
   6 C :   -0.847835
   7 O :    0.729986
   8 N :    1.249360
   9 C :   -0.352035
  10 C :   -0.270432
  11 C :   -0.253192
  12 C :   -0.208471
  13 O :    0.949370
  14 H :   -0.298832
  15 C :    0.937264
  16 H :   -0.287304
  17 H :   -0.273533
  18 H :   -0.281242
  19 H :   -0.276823
  20 O :    1.324134
  21 H :   -0.275845
  22 O :    1.323896
  23 H :   -0.328562
  24 H :   -1.110569
  25 H :   -0.762522
  26 H :   -0.501787
  27 H :   -0.490363
  28 H :   -0.269219
  29 H :   -0.280545
  30 H :   -0.314713
  31 H :   -0.556881
  32 H :   -0.249142
  33 C :   -0.437761
  34 C :    0.339747
  35 C :   -0.426226
  36 C :    0.351617
  37 C :   -0.063740
  38 C :   -0.064461
  39 C :   -0.536393
  40 C :    0.507208
  41 C :   -0.540060
  42 H :   -0.289264
  43 H :   -0.260110
  44 C :    0.502816
  45 H :   -0.249832
  46 H :   -0.324405
  47 H :   -0.329484
  48 H :   -0.323823
  49 O :    0.898352
  50 O :    0.938790
  51 O :    1.294453
  52 H :   -0.794713
  53 O :    1.298897
  54 H :   -1.143710

  Mayer bond orders larger than 0.100000
B(  0-C ,  1-C ) :   0.9166 B(  0-C ,  2-C ) :  -0.1346 B(  0-C ,  5-C ) :   0.9056
B(  0-C ,  6-C ) :  -0.3644 B(  0-C ,  7-O ) :  -0.1173 B(  0-C , 32-H ) :   1.0936
B(  0-C , 41-C ) :  -0.1098 B(  1-C ,  2-C ) :   0.9524 B(  1-C ,  4-C ) :  -0.1367
B(  1-C , 28-H ) :  -0.2458 B(  1-C , 29-H ) :   1.4506 B(  1-C , 31-H ) :   0.1585
B(  1-C , 32-H ) :  -0.2313 B(  2-C ,  3-N ) :   1.1621 B(  2-C ,  4-C ) :   0.1858
B(  2-C , 28-H ) :   1.0959 B(  2-C , 29-H ) :  -0.1991 B(  3-N ,  4-C ) :   0.9873
B(  3-N ,  5-C ) :  -0.2031 B(  3-N ,  9-C ) :   1.1769 B(  4-C ,  5-C ) :   0.6316
B(  4-C ,  6-C ) :  -0.5152 B(  4-C ,  7-O ) :   0.1246 B(  4-C , 13-O ) :   0.1088
B(  4-C , 30-H ) :   0.9245 B(  5-C ,  6-C ) :   1.7450 B(  5-C ,  7-O ) :   0.5871
B(  5-C ,  8-N ) :  -0.1943 B(  5-C , 30-H ) :  -0.2095 B(  5-C , 31-H ) :  -0.1893
B(  5-C , 32-H ) :  -0.1026 B(  5-C , 41-C ) :   0.1818 B(  6-C ,  7-O ) :   0.5592
B(  6-C ,  8-N ) :   1.0367 B(  7-O ,  8-N ) :   0.2014 B(  7-O , 41-C ) :   0.1086
B(  7-O , 44-C ) :  -0.1723 B(  8-N , 26-H ) :   0.8578 B(  8-N , 27-H ) :   1.1168
B(  9-C , 10-C ) :   0.9825 B(  9-C , 13-O ) :   0.1265 B(  9-C , 14-H ) :   0.7717
B(  9-C , 22-O ) :   0.1642 B( 10-C , 11-C ) :   0.5145 B( 10-C , 13-O ) :   0.2485
B( 10-C , 20-O ) :   0.1822 B( 10-C , 21-H ) :  -0.2579 B( 10-C , 22-O ) :  -0.4720
B( 10-C , 23-H ) :   1.0542 B( 10-C , 46-H ) :  -0.1456 B( 11-C , 12-C ) :   0.9937
B( 11-C , 20-O ) :  -0.4280 B( 11-C , 21-H ) :   1.3235 B( 11-C , 23-H ) :  -0.2092
B( 12-C , 13-O ) :   0.6537 B( 12-C , 15-C ) :   0.1346 B( 12-C , 16-H ) :   1.0580
B( 12-C , 17-H ) :  -0.1880 B( 12-C , 18-H ) :  -0.1280 B( 12-C , 19-H ) :  -0.1883
B( 12-C , 20-O ) :   0.1625 B( 12-C , 23-H ) :  -0.1037 B( 13-O , 30-H ) :  -0.2013
B( 15-C , 17-H ) :   1.1031 B( 15-C , 18-H ) :   1.0463 B( 15-C , 19-H ) :   1.0892
B( 20-O , 23-H ) :   0.1907 B( 20-O , 25-H ) :   0.9734 B( 22-O , 23-H ) :   0.2909
B( 22-O , 24-H ) :   0.6167 B( 22-O , 41-C ) :   0.1128 B( 24-H , 50-O ) :   0.1224
B( 31-H , 32-H ) :  -0.1374 B( 31-H , 40-C ) :  -0.1248 B( 31-H , 41-C ) :   0.6522
B( 31-H , 50-O ) :  -0.1565 B( 33-C , 34-C ) :   1.4271 B( 33-C , 35-C ) :  -0.3494
B( 33-C , 37-C ) :  -0.4598 B( 33-C , 38-C ) :   1.2789 B( 33-C , 53-O ) :  -0.7516
B( 33-C , 54-H ) :  -0.1199 B( 34-C , 35-C ) :   1.6239 B( 34-C , 38-C ) :  -0.3366
B( 34-C , 47-H ) :   1.0116 B( 34-C , 51-O ) :   0.2831 B( 34-C , 52-H ) :   0.1445
B( 34-C , 53-O ) :   0.3154 B( 35-C , 36-C ) :   1.6944 B( 35-C , 37-C ) :  -0.9568
B( 35-C , 38-C ) :   0.1892 B( 35-C , 44-C ) :   0.1117 B( 35-C , 51-O ) :  -0.7154
B( 35-C , 52-H ) :  -0.1625 B( 36-C , 37-C ) :   0.5241 B( 36-C , 38-C ) :  -0.1559
B( 36-C , 44-C ) :  -0.2117 B( 36-C , 48-H ) :   1.0351 B( 36-C , 51-O ) :   0.5053
B( 37-C , 38-C ) :   0.8967 B( 37-C , 44-C ) :  -0.1408 B( 37-C , 46-H ) :   0.1012
B( 37-C , 48-H ) :  -0.1201 B( 37-C , 51-O ) :   0.1170 B( 38-C , 39-C ) :   0.7383
B( 38-C , 40-C ) :  -0.1953 B( 38-C , 44-C ) :  -0.4061 B( 38-C , 45-H ) :   0.1213
B( 38-C , 49-O ) :   0.7915 B( 38-C , 53-O ) :   0.8610 B( 38-C , 54-H ) :   0.2136
B( 39-C , 40-C ) :   1.1419 B( 39-C , 44-C ) :  -0.2005 B( 39-C , 49-O ) :  -0.6285
B( 39-C , 54-H ) :  -0.1023 B( 40-C , 41-C ) :   0.2916 B( 40-C , 42-H ) :   1.2219
B( 40-C , 43-H ) :   1.0597 B( 40-C , 49-O ) :   0.2577 B( 41-C , 42-H ) :  -0.2263
B( 41-C , 43-H ) :  -0.1821 B( 41-C , 44-C ) :   0.7253 B( 41-C , 49-O ) :   0.1683
B( 41-C , 50-O ) :   0.3910 B( 44-C , 45-H ) :   1.0191 B( 44-C , 46-H ) :   0.9006
B( 44-C , 50-O ) :   0.1940 B( 48-H , 51-O ) :   0.1216 B( 49-O , 54-H ) :   0.1546
B( 51-O , 52-H ) :   0.8930 B( 53-O , 54-H ) :   0.7505

MP2 TOTAL ENERGY:    -1523.714323930 Eh
FINAL SINGLE POINT ENERGY     -1523.714323929528

DIPOLE MOMENT
-------------
                                X             Y             Z
Electronic contribution:    -13.92566      -6.44143      -0.44607
Nuclear contribution   :     17.40842       6.45704       1.22228
                        -----------------------------------------
Total Dipole Moment    :      3.48277       0.01561       0.77622
                        -----------------------------------------
Magnitude (a.u.)       :      3.56825
Magnitude (Debye)      :      9.06978

Rotational constants in cm-1:     0.006075     0.003939     0.003063
Rotational constants in MHz :   182.115638   118.103022    91.819355

                             ****ORCA TERMINATED NORMALLY****
TOTAL RUN TIME: 1 days 5 hours 43 minutes 18 seconds 847 msec
