                         Program Version 4.2.1 -  RELEASE  -
|  1> %pal
|  2>  nprocs 32
|  3> end
|  4> !RI-MP2 aug-cc-pVQZ aug-cc-pVQZ/C TightSCF
|  5> %maxcore 4500
|  6> *xyzfile 0 1  05_15R1.xyz
|  7>
|  8>
|  9>                          ****END OF INPUT****

CARTESIAN COORDINATES (ANGSTROEM)
---------------------------------
  C      1.463432    0.525370   -0.856605
  C      0.042245    0.249800   -0.423109
  C     -0.806808    1.284660   -0.051836
  C     -0.439586   -1.057061   -0.409811
  C     -2.121122    1.025125    0.318022
  H     -0.437142    2.304597   -0.047639
  C     -1.747115   -1.320428   -0.033379
  H      0.225874   -1.866672   -0.686046
  C     -2.593377   -0.278493    0.328832
  H     -2.772548    1.841921    0.605080
  H     -2.110634   -2.341164   -0.024295
  H     -3.615786   -0.484812    0.621605
  O      2.408944   -0.347541   -0.276781
  C      2.577440   -0.148261    1.109256
  H      1.652455   -0.342846    1.662826
  H      3.346322   -0.844214    1.440913
  H      2.906166    0.877510    1.321283
  H      1.721879    1.569607   -0.633013
  H      1.561211    0.382126   -1.934678

 Total Charge           Charge          ....    0
 Multiplicity           Mult            ....    1
 Number of Electrons    NEL             ....   66
 Basis Dimension        Dim             .... 1180

ORBITAL ENERGIES
----------------

  NO   OCC          E(Eh)            E(eV)
   0   2.0000     -20.554892      -559.3270
   1   2.0000     -11.279448      -306.9294
   2   2.0000     -11.265871      -306.5599
   3   2.0000     -11.236732      -305.7670
   4   2.0000     -11.234773      -305.7137
   5   2.0000     -11.234008      -305.6929
   6   2.0000     -11.232786      -305.6596
   7   2.0000     -11.231983      -305.6378
   8   2.0000     -11.229249      -305.5634
   9   2.0000      -1.376955       -37.4689
  10   2.0000      -1.157909       -31.5083
  11   2.0000      -1.043439       -28.3934
  12   2.0000      -1.017024       -27.6746
  13   2.0000      -0.958777       -26.0897
  14   2.0000      -0.882519       -24.0146
  15   2.0000      -0.829864       -22.5818
  16   2.0000      -0.797096       -21.6901
  17   2.0000      -0.704798       -19.1785
  18   2.0000      -0.665075       -18.0976
  19   2.0000      -0.659321       -17.9410
  20   2.0000      -0.647110       -17.6088
  21   2.0000      -0.619058       -16.8454
  22   2.0000      -0.610176       -16.6037
  23   2.0000      -0.586978       -15.9725
  24   2.0000      -0.561527       -15.2799
  25   2.0000      -0.538556       -14.6548
  26   2.0000      -0.510023       -13.8784
  27   2.0000      -0.498102       -13.5541
  28   2.0000      -0.494164       -13.4469
  29   2.0000      -0.470075       -12.7914
  30   2.0000      -0.426367       -11.6020
  31   2.0000      -0.339730        -9.2445
  32   2.0000      -0.333173        -9.0661
  33   0.0000       0.024528         0.6674
  34   0.0000       0.028704         0.7811
  35   0.0000       0.030816         0.8386
  36   0.0000       0.036024         0.9803
  37   0.0000       0.041576         1.1313

MULLIKEN ATOMIC CHARGES
-----------------------
   0 C :    0.113128
   1 C :    0.506461
   2 C :   -0.606798
   3 C :   -0.408259
   4 C :   -0.315085
   5 H :    0.254162
   6 C :   -0.326543
   7 H :    0.341969
   8 C :   -0.356602
   9 H :    0.239146
  10 H :    0.221017
  11 H :    0.317427
  12 O :   -0.887188
  13 C :   -0.658042
  14 H :    0.282395
  15 H :    0.445801
  16 H :    0.239943
  17 H :    0.150489
  18 H :    0.446581
Sum of atomic charges:   -0.0000000

LOEWDIN ATOMIC CHARGES
----------------------
   0 C :    0.128655
   1 C :   -0.111181
   2 C :    0.339840
   3 C :    0.332859
   4 C :    0.342096
   5 H :   -0.316315
   6 C :    0.345538
   7 H :   -0.311702
   8 C :    0.334220
   9 H :   -0.320661
  10 H :   -0.319713
  11 H :   -0.322979
  12 O :    0.879554
  13 C :    0.565212
  14 H :   -0.312369
  15 H :   -0.319593
  16 H :   -0.302360
  17 H :   -0.324007
  18 H :   -0.307094

  Mayer bond orders larger than 0.100000
B(  0-C ,  1-C ) :   0.7757 B(  0-C ,  2-C ) :  -0.1132 B(  0-C ,  3-C ) :  -0.1092
B(  0-C , 12-O ) :   0.5770 B(  0-C , 17-H ) :   1.1311 B(  0-C , 18-H ) :   0.7504
B(  1-C ,  2-C ) :   0.8355 B(  1-C ,  3-C ) :   0.9868 B(  1-C ,  4-C ) :  -0.4109
B(  1-C ,  6-C ) :  -0.3034 B(  1-C , 17-H ) :  -0.1116 B(  2-C ,  4-C ) :   1.3999
B(  2-C ,  5-H ) :   1.0208 B(  2-C ,  6-C ) :   0.1704 B(  2-C ,  8-C ) :   0.1088
B(  2-C ,  9-H ) :  -0.1333 B(  3-C ,  4-C ) :   0.1425 B(  3-C ,  6-C ) :   1.3530
B(  3-C ,  7-H ) :   0.9055 B(  3-C , 10-H ) :  -0.1167 B(  4-C ,  8-C ) :   1.1566
B(  4-C ,  9-H ) :   1.1351 B(  6-C ,  8-C ) :   1.1469 B(  6-C , 10-H ) :   1.1400
B(  8-C ,  9-H ) :  -0.1050 B(  8-C , 11-H ) :   1.0251 B( 12-O , 13-C ) :   0.8758
B( 13-C , 14-H ) :   0.8763 B( 13-C , 15-H ) :   0.8240 B( 13-C , 16-H ) :   0.9615

MP2 TOTAL ENERGY:     -385.413392848 Eh
FINAL SINGLE POINT ENERGY      -385.413392847615

DIPOLE MOMENT
-------------
                                X             Y             Z
Electronic contribution:     -2.80588      -0.78727      -2.05997
Nuclear contribution   :      2.55255       1.10652       2.35561
                        -----------------------------------------
Total Dipole Moment    :     -0.25333       0.31925       0.29564
                        -----------------------------------------
Magnitude (a.u.)       :      0.50349
Magnitude (Debye)      :      1.27976

Rotational constants in cm-1:     0.120596     0.035327     0.031812
Rotational constants in MHz :  3615.373315  1059.091492   953.688990

                             ****ORCA TERMINATED NORMALLY****
TOTAL RUN TIME: 0 days 0 hours 36 minutes 59 seconds 319 msec
