                         Program Version 4.2.1 -  RELEASE  -
|  1> %pal
|  2>  nprocs 32
|  3> end
|  4> !RI-MP2 aug-cc-pVQZ aug-cc-pVQZ/C TightSCF
|  5> %maxcore 4500
|  6> *xyzfile 0 1  10_1R.xyz
|  7>
|  8>
|  9>                          ****END OF INPUT****

CARTESIAN COORDINATES (ANGSTROEM)
---------------------------------
  C      1.807395    0.866110    0.798597
  C      0.507556    0.010686    0.517989
  C      1.286102    2.300738    0.912072
  C      2.840126    0.806991   -0.333410
  C      0.895949   -1.318701   -0.125776
  C     -0.258754    0.944911   -0.411902
  C     -0.196131   -0.200744    1.882056
  C      1.864363   -1.265152   -1.278505
  C      3.171748   -0.601258   -0.818229
  C      3.896823   -1.439094    0.233066
  C      0.161342    2.353293   -0.104270
  C     -2.709685   -0.264844    1.315396
  C     -1.544629   -0.940095    1.962409
  N     -3.139707   -0.480380    0.113004
  O     -4.127149    0.132780   -0.413684
  C     -1.734239   -0.540511   -1.897666
  C     -2.427955   -1.377757   -0.811438
  H      2.259975    0.521381    1.729573
  H      2.037205    3.059166    0.691536
  H      0.875003    2.527398    1.898559
  H      3.747164    1.315198    0.006346
  H      2.467060    1.386182   -1.185347
  O      0.502695   -2.377923    0.309121
  H     -0.323452    0.780266    2.345218
  H      0.503511   -0.752512    2.515764
  H      1.432188   -0.672679   -2.089346
  H      2.025331   -2.284169   -1.630460
  H      3.825254   -0.514375   -1.690910
  H      4.146110   -2.426846   -0.159867
  H      3.290288   -1.593597    1.128719
  H      4.825889   -0.953396    0.539578
  O     -0.303002    3.350507   -0.593297
  H     -1.417899   -1.960645    1.613182
  H     -1.783177   -1.015486    3.027055
  H     -1.719450   -1.990299   -0.268037
  H     -3.188197   -2.013805   -1.260343
  C     -1.128247    0.739020   -1.399361
  H     -2.464757   -0.292768   -2.664893
  H     -0.975074   -1.174426   -2.367218
  H     -1.474658    1.648745   -1.882125
  H     -3.281308    0.484862    1.848706

 Total Charge           Charge          ....    0
 Multiplicity           Mult            ....    1
 Number of Electrons    NEL             ....  148
 Basis Dimension        Dim             .... 2566

ORBITAL ENERGIES
----------------

  NO   OCC          E(Eh)            E(eV)
   0   2.0000     -20.562981      -559.5472
   1   2.0000     -20.545412      -559.0691
   2   2.0000     -20.490618      -557.5781
   3   2.0000     -15.702050      -427.2745
   4   2.0000     -11.345551      -308.7281
   5   2.0000     -11.332844      -308.3824
   6   2.0000     -11.282110      -307.0018
   7   2.0000     -11.276249      -306.8423
   8   2.0000     -11.274881      -306.8051
   9   2.0000     -11.262662      -306.4726
  10   2.0000     -11.262066      -306.4564
  11   2.0000     -11.254235      -306.2433
  12   2.0000     -11.252562      -306.1978
  13   2.0000     -11.251138      -306.1590
  14   2.0000     -11.249188      -306.1060
  15   2.0000     -11.248446      -306.0858
  16   2.0000     -11.245431      -306.0037
  17   2.0000     -11.244723      -305.9845
  18   2.0000     -11.243536      -305.9522
  19   2.0000     -11.231647      -305.6286
  20   2.0000      -1.430546       -38.9271
  21   2.0000      -1.412132       -38.4261
  22   2.0000      -1.393408       -37.9166
  23   2.0000      -1.190536       -32.3961
  24   2.0000      -1.159981       -31.5647
  25   2.0000      -1.119689       -30.4683
  26   2.0000      -1.102880       -30.0109
  27   2.0000      -1.066873       -29.0311
  28   2.0000      -1.028291       -27.9812
  29   2.0000      -1.009405       -27.4673
  30   2.0000      -0.975359       -26.5409
  31   2.0000      -0.969165       -26.3723
  32   2.0000      -0.923205       -25.1217
  33   2.0000      -0.879637       -23.9361
  34   2.0000      -0.853879       -23.2352
  35   2.0000      -0.819870       -22.3098
  36   2.0000      -0.797648       -21.7051
  37   2.0000      -0.764663       -20.8075
  38   2.0000      -0.745669       -20.2907
  39   2.0000      -0.716640       -19.5008
  40   2.0000      -0.698154       -18.9977
  41   2.0000      -0.683476       -18.5983
  42   2.0000      -0.679869       -18.5002
  43   2.0000      -0.673881       -18.3372
  44   2.0000      -0.659675       -17.9507
  45   2.0000      -0.650079       -17.6896
  46   2.0000      -0.642518       -17.4838
  47   2.0000      -0.632927       -17.2228
  48   2.0000      -0.622199       -16.9309
  49   2.0000      -0.614435       -16.7196
  50   2.0000      -0.608804       -16.5664
  51   2.0000      -0.604664       -16.4538
  52   2.0000      -0.590085       -16.0570
  53   2.0000      -0.583324       -15.8731
  54   2.0000      -0.571326       -15.5466
  55   2.0000      -0.558064       -15.1857
  56   2.0000      -0.551670       -15.0117
  57   2.0000      -0.543981       -14.8025
  58   2.0000      -0.542293       -14.7565
  59   2.0000      -0.530329       -14.4310
  60   2.0000      -0.524628       -14.2759
  61   2.0000      -0.523206       -14.2372
  62   2.0000      -0.516535       -14.0556
  63   2.0000      -0.505305       -13.7501
  64   2.0000      -0.502464       -13.6728
  65   2.0000      -0.489256       -13.3133
  66   2.0000      -0.485352       -13.2071
  67   2.0000      -0.472208       -12.8494
  68   2.0000      -0.461793       -12.5660
  69   2.0000      -0.424129       -11.5411
  70   2.0000      -0.404887       -11.0175
  71   2.0000      -0.401356       -10.9215
  72   2.0000      -0.375286       -10.2121
  73   2.0000      -0.325809        -8.8657
  74   0.0000       0.014859         0.4043
  75   0.0000       0.019302         0.5252
  76   0.0000       0.023862         0.6493
  77   0.0000       0.027077         0.7368
  78   0.0000       0.032575         0.8864

MULLIKEN ATOMIC CHARGES
-----------------------
   0 C :   -0.199911
   1 C :    1.313880
   2 C :   -0.973464
   3 C :   -0.364606
   4 C :    2.367059
   5 C :    0.814545
   6 C :   -0.854687
   7 C :   -0.724344
   8 C :   -0.229571
   9 C :   -1.000184
  10 C :    1.370598
  11 C :   -0.241022
  12 C :   -0.195523
  13 N :    0.129390
  14 O :   -1.082920
  15 C :   -0.602672
  16 C :   -0.501760
  17 H :    0.344640
  18 H :    0.113017
  19 H :    0.198034
  20 H :    0.137280
  21 H :    0.253528
  22 O :   -1.402761
  23 H :    0.233913
  24 H :    0.041001
  25 H :    0.170275
  26 H :    0.159796
  27 H :    0.122341
  28 H :    0.202951
  29 H :    0.185368
  30 H :    0.207648
  31 O :   -1.122757
  32 H :    0.259422
  33 H :    0.177530
  34 H :    0.452598
  35 H :    0.365918
  36 C :   -0.990333
  37 H :    0.256914
  38 H :    0.266048
  39 H :    0.120083
  40 H :    0.222736
Sum of atomic charges:    0.0000000

LOEWDIN ATOMIC CHARGES
----------------------
   0 C :    0.132449
   1 C :   -0.243662
   2 C :    0.531151
   3 C :    0.547003
   4 C :   -0.616916
   5 C :   -0.043118
   6 C :    0.539102
   7 C :    0.518577
   8 C :    0.154718
   9 C :    0.950769
  10 C :   -0.645770
  11 C :    0.262550
  12 C :    0.564190
  13 N :   -0.195590
  14 O :    0.521077
  15 C :    0.554967
  16 C :    0.377212
  17 H :   -0.258876
  18 H :   -0.262270
  19 H :   -0.258964
  20 H :   -0.240470
  21 H :   -0.261479
  22 O :    0.856901
  23 H :   -0.287431
  24 H :   -0.263205
  25 H :   -0.278699
  26 H :   -0.278282
  27 H :   -0.252616
  28 H :   -0.260273
  29 H :   -0.282972
  30 H :   -0.260412
  31 O :    0.762797
  32 H :   -0.359499
  33 H :   -0.271338
  34 H :   -0.407817
  35 H :   -0.263358
  36 C :    0.406909
  37 H :   -0.281560
  38 H :   -0.276273
  39 H :   -0.324724
  40 H :   -0.304797

  Mayer bond orders larger than 0.100000
B(  0-C ,  1-C ) :   0.4905 B(  0-C ,  2-C ) :   0.8710 B(  0-C ,  3-C ) :   0.3924
B(  0-C ,  5-C ) :   0.2403 B(  0-C ,  8-C ) :  -0.1166 B(  0-C , 10-C ) :   0.2001
B(  0-C , 17-H ) :   1.0257 B(  0-C , 19-H ) :  -0.1136 B(  0-C , 20-H ) :  -0.1146
B(  0-C , 21-H ) :  -0.1029 B(  1-C ,  2-C ) :  -0.4157 B(  1-C ,  3-C ) :  -0.1776
B(  1-C ,  4-C ) :   0.9114 B(  1-C ,  5-C ) :   0.3635 B(  1-C ,  6-C ) :  -0.2640
B(  1-C ,  7-C ) :  -0.1037 B(  1-C , 10-C ) :  -0.2389 B(  1-C , 12-C ) :  -0.1481
B(  1-C , 19-H ) :  -0.1054 B(  1-C , 22-O ) :   0.6303 B(  1-C , 23-H ) :  -0.2488
B(  1-C , 24-H ) :  -0.3812 B(  1-C , 25-H ) :  -0.1131 B(  1-C , 31-O ) :   0.2231
B(  1-C , 36-C ) :   0.5952 B(  2-C ,  3-C ) :   0.1015 B(  2-C ,  5-C ) :  -0.3615
B(  2-C , 10-C ) :   1.2534 B(  2-C , 17-H ) :  -0.1159 B(  2-C , 18-H ) :   1.2277
B(  2-C , 19-H ) :   1.1768 B(  2-C , 31-O ) :   0.2700 B(  3-C ,  8-C ) :   0.7699
B(  3-C ,  9-C ) :  -0.1087 B(  3-C , 20-H ) :   1.1430 B(  3-C , 21-H ) :   1.0233
B(  4-C ,  7-C ) :   0.6370 B(  4-C , 22-O ) :  -0.5780 B(  5-C ,  6-C ) :  -0.2058
B(  5-C , 10-C ) :   0.8985 B(  5-C , 13-N ) :  -0.1297 B(  5-C , 14-O ) :  -0.1235
B(  5-C , 15-C ) :  -0.2402 B(  5-C , 22-O ) :   0.1871 B(  5-C , 31-O ) :   0.5656
B(  5-C , 36-C ) :   0.2115 B(  5-C , 39-H ) :  -0.3558 B(  6-C , 11-C ) :  -0.1828
B(  6-C , 12-C ) :   0.6493 B(  6-C , 23-H ) :   1.2127 B(  6-C , 24-H ) :   1.3337
B(  7-C ,  8-C ) :   0.7264 B(  7-C , 22-O ) :   0.2609 B(  7-C , 25-H ) :   1.0684
B(  7-C , 26-H ) :   1.1127 B(  8-C ,  9-C ) :   0.8408 B(  8-C , 27-H ) :   1.1381
B(  8-C , 28-H ) :  -0.1020 B(  9-C , 28-H ) :   1.1147 B(  9-C , 29-H ) :   1.0109
B(  9-C , 30-H ) :   1.0653 B( 10-C , 31-O ) :  -0.3534 B( 10-C , 36-C ) :  -0.2563
B( 11-C , 12-C ) :   0.6687 B( 11-C , 13-N ) :   1.6870 B( 11-C , 14-O ) :   0.1570
B( 11-C , 16-C ) :  -0.1407 B( 11-C , 33-H ) :  -0.1506 B( 11-C , 40-H ) :   1.0896
B( 12-C , 13-N ) :  -0.1270 B( 12-C , 32-H ) :   1.0694 B( 12-C , 33-H ) :   1.1189
B( 13-N , 14-O ) :   0.4848 B( 13-N , 15-C ) :  -0.1268 B( 13-N , 16-C ) :   0.6419
B( 13-N , 36-C ) :   0.1770 B( 14-O , 16-C ) :   0.1083 B( 14-O , 36-C ) :   0.1291
B( 15-C , 16-C ) :   0.9924 B( 15-C , 36-C ) :   0.8189 B( 15-C , 37-H ) :   1.0291
B( 15-C , 38-H ) :   0.9196 B( 16-C , 34-H ) :   0.8693 B( 16-C , 35-H ) :   0.9433
B( 31-O , 36-C ) :   0.1215 B( 31-O , 39-H ) :   0.1556 B( 36-C , 37-H ) :  -0.1641
B( 36-C , 39-H ) :   1.3210

MP2 TOTAL ENERGY:     -901.232242001 Eh
FINAL SINGLE POINT ENERGY      -901.232242000628

DIPOLE MOMENT
-------------
                                X             Y             Z
Electronic contribution:    -12.25994       4.94357      -1.54098
Nuclear contribution   :     14.86609      -5.96313       2.15557
                        -----------------------------------------
Total Dipole Moment    :      2.60614      -1.01955       0.61459
                        -----------------------------------------
Magnitude (a.u.)       :      2.86517
Magnitude (Debye)      :      7.28268

Rotational constants in cm-1:     0.018490     0.010380     0.008821
Rotational constants in MHz :   554.318986   311.185033   264.456566

                             ****ORCA TERMINATED NORMALLY****
TOTAL RUN TIME: 0 days 12 hours 31 minutes 47 seconds 711 msec
