                         Program Version 4.2.1 -  RELEASE  -
|  1> %pal
|  2>  nprocs 32
|  3> end
|  4> !RI-MP2 aug-cc-pVQZ aug-cc-pVQZ/C TightSCF
|  5> %maxcore 4500
|  6> *xyzfile 0 1  10_20P.xyz
|  7>
|  8>
|  9>                          ****END OF INPUT****

CARTESIAN COORDINATES (ANGSTROEM)
---------------------------------
  C     -3.945068   -2.134890   -0.507720
  C     -2.808340   -1.655211    0.125859
  C     -2.632170   -0.287259    0.313244
  C     -3.613938    0.588999   -0.136270
  C     -4.752000    0.110478   -0.770431
  C     -4.918990   -1.253986   -0.959255
  H     -4.073245   -3.201841   -0.644762
  H     -2.060295   -2.349551    0.489269
  H     -3.487927    1.655912    0.013024
  H     -5.510806    0.804063   -1.112287
  H     -5.807543   -1.630693   -1.451091
  C     -1.369425    0.252316    0.933485
  C     -0.156804    0.240446   -0.032794
  C     -0.052773    2.488641   -0.906341
  C      1.171587    1.952878    1.119625
  C      0.908301    3.622812   -1.237836
  H     -0.920945    2.900083   -0.358857
  H     -0.441158    2.037524   -1.823415
  C      2.177811    3.063106    0.848344
  H      0.377816    2.338570    1.783937
  H      1.656261    1.125455    1.638718
  C      1.541515    4.184864    0.032174
  H      0.373760    4.404384   -1.783874
  H      1.690296    3.237018   -1.898800
  H      2.560090    3.444528    1.798347
  H      3.024849    2.640416    0.300030
  H      2.281722    4.949581   -0.214831
  H      0.768513    4.676762    0.634630
  N      0.620982    1.454856   -0.134916
  N      0.601629   -0.842621    0.569673
  N      0.119186   -1.176255    1.792474
  N     -0.936325   -0.589217    2.072663
  C      1.743504   -1.468385    0.051564
  C      2.335347   -2.534619    0.730576
  C      2.280785   -1.035837   -1.159601
  C      3.450162   -3.155088    0.192670
  C      3.392882   -1.675626   -1.686819
  C      3.986378   -2.735637   -1.018314
  H      1.915202   -2.866989    1.668736
  H      3.901736   -3.981778    0.728041
  H      4.856572   -3.228454   -1.433117
  H      3.801522   -1.330843   -2.629233
  H      1.849269   -0.184637   -1.665626
  H     -1.555466    1.257992    1.311227
  H     -0.471122   -0.032851   -1.042286

 Total Charge           Charge          ....    0
 Multiplicity           Mult            ....    1
 Number of Electrons    NEL             ....  164
 Basis Dimension        Dim             .... 2852

ORBITAL ENERGIES
----------------

  NO   OCC          E(Eh)            E(eV)
   0   2.0000     -15.667448      -426.3329
   1   2.0000     -15.614823      -424.9009
   2   2.0000     -15.602101      -424.5548
   3   2.0000     -15.554199      -423.2513
   4   2.0000     -11.308780      -307.7275
   5   2.0000     -11.285029      -307.0812
   6   2.0000     -11.272722      -306.7464
   7   2.0000     -11.258135      -306.3494
   8   2.0000     -11.250589      -306.1441
   9   2.0000     -11.247369      -306.0565
  10   2.0000     -11.239294      -305.8367
  11   2.0000     -11.238097      -305.8042
  12   2.0000     -11.237704      -305.7935
  13   2.0000     -11.235835      -305.7426
  14   2.0000     -11.234867      -305.7163
  15   2.0000     -11.233806      -305.6874
  16   2.0000     -11.233193      -305.6707
  17   2.0000     -11.225469      -305.4605
  18   2.0000     -11.224170      -305.4252
  19   2.0000     -11.224031      -305.4214
  20   2.0000     -11.222399      -305.3770
  21   2.0000     -11.221530      -305.3534
  22   2.0000     -11.219988      -305.3114
  23   2.0000      -1.440172       -39.1891
  24   2.0000      -1.264443       -34.4072
  25   2.0000      -1.224712       -33.3261
  26   2.0000      -1.166966       -31.7548
  27   2.0000      -1.140351       -31.0305
  28   2.0000      -1.099699       -29.9243
  29   2.0000      -1.064019       -28.9534
  30   2.0000      -1.026999       -27.9461
  31   2.0000      -1.022441       -27.8220
  32   2.0000      -1.018131       -27.7047
  33   2.0000      -1.013121       -27.5684
  34   2.0000      -0.997210       -27.1355
  35   2.0000      -0.910960       -24.7885
  36   2.0000      -0.872649       -23.7460
  37   2.0000      -0.860195       -23.4071
  38   2.0000      -0.853264       -23.2185
  39   2.0000      -0.836526       -22.7630
  40   2.0000      -0.824125       -22.4256
  41   2.0000      -0.807404       -21.9706
  42   2.0000      -0.777387       -21.1538
  43   2.0000      -0.762632       -20.7523
  44   2.0000      -0.739125       -20.1126
  45   2.0000      -0.717163       -19.5150
  46   2.0000      -0.693622       -18.8744
  47   2.0000      -0.674753       -18.3610
  48   2.0000      -0.671536       -18.2734
  49   2.0000      -0.647807       -17.6277
  50   2.0000      -0.638433       -17.3726
  51   2.0000      -0.628505       -17.1025
  52   2.0000      -0.622795       -16.9471
  53   2.0000      -0.622173       -16.9302
  54   2.0000      -0.616522       -16.7764
  55   2.0000      -0.605414       -16.4742
  56   2.0000      -0.595446       -16.2029
  57   2.0000      -0.592433       -16.1209
  58   2.0000      -0.586582       -15.9617
  59   2.0000      -0.576093       -15.6763
  60   2.0000      -0.567737       -15.4489
  61   2.0000      -0.560605       -15.2548
  62   2.0000      -0.551709       -15.0128
  63   2.0000      -0.540682       -14.7127
  64   2.0000      -0.520175       -14.1547
  65   2.0000      -0.516262       -14.0482
  66   2.0000      -0.510747       -13.8981
  67   2.0000      -0.504940       -13.7401
  68   2.0000      -0.499896       -13.6029
  69   2.0000      -0.498149       -13.5553
  70   2.0000      -0.494504       -13.4561
  71   2.0000      -0.491586       -13.3767
  72   2.0000      -0.474810       -12.9202
  73   2.0000      -0.459567       -12.5054
  74   2.0000      -0.455166       -12.3857
  75   2.0000      -0.424216       -11.5435
  76   2.0000      -0.408534       -11.1168
  77   2.0000      -0.370847       -10.0913
  78   2.0000      -0.343804        -9.3554
  79   2.0000      -0.339101        -9.2274
  80   2.0000      -0.330813        -9.0019
  81   2.0000      -0.294364        -8.0101
  82   0.0000       0.018599         0.5061
  83   0.0000       0.023401         0.6368
  84   0.0000       0.024414         0.6643
  85   0.0000       0.028085         0.7642
  86   0.0000       0.030907         0.8410

MULLIKEN ATOMIC CHARGES
-----------------------
   0 C :   -0.501514
   1 C :   -0.510282
   2 C :    0.719978
   3 C :   -0.548811
   4 C :   -0.481092
   5 C :   -0.385789
   6 H :    0.200109
   7 H :    0.323006
   8 H :    0.271824
   9 H :    0.224922
  10 H :    0.357844
  11 C :    0.719447
  12 C :    0.848541
  13 C :   -0.484097
  14 C :   -0.565067
  15 C :   -0.602275
  16 H :    0.151682
  17 H :    0.307166
  18 C :   -0.592213
  19 H :    0.201664
  20 H :    0.311589
  21 C :   -0.534944
  22 H :    0.194696
  23 H :    0.122629
  24 H :    0.199330
  25 H :    0.159663
  26 H :    0.239570
  27 H :    0.065942
  28 N :    0.396906
  29 N :   -0.375493
  30 N :   -0.115805
  31 N :   -0.785872
  32 C :    0.910558
  33 C :   -0.761664
  34 C :   -0.337292
  35 C :   -0.324178
  36 C :   -0.502807
  37 C :   -0.537775
  38 H :    0.249234
  39 H :    0.179317
  40 H :    0.333095
  41 H :    0.175501
  42 H :    0.390870
  43 H :    0.442716
  44 H :    0.249173
Sum of atomic charges:    0.0000000

LOEWDIN ATOMIC CHARGES
----------------------
   0 C :    0.358045
   1 C :    0.349117
   2 C :   -0.086108
   3 C :    0.355220
   4 C :    0.350685
   5 C :    0.340867
   6 H :   -0.316518
   7 H :   -0.323966
   8 H :   -0.312381
   9 H :   -0.318710
  10 H :   -0.321318
  11 C :   -0.141594
  12 C :   -0.235976
  13 C :    0.363492
  14 C :    0.362550
  15 C :    0.546182
  16 H :   -0.253577
  17 H :   -0.269846
  18 C :    0.549523
  19 H :   -0.254858
  20 H :   -0.290774
  21 C :    0.539427
  22 H :   -0.255951
  23 H :   -0.260145
  24 H :   -0.253947
  25 H :   -0.258198
  26 H :   -0.256459
  27 H :   -0.262615
  28 N :    0.540352
  29 N :    0.211279
  30 N :    0.246984
  31 N :    0.412124
  32 C :   -0.241494
  33 C :    0.337344
  34 C :    0.346766
  35 C :    0.337078
  36 C :    0.344452
  37 C :    0.333663
  38 H :   -0.349261
  39 H :   -0.319065
  40 H :   -0.328010
  41 H :   -0.317622
  42 H :   -0.349312
  43 H :   -0.344904
  44 H :   -0.302540

  Mayer bond orders larger than 0.100000
B(  0-C ,  1-C ) :   1.2382 B(  0-C ,  2-C ) :  -0.4025 B(  0-C ,  3-C ) :   0.1372
B(  0-C ,  5-C ) :   1.2376 B(  0-C ,  6-H ) :   1.2060 B(  0-C , 10-H ) :  -0.1150
B(  1-C ,  2-C ) :   0.8777 B(  1-C ,  6-H ) :  -0.1627 B(  1-C ,  7-H ) :   0.9787
B(  1-C , 11-C ) :  -0.2560 B(  1-C , 12-C ) :  -0.1565 B(  2-C ,  3-C ) :   0.8000
B(  2-C ,  4-C ) :  -0.3340 B(  2-C ,  8-H ) :  -0.1283 B(  2-C , 11-C ) :   0.5098
B(  2-C , 12-C ) :  -0.2143 B(  2-C , 44-H ) :   0.1198 B(  3-C ,  4-C ) :   1.2364
B(  3-C ,  8-H ) :   1.0143 B(  3-C ,  9-H ) :  -0.1612 B(  4-C ,  5-C ) :   1.2093
B(  4-C ,  9-H ) :   1.1879 B(  5-C , 10-H ) :   0.9948 B( 11-C , 12-C ) :   0.9411
B( 11-C , 29-N ) :   0.1022 B( 11-C , 30-N ) :  -0.3926 B( 11-C , 31-N ) :   0.3203
B( 11-C , 32-C ) :  -0.1008 B( 11-C , 43-H ) :   0.8535 B( 11-C , 44-H ) :  -0.1058
B( 12-C , 13-C ) :  -0.1489 B( 12-C , 14-C ) :  -0.2405 B( 12-C , 28-N ) :   1.0125
B( 12-C , 29-N ) :   0.6495 B( 12-C , 30-N ) :   0.1142 B( 12-C , 32-C ) :   0.1419
B( 12-C , 44-H ) :   0.6928 B( 13-C , 14-C ) :   0.1359 B( 13-C , 15-C ) :   0.4866
B( 13-C , 16-H ) :   1.0847 B( 13-C , 17-H ) :   1.0035 B( 13-C , 21-C ) :  -0.1381
B( 13-C , 22-H ) :  -0.1311 B( 13-C , 23-H ) :  -0.1042 B( 13-C , 28-N ) :   0.5878
B( 14-C , 18-C ) :   0.4567 B( 14-C , 19-H ) :   1.0895 B( 14-C , 20-H ) :   0.8874
B( 14-C , 24-H ) :  -0.1411 B( 14-C , 28-N ) :   0.7926 B( 15-C , 21-C ) :   0.9143
B( 15-C , 22-H ) :   1.1014 B( 15-C , 23-H ) :   1.1635 B( 15-C , 28-N ) :  -0.1116
B( 16-H , 28-N ) :  -0.1074 B( 17-H , 28-N ) :  -0.1776 B( 18-C , 21-C ) :   0.9395
B( 18-C , 24-H ) :   1.1010 B( 18-C , 25-H ) :   1.1095 B( 18-C , 28-N ) :  -0.1358
B( 19-H , 28-N ) :  -0.1410 B( 21-C , 26-H ) :   0.9795 B( 21-C , 27-H ) :   1.1376
B( 21-C , 28-N ) :  -0.1351 B( 28-N , 32-C ) :   0.1328 B( 28-N , 34-C ) :  -0.2268
B( 29-N , 30-N ) :   0.7002 B( 29-N , 31-N ) :   0.1148 B( 29-N , 32-C ) :   1.1880
B( 29-N , 37-C ) :   0.1884 B( 30-N , 31-N ) :   1.0500 B( 30-N , 32-C ) :  -0.1294
B( 30-N , 33-C ) :  -0.1619 B( 31-N , 43-H ) :  -0.1491 B( 32-C , 33-C ) :   0.6905
B( 32-C , 34-C ) :   0.8846 B( 32-C , 35-C ) :  -0.5725 B( 32-C , 36-C ) :  -0.4709
B( 32-C , 37-C ) :  -0.3619 B( 32-C , 40-H ) :   0.1064 B( 33-C , 34-C ) :   0.1200
B( 33-C , 35-C ) :   1.4537 B( 33-C , 37-C ) :   0.2289 B( 33-C , 38-H ) :   0.9616
B( 33-C , 39-H ) :  -0.1916 B( 33-C , 40-H ) :  -0.1222 B( 34-C , 35-C ) :   0.1008
B( 34-C , 36-C ) :   1.3493 B( 34-C , 41-H ) :  -0.1413 B( 34-C , 42-H ) :   0.8551
B( 35-C , 37-C ) :   1.1345 B( 35-C , 39-H ) :   1.2359 B( 36-C , 37-C ) :   1.2354
B( 36-C , 40-H ) :  -0.1057 B( 36-C , 41-H ) :   1.1984 B( 36-C , 42-H ) :  -0.1169
B( 37-C , 39-H ) :  -0.1166 B( 37-C , 40-H ) :   1.0221 B( 37-C , 41-H ) :  -0.1097

MP2 TOTAL ENERGY:     -954.567300177 Eh
FINAL SINGLE POINT ENERGY      -954.567300176622

DIPOLE MOMENT
-------------
                                X             Y             Z
Electronic contribution:     -4.90022     -15.84642       4.72575
Nuclear contribution   :      4.75605      16.74437      -5.69641
                        -----------------------------------------
Total Dipole Moment    :     -0.14417       0.89795      -0.97066
                        -----------------------------------------
Magnitude (a.u.)       :      1.33014
Magnitude (Debye)      :      3.38094

Rotational constants in cm-1:     0.010416     0.007098     0.004988
Rotational constants in MHz :   312.255051   212.792771   149.537627

                             ****ORCA TERMINATED NORMALLY****
TOTAL RUN TIME: 0 days 13 hours 9 minutes 43 seconds 701 msec
