                         Program Version 4.2.1 -  RELEASE  -
|  1> %pal
|  2>  nprocs 32
|  3> end
|  4> !RI-MP2 aug-cc-pVQZ aug-cc-pVQZ/C TightSCF
|  5> %maxcore 4500
|  6> *xyzfile 0 1  04_22R1.xyz
|  7>
|  8>
|  9>                          ****END OF INPUT****

CARTESIAN COORDINATES (ANGSTROEM)
---------------------------------
  C     -2.785712   -0.500994   -0.430158
  C     -0.917998    0.201177    0.805783
  C      0.527067    0.652407    0.636252
  C      0.645054    1.985900   -0.088877
  C      1.336930   -0.421942   -0.058244
  O      1.203487   -1.623864    0.543890
  O      2.048293   -0.263048   -1.010331
  H     -2.852375   -1.453277    0.111158
  H     -3.451470    0.226099    0.052601
  H     -3.110157   -0.651736   -1.458483
  H      0.116532    2.761325    0.469238
  H      0.209568    1.916535   -1.084838
  H      1.687837    2.282529   -0.195637
  H     -1.485690    0.986353    1.325086
  H     -0.964431   -0.713145    1.408690
  H      0.948360    0.736362    1.644856
  H      1.745800   -2.251273    0.046548
  O     -1.461282   -0.030470   -0.472028

 Total Charge           Charge          ....    0
 Multiplicity           Mult            ....    1
 Number of Electrons    NEL             ....   64
 Basis Dimension        Dim             .... 1100

ORBITAL ENERGIES
----------------

  NO   OCC          E(Eh)            E(eV)
   0   2.0000     -20.605082      -560.6928
   1   2.0000     -20.561764      -559.5140
   2   2.0000     -20.541247      -558.9557
   3   2.0000     -11.377389      -309.5945
   4   2.0000     -11.285361      -307.0903
   5   2.0000     -11.275043      -306.8095
   6   2.0000     -11.250272      -306.1355
   7   2.0000     -11.213772      -305.1423
   8   2.0000      -1.463369       -39.8203
   9   2.0000      -1.387402       -37.7531
  10   2.0000      -1.358623       -36.9700
  11   2.0000      -1.092176       -29.7196
  12   2.0000      -0.960528       -26.1373
  13   2.0000      -0.913673       -24.8623
  14   2.0000      -0.874968       -23.8091
  15   2.0000      -0.778352       -21.1800
  16   2.0000      -0.703824       -19.1520
  17   2.0000      -0.699689       -19.0395
  18   2.0000      -0.677831       -18.4447
  19   2.0000      -0.667120       -18.1533
  20   2.0000      -0.640802       -17.4371
  21   2.0000      -0.612592       -16.6695
  22   2.0000      -0.589859       -16.0509
  23   2.0000      -0.576728       -15.6936
  24   2.0000      -0.557455       -15.1691
  25   2.0000      -0.525090       -14.2884
  26   2.0000      -0.515374       -14.0240
  27   2.0000      -0.494624       -13.4594
  28   2.0000      -0.484530       -13.1847
  29   2.0000      -0.477957       -13.0059
  30   2.0000      -0.445988       -12.1360
  31   2.0000      -0.430307       -11.7093
  32   0.0000       0.022934         0.6241
  33   0.0000       0.030278         0.8239
  34   0.0000       0.030668         0.8345
  35   0.0000       0.036675         0.9980
  36   0.0000       0.044728         1.2171

MULLIKEN ATOMIC CHARGES
-----------------------
   0 C :   -0.745340
   1 C :    0.145934
   2 C :   -0.239852
   3 C :   -0.846701
   4 C :    1.281968
   5 O :   -0.740959
   6 O :   -0.873926
   7 H :    0.290733
   8 H :    0.255352
   9 H :    0.372396
  10 H :    0.242193
  11 H :    0.211500
  12 H :    0.247200
  13 H :    0.316787
  14 H :    0.257621
  15 H :    0.362494
  16 H :    0.317374
  17 O :   -0.854773
Sum of atomic charges:    0.0000000

LOEWDIN ATOMIC CHARGES
----------------------
   0 C :    0.573250
   1 C :    0.111007
   2 C :    0.018650
   3 C :    0.893499
   4 C :   -1.031635
   5 O :    1.268658
   6 O :    0.737610
   7 H :   -0.305026
   8 H :   -0.304062
   9 H :   -0.321497
  10 H :   -0.274108
  11 H :   -0.287521
  12 H :   -0.284767
  13 H :   -0.282559
  14 H :   -0.310634
  15 H :   -0.285234
  16 H :   -0.806453
  17 O :    0.890820

  Mayer bond orders larger than 0.100000
B(  0-C ,  1-C ) :  -0.1538 B(  0-C ,  7-H ) :   0.8987 B(  0-C ,  8-H ) :   0.9401
B(  0-C ,  9-H ) :   0.9022 B(  0-C , 17-O ) :   1.0546 B(  1-C ,  2-C ) :   0.8731
B(  1-C , 13-H ) :   0.8978 B(  1-C , 14-H ) :   0.9035 B(  1-C , 17-O ) :   0.6404
B(  2-C ,  3-C ) :   0.7579 B(  2-C ,  4-C ) :   1.0480 B(  2-C ,  6-O ) :   0.1410
B(  2-C , 15-H ) :   0.8030 B(  3-C , 10-H ) :   1.0101 B(  3-C , 11-H ) :   0.9850
B(  3-C , 12-H ) :   1.0208 B(  4-C ,  5-O ) :   0.8353 B(  4-C ,  6-O ) :   1.1873
B(  5-O ,  6-O ) :   0.1042 B(  5-O , 16-H ) :   0.9358

MP2 TOTAL ENERGY:     -421.625247151 Eh
FINAL SINGLE POINT ENERGY      -421.625247150541

DIPOLE MOMENT
-------------
                                X             Y             Z
Electronic contribution:      6.45566      -4.05551      -1.39079
Nuclear contribution   :     -7.25238       3.87613       2.34470
                        -----------------------------------------
Total Dipole Moment    :     -0.79672      -0.17939       0.95391
                        -----------------------------------------
Magnitude (a.u.)       :      1.25574
Magnitude (Debye)      :      3.19184

Rotational constants in cm-1:     0.095125     0.048570     0.039672
Rotational constants in MHz :  2851.768780  1456.089456  1189.322234

                             ****ORCA TERMINATED NORMALLY****
TOTAL RUN TIME: 0 days 0 hours 29 minutes 6 seconds 438 msec
