                         Program Version 4.2.1 -  RELEASE  -
|  1> %pal
|  2>  nprocs 32
|  3> end
|  4> !RI-MP2 aug-cc-pVQZ aug-cc-pVQZ/C TightSCF
|  5> %maxcore 4500
|  6> *xyzfile 0 2  04_85P1.xyz
|  7>
|  8>
|  9>                          ****END OF INPUT****

CARTESIAN COORDINATES (ANGSTROEM)
---------------------------------
  O     -2.243740    1.036689   -0.006231
  C     -2.045998   -0.164869   -0.056813
  O     -2.882403   -0.998234   -0.700946
  C     -0.912635   -0.830986    0.537297
  C      0.036164   -0.096547    1.412486
  H     -0.747637   -1.873313    0.297039
  C      1.157101    0.640796    0.642539
  H      0.521632   -0.807194    2.081279
  H     -0.500452    0.644982    2.008411
  C      1.932992   -0.375173   -0.213817
  O      2.027823   -0.035387   -1.492411
  N      0.682783    1.744579   -0.190479
  H     -3.593129   -0.462243   -1.078908
  H      1.869360    1.005937    1.386229
  H      1.068148    2.633872    0.096389
  H     -0.331311    1.818918   -0.197372
  H      1.542358    0.820251   -1.560941
  O      2.396545   -1.382142    0.245974

 Total Charge           Charge          ....    0
 Multiplicity           Mult            ....    2
 Number of Electrons    NEL             ....   77
 Basis Dimension        Dim             .... 1168

ORBITAL ENERGIES
----------------
                 SPIN UP ORBITALS
  NO   OCC          E(Eh)            E(eV)
   0   1.0000     -20.624203      -561.2131
   1   1.0000     -20.594247      -560.3980
   2   1.0000     -20.575622      -559.8911
   3   1.0000     -20.533140      -558.7351
   4   1.0000     -15.571409      -423.7196
   5   1.0000     -11.399434      -310.1944
   6   1.0000     -11.372161      -309.4522
   7   1.0000     -11.298618      -307.4510
   8   1.0000     -11.288027      -307.1628
   9   1.0000     -11.259564      -306.3883
  10   1.0000      -1.486269       -40.4434
  11   1.0000      -1.456332       -39.6288
  12   1.0000      -1.387449       -37.7544
  13   1.0000      -1.358807       -36.9750
  14   1.0000      -1.222516       -33.2664
  15   1.0000      -1.112177       -30.2639
  16   1.0000      -1.003544       -27.3078
  17   1.0000      -0.908994       -24.7350
  18   1.0000      -0.819133       -22.2898
  19   1.0000      -0.798148       -21.7187
  20   1.0000      -0.742096       -20.1934
  21   1.0000      -0.731612       -19.9082
  22   1.0000      -0.727116       -19.7858
  23   1.0000      -0.697035       -18.9673
  24   1.0000      -0.679582       -18.4924
  25   1.0000      -0.656972       -17.8771
  26   1.0000      -0.632439       -17.2095
  27   1.0000      -0.628938       -17.1143
  28   1.0000      -0.613233       -16.6869
  29   1.0000      -0.596414       -16.2292
  30   1.0000      -0.564328       -15.3562
  31   1.0000      -0.547949       -14.9104
  32   1.0000      -0.539933       -14.6923
  33   1.0000      -0.530158       -14.4263
  34   1.0000      -0.493864       -13.4387
  35   1.0000      -0.471333       -12.8256
  36   1.0000      -0.466994       -12.7075
  37   1.0000      -0.424463       -11.5502
  38   1.0000      -0.398157       -10.8344
  39   0.0000       0.019454         0.5294
  40   0.0000       0.025298         0.6884
  41   0.0000       0.030954         0.8423
  42   0.0000       0.039276         1.0687
  43   0.0000       0.041930         1.1410

                 SPIN DOWN ORBITALS
  NO   OCC          E(Eh)            E(eV)
   0   1.0000     -20.624152      -561.2117
   1   1.0000     -20.594242      -560.3978
   2   1.0000     -20.565089      -559.6045
   3   1.0000     -20.533224      -558.7374
   4   1.0000     -15.571520      -423.7226
   5   1.0000     -11.404390      -310.3292
   6   1.0000     -11.372265      -309.4551
   7   1.0000     -11.296216      -307.3857
   8   1.0000     -11.266884      -306.5875
   9   1.0000     -11.262312      -306.4631
  10   1.0000      -1.480634       -40.2901
  11   1.0000      -1.456279       -39.6274
  12   1.0000      -1.370434       -37.2914
  13   1.0000      -1.358923       -36.9782
  14   1.0000      -1.220431       -33.2096
  15   1.0000      -1.075893       -29.2765
  16   1.0000      -0.979309       -26.6483
  17   1.0000      -0.907109       -24.6837
  18   1.0000      -0.812088       -22.0980
  19   1.0000      -0.788764       -21.4634
  20   1.0000      -0.735089       -20.0028
  21   1.0000      -0.726154       -19.7596
  22   1.0000      -0.719592       -19.5811
  23   1.0000      -0.688151       -18.7255
  24   1.0000      -0.672597       -18.3023
  25   1.0000      -0.641861       -17.4659
  26   1.0000      -0.628914       -17.1136
  27   1.0000      -0.626744       -17.0546
  28   1.0000      -0.608888       -16.5687
  29   1.0000      -0.589454       -16.0398
  30   1.0000      -0.558315       -15.1925
  31   1.0000      -0.537857       -14.6358
  32   1.0000      -0.530371       -14.4321
  33   1.0000      -0.483674       -13.1614
  34   1.0000      -0.477427       -12.9915
  35   1.0000      -0.467930       -12.7330
  36   1.0000      -0.466854       -12.7038
  37   1.0000      -0.414221       -11.2715
  38   0.0000       0.019000         0.5170
  39   0.0000       0.024334         0.6622
  40   0.0000       0.030664         0.8344
  41   0.0000       0.032981         0.8975
  42   0.0000       0.039374         1.0714

MULLIKEN ATOMIC CHARGES AND SPIN POPULATIONS
--------------------------------------------
   0 O :   -0.822011    0.240307
   1 C :    1.277333   -0.190246
   2 O :   -0.759694    0.003761
   3 C :   -0.589515    1.109427
   4 C :   -0.477922   -0.195778
   5 H :    0.408603   -0.072464
   6 C :   -0.003372    0.060745
   7 H :    0.253413    0.019183
   8 H :    0.253631    0.030319
   9 C :    1.246291    0.005726
  10 O :   -0.945997    0.002276
  11 N :   -0.666467   -0.004560
  12 H :    0.342425   -0.003392
  13 H :    0.481102   -0.004003
  14 H :    0.191354   -0.000528
  15 H :    0.290752    0.001566
  16 H :    0.373537    0.001831
  17 O :   -0.853462   -0.004169
Sum of atomic charges         :   -0.0000000

LOEWDIN ATOMIC CHARGES AND SPIN POPULATIONS
-------------------------------------------
   0 O :    0.767296    0.158745
   1 C :   -1.008854    0.126446
   2 O :    1.247481    0.000390
   3 C :    0.380374    0.398948
   4 C :    0.475078    0.112540
   5 H :   -0.301937    0.130781
   6 C :   -0.049809    0.029888
   7 H :   -0.295806    0.009922
   8 H :   -0.288606    0.011390
   9 C :   -1.048091    0.010757
  10 O :    1.261640    0.000863
  11 N :    1.300885    0.004047
  12 H :   -0.810470   -0.003288
  13 H :   -0.285197    0.006467
  14 H :   -0.443299    0.000325
  15 H :   -0.631292    0.001754
  16 H :   -0.955186    0.000664
  17 O :    0.685793   -0.000639

  Mayer bond orders larger than 0.100000
B(  0-O ,  1-C ) :   1.3255 B(  0-O ,  3-C ) :   0.1285 B(  1-C ,  2-O ) :   0.6379
B(  1-C ,  3-C ) :   1.1590 B(  1-C ,  4-C ) :  -0.1052 B(  2-O ,  3-C ) :   0.2028
B(  2-O , 12-H ) :   0.9367 B(  3-C ,  4-C ) :   1.0021 B(  3-C ,  5-H ) :   0.8289
B(  4-C ,  6-C ) :   0.9075 B(  4-C ,  7-H ) :   0.9173 B(  4-C ,  8-H ) :   0.8902
B(  6-C ,  9-C ) :   1.0274 B(  6-C , 10-O ) :   0.1124 B(  6-C , 11-N ) :   0.7989
B(  6-C , 13-H ) :   0.7039 B(  6-C , 17-O ) :   0.1526 B(  9-C , 10-O ) :   0.6525
B(  9-C , 17-O ) :   1.3642 B( 10-O , 16-H ) :   0.7452 B( 10-O , 17-O ) :   0.1361
B( 11-N , 14-H ) :   1.0360 B( 11-N , 15-H ) :   0.9236 B( 11-N , 16-H ) :   0.1446

MP2 TOTAL ENERGY:     -550.243391712 Eh
FINAL SINGLE POINT ENERGY      -550.243391712212

DIPOLE MOMENT
-------------
                                X             Y             Z
Electronic contribution:     -0.93817      -2.59037      -2.41038
Nuclear contribution   :     -0.17624       3.73074       2.96920
                        -----------------------------------------
Total Dipole Moment    :     -1.11441       1.14038       0.55882
                        -----------------------------------------
Magnitude (a.u.)       :      1.68957
Magnitude (Debye)      :      4.29456

Rotational constants in cm-1:     0.073198     0.027527     0.025591
Rotational constants in MHz :  2194.430919   825.251702   767.208063

                             ****ORCA TERMINATED NORMALLY****
TOTAL RUN TIME: 0 days 1 hours 18 minutes 55 seconds 61 msec
