                         Program Version 4.2.1 -  RELEASE  -
|  1> %pal
|  2>  nprocs 32
|  3> end
|  4> !RI-MP2 aug-cc-pVQZ aug-cc-pVQZ/C TightSCF
|  5> %maxcore 4500
|  6> *xyzfile 0 1  04_39P2.xyz
|  7>
|  8>
|  9>                          ****END OF INPUT****

CARTESIAN COORDINATES (ANGSTROEM)
---------------------------------
  C     -1.637814   -0.349840   -0.053366
  C     -0.497007    0.643021    0.091003
  H     -1.588747   -0.865347   -1.013451
  H     -2.600737    0.163382    0.015235
  H     -1.605351   -1.105085    0.734929
  S      1.163671   -0.099244   -0.079852
  H     -0.550841    1.173215    1.041893
  H     -0.537137    1.395314   -0.697938
  H      1.073007   -0.932663    0.971150

 Total Charge           Charge          ....    0
 Multiplicity           Mult            ....    1
 Number of Electrons    NEL             ....   34
 Basis Dimension        Dim             ....  520

ORBITAL ENERGIES
----------------

  NO   OCC          E(Eh)            E(eV)
   0   2.0000     -91.947507     -2502.0189
   1   2.0000     -11.261964      -306.4536
   2   2.0000     -11.225370      -305.4578
   3   2.0000      -8.949856      -243.5380
   4   2.0000      -6.631462      -180.4513
   5   2.0000      -6.630508      -180.4253
   6   2.0000      -6.629619      -180.4011
   7   2.0000      -1.069904       -29.1136
   8   2.0000      -0.942499       -25.6467
   9   2.0000      -0.822274       -22.3752
  10   2.0000      -0.636603       -17.3229
  11   2.0000      -0.591167       -16.0865
  12   2.0000      -0.555146       -15.1063
  13   2.0000      -0.523881       -14.2555
  14   2.0000      -0.497256       -13.5310
  15   2.0000      -0.445988       -12.1360
  16   2.0000      -0.355577        -9.6757
  17   0.0000       0.026162         0.7119
  18   0.0000       0.034901         0.9497
  19   0.0000       0.037695         1.0257
  20   0.0000       0.040606         1.1049
  21   0.0000       0.056701         1.5429

MULLIKEN ATOMIC CHARGES
-----------------------
   0 C :   -0.777011
   1 C :   -0.453464
   2 H :    0.269562
   3 H :    0.246824
   4 H :    0.254536
   5 S :   -0.152889
   6 H :    0.272213
   7 H :    0.303231
   8 H :    0.036997
Sum of atomic charges:    0.0000000

LOEWDIN ATOMIC CHARGES
----------------------
   0 C :    0.818217
   1 C :    0.077671
   2 H :   -0.310763
   3 H :   -0.291815
   4 H :   -0.310116
   5 S :    1.561051
   6 H :   -0.367972
   7 H :   -0.390574
   8 H :   -0.785699

  Mayer bond orders larger than 0.100000
B(  0-C ,  1-C ) :   0.9926 B(  0-C ,  2-H ) :   0.9263 B(  0-C ,  3-H ) :   0.9206
B(  0-C ,  4-H ) :   0.9343 B(  1-C ,  5-S ) :   0.9167 B(  1-C ,  6-H ) :   0.8830
B(  1-C ,  7-H ) :   0.8576 B(  5-S ,  8-H ) :   1.0410

MP2 TOTAL ENERGY:     -477.395613691 Eh
FINAL SINGLE POINT ENERGY      -477.395613690558

DIPOLE MOMENT
-------------
                                X             Y             Z
Electronic contribution:      5.35976       0.23721      -0.80756
Nuclear contribution   :     -6.00797      -0.17279       1.08354
                        -----------------------------------------
Total Dipole Moment    :     -0.64821       0.06442       0.27598
                        -----------------------------------------
Magnitude (a.u.)       :      0.70745
Magnitude (Debye)      :      1.79819

Rotational constants in cm-1:     0.968210     0.175288     0.160827
Rotational constants in MHz : 29026.218245  5254.997492  4821.474179

                             ****ORCA TERMINATED NORMALLY****
TOTAL RUN TIME: 0 days 0 hours 2 minutes 24 seconds 75 msec
