                         Program Version 4.2.1 -  RELEASE  -
|  1> %pal
|  2>  nprocs 32
|  3> end
|  4> !RI-MP2 aug-cc-pVQZ aug-cc-pVQZ/C TightSCF
|  5> %maxcore 4500
|  6> *xyzfile 1 1  05_5R2.xyz
|  7>
|  8>
|  9>                          ****END OF INPUT****

CARTESIAN COORDINATES (ANGSTROEM)
---------------------------------
  C      1.173098   -0.640907    0.000038
  H     -2.079210   -1.231129    0.000036
  H     -2.065072    1.311037   -0.000071
  C      1.142423    0.743089   -0.000022
  C     -1.173103   -0.640898    0.000016
  N      0.000005    1.418718   -0.000060
  C     -1.142423    0.743090   -0.000045
  N     -0.000001   -1.287381    0.000055
  H      2.065080    1.311025   -0.000033
  H      2.079206   -1.231135    0.000074
  H     -0.000005   -2.305394    0.000102

 Total Charge           Charge          ....    1
 Multiplicity           Mult            ....    1
 Number of Electrons    NEL             ....   42
 Basis Dimension        Dim             ....  710

ORBITAL ENERGIES
----------------

  NO   OCC          E(Eh)            E(eV)
   0   2.0000     -15.895550      -432.5399
   1   2.0000     -15.799227      -429.9188
   2   2.0000     -11.521850      -313.5255
   3   2.0000     -11.521819      -313.5246
   4   2.0000     -11.487000      -312.5772
   5   2.0000     -11.486986      -312.5768
   6   2.0000      -1.571008       -42.7493
   7   2.0000      -1.457564       -39.6623
   8   2.0000      -1.287297       -35.0291
   9   2.0000      -1.153370       -31.3848
  10   2.0000      -1.123561       -30.5737
  11   2.0000      -1.010285       -27.4912
  12   2.0000      -0.938570       -25.5398
  13   2.0000      -0.895378       -24.3645
  14   2.0000      -0.855096       -23.2684
  15   2.0000      -0.841063       -22.8865
  16   2.0000      -0.825956       -22.4754
  17   2.0000      -0.769255       -20.9325
  18   2.0000      -0.672993       -18.3131
  19   2.0000      -0.639852       -17.4113
  20   2.0000      -0.572267       -15.5722
  21   0.0000      -0.154605        -4.2070
  22   0.0000      -0.104545        -2.8448
  23   0.0000      -0.093755        -2.5512
  24   0.0000      -0.075434        -2.0527
  25   0.0000      -0.071220        -1.9380

MULLIKEN ATOMIC CHARGES
-----------------------
   0 C :   -0.169231
   1 H :    0.507240
   2 H :    0.528562
   3 C :    0.001394
   4 C :   -0.169277
   5 N :   -0.569455
   6 C :    0.001403
   7 N :   -0.348077
   8 H :    0.528556
   9 H :    0.507239
  10 H :    0.181646
Sum of atomic charges:    1.0000000

LOEWDIN ATOMIC CHARGES
----------------------
   0 C :    0.323695
   1 H :   -0.257957
   2 H :   -0.316012
   3 C :    0.175725
   4 C :    0.323693
   5 N :    0.661749
   6 C :    0.175726
   7 N :    0.880425
   8 H :   -0.316011
   9 H :   -0.257956
  10 H :   -0.393078

  Mayer bond orders larger than 0.100000
B(  0-C ,  3-C ) :   1.2110 B(  0-C ,  5-N ) :   0.1465 B(  0-C ,  7-N ) :   1.0588
B(  0-C ,  9-H ) :   0.8156 B(  1-H ,  4-C ) :   0.8156 B(  2-H ,  5-N ) :  -0.1222
B(  2-H ,  6-C ) :   0.8134 B(  3-C ,  5-N ) :   1.1117 B(  3-C ,  8-H ) :   0.8134
B(  4-C ,  5-N ) :   0.1465 B(  4-C ,  6-C ) :   1.2110 B(  4-C ,  7-N ) :   1.0588
B(  5-N ,  6-C ) :   1.1117 B(  5-N ,  8-H ) :  -0.1222 B(  7-N , 10-H ) :   1.1149

MP2 TOTAL ENERGY:     -264.221378757 Eh
FINAL SINGLE POINT ENERGY      -264.221378757300

DIPOLE MOMENT
-------------
                                X             Y             Z
Electronic contribution:      0.00002       0.31168      -0.00003
Nuclear contribution   :     -0.00000      -2.13581       0.00011
                        -----------------------------------------
Total Dipole Moment    :      0.00002      -1.82413       0.00008
                        -----------------------------------------
Magnitude (a.u.)       :      1.82413
Magnitude (Debye)      :      4.63657

Rotational constants in cm-1:     0.206278     0.195200     0.100293
Rotational constants in MHz :  6184.072384  5851.941244  3006.712136

                             ****ORCA TERMINATED NORMALLY****
TOTAL RUN TIME: 0 days 0 hours 9 minutes 29 seconds 591 msec
