                         Program Version 4.2.1 -  RELEASE  -
|  1> %pal
|  2>  nprocs 32
|  3> end
|  4> !RI-MP2 aug-cc-pVQZ aug-cc-pVQZ/C TightSCF
|  5> %maxcore 4500
|  6> *xyzfile -1 1  09_1R2.xyz
|  7>
|  8>
|  9>                          ****END OF INPUT****

CARTESIAN COORDINATES (ANGSTROEM)
---------------------------------
  C      0.000000    0.000000   -0.629555
  N      0.000000    0.000000    0.539618

 Total Charge           Charge          ....   -1
 Multiplicity           Mult            ....    1
 Number of Electrons    NEL             ....   14
 Basis Dimension        Dim             ....  160

ORBITAL ENERGIES
----------------

  NO   OCC          E(Eh)            E(eV)
   0   2.0000     -15.283929      -415.8968
   1   2.0000     -10.966291      -298.4080
   2   2.0000      -0.927996       -25.2521
   3   2.0000      -0.339994        -9.2517
   4   2.0000      -0.194708        -5.2983
   5   2.0000      -0.194708        -5.2983
   6   2.0000      -0.192554        -5.2397
   7   0.0000       0.191450         5.2096
   8   0.0000       0.210801         5.7362
   9   0.0000       0.210801         5.7362
  10   0.0000       0.216835         5.9004
  11   0.0000       0.273191         7.4339

MULLIKEN ATOMIC CHARGES
-----------------------
   0 C :   -0.445687
   1 N :   -0.554313
Sum of atomic charges:   -1.0000000

LOEWDIN ATOMIC CHARGES
----------------------
   0 C :   -0.703212
   1 N :   -0.296788

  Mayer bond orders larger than 0.100000
B(  0-C ,  1-N ) :   2.6194

MP2 TOTAL ENERGY:      -92.717536270 Eh
FINAL SINGLE POINT ENERGY       -92.717536270416

DIPOLE MOMENT
-------------
                                X             Y             Z
Electronic contribution:      0.00000      -0.00000       0.15860
Nuclear contribution   :      0.00000       0.00000       0.00297
                        -----------------------------------------
Total Dipole Moment    :      0.00000      -0.00000       0.16158
                        -----------------------------------------
Magnitude (a.u.)       :      0.16158
Magnitude (Debye)      :      0.41069

Rotational constants in cm-1:     0.000000     1.907168     1.907168
Rotational constants in MHz :     0.000000 57175.459374 57175.459374

                             ****ORCA TERMINATED NORMALLY****
TOTAL RUN TIME: 0 days 0 hours 0 minutes 12 seconds 286 msec
