                         Program Version 4.2.1 -  RELEASE  -
|  1> %pal
|  2>  nprocs 32
|  3> end
|  4> !RI-MP2 aug-cc-pVQZ aug-cc-pVQZ/C TightSCF
|  5> %maxcore 4500
|  6> *xyzfile 0 1  02_23R.xyz
|  7>
|  8>
|  9>                          ****END OF INPUT****

CARTESIAN COORDINATES (ANGSTROEM)
---------------------------------
  O      4.039936   -0.033527   -0.032883
  C      3.156203   -1.020226    0.483414
  C      2.423302   -1.700546   -0.636781
  C      1.163175   -2.119962   -0.671799
  C      0.150662   -1.993762    0.416857
  O     -1.033934   -1.411544   -0.168120
  H      0.481744   -1.362182    1.238847
  H     -0.119366   -2.968719    0.830711
  H      2.472096   -0.589236    1.219006
  H      3.780909   -1.753512    1.003701
  C      3.661718    1.323333    0.185372
  C     -1.799631   -0.660551    0.641382
  C     -2.820223    0.161435   -0.140877
  O     -1.660725   -0.638158    1.835115
  C      2.305398    1.628735   -0.362679
  H      4.439912    1.902482   -0.314904
  H      3.696832    1.558550    1.257040
  C      1.284611    2.041614    0.384407
  C     -0.116973    2.114349   -0.043008
  C     -0.631218    1.249103   -0.914020
  C     -2.085443    1.040143   -1.214008
  H     -2.178305    0.557975   -2.188486
  H     -2.614589    1.993717   -1.275169
  C     -3.564689    1.058412    0.846627
  H     -4.045369    0.469401    1.627779
  H     -4.329560    1.630046    0.316588
  H     -2.883883    1.756134    1.335708
  C     -3.803530   -0.790645   -0.833232
  H     -4.522819   -0.213517   -1.418915
  H     -4.360824   -1.380252   -0.101715
  H     -3.281212   -1.473576   -1.503958
  H      3.047304   -1.874029   -1.508974
  H      0.806336   -2.614300   -1.570637
  H      2.160159    1.421192   -1.419168
  H      1.469434    2.274278    1.431702
  H      0.040787    0.522403   -1.355225
  H     -0.761956    2.820400    0.473240

 Total Charge           Charge          ....    0
 Multiplicity           Mult            ....    1
 Number of Electrons    NEL             ....  128
 Basis Dimension        Dim             .... 2280

ORBITAL ENERGIES
----------------

  NO   OCC          E(Eh)            E(eV)
   0   2.0000     -20.595314      -560.4270
   1   2.0000     -20.553615      -559.2923
   2   2.0000     -20.537713      -558.8596
   3   2.0000     -11.370836      -309.4162
   4   2.0000     -11.292367      -307.2809
   5   2.0000     -11.281350      -306.9811
   6   2.0000     -11.279181      -306.9221
   7   2.0000     -11.256684      -306.3099
   8   2.0000     -11.237557      -305.7895
   9   2.0000     -11.236537      -305.7617
  10   2.0000     -11.236423      -305.7586
  11   2.0000     -11.235126      -305.7233
  12   2.0000     -11.231921      -305.6361
  13   2.0000     -11.230114      -305.5869
  14   2.0000     -11.225773      -305.4688
  15   2.0000     -11.225155      -305.4520
  16   2.0000     -11.214559      -305.1637
  17   2.0000      -1.460640       -39.7460
  18   2.0000      -1.372520       -37.3482
  19   2.0000      -1.358577       -36.9688
  20   2.0000      -1.130844       -30.7718
  21   2.0000      -1.099130       -29.9088
  22   2.0000      -1.091368       -29.6976
  23   2.0000      -1.037078       -28.2203
  24   2.0000      -0.995816       -27.0975
  25   2.0000      -0.958022       -26.0691
  26   2.0000      -0.941450       -25.6181
  27   2.0000      -0.917358       -24.9626
  28   2.0000      -0.873843       -23.7785
  29   2.0000      -0.841445       -22.8969
  30   2.0000      -0.803806       -21.8727
  31   2.0000      -0.766765       -20.8647
  32   2.0000      -0.753442       -20.5022
  33   2.0000      -0.728964       -19.8361
  34   2.0000      -0.696077       -18.9412
  35   2.0000      -0.678707       -18.4686
  36   2.0000      -0.675657       -18.3856
  37   2.0000      -0.669828       -18.2269
  38   2.0000      -0.664165       -18.0729
  39   2.0000      -0.643270       -17.5043
  40   2.0000      -0.626334       -17.0434
  41   2.0000      -0.617504       -16.8031
  42   2.0000      -0.615336       -16.7441
  43   2.0000      -0.596103       -16.2208
  44   2.0000      -0.583459       -15.8767
  45   2.0000      -0.577867       -15.7246
  46   2.0000      -0.564093       -15.3498
  47   2.0000      -0.557024       -15.1574
  48   2.0000      -0.546802       -14.8792
  49   2.0000      -0.536944       -14.6110
  50   2.0000      -0.530709       -14.4413
  51   2.0000      -0.515893       -14.0382
  52   2.0000      -0.512733       -13.9522
  53   2.0000      -0.508402       -13.8343
  54   2.0000      -0.494445       -13.4545
  55   2.0000      -0.480490       -13.0748
  56   2.0000      -0.476491       -12.9660
  57   2.0000      -0.465336       -12.6624
  58   2.0000      -0.456695       -12.4273
  59   2.0000      -0.437042       -11.8925
  60   2.0000      -0.426373       -11.6022
  61   2.0000      -0.420941       -11.4544
  62   2.0000      -0.370009       -10.0685
  63   2.0000      -0.320913        -8.7325
  64   0.0000       0.022293         0.6066
  65   0.0000       0.026398         0.7183
  66   0.0000       0.027322         0.7435
  67   0.0000       0.029404         0.8001
  68   0.0000       0.036878         1.0035

MULLIKEN ATOMIC CHARGES
-----------------------
   0 O :   -1.028487
   1 C :    0.046201
   2 C :   -0.383240
   3 C :   -0.543428
   4 C :   -0.122455
   5 O :   -0.943070
   6 H :    0.204316
   7 H :    0.491626
   8 H :    0.176594
   9 H :    0.465237
  10 C :   -0.121358
  11 C :    1.642768
  12 C :    1.516987
  13 O :   -1.167376
  14 C :   -0.224554
  15 H :    0.409095
  16 H :    0.158964
  17 C :   -0.464274
  18 C :    0.008078
  19 C :   -0.554914
  20 C :   -0.660815
  21 H :    0.210981
  22 H :    0.293863
  23 C :   -1.231086
  24 H :    0.277966
  25 H :    0.227023
  26 H :    0.266528
  27 C :   -1.287940
  28 H :    0.251624
  29 H :    0.244314
  30 H :    0.280585
  31 H :    0.210513
  32 H :    0.199667
  33 H :    0.306619
  34 H :    0.195881
  35 H :    0.384236
  36 H :    0.263333
Sum of atomic charges:    0.0000000

LOEWDIN ATOMIC CHARGES
----------------------
   0 O :    0.892326
   1 C :    0.144874
   2 C :    0.383340
   3 C :    0.381086
   4 C :    0.167473
   5 O :    0.886580
   6 H :   -0.382878
   7 H :   -0.276101
   8 H :   -0.349813
   9 H :   -0.298326
  10 C :    0.155215
  11 C :   -1.092830
  12 C :   -0.328775
  13 O :    0.785008
  14 C :    0.342717
  15 H :   -0.319629
  16 H :   -0.319219
  17 C :    0.360904
  18 C :    0.386051
  19 C :    0.353131
  20 C :    0.511719
  21 H :   -0.285353
  22 H :   -0.286129
  23 C :    0.876255
  24 H :   -0.277197
  25 H :   -0.268493
  26 H :   -0.281620
  27 C :    0.915125
  28 H :   -0.264510
  29 H :   -0.261108
  30 H :   -0.280944
  31 H :   -0.326626
  32 H :   -0.324722
  33 H :   -0.315845
  34 H :   -0.322923
  35 H :   -0.359528
  36 H :   -0.319232

  Mayer bond orders larger than 0.100000
B(  0-O ,  1-C ) :   0.5608 B(  0-O , 10-C ) :   0.6465 B(  1-C ,  2-C ) :   0.8732
B(  1-C ,  8-H ) :   0.9816 B(  1-C ,  9-H ) :   0.8199 B(  2-C ,  3-C ) :   1.6558
B(  2-C , 31-H ) :   1.1244 B(  2-C , 32-H ) :  -0.1071 B(  3-C ,  4-C ) :   0.9267
B(  3-C , 31-H ) :  -0.1334 B(  3-C , 32-H ) :   1.1318 B(  4-C ,  5-O ) :   0.7758
B(  4-C ,  6-H ) :   0.9536 B(  4-C ,  7-H ) :   0.7577 B(  5-O , 11-C ) :   0.7877
B(  5-O , 12-C ) :  -0.1364 B(  5-O , 20-C ) :   0.1079 B( 10-C , 14-C ) :   0.8213
B( 10-C , 15-H ) :   0.8587 B( 10-C , 16-H ) :   1.1058 B( 10-C , 17-C ) :  -0.1552
B( 11-C , 12-C ) :   0.9303 B( 11-C , 13-O ) :   0.5803 B( 12-C , 13-O ) :   0.1518
B( 12-C , 20-C ) :   0.4708 B( 12-C , 24-H ) :  -0.1583 B( 12-C , 25-H ) :  -0.2153
B( 12-C , 26-H ) :  -0.2331 B( 12-C , 28-H ) :  -0.1596 B( 12-C , 29-H ) :  -0.1770
B( 12-C , 30-H ) :  -0.1604 B( 14-C , 15-H ) :  -0.1058 B( 14-C , 17-C ) :   1.5194
B( 14-C , 18-C ) :  -0.3683 B( 14-C , 19-C ) :   0.1364 B( 14-C , 33-H ) :   0.8626
B( 17-C , 18-C ) :   0.5242 B( 17-C , 19-C ) :  -0.1598 B( 17-C , 34-H ) :   1.0904
B( 17-C , 36-H ) :  -0.1699 B( 18-C , 19-C ) :   1.5567 B( 18-C , 20-C ) :  -0.1727
B( 18-C , 34-H ) :  -0.1045 B( 18-C , 36-H ) :   1.0279 B( 19-C , 20-C ) :   0.7850
B( 19-C , 35-H ) :   0.9478 B( 20-C , 21-H ) :   1.1147 B( 20-C , 22-H ) :   1.0051
B( 20-C , 23-C ) :   0.1071 B( 20-C , 35-H ) :  -0.1174 B( 23-C , 24-H ) :   1.0583
B( 23-C , 25-H ) :   1.1166 B( 23-C , 26-H ) :   1.1201 B( 23-C , 27-C ) :   0.1728
B( 27-C , 28-H ) :   1.0783 B( 27-C , 29-H ) :   1.0754 B( 27-C , 30-H ) :   1.0356

MP2 TOTAL ENERGY:     -769.873105190 Eh
FINAL SINGLE POINT ENERGY      -769.873105190252

DIPOLE MOMENT
-------------
                                X             Y             Z
Electronic contribution:      6.36994      -2.66650       1.45325
Nuclear contribution   :     -6.79658       2.69010      -1.92984
                        -----------------------------------------
Total Dipole Moment    :     -0.42664       0.02360      -0.47659
                        -----------------------------------------
Magnitude (a.u.)       :      0.64010
Magnitude (Debye)      :      1.62699

Rotational constants in cm-1:     0.027242     0.010371     0.008722
Rotational constants in MHz :   816.706240   310.912767   261.471205

                             ****ORCA TERMINATED NORMALLY****
TOTAL RUN TIME: 0 days 5 hours 39 minutes 14 seconds 369 msec
