                         Program Version 4.2.1 -  RELEASE  -
|  1> %pal
|  2>  nprocs 32
|  3> end
|  4> !RI-MP2 aug-cc-pVQZ aug-cc-pVQZ/C TightSCF
|  5> %maxcore 4500
|  6> *xyzfile 0 2  04_57R2.xyz
|  7>
|  8>
|  9>                          ****END OF INPUT****

CARTESIAN COORDINATES (ANGSTROEM)
---------------------------------
  O     -2.090636   -0.782779   -0.229962
  O     -0.952981   -0.740955    0.403147
  C     -0.006623    0.192310   -0.228022
  C      1.313754   -0.082063    0.411995
  C     -0.503138    1.608720   -0.018654
  H      0.007505   -0.070480   -1.287038
  H     -1.504637    1.720298   -0.433912
  H      0.166584    2.309109   -0.519759
  H     -0.529581    1.853430    1.045098
  C      2.388084   -0.460910   -0.261235
  H      1.360280    0.071549    1.486689
  H      2.357695   -0.622330   -1.333578
  H      3.338630   -0.620046    0.232507

 Total Charge           Charge          ....    0
 Multiplicity           Mult            ....    2
 Number of Electrons    NEL             ....   47
 Basis Dimension        Dim             ....  802

ORBITAL ENERGIES
----------------
                 SPIN UP ORBITALS
  NO   OCC          E(Eh)            E(eV)
   0   1.0000     -20.664640      -562.3134
   1   1.0000     -20.652201      -561.9749
   2   1.0000     -11.303749      -307.5906
   3   1.0000     -11.246924      -306.0444
   4   1.0000     -11.240700      -305.8750
   5   1.0000     -11.229097      -305.5593
   6   1.0000      -1.572763       -42.7971
   7   1.0000      -1.212694       -32.9991
   8   1.0000      -1.078169       -29.3385
   9   1.0000      -1.007067       -27.4037
  10   1.0000      -0.869693       -23.6655
  11   1.0000      -0.792945       -21.5771
  12   1.0000      -0.755299       -20.5527
  13   1.0000      -0.704545       -19.1716
  14   1.0000      -0.686650       -18.6847
  15   1.0000      -0.635281       -17.2869
  16   1.0000      -0.616797       -16.7839
  17   1.0000      -0.574345       -15.6287
  18   1.0000      -0.560008       -15.2386
  19   1.0000      -0.548614       -14.9286
  20   1.0000      -0.500790       -13.6272
  21   1.0000      -0.480474       -13.0744
  22   1.0000      -0.471536       -12.8311
  23   1.0000      -0.389037       -10.5862
  24   0.0000       0.024962         0.6793
  25   0.0000       0.031429         0.8552
  26   0.0000       0.032235         0.8771
  27   0.0000       0.042280         1.1505
  28   0.0000       0.047991         1.3059

                 SPIN DOWN ORBITALS
  NO   OCC          E(Eh)            E(eV)
   0   1.0000     -20.641959      -561.6963
   1   1.0000     -20.625276      -561.2423
   2   1.0000     -11.304592      -307.6136
   3   1.0000     -11.246050      -306.0206
   4   1.0000     -11.241631      -305.9003
   5   1.0000     -11.228862      -305.5529
   6   1.0000      -1.509959       -41.0881
   7   1.0000      -1.147381       -31.2218
   8   1.0000      -1.051299       -28.6073
   9   1.0000      -0.999344       -27.1935
  10   1.0000      -0.861447       -23.4412
  11   1.0000      -0.789188       -21.4749
  12   1.0000      -0.698672       -19.0118
  13   1.0000      -0.671541       -18.2735
  14   1.0000      -0.635235       -17.2856
  15   1.0000      -0.616439       -16.7742
  16   1.0000      -0.593065       -16.1381
  17   1.0000      -0.558153       -15.1881
  18   1.0000      -0.550281       -14.9739
  19   1.0000      -0.499907       -13.6032
  20   1.0000      -0.486821       -13.2471
  21   1.0000      -0.451164       -12.2768
  22   1.0000      -0.388318       -10.5667
  23   0.0000       0.024939         0.6786
  24   0.0000       0.031429         0.8552
  25   0.0000       0.032174         0.8755
  26   0.0000       0.042311         1.1513
  27   0.0000       0.047966         1.3052

MULLIKEN ATOMIC CHARGES AND SPIN POPULATIONS
--------------------------------------------
   0 O :   -0.242327    0.925953
   1 O :   -0.401790    0.098757
   2 C :    0.555900   -0.042464
   3 C :   -0.486371    0.052746
   4 C :   -0.917044    0.014714
   5 H :    0.323610    0.000834
   6 H :    0.282264    0.002206
   7 H :    0.293061   -0.001498
   8 H :    0.253412   -0.002335
   9 C :   -0.812970   -0.052042
  10 H :    0.461046   -0.002829
  11 H :    0.330385    0.003362
  12 H :    0.360824    0.002597
Sum of atomic charges         :    0.0000000

LOEWDIN ATOMIC CHARGES AND SPIN POPULATIONS
-------------------------------------------
   0 O :    0.305897    0.764507
   1 O :    0.279504    0.246976
   2 C :   -0.337769    0.001437
   3 C :    0.309873    0.007330
   4 C :    0.883146    0.000747
   5 H :   -0.353449   -0.002545
   6 H :   -0.308108   -0.000072
   7 H :   -0.280663    0.000479
   8 H :   -0.288172    0.000007
   9 C :    0.805811   -0.012007
  10 H :   -0.324219    0.004360
  11 H :   -0.345517   -0.005588
  12 H :   -0.346335   -0.005632

  Mayer bond orders larger than 0.100000
B(  0-O ,  1-O ) :   1.0055 B(  0-O ,  2-C ) :  -0.1064 B(  1-O ,  2-C ) :   0.5404
B(  2-C ,  3-C ) :   0.7803 B(  2-C ,  4-C ) :   0.9332 B(  2-C ,  5-H ) :   0.8740
B(  3-C ,  9-C ) :   1.8398 B(  3-C , 10-H ) :   0.7552 B(  4-C ,  6-H ) :   0.9532
B(  4-C ,  7-H ) :   0.9367 B(  4-C ,  8-H ) :   0.9152 B(  9-C , 11-H ) :   0.9087
B(  9-C , 12-H ) :   0.9388

MP2 TOTAL ENERGY:     -306.449060020 Eh
FINAL SINGLE POINT ENERGY      -306.449060020286

DIPOLE MOMENT
-------------
                                X             Y             Z
Electronic contribution:     -4.41378      -4.06460       0.57501
Nuclear contribution   :      5.21774       4.67961      -0.81812
                        -----------------------------------------
Total Dipole Moment    :      0.80396       0.61501      -0.24311
                        -----------------------------------------
Magnitude (a.u.)       :      1.04101
Magnitude (Debye)      :      2.64603

Rotational constants in cm-1:     0.213250     0.079427     0.064133
Rotational constants in MHz :  6393.062102  2381.171091  1922.672856

                             ****ORCA TERMINATED NORMALLY****
TOTAL RUN TIME: 0 days 0 hours 36 minutes 55 seconds 214 msec
