                         Program Version 4.2.1 -  RELEASE  -
|  1> %pal
|  2>  nprocs 32
|  3> end
|  4> !RI-MP2 aug-cc-pVQZ aug-cc-pVQZ/C TightSCF
|  5> %maxcore 4500
|  6> *xyzfile 0 1  07_10TS.xyz
|  7>
|  8>
|  9>                          ****END OF INPUT****

CARTESIAN COORDINATES (ANGSTROEM)
---------------------------------
  C     -1.985711   -1.472152    0.174262
  C     -1.786170   -0.099207    0.017253
  C     -0.510366    0.448635   -0.000653
  C      0.609319   -0.365234    0.136201
  C      0.428701   -1.735941    0.303532
  C     -0.852880   -2.263964    0.316000
  H     -0.378601    1.516222   -0.128711
  H     -0.977912   -3.332909    0.445354
  N      1.861172    0.278850    0.155281
  C      2.987378   -0.202150   -0.285063
  O      4.070824    0.482318   -0.230935
  N     -2.914748    0.716426   -0.123575
  C     -3.224165    1.861906   -0.276147
  O     -3.633310    2.943243   -0.423580
  H      3.753972    1.523094    0.244548
  O      3.075166   -1.418456   -0.821483
  H      3.988747   -1.537891   -1.112046
  O      2.965912    2.366509    0.689039
  H      2.179707    1.506541    0.571208
  H      3.118613    2.625692    1.601669
  C     -3.369700   -2.051271    0.189914
  H     -3.968396   -1.621311    0.996032
  H     -3.895981   -1.840020   -0.743695
  H     -3.334421   -3.132036    0.326919
  H      1.282120   -2.386951    0.420660

 Total Charge           Charge          ....    0
 Multiplicity           Mult            ....    1
 Number of Electrons    NEL             ....  110
 Basis Dimension        Dim             .... 1660

ORBITAL ENERGIES
----------------

  NO   OCC          E(Eh)            E(eV)
   0   2.0000     -20.632631      -561.4424
   1   2.0000     -20.608940      -560.7978
   2   2.0000     -20.574373      -559.8571
   3   2.0000     -20.562061      -559.5221
   4   2.0000     -15.594043      -424.3355
   5   2.0000     -15.569583      -423.6699
   6   2.0000     -11.428314      -310.9802
   7   2.0000     -11.403217      -310.2973
   8   2.0000     -11.301228      -307.5220
   9   2.0000     -11.287133      -307.1385
  10   2.0000     -11.244612      -305.9815
  11   2.0000     -11.241094      -305.8857
  12   2.0000     -11.240559      -305.8712
  13   2.0000     -11.233985      -305.6923
  14   2.0000     -11.225571      -305.4633
  15   2.0000      -1.500739       -40.8372
  16   2.0000      -1.466086       -39.8942
  17   2.0000      -1.398434       -38.0533
  18   2.0000      -1.338813       -36.4309
  19   2.0000      -1.293161       -35.1887
  20   2.0000      -1.251687       -34.0601
  21   2.0000      -1.157351       -31.4931
  22   2.0000      -1.055340       -28.7173
  23   2.0000      -1.034588       -28.1526
  24   2.0000      -0.953273       -25.9399
  25   2.0000      -0.884442       -24.0669
  26   2.0000      -0.870368       -23.6839
  27   2.0000      -0.830703       -22.6046
  28   2.0000      -0.794677       -21.6243
  29   2.0000      -0.780859       -21.2483
  30   2.0000      -0.735975       -20.0269
  31   2.0000      -0.728134       -19.8135
  32   2.0000      -0.691675       -18.8214
  33   2.0000      -0.680913       -18.5286
  34   2.0000      -0.674164       -18.3449
  35   2.0000      -0.662105       -18.0168
  36   2.0000      -0.660318       -17.9682
  37   2.0000      -0.644845       -17.5471
  38   2.0000      -0.633687       -17.2435
  39   2.0000      -0.615510       -16.7489
  40   2.0000      -0.593480       -16.1494
  41   2.0000      -0.588258       -16.0073
  42   2.0000      -0.583390       -15.8748
  43   2.0000      -0.557003       -15.1568
  44   2.0000      -0.536146       -14.5893
  45   2.0000      -0.531456       -14.4617
  46   2.0000      -0.525705       -14.3052
  47   2.0000      -0.514277       -13.9942
  48   2.0000      -0.490469       -13.3463
  49   2.0000      -0.486311       -13.2332
  50   2.0000      -0.455976       -12.4077
  51   2.0000      -0.455234       -12.3875
  52   2.0000      -0.429017       -11.6741
  53   2.0000      -0.336595        -9.1592
  54   2.0000      -0.308940        -8.4067
  55   0.0000       0.019978         0.5436
  56   0.0000       0.026264         0.7147
  57   0.0000       0.028720         0.7815
  58   0.0000       0.034396         0.9360
  59   0.0000       0.042026         1.1436

MULLIKEN ATOMIC CHARGES
-----------------------
   0 C :    0.525212
   1 C :    0.362164
   2 C :   -0.749845
   3 C :    0.705620
   4 C :   -0.080719
   5 C :   -0.528638
   6 H :    0.203205
   7 H :    0.103807
   8 N :   -0.866147
   9 C :    1.502243
  10 O :   -0.906446
  11 N :   -0.996286
  12 C :    1.315102
  13 O :   -0.688844
  14 H :    0.441484
  15 O :   -0.744327
  16 H :    0.333550
  17 O :   -0.727571
  18 H :    0.450038
  19 H :    0.282244
  20 C :   -0.913601
  21 H :    0.233726
  22 H :    0.233926
  23 H :    0.284104
  24 H :    0.225998
Sum of atomic charges:    0.0000000

LOEWDIN ATOMIC CHARGES
----------------------
   0 C :   -0.097168
   1 C :   -0.358466
   2 C :    0.322034
   3 C :   -0.250066
   4 C :    0.347085
   5 C :    0.357473
   6 H :   -0.320005
   7 H :   -0.315728
   8 N :    0.677104
   9 C :   -0.975410
  10 O :    1.137578
  11 N :    0.479250
  12 C :   -0.717824
  13 O :    0.606134
  14 H :   -1.198812
  15 O :    1.294373
  16 H :   -0.788944
  17 O :    1.728256
  18 H :   -0.972730
  19 H :   -0.620489
  20 C :    0.896457
  21 H :   -0.283324
  22 H :   -0.282675
  23 H :   -0.304543
  24 H :   -0.359559

  Mayer bond orders larger than 0.100000
B(  0-C ,  1-C ) :   1.1351 B(  0-C ,  4-C ) :  -0.2821 B(  0-C ,  5-C ) :   1.0385
B(  0-C , 20-C ) :   0.4882 B(  0-C , 21-H ) :  -0.1401 B(  0-C , 22-H ) :  -0.1346
B(  0-C , 23-H ) :  -0.1080 B(  1-C ,  2-C ) :   1.5321 B(  1-C ,  3-C ) :  -0.4808
B(  1-C ,  5-C ) :  -0.1590 B(  1-C , 12-C ) :  -0.2267 B(  2-C ,  3-C ) :   1.2350
B(  2-C ,  5-C ) :   0.2027 B(  2-C ,  6-H ) :   0.9029 B(  3-C ,  4-C ) :   1.1742
B(  3-C ,  5-C ) :  -0.2417 B(  3-C ,  8-N ) :   0.6349 B(  4-C ,  5-C ) :   1.0224
B(  4-C ,  7-H ) :  -0.2533 B(  4-C ,  8-N ) :  -0.1127 B(  4-C , 24-H ) :   1.0883
B(  5-C ,  7-H ) :   1.2179 B(  5-C , 24-H ) :  -0.1361 B(  8-N ,  9-C ) :   1.6619
B(  8-N , 10-O ) :   0.1968 B(  8-N , 18-H ) :   0.4964 B(  9-C , 10-O ) :   0.7873
B(  9-C , 15-O ) :   0.7737 B( 10-O , 14-H ) :   0.4351 B( 11-N , 12-C ) :   2.4965
B( 11-N , 13-O ) :   0.3944 B( 12-C , 13-O ) :   1.3204 B( 14-H , 17-O ) :   0.4224
B( 15-O , 16-H ) :   0.9210 B( 17-O , 18-H ) :   0.3084 B( 17-O , 19-H ) :   0.9359
B( 20-C , 21-H ) :   1.0425 B( 20-C , 22-H ) :   1.0351 B( 20-C , 23-H ) :   1.0247

MP2 TOTAL ENERGY:     -758.320179195 Eh
FINAL SINGLE POINT ENERGY      -758.320179195278

DIPOLE MOMENT
-------------
                                X             Y             Z
Electronic contribution:     -1.00824       5.27967      -2.10474
Nuclear contribution   :      1.83186      -6.49163       2.56501
                        -----------------------------------------
Total Dipole Moment    :      0.82362      -1.21196       0.46027
                        -----------------------------------------
Magnitude (a.u.)       :      1.53592
Magnitude (Debye)      :      3.90399

Rotational constants in cm-1:     0.029325     0.010990     0.008262
Rotational constants in MHz :   879.149936   329.484856   247.679570

                             ****ORCA TERMINATED NORMALLY****
TOTAL RUN TIME: 0 days 1 hours 57 minutes 57 seconds 529 msec
