                         Program Version 4.2.1 -  RELEASE  -
|  1> %pal
|  2>  nprocs 32
|  3> end
|  4> !RI-MP2 aug-cc-pVTZ aug-cc-pVTZ/C TightSCF
|  5> %maxcore 4500
|  6> *xyzfile 1 1  05_15P1.xyz
|  7>
|  8>
|  9>                          ****END OF INPUT****

CARTESIAN COORDINATES (ANGSTROEM)
---------------------------------
  C     -1.311633    0.527027    0.000008
  C      0.058798    0.222312    0.000000
  C      0.524499   -1.110994    0.000012
  C      0.969704    1.299197   -0.000022
  C      1.877470   -1.348038    0.000005
  H     -0.184748   -1.928479    0.000028
  C      2.323788    1.045377   -0.000028
  H      0.603089    2.319323   -0.000032
  C      2.771361   -0.273044   -0.000015
  H      2.253473   -2.362529    0.000015
  H      3.033690    1.861558   -0.000043
  H      3.836642   -0.471298   -0.000020
  O     -2.204118   -0.375827    0.000009
  C     -3.620183   -0.037462    0.000024
  H     -4.044367   -0.485816   -0.894243
  H     -4.044304   -0.485593    0.894433
  H     -3.743634    1.044771   -0.000109
  H     -1.639722    1.568432   -0.000008

 Total Charge           Charge          ....    1
 Multiplicity           Mult            ....    1
 Number of Electrons    NEL             ....   64
 Basis Dimension        Dim             ....  621

ORBITAL ENERGIES
----------------

  NO   OCC          E(Eh)            E(eV)
   0   2.0000     -20.825089      -566.6795
   1   2.0000     -11.560667      -314.5817
   2   2.0000     -11.464814      -311.9734
   3   2.0000     -11.427737      -310.9645
   4   2.0000     -11.420628      -310.7711
   5   2.0000     -11.418852      -310.7228
   6   2.0000     -11.418078      -310.7017
   7   2.0000     -11.391864      -309.9884
   8   2.0000     -11.391407      -309.9759
   9   2.0000      -1.663667       -45.2707
  10   2.0000      -1.339856       -36.4593
  11   2.0000      -1.244676       -33.8694
  12   2.0000      -1.194047       -32.4917
  13   2.0000      -1.161875       -31.6162
  14   2.0000      -1.074900       -29.2495
  15   2.0000      -1.005641       -27.3649
  16   2.0000      -0.985403       -26.8142
  17   2.0000      -0.906468       -24.6662
  18   2.0000      -0.897203       -24.4141
  19   2.0000      -0.853215       -23.2172
  20   2.0000      -0.844000       -22.9664
  21   2.0000      -0.793786       -21.6000
  22   2.0000      -0.785723       -21.3806
  23   2.0000      -0.761666       -20.7260
  24   2.0000      -0.747837       -20.3497
  25   2.0000      -0.719735       -19.5850
  26   2.0000      -0.711347       -19.3567
  27   2.0000      -0.677232       -18.4284
  28   2.0000      -0.665913       -18.1204
  29   2.0000      -0.661455       -17.9991
  30   2.0000      -0.520661       -14.1679
  31   2.0000      -0.506710       -13.7883
  32   0.0000      -0.142738        -3.8841
  33   0.0000      -0.079439        -2.1616
  34   0.0000      -0.062890        -1.7113
  35   0.0000      -0.059238        -1.6120
  36   0.0000      -0.055240        -1.5032

MULLIKEN ATOMIC CHARGES
-----------------------
   0 C :   -0.304572
   1 C :    2.120497
   2 C :   -0.521972
   3 C :   -0.916043
   4 C :   -0.877561
   5 H :    0.170368
   6 C :   -0.750916
   7 H :    0.050163
   8 C :    0.008835
   9 H :    0.593929
  10 H :    0.614905
  11 H :    0.383394
  12 O :   -0.491300
  13 C :   -0.722653
  14 H :    0.350795
  15 H :    0.350811
  16 H :    0.402261
  17 H :    0.539058
Sum of atomic charges:    1.0000000

LOEWDIN ATOMIC CHARGES
----------------------
   0 C :    0.057013
   1 C :   -0.109429
   2 C :    0.258060
   3 C :    0.245176
   4 C :    0.258924
   5 H :   -0.155181
   6 C :    0.257942
   7 H :   -0.151883
   8 C :    0.271159
   9 H :   -0.163557
  10 H :   -0.164517
  11 H :   -0.145033
  12 O :    0.642504
  13 C :    0.496490
  14 H :   -0.153002
  15 H :   -0.153002
  16 H :   -0.169157
  17 H :   -0.122505

  Mayer bond orders larger than 0.100000
B(  0-C ,  1-C ) :   0.1180 B(  0-C ,  2-C ) :   0.2724 B(  0-C ,  3-C ) :   0.2029
B(  0-C ,  6-C ) :   0.1550 B(  0-C ,  7-H ) :  -0.2342 B(  0-C ,  8-C ) :   0.1476
B(  0-C ,  9-H ) :   0.1895 B(  0-C , 10-H ) :   0.1610 B(  0-C , 11-H ) :  -0.1104
B(  0-C , 12-O ) :   1.4568 B(  0-C , 17-H ) :   0.6661 B(  1-C ,  2-C ) :   0.2461
B(  1-C ,  5-H ) :  -0.3090 B(  1-C ,  7-H ) :  -0.2120 B(  1-C , 12-O ) :  -0.3064
B(  2-C ,  3-C ) :  -0.2542 B(  2-C ,  4-C ) :   1.3192 B(  2-C ,  5-H ) :   1.3790
B(  2-C ,  7-H ) :   0.1528 B(  2-C ,  8-C ) :  -0.1202 B(  2-C , 11-H ) :   0.1067
B(  3-C ,  5-H ) :   0.2263 B(  3-C ,  6-C ) :   1.2967 B(  3-C ,  7-H ) :   1.8409
B(  3-C ,  8-C ) :  -0.1815 B(  3-C ,  9-H ) :  -0.1114 B(  3-C , 10-H ) :  -0.1660
B(  3-C , 11-H ) :   0.2035 B(  4-C ,  6-C ) :   0.1963 B(  4-C ,  8-C ) :   1.0514
B(  4-C ,  9-H ) :   0.5279 B(  4-C , 11-H ) :  -0.1455 B(  6-C ,  7-H ) :  -0.1325
B(  6-C ,  8-C ) :   1.1059 B(  6-C , 10-H ) :   0.5423 B(  6-C , 11-H ) :  -0.1351
B(  8-C , 11-H ) :   0.9143 B( 12-O , 13-C ) :   0.7579 B( 13-C , 14-H ) :   0.8919
B( 13-C , 15-H ) :   0.8919 B( 13-C , 16-H ) :   0.8280

MP2 TOTAL ENERGY:     -384.440378588 Eh
FINAL SINGLE POINT ENERGY      -384.440378588441

DIPOLE MOMENT
-------------
                                X             Y             Z
Electronic contribution:      2.68078      -0.43460      -0.00001
Nuclear contribution   :     -3.99459       1.06241       0.00002
                        -----------------------------------------
Total Dipole Moment    :     -1.31381       0.62781       0.00001
                        -----------------------------------------
Magnitude (a.u.)       :      1.45611
Magnitude (Debye)      :      3.70113

Rotational constants in cm-1:     0.166389     0.030604     0.025978
Rotational constants in MHz :  4988.226474   917.486110   778.800702

                             ****ORCA TERMINATED NORMALLY****
TOTAL RUN TIME: 0 days 0 hours 4 minutes 14 seconds 143 msec
