                         Program Version 4.2.1 -  RELEASE  -
|  1> %pal
|  2>  nprocs 32
|  3> end
|  4> !RI-MP2 aug-cc-pVTZ aug-cc-pVTZ/C TightSCF
|  5> %maxcore 4500
|  6> *xyzfile 0 1  06_17TS.xyz
|  7>
|  8>
|  9>                          ****END OF INPUT****

CARTESIAN COORDINATES (ANGSTROEM)
---------------------------------
  C      2.483629   -2.560277   -0.263057
  H      2.418322   -3.648849   -0.278944
  H      0.717603   -2.651309   -1.516471
  C      1.240341   -1.608491    1.399210
  O      0.904321   -1.279538    2.497395
  C     -1.617601   -0.665576    1.181382
  O     -2.746149   -0.119146    0.677954
  O     -1.230773   -0.756397   -1.032679
  H     -4.616560   -1.729871   -0.795302
  H     -3.182122   -2.648512   -0.340941
  H     -4.189893    1.094522   -1.537550
  H     -2.510282    1.521050   -1.895838
  C     -1.855710    1.885145    2.129035
  H     -0.152038    1.641119    0.878370
  H     -2.232340    1.850268    3.145686
  H     -2.410941    2.096126    0.072906
  H      0.771985   -0.643784   -2.603518
  C      1.827959    0.609263   -1.260123
  C      1.204020    2.940198   -1.069737
  C      3.023742    2.085795    0.236279
  H      3.493030    0.022076   -0.023293
  H      2.356936    4.126619    0.300232
  H      0.209000    1.516043   -2.327246
  H      3.434082   -2.249482   -0.692080
  C      1.273018   -1.903841   -0.949418
  N      0.500314   -1.528836    0.232323
  O      2.447680   -2.134244    1.103289
  C     -0.762329   -0.985102    0.160462
  H     -1.520897   -0.906205    2.222334
  B     -2.753859   -0.496558   -0.876411
  C     -3.554369   -1.872011   -1.016508
  H     -3.486007   -2.257143   -2.038854
  C     -3.217673    0.688981   -1.834065
  H     -3.340050    0.305097   -2.851300
  C     -2.759321    1.854983    1.064562
  C     -0.555419    1.575326    1.879648
  H      0.150226    1.366752    2.672992
  H     -3.823394    1.952374    1.230333
  C      1.598272   -0.737864   -1.901929
  H      2.477747   -1.032412   -2.484216
  C      1.011498    1.679557   -1.617827
  C      2.209862    3.146586   -0.136734
  C      2.838829    0.830768   -0.326221
  H      3.809847    2.234561    0.966585
  H      0.559718    3.759574   -1.365532

 Total Charge           Charge          ....    0
 Multiplicity           Mult            ....    1
 Number of Electrons    NEL             ....  168
 Basis Dimension        Dim             .... 1564

ORBITAL ENERGIES
----------------

  NO   OCC          E(Eh)            E(eV)
   0   2.0000     -20.618380      -561.0547
   1   2.0000     -20.570292      -559.7461
   2   2.0000     -20.550984      -559.2207
   3   2.0000     -20.543857      -559.0268
   4   2.0000     -15.621655      -425.0868
   5   2.0000     -11.416866      -310.6687
   6   2.0000     -11.342610      -308.6481
   7   2.0000     -11.317291      -307.9591
   8   2.0000     -11.305759      -307.6453
   9   2.0000     -11.304682      -307.6160
  10   2.0000     -11.274169      -306.7857
  11   2.0000     -11.253314      -306.2183
  12   2.0000     -11.250626      -306.1451
  13   2.0000     -11.247085      -306.0487
  14   2.0000     -11.245031      -305.9929
  15   2.0000     -11.244026      -305.9655
  16   2.0000     -11.242841      -305.9332
  17   2.0000     -11.241970      -305.9095
  18   2.0000     -11.240041      -305.8571
  19   2.0000     -11.231333      -305.6201
  20   2.0000     -11.164405      -303.7989
  21   2.0000     -11.148107      -303.3554
  22   2.0000      -7.583334      -206.3530
  23   2.0000      -1.492511       -40.6133
  24   2.0000      -1.425004       -38.7763
  25   2.0000      -1.385466       -37.7004
  26   2.0000      -1.348429       -36.6926
  27   2.0000      -1.274545       -34.6821
  28   2.0000      -1.171500       -31.8781
  29   2.0000      -1.103213       -30.0200
  30   2.0000      -1.094013       -29.7696
  31   2.0000      -1.038048       -28.2467
  32   2.0000      -1.027524       -27.9603
  33   2.0000      -0.992781       -27.0149
  34   2.0000      -0.958103       -26.0713
  35   2.0000      -0.941769       -25.6268
  36   2.0000      -0.926787       -25.2191
  37   2.0000      -0.887603       -24.1529
  38   2.0000      -0.881554       -23.9883
  39   2.0000      -0.868280       -23.6271
  40   2.0000      -0.840382       -22.8680
  41   2.0000      -0.810008       -22.0414
  42   2.0000      -0.789449       -21.4820
  43   2.0000      -0.763786       -20.7837
  44   2.0000      -0.740993       -20.1634
  45   2.0000      -0.730993       -19.8913
  46   2.0000      -0.714073       -19.4309
  47   2.0000      -0.703619       -19.1464
  48   2.0000      -0.690134       -18.7795
  49   2.0000      -0.672642       -18.3035
  50   2.0000      -0.658880       -17.9290
  51   2.0000      -0.653077       -17.7711
  52   2.0000      -0.643616       -17.5137
  53   2.0000      -0.636839       -17.3293
  54   2.0000      -0.632513       -17.2115
  55   2.0000      -0.623334       -16.9618
  56   2.0000      -0.607788       -16.5387
  57   2.0000      -0.602075       -16.3833
  58   2.0000      -0.596377       -16.2282
  59   2.0000      -0.591988       -16.1088
  60   2.0000      -0.579522       -15.7696
  61   2.0000      -0.574655       -15.6372
  62   2.0000      -0.569308       -15.4917
  63   2.0000      -0.560266       -15.2456
  64   2.0000      -0.545182       -14.8352
  65   2.0000      -0.536669       -14.6035
  66   2.0000      -0.530329       -14.4310
  67   2.0000      -0.520142       -14.1538
  68   2.0000      -0.514629       -14.0038
  69   2.0000      -0.507063       -13.7979
  70   2.0000      -0.500626       -13.6227
  71   2.0000      -0.496003       -13.4969
  72   2.0000      -0.493412       -13.4264
  73   2.0000      -0.491020       -13.3613
  74   2.0000      -0.487447       -13.2641
  75   2.0000      -0.470832       -12.8120
  76   2.0000      -0.466169       -12.6851
  77   2.0000      -0.458437       -12.4747
  78   2.0000      -0.443026       -12.0554
  79   2.0000      -0.406459       -11.0603
  80   2.0000      -0.370460       -10.0807
  81   2.0000      -0.349796        -9.5184
  82   2.0000      -0.342672        -9.3246
  83   2.0000      -0.272065        -7.4033
  84   0.0000       0.020924         0.5694
  85   0.0000       0.024962         0.6792
  86   0.0000       0.029391         0.7998
  87   0.0000       0.033070         0.8999
  88   0.0000       0.037416         1.0181

MULLIKEN ATOMIC CHARGES
-----------------------
   0 C :   -0.520096
   1 H :    0.327966
   2 H :    0.257979
   3 C :    0.364250
   4 O :   -0.984428
   5 C :   -0.222437
   6 O :   -0.998311
   7 O :   -1.130484
   8 H :    0.118595
   9 H :    0.376236
  10 H :    0.204437
  11 H :    0.398659
  12 C :   -0.985965
  13 H :    0.918877
  14 H :    0.295743
  15 H :    0.530795
  16 H :    0.082482
  17 C :    1.370549
  18 C :   -0.429462
  19 C :   -0.635398
  20 H :    0.354112
  21 H :    0.574115
  22 H :    0.070717
  23 H :    0.288693
  24 C :   -0.440512
  25 N :    0.219142
  26 O :   -0.594360
  27 C :    1.377593
  28 H :    0.593240
  29 B :    1.851430
  30 C :   -1.434179
  31 H :    0.175540
  32 C :   -1.264726
  33 H :    0.124044
  34 C :   -0.329469
  35 C :   -0.731060
  36 H :    0.267617
  37 H :    0.508181
  38 C :   -0.083747
  39 H :    0.282596
  40 C :   -0.941781
  41 C :   -0.351567
  42 C :   -0.651842
  43 H :    0.326147
  44 H :    0.470089
Sum of atomic charges:   -0.0000000

LOEWDIN ATOMIC CHARGES
----------------------
   0 C :    0.121802
   1 H :   -0.135603
   2 H :   -0.116096
   3 C :   -0.927872
   4 O :    0.478529
   5 C :   -0.087681
   6 O :    0.628433
   7 O :    0.664948
   8 H :   -0.183784
   9 H :   -0.189860
  10 H :   -0.177673
  11 H :   -0.206124
  12 C :    0.163052
  13 H :   -0.223754
  14 H :   -0.179339
  15 H :   -0.214688
  16 H :   -0.171729
  17 C :   -0.099108
  18 C :    0.195304
  19 C :    0.209918
  20 H :   -0.188003
  21 H :   -0.178643
  22 H :   -0.170413
  23 H :   -0.154109
  24 C :   -0.051149
  25 N :    0.281252
  26 O :    0.607770
  27 C :   -0.536775
  28 H :   -0.203185
  29 B :   -1.073347
  30 C :    0.658105
  31 H :   -0.187552
  32 C :    0.656440
  33 H :   -0.179510
  34 C :    0.462873
  35 C :    0.543152
  36 H :   -0.163834
  37 H :   -0.143608
  38 C :    0.323161
  39 H :   -0.135107
  40 C :    0.215843
  41 C :    0.194344
  42 C :    0.221970
  43 H :   -0.175193
  44 H :   -0.173156

  Mayer bond orders larger than 0.100000
B(  0-C ,  1-H ) :   0.9200 B(  0-C ,  3-C ) :   0.1390 B(  0-C , 23-H ) :   1.0584
B(  0-C , 24-C ) :   1.0540 B(  0-C , 26-O ) :   0.7451 B(  0-C , 27-C ) :  -0.1435
B(  2-H , 24-C ) :   1.0107 B(  3-C ,  4-O ) :   1.2729 B(  3-C , 25-N ) :   1.0763
B(  3-C , 26-O ) :   0.9766 B(  3-C , 27-C ) :  -0.6227 B(  4-O , 26-O ) :  -0.2731
B(  5-C ,  6-O ) :   0.8569 B(  5-C ,  7-O ) :  -0.2283 B(  5-C , 25-N ) :  -0.2229
B(  5-C , 27-C ) :   1.4021 B(  5-C , 28-H ) :   0.6692 B(  5-C , 30-C ) :   0.1951
B(  5-C , 42-C ) :  -0.1154 B(  6-O , 28-H ) :  -0.1184 B(  6-O , 29-B ) :   0.4083
B(  6-O , 34-C ) :   0.1060 B(  7-O , 25-N ) :  -0.2068 B(  7-O , 27-C ) :   0.3728
B(  7-O , 29-B ) :   0.1304 B(  7-O , 30-C ) :   0.6287 B(  7-O , 32-C ) :   0.2116
B(  7-O , 38-C ) :  -0.1976 B(  8-H , 30-C ) :   1.2029 B(  9-H , 30-C ) :   0.8046
B( 10-H , 32-C ) :   1.0774 B( 11-H , 32-C ) :   0.7856 B( 12-C , 13-H ) :  -0.1114
B( 12-C , 14-H ) :   1.0511 B( 12-C , 27-C ) :   0.1231 B( 12-C , 34-C ) :   1.1619
B( 12-C , 35-C ) :   1.3060 B( 12-C , 36-H ) :  -0.1351 B( 12-C , 37-H ) :  -0.1352
B( 13-H , 35-C ) :   0.1898 B( 15-H , 34-C ) :   0.7154 B( 16-H , 38-C ) :   1.0740
B( 17-C , 21-H ) :   0.1572 B( 17-C , 24-C ) :   0.1507 B( 17-C , 25-N ) :   0.1277
B( 17-C , 27-C ) :   0.1726 B( 17-C , 38-C ) :   0.2566 B( 17-C , 39-H ) :  -0.2329
B( 17-C , 40-C ) :   0.5919 B( 17-C , 42-C ) :   0.9335 B( 17-C , 44-H ) :  -0.1397
B( 18-C , 21-H ) :  -0.1234 B( 18-C , 22-H ) :  -0.1530 B( 18-C , 40-C ) :   1.3177
B( 18-C , 41-C ) :   1.0807 B( 18-C , 42-C ) :   0.1129 B( 18-C , 44-H ) :   0.8282
B( 19-C , 20-H ) :  -0.1098 B( 19-C , 40-C ) :   0.1081 B( 19-C , 41-C ) :   1.2021
B( 19-C , 42-C ) :   1.0774 B( 19-C , 43-H ) :   1.0307 B( 20-H , 38-C ) :  -0.1075
B( 20-H , 42-C ) :   1.1030 B( 21-H , 41-C ) :   0.5869 B( 22-H , 40-C ) :   1.6141
B( 24-C , 25-N ) :   0.7954 B( 24-C , 26-O ) :   0.1415 B( 24-C , 38-C ) :   0.8406
B( 25-N , 26-O ) :  -0.3610 B( 25-N , 27-C ) :   0.3590 B( 25-N , 42-C ) :   0.1815
B( 27-C , 29-B ) :   0.2487 B( 27-C , 30-C ) :  -0.5469 B( 27-C , 32-C ) :  -0.1615
B( 27-C , 35-C ) :   0.2117 B( 27-C , 38-C ) :  -0.1917 B( 27-C , 42-C ) :   0.1136
B( 29-B , 32-C ) :   0.4220 B( 30-C , 31-H ) :   1.1188 B( 32-C , 33-H ) :   1.1772
B( 34-C , 37-H ) :   0.7546 B( 35-C , 36-H ) :   1.0736 B( 38-C , 39-H ) :   1.0841
B( 38-C , 40-C ) :   0.3679 B( 40-C , 41-C ) :   0.1603 B( 40-C , 42-C ) :  -0.1164
B( 41-C , 42-C ) :   0.2112

MP2 TOTAL ENERGY:    -1039.592610851 Eh
FINAL SINGLE POINT ENERGY     -1039.592610851322

DIPOLE MOMENT
-------------
                                X             Y             Z
Electronic contribution:      9.99546      -5.35889       7.98843
Nuclear contribution   :     -8.86343       6.04867      -8.51208
                        -----------------------------------------
Total Dipole Moment    :      1.13202       0.68978      -0.52365
                        -----------------------------------------
Magnitude (a.u.)       :      1.42530
Magnitude (Debye)      :      3.62283

Rotational constants in cm-1:     0.011614     0.008522     0.007205
Rotational constants in MHz :   348.177307   255.487368   215.997046

                             ****ORCA TERMINATED NORMALLY****
TOTAL RUN TIME: 0 days 1 hours 47 minutes 35 seconds 397 msec
