                         Program Version 4.2.1 -  RELEASE  -
|  1> %pal
|  2>  nprocs 32
|  3> end
|  4> !RI-MP2 aug-cc-pVTZ aug-cc-pVTZ/C TightSCF
|  5> %maxcore 4500
|  6> *xyzfile 0 1  10_92P.xyz
|  7>
|  8>
|  9>                          ****END OF INPUT****

CARTESIAN COORDINATES (ANGSTROEM)
---------------------------------
  C     -1.685171   -1.585303   -0.092372
  C     -3.019038   -0.893582    0.258797
  C     -2.840558    0.577517   -0.172046
  C     -1.348983    0.777654   -0.070734
  C     -0.693283   -0.453923   -0.035275
  H     -1.438863   -2.405088    0.584947
  H     -1.709814   -2.003423   -1.105147
  H     -3.167638   -0.934376    1.340627
  H     -3.880082   -1.371457   -0.209292
  H     -3.170065    0.723492   -1.206583
  H     -3.411944    1.270305    0.447938
  C      0.683817   -0.458684    0.024278
  C     -0.608551    1.945235   -0.029798
  C      1.678295   -1.585757    0.090354
  H      1.448150   -2.404097   -0.594902
  C      3.015904   -0.887311   -0.245757
  H      3.183083   -0.940538   -1.324323
  H      3.869558   -1.359268    0.241194
  C      2.825787    0.585610    0.164840
  H      3.145923    0.758305    1.198133
  H      3.374359    1.287604   -0.463553
  C      1.334568    0.777640    0.063971
  N      0.727983    1.954039    0.043482
  H      1.698390   -2.011143    1.100331
  H     -1.093660    2.916842   -0.051293

 Total Charge           Charge          ....    0
 Multiplicity           Mult            ....    1
 Number of Electrons    NEL             ....   86
 Basis Dimension        Dim             ....  851

ORBITAL ENERGIES
----------------

  NO   OCC          E(Eh)            E(eV)
   0   2.0000     -15.547914      -423.0803
   1   2.0000     -11.257238      -306.3250
   2   2.0000     -11.256732      -306.3113
   3   2.0000     -11.241953      -305.9091
   4   2.0000     -11.233966      -305.6918
   5   2.0000     -11.229826      -305.5791
   6   2.0000     -11.229341      -305.5659
   7   2.0000     -11.229051      -305.5580
   8   2.0000     -11.224515      -305.4346
   9   2.0000     -11.224208      -305.4262
  10   2.0000     -11.224060      -305.4222
  11   2.0000     -11.220168      -305.3163
  12   2.0000      -1.252587       -34.0846
  13   2.0000      -1.144907       -31.1545
  14   2.0000      -1.121169       -30.5086
  15   2.0000      -1.020825       -27.7781
  16   2.0000      -0.998554       -27.1720
  17   2.0000      -0.955103       -25.9897
  18   2.0000      -0.936152       -25.4740
  19   2.0000      -0.843048       -22.9405
  20   2.0000      -0.816716       -22.2240
  21   2.0000      -0.779816       -21.2199
  22   2.0000      -0.771249       -20.9867
  23   2.0000      -0.701644       -19.0927
  24   2.0000      -0.655178       -17.8283
  25   2.0000      -0.648851       -17.6561
  26   2.0000      -0.626735       -17.0543
  27   2.0000      -0.583101       -15.8670
  28   2.0000      -0.581197       -15.8152
  29   2.0000      -0.566355       -15.4113
  30   2.0000      -0.558393       -15.1946
  31   2.0000      -0.547304       -14.8929
  32   2.0000      -0.535811       -14.5802
  33   2.0000      -0.501885       -13.6570
  34   2.0000      -0.497880       -13.5480
  35   2.0000      -0.489710       -13.3257
  36   2.0000      -0.488517       -13.2932
  37   2.0000      -0.484952       -13.1962
  38   2.0000      -0.471926       -12.8417
  39   2.0000      -0.466323       -12.6893
  40   2.0000      -0.395793       -10.7701
  41   2.0000      -0.352067        -9.5802
  42   2.0000      -0.313379        -8.5275
  43   0.0000       0.026923         0.7326
  44   0.0000       0.030084         0.8186
  45   0.0000       0.035187         0.9575
  46   0.0000       0.035707         0.9716
  47   0.0000       0.043327         1.1790

MULLIKEN ATOMIC CHARGES
-----------------------
   0 C :   -0.956713
   1 C :   -0.547741
   2 C :   -0.731478
   3 C :    0.760783
   4 C :    0.648690
   5 H :    0.277598
   6 H :    0.233493
   7 H :    0.187964
   8 H :    0.299316
   9 H :    0.218582
  10 H :    0.249413
  11 C :    0.562907
  12 C :   -0.872326
  13 C :   -0.758450
  14 H :    0.262389
  15 C :   -0.597719
  16 H :    0.173625
  17 H :    0.309383
  18 C :   -0.479695
  19 H :    0.250364
  20 H :    0.339617
  21 C :    0.356581
  22 N :   -0.993742
  23 H :    0.209390
  24 H :    0.597768
Sum of atomic charges:   -0.0000000

LOEWDIN ATOMIC CHARGES
----------------------
   0 C :    0.326311
   1 C :    0.316199
   2 C :    0.308150
   3 C :   -0.087737
   4 C :   -0.056579
   5 H :   -0.138944
   6 H :   -0.134129
   7 H :   -0.144033
   8 H :   -0.143715
   9 H :   -0.141049
  10 H :   -0.143961
  11 C :   -0.048136
  12 C :    0.059569
  13 C :    0.312846
  14 H :   -0.142298
  15 C :    0.312325
  16 H :   -0.145884
  17 H :   -0.145333
  18 C :    0.312634
  19 H :   -0.139918
  20 H :   -0.144474
  21 C :   -0.281167
  22 N :    0.411768
  23 H :   -0.138741
  24 H :   -0.183704

  Mayer bond orders larger than 0.100000
B(  0-C ,  1-C ) :   1.1111 B(  0-C ,  2-C ) :   0.1796 B(  0-C ,  3-C ) :   0.1152
B(  0-C ,  4-C ) :   0.5484 B(  0-C ,  5-H ) :   0.9682 B(  0-C ,  6-H ) :   1.0174
B(  0-C , 11-C ) :  -0.1387 B(  1-C ,  2-C ) :   1.0387 B(  1-C ,  7-H ) :   1.0297
B(  1-C ,  8-H ) :   0.9473 B(  2-C ,  3-C ) :   0.6800 B(  2-C ,  9-H ) :   1.0239
B(  2-C , 10-H ) :   1.0219 B(  2-C , 12-C ) :  -0.2352 B(  2-C , 21-C ) :  -0.1412
B(  3-C ,  4-C ) :   1.0318 B(  3-C , 11-C ) :   0.4395 B(  4-C , 11-C ) :   0.7786
B(  4-C , 12-C ) :   0.6370 B(  4-C , 13-C ) :  -0.2268 B(  4-C , 18-C ) :  -0.2015
B(  4-C , 21-C ) :   0.6496 B( 11-C , 12-C ) :  -0.6963 B( 11-C , 13-C ) :   0.7342
B( 11-C , 15-C ) :  -0.1200 B( 11-C , 18-C ) :   0.3313 B( 11-C , 21-C ) :   0.9304
B( 11-C , 22-N ) :   0.1197 B( 12-C , 21-C ) :   0.5077 B( 12-C , 22-N ) :   1.1683
B( 12-C , 24-H ) :   0.4463 B( 13-C , 14-H ) :   0.9850 B( 13-C , 15-C ) :   1.1104
B( 13-C , 21-C ) :  -0.1811 B( 13-C , 23-H ) :   1.0323 B( 15-C , 16-H ) :   1.0442
B( 15-C , 17-H ) :   0.9389 B( 15-C , 18-C ) :   1.0324 B( 18-C , 19-H ) :   1.0090
B( 18-C , 20-H ) :   0.9552 B( 18-C , 21-C ) :   0.1126 B( 21-C , 22-N ) :   0.1213

MP2 TOTAL ENERGY:     -480.758930444 Eh
FINAL SINGLE POINT ENERGY      -480.758930444097

DIPOLE MOMENT
-------------
                                X             Y             Z
Electronic contribution:      0.70935       5.55018       0.01279
Nuclear contribution   :     -1.16479      -6.55398      -0.04226
                        -----------------------------------------
Total Dipole Moment    :     -0.45544      -1.00381      -0.02948
                        -----------------------------------------
Magnitude (a.u.)       :      1.10269
Magnitude (Debye)      :      2.80281

Rotational constants in cm-1:     0.065649     0.025390     0.018831
Rotational constants in MHz :  1968.117837   761.186121   564.533686

                             ****ORCA TERMINATED NORMALLY****
TOTAL RUN TIME: 0 days 0 hours 11 minutes 42 seconds 217 msec
