                         Program Version 4.2.1 -  RELEASE  -
|  1> %pal
|  2>  nprocs 32
|  3> end
|  4> !RI-MP2 aug-cc-pVTZ aug-cc-pVTZ/C TightSCF
|  5> %maxcore 4500
|  6> *xyzfile 0 1  10_10P.xyz
|  7>
|  8>
|  9>                          ****END OF INPUT****

CARTESIAN COORDINATES (ANGSTROEM)
---------------------------------
  C     -1.321552   -0.615340   -0.189216
  C     -0.406450    0.570783   -0.011840
  N     -0.463747   -1.755218   -0.403949
  N      0.732442   -1.405587   -0.321373
  N      0.870465   -0.061490   -0.193321
  C      2.101561    0.447305    0.358178
  H      2.311120    1.436595   -0.050229
  H      2.061958    0.515563    1.452475
  H      2.905429   -0.228296    0.072480
  C     -1.185603    0.049495    1.161635
  H     -2.035782    0.636518    1.482643
  H     -0.668019   -0.493661    1.943367
  C     -0.583981    1.947043   -0.581669
  H     -0.003980    2.686310   -0.023450
  H     -0.270696    1.974372   -1.627019
  H     -1.632291    2.243840   -0.527384
  H     -2.265709   -0.610886   -0.714915

 Total Charge           Charge          ....    0
 Multiplicity           Mult            ....    1
 Number of Electrons    NEL             ....   60
 Basis Dimension        Dim             ....  575

ORBITAL ENERGIES
----------------

  NO   OCC          E(Eh)            E(eV)
   0   2.0000     -15.655169      -425.9988
   1   2.0000     -15.603928      -424.6045
   2   2.0000     -15.593736      -424.3271
   3   2.0000     -11.284188      -307.0584
   4   2.0000     -11.266596      -306.5797
   5   2.0000     -11.265975      -306.5628
   6   2.0000     -11.238512      -305.8155
   7   2.0000     -11.236342      -305.7564
   8   2.0000      -1.429821       -38.9074
   9   2.0000      -1.210642       -32.9432
  10   2.0000      -1.161666       -31.6105
  11   2.0000      -0.991186       -26.9716
  12   2.0000      -0.964651       -26.2495
  13   2.0000      -0.898948       -24.4616
  14   2.0000      -0.825327       -22.4583
  15   2.0000      -0.764579       -20.8053
  16   2.0000      -0.703100       -19.1323
  17   2.0000      -0.658685       -17.9237
  18   2.0000      -0.625799       -17.0289
  19   2.0000      -0.618257       -16.8236
  20   2.0000      -0.591777       -16.1031
  21   2.0000      -0.588495       -16.0138
  22   2.0000      -0.557757       -15.1773
  23   2.0000      -0.551422       -15.0050
  24   2.0000      -0.538682       -14.6583
  25   2.0000      -0.516476       -14.0540
  26   2.0000      -0.477498       -12.9934
  27   2.0000      -0.434524       -11.8240
  28   2.0000      -0.391596       -10.6559
  29   2.0000      -0.336725        -9.1628
  30   0.0000       0.024889         0.6773
  31   0.0000       0.033545         0.9128
  32   0.0000       0.033701         0.9171
  33   0.0000       0.039487         1.0745
  34   0.0000       0.051740         1.4079

MULLIKEN ATOMIC CHARGES
-----------------------
   0 C :   -0.402681
   1 C :    0.651129
   2 N :   -0.605951
   3 N :   -0.354267
   4 N :    0.367138
   5 C :   -0.928345
   6 H :    0.369296
   7 H :    0.306007
   8 H :    0.357031
   9 C :   -1.162894
  10 H :    0.317145
  11 H :    0.349571
  12 C :   -0.558625
  13 H :    0.234892
  14 H :    0.281177
  15 H :    0.281815
  16 H :    0.497561
Sum of atomic charges:   -0.0000000

LOEWDIN ATOMIC CHARGES
----------------------
   0 C :   -0.102841
   1 C :   -0.413834
   2 N :    0.230705
   3 N :    0.128272
   4 N :    0.088065
   5 C :    0.480226
   6 H :   -0.169068
   7 H :   -0.155082
   8 H :   -0.172595
   9 C :    0.394508
  10 H :   -0.153323
  11 H :   -0.152155
  12 C :    0.620191
  13 H :   -0.162816
  14 H :   -0.156750
  15 H :   -0.163640
  16 H :   -0.139863

  Mayer bond orders larger than 0.100000
B(  0-C ,  1-C ) :   0.2643 B(  0-C ,  2-N ) :   0.6114 B(  0-C ,  3-N ) :   0.1054
B(  0-C ,  9-C ) :   1.4921 B(  0-C , 10-H ) :   0.1045 B(  0-C , 12-C ) :  -0.2211
B(  0-C , 16-H ) :   0.6102 B(  1-C ,  4-N ) :   0.9274 B(  1-C ,  9-C ) :   0.4515
B(  1-C , 12-C ) :   0.2815 B(  2-N ,  3-N ) :   0.8297 B(  2-N ,  4-N ) :   0.1714
B(  3-N ,  4-N ) :   0.3288 B(  4-N ,  5-C ) :   0.8700 B(  5-C ,  6-H ) :   0.8964
B(  5-C ,  7-H ) :   0.9423 B(  5-C ,  8-H ) :   0.8993 B(  9-C , 10-H ) :   0.8869
B(  9-C , 11-H ) :   0.8710 B(  9-C , 12-C ) :  -0.1904 B( 12-C , 13-H ) :   1.0012
B( 12-C , 14-H ) :   0.9987 B( 12-C , 15-H ) :   1.0294

MP2 TOTAL ENERGY:     -359.417409678 Eh
FINAL SINGLE POINT ENERGY      -359.417409677960

DIPOLE MOMENT
-------------
                                X             Y             Z
Electronic contribution:     -0.52909      -6.74572      -1.63445
Nuclear contribution   :      0.41437       8.25398       2.03026
                        -----------------------------------------
Total Dipole Moment    :     -0.11472       1.50825       0.39581
                        -----------------------------------------
Magnitude (a.u.)       :      1.56354
Magnitude (Debye)      :      3.97420

Rotational constants in cm-1:     0.091376     0.090216     0.057065
Rotational constants in MHz :  2739.389723  2704.620190  1710.752112

                             ****ORCA TERMINATED NORMALLY****
TOTAL RUN TIME: 0 days 0 hours 3 minutes 44 seconds 137 msec
