                         Program Version 4.2.1 -  RELEASE  -
|  1> %pal
|  2>  nprocs 32
|  3> end
|  4> !RI-MP2 aug-cc-pVTZ aug-cc-pVTZ/C TightSCF
|  5> %maxcore 4500
|  6> *xyzfile 0 1  05_22R1.xyz
|  7>
|  8>
|  9>                          ****END OF INPUT****

CARTESIAN COORDINATES (ANGSTROEM)
---------------------------------
  C      2.584957    0.642421   -0.000005
  C      1.101677    0.395438   -0.000002
  C      0.584487   -0.894363   -0.000020
  C      0.231931    1.485022    0.000017
  C     -0.786626   -1.099357   -0.000020
  H      1.264869   -1.733921   -0.000033
  C     -1.137113    1.297031    0.000015
  H      0.629874    2.493794    0.000032
  C     -1.625082   -0.000043   -0.000003
  H     -1.210127   -2.093560   -0.000033
  H     -1.826925    2.128602    0.000029
  O      3.284541   -0.572136    0.000010
  C      4.682132   -0.398835    0.000013
  H      5.014684    0.146186    0.892171
  H      5.130610   -1.390521    0.000020
  H      5.014690    0.146177   -0.892147
  N     -3.081146   -0.211626   -0.000003
  O     -3.486560   -1.357908   -0.000007
  O     -3.795246    0.773116    0.000002
  H      2.855140    1.238071   -0.884748
  H      2.855141    1.238094    0.884721

 Total Charge           Charge          ....    0
 Multiplicity           Mult            ....    1
 Number of Electrons    NEL             ....   88
 Basis Dimension        Dim             ....  759

ORBITAL ENERGIES
----------------

  NO   OCC          E(Eh)            E(eV)
   0   2.0000     -20.596076      -560.4477
   1   2.0000     -20.595943      -560.4441
   2   2.0000     -20.580780      -560.0315
   3   2.0000     -15.848472      -431.2588
   4   2.0000     -11.305814      -307.6468
   5   2.0000     -11.300855      -307.5119
   6   2.0000     -11.289046      -307.1906
   7   2.0000     -11.273491      -306.7673
   8   2.0000     -11.269173      -306.6498
   9   2.0000     -11.267863      -306.6141
  10   2.0000     -11.257857      -306.3419
  11   2.0000     -11.251382      -306.1657
  12   2.0000      -1.608503       -43.7696
  13   2.0000      -1.405224       -38.2381
  14   2.0000      -1.399511       -38.0826
  15   2.0000      -1.199627       -32.6435
  16   2.0000      -1.105080       -30.0708
  17   2.0000      -1.048837       -28.5403
  18   2.0000      -1.010650       -27.5012
  19   2.0000      -0.942359       -25.6429
  20   2.0000      -0.894598       -24.3432
  21   2.0000      -0.859752       -23.3950
  22   2.0000      -0.812499       -22.1092
  23   2.0000      -0.778249       -21.1772
  24   2.0000      -0.726837       -19.7782
  25   2.0000      -0.719228       -19.5712
  26   2.0000      -0.701031       -19.0760
  27   2.0000      -0.692303       -18.8385
  28   2.0000      -0.684164       -18.6170
  29   2.0000      -0.649037       -17.6612
  30   2.0000      -0.635802       -17.3010
  31   2.0000      -0.620286       -16.8788
  32   2.0000      -0.607424       -16.5288
  33   2.0000      -0.587948       -15.9989
  34   2.0000      -0.532247       -14.4832
  35   2.0000      -0.526836       -14.3359
  36   2.0000      -0.526443       -14.3252
  37   2.0000      -0.501353       -13.6425
  38   2.0000      -0.490024       -13.3342
  39   2.0000      -0.489475       -13.3193
  40   2.0000      -0.451921       -12.2974
  41   2.0000      -0.451292       -12.2803
  42   2.0000      -0.365129        -9.9357
  43   2.0000      -0.363311        -9.8862
  44   0.0000       0.020456         0.5566
  45   0.0000       0.029286         0.7969
  46   0.0000       0.034510         0.9391
  47   0.0000       0.034750         0.9456
  48   0.0000       0.044392         1.2080

MULLIKEN ATOMIC CHARGES
-----------------------
   0 C :   -0.109310
   1 C :    1.385486
   2 C :   -0.536741
   3 C :   -1.027688
   4 C :   -0.720728
   5 H :    0.122830
   6 C :   -0.647294
   7 H :    0.244333
   8 C :    0.809429
   9 H :    0.586711
  10 H :    0.519992
  11 O :   -0.632859
  12 C :   -0.925453
  13 H :    0.344672
  14 H :    0.352863
  15 H :    0.344674
  16 N :    0.661310
  17 O :   -0.678699
  18 O :   -0.688080
  19 H :    0.297274
  20 H :    0.297275
Sum of atomic charges:   -0.0000000

LOEWDIN ATOMIC CHARGES
----------------------
   0 C :    0.006059
   1 C :   -0.093211
   2 C :    0.239719
   3 C :    0.230091
   4 C :    0.221830
   5 H :   -0.196035
   6 C :    0.215819
   7 H :   -0.166604
   8 C :   -0.219609
   9 H :   -0.189491
  10 H :   -0.191057
  11 O :    0.560212
  12 C :    0.329984
  13 H :   -0.173946
  14 H :   -0.181964
  15 H :   -0.173947
  16 N :   -0.722268
  17 O :    0.395854
  18 O :    0.394634
  19 H :   -0.143034
  20 H :   -0.143036

  Mayer bond orders larger than 0.100000
B(  0-C ,  2-C ) :   0.1038 B(  0-C ,  3-C ) :   0.2302 B(  0-C ,  8-C ) :   0.1148
B(  0-C , 11-O ) :   1.0333 B(  0-C , 19-H ) :   1.0386 B(  0-C , 20-H ) :   1.0386
B(  1-C ,  2-C ) :   0.5212 B(  1-C ,  3-C ) :   0.3571 B(  1-C ,  4-C ) :   0.2348
B(  1-C ,  5-H ) :  -0.1659 B(  1-C ,  6-C ) :   0.3315 B(  1-C ,  7-H ) :  -0.1629
B(  1-C , 19-H ) :  -0.1116 B(  1-C , 20-H ) :  -0.1116 B(  2-C ,  3-C ) :  -0.2278
B(  2-C ,  4-C ) :   1.2177 B(  2-C ,  5-H ) :   1.4961 B(  2-C ,  8-C ) :  -0.1557
B(  3-C ,  5-H ) :   0.1217 B(  3-C ,  6-C ) :   1.4374 B(  3-C ,  7-H ) :   1.1385
B(  3-C ,  8-C ) :  -0.1925 B(  4-C ,  8-C ) :   0.8116 B(  4-C ,  9-H ) :   0.5100
B(  4-C , 16-N ) :  -0.1954 B(  4-C , 17-O ) :  -0.1168 B(  5-H ,  8-C ) :  -0.1078
B(  6-C ,  8-C ) :   0.7434 B(  6-C , 10-H ) :   0.6981 B(  6-C , 16-N ) :  -0.1971
B(  8-C ,  9-H ) :   0.1281 B(  8-C , 16-N ) :   1.2755 B(  8-C , 17-O ) :   0.3558
B(  8-C , 18-O ) :   0.3336 B( 11-O , 12-C ) :   0.9933 B( 12-C , 13-H ) :   0.8807
B( 12-C , 14-H ) :   0.9428 B( 12-C , 15-H ) :   0.8807 B( 16-N , 17-O ) :   1.0416
B( 16-N , 18-O ) :   1.0276

MP2 TOTAL ENERGY:     -589.541637868 Eh
FINAL SINGLE POINT ENERGY      -589.541637867723

DIPOLE MOMENT
-------------
                                X             Y             Z
Electronic contribution:    -16.83383      -1.43913      -0.00002
Nuclear contribution   :     19.42430       2.12905       0.00001
                        -----------------------------------------
Total Dipole Moment    :      2.59048       0.68992      -0.00000
                        -----------------------------------------
Magnitude (a.u.)       :      2.68077
Magnitude (Debye)      :      6.81399

Rotational constants in cm-1:     0.111630     0.013491     0.012092
Rotational constants in MHz :  3346.591611   404.463835   362.499398

                             ****ORCA TERMINATED NORMALLY****
TOTAL RUN TIME: 0 days 0 hours 7 minutes 48 seconds 772 msec
