                         Program Version 4.2.1 -  RELEASE  -
|  1> %pal
|  2>  nprocs 32
|  3> end
|  4> !RI-MP2 aug-cc-pVTZ aug-cc-pVTZ/C TightSCF
|  5> %maxcore 4500
|  6> *xyzfile 0 1  05_42R1.xyz
|  7>
|  8>
|  9>                          ****END OF INPUT****

CARTESIAN COORDINATES (ANGSTROEM)
---------------------------------
  C     -2.187423    3.527549    0.419735
  C     -2.334889    2.352503    1.140712
  C     -1.650991    1.204488    0.758765
  C     -0.806652    1.217526   -0.345575
  C     -0.667750    2.402874   -1.064849
  C     -1.350541    3.548748   -0.689243
  H     -2.723933    4.421007    0.715451
  H     -2.988929    2.323845    2.004176
  H     -1.782193    0.289689    1.323003
  H     -0.008713    2.426349   -1.926230
  H     -1.231380    4.460039   -1.263199
  C      0.000054   -0.000024   -0.772178
  C     -0.651096   -1.307443   -0.345648
  C     -1.747888   -1.779015   -1.064236
  C     -0.216939   -2.032910    0.757906
  C     -2.398975   -2.943210   -0.688698
  H     -2.098290   -1.219360   -1.924968
  C     -0.869351   -3.199130    1.139806
  H      0.641537   -1.689774    1.321565
  C     -1.961511   -3.658121    0.419539
  H     -3.248398   -3.295020   -1.262100
  H     -0.516989   -3.751816    2.002673
  H     -2.467125   -4.569433    0.715209
  C      1.457851    0.089845   -0.345614
  C      2.414823   -0.623493   -1.064664
  C      1.868860    0.828009    0.758383
  C      3.748595   -0.605123   -0.689146
  H      2.105506   -1.206308   -1.925771
  C      3.205047    0.846277    1.140245
  H      1.142306    1.399358    1.322405
  C      4.148817    0.130626    0.419527
  H      4.478116   -1.164280   -1.262923
  H      3.507350    1.427335    2.003463
  H      5.190842    0.148519    0.715195
  H      0.000046   -0.000005   -1.866541

 Total Charge           Charge          ....    0
 Multiplicity           Mult            ....    1
 Number of Electrons    NEL             ....  130
 Basis Dimension        Dim             .... 1242

ORBITAL ENERGIES
----------------

  NO   OCC          E(Eh)            E(eV)
   0   2.0000     -11.249370      -306.1109
   1   2.0000     -11.239976      -305.8553
   2   2.0000     -11.239975      -305.8553
   3   2.0000     -11.239932      -305.8541
   4   2.0000     -11.233137      -305.6692
   5   2.0000     -11.233137      -305.6692
   6   2.0000     -11.233134      -305.6691
   7   2.0000     -11.232398      -305.6491
   8   2.0000     -11.232398      -305.6491
   9   2.0000     -11.232394      -305.6490
  10   2.0000     -11.230188      -305.5890
  11   2.0000     -11.230188      -305.5889
  12   2.0000     -11.230184      -305.5888
  13   2.0000     -11.229668      -305.5748
  14   2.0000     -11.229664      -305.5747
  15   2.0000     -11.229662      -305.5746
  16   2.0000     -11.227312      -305.5107
  17   2.0000     -11.227311      -305.5107
  18   2.0000     -11.227308      -305.5106
  19   2.0000      -1.177505       -32.0415
  20   2.0000      -1.150968       -31.3194
  21   2.0000      -1.150965       -31.3194
  22   2.0000      -1.082883       -29.4668
  23   2.0000      -1.017522       -27.6882
  24   2.0000      -1.017518       -27.6881
  25   2.0000      -1.015388       -27.6301
  26   2.0000      -1.009151       -27.4604
  27   2.0000      -1.009148       -27.4603
  28   2.0000      -0.925306       -25.1789
  29   2.0000      -0.832460       -22.6524
  30   2.0000      -0.831511       -22.6266
  31   2.0000      -0.831500       -22.6263
  32   2.0000      -0.812607       -22.1122
  33   2.0000      -0.812603       -22.1121
  34   2.0000      -0.773501       -21.0480
  35   2.0000      -0.704058       -19.1584
  36   2.0000      -0.704055       -19.1583
  37   2.0000      -0.685846       -18.6628
  38   2.0000      -0.650068       -17.6892
  39   2.0000      -0.640356       -17.4250
  40   2.0000      -0.640350       -17.4248
  41   2.0000      -0.620128       -16.8745
  42   2.0000      -0.620127       -16.8745
  43   2.0000      -0.614611       -16.7244
  44   2.0000      -0.586440       -15.9579
  45   2.0000      -0.585397       -15.9295
  46   2.0000      -0.585395       -15.9294
  47   2.0000      -0.575507       -15.6604
  48   2.0000      -0.575494       -15.6600
  49   2.0000      -0.552598       -15.0370
  50   2.0000      -0.512178       -13.9371
  51   2.0000      -0.506273       -13.7764
  52   2.0000      -0.506268       -13.7763
  53   2.0000      -0.496742       -13.5171
  54   2.0000      -0.494727       -13.4622
  55   2.0000      -0.494722       -13.4621
  56   2.0000      -0.476495       -12.9661
  57   2.0000      -0.473393       -12.8817
  58   2.0000      -0.473385       -12.8815
  59   2.0000      -0.343550        -9.3485
  60   2.0000      -0.342715        -9.3257
  61   2.0000      -0.342704        -9.3255
  62   2.0000      -0.329434        -8.9644
  63   2.0000      -0.329431        -8.9643
  64   2.0000      -0.313654        -8.5350
  65   0.0000       0.024411         0.6643
  66   0.0000       0.030009         0.8166
  67   0.0000       0.030012         0.8167
  68   0.0000       0.031644         0.8611
  69   0.0000       0.039556         1.0764

MULLIKEN ATOMIC CHARGES
-----------------------
   0 C :   -0.240169
   1 C :   -1.158970
   2 C :   -0.513862
   3 C :    1.835387
   4 C :   -1.258726
   5 C :   -0.574880
   6 H :    0.611976
   7 H :    0.372741
   8 H :    0.479235
   9 H :    0.020548
  10 H :    0.507106
  11 C :   -0.136482
  12 C :    1.835825
  13 C :   -1.258257
  14 C :   -0.513300
  15 C :   -0.575587
  16 H :    0.021116
  17 C :   -1.160157
  18 H :    0.480112
  19 C :   -0.239775
  20 H :    0.507094
  21 H :    0.372464
  22 H :    0.612293
  23 C :    1.835216
  24 C :   -1.257997
  25 C :   -0.513980
  26 C :   -0.575014
  27 H :    0.020789
  28 C :   -1.159616
  29 H :    0.479762
  30 C :   -0.240137
  31 H :    0.507387
  32 H :    0.372434
  33 H :    0.612238
  34 H :   -0.106815
Sum of atomic charges:    0.0000000

LOEWDIN ATOMIC CHARGES
----------------------
   0 C :    0.194822
   1 C :    0.208017
   2 C :    0.224587
   3 C :   -0.112267
   4 C :    0.225593
   5 C :    0.203439
   6 H :   -0.184220
   7 H :   -0.180169
   8 H :   -0.178716
   9 H :   -0.163567
  10 H :   -0.180999
  11 C :   -0.014355
  12 C :   -0.112221
  13 C :    0.225567
  14 C :    0.224616
  15 C :    0.203441
  16 H :   -0.163555
  17 C :    0.208011
  18 H :   -0.178758
  19 C :    0.194817
  20 H :   -0.180996
  21 H :   -0.180172
  22 H :   -0.184221
  23 C :   -0.112255
  24 C :    0.225565
  25 C :    0.224623
  26 C :    0.203442
  27 H :   -0.163560
  28 C :    0.208018
  29 H :   -0.178755
  30 C :    0.194825
  31 H :   -0.180997
  32 H :   -0.180171
  33 H :   -0.184221
  34 H :   -0.155207

  Mayer bond orders larger than 0.100000
B(  0-C ,  1-C ) :   1.2150 B(  0-C ,  2-C ) :   0.1358 B(  0-C ,  3-C ) :  -0.1684
B(  0-C ,  5-C ) :   1.0795 B(  0-C ,  6-H ) :   0.5399 B(  1-C ,  2-C ) :   1.4553
B(  1-C ,  3-C ) :  -0.1369 B(  1-C ,  6-H ) :  -0.1398 B(  1-C ,  7-H ) :   0.9675
B(  1-C ,  8-H ) :  -0.2937 B(  2-C ,  3-C ) :   0.2107 B(  2-C ,  5-C ) :  -0.1188
B(  2-C ,  8-H ) :   0.9897 B(  2-C ,  9-H ) :   0.1111 B(  2-C , 11-C ) :   0.4116
B(  2-C , 29-H ) :  -0.1027 B(  3-C ,  4-C ) :  -0.6037 B(  3-C ,  5-C ) :   0.1576
B(  3-C ,  8-H ) :  -0.1775 B(  3-C ,  9-H ) :  -0.2555 B(  3-C , 11-C ) :   0.6268
B(  3-C , 12-C ) :   0.3038 B(  3-C , 16-H ) :  -0.1054 B(  3-C , 23-C ) :   0.3051
B(  3-C , 34-H ) :  -0.1033 B(  4-C ,  5-C ) :   1.2548 B(  4-C ,  6-H ) :   0.1502
B(  4-C ,  8-H ) :   0.2846 B(  4-C ,  9-H ) :   1.6807 B(  4-C , 10-H ) :  -0.1477
B(  4-C , 11-C ) :  -0.1112 B(  5-C ,  6-H ) :  -0.1215 B(  5-C ,  8-H ) :  -0.1512
B(  5-C , 10-H ) :   0.6886 B(  5-C , 11-C ) :   0.1078 B(  8-H , 14-C ) :  -0.1025
B(  9-H , 23-C ) :  -0.1057 B( 11-C , 12-C ) :   0.6254 B( 11-C , 13-C ) :  -0.1106
B( 11-C , 14-C ) :   0.4114 B( 11-C , 15-C ) :   0.1080 B( 11-C , 23-C ) :   0.6252
B( 11-C , 24-C ) :  -0.1111 B( 11-C , 25-C ) :   0.4115 B( 11-C , 26-C ) :   0.1077
B( 11-C , 34-H ) :   1.1562 B( 12-C , 13-C ) :  -0.6029 B( 12-C , 14-C ) :   0.2119
B( 12-C , 15-C ) :   0.1566 B( 12-C , 16-H ) :  -0.2550 B( 12-C , 17-C ) :  -0.1380
B( 12-C , 18-H ) :  -0.1763 B( 12-C , 19-C ) :  -0.1683 B( 12-C , 23-C ) :   0.3050
B( 12-C , 27-H ) :  -0.1058 B( 12-C , 34-H ) :  -0.1038 B( 13-C , 15-C ) :   1.2559
B( 13-C , 16-H ) :   1.6792 B( 13-C , 18-H ) :   0.2841 B( 13-C , 20-H ) :  -0.1474
B( 13-C , 22-H ) :   0.1502 B( 14-C , 15-C ) :  -0.1183 B( 14-C , 16-H ) :   0.1111
B( 14-C , 17-C ) :   1.4554 B( 14-C , 18-H ) :   0.9889 B( 14-C , 19-C ) :   0.1356
B( 15-C , 18-H ) :  -0.1511 B( 15-C , 19-C ) :   1.0799 B( 15-C , 20-H ) :   0.6886
B( 15-C , 22-H ) :  -0.1215 B( 17-C , 18-H ) :  -0.2942 B( 17-C , 19-C ) :   1.2144
B( 17-C , 21-H ) :   0.9680 B( 17-C , 22-H ) :  -0.1401 B( 18-H , 25-C ) :  -0.1025
B( 19-C , 22-H ) :   0.5395 B( 23-C , 24-C ) :  -0.6013 B( 23-C , 25-C ) :   0.2114
B( 23-C , 26-C ) :   0.1569 B( 23-C , 27-H ) :  -0.2552 B( 23-C , 28-C ) :  -0.1379
B( 23-C , 29-H ) :  -0.1767 B( 23-C , 30-C ) :  -0.1683 B( 23-C , 34-H ) :  -0.1039
B( 24-C , 26-C ) :   1.2556 B( 24-C , 27-H ) :   1.6795 B( 24-C , 29-H ) :   0.2839
B( 24-C , 31-H ) :  -0.1475 B( 24-C , 33-H ) :   0.1499 B( 25-C , 26-C ) :  -0.1184
B( 25-C , 27-H ) :   0.1112 B( 25-C , 28-C ) :   1.4555 B( 25-C , 29-H ) :   0.9891
B( 25-C , 30-C ) :   0.1359 B( 26-C , 29-H ) :  -0.1510 B( 26-C , 30-C ) :   1.0795
B( 26-C , 31-H ) :   0.6883 B( 26-C , 33-H ) :  -0.1213 B( 28-C , 29-H ) :  -0.2942
B( 28-C , 30-C ) :   1.2144 B( 28-C , 32-H ) :   0.9681 B( 28-C , 33-H ) :  -0.1400
B( 30-C , 33-H ) :   0.5395

MP2 TOTAL ENERGY:     -732.114472438 Eh
FINAL SINGLE POINT ENERGY      -732.114472438281

DIPOLE MOMENT
-------------
                                X             Y             Z
Electronic contribution:      0.00021      -0.00006      -0.70680
Nuclear contribution   :     -0.00025       0.00014       0.69088
                        -----------------------------------------
Total Dipole Moment    :     -0.00003       0.00009      -0.01593
                        -----------------------------------------
Magnitude (a.u.)       :      0.01593
Magnitude (Debye)      :      0.04048

Rotational constants in cm-1:     0.013125     0.013124     0.007645
Rotational constants in MHz :   393.487043   393.455311   229.182681

                             ****ORCA TERMINATED NORMALLY****
TOTAL RUN TIME: 0 days 0 hours 38 minutes 29 seconds 685 msec
