                         Program Version 4.2.1 -  RELEASE  -
|  1> %pal
|  2>  nprocs 32
|  3> end
|  4> !RI-MP2 aug-cc-pVTZ aug-cc-pVTZ/C TightSCF
|  5> %maxcore 4500
|  6> *xyzfile 0 1  02_45R1.xyz
|  7>
|  8>
|  9>                          ****END OF INPUT****

CARTESIAN COORDINATES (ANGSTROEM)
---------------------------------
  C      0.556558    1.288319    0.000196
  C      1.763509    0.742149    0.000110
  C      0.556549   -1.288319   -0.000198
  C      1.763504   -0.742156   -0.000116
  S     -0.687295    0.000004    0.000001
  O     -1.420280   -0.000194    1.255715
  O     -1.420284    0.000193   -1.255710
  H      2.683961   -1.309866   -0.000203
  H      0.256282   -2.324321   -0.000353
  H      0.256297    2.324322    0.000352
  H      2.683970    1.309853    0.000194

 Total Charge           Charge          ....    0
 Multiplicity           Mult            ....    1
 Number of Electrons    NEL             ....   60
 Basis Dimension        Dim             ....  418

ORBITAL ENERGIES
----------------

  NO   OCC          E(Eh)            E(eV)
   0   2.0000     -92.191258     -2508.6517
   1   2.0000     -20.552186      -559.2534
   2   2.0000     -20.552165      -559.2528
   3   2.0000     -11.297481      -307.4201
   4   2.0000     -11.296760      -307.4005
   5   2.0000     -11.290858      -307.2399
   6   2.0000     -11.290847      -307.2396
   7   2.0000      -9.160408      -249.2674
   8   2.0000      -6.845299      -186.2701
   9   2.0000      -6.844529      -186.2491
  10   2.0000      -6.844357      -186.2444
  11   2.0000      -1.452809       -39.5329
  12   2.0000      -1.339021       -36.4366
  13   2.0000      -1.190686       -32.4002
  14   2.0000      -1.045561       -28.4512
  15   2.0000      -0.961283       -26.1578
  16   2.0000      -0.807933       -21.9850
  17   2.0000      -0.803324       -21.8595
  18   2.0000      -0.740093       -20.1390
  19   2.0000      -0.659120       -17.9356
  20   2.0000      -0.645349       -17.5608
  21   2.0000      -0.644879       -17.5481
  22   2.0000      -0.636202       -17.3119
  23   2.0000      -0.590946       -16.0804
  24   2.0000      -0.521994       -14.2042
  25   2.0000      -0.511668       -13.9232
  26   2.0000      -0.495715       -13.4891
  27   2.0000      -0.461761       -12.5652
  28   2.0000      -0.449069       -12.2198
  29   2.0000      -0.377940       -10.2843
  30   0.0000       0.018061         0.4915
  31   0.0000       0.028508         0.7757
  32   0.0000       0.034587         0.9412
  33   0.0000       0.037590         1.0229
  34   0.0000       0.046101         1.2545

MULLIKEN ATOMIC CHARGES
-----------------------
   0 C :   -0.559411
   1 C :   -0.513706
   2 C :   -0.559405
   3 C :   -0.513714
   4 S :    2.135687
   5 O :   -0.951180
   6 O :   -0.951180
   7 H :    0.471259
   8 H :    0.485195
   9 H :    0.485197
  10 H :    0.471260
Sum of atomic charges:   -0.0000000

LOEWDIN ATOMIC CHARGES
----------------------
   0 C :    0.130816
   1 C :    0.141891
   2 C :    0.130816
   3 C :    0.141891
   4 S :    0.211975
   5 O :    0.011372
   6 O :    0.011373
   7 H :   -0.180458
   8 H :   -0.209609
   9 H :   -0.209610
  10 H :   -0.180457

  Mayer bond orders larger than 0.100000
B(  0-C ,  1-C ) :   1.5730 B(  0-C ,  2-C ) :   0.2710 B(  0-C ,  3-C ) :  -0.1102
B(  0-C ,  4-S ) :   0.9433 B(  0-C ,  9-H ) :   0.7797 B(  1-C ,  2-C ) :  -0.1102
B(  1-C ,  3-C ) :   1.0619 B(  1-C , 10-H ) :   0.8523 B(  2-C ,  3-C ) :   1.5730
B(  2-C ,  4-S ) :   0.9433 B(  2-C ,  8-H ) :   0.7797 B(  3-C ,  7-H ) :   0.8523
B(  4-S ,  5-O ) :   1.2408 B(  4-S ,  6-O ) :   1.2408 B(  5-O ,  6-O ) :   0.1075

MP2 TOTAL ENERGY:     -702.387926287 Eh
FINAL SINGLE POINT ENERGY      -702.387926286542

DIPOLE MOMENT
-------------
                                X             Y             Z
Electronic contribution:     -3.34118       0.00002       0.00000
Nuclear contribution   :      5.68297      -0.00001      -0.00001
                        -----------------------------------------
Total Dipole Moment    :      2.34178       0.00001      -0.00001
                        -----------------------------------------
Magnitude (a.u.)       :      2.34178
Magnitude (Debye)      :      5.95234

Rotational constants in cm-1:     0.142974     0.074375     0.069187
Rotational constants in MHz :  4286.248922  2229.709621  2074.164617

                             ****ORCA TERMINATED NORMALLY****
TOTAL RUN TIME: 0 days 0 hours 1 minutes 18 seconds 60 msec
