                         Program Version 4.2.1 -  RELEASE  -
|  1> %pal
|  2>  nprocs 32
|  3> end
|  4> !RI-MP2 aug-cc-pVTZ aug-cc-pVTZ/C TightSCF
|  5> %maxcore 4500
|  6> *xyzfile 1 1  05_19P1.xyz
|  7>
|  8>
|  9>                          ****END OF INPUT****

CARTESIAN COORDINATES (ANGSTROEM)
---------------------------------
  C      4.366697   -0.670126    0.015299
  C      3.162762   -0.000000    0.003858
  C      4.366697    0.670126    0.015304
  H      4.922139   -1.595785    0.020594
  H      4.922139    1.595785    0.020606
  C      1.748011    0.000000   -0.008684
  C      1.053614    1.219304   -0.015922
  C      1.053614   -1.219304   -0.015921
  C     -0.325026    1.215237   -0.028693
  H      1.596158    2.156465   -0.013295
  C     -0.325026   -1.215237   -0.028691
  H      1.596158   -2.156465   -0.013294
  C     -1.003412    0.000000   -0.034377
  H     -0.878374    2.144611   -0.041459
  H     -0.878375   -2.144611   -0.041455
  C     -2.516644    0.000000    0.001920
  F     -2.942703   -0.000005    1.271397
  F     -3.015736    1.082030   -0.599930
  F     -3.015736   -1.082025   -0.599939

 Total Charge           Charge          ....    1
 Multiplicity           Mult            ....    1
 Number of Electrons    NEL             ....   92
 Basis Dimension        Dim             ....  736

ORBITAL ENERGIES
----------------

  NO   OCC          E(Eh)            E(eV)
   0   2.0000     -26.449147      -719.7179
   1   2.0000     -26.449126      -719.7173
   2   2.0000     -26.445521      -719.6192
   3   2.0000     -11.627175      -316.3915
   4   2.0000     -11.528416      -313.7042
   5   2.0000     -11.517229      -313.3997
   6   2.0000     -11.515643      -313.3566
   7   2.0000     -11.434259      -311.1420
   8   2.0000     -11.427552      -310.9595
   9   2.0000     -11.424823      -310.8852
  10   2.0000     -11.424733      -310.8828
  11   2.0000     -11.401923      -310.2621
  12   2.0000     -11.401883      -310.2610
  13   2.0000      -1.841840       -50.1190
  14   2.0000      -1.747405       -47.5493
  15   2.0000      -1.743410       -47.4406
  16   2.0000      -1.472252       -40.0620
  17   2.0000      -1.344586       -36.5880
  18   2.0000      -1.241371       -33.7794
  19   2.0000      -1.199443       -32.6385
  20   2.0000      -1.119277       -30.4571
  21   2.0000      -1.038137       -28.2492
  22   2.0000      -1.034657       -28.1544
  23   2.0000      -1.006102       -27.3774
  24   2.0000      -0.980321       -26.6759
  25   2.0000      -0.933594       -25.4044
  26   2.0000      -0.931615       -25.3505
  27   2.0000      -0.931479       -25.3468
  28   2.0000      -0.920131       -25.0380
  29   2.0000      -0.831642       -22.6301
  30   2.0000      -0.820984       -22.3401
  31   2.0000      -0.806666       -21.9505
  32   2.0000      -0.801797       -21.8180
  33   2.0000      -0.786399       -21.3990
  34   2.0000      -0.778591       -21.1865
  35   2.0000      -0.772511       -21.0211
  36   2.0000      -0.760115       -20.6838
  37   2.0000      -0.755638       -20.5619
  38   2.0000      -0.751102       -20.4385
  39   2.0000      -0.730059       -19.8659
  40   2.0000      -0.725562       -19.7436
  41   2.0000      -0.672453       -18.2984
  42   2.0000      -0.670574       -18.2472
  43   2.0000      -0.666917       -18.1477
  44   2.0000      -0.524524       -14.2730
  45   2.0000      -0.510789       -13.8993
  46   0.0000      -0.130146        -3.5415
  47   0.0000      -0.095592        -2.6012
  48   0.0000      -0.086142        -2.3440
  49   0.0000      -0.073404        -1.9974
  50   0.0000      -0.062979        -1.7137

MULLIKEN ATOMIC CHARGES
-----------------------
   0 C :   -0.848186
   1 C :    1.689305
   2 C :   -0.848193
   3 H :    0.442085
   4 H :    0.442094
   5 C :    2.351843
   6 C :   -1.279638
   7 C :   -1.279609
   8 C :   -0.755669
   9 H :   -0.036710
  10 C :   -0.755705
  11 H :   -0.036711
  12 C :    0.970761
  13 H :    0.414416
  14 H :    0.414417
  15 C :    1.316115
  16 F :   -0.405681
  17 F :   -0.397467
  18 F :   -0.397467
Sum of atomic charges:    1.0000000

LOEWDIN ATOMIC CHARGES
----------------------
   0 C :    0.450836
   1 C :    0.011799
   2 C :    0.450836
   3 H :   -0.112617
   4 H :   -0.112616
   5 C :   -0.102280
   6 C :    0.258499
   7 C :    0.258499
   8 C :    0.257443
   9 H :   -0.149398
  10 C :    0.257443
  11 H :   -0.149398
  12 C :   -0.105239
  13 H :   -0.164711
  14 H :   -0.164710
  15 C :   -1.482848
  16 F :    0.524433
  17 F :    0.537015
  18 F :    0.537015

  Mayer bond orders larger than 0.100000
B(  0-C ,  2-C ) :   1.4836 B(  0-C ,  3-H ) :   1.0951 B(  0-C ,  5-C ) :   0.1630
B(  1-C ,  6-C ) :   0.3617 B(  1-C ,  7-C ) :   0.3617 B(  1-C ,  9-H ) :  -0.2146
B(  1-C , 11-H ) :  -0.2146 B(  1-C , 13-H ) :   0.1182 B(  1-C , 14-H ) :   0.1182
B(  2-C ,  4-H ) :   1.0951 B(  2-C ,  5-C ) :   0.1630 B(  5-C ,  6-C ) :  -0.2886
B(  5-C ,  7-C ) :  -0.2886 B(  5-C ,  9-H ) :  -0.3805 B(  5-C , 11-H ) :  -0.3805
B(  5-C , 12-C ) :   0.1255 B(  5-C , 13-H ) :  -0.1602 B(  5-C , 14-H ) :  -0.1601
B(  6-C ,  7-C ) :  -0.4499 B(  6-C ,  8-C ) :   1.5082 B(  6-C ,  9-H ) :   1.9388
B(  6-C , 11-H ) :   0.2778 B(  6-C , 12-C ) :  -0.2558 B(  7-C ,  9-H ) :   0.2778
B(  7-C , 10-C ) :   1.5082 B(  7-C , 11-H ) :   1.9387 B(  7-C , 12-C ) :  -0.2558
B(  8-C , 12-C ) :   0.7563 B(  8-C , 13-H ) :   0.8421 B(  9-H , 11-H ) :   0.1594
B( 10-C , 12-C ) :   0.7563 B( 10-C , 14-H ) :   0.8421 B( 12-C , 15-C ) :   0.9511
B( 12-C , 17-F ) :   0.1159 B( 12-C , 18-F ) :   0.1159 B( 15-C , 16-F ) :   0.7918
B( 15-C , 17-F ) :   0.7282 B( 15-C , 18-F ) :   0.7282

MP2 TOTAL ENERGY:     -682.737611985 Eh
FINAL SINGLE POINT ENERGY      -682.737611984724

DIPOLE MOMENT
-------------
                                X             Y             Z
Electronic contribution:    -12.75879       0.00000       0.10395
Nuclear contribution   :     19.20881       0.00000      -0.13250
                        -----------------------------------------
Total Dipole Moment    :      6.45002       0.00000      -0.02855
                        -----------------------------------------
Magnitude (a.u.)       :      6.45008
Magnitude (Debye)      :     16.39481

Rotational constants in cm-1:     0.086592     0.012579     0.011659
Rotational constants in MHz :  2595.959229   377.113611   349.518110

                             ****ORCA TERMINATED NORMALLY****
TOTAL RUN TIME: 0 days 0 hours 6 minutes 49 seconds 594 msec
