                         Program Version 4.2.1 -  RELEASE  -
|  1> %pal
|  2>  nprocs 32
|  3> end
|  4> !RI-MP2 aug-cc-pVTZ aug-cc-pVTZ/C TightSCF
|  5> %maxcore 4500
|  6> *xyzfile 0 1  05_30R1.xyz
|  7>
|  8>
|  9>                          ****END OF INPUT****

CARTESIAN COORDINATES (ANGSTROEM)
---------------------------------
  C     -0.524953   -0.831728    1.155461
  C      0.774665   -0.383581    0.526598
  C      1.603155   -1.290275   -0.122880
  C      1.168608    0.949562    0.611689
  C      2.811947   -0.879277   -0.671695
  H      1.299486   -2.328655   -0.204966
  C      2.370063    1.364473    0.059020
  H      0.516845    1.659433    1.107050
  C      3.197358    0.449797   -0.582601
  H      3.447804   -1.597174   -1.175982
  H      2.665581    2.404622    0.129781
  O     -1.590279    0.068389    0.939808
  C     -2.062483    0.139920   -0.406284
  H     -1.198663    0.126950   -1.082546
  H      4.136432    0.774648   -1.014133
  C     -2.775002    1.470637   -0.538818
  H     -2.090608    2.292254   -0.324094
  H     -3.169329    1.598910   -1.548962
  H     -3.606254    1.522053    0.167998
  C     -2.973959   -1.035821   -0.727398
  H     -2.460159   -1.991708   -0.611452
  H     -3.841536   -1.029321   -0.063751
  H     -3.325160   -0.973861   -1.759849
  H     -0.775184   -1.839661    0.803416
  H     -0.413415   -0.887832    2.240480

 Total Charge           Charge          ....    0
 Multiplicity           Mult            ....    1
 Number of Electrons    NEL             ....   82
 Basis Dimension        Dim             ....  828

ORBITAL ENERGIES
----------------

  NO   OCC          E(Eh)            E(eV)
   0   2.0000     -20.550590      -559.2100
   1   2.0000     -11.277884      -306.8868
   2   2.0000     -11.274588      -306.7971
   3   2.0000     -11.236660      -305.7651
   4   2.0000     -11.234953      -305.7186
   5   2.0000     -11.234130      -305.6962
   6   2.0000     -11.232589      -305.6543
   7   2.0000     -11.231856      -305.6344
   8   2.0000     -11.228775      -305.5505
   9   2.0000     -11.212329      -305.1030
  10   2.0000     -11.208989      -305.0121
  11   2.0000      -1.372677       -37.3524
  12   2.0000      -1.157225       -31.4897
  13   2.0000      -1.061358       -28.8810
  14   2.0000      -1.027834       -27.9688
  15   2.0000      -1.016004       -27.6469
  16   2.0000      -0.939214       -25.5573
  17   2.0000      -0.913451       -24.8563
  18   2.0000      -0.829606       -22.5747
  19   2.0000      -0.814416       -22.1614
  20   2.0000      -0.778059       -21.1721
  21   2.0000      -0.700945       -19.0737
  22   2.0000      -0.677707       -18.4414
  23   2.0000      -0.647922       -17.6309
  24   2.0000      -0.641849       -17.4656
  25   2.0000      -0.616498       -16.7758
  26   2.0000      -0.614270       -16.7151
  27   2.0000      -0.586556       -15.9610
  28   2.0000      -0.585971       -15.9451
  29   2.0000      -0.549431       -14.9508
  30   2.0000      -0.542367       -14.7586
  31   2.0000      -0.534912       -14.5557
  32   2.0000      -0.518058       -14.0971
  33   2.0000      -0.508176       -13.8282
  34   2.0000      -0.493554       -13.4303
  35   2.0000      -0.489579       -13.3221
  36   2.0000      -0.482755       -13.1364
  37   2.0000      -0.454314       -12.3625
  38   2.0000      -0.417953       -11.3731
  39   2.0000      -0.338641        -9.2149
  40   2.0000      -0.331098        -9.0096
  41   0.0000       0.027156         0.7390
  42   0.0000       0.032053         0.8722
  43   0.0000       0.034323         0.9340
  44   0.0000       0.037666         1.0249
  45   0.0000       0.044440         1.2093

MULLIKEN ATOMIC CHARGES
-----------------------
   0 C :   -0.230135
   1 C :    1.574345
   2 C :   -0.989960
   3 C :   -0.859506
   4 C :   -0.562487
   5 H :   -0.152672
   6 C :   -0.704467
   7 H :    0.181694
   8 C :   -0.093861
   9 H :    0.619099
  10 H :    0.500325
  11 O :   -0.825243
  12 C :    0.741902
  13 H :    0.406743
  14 H :    0.411790
  15 C :   -1.206390
  16 H :    0.314887
  17 H :    0.287206
  18 H :    0.250765
  19 C :   -1.236454
  20 H :    0.313200
  21 H :    0.267346
  22 H :    0.266797
  23 H :    0.312101
  24 H :    0.412977
Sum of atomic charges:    0.0000000

LOEWDIN ATOMIC CHARGES
----------------------
   0 C :    0.025096
   1 C :   -0.125497
   2 C :    0.212238
   3 C :    0.212204
   4 C :    0.196366
   5 H :   -0.176267
   6 C :    0.199604
   7 H :   -0.171856
   8 C :    0.191608
   9 H :   -0.182851
  10 H :   -0.182031
  11 O :    0.593796
  12 C :   -0.311214
  13 H :   -0.146194
  14 H :   -0.185010
  15 C :    0.581723
  16 H :   -0.167377
  17 H :   -0.165717
  18 H :   -0.163720
  19 C :    0.592114
  20 H :   -0.179804
  21 H :   -0.160058
  22 H :   -0.163864
  23 H :   -0.174957
  24 H :   -0.148331

  Mayer bond orders larger than 0.100000
B(  0-C ,  1-C ) :   0.4239 B(  0-C ,  2-C ) :   0.1368 B(  0-C ,  3-C ) :   0.1776
B(  0-C , 11-O ) :   0.9434 B(  0-C , 23-H ) :   1.0574 B(  0-C , 24-H ) :   0.8897
B(  1-C ,  2-C ) :   0.1357 B(  1-C ,  3-C ) :   0.6334 B(  1-C ,  4-C ) :   0.2463
B(  1-C ,  5-H ) :  -0.4187 B(  1-C ,  6-C ) :   0.1740 B(  1-C ,  7-H ) :  -0.2996
B(  2-C ,  3-C ) :  -0.2322 B(  2-C ,  4-C ) :   1.1542 B(  2-C ,  5-H ) :   2.0426
B(  2-C ,  7-H ) :   0.3373 B(  2-C ,  8-C ) :  -0.3284 B(  2-C ,  9-H ) :  -0.1838
B(  2-C , 10-H ) :  -0.1009 B(  2-C , 14-H ) :   0.2353 B(  3-C ,  5-H ) :   0.1432
B(  3-C ,  6-C ) :   1.3608 B(  3-C ,  7-H ) :   1.2900 B(  3-C ,  8-C ) :  -0.1530
B(  4-C ,  5-H ) :  -0.1633 B(  4-C ,  6-C ) :   0.2484 B(  4-C ,  8-C ) :   1.0820
B(  4-C ,  9-H ) :   0.5393 B(  4-C , 14-H ) :  -0.1843 B(  6-C ,  8-C ) :   1.1322
B(  6-C , 10-H ) :   0.7225 B(  6-C , 14-H ) :  -0.1949 B(  8-C , 14-H ) :   0.8865
B( 11-O , 12-C ) :   0.5772 B( 12-C , 13-H ) :   0.8510 B( 12-C , 15-C ) :   0.6473
B( 12-C , 19-C ) :   0.6678 B( 15-C , 16-H ) :   0.9363 B( 15-C , 17-H ) :   0.9998
B( 15-C , 18-H ) :   1.0131 B( 15-C , 19-C ) :   0.1425 B( 19-C , 20-H ) :   0.9412
B( 19-C , 21-H ) :   1.0021 B( 19-C , 22-H ) :   1.0111

MP2 TOTAL ENERGY:     -463.765428025 Eh
FINAL SINGLE POINT ENERGY      -463.765428024575

DIPOLE MOMENT
-------------
                                X             Y             Z
Electronic contribution:      9.19748       0.04023       2.99645
Nuclear contribution   :     -9.06171      -0.27502      -3.40581
                        -----------------------------------------
Total Dipole Moment    :      0.13577      -0.23479      -0.40937
                        -----------------------------------------
Magnitude (a.u.)       :      0.49106
Magnitude (Debye)      :      1.24818

Rotational constants in cm-1:     0.073952     0.020831     0.019048
Rotational constants in MHz :  2217.036044   624.489203   571.035447

                             ****ORCA TERMINATED NORMALLY****
TOTAL RUN TIME: 0 days 0 hours 8 minutes 55 seconds 58 msec
