                         Program Version 4.2.1 -  RELEASE  -
|  1> %pal
|  2>  nprocs 32
|  3> end
|  4> !RI-MP2 aug-cc-pVTZ aug-cc-pVTZ/C TightSCF
|  5> %maxcore 4500
|  6> *xyzfile -1 1  09_19P.xyz
|  7>
|  8>
|  9>                          ****END OF INPUT****

CARTESIAN COORDINATES (ANGSTROEM)
---------------------------------
  C     -3.672693   -1.045470   -0.127380
  C     -3.750010   -0.646252    1.202956
  C     -2.802111    0.232446    1.707908
  C     -1.785163    0.714614    0.891513
  C     -1.695565    0.316597   -0.435651
  C     -2.651588   -0.567113   -0.934019
  H     -2.579803   -0.888939   -1.968135
  H     -4.409133   -1.731560   -0.532372
  H     -4.545982   -1.018082    1.838985
  H     -2.853118    0.547082    2.744668
  H     -1.045175    1.411949    1.265860
  C     -0.565680    0.803947   -1.353330
  C      0.235593    1.963059   -0.874315
  C      1.339583    1.793208   -0.067282
  C      1.753996    0.349748    0.089926
  C      1.202078   -0.648230   -0.719586
  C      1.648038   -1.962750   -0.635151
  C      2.640564   -2.297974    0.275595
  C      3.190881   -1.321103    1.098359
  C      2.747347   -0.009309    0.991845
  H      3.168436    0.793875    1.585741
  H      2.979268   -3.326524    0.344414
  H      3.966354   -1.581181    1.810756
  H      1.200015   -2.705401   -1.284882
  O      0.247103   -0.366917   -1.644169
  O      2.036625    2.673720    0.510446
  H     -1.025294    1.032933   -2.319156
  H     -0.137012    2.958903   -1.084422

 Total Charge           Charge          ....   -1
 Multiplicity           Mult            ....    1
 Number of Electrons    NEL             ....  118
 Basis Dimension        Dim             .... 1035

ORBITAL ENERGIES
----------------

  NO   OCC          E(Eh)            E(eV)
   0   2.0000     -20.443581      -556.2981
   1   2.0000     -20.302572      -552.4611
   2   2.0000     -11.163454      -303.7730
   3   2.0000     -11.159568      -303.6673
   4   2.0000     -11.131705      -302.9091
   5   2.0000     -11.130393      -302.8734
   6   2.0000     -11.127348      -302.7905
   7   2.0000     -11.123584      -302.6881
   8   2.0000     -11.119852      -302.5866
   9   2.0000     -11.117432      -302.5207
  10   2.0000     -11.115944      -302.4802
  11   2.0000     -11.113554      -302.4152
  12   2.0000     -11.101481      -302.0867
  13   2.0000     -11.101385      -302.0841
  14   2.0000     -11.098573      -302.0075
  15   2.0000     -11.086617      -301.6822
  16   2.0000     -11.016471      -299.7734
  17   2.0000      -1.271607       -34.6022
  18   2.0000      -1.136801       -30.9339
  19   2.0000      -1.047541       -28.5050
  20   2.0000      -1.018677       -27.7196
  21   2.0000      -0.937500       -25.5107
  22   2.0000      -0.908071       -24.7099
  23   2.0000      -0.898564       -24.4512
  24   2.0000      -0.879177       -23.9236
  25   2.0000      -0.854763       -23.2593
  26   2.0000      -0.759035       -20.6544
  27   2.0000      -0.719618       -19.5818
  28   2.0000      -0.702544       -19.1172
  29   2.0000      -0.697919       -18.9913
  30   2.0000      -0.669059       -18.2060
  31   2.0000      -0.598884       -16.2965
  32   2.0000      -0.573808       -15.6141
  33   2.0000      -0.569254       -15.4902
  34   2.0000      -0.540892       -14.7184
  35   2.0000      -0.532006       -14.4766
  36   2.0000      -0.516512       -14.0550
  37   2.0000      -0.500461       -13.6182
  38   2.0000      -0.488895       -13.3035
  39   2.0000      -0.478509       -13.0209
  40   2.0000      -0.467316       -12.7163
  41   2.0000      -0.460528       -12.5316
  42   2.0000      -0.430484       -11.7141
  43   2.0000      -0.424626       -11.5547
  44   2.0000      -0.405692       -11.0394
  45   2.0000      -0.395885       -10.7726
  46   2.0000      -0.390705       -10.6316
  47   2.0000      -0.382458       -10.4072
  48   2.0000      -0.377050       -10.2600
  49   2.0000      -0.370600       -10.0845
  50   2.0000      -0.351457        -9.5636
  51   2.0000      -0.324079        -8.8186
  52   2.0000      -0.315217        -8.5775
  53   2.0000      -0.230737        -6.2787
  54   2.0000      -0.224798        -6.1171
  55   2.0000      -0.214197        -5.8286
  56   2.0000      -0.204592        -5.5672
  57   2.0000      -0.184879        -5.0308
  58   2.0000      -0.113097        -3.0775
  59   0.0000       0.091173         2.4809
  60   0.0000       0.099644         2.7115
  61   0.0000       0.100247         2.7279
  62   0.0000       0.110532         3.0077
  63   0.0000       0.111010         3.0207

MULLIKEN ATOMIC CHARGES
-----------------------
   0 C :   -0.684111
   1 C :   -0.020691
   2 C :   -1.090809
   3 C :   -0.542864
   4 C :    1.529541
   5 C :   -1.112786
   6 H :    0.220663
   7 H :    0.441495
   8 H :    0.588142
   9 H :    0.377878
  10 H :    0.094077
  11 C :    0.512171
  12 C :   -1.046926
  13 C :    0.926404
  14 C :    1.538366
  15 C :    0.889047
  16 C :   -1.275187
  17 C :   -0.207342
  18 C :   -0.489072
  19 C :   -1.250397
  20 H :   -0.015207
  21 H :    0.405874
  22 H :    0.551785
  23 H :    0.497255
  24 O :   -1.154033
  25 O :   -1.418463
  26 H :    0.332077
  27 H :    0.403115
Sum of atomic charges:   -1.0000000

LOEWDIN ATOMIC CHARGES
----------------------
   0 C :    0.175595
   1 C :    0.167694
   2 C :    0.191151
   3 C :    0.222494
   4 C :   -0.096396
   5 C :    0.203967
   6 H :   -0.175905
   7 H :   -0.194807
   8 H :   -0.197002
   9 H :   -0.189939
  10 H :   -0.189157
  11 C :   -0.287998
  12 C :    0.152821
  13 C :   -0.691267
  14 C :   -0.121310
  15 C :   -0.392670
  16 C :    0.194289
  17 C :    0.153207
  18 C :    0.167326
  19 C :    0.188857
  20 H :   -0.199385
  21 H :   -0.197558
  22 H :   -0.204724
  23 H :   -0.192749
  24 O :    0.596670
  25 O :    0.306899
  26 H :   -0.168083
  27 H :   -0.222022

  Mayer bond orders larger than 0.100000
B(  0-C ,  1-C ) :   1.0545 B(  0-C ,  2-C ) :   0.1267 B(  0-C ,  4-C ) :   0.1488
B(  0-C ,  5-C ) :   1.3653 B(  0-C ,  7-H ) :   0.8049 B(  0-C ,  8-H ) :  -0.1566
B(  1-C ,  2-C ) :   1.0844 B(  1-C ,  3-C ) :  -0.2147 B(  1-C ,  8-H ) :   0.6047
B(  2-C ,  3-C ) :   1.1351 B(  2-C ,  8-H ) :  -0.2422 B(  2-C ,  9-H ) :   0.9416
B(  2-C , 10-H ) :  -0.1152 B(  2-C , 14-C ) :  -0.1170 B(  2-C , 15-C ) :   0.1063
B(  3-C ,  4-C ) :   0.3900 B(  3-C ,  5-C ) :  -0.3674 B(  3-C ,  6-H ) :   0.2377
B(  3-C , 10-H ) :   1.6004 B(  3-C , 11-C ) :   0.1771 B(  3-C , 13-C ) :  -0.1279
B(  3-C , 14-C ) :   0.1865 B(  3-C , 15-C ) :  -0.1685 B(  4-C ,  5-C ) :   0.3122
B(  4-C ,  6-H ) :  -0.2334 B(  4-C , 10-H ) :  -0.2531 B(  4-C , 11-C ) :   0.4595
B(  4-C , 12-C ) :   0.2352 B(  4-C , 15-C ) :   0.2183 B(  4-C , 26-H ) :  -0.1135
B(  5-C ,  6-H ) :   1.3285 B(  5-C ,  8-H ) :   0.1149 B(  5-C , 10-H ) :   0.1152
B(  5-C , 11-C ) :   0.1653 B(  6-H , 24-O ) :  -0.1152 B( 10-H , 14-C ) :   0.1191
B( 11-C , 12-C ) :   0.8362 B( 11-C , 16-C ) :   0.1173 B( 11-C , 24-O ) :   0.6010
B( 11-C , 26-H ) :   1.0166 B( 12-C , 13-C ) :   1.3738 B( 12-C , 15-C ) :  -0.1959
B( 12-C , 16-C ) :  -0.1690 B( 12-C , 19-C ) :   0.1573 B( 12-C , 24-O ) :   0.1779
B( 12-C , 25-O ) :   0.1484 B( 12-C , 27-H ) :   0.7373 B( 13-C , 14-C ) :   0.5446
B( 13-C , 15-C ) :   0.1506 B( 13-C , 16-C ) :   0.1339 B( 13-C , 18-C ) :   0.1826
B( 13-C , 19-C ) :   0.2043 B( 13-C , 20-H ) :  -0.2063 B( 13-C , 22-H ) :   0.1110
B( 13-C , 25-O ) :   0.1159 B( 14-C , 15-C ) :   0.6959 B( 14-C , 16-C ) :   0.1146
B( 14-C , 17-C ) :   0.1637 B( 14-C , 19-C ) :   0.2883 B( 14-C , 20-H ) :  -0.3073
B( 14-C , 24-O ) :  -0.2342 B( 15-C , 16-C ) :   0.4442 B( 15-C , 17-C ) :  -0.2768
B( 15-C , 19-C ) :  -0.3585 B( 15-C , 20-H ) :   0.2750 B( 15-C , 24-O ) :   0.7101
B( 16-C , 17-C ) :   1.2241 B( 16-C , 18-C ) :   0.2251 B( 16-C , 19-C ) :   0.1289
B( 16-C , 21-H ) :  -0.1223 B( 16-C , 23-H ) :   0.5651 B( 16-C , 24-O ) :   0.2491
B( 17-C , 18-C ) :   1.0937 B( 17-C , 19-C ) :  -0.3709 B( 17-C , 21-H ) :   0.8493
B( 18-C , 19-C ) :   1.1792 B( 18-C , 20-H ) :  -0.1483 B( 18-C , 21-H ) :  -0.2344
B( 18-C , 22-H ) :   0.6956 B( 19-C , 20-H ) :   1.7847 B( 19-C , 22-H ) :  -0.1326
B( 20-H , 25-O ) :   0.1648

MP2 TOTAL ENERGY:     -727.287324963 Eh
FINAL SINGLE POINT ENERGY      -727.287324962758

DIPOLE MOMENT
-------------
                                X             Y             Z
Electronic contribution:      2.96877       1.74822      -2.27796
Nuclear contribution   :     -5.16282      -4.40016       2.34604
                        -----------------------------------------
Total Dipole Moment    :     -2.19405      -2.65195       0.06808
                        -----------------------------------------
Magnitude (a.u.)       :      3.44257
Magnitude (Debye)      :      8.75032

Rotational constants in cm-1:     0.026426     0.012248     0.010749
Rotational constants in MHz :   792.219284   367.200291   322.235780

                             ****ORCA TERMINATED NORMALLY****
TOTAL RUN TIME: 0 days 0 hours 25 minutes 46 seconds 849 msec
