                         Program Version 4.2.1 -  RELEASE  -
|  1> %pal
|  2>  nprocs 32
|  3> end
|  4> !RI-MP2 aug-cc-pVTZ aug-cc-pVTZ/C TightSCF
|  5> %maxcore 4500
|  6> *xyzfile 0 2  04_54P1.xyz
|  7>
|  8>
|  9>                          ****END OF INPUT****

CARTESIAN COORDINATES (ANGSTROEM)
---------------------------------
  N      2.045430    0.366433   -0.644858
  C      1.493374    1.607900   -0.134752
  C     -0.031121    1.553443   -0.073780
  H      1.912990    1.786198    0.855923
  H      1.771919    2.421948   -0.799672
  O     -0.731428    2.140129   -0.874958
  N     -0.520803    0.772717    0.924958
  H      0.153895    0.198331    1.422600
  C     -1.892429    0.356255    0.885048
  C     -2.119286   -0.769544   -0.104920
  H     -2.218181    0.021820    1.871060
  H     -2.526548    1.194065    0.593851
  O     -1.270874   -1.311201   -0.755977
  O     -3.418962   -1.105612   -0.160746
  H     -3.511084   -1.820639   -0.805853
  C      2.190439   -0.730852    0.154817
  C      2.676076   -1.933317   -0.487362
  O      1.931604   -0.689435    1.358551
  H      2.070985    0.239943   -1.643921
  H      2.876935   -1.978457   -1.549517
  H      2.811666   -2.811606    0.125562

 Total Charge           Charge          ....    0
 Multiplicity           Mult            ....    2
 Number of Electrons    NEL             ....   91
 Basis Dimension        Dim             ....  759

ORBITAL ENERGIES
----------------
                 SPIN UP ORBITALS
  NO   OCC          E(Eh)            E(eV)
   0   1.0000     -20.619382      -561.0819
   1   1.0000     -20.555995      -559.3571
   2   1.0000     -20.542017      -558.9767
   3   1.0000     -20.525162      -558.5181
   4   1.0000     -15.603001      -424.5792
   5   1.0000     -15.580240      -423.9599
   6   1.0000     -11.389550      -309.9254
   7   1.0000     -11.364859      -309.2535
   8   1.0000     -11.348981      -308.8215
   9   1.0000     -11.286114      -307.1108
  10   1.0000     -11.283102      -307.0288
  11   1.0000     -11.275790      -306.8298
  12   1.0000      -1.476064       -40.1657
  13   1.0000      -1.406864       -38.2827
  14   1.0000      -1.389915       -37.8215
  15   1.0000      -1.372169       -37.3386
  16   1.0000      -1.253859       -34.1192
  17   1.0000      -1.237468       -33.6732
  18   1.0000      -1.058732       -28.8095
  19   1.0000      -1.017246       -27.6807
  20   1.0000      -0.959908       -26.1204
  21   1.0000      -0.845225       -22.9997
  22   1.0000      -0.807858       -21.9829
  23   1.0000      -0.784974       -21.3602
  24   1.0000      -0.733330       -19.9549
  25   1.0000      -0.720541       -19.6069
  26   1.0000      -0.713994       -19.4288
  27   1.0000      -0.700558       -19.0631
  28   1.0000      -0.677980       -18.4488
  29   1.0000      -0.656287       -17.8585
  30   1.0000      -0.650263       -17.6946
  31   1.0000      -0.617959       -16.8155
  32   1.0000      -0.614384       -16.7182
  33   1.0000      -0.600916       -16.3518
  34   1.0000      -0.594713       -16.1830
  35   1.0000      -0.589641       -16.0450
  36   1.0000      -0.566566       -15.4170
  37   1.0000      -0.549903       -14.9636
  38   1.0000      -0.537884       -14.6366
  39   1.0000      -0.492056       -13.3895
  40   1.0000      -0.470080       -12.7915
  41   1.0000      -0.465346       -12.6627
  42   1.0000      -0.454269       -12.3613
  43   1.0000      -0.429480       -11.6868
  44   1.0000      -0.401645       -10.9293
  45   1.0000      -0.394011       -10.7216
  46   0.0000       0.024498         0.6666
  47   0.0000       0.030959         0.8424
  48   0.0000       0.036427         0.9912
  49   0.0000       0.038644         1.0516
  50   0.0000       0.047234         1.2853

                 SPIN DOWN ORBITALS
  NO   OCC          E(Eh)            E(eV)
   0   1.0000     -20.619382      -561.0819
   1   1.0000     -20.555992      -559.3570
   2   1.0000     -20.534153      -558.7627
   3   1.0000     -20.525218      -558.5196
   4   1.0000     -15.601509      -424.5386
   5   1.0000     -15.580190      -423.9585
   6   1.0000     -11.389547      -309.9253
   7   1.0000     -11.369340      -309.3755
   8   1.0000     -11.348835      -308.8175
   9   1.0000     -11.286125      -307.1111
  10   1.0000     -11.283291      -307.0340
  11   1.0000     -11.254173      -306.2416
  12   1.0000      -1.476062       -40.1657
  13   1.0000      -1.396191       -37.9923
  14   1.0000      -1.387104       -37.7450
  15   1.0000      -1.372167       -37.3386
  16   1.0000      -1.248421       -33.9713
  17   1.0000      -1.236118       -33.6365
  18   1.0000      -1.038455       -28.2578
  19   1.0000      -0.994684       -27.0667
  20   1.0000      -0.929689       -25.2981
  21   1.0000      -0.843587       -22.9552
  22   1.0000      -0.803097       -21.8534
  23   1.0000      -0.784447       -21.3459
  24   1.0000      -0.729752       -19.8576
  25   1.0000      -0.715107       -19.4590
  26   1.0000      -0.712764       -19.3953
  27   1.0000      -0.696717       -18.9586
  28   1.0000      -0.672628       -18.3031
  29   1.0000      -0.654804       -17.8181
  30   1.0000      -0.649470       -17.6730
  31   1.0000      -0.611694       -16.6450
  32   1.0000      -0.607241       -16.5239
  33   1.0000      -0.596026       -16.2187
  34   1.0000      -0.586623       -15.9628
  35   1.0000      -0.566362       -15.4115
  36   1.0000      -0.563938       -15.3455
  37   1.0000      -0.547493       -14.8980
  38   1.0000      -0.537025       -14.6132
  39   1.0000      -0.492030       -13.3888
  40   1.0000      -0.467123       -12.7111
  41   1.0000      -0.450359       -12.2549
  42   1.0000      -0.442523       -12.0417
  43   1.0000      -0.404439       -11.0053
  44   1.0000      -0.386076       -10.5056
  45   0.0000       0.024777         0.6742
  46   0.0000       0.030293         0.8243
  47   0.0000       0.036368         0.9896
  48   0.0000       0.037847         1.0299
  49   0.0000       0.042498         1.1564

MULLIKEN ATOMIC CHARGES AND SPIN POPULATIONS
--------------------------------------------
   0 N :   -0.215671    0.039258
   1 C :    0.032344   -0.017844
   2 C :    0.416312    0.004043
   3 H :    0.326719    0.000850
   4 H :    0.344043    0.000219
   5 O :   -0.989907   -0.001273
   6 N :   -0.222643    0.004601
   7 H :    0.246088   -0.001926
   8 C :    0.018464   -0.000394
   9 C :    0.437174    0.000140
  10 H :    0.358462   -0.000040
  11 H :    0.348554    0.000174
  12 O :   -0.723617   -0.002255
  13 O :   -0.496009   -0.000064
  14 H :    0.259506    0.000027
  15 C :    1.030924   -0.144495
  16 C :   -1.145826    1.075039
  17 O :   -0.977103    0.176970
  18 H :    0.110647   -0.002673
  19 H :    0.396148   -0.048209
  20 H :    0.445389   -0.082150
Sum of atomic charges         :   -0.0000000

LOEWDIN ATOMIC CHARGES AND SPIN POPULATIONS
-------------------------------------------
   0 N :    0.545693    0.018640
   1 C :    0.214413    0.000858
   2 C :   -0.658269    0.001209
   3 H :   -0.154293   -0.000313
   4 H :   -0.152916   -0.000188
   5 O :    0.457569   -0.000693
   6 N :    0.542727    0.000812
   7 H :   -0.410735   -0.000276
   8 C :    0.178682   -0.000032
   9 C :   -0.785584    0.000066
  10 H :   -0.142584   -0.000016
  11 H :   -0.161271    0.000018
  12 O :    0.464609    0.000495
  13 O :    0.838560    0.000011
  14 H :   -0.466392    0.000004
  15 C :   -0.709415    0.107974
  16 C :    0.619177    0.522793
  17 O :    0.489013    0.125137
  18 H :   -0.278533   -0.000604
  19 H :   -0.214078    0.113972
  20 H :   -0.216372    0.110131

  Mayer bond orders larger than 0.100000
B(  0-N ,  1-C ) :   0.8772 B(  0-N , 15-C ) :   0.9686 B(  0-N , 18-H ) :   1.0095
B(  1-C ,  2-C ) :   0.5069 B(  1-C ,  3-H ) :   0.9717 B(  1-C ,  4-H ) :   0.9318
B(  2-C ,  5-O ) :   1.1185 B(  2-C ,  6-N ) :   0.9442 B(  6-N ,  7-H ) :   0.8959
B(  6-N ,  8-C ) :   1.0143 B(  8-C ,  9-C ) :   0.4795 B(  8-C , 10-H ) :   0.8754
B(  8-C , 11-H ) :   0.8981 B(  9-C , 12-O ) :   1.4738 B(  9-C , 13-O ) :   0.9295
B( 13-O , 14-H ) :   0.9533 B( 15-C , 16-C ) :   0.6353 B( 15-C , 17-O ) :   1.2200
B( 16-C , 19-H ) :   0.8985 B( 16-C , 20-H ) :   0.8493

MP2 TOTAL ENERGY:     -643.382540207 Eh
FINAL SINGLE POINT ENERGY      -643.382540206802

DIPOLE MOMENT
-------------
                                X             Y             Z
Electronic contribution:     -2.80259      -0.03356      -0.36364
Nuclear contribution   :      3.25380      -0.74713       0.06401
                        -----------------------------------------
Total Dipole Moment    :      0.45121      -0.78070      -0.29963
                        -----------------------------------------
Magnitude (a.u.)       :      0.95019
Magnitude (Debye)      :      2.41519

Rotational constants in cm-1:     0.044463     0.022260     0.017810
Rotational constants in MHz :  1332.959568   667.323662   533.919489

                             ****ORCA TERMINATED NORMALLY****
TOTAL RUN TIME: 0 days 0 hours 15 minutes 1 seconds 11 msec
