                         Program Version 4.2.1 -  RELEASE  -
|  1> %pal
|  2>  nprocs 32
|  3> end
|  4> !RI-MP2 aug-cc-pVTZ aug-cc-pVTZ/C TightSCF
|  5> %maxcore 4500
|  6> *xyzfile 0 2  04_83TS.xyz
|  7>
|  8>
|  9>                          ****END OF INPUT****

CARTESIAN COORDINATES (ANGSTROEM)
---------------------------------
  O      1.138493   -0.526179   -0.526241
  C     -0.172127    0.080708   -0.507390
  C      0.038458    1.559178   -0.112569
  C      1.539989    1.757178   -0.339668
  C      2.078874    0.374950    0.039351
  C     -1.038508   -0.710009    0.428945
  H     -0.553994    0.018685   -1.530396
  H     -0.769565   -0.613053    1.476998
  H     -1.196941   -1.739294    0.114120
  O     -0.194754    1.815266    1.254191
  O      2.086705    2.812128    0.385673
  N      3.384297    0.063416   -0.461950
  H      2.135350    0.271816    1.126472
  C      4.442513   -0.400810    0.285684
  C      3.828122    0.096311   -1.767310
  H      1.737417    1.937327   -1.399120
  H     -0.566245    2.226852   -0.728538
  H     -1.125641    2.079975    1.350366
  H      1.572337    2.878131    1.202746
  O     -2.828087    2.339686    0.761155
  C     -3.601681    1.594883    0.199016
  O     -4.424018    2.067751   -0.727755
  C     -3.597446    0.128393    0.497605
  C     -4.290394   -0.869343   -0.413131
  H     -2.322785   -0.199365    0.424386
  H     -3.772587   -0.043431    1.558458
  C     -5.798880   -0.763247   -0.371261
  H     -3.977494   -1.877552   -0.137326
  H     -3.991414   -0.707027   -1.453118
  S     -6.637113   -2.164956    0.253089
  C     -8.345675   -1.580950    0.144498
  H     -8.477057   -0.692868    0.757946
  H     -8.973003   -2.388767    0.516316
  H     -8.599104   -1.356331   -0.888704
  O     -6.379376    0.240016   -0.739094
  N      5.061387   -0.289547   -1.906651
  C      5.467911   -0.604794   -0.624274
  C      6.678939   -1.075819   -0.097370
  N      6.762606   -1.296052    1.216895
  C      5.687910   -1.059587    1.975932
  N      4.497771   -0.614465    1.598930
  N      7.754100   -1.318677   -0.874349
  H      7.722408   -1.111769   -1.857473
  H      8.612014   -1.611468   -0.439824
  H      5.812558   -1.258294    3.035264
  H      3.181224    0.405362   -2.573578
  H     -5.174525    1.456051   -0.906312

 Total Charge           Charge          ....    0
 Multiplicity           Mult            ....    2
 Number of Electrons    NEL             ....  209
 Basis Dimension        Dim             .... 1706

ORBITAL ENERGIES
----------------
                 SPIN UP ORBITALS
  NO   OCC          E(Eh)            E(eV)
   0   1.0000     -92.011677     -2503.7650
   1   1.0000     -20.611496      -560.8673
   2   1.0000     -20.602104      -560.6118
   3   1.0000     -20.575167      -559.8787
   4   1.0000     -20.560200      -559.4715
   5   1.0000     -20.558616      -559.4284
   6   1.0000     -20.557295      -559.3924
   7   1.0000     -15.616603      -424.9494
   8   1.0000     -15.575381      -423.8277
   9   1.0000     -15.556687      -423.3190
  10   1.0000     -15.544675      -422.9921
  11   1.0000     -15.538898      -422.8349
  12   1.0000     -11.406676      -310.3914
  13   1.0000     -11.405199      -310.3512
  14   1.0000     -11.328016      -308.2510
  15   1.0000     -11.326407      -308.2072
  16   1.0000     -11.308499      -307.7199
  17   1.0000     -11.303103      -307.5731
  18   1.0000     -11.302951      -307.5689
  19   1.0000     -11.299052      -307.4628
  20   1.0000     -11.293958      -307.3242
  21   1.0000     -11.293668      -307.3163
  22   1.0000     -11.293038      -307.2992
  23   1.0000     -11.290294      -307.2245
  24   1.0000     -11.289754      -307.2098
  25   1.0000     -11.261567      -306.4428
  26   1.0000     -11.238101      -305.8043
  27   1.0000      -9.013176      -245.2610
  28   1.0000      -6.694391      -182.1636
  29   1.0000      -6.693145      -182.1297
  30   1.0000      -6.692534      -182.1131
  31   1.0000      -1.477555       -40.2063
  32   1.0000      -1.451290       -39.4916
  33   1.0000      -1.420055       -38.6417
  34   1.0000      -1.384955       -37.6865
  35   1.0000      -1.376001       -37.4429
  36   1.0000      -1.360142       -37.0113
  37   1.0000      -1.353338       -36.8262
  38   1.0000      -1.294796       -35.2332
  39   1.0000      -1.241065       -33.7711
  40   1.0000      -1.192017       -32.4364
  41   1.0000      -1.148027       -31.2394
  42   1.0000      -1.138205       -30.9721
  43   1.0000      -1.098394       -29.8888
  44   1.0000      -1.067948       -29.0603
  45   1.0000      -1.040420       -28.3113
  46   1.0000      -1.024213       -27.8702
  47   1.0000      -0.996136       -27.1062
  48   1.0000      -0.952513       -25.9192
  49   1.0000      -0.924709       -25.1626
  50   1.0000      -0.887040       -24.1376
  51   1.0000      -0.869139       -23.6505
  52   1.0000      -0.857181       -23.3251
  53   1.0000      -0.847263       -23.0552
  54   1.0000      -0.818181       -22.2638
  55   1.0000      -0.788855       -21.4658
  56   1.0000      -0.781421       -21.2636
  57   1.0000      -0.768835       -20.9211
  58   1.0000      -0.753739       -20.5103
  59   1.0000      -0.745466       -20.2852
  60   1.0000      -0.725706       -19.7475
  61   1.0000      -0.709701       -19.3120
  62   1.0000      -0.703429       -19.1413
  63   1.0000      -0.699506       -19.0345
  64   1.0000      -0.692534       -18.8448
  65   1.0000      -0.685151       -18.6439
  66   1.0000      -0.675748       -18.3880
  67   1.0000      -0.659814       -17.9544
  68   1.0000      -0.656820       -17.8730
  69   1.0000      -0.650192       -17.6926
  70   1.0000      -0.643264       -17.5041
  71   1.0000      -0.642077       -17.4718
  72   1.0000      -0.624961       -17.0060
  73   1.0000      -0.621094       -16.9008
  74   1.0000      -0.615392       -16.7457
  75   1.0000      -0.611546       -16.6410
  76   1.0000      -0.610506       -16.6127
  77   1.0000      -0.598160       -16.2768
  78   1.0000      -0.592117       -16.1123
  79   1.0000      -0.586697       -15.9648
  80   1.0000      -0.584323       -15.9002
  81   1.0000      -0.579695       -15.7743
  82   1.0000      -0.568444       -15.4681
  83   1.0000      -0.564662       -15.3652
  84   1.0000      -0.549150       -14.9431
  85   1.0000      -0.545766       -14.8510
  86   1.0000      -0.543241       -14.7823
  87   1.0000      -0.530721       -14.4417
  88   1.0000      -0.517249       -14.0751
  89   1.0000      -0.499598       -13.5948
  90   1.0000      -0.494963       -13.4686
  91   1.0000      -0.490592       -13.3497
  92   1.0000      -0.484246       -13.1770
  93   1.0000      -0.473742       -12.8912
  94   1.0000      -0.467908       -12.7324
  95   1.0000      -0.458403       -12.4738
  96   1.0000      -0.445704       -12.1282
  97   1.0000      -0.438871       -11.9423
  98   1.0000      -0.434555       -11.8248
  99   1.0000      -0.411166       -11.1884
 100   1.0000      -0.402982       -10.9657
 101   1.0000      -0.399340       -10.8666
 102   1.0000      -0.365544        -9.9470
 103   1.0000      -0.355693        -9.6789
 104   1.0000      -0.300600        -8.1797
 105   0.0000       0.014211         0.3867
 106   0.0000       0.020793         0.5658
 107   0.0000       0.026720         0.7271
 108   0.0000       0.031388         0.8541
 109   0.0000       0.033725         0.9177

                 SPIN DOWN ORBITALS
  NO   OCC          E(Eh)            E(eV)
   0   1.0000     -92.011656     -2503.7645
   1   1.0000     -20.611188      -560.8589
   2   1.0000     -20.601752      -560.6022
   3   1.0000     -20.572632      -559.8098
   4   1.0000     -20.560235      -559.4724
   5   1.0000     -20.557293      -559.3924
   6   1.0000     -20.556401      -559.3681
   7   1.0000     -15.616501      -424.9466
   8   1.0000     -15.575383      -423.8277
   9   1.0000     -15.556702      -423.3194
  10   1.0000     -15.544660      -422.9917
  11   1.0000     -15.538885      -422.8346
  12   1.0000     -11.406958      -310.3991
  13   1.0000     -11.405973      -310.3723
  14   1.0000     -11.328035      -308.2515
  15   1.0000     -11.326415      -308.2074
  16   1.0000     -11.308489      -307.7196
  17   1.0000     -11.304497      -307.6110
  18   1.0000     -11.302956      -307.5691
  19   1.0000     -11.299064      -307.4632
  20   1.0000     -11.294587      -307.3413
  21   1.0000     -11.293522      -307.3124
  22   1.0000     -11.290326      -307.2254
  23   1.0000     -11.289743      -307.2095
  24   1.0000     -11.277144      -306.8667
  25   1.0000     -11.242427      -305.9220
  26   1.0000     -11.238085      -305.8038
  27   1.0000      -9.013150      -245.2603
  28   1.0000      -6.694306      -182.1613
  29   1.0000      -6.693102      -182.1286
  30   1.0000      -6.692561      -182.1138
  31   1.0000      -1.475743       -40.1570
  32   1.0000      -1.450283       -39.4642
  33   1.0000      -1.416231       -38.5376
  34   1.0000      -1.383437       -37.6452
  35   1.0000      -1.372693       -37.3529
  36   1.0000      -1.359304       -36.9885
  37   1.0000      -1.352864       -36.8133
  38   1.0000      -1.294684       -35.2301
  39   1.0000      -1.241048       -33.7706
  40   1.0000      -1.191464       -32.4214
  41   1.0000      -1.147862       -31.2349
  42   1.0000      -1.126552       -30.6550
  43   1.0000      -1.089654       -29.6510
  44   1.0000      -1.052063       -28.6281
  45   1.0000      -1.035896       -28.1882
  46   1.0000      -1.019790       -27.7499
  47   1.0000      -0.979797       -26.6616
  48   1.0000      -0.929518       -25.2935
  49   1.0000      -0.920125       -25.0379
  50   1.0000      -0.887011       -24.1368
  51   1.0000      -0.869122       -23.6500
  52   1.0000      -0.852278       -23.1917
  53   1.0000      -0.842801       -22.9338
  54   1.0000      -0.810340       -22.0505
  55   1.0000      -0.787828       -21.4379
  56   1.0000      -0.777466       -21.1559
  57   1.0000      -0.766893       -20.8682
  58   1.0000      -0.747340       -20.3362
  59   1.0000      -0.742717       -20.2103
  60   1.0000      -0.724584       -19.7169
  61   1.0000      -0.704726       -19.1766
  62   1.0000      -0.697929       -18.9916
  63   1.0000      -0.695251       -18.9187
  64   1.0000      -0.690007       -18.7760
  65   1.0000      -0.682176       -18.5630
  66   1.0000      -0.673808       -18.3352
  67   1.0000      -0.655577       -17.8392
  68   1.0000      -0.654263       -17.8034
  69   1.0000      -0.643189       -17.5021
  70   1.0000      -0.641234       -17.4489
  71   1.0000      -0.639749       -17.4084
  72   1.0000      -0.619860       -16.8672
  73   1.0000      -0.618473       -16.8295
  74   1.0000      -0.613599       -16.6969
  75   1.0000      -0.609771       -16.5927
  76   1.0000      -0.605051       -16.4643
  77   1.0000      -0.590217       -16.0606
  78   1.0000      -0.588764       -16.0211
  79   1.0000      -0.584412       -15.9027
  80   1.0000      -0.577234       -15.7073
  81   1.0000      -0.568513       -15.4700
  82   1.0000      -0.564451       -15.3595
  83   1.0000      -0.546823       -14.8798
  84   1.0000      -0.545587       -14.8462
  85   1.0000      -0.542597       -14.7648
  86   1.0000      -0.538961       -14.6659
  87   1.0000      -0.529062       -14.3965
  88   1.0000      -0.511456       -13.9174
  89   1.0000      -0.494585       -13.4583
  90   1.0000      -0.490561       -13.3489
  91   1.0000      -0.483458       -13.1556
  92   1.0000      -0.479898       -13.0587
  93   1.0000      -0.468354       -12.7446
  94   1.0000      -0.464762       -12.6468
  95   1.0000      -0.451632       -12.2895
  96   1.0000      -0.443594       -12.0708
  97   1.0000      -0.438165       -11.9231
  98   1.0000      -0.432439       -11.7673
  99   1.0000      -0.410622       -11.1736
 100   1.0000      -0.401522       -10.9260
 101   1.0000      -0.399301       -10.8655
 102   1.0000      -0.359526        -9.7832
 103   1.0000      -0.300557        -8.1786
 104   0.0000       0.014123         0.3843
 105   0.0000       0.020822         0.5666
 106   0.0000       0.026730         0.7274
 107   0.0000       0.031405         0.8546
 108   0.0000       0.033258         0.9050

MULLIKEN ATOMIC CHARGES AND SPIN POPULATIONS
--------------------------------------------
   0 O :   -1.089977    0.022587
   1 C :    0.367634   -0.080605
   2 C :    0.640683    0.010815
   3 C :    0.146112   -0.004032
   4 C :    1.182966    0.016810
   5 C :   -0.969841    0.943097
   6 H :    0.301197    0.019540
   7 H :    0.220554    0.009523
   8 H :    0.245740   -0.000930
   9 O :   -0.888535   -0.001151
  10 O :   -0.959140   -0.000027
  11 N :    0.087258    0.001247
  12 H :    0.661707   -0.000746
  13 C :   -0.267040   -0.001375
  14 C :   -0.379675   -0.001061
  15 H :    0.239257   -0.000233
  16 H :    0.464454   -0.001229
  17 H :    0.256981   -0.000632
  18 H :    0.182061    0.000228
  19 O :   -0.849899    0.049485
  20 C :    0.722085   -0.069630
  21 O :   -0.660785    0.006297
  22 C :   -0.134183    0.777529
  23 C :   -0.252887   -0.069712
  24 H :    0.386206   -0.650063
  25 H :    0.314637   -0.022804
  26 C :    0.988205    0.018520
  27 H :    0.240728    0.007437
  28 H :    0.265778    0.013290
  29 S :   -0.215384    0.001801
  30 C :   -0.843924    0.000293
  31 H :    0.290373   -0.000120
  32 H :    0.290534    0.000212
  33 H :    0.294660    0.000058
  34 O :   -0.987610    0.006744
  35 N :   -1.185645   -0.000208
  36 C :    1.871624    0.001030
  37 C :   -0.141817   -0.000323
  38 N :   -0.411596    0.000381
  39 C :   -0.926101   -0.000756
  40 N :   -0.784015    0.000055
  41 N :   -0.550457   -0.000073
  42 H :    0.106974    0.000004
  43 H :    0.080669    0.000004
  44 H :    0.626290    0.000029
  45 H :    0.702835   -0.000233
  46 H :    0.320306   -0.001071
Sum of atomic charges         :   -0.0000000

LOEWDIN ATOMIC CHARGES AND SPIN POPULATIONS
-------------------------------------------
   0 O :    0.619281    0.035882
   1 C :   -0.212625    0.045984
   2 C :   -0.199199   -0.000605
   3 C :   -0.239834   -0.000626
   4 C :   -0.315842    0.001503
   5 C :    0.583654    0.336504
   6 H :   -0.134163   -0.000644
   7 H :   -0.150529    0.049235
   8 H :   -0.145726    0.049713
   9 O :    0.881594   -0.000513
  10 O :    0.861999   -0.000072
  11 N :    0.286351    0.001765
  12 H :   -0.134386   -0.000242
  13 C :   -0.434269    0.000132
  14 C :   -0.036423    0.000370
  15 H :   -0.141199   -0.000014
  16 H :   -0.127214   -0.000356
  17 H :   -0.661285   -0.000299
  18 H :   -0.537763   -0.000001
  19 O :    0.541317    0.033734
  20 C :   -0.737867    0.028090
  21 O :    0.872250    0.003904
  22 C :    0.254629    0.250525
  23 C :    0.205285    0.025819
  24 H :   -0.374876    0.092060
  25 H :   -0.129808    0.028030
  26 C :   -0.886281    0.009749
  27 H :   -0.177969   -0.000503
  28 H :   -0.139280    0.000522
  29 S :    1.251735    0.001136
  30 C :    0.248143    0.000480
  31 H :   -0.236801   -0.000047
  32 H :   -0.249437    0.000205
  33 H :   -0.237255    0.000019
  34 O :    0.505795    0.007193
  35 N :    0.402949   -0.000153
  36 C :   -0.303372    0.000218
  37 C :   -0.419156   -0.000043
  38 N :    0.389976    0.000150
  39 C :   -0.174855   -0.000172
  40 N :    0.409379    0.000186
  41 N :    0.870548   -0.000064
  42 H :   -0.287866   -0.000005
  43 H :   -0.288037   -0.000004
  44 H :   -0.202595   -0.000049
  45 H :   -0.159577    0.000072
  46 H :   -0.709396    0.001233

  Mayer bond orders larger than 0.100000
B(  0-O ,  1-C ) :   0.5862 B(  0-O ,  3-C ) :   0.1501 B(  0-O ,  4-C ) :   0.2776
B(  0-O ,  5-C ) :   0.1303 B(  0-O ,  6-H ) :  -0.1176 B(  0-O , 11-N ) :   0.2493
B(  1-C ,  2-C ) :   0.8788 B(  1-C ,  3-C ) :   0.2658 B(  1-C ,  5-C ) :   0.7293
B(  1-C ,  6-H ) :   0.9299 B(  1-C ,  9-O ) :   0.1878 B(  2-C ,  3-C ) :   1.0713
B(  2-C ,  5-C ) :   0.1057 B(  2-C ,  9-O ) :   0.2232 B(  2-C , 10-O ) :   0.1834
B(  2-C , 16-H ) :   0.8153 B(  3-C ,  4-C ) :   0.8048 B(  3-C ,  9-O ) :   0.1176
B(  3-C , 15-H ) :   1.1008 B(  3-C , 16-H ) :  -0.1417 B(  4-C , 10-O ) :   0.1304
B(  4-C , 11-N ) :   0.8731 B(  4-C , 12-H ) :   0.7924 B(  4-C , 13-C ) :  -0.2918
B(  4-C , 14-C ) :  -0.1448 B(  4-C , 36-C ) :  -0.1192 B(  4-C , 39-C ) :  -0.1099
B(  4-C , 40-N ) :  -0.2052 B(  5-C ,  7-H ) :   1.0500 B(  5-C ,  8-H ) :   0.9938
B(  5-C , 24-H ) :   0.1322 B(  9-O , 17-H ) :   0.8905 B(  9-O , 19-O ) :  -0.1092
B( 10-O , 11-N ) :   0.1350 B( 10-O , 18-H ) :   1.0026 B( 11-N , 12-H ) :  -0.2259
B( 11-N , 13-C ) :   0.8124 B( 11-N , 14-C ) :   1.0107 B( 11-N , 36-C ) :  -0.1206
B( 11-N , 37-C ) :  -0.1180 B( 11-N , 40-N ) :  -0.1368 B( 12-H , 40-N ) :  -0.1029
B( 13-C , 14-C ) :  -0.6078 B( 13-C , 35-N ) :   0.5239 B( 13-C , 36-C ) :   1.0753
B( 13-C , 37-C ) :   1.5488 B( 13-C , 39-C ) :  -0.6642 B( 13-C , 40-N ) :   0.6540
B( 14-C , 35-N ) :   0.9126 B( 14-C , 45-H ) :   0.3802 B( 19-O , 20-C ) :   1.4000
B( 19-O , 22-C ) :  -0.1003 B( 20-C , 21-O ) :   0.6808 B( 20-C , 22-C ) :   0.6471
B( 20-C , 23-C ) :   0.1443 B( 20-C , 24-H ) :   0.1545 B( 21-O , 46-H ) :   0.7999
B( 22-C , 23-C ) :   0.8571 B( 22-C , 24-H ) :   0.2956 B( 22-C , 25-H ) :   0.9788
B( 22-C , 26-C ) :   0.1979 B( 22-C , 34-O ) :   0.1108 B( 23-C , 26-C ) :   0.5683
B( 23-C , 27-H ) :   1.0251 B( 23-C , 28-H ) :   0.9298 B( 23-C , 29-S ) :   0.2214
B( 26-C , 29-S ) :   0.5884 B( 26-C , 30-C ) :  -0.1159 B( 26-C , 34-O ) :   1.1170
B( 29-S , 30-C ) :   0.9785 B( 29-S , 34-O ) :   0.1382 B( 30-C , 31-H ) :   0.9252
B( 30-C , 32-H ) :   0.9577 B( 30-C , 33-H ) :   0.9140 B( 35-N , 45-H ) :  -0.1797
B( 36-C , 37-C ) :  -1.4162 B( 36-C , 40-N ) :  -0.4712 B( 36-C , 41-N ) :  -0.3565
B( 37-C , 38-N ) :   0.3281 B( 37-C , 39-C ) :  -0.3723 B( 37-C , 40-N ) :   0.3733
B( 37-C , 41-N ) :   1.1658 B( 38-N , 39-C ) :   1.0635 B( 38-N , 41-N ) :  -0.2031
B( 39-C , 40-N ) :   1.8232 B( 39-C , 44-H ) :   0.4444 B( 41-N , 42-H ) :   1.1102
B( 41-N , 43-H ) :   1.1480

MP2 TOTAL ENERGY:    -1704.166768660 Eh
FINAL SINGLE POINT ENERGY     -1704.166768659726

DIPOLE MOMENT
-------------
                                X             Y             Z
Electronic contribution:     14.80852       0.24857      -0.35838
Nuclear contribution   :    -18.25395      -2.10890      -0.34995
                        -----------------------------------------
Total Dipole Moment    :     -3.44543      -1.86034      -0.70833
                        -----------------------------------------
Magnitude (a.u.)       :      3.97914
Magnitude (Debye)      :     10.11418

Rotational constants in cm-1:     0.015331     0.001819     0.001735
Rotational constants in MHz :   459.615161    54.529939    52.003519

                             ****ORCA TERMINATED NORMALLY****
TOTAL RUN TIME: 0 days 2 hours 36 minutes 24 seconds 801 msec
