                         Program Version 4.2.1 -  RELEASE  -
|  1> %pal
|  2>  nprocs 32
|  3> end
|  4> !RI-MP2 aug-cc-pVTZ aug-cc-pVTZ/C TightSCF
|  5> %maxcore 4500
|  6> *xyzfile 0 2  04_5R2.xyz
|  7>
|  8>
|  9>                          ****END OF INPUT****

CARTESIAN COORDINATES (ANGSTROEM)
---------------------------------
  C     -0.573656    0.000024   -0.013398
  H     -0.867453   -0.000871    1.053485
  H     -1.001399    0.909059   -0.456080
  H     -1.001330   -0.908398   -0.457425
  O      0.789015    0.000008   -0.007449

 Total Charge           Charge          ....    0
 Multiplicity           Mult            ....    2
 Number of Electrons    NEL             ....   17
 Basis Dimension        Dim             ....  161

ORBITAL ENERGIES
----------------
                 SPIN UP ORBITALS
  NO   OCC          E(Eh)            E(eV)
   0   1.0000     -20.621602      -561.1423
   1   1.0000     -11.282463      -307.0114
   2   1.0000      -1.410438       -38.3800
   3   1.0000      -0.922452       -25.1012
   4   1.0000      -0.708468       -19.2784
   5   1.0000      -0.657050       -17.8792
   6   1.0000      -0.630025       -17.1439
   7   1.0000      -0.516739       -14.0612
   8   1.0000      -0.479773       -13.0553
   9   0.0000       0.028851         0.7851
  10   0.0000       0.046401         1.2626
  11   0.0000       0.047070         1.2808
  12   0.0000       0.072949         1.9850
  13   0.0000       0.119044         3.2394

                 SPIN DOWN ORBITALS
  NO   OCC          E(Eh)            E(eV)
   0   1.0000     -20.582018      -560.0652
   1   1.0000     -11.285330      -307.0895
   2   1.0000      -1.279504       -34.8171
   3   1.0000      -0.890996       -24.2452
   4   1.0000      -0.641686       -17.4612
   5   1.0000      -0.596149       -16.2220
   6   1.0000      -0.580699       -15.8016
   7   1.0000      -0.446648       -12.1539
   8   0.0000       0.029002         0.7892
   9   0.0000       0.046359         1.2615
  10   0.0000       0.047085         1.2813
  11   0.0000       0.073564         2.0018
  12   0.0000       0.088491         2.4080

MULLIKEN ATOMIC CHARGES AND SPIN POPULATIONS
--------------------------------------------
   0 C :   -0.546937   -0.171163
   1 H :    0.319858    0.107826
   2 H :    0.307426    0.021707
   3 H :    0.307421    0.021780
   4 O :   -0.387768    1.019850
Sum of atomic charges         :    0.0000000

LOEWDIN ATOMIC CHARGES AND SPIN POPULATIONS
-------------------------------------------
   0 C :    0.165201    0.122595
   1 H :   -0.201470    0.035536
   2 H :   -0.208458    0.003094
   3 H :   -0.208452    0.003118
   4 O :    0.453178    0.835658

  Mayer bond orders larger than 0.100000
B(  0-C ,  1-H ) :   0.8690 B(  0-C ,  2-H ) :   0.8953 B(  0-C ,  3-H ) :   0.8953
B(  0-C ,  4-O ) :   0.8510

MP2 TOTAL ENERGY:     -114.843745486 Eh
FINAL SINGLE POINT ENERGY      -114.843745485880

DIPOLE MOMENT
-------------
                                X             Y             Z
Electronic contribution:      2.20062       0.00015      -0.10465
Nuclear contribution   :     -2.94000      -0.00022       0.14389
                        -----------------------------------------
Total Dipole Moment    :     -0.73938      -0.00007       0.03923
                        -----------------------------------------
Magnitude (a.u.)       :      0.74042
Magnitude (Debye)      :      1.88199

Rotational constants in cm-1:     5.257345     0.937865     0.931487
Rotational constants in MHz : 157611.229439 28116.495985 27925.273417

                             ****ORCA TERMINATED NORMALLY****
TOTAL RUN TIME: 0 days 0 hours 0 minutes 12 seconds 623 msec
