                         Program Version 4.2.1 -  RELEASE  -
|  1> %pal
|  2>  nprocs 32
|  3> end
|  4> !RI-MP2 aug-cc-pVTZ aug-cc-pVTZ/C TightSCF
|  5> %maxcore 4500
|  6> *xyzfile 0 1  10_22P.xyz
|  7>
|  8>
|  9>                          ****END OF INPUT****

CARTESIAN COORDINATES (ANGSTROEM)
---------------------------------
  C      0.381842   -0.081428    0.118161
  C      1.363402   -0.539952   -0.957388
  C     -0.616280   -1.270851    0.203680
  N     -0.015213   -2.325623   -0.653539
  N      1.002941   -1.953441   -1.229835
  C     -2.085050   -1.103573   -0.001358
  C     -2.688445   -1.544532   -1.174450
  C     -2.848861   -0.437708    0.953089
  C     -4.038715   -1.312120   -1.393877
  H     -2.104358   -2.083197   -1.909782
  C     -4.196353   -0.204629    0.731299
  H     -2.392207   -0.099718    1.875660
  C     -4.793853   -0.639410   -0.444244
  H     -4.501940   -1.663104   -2.307929
  H     -4.781870    0.314328    1.480070
  H     -5.848215   -0.459900   -0.615887
  C      2.806524   -0.383382   -0.604030
  C      3.374587    0.964479   -0.228985
  C      3.716675   -1.345943   -0.524862
  C      4.894242    0.712031   -0.246006
  H      3.019557    1.253426    0.766153
  H      3.068590    1.760362   -0.913651
  C      5.053251   -0.813832   -0.082319
  H      3.521895   -2.392988   -0.716142
  H      5.423934    1.278817    0.520054
  H      5.884834   -1.213995   -0.666834
  C     -0.053751   -1.409279    1.627205
  C     -0.125531    1.320168    0.035035
  C     -0.784843    1.744193   -1.116835
  C      0.029529    2.202124    1.097023
  C     -1.277210    3.035553   -1.205479
  H     -0.935848    1.058634   -1.942564
  C     -0.460810    3.497981    1.003632
  H      0.533523    1.870100    1.994688
  C     -1.114067    3.917895   -0.144971
  H     -1.795439    3.352163   -2.102237
  H     -0.331595    4.179957    1.835222
  H     -1.498641    4.928026   -0.214567
  O      0.871320   -0.422047    1.460562
  O     -0.257602   -2.065370    2.586456
  H      5.239437   -1.093574    0.961030
  H      5.298515    1.013684   -1.214723
  H      1.158298    0.003063   -1.887009

 Total Charge           Charge          ....    0
 Multiplicity           Mult            ....    1
 Number of Electrons    NEL             ....  174
 Basis Dimension        Dim             .... 1564

ORBITAL ENERGIES
----------------

  NO   OCC          E(Eh)            E(eV)
   0   2.0000     -20.616692      -561.0087
   1   2.0000     -20.567914      -559.6814
   2   2.0000     -15.645709      -425.7414
   3   2.0000     -15.644188      -425.7000
   4   2.0000     -11.395999      -310.1009
   5   2.0000     -11.333316      -308.3952
   6   2.0000     -11.309175      -307.7383
   7   2.0000     -11.291819      -307.2660
   8   2.0000     -11.262337      -306.4638
   9   2.0000     -11.260428      -306.4118
  10   2.0000     -11.252228      -306.1887
  11   2.0000     -11.249794      -306.1225
  12   2.0000     -11.248948      -306.0994
  13   2.0000     -11.248251      -306.0805
  14   2.0000     -11.247826      -306.0689
  15   2.0000     -11.247526      -306.0607
  16   2.0000     -11.247162      -306.0508
  17   2.0000     -11.246519      -306.0333
  18   2.0000     -11.244886      -305.9889
  19   2.0000     -11.244397      -305.9756
  20   2.0000     -11.238139      -305.8053
  21   2.0000     -11.228535      -305.5440
  22   2.0000     -11.225439      -305.4597
  23   2.0000     -11.224703      -305.4397
  24   2.0000     -11.223587      -305.4093
  25   2.0000      -1.489741       -40.5379
  26   2.0000      -1.410024       -38.3687
  27   2.0000      -1.391737       -37.8711
  28   2.0000      -1.182421       -32.1753
  29   2.0000      -1.176791       -32.0221
  30   2.0000      -1.154167       -31.4065
  31   2.0000      -1.104814       -30.0635
  32   2.0000      -1.091225       -29.6937
  33   2.0000      -1.040065       -28.3016
  34   2.0000      -1.033627       -28.1264
  35   2.0000      -1.031200       -28.0604
  36   2.0000      -1.009180       -27.4612
  37   2.0000      -0.969001       -26.3678
  38   2.0000      -0.957144       -26.0452
  39   2.0000      -0.905863       -24.6498
  40   2.0000      -0.867210       -23.5980
  41   2.0000      -0.849082       -23.1047
  42   2.0000      -0.845030       -22.9944
  43   2.0000      -0.830867       -22.6090
  44   2.0000      -0.811977       -22.0950
  45   2.0000      -0.795227       -21.6392
  46   2.0000      -0.754344       -20.5268
  47   2.0000      -0.748013       -20.3545
  48   2.0000      -0.740995       -20.1635
  49   2.0000      -0.712055       -19.3760
  50   2.0000      -0.701086       -19.0775
  51   2.0000      -0.689000       -18.7486
  52   2.0000      -0.682755       -18.5787
  53   2.0000      -0.664979       -18.0950
  54   2.0000      -0.659040       -17.9334
  55   2.0000      -0.646462       -17.5911
  56   2.0000      -0.640810       -17.4373
  57   2.0000      -0.638177       -17.3657
  58   2.0000      -0.635011       -17.2795
  59   2.0000      -0.611675       -16.6445
  60   2.0000      -0.607808       -16.5393
  61   2.0000      -0.602359       -16.3910
  62   2.0000      -0.599301       -16.3078
  63   2.0000      -0.584158       -15.8958
  64   2.0000      -0.583257       -15.8712
  65   2.0000      -0.556632       -15.1467
  66   2.0000      -0.550992       -14.9933
  67   2.0000      -0.541024       -14.7220
  68   2.0000      -0.527103       -14.3432
  69   2.0000      -0.520983       -14.1767
  70   2.0000      -0.518411       -14.1067
  71   2.0000      -0.510775       -13.8989
  72   2.0000      -0.509970       -13.8770
  73   2.0000      -0.509162       -13.8550
  74   2.0000      -0.501585       -13.6488
  75   2.0000      -0.493539       -13.4299
  76   2.0000      -0.487142       -13.2558
  77   2.0000      -0.485421       -13.2090
  78   2.0000      -0.480228       -13.0677
  79   2.0000      -0.475553       -12.9404
  80   2.0000      -0.447390       -12.1741
  81   2.0000      -0.407200       -11.0805
  82   2.0000      -0.356976        -9.7138
  83   2.0000      -0.352067        -9.5802
  84   2.0000      -0.350666        -9.5421
  85   2.0000      -0.345455        -9.4003
  86   2.0000      -0.337827        -9.1927
  87   0.0000       0.019023         0.5176
  88   0.0000       0.025989         0.7072
  89   0.0000       0.028003         0.7620
  90   0.0000       0.031176         0.8483
  91   0.0000       0.036444         0.9917

MULLIKEN ATOMIC CHARGES
-----------------------
   0 C :    1.646902
   1 C :    0.108948
   2 C :    0.902909
   3 N :   -0.809785
   4 N :   -0.507928
   5 C :    1.108324
   6 C :   -0.687810
   7 C :   -0.243124
   8 C :   -0.701592
   9 H :    0.029947
  10 C :   -1.085467
  11 H :    0.164831
  12 C :   -0.083011
  13 H :    0.466225
  14 H :    0.406233
  15 H :    0.569356
  16 C :    1.378446
  17 C :   -0.624398
  18 C :   -1.631787
  19 C :   -0.750164
  20 H :    0.250433
  21 H :    0.287101
  22 C :   -0.301630
  23 H :    0.282404
  24 H :    0.309978
  25 H :    0.340059
  26 C :    1.075461
  27 C :    2.152351
  28 C :   -1.184555
  29 C :   -0.993319
  30 C :   -0.873858
  31 H :   -0.007662
  32 C :   -0.669374
  33 H :   -0.096649
  34 C :   -0.170225
  35 H :    0.401254
  36 H :    0.419702
  37 H :    0.700672
  38 O :   -1.001594
  39 O :   -1.249864
  40 H :    0.255036
  41 H :    0.196478
  42 H :    0.220747
Sum of atomic charges:    0.0000000

LOEWDIN ATOMIC CHARGES
----------------------
   0 C :   -0.497428
   1 C :   -0.118466
   2 C :   -0.398038
   3 N :    0.274217
   4 N :    0.283493
   5 C :   -0.106270
   6 C :    0.218651
   7 C :    0.223521
   8 C :    0.211931
   9 H :   -0.187506
  10 C :    0.218992
  11 H :   -0.165798
  12 C :    0.205377
  13 H :   -0.178954
  14 H :   -0.176188
  15 H :   -0.179033
  16 C :   -0.077190
  17 C :    0.299899
  18 C :    0.275114
  19 C :    0.314335
  20 H :   -0.145209
  21 H :   -0.134874
  22 C :    0.289677
  23 H :   -0.169829
  24 H :   -0.144410
  25 H :   -0.151017
  26 C :   -0.750061
  27 C :   -0.101193
  28 C :    0.218386
  29 C :    0.222843
  30 C :    0.217932
  31 H :   -0.164221
  32 C :    0.213580
  33 H :   -0.186047
  34 C :    0.205811
  35 H :   -0.175807
  36 H :   -0.177468
  37 H :   -0.179374
  38 O :    0.631361
  39 O :    0.471945
  40 H :   -0.145912
  41 H :   -0.146922
  42 H :   -0.139848

  Mayer bond orders larger than 0.100000
B(  0-C ,  1-C ) :   0.6010 B(  0-C ,  2-C ) :   0.7996 B(  0-C ,  3-N ) :   0.2420
B(  0-C ,  4-N ) :   0.1618 B(  0-C ,  5-C ) :   0.1715 B(  0-C ,  6-C ) :   0.1647
B(  0-C ,  7-C ) :  -0.1272 B(  0-C , 16-C ) :   0.4394 B(  0-C , 17-C ) :  -0.1165
B(  0-C , 18-C ) :   0.3671 B(  0-C , 19-C ) :  -0.1053 B(  0-C , 21-H ) :   0.1227
B(  0-C , 26-C ) :  -0.4252 B(  0-C , 27-C ) :   0.6008 B(  0-C , 28-C ) :  -0.1687
B(  0-C , 29-C ) :   0.4508 B(  0-C , 31-H ) :  -0.3692 B(  0-C , 32-C ) :   0.1251
B(  0-C , 33-H ) :  -0.3478 B(  0-C , 34-C ) :   0.1109 B(  0-C , 35-H ) :  -0.1460
B(  0-C , 36-H ) :  -0.1245 B(  0-C , 37-H ) :   0.2545 B(  0-C , 38-O ) :  -1.1177
B(  0-C , 39-O ) :   0.7558 B(  0-C , 42-H ) :  -0.1017 B(  1-C ,  2-C ) :   0.2663
B(  1-C ,  3-N ) :   0.1576 B(  1-C ,  4-N ) :   0.3192 B(  1-C ,  5-C ) :  -0.1266
B(  1-C , 16-C ) :   0.4082 B(  1-C , 17-C ) :   0.1628 B(  1-C , 18-C ) :   0.4215
B(  1-C , 27-C ) :   0.1478 B(  1-C , 28-C ) :   0.1356 B(  1-C , 33-H ) :   0.1312
B(  1-C , 38-O ) :   0.2845 B(  1-C , 42-H ) :   0.9214 B(  2-C ,  5-C ) :   0.3910
B(  2-C ,  6-C ) :   0.1340 B(  2-C ,  7-C ) :  -0.2639 B(  2-C ,  8-C ) :   0.1120
B(  2-C ,  9-H ) :  -0.1650 B(  2-C , 11-H ) :  -0.1490 B(  2-C , 26-C ) :   1.1385
B(  2-C , 27-C ) :  -0.2596 B(  2-C , 42-H ) :   0.1122 B(  3-N ,  4-N ) :   0.1833
B(  4-N , 16-C ) :   0.1849 B(  4-N , 18-C ) :  -0.1432 B(  5-C ,  6-C ) :   0.3440
B(  5-C ,  7-C ) :   1.0757 B(  5-C ,  8-C ) :   0.1865 B(  5-C ,  9-H ) :  -0.2083
B(  5-C , 10-C ) :  -0.1800 B(  5-C , 39-O ) :   0.1650 B(  6-C ,  7-C ) :  -0.5011
B(  6-C ,  8-C ) :   1.3064 B(  6-C ,  9-H ) :   1.5745 B(  6-C , 10-C ) :   0.1679
B(  7-C ,  9-H ) :   0.1333 B(  7-C , 10-C ) :   1.2544 B(  7-C , 11-H ) :   1.2153
B(  7-C , 27-C ) :   0.1253 B(  8-C ,  9-H ) :  -0.1194 B(  8-C , 10-C ) :   0.1412
B(  8-C , 12-C ) :   1.1073 B(  8-C , 13-H ) :   0.8100 B(  8-C , 15-H ) :  -0.1573
B(  9-H , 11-H ) :   0.1278 B( 10-C , 12-C ) :   1.1839 B( 10-C , 14-H ) :   0.8245
B( 10-C , 15-H ) :  -0.1234 B( 12-C , 15-H ) :   0.6120 B( 16-C , 17-C ) :   0.5201
B( 16-C , 18-C ) :  -0.2233 B( 16-C , 19-C ) :  -0.2345 B( 16-C , 22-C ) :  -0.1053
B( 16-C , 42-H ) :  -0.1198 B( 17-C , 18-C ) :   0.1528 B( 17-C , 19-C ) :   0.9695
B( 17-C , 20-H ) :   1.0223 B( 17-C , 21-H ) :   0.9765 B( 18-C , 19-C ) :   0.2890
B( 18-C , 22-C ) :   0.6882 B( 18-C , 23-H ) :   1.1488 B( 19-C , 22-C ) :   1.0004
B( 19-C , 24-H ) :   0.9248 B( 19-C , 41-H ) :   1.0757 B( 22-C , 25-H ) :   0.9189
B( 22-C , 40-H ) :   0.9874 B( 26-C , 28-C ) :  -0.1368 B( 26-C , 38-O ) :   1.7500
B( 27-C , 28-C ) :   0.3003 B( 27-C , 30-C ) :  -0.3231 B( 27-C , 33-H ) :  -0.4013
B( 27-C , 34-C ) :  -0.1083 B( 27-C , 35-H ) :   0.1009 B( 27-C , 36-H ) :   0.1226
B( 28-C , 29-C ) :  -0.3200 B( 28-C , 30-C ) :   1.5700 B( 28-C , 31-H ) :   1.6734
B( 28-C , 33-H ) :   0.3313 B( 28-C , 34-C ) :   0.1404 B( 29-C , 30-C ) :   0.1838
B( 29-C , 32-C ) :   1.4874 B( 29-C , 33-H ) :   1.8189 B( 29-C , 34-C ) :   0.1169
B( 30-C , 34-C ) :   1.2277 B( 30-C , 35-H ) :   0.8553 B( 30-C , 37-H ) :  -0.1811
B( 31-H , 33-H ) :   0.1992 B( 32-C , 34-C ) :   1.2219 B( 32-C , 36-H ) :   0.9079
B( 32-C , 37-H ) :  -0.1686 B( 34-C , 37-H ) :   0.3992 B( 38-O , 39-O ) :  -0.2583

MP2 TOTAL ENERGY:    -1068.888951146 Eh
FINAL SINGLE POINT ENERGY     -1068.888951146222

DIPOLE MOMENT
-------------
                                X             Y             Z
Electronic contribution:     -9.29904      -9.90926       3.89085
Nuclear contribution   :      8.87610      11.81155      -4.95113
                        -----------------------------------------
Total Dipole Moment    :     -0.42295       1.90229      -1.06028
                        -----------------------------------------
Magnitude (a.u.)       :      2.21851
Magnitude (Debye)      :      5.63901

Rotational constants in cm-1:     0.012167     0.006387     0.005161
Rotational constants in MHz :   364.749880   191.485818   154.714365

                             ****ORCA TERMINATED NORMALLY****
TOTAL RUN TIME: 0 days 1 hours 39 minutes 50 seconds 707 msec
