                         Program Version 4.2.1 -  RELEASE  -
|  1> %pal
|  2>  nprocs 32
|  3> end
|  4> !RI-MP2 aug-cc-pVTZ aug-cc-pVTZ/C TightSCF
|  5> %maxcore 4500
|  6> *xyzfile -1 1  08_10TS.xyz
|  7>
|  8>
|  9>                          ****END OF INPUT****

CARTESIAN COORDINATES (ANGSTROEM)
---------------------------------
  S      1.935179    1.744099   -1.726279
  C      0.412094    2.700630   -1.393279
  S      0.791111   -0.340574   -1.512202
  C      1.628290   -0.813193    0.043847
  C      2.758714   -1.829718   -0.127660
  H      0.870303   -1.223736    0.708328
  H      2.034461    0.095375    0.482803
  C     -0.088860    2.640884    0.060191
  H     -0.382114    2.299882   -2.022909
  H      0.574853    3.738221   -1.691233
  N      2.281406   -3.065860   -0.714267
  C      3.420088   -2.024746    1.227667
  H      3.531523   -1.396100   -0.766364
  O      4.549633   -1.715706    1.509033
  O      2.603804   -2.609744    2.131547
  N     -1.443136    3.163251    0.146566
  C      0.812104    3.388541    1.041642
  H     -0.040929    1.587816    0.366617
  O      0.379601    4.123059    1.894231
  O      2.119509    3.156667    0.939741
  S     -0.931264   -2.144426   -1.169906
  C     -1.972877   -0.917718   -0.315059
  C     -3.396971   -1.399524   -0.114601
  H     -1.988922   -0.006057   -0.911156
  H     -1.548224   -0.668624    0.661482
  N     -3.435442   -2.539113    0.798265
  C     -4.266798   -0.289672    0.436952
  H     -3.814985   -1.636821   -1.106324
  O     -3.973758    0.871120    0.549803
  O     -5.499227   -0.736147    0.774100
  H      2.310636    2.596412    0.141876
  H      3.101397   -2.670253    2.957853
  H     -5.986043    0.026485    1.114889
  H     -2.130294    2.418014    0.127767
  H     -1.548823    3.679353    1.012661
  H      1.344286   -3.300330   -0.405196
  H      2.911521   -3.842201   -0.567818
  H     -4.333817   -3.004588    0.768123
  H     -2.716233   -3.193282    0.503003

 Total Charge           Charge          ....   -1
 Multiplicity           Mult            ....    1
 Number of Electrons    NEL             ....  190
 Basis Dimension        Dim             .... 1392

ORBITAL ENERGIES
----------------

  NO   OCC          E(Eh)            E(eV)
   0   2.0000     -91.873916     -2500.0163
   1   2.0000     -91.812324     -2498.3403
   2   2.0000     -91.777297     -2497.3872
   3   2.0000     -20.533292      -558.7393
   4   2.0000     -20.529410      -558.6337
   5   2.0000     -20.484792      -557.4195
   6   2.0000     -20.469111      -556.9928
   7   2.0000     -20.467024      -556.9360
   8   2.0000     -20.431470      -555.9686
   9   2.0000     -15.455394      -420.5627
  10   2.0000     -15.449687      -420.4074
  11   2.0000     -15.429313      -419.8530
  12   2.0000     -11.299297      -307.4695
  13   2.0000     -11.295029      -307.3534
  14   2.0000     -11.268073      -306.6198
  15   2.0000     -11.184345      -304.3415
  16   2.0000     -11.181939      -304.2760
  17   2.0000     -11.167223      -303.8756
  18   2.0000     -11.160503      -303.6927
  19   2.0000     -11.146525      -303.3124
  20   2.0000     -11.135697      -303.0177
  21   2.0000      -8.867693      -241.3022
  22   2.0000      -8.812799      -239.8085
  23   2.0000      -8.778184      -238.8665
  24   2.0000      -6.547597      -178.1692
  25   2.0000      -6.545687      -178.1172
  26   2.0000      -6.544402      -178.0822
  27   2.0000      -6.493729      -176.7033
  28   2.0000      -6.492959      -176.6824
  29   2.0000      -6.492328      -176.6652
  30   2.0000      -6.459329      -175.7673
  31   2.0000      -6.458284      -175.7389
  32   2.0000      -6.457685      -175.7225
  33   2.0000      -1.388373       -37.7795
  34   2.0000      -1.384817       -37.6828
  35   2.0000      -1.345156       -36.6035
  36   2.0000      -1.282660       -34.9029
  37   2.0000      -1.278578       -34.7919
  38   2.0000      -1.247992       -33.9596
  39   2.0000      -1.106304       -30.1041
  40   2.0000      -1.105312       -30.0771
  41   2.0000      -1.082706       -29.4619
  42   2.0000      -0.957280       -26.0489
  43   2.0000      -0.929772       -25.3004
  44   2.0000      -0.927184       -25.2300
  45   2.0000      -0.865165       -23.5423
  46   2.0000      -0.839002       -22.8304
  47   2.0000      -0.816217       -22.2104
  48   2.0000      -0.752831       -20.4856
  49   2.0000      -0.730232       -19.8706
  50   2.0000      -0.718249       -19.5445
  51   2.0000      -0.700630       -19.0651
  52   2.0000      -0.690297       -18.7839
  53   2.0000      -0.661486       -18.0000
  54   2.0000      -0.630304       -17.1514
  55   2.0000      -0.622679       -16.9439
  56   2.0000      -0.616102       -16.7650
  57   2.0000      -0.604520       -16.4498
  58   2.0000      -0.603775       -16.4296
  59   2.0000      -0.584399       -15.9023
  60   2.0000      -0.573471       -15.6049
  61   2.0000      -0.557406       -15.1678
  62   2.0000      -0.556359       -15.1393
  63   2.0000      -0.550982       -14.9930
  64   2.0000      -0.538169       -14.6443
  65   2.0000      -0.528687       -14.3863
  66   2.0000      -0.521362       -14.1870
  67   2.0000      -0.515561       -14.0291
  68   2.0000      -0.508385       -13.8339
  69   2.0000      -0.498734       -13.5712
  70   2.0000      -0.484288       -13.1782
  71   2.0000      -0.470854       -12.8126
  72   2.0000      -0.455524       -12.3954
  73   2.0000      -0.448054       -12.1922
  74   2.0000      -0.443998       -12.0818
  75   2.0000      -0.437356       -11.9011
  76   2.0000      -0.424468       -11.5504
  77   2.0000      -0.424060       -11.5393
  78   2.0000      -0.407526       -11.0893
  79   2.0000      -0.401545       -10.9266
  80   2.0000      -0.394672       -10.7396
  81   2.0000      -0.380163       -10.3448
  82   2.0000      -0.367060        -9.9882
  83   2.0000      -0.363923        -9.9028
  84   2.0000      -0.355549        -9.6750
  85   2.0000      -0.338615        -9.2142
  86   2.0000      -0.333430        -9.0731
  87   2.0000      -0.310088        -8.4379
  88   2.0000      -0.301858        -8.2140
  89   2.0000      -0.295531        -8.0418
  90   2.0000      -0.287367        -7.8196
  91   2.0000      -0.252614        -6.8740
  92   2.0000      -0.222121        -6.0442
  93   2.0000      -0.198202        -5.3933
  94   2.0000      -0.159379        -4.3369
  95   0.0000       0.087611         2.3840
  96   0.0000       0.093167         2.5352
  97   0.0000       0.102564         2.7909
  98   0.0000       0.107068         2.9135
  99   0.0000       0.109986         2.9929

MULLIKEN ATOMIC CHARGES
-----------------------
   0 S :   -0.800315
   1 C :   -0.565069
   2 S :   -0.213679
   3 C :   -0.258418
   4 C :    0.712497
   5 H :    0.372557
   6 H :    0.383015
   7 C :    1.010572
   8 H :    0.240829
   9 H :    0.291233
  10 N :   -0.696041
  11 C :    0.691147
  12 H :    0.266255
  13 O :   -0.972666
  14 O :   -0.520501
  15 N :   -1.008009
  16 C :    0.664403
  17 H :    0.450571
  18 O :   -0.971151
  19 O :   -0.602225
  20 S :   -0.935317
  21 C :   -0.026537
  22 C :    0.698308
  23 H :    0.283572
  24 H :    0.248216
  25 N :   -0.786257
  26 C :    0.433171
  27 H :    0.294740
  28 O :   -0.740736
  29 O :   -0.552907
  30 H :    0.491622
  31 H :    0.198056
  32 H :    0.202680
  33 H :    0.223693
  34 H :    0.084116
  35 H :    0.203292
  36 H :   -0.007798
  37 H :    0.034951
  38 H :    0.178131
Sum of atomic charges:   -1.0000000

LOEWDIN ATOMIC CHARGES
----------------------
   0 S :    0.833524
   1 C :   -0.175418
   2 S :    0.789727
   3 C :   -0.160137
   4 C :   -0.238623
   5 H :   -0.272893
   6 H :   -0.271682
   7 C :   -0.240548
   8 H :   -0.252285
   9 H :   -0.228894
  10 N :    0.822838
  11 C :   -0.793373
  12 H :   -0.166853
  13 O :    0.445959
  14 O :    0.837420
  15 N :    0.853341
  16 C :   -0.801205
  17 H :   -0.207036
  18 O :    0.440389
  19 O :    0.820673
  20 S :    0.762393
  21 C :   -0.289211
  22 C :   -0.275561
  23 H :   -0.276757
  24 H :   -0.229468
  25 N :    0.825051
  26 C :   -0.776894
  27 H :   -0.153128
  28 O :    0.486028
  29 O :    0.833555
  30 H :   -0.755434
  31 H :   -0.478401
  32 H :   -0.481704
  33 H :   -0.369290
  34 H :   -0.388623
  35 H :   -0.420506
  36 H :   -0.319638
  37 H :   -0.336084
  38 H :   -0.391249

  Mayer bond orders larger than 0.100000
B(  0-S ,  1-C ) :   0.9454 B(  0-S ,  2-S ) :   0.6128 B(  0-S , 20-S ) :   0.1306
B(  0-S , 30-H ) :   0.1185 B(  1-C ,  7-C ) :   0.6790 B(  1-C ,  8-H ) :   1.0332
B(  1-C ,  9-H ) :   0.9350 B(  1-C , 15-N ) :   0.3446 B(  2-S ,  3-C ) :   0.8023
B(  2-S , 20-S ) :   0.5258 B(  3-C ,  4-C ) :   1.0398 B(  3-C ,  5-H ) :   0.9027
B(  3-C ,  6-H ) :   0.7115 B(  3-C , 11-C ) :   0.1251 B(  4-C , 10-N ) :   0.5206
B(  4-C , 11-C ) :   0.4285 B(  4-C , 12-H ) :   0.9865 B(  4-C , 13-O ) :  -0.1314
B(  7-C , 16-C ) :   0.6351 B(  7-C , 17-H ) :   0.9306 B( 10-N , 35-H ) :   0.9021
B( 10-N , 36-H ) :   1.0766 B( 11-C , 13-O ) :   1.1684 B( 11-C , 14-O ) :   0.9668
B( 14-O , 31-H ) :   0.9761 B( 15-N , 33-H ) :   0.9038 B( 15-N , 34-H ) :   1.0115
B( 16-C , 17-H ) :  -0.1247 B( 16-C , 18-O ) :   1.0835 B( 16-C , 19-O ) :   0.8992
B( 19-O , 30-H ) :   0.5215 B( 20-S , 21-C ) :   0.7727 B( 21-C , 22-C ) :   1.0519
B( 21-C , 23-H ) :   0.9086 B( 21-C , 24-H ) :   0.8775 B( 21-C , 25-N ) :  -0.1529
B( 21-C , 26-C ) :   0.1730 B( 22-C , 25-N ) :   0.5724 B( 22-C , 26-C ) :   0.1695
B( 22-C , 27-H ) :   0.9776 B( 22-C , 29-O ) :  -0.1204 B( 25-N , 26-C ) :   0.1449
B( 25-N , 37-H ) :   1.0648 B( 25-N , 38-H ) :   0.9081 B( 26-C , 28-O ) :   1.3223
B( 26-C , 29-O ) :   0.9268 B( 29-O , 32-H ) :   0.9930

MP2 TOTAL ENERGY:    -2161.097334656 Eh
FINAL SINGLE POINT ENERGY     -2161.097334656117

DIPOLE MOMENT
-------------
                                X             Y             Z
Electronic contribution:      6.18056       2.41083      -0.76346
Nuclear contribution   :     -7.75937      -4.37562       1.60985
                        -----------------------------------------
Total Dipole Moment    :     -1.57880      -1.96480       0.84640
                        -----------------------------------------
Magnitude (a.u.)       :      2.65884
Magnitude (Debye)      :      6.75823

Rotational constants in cm-1:     0.007414     0.005613     0.003953
Rotational constants in MHz :   222.275380   168.282795   118.493017

                             ****ORCA TERMINATED NORMALLY****
TOTAL RUN TIME: 0 days 0 hours 49 minutes 38 seconds 620 msec
