                         Program Version 4.2.1 -  RELEASE  -
|  1> %pal
|  2>  nprocs 32
|  3> end
|  4> !RI-MP2 aug-cc-pVTZ aug-cc-pVTZ/C TightSCF
|  5> %maxcore 4500
|  6> *xyzfile 0 2  04_24R2.xyz
|  7>
|  8>
|  9>                          ****END OF INPUT****

CARTESIAN COORDINATES (ANGSTROEM)
---------------------------------
  O      1.178458   -0.275527    0.000000
  O      0.157909    0.537465    0.000000
  C     -1.089588   -0.180700    0.000000
  H     -1.865065    0.582367   -0.000008
  H     -1.144164   -0.796843   -0.896595
  H     -1.144172   -0.796830    0.896603

 Total Charge           Charge          ....    0
 Multiplicity           Mult            ....    2
 Number of Electrons    NEL             ....   25
 Basis Dimension        Dim             ....  207

ORBITAL ENERGIES
----------------
                 SPIN UP ORBITALS
  NO   OCC          E(Eh)            E(eV)
   0   1.0000     -20.673006      -562.5411
   1   1.0000     -20.663371      -562.2789
   2   1.0000     -11.295596      -307.3688
   3   1.0000      -1.580037       -42.9950
   4   1.0000      -1.212098       -32.9829
   5   1.0000      -0.940472       -25.5915
   6   1.0000      -0.766361       -20.8538
   7   1.0000      -0.707613       -19.2551
   8   1.0000      -0.698846       -19.0166
   9   1.0000      -0.611525       -16.6404
  10   1.0000      -0.569286       -15.4911
  11   1.0000      -0.493377       -13.4255
  12   1.0000      -0.481408       -13.0998
  13   0.0000       0.027949         0.7605
  14   0.0000       0.044916         1.2222
  15   0.0000       0.045445         1.2366
  16   0.0000       0.074459         2.0261
  17   0.0000       0.119615         3.2549

                 SPIN DOWN ORBITALS
  NO   OCC          E(Eh)            E(eV)
   0   1.0000     -20.653732      -562.0166
   1   1.0000     -20.633609      -561.4691
   2   1.0000     -11.296322      -307.3885
   3   1.0000      -1.518501       -41.3205
   4   1.0000      -1.124200       -30.5911
   5   1.0000      -0.921169       -25.0663
   6   1.0000      -0.693116       -18.8606
   7   1.0000      -0.676546       -18.4098
   8   1.0000      -0.654937       -17.8217
   9   1.0000      -0.561890       -15.2898
  10   1.0000      -0.501480       -13.6460
  11   1.0000      -0.460646       -12.5348
  12   0.0000       0.028031         0.7628
  13   0.0000       0.044115         1.2004
  14   0.0000       0.044943         1.2229
  15   0.0000       0.074789         2.0351
  16   0.0000       0.103440         2.8147

MULLIKEN ATOMIC CHARGES AND SPIN POPULATIONS
--------------------------------------------
   0 O :   -0.178159    0.923909
   1 O :   -0.221459    0.092456
   2 C :   -0.618605   -0.026399
   3 H :    0.369675    0.000708
   4 H :    0.324275    0.004662
   5 H :    0.324273    0.004662
Sum of atomic charges         :    0.0000000

LOEWDIN ATOMIC CHARGES AND SPIN POPULATIONS
-------------------------------------------
   0 O :    0.166017    0.805028
   1 O :    0.116745    0.209284
   2 C :    0.315078   -0.009708
   3 H :   -0.197897   -0.003433
   4 H :   -0.199971   -0.000586
   5 H :   -0.199972   -0.000586

  Mayer bond orders larger than 0.100000
B(  0-O ,  1-O ) :   0.9214 B(  1-O ,  2-C ) :   0.7738 B(  2-C ,  3-H ) :   0.8503
B(  2-C ,  4-H ) :   0.8984 B(  2-C ,  5-H ) :   0.8984

MP2 TOTAL ENERGY:     -189.906911901 Eh
FINAL SINGLE POINT ENERGY      -189.906911900759

DIPOLE MOMENT
-------------
                                X             Y             Z
Electronic contribution:      3.20723       0.73678      -0.00000
Nuclear contribution   :     -4.12520      -1.00544      -0.00000
                        -----------------------------------------
Total Dipole Moment    :     -0.91797      -0.26866      -0.00000
                        -----------------------------------------
Magnitude (a.u.)       :      0.95648
Magnitude (Debye)      :      2.43117

Rotational constants in cm-1:     1.787566     0.380500     0.333860
Rotational constants in MHz : 53589.880166 11407.114359 10008.881338

                             ****ORCA TERMINATED NORMALLY****
TOTAL RUN TIME: 0 days 0 hours 0 minutes 18 seconds 543 msec
