                         Program Version 4.2.1 -  RELEASE  -
|  1> %pal
|  2>  nprocs 32
|  3> end
|  4> !RI-MP2 aug-cc-pVTZ aug-cc-pVTZ/C TightSCF
|  5> %maxcore 4500
|  6> *xyzfile -1 1  07_6TS.xyz
|  7>
|  8>
|  9>                          ****END OF INPUT****

CARTESIAN COORDINATES (ANGSTROEM)
---------------------------------
  C     -1.288032    0.973226    0.201172
  C     -2.620278    0.251583    0.115396
  C     -2.421909   -1.192771    0.543800
  H     -2.977841    0.286420   -0.915258
  H     -3.357773    0.745669    0.747533
  C     -1.223880   -1.857987   -0.144679
  C     -0.081769   -1.043055   -0.382708
  O     -0.344382    0.370463   -0.633480
  C     -1.377127    2.418795   -0.306570
  C      0.993366   -1.488227   -1.313766
  H      0.736662   -0.847241    0.812737
  O      2.345520   -1.262754   -0.828514
  H      0.914343   -0.973305   -2.276521
  H      0.907970   -2.562575   -1.460964
  P      2.730885   -0.132802    0.258196
  O      4.132093   -0.234096    0.680922
  O      1.594267   -0.281022    1.344827
  O      2.448443    1.280833   -0.474176
  H      1.503345    1.444554   -0.617943
  O     -1.298782   -3.076006   -0.338543
  O     -3.580669   -1.955557    0.293930
  H     -2.188495   -1.207626    1.616016
  H     -3.233123   -2.831170    0.054041
  O     -2.386700    3.023737   -0.539177
  O     -0.154602    2.964410   -0.425927
  H     -0.264994    3.881491   -0.709295
  O     -0.876835    1.021082    1.545831
  H      0.087586    0.877713    1.595292

 Total Charge           Charge          ....   -1
 Multiplicity           Mult            ....    1
 Number of Electrons    NEL             ....  148
 Basis Dimension        Dim             .... 1062

ORBITAL ENERGIES
----------------

  NO   OCC          E(Eh)            E(eV)
   0   2.0000     -79.956311     -2175.7218
   1   2.0000     -20.534935      -558.7840
   2   2.0000     -20.479667      -557.2801
   3   2.0000     -20.474272      -557.1333
   4   2.0000     -20.467714      -556.9548
   5   2.0000     -20.454161      -556.5860
   6   2.0000     -20.452461      -556.5398
   7   2.0000     -20.450930      -556.4981
   8   2.0000     -20.424660      -555.7833
   9   2.0000     -20.418702      -555.6211
  10   2.0000     -20.367352      -554.2238
  11   2.0000     -11.302535      -307.5576
  12   2.0000     -11.268425      -306.6294
  13   2.0000     -11.212216      -305.0999
  14   2.0000     -11.183974      -304.3314
  15   2.0000     -11.180550      -304.2382
  16   2.0000     -11.136968      -303.0523
  17   2.0000     -11.134841      -302.9944
  18   2.0000      -7.472106      -203.3263
  19   2.0000      -5.370629      -146.1422
  20   2.0000      -5.370281      -146.1328
  21   2.0000      -5.369355      -146.1076
  22   2.0000      -1.395994       -37.9869
  23   2.0000      -1.333848       -36.2959
  24   2.0000      -1.299682       -35.3661
  25   2.0000      -1.288930       -35.0736
  26   2.0000      -1.281777       -34.8789
  27   2.0000      -1.250055       -34.0157
  28   2.0000      -1.238314       -33.6962
  29   2.0000      -1.236546       -33.6481
  30   2.0000      -1.203733       -32.7552
  31   2.0000      -1.153457       -31.3872
  32   2.0000      -0.970487       -26.4083
  33   2.0000      -0.945819       -25.7370
  34   2.0000      -0.859733       -23.3945
  35   2.0000      -0.804459       -21.8904
  36   2.0000      -0.755871       -20.5683
  37   2.0000      -0.718573       -19.5534
  38   2.0000      -0.675763       -18.3884
  39   2.0000      -0.659158       -17.9366
  40   2.0000      -0.640743       -17.4355
  41   2.0000      -0.629836       -17.1387
  42   2.0000      -0.622264       -16.9327
  43   2.0000      -0.604275       -16.4432
  44   2.0000      -0.583867       -15.8878
  45   2.0000      -0.569434       -15.4951
  46   2.0000      -0.554243       -15.0817
  47   2.0000      -0.550955       -14.9922
  48   2.0000      -0.544344       -14.8124
  49   2.0000      -0.538124       -14.6431
  50   2.0000      -0.523806       -14.2535
  51   2.0000      -0.514538       -14.0013
  52   2.0000      -0.501399       -13.6438
  53   2.0000      -0.479781       -13.0555
  54   2.0000      -0.469818       -12.7844
  55   2.0000      -0.463777       -12.6200
  56   2.0000      -0.447575       -12.1791
  57   2.0000      -0.439034       -11.9467
  58   2.0000      -0.431172       -11.7328
  59   2.0000      -0.423972       -11.5369
  60   2.0000      -0.422279       -11.4908
  61   2.0000      -0.417427       -11.3588
  62   2.0000      -0.409532       -11.1439
  63   2.0000      -0.404173       -10.9981
  64   2.0000      -0.392686       -10.6855
  65   2.0000      -0.382190       -10.3999
  66   2.0000      -0.377316       -10.2673
  67   2.0000      -0.357199        -9.7199
  68   2.0000      -0.351122        -9.5545
  69   2.0000      -0.337937        -9.1957
  70   2.0000      -0.329555        -8.9677
  71   2.0000      -0.328939        -8.9509
  72   2.0000      -0.294749        -8.0205
  73   2.0000      -0.209998        -5.7143
  74   0.0000       0.098096         2.6693
  75   0.0000       0.109972         2.9925
  76   0.0000       0.113086         3.0772
  77   0.0000       0.119583         3.2540
  78   0.0000       0.124286         3.3820

MULLIKEN ATOMIC CHARGES
-----------------------
   0 C :    2.203394
   1 C :   -0.647152
   2 C :    0.789302
   3 H :    0.128086
   4 H :    0.342139
   5 C :    0.279810
   6 C :    0.812344
   7 O :   -0.844899
   8 C :    0.067588
   9 C :   -0.494659
  10 H :    0.636910
  11 O :   -0.711993
  12 H :    0.245371
  13 H :    0.337964
  14 P :    1.794447
  15 O :   -1.181542
  16 O :   -0.873522
  17 O :   -0.662304
  18 H :    0.413460
  19 O :   -1.247543
  20 O :   -0.925156
  21 H :    0.231096
  22 H :    0.217586
  23 O :   -0.983244
  24 O :   -0.379418
  25 H :    0.187909
  26 O :   -0.991417
  27 H :    0.255442
Sum of atomic charges:   -1.0000000

LOEWDIN ATOMIC CHARGES
----------------------
   0 C :   -0.837178
   1 C :    0.282495
   2 C :   -0.269081
   3 H :   -0.139500
   4 H :   -0.137233
   5 C :   -0.509383
   6 C :   -0.344100
   7 O :    0.603001
   8 C :   -0.776560
   9 C :    0.001927
  10 H :   -0.659552
  11 O :    0.363876
  12 H :   -0.163348
  13 H :   -0.183339
  14 P :   -0.288664
  15 O :   -0.042815
  16 O :    0.505099
  17 O :    0.635971
  18 H :   -0.711888
  19 O :    0.462033
  20 O :    0.826489
  21 H :   -0.140261
  22 H :   -0.601146
  23 O :    0.461951
  24 O :    0.856848
  25 H :   -0.454941
  26 O :    0.869737
  27 H :   -0.610439

  Mayer bond orders larger than 0.100000
B(  0-C ,  1-C ) :   0.7400 B(  0-C ,  5-C ) :  -0.1022 B(  0-C ,  7-O ) :   0.7214
B(  0-C , 23-O ) :   0.2751 B(  0-C , 24-O ) :  -0.1733 B(  1-C ,  2-C ) :   0.9279
B(  1-C ,  3-H ) :   1.1081 B(  1-C ,  4-H ) :   0.8816 B(  1-C ,  5-C ) :   0.1929
B(  1-C ,  8-C ) :  -0.1764 B(  1-C , 20-O ) :   0.1634 B(  1-C , 23-O ) :  -0.1230
B(  2-C ,  5-C ) :   0.8899 B(  2-C , 20-O ) :   0.1133 B(  2-C , 21-H ) :   1.0843
B(  5-C ,  6-C ) :   0.8247 B(  5-C ,  7-O ) :  -0.1159 B(  5-C , 19-O ) :   0.3501
B(  5-C , 20-O ) :   0.1872 B(  6-C ,  7-O ) :   0.6737 B(  6-C ,  9-C ) :   0.6453
B(  6-C , 14-P ) :   0.1117 B(  6-C , 19-O ) :   0.1868 B(  7-O , 26-O ) :   0.1497
B(  8-C , 23-O ) :   1.0880 B(  8-C , 24-O ) :   1.1346 B(  8-C , 26-O ) :   0.2387
B(  9-C , 11-O ) :   0.5355 B(  9-C , 12-H ) :   1.0248 B(  9-C , 13-H ) :   0.9505
B( 10-H , 16-O ) :   0.3333 B( 11-O , 14-P ) :   0.9884 B( 11-O , 16-O ) :   0.1168
B( 11-O , 17-O ) :   0.1673 B( 14-P , 15-O ) :   0.9875 B( 14-P , 16-O ) :   1.1720
B( 14-P , 17-O ) :   0.8262 B( 16-O , 17-O ) :   0.1493 B( 17-O , 18-H ) :   0.6604
B( 20-O , 22-H ) :   0.9959 B( 24-O , 25-H ) :   1.0024 B( 26-O , 27-H ) :   0.8186

MP2 TOTAL ENERGY:    -1364.587417784 Eh
FINAL SINGLE POINT ENERGY     -1364.587417784403

DIPOLE MOMENT
-------------
                                X             Y             Z
Electronic contribution:      8.17827       2.48768       0.40022
Nuclear contribution   :    -10.11225      -0.99773      -1.34629
                        -----------------------------------------
Total Dipole Moment    :     -1.93398       1.48995      -0.94607
                        -----------------------------------------
Magnitude (a.u.)       :      2.61826
Magnitude (Debye)      :      6.65509

Rotational constants in cm-1:     0.017899     0.011359     0.007944
Rotational constants in MHz :   536.585263   340.530535   238.162572

                             ****ORCA TERMINATED NORMALLY****
TOTAL RUN TIME: 0 days 0 hours 24 minutes 7 seconds 97 msec
