                         Program Version 4.2.1 -  RELEASE  -
|  1> %pal
|  2>  nprocs 32
|  3> end
|  4> !RI-MP2 aug-cc-pVTZ aug-cc-pVTZ/C TightSCF
|  5> %maxcore 4500
|  6> *xyzfile 0 1  10_70P.xyz
|  7>
|  8>
|  9>                          ****END OF INPUT****

CARTESIAN COORDINATES (ANGSTROEM)
---------------------------------
  C      5.887656   -0.075538    1.460352
  C      5.087684   -1.058372    0.614697
  C      3.691711   -0.549498    0.291804
  C      2.780142   -1.610999   -0.368341
  C      1.386299   -1.072451   -0.570642
  C      0.416216   -0.916492    0.331817
  C     -0.768654   -0.046962   -0.029704
  C     -2.146834   -0.611463    0.384062
  C     -3.003303    0.390429    1.198306
  C     -2.951945    1.763078    0.582053
  C     -1.768465    2.259545    0.249407
  C     -0.533953    1.438327    0.489929
  C      0.692237    1.943418   -0.193233
  C      1.909078    1.696402    0.276077
  C      3.079701    1.689850   -0.627909
  C      3.348715   -2.131240   -1.688313
  C     -2.880466   -1.157357   -0.856500
  C     -4.258494   -1.708050   -0.493966
  C     -5.121633   -0.678960    0.229039
  C     -4.413478   -0.145918    1.463172
  C      0.543039   -1.369999    1.759475
  O      3.317075    2.530003   -1.450413
  O      3.891448    0.602811   -0.557601
  O     -2.966159   -0.214732   -1.914398
  O     -5.411120    0.444793   -0.617628
  H      6.003273    0.875612    0.939137
  H      6.884152   -0.464902    1.676231
  H      5.392651    0.118515    2.416276
  H      5.615446   -1.256874   -0.320184
  H      4.988166   -2.014568    1.137944
  H      3.222331   -0.234523    1.225150
  H      2.750445   -2.438343    0.347914
  H      1.204468   -0.667700   -1.563525
  H     -3.871104    2.314968    0.426554
  H     -1.665827    3.244801   -0.191606
  H      0.582407    2.311655   -1.210417
  H      2.020617    1.283846    1.270049
  H      3.497301   -1.308785   -2.390911
  H      2.656184   -2.843578   -2.140237
  H      4.305368   -2.636100   -1.551360
  H     -2.271779   -1.969883   -1.261817
  H     -4.143143   -2.580612    0.157384
  H     -4.755464   -2.051836   -1.405683
  H     -6.066864   -1.140029    0.536630
  H     -4.350333   -0.968580    2.182223
  H     -5.028639    0.631348    1.922555
  H     -0.311510   -1.975419    2.070183
  H      0.579378   -0.514460    2.442627
  H      1.440075   -1.963989    1.926789
  H     -3.575906    0.482566   -1.642912
  H     -5.953612    0.147967   -1.354030
  H     -2.516364    0.473313    2.178930
  H     -0.347836    1.385705    1.570329
  H     -1.997742   -1.479952    1.032351
  H     -0.787609    0.050320   -1.115738

 Total Charge           Charge          ....    0
 Multiplicity           Mult            ....    1
 Number of Electrons    NEL             ....  188
 Basis Dimension        Dim             .... 1840

ORBITAL ENERGIES
----------------

  NO   OCC          E(Eh)            E(eV)
   0   2.0000     -20.584624      -560.1361
   1   2.0000     -20.574129      -559.8505
   2   2.0000     -20.543279      -559.0110
   3   2.0000     -20.522958      -558.4581
   4   2.0000     -11.369945      -309.3919
   5   2.0000     -11.296427      -307.3914
   6   2.0000     -11.294160      -307.3297
   7   2.0000     -11.279642      -306.9347
   8   2.0000     -11.247772      -306.0674
   9   2.0000     -11.246617      -306.0360
  10   2.0000     -11.240269      -305.8633
  11   2.0000     -11.239650      -305.8464
  12   2.0000     -11.237529      -305.7887
  13   2.0000     -11.234724      -305.7124
  14   2.0000     -11.234560      -305.7079
  15   2.0000     -11.234419      -305.7041
  16   2.0000     -11.233000      -305.6655
  17   2.0000     -11.231507      -305.6248
  18   2.0000     -11.230954      -305.6098
  19   2.0000     -11.226554      -305.4901
  20   2.0000     -11.224785      -305.4419
  21   2.0000     -11.222828      -305.3887
  22   2.0000     -11.222065      -305.3679
  23   2.0000     -11.214582      -305.1643
  24   2.0000     -11.214172      -305.1531
  25   2.0000      -1.440234       -39.1908
  26   2.0000      -1.381872       -37.6027
  27   2.0000      -1.352772       -36.8108
  28   2.0000      -1.346643       -36.6440
  29   2.0000      -1.164113       -31.6771
  30   2.0000      -1.122256       -30.5382
  31   2.0000      -1.108564       -30.1655
  32   2.0000      -1.077558       -29.3218
  33   2.0000      -1.066646       -29.0249
  34   2.0000      -1.040886       -28.3240
  35   2.0000      -1.016171       -27.6514
  36   2.0000      -1.005432       -27.3592
  37   2.0000      -0.974180       -26.5088
  38   2.0000      -0.945322       -25.7235
  39   2.0000      -0.937058       -25.4986
  40   2.0000      -0.888215       -24.1696
  41   2.0000      -0.862962       -23.4824
  42   2.0000      -0.851918       -23.1819
  43   2.0000      -0.832315       -22.6485
  44   2.0000      -0.819225       -22.2922
  45   2.0000      -0.795325       -21.6419
  46   2.0000      -0.777181       -21.1482
  47   2.0000      -0.740130       -20.1400
  48   2.0000      -0.736431       -20.0393
  49   2.0000      -0.727274       -19.7901
  50   2.0000      -0.713816       -19.4239
  51   2.0000      -0.690268       -18.7831
  52   2.0000      -0.683768       -18.6063
  53   2.0000      -0.669161       -18.2088
  54   2.0000      -0.656955       -17.8767
  55   2.0000      -0.652872       -17.7656
  56   2.0000      -0.644810       -17.5462
  57   2.0000      -0.627624       -17.0785
  58   2.0000      -0.626371       -17.0444
  59   2.0000      -0.614063       -16.7095
  60   2.0000      -0.609992       -16.5987
  61   2.0000      -0.604678       -16.4541
  62   2.0000      -0.597571       -16.2607
  63   2.0000      -0.592316       -16.1177
  64   2.0000      -0.581839       -15.8326
  65   2.0000      -0.581377       -15.8201
  66   2.0000      -0.577194       -15.7063
  67   2.0000      -0.571212       -15.5435
  68   2.0000      -0.564998       -15.3744
  69   2.0000      -0.546899       -14.8819
  70   2.0000      -0.543246       -14.7825
  71   2.0000      -0.539275       -14.6744
  72   2.0000      -0.531820       -14.4716
  73   2.0000      -0.528845       -14.3906
  74   2.0000      -0.521906       -14.2018
  75   2.0000      -0.520104       -14.1528
  76   2.0000      -0.514277       -13.9942
  77   2.0000      -0.510393       -13.8885
  78   2.0000      -0.503113       -13.6904
  79   2.0000      -0.495076       -13.4717
  80   2.0000      -0.493617       -13.4320
  81   2.0000      -0.490045       -13.3348
  82   2.0000      -0.476859       -12.9760
  83   2.0000      -0.475586       -12.9414
  84   2.0000      -0.473911       -12.8958
  85   2.0000      -0.464595       -12.6423
  86   2.0000      -0.443126       -12.0581
  87   2.0000      -0.437349       -11.9009
  88   2.0000      -0.432261       -11.7624
  89   2.0000      -0.427497       -11.6328
  90   2.0000      -0.415078       -11.2949
  91   2.0000      -0.375863       -10.2277
  92   2.0000      -0.346742        -9.4353
  93   2.0000      -0.330339        -8.9890
  94   0.0000       0.015677         0.4266
  95   0.0000       0.022155         0.6029
  96   0.0000       0.027271         0.7421
  97   0.0000       0.029573         0.8047
  98   0.0000       0.034896         0.9496

MULLIKEN ATOMIC CHARGES
-----------------------
   0 C :   -1.115453
   1 C :   -0.937684
   2 C :    1.445986
   3 C :    0.331147
   4 C :   -0.537412
   5 C :    0.813057
   6 C :   -0.315484
   7 C :    0.482617
   8 C :    0.464241
   9 C :   -0.424658
  10 C :   -1.748294
  11 C :    1.603534
  12 C :   -0.669656
  13 C :   -0.142444
  14 C :    1.133478
  15 C :   -1.282011
  16 C :    0.626442
  17 C :   -1.156473
  18 C :    0.358458
  19 C :   -1.134171
  20 C :   -1.397273
  21 O :   -1.217235
  22 O :   -0.881117
  23 O :   -1.045695
  24 O :   -0.685824
  25 H :    0.302045
  26 H :    0.302263
  27 H :    0.237197
  28 H :    0.230971
  29 H :    0.208556
  30 H :    0.406193
  31 H :    0.210892
  32 H :   -0.119507
  33 H :    0.457179
  34 H :    0.358248
  35 H :   -0.152226
  36 H :    0.290058
  37 H :    0.292642
  38 H :    0.252293
  39 H :    0.231042
  40 H :    0.519385
  41 H :    0.085650
  42 H :    0.274536
  43 H :    0.461082
  44 H :    0.158486
  45 H :    0.218203
  46 H :    0.320732
  47 H :    0.139465
  48 H :    0.219732
  49 H :    0.283541
  50 H :    0.082557
  51 H :    0.373098
  52 H :    0.514476
  53 H :    0.597444
  54 H :   -0.324304
Sum of atomic charges:   -0.0000000

LOEWDIN ATOMIC CHARGES
----------------------
   0 C :    0.593720
   1 C :    0.272578
   2 C :   -0.213423
   3 C :   -0.009541
   4 C :    0.255027
   5 C :   -0.050900
   6 C :    0.059408
   7 C :    0.072226
   8 C :    0.012474
   9 C :    0.252052
  10 C :    0.267251
  11 C :    0.000065
  12 C :    0.236805
  13 C :    0.207685
  14 C :   -0.817115
  15 C :    0.600927
  16 C :   -0.205448
  17 C :    0.327173
  18 C :   -0.216133
  19 C :    0.316359
  20 C :    0.606798
  21 O :    0.442191
  22 O :    0.615620
  23 O :    0.874890
  24 O :    0.860399
  25 H :   -0.169732
  26 H :   -0.167420
  27 H :   -0.165684
  28 H :   -0.150508
  29 H :   -0.135187
  30 H :   -0.180987
  31 H :   -0.152348
  32 H :   -0.159509
  33 H :   -0.171410
  34 H :   -0.164967
  35 H :   -0.140605
  36 H :   -0.204376
  37 H :   -0.154727
  38 H :   -0.156252
  39 H :   -0.169213
  40 H :   -0.125181
  41 H :   -0.132647
  42 H :   -0.135616
  43 H :   -0.124136
  44 H :   -0.131095
  45 H :   -0.132188
  46 H :   -0.168088
  47 H :   -0.154457
  48 H :   -0.179025
  49 H :   -0.568646
  50 H :   -0.457794
  51 H :   -0.123909
  52 H :   -0.144100
  53 H :   -0.159988
  54 H :   -0.181296

  Mayer bond orders larger than 0.100000
B(  0-C ,  1-C ) :   0.7746 B(  0-C , 25-H ) :   0.9733 B(  0-C , 26-H ) :   0.9875
B(  0-C , 27-H ) :   1.0243 B(  1-C ,  2-C ) :   0.4302 B(  1-C ,  3-C ) :   0.1389
B(  1-C , 22-O ) :   0.1120 B(  1-C , 28-H ) :   1.1318 B(  1-C , 29-H ) :   1.1096
B(  2-C ,  3-C ) :   0.8652 B(  2-C ,  5-C ) :  -0.1618 B(  2-C ,  6-C ) :   0.1393
B(  2-C , 15-C ) :   0.1368 B(  2-C , 21-O ) :   0.1279 B(  2-C , 22-O ) :  -0.2994
B(  2-C , 28-H ) :  -0.1496 B(  2-C , 30-H ) :   0.8079 B(  2-C , 36-H ) :   0.1316
B(  3-C ,  4-C ) :   0.7707 B(  3-C ,  5-C ) :   0.1842 B(  3-C , 13-C ) :   0.1338
B(  3-C , 15-C ) :   0.5161 B(  3-C , 22-O ) :   0.3098 B(  3-C , 31-H ) :   0.9182
B(  3-C , 32-H ) :  -0.1054 B(  4-C ,  5-C ) :   0.9314 B(  4-C ,  6-C ) :  -0.1508
B(  4-C , 11-C ) :   0.3142 B(  4-C , 12-C ) :   0.2447 B(  4-C , 13-C ) :  -0.2167
B(  4-C , 15-C ) :  -0.3238 B(  4-C , 20-C ) :  -0.8119 B(  4-C , 32-H ) :   1.8182
B(  4-C , 38-H ) :  -0.1267 B(  4-C , 48-H ) :   0.1006 B(  4-C , 53-H ) :  -0.1168
B(  5-C ,  6-C ) :   1.6668 B(  5-C ,  7-C ) :  -0.2165 B(  5-C , 11-C ) :  -0.4913
B(  5-C , 13-C ) :   0.1613 B(  5-C , 15-C ) :   0.1062 B(  5-C , 20-C ) :   0.9217
B(  5-C , 32-H ) :  -0.1329 B(  5-C , 46-H ) :  -0.1821 B(  5-C , 47-H ) :  -0.1889
B(  5-C , 53-H ) :   0.1141 B(  5-C , 54-H ) :   0.3132 B(  6-C ,  7-C ) :   0.7000
B(  6-C , 10-C ) :   1.2411 B(  6-C , 11-C ) :   0.4838 B(  6-C , 12-C ) :   0.3941
B(  6-C , 13-C ) :  -0.1687 B(  6-C , 16-C ) :  -0.2374 B(  6-C , 20-C ) :   0.1295
B(  6-C , 32-H ) :  -0.7158 B(  6-C , 35-H ) :   0.1928 B(  6-C , 36-H ) :  -0.1159
B(  6-C , 46-H ) :   0.1081 B(  6-C , 51-H ) :   0.1196 B(  6-C , 52-H ) :  -0.1693
B(  6-C , 53-H ) :  -0.3270 B(  6-C , 54-H ) :   1.0753 B(  7-C ,  8-C ) :   1.1881
B(  7-C ,  9-C ) :   0.4044 B(  7-C , 10-C ) :  -0.3186 B(  7-C , 11-C ) :   0.1913
B(  7-C , 16-C ) :   0.9467 B(  7-C , 17-C ) :  -0.1393 B(  7-C , 20-C ) :  -0.2544
B(  7-C , 23-O ) :   0.2904 B(  7-C , 33-H ) :  -0.1502 B(  7-C , 34-H ) :   0.1175
B(  7-C , 41-H ) :  -0.1227 B(  7-C , 51-H ) :  -0.1404 B(  7-C , 53-H ) :   0.8955
B(  8-C ,  9-C ) :   1.0353 B(  8-C , 10-C ) :   0.2458 B(  8-C , 16-C ) :   0.1690
B(  8-C , 19-C ) :   0.6776 B(  8-C , 20-C ) :   0.1159 B(  8-C , 24-O ) :  -0.1610
B(  8-C , 51-H ) :   1.1116 B(  8-C , 53-H ) :  -0.1752 B(  8-C , 54-H ) :  -0.1393
B(  9-C , 10-C ) :   1.3248 B(  9-C , 11-C ) :   0.1916 B(  9-C , 33-H ) :   0.7765
B(  9-C , 34-H ) :  -0.1379 B(  9-C , 51-H ) :  -0.2290 B( 10-C , 11-C ) :  -0.5729
B( 10-C , 12-C ) :  -0.4319 B( 10-C , 34-H ) :   0.9028 B( 10-C , 51-H ) :  -0.2422
B( 10-C , 52-H ) :  -0.6365 B( 11-C , 13-C ) :   0.3211 B( 11-C , 20-C ) :  -0.1046
B( 11-C , 35-H ) :  -0.3960 B( 11-C , 51-H ) :  -0.1138 B( 11-C , 52-H ) :   1.1100
B( 12-C , 13-C ) :   1.2184 B( 12-C , 21-O ) :   0.1277 B( 12-C , 34-H ) :  -0.1961
B( 12-C , 35-H ) :   1.6292 B( 12-C , 52-H ) :  -0.1511 B( 13-C , 14-C ) :   0.6750
B( 13-C , 21-O ) :  -0.1188 B( 13-C , 34-H ) :  -0.1206 B( 13-C , 35-H ) :  -0.1302
B( 13-C , 36-H ) :   0.9496 B( 14-C , 21-O ) :   0.3785 B( 14-C , 22-O ) :   1.3207
B( 14-C , 34-H ) :   0.1065 B( 14-C , 35-H ) :  -0.1143 B( 15-C , 37-H ) :   1.0569
B( 15-C , 38-H ) :   1.0811 B( 15-C , 39-H ) :   1.0815 B( 16-C , 17-C ) :   0.9731
B( 16-C , 18-C ) :   0.1320 B( 16-C , 23-O ) :  -0.2215 B( 16-C , 40-H ) :   0.8877
B( 16-C , 53-H ) :  -0.2385 B( 17-C , 18-C ) :   0.8981 B( 17-C , 19-C ) :   0.2187
B( 17-C , 23-O ) :   0.3129 B( 17-C , 24-O ) :   0.1328 B( 17-C , 40-H ) :  -0.1317
B( 17-C , 41-H ) :   1.2815 B( 17-C , 42-H ) :   0.9235 B( 18-C , 19-C ) :   0.8993
B( 18-C , 24-O ) :   0.5129 B( 18-C , 43-H ) :   0.8384 B( 19-C , 24-O ) :   0.1727
B( 19-C , 44-H ) :   1.1760 B( 19-C , 45-H ) :   1.0774 B( 19-C , 51-H ) :  -0.2201
B( 20-C , 46-H ) :   1.0169 B( 20-C , 47-H ) :   1.3398 B( 20-C , 48-H ) :   1.0625
B( 20-C , 53-H ) :  -0.1018 B( 21-O , 35-H ) :   0.2411 B( 23-O , 40-H ) :  -0.2743
B( 23-O , 49-H ) :   0.9382 B( 24-O , 50-H ) :   1.0575 B( 32-H , 51-H ) :   0.1142

MP2 TOTAL ENERGY:    -1117.010479951 Eh
FINAL SINGLE POINT ENERGY     -1117.010479951397

DIPOLE MOMENT
-------------
                                X             Y             Z
Electronic contribution:     -5.27284      13.40167      -7.66597
Nuclear contribution   :      3.54651     -15.42531       9.41555
                        -----------------------------------------
Total Dipole Moment    :     -1.72634      -2.02364       1.74958
                        -----------------------------------------
Magnitude (a.u.)       :      3.18377
Magnitude (Debye)      :      8.09250

Rotational constants in cm-1:     0.016852     0.003906     0.003660
Rotational constants in MHz :   505.217726   117.088800   109.722810

                             ****ORCA TERMINATED NORMALLY****
TOTAL RUN TIME: 0 days 2 hours 21 minutes 26 seconds 206 msec
