                         Program Version 4.2.1 -  RELEASE  -
|  1> %pal
|  2>  nprocs 32
|  3> end
|  4> !RI-MP2 aug-cc-pVTZ aug-cc-pVTZ/C TightSCF
|  5> %maxcore 4500
|  6> *xyzfile 0 2  04_42TS.xyz
|  7>
|  8>
|  9>                          ****END OF INPUT****

CARTESIAN COORDINATES (ANGSTROEM)
---------------------------------
  N     -0.319081   -0.375176   -0.487895
  S      0.973748   -1.414794   -0.562597
  O      1.567574   -1.420615    0.945578
  C      2.435103   -0.339880    1.362612
  C      1.644671    0.887453    1.792896
  H      2.979721   -0.759034    2.206009
  H      3.138282   -0.125310    0.558042
  C      0.914578    1.614512    0.684024
  H      2.355370    1.581601    2.259347
  H      0.944752    0.590612    2.578241
  C      1.740349    2.307911   -0.373681
  H      0.102114    2.239560    1.060861
  C     -1.388857   -0.797332    0.395217
  H     -1.666860   -1.828439    0.163968
  C     -2.600692    0.074502    0.164781
  F     -3.067234   -0.011339   -1.081504
  F     -3.588061   -0.288177    1.000892
  F     -2.330329    1.372509    0.406224
  O      1.951396   -0.802854   -1.424530
  O      0.475713   -2.745914   -0.770825
  C      0.888524    2.889049   -1.496481
  H      2.308874    3.108015    0.120231
  H      2.473231    1.615342   -0.793018
  H      0.354892    2.096341   -2.023882
  H      1.507724    3.417399   -2.222691
  H      0.148722    3.593627   -1.108289
  H      0.247308    0.758961    0.051953
  H     -1.129427   -0.744915    1.457543

 Total Charge           Charge          ....    0
 Multiplicity           Mult            ....    2
 Number of Electrons    NEL             ....  129
 Basis Dimension        Dim             ....  993

ORBITAL ENERGIES
----------------
                 SPIN UP ORBITALS
  NO   OCC          E(Eh)            E(eV)
   0   1.0000     -92.249903     -2510.2475
   1   1.0000     -26.349561      -717.0080
   2   1.0000     -26.349080      -716.9949
   3   1.0000     -26.347167      -716.9429
   4   1.0000     -20.631348      -561.4075
   5   1.0000     -20.574752      -559.8675
   6   1.0000     -20.572377      -559.8028
   7   1.0000     -15.649988      -425.8578
   8   1.0000     -11.518708      -313.4400
   9   1.0000     -11.319790      -308.0271
  10   1.0000     -11.317243      -307.9579
  11   1.0000     -11.273963      -306.7801
  12   1.0000     -11.261903      -306.4519
  13   1.0000     -11.238859      -305.8249
  14   1.0000     -11.220999      -305.3389
  15   1.0000      -9.210247      -250.6236
  16   1.0000      -6.896273      -187.6571
  17   1.0000      -6.895026      -187.6232
  18   1.0000      -6.894877      -187.6191
  19   1.0000      -1.740012       -47.3481
  20   1.0000      -1.644878       -44.7594
  21   1.0000      -1.644254       -44.7424
  22   1.0000      -1.523581       -41.4587
  23   1.0000      -1.402162       -38.1548
  24   1.0000      -1.374727       -37.4082
  25   1.0000      -1.283900       -34.9367
  26   1.0000      -1.129524       -30.7359
  27   1.0000      -1.068360       -29.0716
  28   1.0000      -1.045517       -28.4500
  29   1.0000      -0.968152       -26.3447
  30   1.0000      -0.935859       -25.4660
  31   1.0000      -0.891719       -24.2649
  32   1.0000      -0.851123       -23.1602
  33   1.0000      -0.836530       -22.7631
  34   1.0000      -0.833731       -22.6870
  35   1.0000      -0.816790       -22.2260
  36   1.0000      -0.785415       -21.3722
  37   1.0000      -0.769438       -20.9375
  38   1.0000      -0.739659       -20.1271
  39   1.0000      -0.724616       -19.7178
  40   1.0000      -0.716716       -19.5028
  41   1.0000      -0.706964       -19.2375
  42   1.0000      -0.693646       -18.8751
  43   1.0000      -0.675880       -18.3916
  44   1.0000      -0.673520       -18.3274
  45   1.0000      -0.666763       -18.1436
  46   1.0000      -0.658499       -17.9187
  47   1.0000      -0.648081       -17.6352
  48   1.0000      -0.636068       -17.3083
  49   1.0000      -0.626948       -17.0601
  50   1.0000      -0.602142       -16.3851
  51   1.0000      -0.598612       -16.2891
  52   1.0000      -0.584304       -15.8997
  53   1.0000      -0.566203       -15.4072
  54   1.0000      -0.557163       -15.1612
  55   1.0000      -0.542315       -14.7572
  56   1.0000      -0.532048       -14.4778
  57   1.0000      -0.522439       -14.2163
  58   1.0000      -0.511892       -13.9293
  59   1.0000      -0.509417       -13.8619
  60   1.0000      -0.505843       -13.7647
  61   1.0000      -0.491324       -13.3696
  62   1.0000      -0.487962       -13.2781
  63   1.0000      -0.475847       -12.9485
  64   1.0000      -0.410705       -11.1759
  65   0.0000       0.017953         0.4885
  66   0.0000       0.029337         0.7983
  67   0.0000       0.031895         0.8679
  68   0.0000       0.036705         0.9988
  69   0.0000       0.047087         1.2813

                 SPIN DOWN ORBITALS
  NO   OCC          E(Eh)            E(eV)
   0   1.0000     -92.250328     -2510.2590
   1   1.0000     -26.349624      -717.0097
   2   1.0000     -26.349110      -716.9957
   3   1.0000     -26.347171      -716.9430
   4   1.0000     -20.631556      -561.4132
   5   1.0000     -20.573125      -559.8232
   6   1.0000     -20.572693      -559.8114
   7   1.0000     -15.624588      -425.1667
   8   1.0000     -11.518653      -313.4385
   9   1.0000     -11.319453      -308.0180
  10   1.0000     -11.318820      -308.0008
  11   1.0000     -11.263058      -306.4834
  12   1.0000     -11.259747      -306.3933
  13   1.0000     -11.239821      -305.8511
  14   1.0000     -11.220845      -305.3347
  15   1.0000      -9.210822      -250.6392
  16   1.0000      -6.896646      -187.6673
  17   1.0000      -6.896149      -187.6538
  18   1.0000      -6.895267      -187.6298
  19   1.0000      -1.740075       -47.3499
  20   1.0000      -1.644999       -44.7627
  21   1.0000      -1.644314       -44.7441
  22   1.0000      -1.521081       -41.3907
  23   1.0000      -1.401522       -38.1373
  24   1.0000      -1.373121       -37.3645
  25   1.0000      -1.229071       -33.4447
  26   1.0000      -1.111953       -30.2578
  27   1.0000      -1.060893       -28.8684
  28   1.0000      -1.041646       -28.3446
  29   1.0000      -0.956319       -26.0228
  30   1.0000      -0.931547       -25.3487
  31   1.0000      -0.881155       -23.9775
  32   1.0000      -0.844269       -22.9737
  33   1.0000      -0.835834       -22.7442
  34   1.0000      -0.827678       -22.5223
  35   1.0000      -0.806851       -21.9555
  36   1.0000      -0.776449       -21.1283
  37   1.0000      -0.748877       -20.3780
  38   1.0000      -0.729064       -19.8389
  39   1.0000      -0.723126       -19.6773
  40   1.0000      -0.714355       -19.4386
  41   1.0000      -0.696380       -18.9495
  42   1.0000      -0.681437       -18.5429
  43   1.0000      -0.672221       -18.2921
  44   1.0000      -0.664617       -18.0851
  45   1.0000      -0.658806       -17.9270
  46   1.0000      -0.657607       -17.8944
  47   1.0000      -0.641479       -17.4555
  48   1.0000      -0.626520       -17.0485
  49   1.0000      -0.620703       -16.8902
  50   1.0000      -0.597044       -16.2464
  51   1.0000      -0.593979       -16.1630
  52   1.0000      -0.568521       -15.4702
  53   1.0000      -0.563386       -15.3305
  54   1.0000      -0.546999       -14.8846
  55   1.0000      -0.533883       -14.5277
  56   1.0000      -0.518685       -14.1141
  57   1.0000      -0.511209       -13.9107
  58   1.0000      -0.509306       -13.8589
  59   1.0000      -0.502308       -13.6685
  60   1.0000      -0.490188       -13.3387
  61   1.0000      -0.486571       -13.2403
  62   1.0000      -0.484096       -13.1729
  63   1.0000      -0.441010       -12.0005
  64   0.0000       0.015862         0.4316
  65   0.0000       0.023617         0.6426
  66   0.0000       0.029416         0.8005
  67   0.0000       0.033633         0.9152
  68   0.0000       0.036757         1.0002

MULLIKEN ATOMIC CHARGES AND SPIN POPULATIONS
--------------------------------------------
   0 N :   -0.575179    0.810825
   1 S :    2.383276   -0.065203
   2 O :   -0.855812   -0.002391
   3 C :   -0.338016    0.022021
   4 C :   -0.496229   -0.082349
   5 H :    0.379076   -0.002047
   6 H :    0.329699   -0.001092
   7 C :   -0.190905    0.669534
   8 H :    0.279597    0.032597
   9 H :    0.191142   -0.005712
  10 C :   -0.468440   -0.051923
  11 H :    0.371281    0.006817
  12 C :   -0.466014   -0.086570
  13 H :    0.415657    0.035776
  14 C :    1.251451    0.010098
  15 F :   -0.422200    0.000464
  16 F :   -0.418881   -0.000963
  17 F :   -0.433628    0.000151
  18 O :   -0.993791   -0.007470
  19 O :   -1.044946    0.029966
  20 C :   -1.117153    0.014193
  21 H :    0.279357    0.034575
  22 H :    0.230189    0.004490
  23 H :    0.330809   -0.001446
  24 H :    0.272210   -0.003544
  25 H :    0.227324   -0.000311
  26 H :    0.599377   -0.375195
  27 H :    0.280748    0.014707
Sum of atomic charges         :   -0.0000000

LOEWDIN ATOMIC CHARGES AND SPIN POPULATIONS
-------------------------------------------
   0 N :    0.317990    0.451613
   1 S :   -0.051279    0.017356
   2 O :    0.367811   -0.004899
   3 C :    0.028017    0.000858
   4 C :    0.300935    0.031640
   5 H :   -0.155323   -0.000129
   6 H :   -0.193022    0.000103
   7 C :    0.253998    0.240717
   8 H :   -0.133507    0.012259
   9 H :   -0.144288    0.000022
  10 C :    0.269527    0.037235
  11 H :   -0.123055    0.035976
  12 C :    0.058928    0.042921
  13 H :   -0.173119    0.012859
  14 C :   -1.499068   -0.001909
  15 F :    0.524247   -0.000261
  16 F :    0.511588   -0.000736
  17 F :    0.514027   -0.001035
  18 O :    0.101752   -0.007227
  19 O :    0.075526    0.026939
  20 C :    0.593528   -0.000721
  21 H :   -0.133453    0.014951
  22 H :   -0.177527    0.000994
  23 H :   -0.167208   -0.001161
  24 H :   -0.164652   -0.000416
  25 H :   -0.164189   -0.000205
  26 H :   -0.486368    0.090279
  27 H :   -0.151814    0.001977

  Mayer bond orders larger than 0.100000
B(  0-N ,  1-S ) :   0.9473 B(  0-N ,  2-O ) :   0.1539 B(  0-N ,  7-C ) :   0.1269
B(  0-N , 12-C ) :   0.7256 B(  1-S ,  2-O ) :   0.7364 B(  1-S , 18-O ) :   1.3640
B(  1-S , 19-O ) :   1.0354 B(  2-O ,  3-C ) :   0.6900 B(  3-C ,  4-C ) :   0.9645
B(  3-C ,  5-H ) :   0.8470 B(  3-C ,  6-H ) :   1.0296 B(  4-C ,  7-C ) :   0.8159
B(  4-C ,  8-H ) :   0.9084 B(  4-C ,  9-H ) :   1.0672 B(  7-C , 10-C ) :   0.8793
B(  7-C , 11-H ) :   0.7897 B(  7-C , 26-H ) :   0.4934 B( 10-C , 20-C ) :   0.9071
B( 10-C , 21-H ) :   0.9405 B( 10-C , 22-H ) :   0.9715 B( 11-H , 17-F ) :   0.1074
B( 12-C , 13-H ) :   0.8245 B( 12-C , 14-C ) :   0.9623 B( 12-C , 17-F ) :   0.1197
B( 12-C , 27-H ) :   0.9182 B( 14-C , 15-F ) :   0.7241 B( 14-C , 16-F ) :   0.7390
B( 14-C , 17-F ) :   0.7814 B( 17-F , 26-H ) :  -0.1624 B( 18-O , 26-H ) :  -0.1313
B( 20-C , 23-H ) :   0.8916 B( 20-C , 24-H ) :   1.0092 B( 20-C , 25-H ) :   1.0260

MP2 TOTAL ENERGY:    -1250.858889566 Eh
FINAL SINGLE POINT ENERGY     -1250.858889565623

DIPOLE MOMENT
-------------
                                X             Y             Z
Electronic contribution:    -21.43226     -12.83444      -2.18696
Nuclear contribution   :     22.12489      14.09989       3.88582
                        -----------------------------------------
Total Dipole Moment    :      0.69263       1.26545       1.69886
                        -----------------------------------------
Magnitude (a.u.)       :      2.22873
Magnitude (Debye)      :      5.66498

Rotational constants in cm-1:     0.021736     0.013914     0.011217
Rotational constants in MHz :   651.614555   417.121363   336.269379

                             ****ORCA TERMINATED NORMALLY****
TOTAL RUN TIME: 0 days 0 hours 36 minutes 43 seconds 468 msec
