                         Program Version 4.2.1 -  RELEASE  -
|  1> %pal
|  2>  nprocs 32
|  3> end
|  4> !RI-MP2 aug-cc-pVTZ aug-cc-pVTZ/C TightSCF
|  5> %maxcore 4500
|  6> *xyzfile 0 2  04_18P.xyz
|  7>
|  8>
|  9>                          ****END OF INPUT****

CARTESIAN COORDINATES (ANGSTROEM)
---------------------------------
  C     -0.185423    1.540666   -0.169841
  H      0.355422    2.369660    0.310915
  C     -2.512563    0.440119   -0.183571
  H     -3.502096    0.552602    0.260850
  H     -0.372058    1.842073   -1.203551
  H     -2.590591    0.754040   -1.226241
  C     -1.509532    1.314481    0.562856
  H     -1.972907    2.294662    0.712171
  H     -1.319429    0.899100    1.555009
  C      0.722365    0.359802   -0.200432
  C      2.713505   -0.550583   -0.625847
  C      2.476573   -0.607460    0.880962
  H      2.463217   -1.497305   -1.113362
  H      3.718497   -0.243185   -0.906091
  H      2.538987   -1.615086    1.291027
  H      3.146295    0.055655    1.432968
  S     -2.204407   -1.360619   -0.122152
  O      1.798693    0.457233   -1.045097
  O      1.139017   -0.123101    1.020142
  H     -0.926052   -1.297517   -0.544381

 Total Charge           Charge          ....    0
 Multiplicity           Mult            ....    2
 Number of Electrons    NEL             ....   79
 Basis Dimension        Dim             ....  671

ORBITAL ENERGIES
----------------
                 SPIN UP ORBITALS
  NO   OCC          E(Eh)            E(eV)
   0   1.0000     -91.938133     -2501.7638
   1   1.0000     -20.588009      -560.2282
   2   1.0000     -20.583221      -560.0979
   3   1.0000     -11.329153      -308.2819
   4   1.0000     -11.296044      -307.3810
   5   1.0000     -11.294407      -307.3364
   6   1.0000     -11.255020      -306.2647
   7   1.0000     -11.232300      -305.6464
   8   1.0000     -11.230175      -305.5886
   9   1.0000      -8.939366      -243.2525
  10   1.0000      -6.621156      -180.1708
  11   1.0000      -6.619827      -180.1346
  12   1.0000      -6.618660      -180.1029
  13   1.0000      -1.471609       -40.0445
  14   1.0000      -1.359925       -37.0055
  15   1.0000      -1.102123       -29.9903
  16   1.0000      -1.050018       -28.5724
  17   1.0000      -0.989461       -26.9246
  18   1.0000      -0.910988       -24.7892
  19   1.0000      -0.875013       -23.8103
  20   1.0000      -0.825846       -22.4724
  21   1.0000      -0.787412       -21.4266
  22   1.0000      -0.728668       -19.8281
  23   1.0000      -0.704737       -19.1769
  24   1.0000      -0.654052       -17.7977
  25   1.0000      -0.637761       -17.3544
  26   1.0000      -0.617803       -16.8113
  27   1.0000      -0.607956       -16.5433
  28   1.0000      -0.587704       -15.9922
  29   1.0000      -0.555246       -15.1090
  30   1.0000      -0.543856       -14.7991
  31   1.0000      -0.535977       -14.5847
  32   1.0000      -0.524092       -14.2613
  33   1.0000      -0.516267       -14.0483
  34   1.0000      -0.491131       -13.3644
  35   1.0000      -0.475585       -12.9413
  36   1.0000      -0.464055       -12.6276
  37   1.0000      -0.440769       -11.9939
  38   1.0000      -0.345678        -9.4064
  39   1.0000      -0.315677        -8.5900
  40   0.0000       0.026829         0.7301
  41   0.0000       0.031151         0.8477
  42   0.0000       0.037511         1.0207
  43   0.0000       0.039328         1.0702
  44   0.0000       0.047315         1.2875

                 SPIN DOWN ORBITALS
  NO   OCC          E(Eh)            E(eV)
   0   1.0000     -91.937768     -2501.7539
   1   1.0000     -20.583651      -560.1096
   2   1.0000     -20.578190      -559.9610
   3   1.0000     -11.304108      -307.6004
   4   1.0000     -11.296181      -307.3847
   5   1.0000     -11.294568      -307.3408
   6   1.0000     -11.255052      -306.2655
   7   1.0000     -11.232746      -305.6586
   8   1.0000     -11.229910      -305.5814
   9   1.0000      -8.938974      -243.2418
  10   1.0000      -6.620141      -180.1432
  11   1.0000      -6.619030      -180.1130
  12   1.0000      -6.618443      -180.0970
  13   1.0000      -1.455392       -39.6032
  14   1.0000      -1.347606       -36.6702
  15   1.0000      -1.094388       -29.7798
  16   1.0000      -1.041890       -28.3513
  17   1.0000      -0.986912       -26.8553
  18   1.0000      -0.901342       -24.5268
  19   1.0000      -0.871989       -23.7280
  20   1.0000      -0.810589       -22.0572
  21   1.0000      -0.773209       -21.0401
  22   1.0000      -0.706745       -19.2315
  23   1.0000      -0.696272       -18.9465
  24   1.0000      -0.638349       -17.3704
  25   1.0000      -0.630784       -17.1645
  26   1.0000      -0.609119       -16.5750
  27   1.0000      -0.595021       -16.1913
  28   1.0000      -0.570545       -15.5253
  29   1.0000      -0.537110       -14.6155
  30   1.0000      -0.533402       -14.5146
  31   1.0000      -0.526417       -14.3245
  32   1.0000      -0.516506       -14.0548
  33   1.0000      -0.509612       -13.8673
  34   1.0000      -0.489725       -13.3261
  35   1.0000      -0.469111       -12.7652
  36   1.0000      -0.440815       -11.9952
  37   1.0000      -0.436243       -11.8708
  38   1.0000      -0.344386        -9.3712
  39   0.0000       0.026539         0.7222
  40   0.0000       0.030911         0.8411
  41   0.0000       0.037566         1.0222
  42   0.0000       0.039367         1.0712
  43   0.0000       0.046986         1.2786

MULLIKEN ATOMIC CHARGES AND SPIN POPULATIONS
--------------------------------------------
   0 C :   -0.460626   -0.103232
   1 H :    0.253799    0.084370
   2 C :   -0.341849   -0.000832
   3 H :    0.295482   -0.000809
   4 H :    0.207221   -0.009674
   5 H :    0.233312    0.002323
   6 C :   -0.461678    0.013478
   7 H :    0.229414   -0.007238
   8 H :    0.328417    0.000883
   9 C :    0.730406    0.911346
  10 C :   -0.339495   -0.011167
  11 C :   -0.408155   -0.004429
  12 H :    0.320720    0.000296
  13 H :    0.399951    0.000414
  14 H :    0.328583    0.000745
  15 H :    0.313630    0.003075
  16 S :   -0.526469    0.032110
  17 O :   -0.712201    0.056621
  18 O :   -0.609281    0.052465
  19 H :    0.218818   -0.020745
Sum of atomic charges         :    0.0000000

LOEWDIN ATOMIC CHARGES AND SPIN POPULATIONS
-------------------------------------------
   0 C :    0.244825    0.089742
   1 H :   -0.141728    0.025065
   2 C :   -0.097249    0.004190
   3 H :   -0.234955    0.000473
   4 H :   -0.159249    0.003028
   5 H :   -0.222103    0.000277
   6 C :    0.205285    0.005148
   7 H :   -0.151565    0.000077
   8 H :   -0.163305    0.000757
   9 C :   -0.595630    0.527475
  10 C :    0.064756    0.004904
  11 C :    0.074430    0.004013
  12 H :   -0.151489    0.001091
  13 H :   -0.155391   -0.000293
  14 H :   -0.156100   -0.000344
  15 H :   -0.154773    0.002704
  16 S :    1.300035    0.025718
  17 O :    0.553826    0.135755
  18 O :    0.554596    0.137121
  19 H :   -0.614215    0.033100

  Mayer bond orders larger than 0.100000
B(  0-C ,  1-H ) :   0.9113 B(  0-C ,  4-H ) :   0.9857 B(  0-C ,  6-C ) :   0.9214
B(  0-C ,  9-C ) :   0.8451 B(  2-C ,  3-H ) :   0.9449 B(  2-C ,  5-H ) :   0.9481
B(  2-C ,  6-C ) :   0.9368 B(  2-C , 16-S ) :   0.9510 B(  6-C ,  7-H ) :   0.9939
B(  6-C ,  8-H ) :   0.9136 B(  9-C , 17-O ) :   0.6898 B(  9-C , 18-O ) :   0.8018
B( 10-C , 11-C ) :   1.0001 B( 10-C , 12-H ) :   0.9099 B( 10-C , 13-H ) :   0.8658
B( 10-C , 17-O ) :   0.8908 B( 11-C , 14-H ) :   0.9175 B( 11-C , 15-H ) :   0.9078
B( 11-C , 17-O ) :   0.1203 B( 11-C , 18-O ) :   0.8388 B( 16-S , 19-H ) :   0.9064

MP2 TOTAL ENERGY:     -782.634433095 Eh
FINAL SINGLE POINT ENERGY      -782.634433095406

DIPOLE MOMENT
-------------
                                X             Y             Z
Electronic contribution:     -0.72940      -3.78627      -0.52415
Nuclear contribution   :      1.66660       4.19463       0.57719
                        -----------------------------------------
Total Dipole Moment    :      0.93720       0.40836       0.05303
                        -----------------------------------------
Magnitude (a.u.)       :      1.02367
Magnitude (Debye)      :      2.60197

Rotational constants in cm-1:     0.079524     0.026789     0.023759
Rotational constants in MHz :  2384.065362   803.118370   712.262334

                             ****ORCA TERMINATED NORMALLY****
TOTAL RUN TIME: 0 days 0 hours 7 minutes 20 seconds 317 msec
