                         Program Version 4.2.1 -  RELEASE  -
|  1> %pal
|  2>  nprocs 32
|  3> end
|  4> !RI-MP2 aug-cc-pVTZ aug-cc-pVTZ/C TightSCF
|  5> %maxcore 4500
|  6> *xyzfile 1 1  05_36P1.xyz
|  7>
|  8>
|  9>                          ****END OF INPUT****

CARTESIAN COORDINATES (ANGSTROEM)
---------------------------------
  O     -3.510899    0.016882   -0.000398
  C     -2.431747    0.549433    0.000026
  O     -2.201197    1.838166    0.000564
  C     -3.364956    2.693713    0.000612
  C     -1.153822   -0.255532    0.000008
  C      1.153822   -0.255532    0.000011
  C      1.204275   -1.654281   -0.000069
  N      0.000000   -2.260282   -0.000122
  C     -1.204275   -1.654281   -0.000080
  C      2.408316   -2.525993   -0.000096
  C      2.431747    0.549432    0.000169
  O      2.201198    1.838166   -0.000858
  C      3.364957    2.693713   -0.000739
  C     -2.408316   -2.525994   -0.000145
  O      3.510899    0.016882    0.001147
  H      3.961549    2.503571   -0.891162
  H      3.960424    2.504846    0.890708
  H      2.973112    3.705278   -0.001709
  H      3.030382   -2.312436   -0.869524
  H      2.127517   -3.580244   -0.000702
  H      3.029760   -2.313267    0.869991
  H     -3.029957   -2.312930   -0.870005
  H     -3.030185   -2.312775    0.869511
  H     -2.127517   -3.580245   -0.000012
  H     -3.961208    2.503860    0.891325
  H     -3.960765    2.504557   -0.890545
  H     -2.973111    3.705278    0.001104
  N     -0.000000    0.387884    0.000034
  H     -0.000000   -3.277536   -0.000197

 Total Charge           Charge          ....    1
 Multiplicity           Mult            ....    1
 Number of Electrons    NEL             ....  118
 Basis Dimension        Dim             .... 1035

ORBITAL ENERGIES
----------------

  NO   OCC          E(Eh)            E(eV)
   0   2.0000     -20.732453      -564.1587
   1   2.0000     -20.732453      -564.1587
   2   2.0000     -20.682000      -562.7858
   3   2.0000     -20.682000      -562.7858
   4   2.0000     -15.861770      -431.6207
   5   2.0000     -15.785735      -429.5517
   6   2.0000     -11.525250      -313.6180
   7   2.0000     -11.525250      -313.6180
   8   2.0000     -11.518647      -313.4383
   9   2.0000     -11.518620      -313.4376
  10   2.0000     -11.467903      -312.0575
  11   2.0000     -11.467883      -312.0570
  12   2.0000     -11.398432      -310.1671
  13   2.0000     -11.398432      -310.1671
  14   2.0000     -11.393798      -310.0410
  15   2.0000     -11.393797      -310.0410
  16   2.0000      -1.605300       -43.6824
  17   2.0000      -1.603543       -43.6346
  18   2.0000      -1.549899       -42.1749
  19   2.0000      -1.501642       -40.8618
  20   2.0000      -1.501604       -40.8607
  21   2.0000      -1.442342       -39.2481
  22   2.0000      -1.304591       -35.4997
  23   2.0000      -1.184557       -32.2334
  24   2.0000      -1.183591       -32.2071
  25   2.0000      -1.114783       -30.3348
  26   2.0000      -1.106810       -30.1178
  27   2.0000      -1.091661       -29.7056
  28   2.0000      -1.047692       -28.5091
  29   2.0000      -0.994713       -27.0675
  30   2.0000      -0.933214       -25.3940
  31   2.0000      -0.912780       -24.8380
  32   2.0000      -0.898547       -24.4507
  33   2.0000      -0.858947       -23.3731
  34   2.0000      -0.850339       -23.1389
  35   2.0000      -0.832447       -22.6520
  36   2.0000      -0.810759       -22.0619
  37   2.0000      -0.804097       -21.8806
  38   2.0000      -0.802474       -21.8364
  39   2.0000      -0.801605       -21.8128
  40   2.0000      -0.794256       -21.6128
  41   2.0000      -0.750133       -20.4122
  42   2.0000      -0.744725       -20.2650
  43   2.0000      -0.737238       -20.0613
  44   2.0000      -0.720850       -19.6153
  45   2.0000      -0.713954       -19.4277
  46   2.0000      -0.709459       -19.3054
  47   2.0000      -0.708401       -19.2766
  48   2.0000      -0.689115       -18.7518
  49   2.0000      -0.678988       -18.4762
  50   2.0000      -0.649964       -17.6864
  51   2.0000      -0.647270       -17.6131
  52   2.0000      -0.643141       -17.5008
  53   2.0000      -0.640463       -17.4279
  54   2.0000      -0.591269       -16.0893
  55   2.0000      -0.588530       -16.0147
  56   2.0000      -0.588388       -16.0109
  57   2.0000      -0.584609       -15.9080
  58   2.0000      -0.529809       -14.4168
  59   0.0000      -0.127031        -3.4567
  60   0.0000      -0.095496        -2.5986
  61   0.0000      -0.084009        -2.2860
  62   0.0000      -0.058651        -1.5960
  63   0.0000      -0.054748        -1.4898

MULLIKEN ATOMIC CHARGES
-----------------------
   0 O :   -0.989691
   1 C :    0.745257
   2 O :   -0.325322
   3 C :   -0.921059
   4 C :    1.555490
   5 C :    1.555703
   6 C :   -0.260916
   7 N :    0.048830
   8 C :   -0.261158
   9 C :   -1.024740
  10 C :    0.745195
  11 O :   -0.325309
  12 C :   -0.921037
  13 C :   -1.024692
  14 O :   -0.989709
  15 H :    0.399621
  16 H :    0.399804
  17 H :    0.369618
  18 H :    0.297399
  19 H :    0.295279
  20 H :    0.297379
  21 H :    0.297416
  22 H :    0.297448
  23 H :    0.295208
  24 H :    0.399679
  25 H :    0.399758
  26 H :    0.369626
  27 N :   -0.811217
  28 H :    0.086142
Sum of atomic charges:    1.0000000

LOEWDIN ATOMIC CHARGES
----------------------
   0 O :    0.507530
   1 C :   -0.827764
   2 O :    0.580160
   3 C :    0.412516
   4 C :   -0.203192
   5 C :   -0.203192
   6 C :   -0.080043
   7 N :    0.633279
   8 C :   -0.080043
   9 C :    0.647465
  10 C :   -0.827764
  11 O :    0.580160
  12 C :    0.412516
  13 C :    0.647465
  14 O :    0.507530
  15 H :   -0.169565
  16 H :   -0.169558
  17 H :   -0.173201
  18 H :   -0.151310
  19 H :   -0.153639
  20 H :   -0.151268
  21 H :   -0.151282
  22 H :   -0.151296
  23 H :   -0.153639
  24 H :   -0.169563
  25 H :   -0.169560
  26 H :   -0.173201
  27 N :    0.451142
  28 H :   -0.220684

  Mayer bond orders larger than 0.100000
B(  0-O ,  1-C ) :   1.3938 B(  0-O ,  4-C ) :  -0.2998 B(  1-C ,  2-O ) :   0.8204
B(  1-C ,  3-C ) :  -0.1388 B(  1-C ,  4-C ) :   0.3745 B(  1-C ,  5-C ) :   0.2104
B(  1-C ,  8-C ) :   0.4997 B(  1-C , 27-N ) :  -0.2279 B(  2-O ,  3-C ) :   0.8300
B(  2-O ,  4-C ) :   0.1387 B(  3-C , 24-H ) :   0.8608 B(  3-C , 25-H ) :   0.8608
B(  3-C , 26-H ) :   0.9049 B(  4-C ,  5-C ) :   0.1682 B(  4-C ,  7-N ) :  -0.4151
B(  4-C ,  8-C ) :   0.7756 B(  4-C , 10-C ) :   0.2103 B(  4-C , 27-N ) :   0.1406
B(  5-C ,  6-C ) :   0.7754 B(  5-C ,  7-N ) :  -0.4150 B(  5-C , 10-C ) :   0.3744
B(  5-C , 11-O ) :   0.1387 B(  5-C , 14-O ) :  -0.3000 B(  5-C , 27-N ) :   0.1400
B(  6-C ,  7-N ) :   0.7898 B(  6-C ,  8-C ) :  -0.7446 B(  6-C ,  9-C ) :   0.6596
B(  6-C , 10-C ) :   0.4998 B(  6-C , 27-N ) :   0.3572 B(  7-N ,  8-C ) :   0.7902
B(  7-N , 27-N ) :  -0.3561 B(  7-N , 28-H ) :   1.3012 B(  8-C , 13-C ) :   0.6597
B(  8-C , 27-N ) :   0.3570 B(  9-C , 18-H ) :   1.0294 B(  9-C , 19-H ) :   0.9246
B(  9-C , 20-H ) :   1.0293 B( 10-C , 11-O ) :   0.8205 B( 10-C , 12-C ) :  -0.1388
B( 10-C , 14-O ) :   1.3940 B( 10-C , 27-N ) :  -0.2278 B( 11-O , 12-C ) :   0.8299
B( 12-C , 15-H ) :   0.8609 B( 12-C , 16-H ) :   0.8608 B( 12-C , 17-H ) :   0.9049
B( 13-C , 21-H ) :   1.0292 B( 13-C , 22-H ) :   1.0293 B( 13-C , 23-H ) :   0.9247

MP2 TOTAL ENERGY:     -797.665339852 Eh
FINAL SINGLE POINT ENERGY      -797.665339851906

DIPOLE MOMENT
-------------
                                X             Y             Z
Electronic contribution:     -0.00000      -0.03922       0.00069
Nuclear contribution   :     -0.00000      -2.19751      -0.00120
                        -----------------------------------------
Total Dipole Moment    :     -0.00000      -2.23673      -0.00051
                        -----------------------------------------
Magnitude (a.u.)       :      2.23673
Magnitude (Debye)      :      5.68531

Rotational constants in cm-1:     0.024036     0.012936     0.008463
Rotational constants in MHz :   720.566192   387.819177   253.705212

                             ****ORCA TERMINATED NORMALLY****
TOTAL RUN TIME: 0 days 0 hours 20 minutes 9 seconds 903 msec
