                         Program Version 4.2.1 -  RELEASE  -
|  1> %pal
|  2>  nprocs 32
|  3> end
|  4> !RI-MP2 aug-cc-pVTZ aug-cc-pVTZ/C TightSCF
|  5> %maxcore 4500
|  6> *xyzfile 0 1  06_12R.xyz
|  7>
|  8>
|  9>                          ****END OF INPUT****

CARTESIAN COORDINATES (ANGSTROEM)
---------------------------------
  C      0.766660    0.315990    1.002889
  H     -0.108635    0.645784    1.569388
  B      0.464475    0.048628   -0.506266
  C      1.227181   -1.037854    1.598968
  H      0.354412   -1.700550    1.628379
  H      1.532161   -0.896219    2.641694
  C      1.824879    1.442924    1.064465
  H      1.333523    2.372229    0.754846
  C     -3.730219   -2.507910    0.210752
  H     -4.598362   -2.162519    0.762016
  H     -3.654432   -3.571974    0.028761
  C     -2.798008   -1.662420   -0.226782
  C     -2.832140   -0.224652   -0.028172
  H     -1.948484   -2.052434   -0.777962
  H      2.140714    1.597729    2.102207
  C     -1.852686    0.589687   -0.437085
  O     -0.763509    0.146464   -1.109689
  O     -1.785740    1.923384   -0.295171
  C     -2.856696    2.571205    0.369199
  H     -3.795829    2.419193   -0.168830
  H     -2.956893    2.204075    1.394091
  H     -2.606636    3.628922    0.379794
  C      3.065928    1.225747    0.184327
  H      3.610243    2.171784    0.108859
  H      3.751090    0.537657    0.678151
  C      1.712576   -0.416770   -1.315192
  H      1.479654   -0.591945   -2.369393
  C      2.757777    0.721471   -1.234218
  H      2.380873    1.560969   -1.829735
  H      3.689664    0.405308   -1.715951
  C      2.173592   -1.758002   -0.694307
  H      3.105674   -2.085934   -1.167701
  H      1.424455   -2.516769   -0.949147
  C      2.356380   -1.743106    0.831663
  H      2.427376   -2.775711    1.186001
  H      3.312431   -1.285469    1.082981
  H     -3.692724    0.196087    0.472711

 Total Charge           Charge          ....    0
 Multiplicity           Mult            ....    1
 Number of Electrons    NEL             ....  120
 Basis Dimension        Dim             .... 1219

ORBITAL ENERGIES
----------------

  NO   OCC          E(Eh)            E(eV)
   0   2.0000     -20.602329      -560.6179
   1   2.0000     -20.585575      -560.1620
   2   2.0000     -11.360710      -309.1406
   3   2.0000     -11.293050      -307.2995
   4   2.0000     -11.232927      -305.6635
   5   2.0000     -11.217767      -305.2510
   6   2.0000     -11.217433      -305.2419
   7   2.0000     -11.217425      -305.2417
   8   2.0000     -11.216596      -305.2191
   9   2.0000     -11.215223      -305.1817
  10   2.0000     -11.212529      -305.1084
  11   2.0000     -11.212305      -305.1023
  12   2.0000     -11.211492      -305.0802
  13   2.0000     -11.194050      -304.6056
  14   2.0000     -11.190915      -304.5203
  15   2.0000      -7.601707      -206.8530
  16   2.0000      -1.463297       -39.8183
  17   2.0000      -1.380945       -37.5774
  18   2.0000      -1.113830       -30.3089
  19   2.0000      -1.082729       -29.4625
  20   2.0000      -1.040230       -28.3061
  21   2.0000      -1.026634       -27.9361
  22   2.0000      -1.001395       -27.2493
  23   2.0000      -0.963557       -26.2197
  24   2.0000      -0.931535       -25.3484
  25   2.0000      -0.912599       -24.8331
  26   2.0000      -0.823950       -22.4208
  27   2.0000      -0.791143       -21.5281
  28   2.0000      -0.787911       -21.4402
  29   2.0000      -0.781464       -21.2647
  30   2.0000      -0.740387       -20.1470
  31   2.0000      -0.724705       -19.7202
  32   2.0000      -0.698475       -19.0065
  33   2.0000      -0.683211       -18.5911
  34   2.0000      -0.665781       -18.1168
  35   2.0000      -0.641359       -17.4523
  36   2.0000      -0.627360       -17.0713
  37   2.0000      -0.612958       -16.6794
  38   2.0000      -0.595914       -16.2156
  39   2.0000      -0.587779       -15.9943
  40   2.0000      -0.580475       -15.7955
  41   2.0000      -0.575599       -15.6628
  42   2.0000      -0.573828       -15.6147
  43   2.0000      -0.560211       -15.2441
  44   2.0000      -0.542023       -14.7492
  45   2.0000      -0.537760       -14.6332
  46   2.0000      -0.518535       -14.1101
  47   2.0000      -0.509497       -13.8641
  48   2.0000      -0.500355       -13.6154
  49   2.0000      -0.495788       -13.4911
  50   2.0000      -0.494586       -13.4584
  51   2.0000      -0.475914       -12.9503
  52   2.0000      -0.471429       -12.8282
  53   2.0000      -0.465272       -12.6607
  54   2.0000      -0.456640       -12.4258
  55   2.0000      -0.427682       -11.6378
  56   2.0000      -0.419050       -11.4029
  57   2.0000      -0.416262       -11.3271
  58   2.0000      -0.382999       -10.4219
  59   2.0000      -0.297427        -8.0934
  60   0.0000       0.023648         0.6435
  61   0.0000       0.029000         0.7891
  62   0.0000       0.030665         0.8344
  63   0.0000       0.035130         0.9559
  64   0.0000       0.040516         1.1025

MULLIKEN ATOMIC CHARGES
-----------------------
   0 C :    0.507682
   1 H :    0.625426
   2 B :    0.572973
   3 C :   -0.892522
   4 H :    0.161561
   5 H :    0.232735
   6 C :   -0.970565
   7 H :    0.077307
   8 C :   -1.576186
   9 H :    0.253716
  10 H :    0.391733
  11 C :    0.306148
  12 C :   -0.013031
  13 H :    0.512763
  14 H :    0.213854
  15 C :    0.812952
  16 O :   -0.645028
  17 O :   -0.563342
  18 C :   -0.943087
  19 H :    0.381280
  20 H :    0.409312
  21 H :    0.295072
  22 C :   -0.397629
  23 H :    0.363534
  24 H :    0.140280
  25 C :    0.326505
  26 H :    0.342464
  27 C :   -0.839458
  28 H :    0.014700
  29 H :    0.286396
  30 C :   -0.830373
  31 H :    0.234520
  32 H :    0.062621
  33 C :   -0.424563
  34 H :    0.386685
  35 H :    0.146499
  36 H :    0.037065
Sum of atomic charges:    0.0000000

LOEWDIN ATOMIC CHARGES
----------------------
   0 C :    0.134212
   1 H :   -0.146205
   2 B :   -0.679030
   3 C :    0.330705
   4 H :   -0.131704
   5 H :   -0.129589
   6 C :    0.329712
   7 H :   -0.132832
   8 C :    0.514396
   9 H :   -0.226739
  10 H :   -0.234603
  11 C :    0.132846
  12 C :    0.177200
  13 H :   -0.196807
  14 H :   -0.130485
  15 C :   -0.653353
  16 O :    0.680265
  17 O :    0.598339
  18 C :    0.353437
  19 H :   -0.169552
  20 H :   -0.169250
  21 H :   -0.175313
  22 C :    0.322916
  23 H :   -0.135249
  24 H :   -0.178996
  25 C :    0.136940
  26 H :   -0.132774
  27 C :    0.326430
  28 H :   -0.132280
  29 H :   -0.131796
  30 C :    0.325663
  31 H :   -0.131286
  32 H :   -0.133442
  33 C :    0.323596
  34 H :   -0.134727
  35 H :   -0.178746
  36 H :   -0.221900

  Mayer bond orders larger than 0.100000
B(  0-C ,  1-H ) :   0.7369 B(  0-C ,  2-B ) :   1.2331 B(  0-C ,  3-C ) :   0.7376
B(  0-C ,  6-C ) :   0.6937 B(  1-H ,  2-B ) :  -0.1865 B(  1-H ,  3-C ) :  -0.2277
B(  1-H ,  6-C ) :  -0.2599 B(  2-B ,  3-C ) :   0.2334 B(  2-B ,  6-C ) :   0.1667
B(  2-B , 11-C ) :  -0.1480 B(  2-B , 12-C ) :   0.1021 B(  2-B , 15-C ) :   0.2172
B(  2-B , 16-O ) :  -0.5725 B(  2-B , 25-C ) :   1.2350 B(  2-B , 28-H ) :  -0.1137
B(  3-C ,  4-H ) :   1.0950 B(  3-C ,  5-H ) :   1.0305 B(  3-C , 30-C ) :   0.1302
B(  3-C , 33-C ) :   0.8978 B(  6-C ,  7-H ) :   1.1810 B(  6-C , 14-H ) :   1.0626
B(  6-C , 22-C ) :   0.8903 B(  6-C , 27-C ) :   0.1216 B(  8-C ,  9-H ) :   1.1888
B(  8-C , 10-H ) :   0.8309 B(  8-C , 11-C ) :   0.8483 B(  8-C , 13-H ) :  -0.1479
B( 11-C , 12-C ) :   0.4005 B( 11-C , 13-H ) :   0.8799 B( 11-C , 15-C ) :   0.1477
B( 11-C , 36-H ) :  -0.1073 B( 12-C , 15-C ) :   1.3766 B( 12-C , 16-O ) :  -0.3746
B( 12-C , 17-O ) :  -0.3558 B( 12-C , 18-C ) :  -0.1077 B( 12-C , 36-H ) :   1.4910
B( 15-C , 16-O ) :   0.6892 B( 15-C , 17-O ) :   0.5430 B( 16-O , 17-O ) :  -0.3696
B( 16-O , 25-C ) :  -0.2632 B( 17-O , 18-C ) :   1.0415 B( 18-C , 19-H ) :   0.8762
B( 18-C , 20-H ) :   0.8339 B( 18-C , 21-H ) :   1.0108 B( 22-C , 23-H ) :   0.8934
B( 22-C , 24-H ) :   1.0924 B( 22-C , 27-C ) :   0.9027 B( 24-H , 27-C ) :   0.1085
B( 25-C , 26-H ) :   0.8200 B( 25-C , 27-C ) :   0.7838 B( 25-C , 30-C ) :   0.8166
B( 26-H , 27-C ) :  -0.1530 B( 26-H , 30-C ) :  -0.1309 B( 27-C , 28-H ) :   1.2543
B( 27-C , 29-H ) :   0.9441 B( 30-C , 31-H ) :   1.0034 B( 30-C , 32-H ) :   1.1650
B( 30-C , 33-C ) :   0.9300 B( 33-C , 34-H ) :   0.8531 B( 33-C , 35-H ) :   1.1088

MP2 TOTAL ENERGY:     -681.959295158 Eh
FINAL SINGLE POINT ENERGY      -681.959295158371

DIPOLE MOMENT
-------------
                                X             Y             Z
Electronic contribution:     -7.01562       2.52073      -5.80040
Nuclear contribution   :      6.92718      -1.95181       6.34476
                        -----------------------------------------
Total Dipole Moment    :     -0.08844       0.56893       0.54436
                        -----------------------------------------
Magnitude (a.u.)       :      0.79235
Magnitude (Debye)      :      2.01401

Rotational constants in cm-1:     0.025737     0.012643     0.010312
Rotational constants in MHz :   771.586238   379.039077   309.154061

                             ****ORCA TERMINATED NORMALLY****
TOTAL RUN TIME: 0 days 0 hours 41 minutes 10 seconds 906 msec
