                         Program Version 4.2.1 -  RELEASE  -
|  1> %pal
|  2>  nprocs 32
|  3> end
|  4> !RI-MP2 aug-cc-pVTZ aug-cc-pVTZ/C TightSCF
|  5> %maxcore 4500
|  6> *xyzfile 1 1  05_20P1.xyz
|  7>
|  8>
|  9>                          ****END OF INPUT****

CARTESIAN COORDINATES (ANGSTROEM)
---------------------------------
  C      2.966004   -0.002683   -0.000106
  C      2.278034   -1.216829    0.000048
  C      0.902229   -1.221523    0.000092
  C      0.210411    0.007343   -0.000021
  C      0.912961    1.228066   -0.000174
  C      2.290149    1.216120   -0.000217
  H      4.049476   -0.007749   -0.000139
  H      2.825938   -2.149735    0.000133
  H      0.348640   -2.152062    0.000212
  H      0.373494    2.167662   -0.000260
  H      2.844736    2.144937   -0.000336
  C     -1.192974    0.030027    0.000017
  C     -2.275408    1.056718   -0.000031
  C     -3.193904   -0.179158    0.000200
  H     -2.309421    1.682569   -0.891901
  H     -2.309302    1.682915    0.891597
  H     -3.763367   -0.379873    0.902827
  O     -1.960201   -1.014636    0.000158
  H     -3.763598   -0.380069   -0.902237

 Total Charge           Charge          ....    1
 Multiplicity           Mult            ....    1
 Number of Electrons    NEL             ....   70
 Basis Dimension        Dim             ....  667

ORBITAL ENERGIES
----------------

  NO   OCC          E(Eh)            E(eV)
   0   2.0000     -20.813250      -566.3573
   1   2.0000     -11.558414      -314.5204
   2   2.0000     -11.482912      -312.4659
   3   2.0000     -11.436008      -311.1896
   4   2.0000     -11.424520      -310.8770
   5   2.0000     -11.419595      -310.7430
   6   2.0000     -11.416219      -310.6511
   7   2.0000     -11.415498      -310.6315
   8   2.0000     -11.390371      -309.9477
   9   2.0000     -11.389523      -309.9247
  10   2.0000      -1.668614       -45.4053
  11   2.0000      -1.337115       -36.3847
  12   2.0000      -1.242609       -33.8131
  13   2.0000      -1.226252       -33.3680
  14   2.0000      -1.189751       -32.3748
  15   2.0000      -1.117536       -30.4097
  16   2.0000      -1.021953       -27.8088
  17   2.0000      -0.997977       -27.1563
  18   2.0000      -0.937242       -25.5036
  19   2.0000      -0.909125       -24.7385
  20   2.0000      -0.884011       -24.0552
  21   2.0000      -0.860713       -23.4212
  22   2.0000      -0.840746       -22.8779
  23   2.0000      -0.789713       -21.4892
  24   2.0000      -0.772259       -21.0142
  25   2.0000      -0.760254       -20.6876
  26   2.0000      -0.739938       -20.1347
  27   2.0000      -0.721611       -19.6360
  28   2.0000      -0.708378       -19.2759
  29   2.0000      -0.697517       -18.9804
  30   2.0000      -0.670414       -18.2429
  31   2.0000      -0.664915       -18.0933
  32   2.0000      -0.657705       -17.8971
  33   2.0000      -0.518628       -14.1126
  34   2.0000      -0.504730       -13.7344
  35   0.0000      -0.136101        -3.7035
  36   0.0000      -0.078012        -2.1228
  37   0.0000      -0.061005        -1.6600
  38   0.0000      -0.059508        -1.6193
  39   0.0000      -0.059209        -1.6112

MULLIKEN ATOMIC CHARGES
-----------------------
   0 C :    0.095532
   1 C :   -0.676394
   2 C :   -0.925986
   3 C :    2.412316
   4 C :   -1.080679
   5 C :   -0.770475
   6 H :    0.348462
   7 H :    0.651231
   8 H :   -0.136342
   9 H :   -0.174767
  10 H :    0.592498
  11 C :    0.925513
  12 C :   -0.604545
  13 C :   -0.460709
  14 H :    0.367975
  15 H :    0.368016
  16 H :    0.381736
  17 O :   -0.695126
  18 H :    0.381743
Sum of atomic charges:    1.0000000

LOEWDIN ATOMIC CHARGES
----------------------
   0 C :    0.269305
   1 C :    0.259728
   2 C :    0.258869
   3 C :   -0.090212
   4 C :    0.247023
   5 C :    0.257976
   6 H :   -0.146037
   7 H :   -0.163405
   8 H :   -0.152091
   9 H :   -0.151020
  10 H :   -0.164571
  11 C :   -0.273273
  12 C :    0.407793
  13 C :    0.256103
  14 H :   -0.117566
  15 H :   -0.117562
  16 H :   -0.126055
  17 O :    0.671048
  18 H :   -0.126053

  Mayer bond orders larger than 0.100000
B(  0-C ,  1-C ) :   1.0721 B(  0-C ,  2-C ) :  -0.3307 B(  0-C ,  4-C ) :  -0.3728
B(  0-C ,  5-C ) :   1.0812 B(  0-C ,  6-H ) :   0.9700 B(  0-C ,  7-H ) :   0.1128
B(  0-C ,  8-H ) :  -0.1133 B(  0-C ,  9-H ) :  -0.1097 B(  0-C , 10-H ) :   0.1018
B(  0-C , 11-C ) :   0.2317 B(  1-C ,  2-C ) :   1.3462 B(  1-C ,  3-C ) :   0.1182
B(  1-C ,  5-C ) :   0.2435 B(  1-C ,  6-H ) :  -0.1308 B(  1-C ,  7-H ) :   0.4362
B(  1-C ,  8-H ) :  -0.1043 B(  1-C , 11-C ) :   0.1549 B(  2-C ,  4-C ) :  -0.6220
B(  2-C ,  5-C ) :   0.1053 B(  2-C ,  6-H ) :   0.2344 B(  2-C ,  7-H ) :  -0.1608
B(  2-C ,  8-H ) :   2.0965 B(  2-C ,  9-H ) :   0.2918 B(  2-C , 10-H ) :  -0.1045
B(  2-C , 11-C ) :   0.3595 B(  3-C ,  4-C ) :  -0.5414 B(  3-C ,  6-H ) :   0.1198
B(  3-C ,  7-H ) :  -0.1578 B(  3-C ,  8-H ) :  -0.4113 B(  3-C ,  9-H ) :  -0.4766
B(  3-C , 11-C ) :   0.5722 B(  3-C , 12-C ) :  -0.2108 B(  3-C , 13-C ) :   0.1069
B(  3-C , 17-O ) :  -0.2065 B(  4-C ,  5-C ) :   1.4216 B(  4-C ,  6-H ) :   0.1317
B(  4-C ,  7-H ) :  -0.1105 B(  4-C ,  8-H ) :   0.3536 B(  4-C ,  9-H ) :   2.3478
B(  4-C , 10-H ) :  -0.1384 B(  4-C , 11-C ) :   0.6006 B(  5-C ,  6-H ) :  -0.1698
B(  5-C ,  9-H ) :  -0.1152 B(  5-C , 10-H ) :   0.5775 B(  5-C , 11-C ) :   0.1187
B(  6-H ,  8-H ) :   0.1070 B(  6-H ,  9-H ) :   0.1055 B(  6-H , 11-C ) :  -0.3758
B(  7-H ,  9-H ) :  -0.1110 B(  7-H , 11-C ) :   0.4844 B(  8-H ,  9-H ) :   0.3275
B(  8-H , 11-C ) :  -0.5105 B(  9-H , 11-C ) :  -0.4733 B( 10-H , 11-C ) :   0.2976
B( 11-C , 12-C ) :   0.8316 B( 11-C , 13-C ) :  -0.2769 B( 11-C , 17-O ) :   0.9031
B( 12-C , 13-C ) :   1.2118 B( 12-C , 14-H ) :   0.8795 B( 12-C , 15-H ) :   0.8795
B( 13-C , 16-H ) :   0.8668 B( 13-C , 17-O ) :   0.7426 B( 13-C , 18-H ) :   0.8668

MP2 TOTAL ENERGY:     -422.457875346 Eh
FINAL SINGLE POINT ENERGY      -422.457875346150

DIPOLE MOMENT
-------------
                                X             Y             Z
Electronic contribution:      0.65289      -1.86055       0.00009
Nuclear contribution   :     -1.73656       2.59597      -0.00010
                        -----------------------------------------
Total Dipole Moment    :     -1.08367       0.73542      -0.00001
                        -----------------------------------------
Magnitude (a.u.)       :      1.30965
Magnitude (Debye)      :      3.32886

Rotational constants in cm-1:     0.129965     0.028564     0.023630
Rotational constants in MHz :  3896.247811   856.332887   708.423879

                             ****ORCA TERMINATED NORMALLY****
TOTAL RUN TIME: 0 days 0 hours 4 minutes 55 seconds 311 msec
