                         Program Version 4.2.1 -  RELEASE  -
|  1> %pal
|  2>  nprocs 32
|  3> end
|  4> !RI-MP2 aug-cc-pVTZ aug-cc-pVTZ/C TightSCF
|  5> %maxcore 4500
|  6> *xyzfile -1 1  08_4TS.xyz
|  7>
|  8>
|  9>                          ****END OF INPUT****

CARTESIAN COORDINATES (ANGSTROEM)
---------------------------------
  C     -1.615799    0.990391    0.010902
  S     -1.344081   -0.508329   -0.896821
  S     -3.890726    0.403885    0.830837
  H     -2.083478    1.816245   -0.483423
  H     -1.346704    1.053036    1.046968
  C     -2.322625   -1.700105    0.071524
  C     -3.776943   -1.272675    0.145543
  H     -2.187491   -2.659920   -0.438626
  H     -1.895977   -1.776225    1.073143
  H     -4.219903   -1.315557   -0.852682
  H     -4.321644   -1.972236    0.787404
  S      0.501740    2.051390   -0.505523
  C      1.565020    0.983185    0.512142
  C      2.657625    0.289501   -0.304731
  H      0.949171    0.208885    0.986914
  H      2.038135    1.553967    1.309772
  C      3.597487   -0.525319    0.593621
  O      4.124346   -0.091635    1.584269
  O      3.798052   -1.770034    0.155793
  H      3.247181   -1.809868   -0.668770
  N      2.138302   -0.588000   -1.362132
  H      3.282925    1.062153   -0.759822
  H      1.158697   -0.796645   -1.170456
  H      2.132261   -0.095504   -2.245889

 Total Charge           Charge          ....   -1
 Multiplicity           Mult            ....    1
 Number of Electrons    NEL             ....  120
 Basis Dimension        Dim             ....  840

ORBITAL ENERGIES
----------------

  NO   OCC          E(Eh)            E(eV)
   0   2.0000     -91.853770     -2499.4682
   1   2.0000     -91.763688     -2497.0169
   2   2.0000     -91.752875     -2496.7227
   3   2.0000     -20.490037      -557.5623
   4   2.0000     -20.430412      -555.9398
   5   2.0000     -15.457704      -420.6255
   6   2.0000     -11.265868      -306.5599
   7   2.0000     -11.210775      -305.0607
   8   2.0000     -11.171387      -303.9889
   9   2.0000     -11.153309      -303.4970
  10   2.0000     -11.132194      -302.9224
  11   2.0000     -11.127888      -302.8052
  12   2.0000      -8.854070      -240.9315
  13   2.0000      -8.764642      -238.4980
  14   2.0000      -8.753947      -238.2070
  15   2.0000      -6.535352      -177.8360
  16   2.0000      -6.534380      -177.8095
  17   2.0000      -6.533477      -177.7850
  18   2.0000      -6.445889      -175.4016
  19   2.0000      -6.444664      -175.3682
  20   2.0000      -6.444188      -175.3553
  21   2.0000      -6.435224      -175.1113
  22   2.0000      -6.433950      -175.0767
  23   2.0000      -6.433469      -175.0636
  24   2.0000      -1.348473       -36.6938
  25   2.0000      -1.251017       -34.0419
  26   2.0000      -1.103371       -30.0242
  27   2.0000      -0.988118       -26.8881
  28   2.0000      -0.919356       -25.0169
  29   2.0000      -0.889145       -24.1949
  30   2.0000      -0.815939       -22.2028
  31   2.0000      -0.802218       -21.8295
  32   2.0000      -0.703385       -19.1401
  33   2.0000      -0.694125       -18.8881
  34   2.0000      -0.663050       -18.0425
  35   2.0000      -0.648347       -17.6424
  36   2.0000      -0.623682       -16.9713
  37   2.0000      -0.574409       -15.6305
  38   2.0000      -0.554525       -15.0894
  39   2.0000      -0.531354       -14.4589
  40   2.0000      -0.513067       -13.9613
  41   2.0000      -0.512686       -13.9509
  42   2.0000      -0.502752       -13.6806
  43   2.0000      -0.484696       -13.1893
  44   2.0000      -0.463645       -12.6164
  45   2.0000      -0.450935       -12.2706
  46   2.0000      -0.421856       -11.4793
  47   2.0000      -0.415001       -11.2928
  48   2.0000      -0.410182       -11.1616
  49   2.0000      -0.367408        -9.9977
  50   2.0000      -0.357989        -9.7414
  51   2.0000      -0.345007        -9.3881
  52   2.0000      -0.326514        -8.8849
  53   2.0000      -0.313088        -8.5196
  54   2.0000      -0.301881        -8.2146
  55   2.0000      -0.264141        -7.1876
  56   2.0000      -0.225137        -6.1263
  57   2.0000      -0.184615        -5.0236
  58   2.0000      -0.174828        -4.7573
  59   2.0000      -0.143482        -3.9043
  60   0.0000       0.101202         2.7538
  61   0.0000       0.108161         2.9432
  62   0.0000       0.118239         3.2174
  63   0.0000       0.118548         3.2259
  64   0.0000       0.125753         3.4219

MULLIKEN ATOMIC CHARGES
-----------------------
   0 C :   -0.494062
   1 S :   -0.118109
   2 S :   -0.733509
   3 H :    0.422119
   4 H :    0.380160
   5 C :   -0.478130
   6 C :   -0.346144
   7 H :    0.300764
   8 H :    0.256500
   9 H :    0.216104
  10 H :    0.224623
  11 S :   -0.806074
  12 C :   -0.272086
  13 C :    0.194704
  14 H :    0.255017
  15 H :    0.266190
  16 C :    0.606315
  17 O :   -0.832466
  18 O :   -0.578585
  19 H :    0.277688
  20 N :   -0.556146
  21 H :    0.411212
  22 H :    0.373742
  23 H :    0.030172
Sum of atomic charges:   -1.0000000

LOEWDIN ATOMIC CHARGES
----------------------
   0 C :   -0.249293
   1 S :    1.182466
   2 S :    0.752993
   3 H :   -0.376859
   4 H :   -0.358754
   5 C :   -0.170685
   6 C :   -0.375237
   7 H :   -0.235502
   8 H :   -0.236286
   9 H :   -0.265711
  10 H :   -0.262419
  11 S :    0.831745
  12 C :   -0.253589
  13 C :   -0.220978
  14 H :   -0.250464
  15 H :   -0.247801
  16 C :   -0.807599
  17 O :    0.414024
  18 O :    0.823768
  19 H :   -0.630337
  20 N :    0.838190
  21 H :   -0.156575
  22 H :   -0.443247
  23 H :   -0.301849

  Mayer bond orders larger than 0.100000
B(  0-C ,  1-S ) :   1.0799 B(  0-C ,  2-S ) :   0.5008 B(  0-C ,  3-H ) :   0.8274
B(  0-C ,  4-H ) :   0.8599 B(  0-C , 11-S ) :   0.4553 B(  1-S ,  5-C ) :   0.8921
B(  2-S ,  6-C ) :   1.0002 B(  2-S , 11-S ) :   0.1218 B(  5-C ,  6-C ) :   0.9979
B(  5-C ,  7-H ) :   0.8902 B(  5-C ,  8-H ) :   0.9324 B(  6-C ,  9-H ) :   0.9802
B(  6-C , 10-H ) :   0.9627 B( 11-S , 12-C ) :   0.9345 B( 11-S , 13-C ) :   0.1296
B( 12-C , 13-C ) :   0.9818 B( 12-C , 14-H ) :   0.9408 B( 12-C , 15-H ) :   0.9445
B( 13-C , 16-C ) :   0.6735 B( 13-C , 18-O ) :   0.1186 B( 13-C , 20-N ) :   0.7113
B( 13-C , 21-H ) :   0.8654 B( 16-C , 17-O ) :   1.3178 B( 16-C , 18-O ) :   0.7901
B( 16-C , 20-N ) :   0.1378 B( 18-O , 19-H ) :   0.8012 B( 19-H , 20-N ) :   0.1760
B( 20-N , 22-H ) :   0.7439 B( 20-N , 23-H ) :   1.0926

MP2 TOTAL ENERGY:    -1633.471950714 Eh
FINAL SINGLE POINT ENERGY     -1633.471950714065

DIPOLE MOMENT
-------------
                                X             Y             Z
Electronic contribution:      3.70088       3.07126      -0.08615
Nuclear contribution   :     -2.92594      -4.76366      -1.36100
                        -----------------------------------------
Total Dipole Moment    :      0.77494      -1.69240      -1.44716
                        -----------------------------------------
Magnitude (a.u.)       :      2.35775
Magnitude (Debye)      :      5.99293

Rotational constants in cm-1:     0.036747     0.008942     0.008212
Rotational constants in MHz :  1101.651255   268.066763   246.193215

                             ****ORCA TERMINATED NORMALLY****
TOTAL RUN TIME: 0 days 0 hours 11 minutes 2 seconds 759 msec
