                         Program Version 4.2.1 -  RELEASE  -
|  1> %pal
|  2>  nprocs 32
|  3> end
|  4> !RI-MP2 aug-cc-pVTZ aug-cc-pVTZ/C TightSCF
|  5> %maxcore 4500
|  6> *xyzfile 1 1  10_14R.xyz
|  7>
|  8>
|  9>                          ****END OF INPUT****

CARTESIAN COORDINATES (ANGSTROEM)
---------------------------------
  C      2.153495   -1.018914    0.065333
  N      0.993643   -0.868047   -0.386478
  N     -0.039038   -0.866085   -0.999128
  C     -1.249938   -0.518937   -0.393989
  C     -1.373853   -0.202763    0.963940
  C     -2.350335   -0.514027   -1.251940
  C     -2.620544    0.115157    1.455558
  H     -0.507071   -0.204479    1.611814
  C     -3.594453   -0.185375   -0.745005
  H     -2.207761   -0.767972   -2.294489
  C     -3.725871    0.125833    0.602320
  H     -2.743905    0.359635    2.502457
  H     -4.459701   -0.174859   -1.394319
  H     -4.700955    0.379371    0.999800
  C      3.139179    0.119310    0.055648
  C      2.551351   -2.349966    0.632913
  H      1.757035   -3.087668    0.542766
  H      3.437940   -2.705153    0.103513
  H      2.818924   -2.229101    1.684548
  C      1.564018    2.078881    0.341410
  C      0.388945    2.495200   -0.107151
  H      1.816179    2.228961    1.389607
  H     -0.324842    2.984402    0.543615
  H      0.107657    2.390761   -1.150366
  C      2.628782    1.444659   -0.504784
  H      3.495607    0.237379    1.084415
  H      4.001164   -0.238130   -0.517412
  H      3.488949    2.117719   -0.561612
  H      2.273887    1.313716   -1.530610

 Total Charge           Charge          ....    1
 Multiplicity           Mult            ....    1
 Number of Electrons    NEL             ....  100
 Basis Dimension        Dim             ....  989

ORBITAL ENERGIES
----------------

  NO   OCC          E(Eh)            E(eV)
   0   2.0000     -15.861223      -431.6058
   1   2.0000     -15.857997      -431.5180
   2   2.0000     -11.513170      -313.2893
   3   2.0000     -11.423644      -310.8532
   4   2.0000     -11.402379      -310.2745
   5   2.0000     -11.399270      -310.1899
   6   2.0000     -11.393701      -310.0384
   7   2.0000     -11.392081      -309.9943
   8   2.0000     -11.384854      -309.7976
   9   2.0000     -11.373223      -309.4811
  10   2.0000     -11.369533      -309.3807
  11   2.0000     -11.368975      -309.3655
  12   2.0000     -11.355434      -308.9971
  13   2.0000     -11.343750      -308.6791
  14   2.0000      -1.612234       -43.8711
  15   2.0000      -1.375461       -37.4282
  16   2.0000      -1.301330       -35.4110
  17   2.0000      -1.226898       -33.3856
  18   2.0000      -1.192906       -32.4606
  19   2.0000      -1.169278       -31.8177
  20   2.0000      -1.143697       -31.1216
  21   2.0000      -1.135368       -30.8949
  22   2.0000      -1.036649       -28.2087
  23   2.0000      -1.020667       -27.7738
  24   2.0000      -0.982748       -26.7419
  25   2.0000      -0.907532       -24.6952
  26   2.0000      -0.891521       -24.2595
  27   2.0000      -0.859177       -23.3794
  28   2.0000      -0.848093       -23.0778
  29   2.0000      -0.827470       -22.5166
  30   2.0000      -0.822967       -22.3941
  31   2.0000      -0.783051       -21.3079
  32   2.0000      -0.755537       -20.5592
  33   2.0000      -0.753999       -20.5174
  34   2.0000      -0.751423       -20.4472
  35   2.0000      -0.737392       -20.0654
  36   2.0000      -0.733362       -19.9558
  37   2.0000      -0.729190       -19.8423
  38   2.0000      -0.721900       -19.6439
  39   2.0000      -0.682991       -18.5851
  40   2.0000      -0.673465       -18.3259
  41   2.0000      -0.661957       -18.0128
  42   2.0000      -0.646231       -17.5848
  43   2.0000      -0.642402       -17.4807
  44   2.0000      -0.632472       -17.2104
  45   2.0000      -0.611772       -16.6471
  46   2.0000      -0.572503       -15.5786
  47   2.0000      -0.495614       -13.4864
  48   2.0000      -0.484154       -13.1745
  49   2.0000      -0.477333       -12.9889
  50   0.0000      -0.112974        -3.0742
  51   0.0000      -0.069758        -1.8982
  52   0.0000      -0.057370        -1.5611
  53   0.0000      -0.054510        -1.4833
  54   0.0000      -0.050667        -1.3787

MULLIKEN ATOMIC CHARGES
-----------------------
   0 C :    0.535567
   1 N :    0.634480
   2 N :   -1.437731
   3 C :    1.589805
   4 C :   -0.322155
   5 C :   -1.127037
   6 C :   -1.004316
   7 H :    0.660380
   8 C :   -0.532671
   9 H :    0.734396
  10 C :   -0.317498
  11 H :    0.333557
  12 H :    0.315151
  13 H :    0.648051
  14 C :   -0.409146
  15 C :   -0.987888
  16 H :    0.305753
  17 H :    0.356314
  18 H :    0.317851
  19 C :    0.071968
  20 C :   -1.003022
  21 H :   -0.010616
  22 H :    0.605463
  23 H :    0.165851
  24 C :   -0.207753
  25 H :    0.256021
  26 H :    0.349164
  27 H :    0.341556
  28 H :    0.138503
Sum of atomic charges:    1.0000000

LOEWDIN ATOMIC CHARGES
----------------------
   0 C :   -0.146154
   1 N :    0.297096
   2 N :    0.364335
   3 C :   -0.286166
   4 C :    0.213799
   5 C :    0.229772
   6 C :    0.236887
   7 H :   -0.168012
   8 C :    0.240093
   9 H :   -0.158284
  10 C :    0.247404
  11 H :   -0.167012
  12 H :   -0.166798
  13 H :   -0.156478
  14 C :    0.321893
  15 C :    0.656180
  16 H :   -0.152325
  17 H :   -0.142396
  18 H :   -0.143423
  19 C :    0.184066
  20 C :    0.527021
  21 H :   -0.170727
  22 H :   -0.201776
  23 H :   -0.197875
  24 C :    0.267750
  25 H :   -0.126950
  26 H :   -0.123745
  27 H :   -0.131735
  28 H :   -0.146441

  Mayer bond orders larger than 0.100000
B(  0-C ,  1-N ) :   1.1702 B(  0-C ,  2-N ) :  -0.4880 B(  0-C ,  4-C ) :   0.1095
B(  0-C , 14-C ) :   0.6405 B(  0-C , 15-C ) :   0.6438 B(  1-N ,  3-C ) :   0.4005
B(  1-N ,  4-C ) :   0.2747 B(  1-N ,  5-C ) :   0.1338 B(  1-N ,  6-C ) :  -0.1122
B(  1-N ,  7-H ) :  -0.2721 B(  2-N ,  4-C ) :  -0.5358 B(  2-N ,  5-C ) :   0.1798
B(  2-N ,  6-C ) :   0.1350 B(  2-N ,  7-H ) :   0.1662 B(  3-C ,  4-C ) :   0.4839
B(  3-C ,  5-C ) :   0.2210 B(  3-C ,  6-C ) :  -0.2483 B(  3-C ,  7-H ) :   0.1601
B(  3-C ,  8-C ) :  -0.1905 B(  3-C ,  9-H ) :   0.1457 B(  3-C , 10-C ) :  -0.1107
B(  4-C ,  5-C ) :   0.4205 B(  4-C ,  6-C ) :   1.2597 B(  4-C ,  7-H ) :   0.5112
B(  4-C , 10-C ) :   0.1789 B(  5-C ,  8-C ) :   1.3179 B(  5-C ,  9-H ) :   0.1612
B(  5-C , 10-C ) :   0.3678 B(  6-C ,  7-H ) :  -0.1221 B(  6-C ,  8-C ) :  -0.1343
B(  6-C , 10-C ) :   1.2739 B(  6-C , 11-H ) :   1.0537 B(  8-C , 10-C ) :   1.0818
B(  8-C , 12-H ) :   1.0495 B( 10-C , 12-H ) :  -0.1097 B( 10-C , 13-H ) :   0.5069
B( 14-C , 24-C ) :   0.9629 B( 14-C , 25-H ) :   0.9660 B( 14-C , 26-H ) :   0.9105
B( 15-C , 16-H ) :   0.9746 B( 15-C , 17-H ) :   0.9273 B( 15-C , 18-H ) :   0.9500
B( 19-C , 20-C ) :   1.2357 B( 19-C , 21-H ) :   1.2967 B( 19-C , 24-C ) :   0.7417
B( 19-C , 28-H ) :   0.1075 B( 20-C , 22-H ) :   0.4646 B( 20-C , 23-H ) :   1.3112
B( 20-C , 24-C ) :   0.1102 B( 24-C , 27-H ) :   0.9536 B( 24-C , 28-H ) :   1.0148

MP2 TOTAL ENERGY:     -574.294809667 Eh
FINAL SINGLE POINT ENERGY      -574.294809666962

DIPOLE MOMENT
-------------
                                X             Y             Z
Electronic contribution:     -7.28446      -3.50895      -2.59944
Nuclear contribution   :      8.36541       2.62792       3.04442
                        -----------------------------------------
Total Dipole Moment    :      1.08095      -0.88103       0.44499
                        -----------------------------------------
Magnitude (a.u.)       :      1.46379
Magnitude (Debye)      :      3.72066

Rotational constants in cm-1:     0.039175     0.014767     0.012692
Rotational constants in MHz :  1174.437479   442.705285   380.503586

                             ****ORCA TERMINATED NORMALLY****
TOTAL RUN TIME: 0 days 0 hours 19 minutes 46 seconds 283 msec
