                         Program Version 4.2.1 -  RELEASE  -
|  1> %pal
|  2>  nprocs 32
|  3> end
|  4> !RI-MP2 aug-cc-pVTZ aug-cc-pVTZ/C TightSCF
|  5> %maxcore 4500
|  6> *xyzfile -1 1  07_4R2.xyz
|  7>
|  8>
|  9>                          ****END OF INPUT****

CARTESIAN COORDINATES (ANGSTROEM)
---------------------------------
  C     -1.186446   -0.780886    0.000026
  C     -0.133601    0.110327   -0.000005
  O     -0.187385    1.376818   -0.000042
  C      1.284413   -0.484208    0.000013
  H     -1.020451   -1.852210    0.000060
  H     -2.208040   -0.415206    0.000018
  H      1.823176   -0.119984    0.880759
  H      1.823174   -0.120040   -0.880757
  H      1.295027   -1.578508    0.000048

 Total Charge           Charge          ....   -1
 Multiplicity           Mult            ....    1
 Number of Electrons    NEL             ....   32
 Basis Dimension        Dim             ....  299

ORBITAL ENERGIES
----------------

  NO   OCC          E(Eh)            E(eV)
   0   2.0000     -20.268835      -551.5430
   1   2.0000     -11.082817      -301.5788
   2   2.0000     -11.041916      -300.4658
   3   2.0000     -10.977394      -298.7101
   4   2.0000      -1.097531       -29.8653
   5   2.0000      -0.814913       -22.1749
   6   2.0000      -0.725707       -19.7475
   7   2.0000      -0.502893       -13.6844
   8   2.0000      -0.411147       -11.1879
   9   2.0000      -0.404406       -11.0044
  10   2.0000      -0.396724       -10.7954
  11   2.0000      -0.340025        -9.2525
  12   2.0000      -0.303385        -8.2555
  13   2.0000      -0.271231        -7.3806
  14   2.0000      -0.172723        -4.7000
  15   2.0000      -0.081321        -2.2128
  16   0.0000       0.128434         3.4949
  17   0.0000       0.135708         3.6928
  18   0.0000       0.144086         3.9208
  19   0.0000       0.145529         3.9601
  20   0.0000       0.155132         4.2214

MULLIKEN ATOMIC CHARGES
-----------------------
   0 C :   -1.381560
   1 C :    0.735446
   2 O :   -1.046619
   3 C :   -0.703250
   4 H :    0.159200
   5 H :    0.466401
   6 H :    0.237262
   7 H :    0.237262
   8 H :    0.295857
Sum of atomic charges:   -1.0000000

LOEWDIN ATOMIC CHARGES
----------------------
   0 C :    0.355858
   1 C :   -0.804325
   2 O :    0.243849
   3 C :    0.472692
   4 H :   -0.328019
   5 H :   -0.310219
   6 H :   -0.205220
   7 H :   -0.205220
   8 H :   -0.219396

  Mayer bond orders larger than 0.100000
B(  0-C ,  1-C ) :   1.1955 B(  0-C ,  4-H ) :   1.1878 B(  0-C ,  5-H ) :   0.6889
B(  1-C ,  2-O ) :   1.1882 B(  1-C ,  3-C ) :   0.7867 B(  3-C ,  6-H ) :   0.9871
B(  3-C ,  7-H ) :   0.9871 B(  3-C ,  8-H ) :   0.9212

MP2 TOTAL ENERGY:     -192.194162886 Eh
FINAL SINGLE POINT ENERGY      -192.194162885934

DIPOLE MOMENT
-------------
                                X             Y             Z
Electronic contribution:     -0.79412       3.27421      -0.00010
Nuclear contribution   :      1.74433      -4.14601       0.00013
                        -----------------------------------------
Total Dipole Moment    :      0.95021      -0.87181       0.00003
                        -----------------------------------------
Magnitude (a.u.)       :      1.28955
Magnitude (Debye)      :      3.27778

Rotational constants in cm-1:     0.350780     0.315836     0.171484
Rotational constants in MHz : 10516.107784  9468.523507  5140.955587

                             ****ORCA TERMINATED NORMALLY****
TOTAL RUN TIME: 0 days 0 hours 0 minutes 25 seconds 515 msec
