                         Program Version 4.2.1 -  RELEASE  -
|  1> %pal
|  2>  nprocs 32
|  3> end
|  4> !RI-MP2 aug-cc-pVTZ aug-cc-pVTZ/C TightSCF
|  5> %maxcore 4500
|  6> *xyzfile 0 1  10_72P.xyz
|  7>
|  8>
|  9>                          ****END OF INPUT****

CARTESIAN COORDINATES (ANGSTROEM)
---------------------------------
  C     -3.061080   -1.319760   -0.635470
  C     -4.366533   -1.678086    0.074902
  C     -5.149506   -0.450467    0.522385
  C     -4.286503    0.503363    1.344282
  C     -3.007237    0.883901    0.605547
  C     -2.212322   -0.388174    0.238285
  H     -4.990263   -2.285525   -0.584126
  H     -4.135778   -2.280876    0.957927
  H     -2.491971   -2.236992   -0.811130
  H     -4.864146    1.400509    1.594431
  H     -4.037999    0.018579    2.295320
  H     -6.016192   -0.767957    1.112140
  O     -5.617940    0.186616   -0.677995
  H     -6.108625    0.982033   -0.453569
  O     -3.291686   -0.763309   -1.922681
  H     -4.100305   -0.236726   -1.880730
  C     -0.836425   -0.104865   -0.402248
  C     -2.122216    1.837864    1.354491
  H     -2.463718    2.276823    2.286607
  C      0.325537   -0.831817    0.251561
  C      0.381317   -0.907549    1.753534
  H     -0.431522   -1.514174    2.159586
  H      0.276555    0.084298    2.201663
  H      1.312407   -1.346433    2.106747
  C      1.344402   -1.220681   -0.516665
  C      1.895920    1.667624   -0.314715
  C      2.711174   -1.691340   -0.078316
  H      1.232411   -1.098152   -1.591618
  H      1.856478    1.557265    0.761337
  C      3.569233   -0.522044    0.460904
  H      2.599208   -2.371047    0.772524
  H      2.991713    0.003160    1.222747
  C     -0.927257    2.111235    0.843404
  H     -0.231085    2.790558    1.322253
  C      3.405146   -2.448753   -1.209861
  H      2.758958   -3.248021   -1.577181
  H      3.624140   -1.777560   -2.042572
  H      4.343136   -2.900084   -0.885413
  C      4.881095   -0.968410    1.087351
  H      4.662436   -1.774882    1.794135
  H      5.519971   -1.388670    0.308029
  C      5.609093    0.167884    1.794385
  H      4.998682    0.588672    2.598687
  H      6.544373   -0.180672    2.235980
  H      5.845393    0.969313    1.093319
  O      3.940852    0.409505   -0.579149
  C      3.185883    1.450767   -1.009511
  O      3.565423    2.081763   -1.956612
  C      0.777799    1.737093   -1.025868
  H      0.865378    1.781964   -2.107522
  C     -0.580696    1.471274   -0.471173
  H     -3.297347    1.368944   -0.335409
  H     -2.055948   -0.916896    1.181848
  H     -0.882666   -0.424902   -1.444073
  H     -1.317800    1.816493   -1.203670

 Total Charge           Charge          ....    0
 Multiplicity           Mult            ....    1
 Number of Electrons    NEL             ....  188
 Basis Dimension        Dim             .... 1840

ORBITAL ENERGIES
----------------

  NO   OCC          E(Eh)            E(eV)
   0   2.0000     -20.584846      -560.1421
   1   2.0000     -20.579545      -559.9979
   2   2.0000     -20.542226      -558.9824
   3   2.0000     -20.523399      -558.4701
   4   2.0000     -11.370076      -309.3955
   5   2.0000     -11.298332      -307.4433
   6   2.0000     -11.295410      -307.3637
   7   2.0000     -11.278804      -306.9118
   8   2.0000     -11.247548      -306.0613
   9   2.0000     -11.246427      -306.0308
  10   2.0000     -11.240519      -305.8701
  11   2.0000     -11.239411      -305.8399
  12   2.0000     -11.239226      -305.8349
  13   2.0000     -11.238221      -305.8075
  14   2.0000     -11.235534      -305.7344
  15   2.0000     -11.233253      -305.6723
  16   2.0000     -11.232927      -305.6635
  17   2.0000     -11.231077      -305.6132
  18   2.0000     -11.231025      -305.6117
  19   2.0000     -11.230498      -305.5974
  20   2.0000     -11.226334      -305.4841
  21   2.0000     -11.226212      -305.4808
  22   2.0000     -11.220115      -305.3149
  23   2.0000     -11.214402      -305.1594
  24   2.0000     -11.213317      -305.1299
  25   2.0000      -1.441258       -39.2186
  26   2.0000      -1.386373       -37.7251
  27   2.0000      -1.351237       -36.7690
  28   2.0000      -1.347109       -36.6567
  29   2.0000      -1.167404       -31.7667
  30   2.0000      -1.122338       -30.5404
  31   2.0000      -1.108968       -30.1766
  32   2.0000      -1.077013       -29.3070
  33   2.0000      -1.068275       -29.0692
  34   2.0000      -1.041069       -28.3289
  35   2.0000      -1.015912       -27.6444
  36   2.0000      -1.006746       -27.3950
  37   2.0000      -0.977205       -26.5911
  38   2.0000      -0.942852       -25.6563
  39   2.0000      -0.935213       -25.4484
  40   2.0000      -0.890822       -24.2405
  41   2.0000      -0.863320       -23.4921
  42   2.0000      -0.854824       -23.2609
  43   2.0000      -0.831824       -22.6351
  44   2.0000      -0.820125       -22.3167
  45   2.0000      -0.798458       -21.7271
  46   2.0000      -0.779474       -21.2106
  47   2.0000      -0.740060       -20.1380
  48   2.0000      -0.737498       -20.0683
  49   2.0000      -0.722301       -19.6548
  50   2.0000      -0.711152       -19.3514
  51   2.0000      -0.700411       -19.0592
  52   2.0000      -0.680776       -18.5248
  53   2.0000      -0.667569       -18.1655
  54   2.0000      -0.659518       -17.9464
  55   2.0000      -0.651674       -17.7329
  56   2.0000      -0.649198       -17.6656
  57   2.0000      -0.643507       -17.5107
  58   2.0000      -0.621995       -16.9253
  59   2.0000      -0.617998       -16.8166
  60   2.0000      -0.610501       -16.6126
  61   2.0000      -0.609020       -16.5723
  62   2.0000      -0.603014       -16.4088
  63   2.0000      -0.591056       -16.0834
  64   2.0000      -0.584442       -15.9035
  65   2.0000      -0.582524       -15.8513
  66   2.0000      -0.570277       -15.5180
  67   2.0000      -0.565812       -15.3965
  68   2.0000      -0.559008       -15.2114
  69   2.0000      -0.552320       -15.0294
  70   2.0000      -0.541042       -14.7225
  71   2.0000      -0.540353       -14.7037
  72   2.0000      -0.534409       -14.5420
  73   2.0000      -0.528446       -14.3797
  74   2.0000      -0.524724       -14.2785
  75   2.0000      -0.519821       -14.1450
  76   2.0000      -0.511645       -13.9226
  77   2.0000      -0.505805       -13.7637
  78   2.0000      -0.503293       -13.6953
  79   2.0000      -0.496043       -13.4980
  80   2.0000      -0.492569       -13.4035
  81   2.0000      -0.491449       -13.3730
  82   2.0000      -0.485601       -13.2139
  83   2.0000      -0.476609       -12.9692
  84   2.0000      -0.467824       -12.7301
  85   2.0000      -0.459830       -12.5126
  86   2.0000      -0.449095       -12.2205
  87   2.0000      -0.439730       -11.9657
  88   2.0000      -0.432811       -11.7774
  89   2.0000      -0.426367       -11.6020
  90   2.0000      -0.418554       -11.3894
  91   2.0000      -0.379009       -10.3134
  92   2.0000      -0.352486        -9.5916
  93   2.0000      -0.325906        -8.8684
  94   0.0000       0.015176         0.4130
  95   0.0000       0.021909         0.5962
  96   0.0000       0.026125         0.7109
  97   0.0000       0.029549         0.8041
  98   0.0000       0.034092         0.9277

MULLIKEN ATOMIC CHARGES
-----------------------
   0 C :    0.325707
   1 C :   -1.063760
   2 C :    0.278401
   3 C :   -1.106063
   4 C :    1.195876
   5 C :    0.442695
   6 H :    0.295839
   7 H :    0.100424
   8 H :    0.551164
   9 H :    0.365074
  10 H :    0.102222
  11 H :    0.403035
  12 O :   -0.696282
  13 H :    0.077829
  14 O :   -1.106603
  15 H :    0.256687
  16 C :    0.082236
  17 C :   -1.677881
  18 H :    0.293069
  19 C :    0.815107
  20 C :   -1.131429
  21 H :    0.393510
  22 H :    0.243342
  23 H :    0.098760
  24 C :   -0.752912
  25 C :    0.000216
  26 C :    0.370588
  27 H :   -0.126342
  28 H :    0.325165
  29 C :    1.523025
  30 H :    0.165138
  31 H :    0.469785
  32 C :   -0.514752
  33 H :    0.276943
  34 C :   -1.286791
  35 H :    0.252397
  36 H :    0.300723
  37 H :    0.223410
  38 C :   -0.956125
  39 H :    0.195819
  40 H :    0.245992
  41 C :   -1.109951
  42 H :    0.231429
  43 H :    0.306142
  44 H :    0.297635
  45 O :   -0.910760
  46 C :    0.831159
  47 O :   -1.214198
  48 C :   -0.592351
  49 H :   -0.107072
  50 C :    0.954756
  51 H :    0.345117
  52 H :    0.760862
  53 H :   -0.470555
  54 H :    0.426549
Sum of atomic charges:    0.0000000

LOEWDIN ATOMIC CHARGES
----------------------
   0 C :   -0.203562
   1 C :    0.326675
   2 C :   -0.201504
   3 C :    0.317684
   4 C :   -0.009644
   5 C :    0.055687
   6 H :   -0.132090
   7 H :   -0.132005
   8 H :   -0.123495
   9 H :   -0.131108
  10 H :   -0.126320
  11 H :   -0.124028
  12 O :    0.873440
  13 H :   -0.455722
  14 O :    0.873988
  15 H :   -0.597707
  16 C :    0.079054
  17 C :    0.270772
  18 H :   -0.161690
  19 C :   -0.046782
  20 C :    0.605301
  21 H :   -0.163830
  22 H :   -0.160505
  23 H :   -0.185064
  24 C :    0.252682
  25 C :    0.199875
  26 C :   -0.009823
  27 H :   -0.160943
  28 H :   -0.199499
  29 C :   -0.214283
  30 H :   -0.150634
  31 H :   -0.187379
  32 C :    0.250155
  33 H :   -0.165307
  34 C :    0.600464
  35 H :   -0.156322
  36 H :   -0.156080
  37 H :   -0.168698
  38 C :    0.274409
  39 H :   -0.135674
  40 H :   -0.150173
  41 C :    0.593576
  42 H :   -0.165570
  43 H :   -0.167457
  44 H :   -0.170210
  45 O :    0.616104
  46 C :   -0.817671
  47 O :    0.443253
  48 C :    0.242449
  49 H :   -0.145624
  50 C :    0.015251
  51 H :   -0.139363
  52 H :   -0.173707
  53 H :   -0.159364
  54 H :   -0.141982

  Mayer bond orders larger than 0.100000
B(  0-C ,  1-C ) :   1.1565 B(  0-C ,  2-C ) :   0.1562 B(  0-C ,  4-C ) :   0.2950
B(  0-C ,  5-C ) :   0.8186 B(  0-C ,  8-H ) :   0.8389 B(  0-C , 12-O ) :  -0.1017
B(  0-C , 16-C ) :  -0.2911 B(  0-C , 17-C ) :   0.1113 B(  0-C , 52-H ) :  -0.1414
B(  1-C ,  2-C ) :   0.8588 B(  1-C ,  3-C ) :   0.1918 B(  1-C ,  5-C ) :  -0.2839
B(  1-C ,  6-H ) :   0.9459 B(  1-C ,  7-H ) :   1.2703 B(  1-C ,  8-H ) :  -0.1493
B(  1-C , 12-O ) :   0.1528 B(  1-C , 14-O ) :   0.2537 B(  2-C ,  3-C ) :   0.9952
B(  2-C , 11-H ) :   0.9184 B(  2-C , 12-O ) :   0.5134 B(  3-C ,  4-C ) :   0.1911
B(  3-C ,  9-H ) :   0.9061 B(  3-C , 10-H ) :   1.4094 B(  4-C ,  5-C ) :   0.6178
B(  4-C , 10-H ) :  -0.2198 B(  4-C , 12-O ) :  -0.1687 B(  4-C , 14-O ) :   0.1745
B(  4-C , 17-C ) :  -0.4224 B(  4-C , 32-C ) :   0.2466 B(  4-C , 51-H ) :   1.1370
B(  5-C ,  7-H ) :  -0.1406 B(  5-C , 12-O ) :   0.2342 B(  5-C , 14-O ) :   0.1842
B(  5-C , 16-C ) :   0.9937 B(  5-C , 17-C ) :   0.4616 B(  5-C , 19-C ) :   0.2625
B(  5-C , 20-C ) :  -0.2518 B(  5-C , 24-C ) :  -0.2626 B(  5-C , 32-C ) :  -0.1310
B(  5-C , 50-C ) :  -0.1071 B(  5-C , 51-H ) :  -0.2052 B(  5-C , 52-H ) :   0.3467
B(  5-C , 53-H ) :  -0.1562 B(  8-H , 14-O ) :  -0.2117 B( 12-O , 13-H ) :   1.0405
B( 14-O , 15-H ) :   0.8966 B( 16-C , 17-C ) :   0.1187 B( 16-C , 19-C ) :   1.3743
B( 16-C , 20-C ) :   0.1093 B( 16-C , 24-C ) :  -0.3166 B( 16-C , 27-H ) :  -0.3453
B( 16-C , 29-C ) :   0.1214 B( 16-C , 32-C ) :   0.3656 B( 16-C , 48-C ) :   0.3611
B( 16-C , 50-C ) :   1.1457 B( 16-C , 53-H ) :   1.4724 B( 16-C , 54-H ) :  -0.2146
B( 17-C , 18-H ) :   0.9441 B( 17-C , 19-C ) :   0.1136 B( 17-C , 24-C ) :   0.1236
B( 17-C , 32-C ) :   1.2227 B( 17-C , 33-H ) :  -0.1848 B( 17-C , 50-C ) :   0.1917
B( 17-C , 51-H ) :  -0.2745 B( 17-C , 52-H ) :  -0.1821 B( 17-C , 54-H ) :  -0.2481
B( 18-H , 27-H ) :   0.1054 B( 19-C , 20-C ) :   0.8449 B( 19-C , 21-H ) :  -0.3087
B( 19-C , 22-H ) :  -0.1011 B( 19-C , 24-C ) :   0.7155 B( 19-C , 25-C ) :   0.1408
B( 19-C , 26-C ) :   0.3771 B( 19-C , 27-H ) :  -0.1944 B( 19-C , 28-H ) :  -0.1209
B( 19-C , 29-C ) :  -0.1517 B( 19-C , 32-C ) :   0.1438 B( 19-C , 50-C ) :  -0.2121
B( 19-C , 52-H ) :   0.1313 B( 19-C , 53-H ) :  -0.1562 B( 20-C , 21-H ) :   0.8780
B( 20-C , 22-H ) :   1.2632 B( 20-C , 23-H ) :   1.1841 B( 20-C , 24-C ) :  -0.7041
B( 20-C , 32-C ) :  -0.1127 B( 21-H , 23-H ) :  -0.1056 B( 23-H , 24-C ) :   0.1232
B( 24-C , 25-C ) :  -0.1656 B( 24-C , 26-C ) :   0.6589 B( 24-C , 27-H ) :   1.7835
B( 24-C , 28-H ) :   0.1082 B( 24-C , 31-H ) :   0.1342 B( 24-C , 34-C ) :  -0.3017
B( 24-C , 35-H ) :  -0.1182 B( 24-C , 48-C ) :   0.1509 B( 24-C , 50-C ) :   0.2295
B( 24-C , 53-H ) :   0.2375 B( 25-C , 26-C ) :   0.1433 B( 25-C , 28-H ) :   1.0164
B( 25-C , 32-C ) :  -0.2120 B( 25-C , 46-C ) :   0.4895 B( 25-C , 48-C ) :   1.2444
B( 25-C , 50-C ) :   0.3343 B( 26-C , 27-H ) :  -0.1698 B( 26-C , 28-H ) :  -0.1074
B( 26-C , 29-C ) :   0.9745 B( 26-C , 30-H ) :   0.9726 B( 26-C , 34-C ) :   0.4783
B( 26-C , 36-H ) :  -0.1038 B( 26-C , 38-C ) :   0.1444 B( 26-C , 45-O ) :   0.3246
B( 28-H , 29-C ) :   0.1365 B( 28-H , 32-C ) :  -0.1346 B( 28-H , 45-O ) :  -0.1052
B( 28-H , 46-C ) :  -0.1722 B( 28-H , 48-C ) :  -0.1463 B( 29-C , 31-H ) :   0.7392
B( 29-C , 34-C ) :   0.1088 B( 29-C , 38-C ) :   0.4346 B( 29-C , 40-H ) :  -0.1505
B( 29-C , 45-O ) :  -0.4941 B( 29-C , 47-O ) :   0.1301 B( 32-C , 33-H ) :   1.0849
B( 32-C , 48-C ) :  -0.3077 B( 32-C , 50-C ) :   1.3124 B( 32-C , 52-H ) :   0.1022
B( 32-C , 54-H ) :  -0.1283 B( 34-C , 35-H ) :   1.0833 B( 34-C , 36-H ) :   1.0485
B( 34-C , 37-H ) :   1.1099 B( 38-C , 39-H ) :   1.1169 B( 38-C , 40-H ) :   1.1195
B( 38-C , 41-C ) :   0.7737 B( 38-C , 45-O ) :   0.1173 B( 41-C , 42-H ) :   1.0250
B( 41-C , 43-H ) :   0.9850 B( 41-C , 44-H ) :   0.9784 B( 45-O , 46-C ) :   1.3697
B( 46-C , 47-O ) :   0.3590 B( 46-C , 48-C ) :  -0.1607 B( 47-O , 48-C ) :   0.1092
B( 47-O , 49-H ) :   0.2680 B( 48-C , 49-H ) :   1.3533 B( 48-C , 50-C ) :  -0.3055
B( 48-C , 54-H ) :  -0.4911 B( 49-H , 50-C ) :  -0.2320 B( 50-C , 52-H ) :  -0.1063
B( 50-C , 54-H ) :   1.0261

MP2 TOTAL ENERGY:    -1117.011851549 Eh
FINAL SINGLE POINT ENERGY     -1117.011851548914

DIPOLE MOMENT
-------------
                                X             Y             Z
Electronic contribution:     -3.98158      10.49923     -10.80231
Nuclear contribution   :      2.02160     -11.29220      13.25548
                        -----------------------------------------
Total Dipole Moment    :     -1.95998      -0.79297       2.45318
                        -----------------------------------------
Magnitude (a.u.)       :      3.23858
Magnitude (Debye)      :      8.23181

Rotational constants in cm-1:     0.016423     0.003887     0.003722
Rotational constants in MHz :   492.353538   116.525725   111.573964

                             ****ORCA TERMINATED NORMALLY****
TOTAL RUN TIME: 0 days 2 hours 16 minutes 58 seconds 674 msec
