                         Program Version 4.2.1 -  RELEASE  -
|  1> %pal
|  2>  nprocs 32
|  3> end
|  4> !RI-MP2 aug-cc-pVTZ aug-cc-pVTZ/C TightSCF
|  5> %maxcore 4500
|  6> *xyzfile 0 1  03_40R1.xyz
|  7>
|  8>
|  9>                          ****END OF INPUT****

CARTESIAN COORDINATES (ANGSTROEM)
---------------------------------
  Cl    -2.255519   -1.052391   -0.198672
  C     -1.251120    0.478745    0.020711
  C     -1.859217    1.533672   -0.890036
  C      0.182643    0.172496   -0.407945
  C     -1.363163    0.885663    1.481295
  H     -2.393811    1.140267    1.729555
  H     -0.736607    1.764161    1.659743
  H     -1.039233    0.089353    2.149467
  H     -1.804403    1.226982   -1.934985
  H     -1.308724    2.471355   -0.775125
  H     -2.904083    1.712736   -0.635586
  H      0.731474    1.119861   -0.378771
  H      0.164325   -0.143992   -1.455064
  C      0.931960   -0.863394    0.419448
  H      1.027631   -0.529092    1.454825
  C      2.334402   -1.144084   -0.135554
  H      0.371326   -1.800202    0.431806
  H      2.257775   -1.503848   -1.166471
  H      2.800649   -1.948518    0.439288
  C      3.211129    0.023077   -0.104855
  C      3.917612    0.988938   -0.067060
  H      4.552022    1.840910   -0.037292

 Total Charge           Charge          ....    0
 Multiplicity           Mult            ....    1
 Number of Electrons    NEL             ....   78
 Basis Dimension        Dim             ....  717

ORBITAL ENERGIES
----------------

  NO   OCC          E(Eh)            E(eV)
   0   2.0000    -104.809805     -2852.0198
   1   2.0000     -11.306155      -307.6561
   2   2.0000     -11.254789      -306.2584
   3   2.0000     -11.234574      -305.7083
   4   2.0000     -11.233327      -305.6744
   5   2.0000     -11.232662      -305.6563
   6   2.0000     -11.228336      -305.5386
   7   2.0000     -11.227818      -305.5245
   8   2.0000     -11.220790      -305.3332
   9   2.0000     -10.534375      -286.6549
  10   2.0000      -8.001022      -217.7189
  11   2.0000      -7.999480      -217.6769
  12   2.0000      -7.999470      -217.6766
  13   2.0000      -1.159848       -31.5611
  14   2.0000      -1.094716       -29.7887
  15   2.0000      -1.030588       -28.0437
  16   2.0000      -1.009526       -27.4706
  17   2.0000      -0.953815       -25.9546
  18   2.0000      -0.947938       -25.7947
  19   2.0000      -0.844873       -22.9902
  20   2.0000      -0.749561       -20.3966
  21   2.0000      -0.719886       -19.5891
  22   2.0000      -0.664292       -18.0763
  23   2.0000      -0.643261       -17.5040
  24   2.0000      -0.628955       -17.1147
  25   2.0000      -0.613606       -16.6971
  26   2.0000      -0.591050       -16.0833
  27   2.0000      -0.576007       -15.6739
  28   2.0000      -0.560105       -15.2412
  29   2.0000      -0.540579       -14.7099
  30   2.0000      -0.520521       -14.1641
  31   2.0000      -0.506971       -13.7954
  32   2.0000      -0.487525       -13.2662
  33   2.0000      -0.481280       -13.0963
  34   2.0000      -0.470077       -12.7914
  35   2.0000      -0.425488       -11.5781
  36   2.0000      -0.424069       -11.5395
  37   2.0000      -0.388916       -10.5829
  38   2.0000      -0.388018       -10.5585
  39   0.0000       0.026185         0.7125
  40   0.0000       0.032590         0.8868
  41   0.0000       0.033290         0.9059
  42   0.0000       0.035930         0.9777
  43   0.0000       0.049602         1.3497

MULLIKEN ATOMIC CHARGES
-----------------------
   0 Cl:   -0.647484
   1 C :    1.301462
   2 C :   -1.246739
   3 C :   -0.467066
   4 C :   -1.172271
   5 H :    0.274496
   6 H :    0.266208
   7 H :    0.301536
   8 H :    0.269960
   9 H :    0.256410
  10 H :    0.279565
  11 H :    0.311964
  12 H :    0.340910
  13 C :   -0.690882
  14 H :    0.298578
  15 C :   -0.167173
  16 H :    0.285654
  17 H :    0.232428
  18 H :    0.296397
  19 C :    1.048293
  20 C :   -1.807603
  21 H :    0.435357
Sum of atomic charges:   -0.0000000

LOEWDIN ATOMIC CHARGES
----------------------
   0 Cl:    0.973816
   1 C :   -0.823619
   2 C :    0.498549
   3 C :    0.193923
   4 C :    0.503968
   5 H :   -0.171127
   6 H :   -0.151629
   7 H :   -0.184754
   8 H :   -0.172006
   9 H :   -0.157297
  10 H :   -0.175558
  11 H :   -0.148993
  12 H :   -0.149210
  13 C :    0.250585
  14 H :   -0.151403
  15 C :    0.222125
  16 H :   -0.167464
  17 H :   -0.153941
  18 H :   -0.154546
  19 C :    0.017546
  20 C :    0.402131
  21 H :   -0.301094

  Mayer bond orders larger than 0.100000
B(  0-Cl,  1-C ) :   0.2500 B(  0-Cl,  3-C ) :   0.1185 B(  0-Cl,  4-C ) :   0.1056
B(  1-C ,  2-C ) :   0.4848 B(  1-C ,  3-C ) :   0.9807 B(  1-C ,  4-C ) :   0.5571
B(  2-C ,  8-H ) :   1.0378 B(  2-C ,  9-H ) :   0.9879 B(  2-C , 10-H ) :   1.0236
B(  3-C , 11-H ) :   0.8786 B(  3-C , 12-H ) :   0.8925 B(  3-C , 13-C ) :   0.8732
B(  3-C , 20-C ) :   0.1185 B(  4-C ,  5-H ) :   1.0148 B(  4-C ,  6-H ) :   0.9654
B(  4-C ,  7-H ) :   0.9965 B( 13-C , 14-H ) :   0.9211 B( 13-C , 15-C ) :   1.0283
B( 13-C , 16-H ) :   0.9578 B( 13-C , 19-C ) :   0.2059 B( 13-C , 20-C ) :   0.1033
B( 15-C , 17-H ) :   0.9691 B( 15-C , 18-H ) :   0.9550 B( 15-C , 19-C ) :   0.8245
B( 15-C , 20-C ) :  -0.3331 B( 19-C , 20-C ) :   0.1916 B( 19-C , 21-H ) :  -0.2563
B( 20-C , 21-H ) :   1.1740

MP2 TOTAL ENERGY:     -771.658000978 Eh
FINAL SINGLE POINT ENERGY      -771.658000978259

DIPOLE MOMENT
-------------
                                X             Y             Z
Electronic contribution:     -4.65547      -6.43144      -1.64744
Nuclear contribution   :      5.00828       7.03416       1.78814
                        -----------------------------------------
Total Dipole Moment    :      0.35281       0.60272       0.14070
                        -----------------------------------------
Magnitude (a.u.)       :      0.71242
Magnitude (Debye)      :      1.81083

Rotational constants in cm-1:     0.080989     0.021959     0.019843
Rotational constants in MHz :  2427.991455   658.305996   594.876239

                             ****ORCA TERMINATED NORMALLY****
TOTAL RUN TIME: 0 days 0 hours 6 minutes 35 seconds 387 msec
