                         Program Version 4.2.1 -  RELEASE  -
|  1> %pal
|  2>  nprocs 32
|  3> end
|  4> !RI-MP2 aug-cc-pVTZ aug-cc-pVTZ/C TightSCF
|  5> %maxcore 4500
|  6> *xyzfile 0 1  10_57R1.xyz
|  7>
|  8>
|  9>                          ****END OF INPUT****

CARTESIAN COORDINATES (ANGSTROEM)
---------------------------------
  C      0.137143   -0.000002    0.000044
  C     -0.550544   -1.269759    0.000081
  C     -0.550543    1.269756    0.000081
  C     -1.873475   -1.547703    0.000027
  C     -1.873474    1.547702    0.000027
  C     -3.006776   -0.675351   -0.000079
  C     -3.006775    0.675350   -0.000079
  C      1.520715   -0.000001    0.000008
  C      2.268626   -1.208822   -0.000015
  N      2.855064   -2.198813   -0.000050
  C      2.268623    1.208823   -0.000019
  N      2.855052    2.198819   -0.000030
  H     -3.972410    1.168488   -0.000155
  H     -2.118402    2.604708    0.000060
  H      0.104852    2.133092    0.000151
  H     -3.972411   -1.168488   -0.000155
  H      0.104850   -2.133095    0.000151
  H     -2.118404   -2.604709    0.000061

 Total Charge           Charge          ....    0
 Multiplicity           Mult            ....    1
 Number of Electrons    NEL             ....   80
 Basis Dimension        Dim             ....  690

ORBITAL ENERGIES
----------------

  NO   OCC          E(Eh)            E(eV)
   0   2.0000     -15.573208      -423.7685
   1   2.0000     -15.573208      -423.7685
   2   2.0000     -11.333487      -308.3999
   3   2.0000     -11.302097      -307.5457
   4   2.0000     -11.298170      -307.4388
   5   2.0000     -11.298168      -307.4388
   6   2.0000     -11.291794      -307.2653
   7   2.0000     -11.290247      -307.2232
   8   2.0000     -11.289083      -307.1916
   9   2.0000     -11.289070      -307.1912
  10   2.0000     -11.281872      -306.9953
  11   2.0000     -11.281845      -306.9946
  12   2.0000      -1.242446       -33.8087
  13   2.0000      -1.222638       -33.2697
  14   2.0000      -1.197967       -32.5983
  15   2.0000      -1.139024       -30.9944
  16   2.0000      -1.105030       -30.0694
  17   2.0000      -1.045673       -28.4542
  18   2.0000      -0.940207       -25.5843
  19   2.0000      -0.934640       -25.4329
  20   2.0000      -0.813228       -22.1291
  21   2.0000      -0.783646       -21.3241
  22   2.0000      -0.758502       -20.6399
  23   2.0000      -0.734592       -19.9893
  24   2.0000      -0.687112       -18.6973
  25   2.0000      -0.665812       -18.1177
  26   2.0000      -0.620023       -16.8717
  27   2.0000      -0.597303       -16.2534
  28   2.0000      -0.582733       -15.8570
  29   2.0000      -0.569154       -15.4875
  30   2.0000      -0.563330       -15.3290
  31   2.0000      -0.558958       -15.2100
  32   2.0000      -0.535145       -14.5620
  33   2.0000      -0.527344       -14.3498
  34   2.0000      -0.484392       -13.1810
  35   2.0000      -0.484337       -13.1795
  36   2.0000      -0.465600       -12.6696
  37   2.0000      -0.435939       -11.8625
  38   2.0000      -0.430031       -11.7018
  39   2.0000      -0.310853        -8.4587
  40   0.0000       0.011828         0.3219
  41   0.0000       0.012265         0.3337
  42   0.0000       0.013847         0.3768
  43   0.0000       0.022726         0.6184
  44   0.0000       0.032332         0.8798

MULLIKEN ATOMIC CHARGES
-----------------------
   0 C :    1.615592
   1 C :   -0.788286
   2 C :   -0.788209
   3 C :   -0.114671
   4 C :   -0.114685
   5 C :   -0.298248
   6 C :   -0.298221
   7 C :    0.890254
   8 C :    0.470276
   9 N :   -0.870288
  10 C :    0.470261
  11 N :   -0.870293
  12 H :    0.256569
  13 H :    0.292328
  14 H :   -0.200602
  15 H :    0.256556
  16 H :   -0.200668
  17 H :    0.292335
Sum of atomic charges:    0.0000000

LOEWDIN ATOMIC CHARGES
----------------------
   0 C :   -0.107490
   1 C :    0.258474
   2 C :    0.258474
   3 C :    0.248689
   4 C :    0.248689
   5 C :    0.228887
   6 C :    0.228886
   7 C :   -0.223397
   8 C :   -0.288320
   9 N :    0.292054
  10 C :   -0.288320
  11 N :    0.292054
  12 H :   -0.181792
  13 H :   -0.175290
  14 H :   -0.217259
  15 H :   -0.181792
  16 H :   -0.217258
  17 H :   -0.175289

  Mayer bond orders larger than 0.100000
B(  0-C ,  1-C ) :   0.2323 B(  0-C ,  2-C ) :   0.2323 B(  0-C ,  7-C ) :   0.5192
B(  0-C ,  8-C ) :   0.1689 B(  0-C , 10-C ) :   0.1690 B(  0-C , 14-H ) :  -0.1182
B(  0-C , 16-H ) :  -0.1182 B(  1-C ,  2-C ) :  -0.4600 B(  1-C ,  3-C ) :   1.2514
B(  1-C ,  5-C ) :  -0.1209 B(  1-C ,  6-C ) :   0.1367 B(  1-C , 16-H ) :   1.8772
B(  1-C , 17-H ) :  -0.1528 B(  2-C ,  4-C ) :   1.2514 B(  2-C ,  5-C ) :   0.1367
B(  2-C ,  6-C ) :  -0.1209 B(  2-C , 13-H ) :  -0.1528 B(  2-C , 14-H ) :   1.8771
B(  3-C ,  5-C ) :   0.9025 B(  3-C ,  8-C ) :   0.1045 B(  3-C , 15-H ) :  -0.1252
B(  3-C , 16-H ) :  -0.1060 B(  3-C , 17-H ) :   0.9507 B(  4-C ,  6-C ) :   0.9026
B(  4-C , 10-C ) :   0.1045 B(  4-C , 12-H ) :  -0.1251 B(  4-C , 13-H ) :   0.9508
B(  4-C , 14-H ) :  -0.1059 B(  5-C ,  6-C ) :   1.5292 B(  5-C , 15-H ) :   1.0223
B(  5-C , 17-H ) :  -0.1518 B(  6-C , 12-H ) :   1.0223 B(  6-C , 13-H ) :  -0.1519
B(  7-C ,  8-C ) :   0.6188 B(  7-C , 10-C ) :   0.6187 B(  7-C , 14-H ) :  -0.1843
B(  7-C , 16-H ) :  -0.1844 B(  8-C ,  9-N ) :   1.7739 B( 10-C , 11-N ) :   1.7739

MP2 TOTAL ENERGY:     -493.111798767 Eh
FINAL SINGLE POINT ENERGY      -493.111798766954

DIPOLE MOMENT
-------------
                                X             Y             Z
Electronic contribution:      7.96488       0.00000      -0.00005
Nuclear contribution   :    -11.63438      -0.00000       0.00011
                        -----------------------------------------
Total Dipole Moment    :     -3.66950      -0.00000       0.00006
                        -----------------------------------------
Magnitude (a.u.)       :      3.66950
Magnitude (Debye)      :      9.32713

Rotational constants in cm-1:     0.055567     0.023133     0.016333
Rotational constants in MHz :  1665.853311   693.509359   489.659719

                             ****ORCA TERMINATED NORMALLY****
TOTAL RUN TIME: 0 days 0 hours 7 minutes 17 seconds 131 msec
