                         Program Version 4.2.1 -  RELEASE  -
|  1> %pal
|  2>  nprocs 32
|  3> end
|  4> !RI-MP2 aug-cc-pVTZ aug-cc-pVTZ/C TightSCF
|  5> %maxcore 4500
|  6> *xyzfile 0 1  05_20R1.xyz
|  7>
|  8>
|  9>                          ****END OF INPUT****

CARTESIAN COORDINATES (ANGSTROEM)
---------------------------------
  C      2.920807    0.292774    0.209550
  C      2.009409    1.339181    0.190982
  C      0.661052    1.090160   -0.028596
  C      0.214632   -0.209261   -0.237027
  C      1.134427   -1.254320   -0.232129
  C      2.479623   -1.007209   -0.003161
  H      3.972327    0.488820    0.381185
  H      2.349826    2.356345    0.344891
  H     -0.055681    1.900747   -0.058533
  H      0.795277   -2.269383   -0.411872
  H      3.186624   -1.828239    0.000030
  C     -1.243711   -0.503828   -0.425131
  C     -2.100454   -0.743476    0.838893
  C     -2.976013    0.386012    0.286111
  H     -1.579977   -0.498180    1.762997
  H     -2.564398   -1.724378    0.923845
  H     -3.942564    0.066965   -0.113071
  O     -2.034213    0.649828   -0.772009
  H     -3.116918    1.259325    0.926133
  H     -1.369431   -1.290843   -1.176492

 Total Charge           Charge          ....    0
 Multiplicity           Mult            ....    1
 Number of Electrons    NEL             ....   72
 Basis Dimension        Dim             ....  690

ORBITAL ENERGIES
----------------

  NO   OCC          E(Eh)            E(eV)
   0   2.0000     -20.550812      -559.2160
   1   2.0000     -11.289361      -307.1991
   2   2.0000     -11.280258      -306.9514
   3   2.0000     -11.236660      -305.7651
   4   2.0000     -11.234063      -305.6944
   5   2.0000     -11.232300      -305.6464
   6   2.0000     -11.232072      -305.6402
   7   2.0000     -11.232017      -305.6387
   8   2.0000     -11.230199      -305.5892
   9   2.0000     -11.226653      -305.4928
  10   2.0000      -1.385261       -37.6949
  11   2.0000      -1.156490       -31.4697
  12   2.0000      -1.046108       -28.4661
  13   2.0000      -1.015333       -27.6286
  14   2.0000      -1.007596       -27.4181
  15   2.0000      -0.928875       -25.2760
  16   2.0000      -0.829337       -22.5674
  17   2.0000      -0.821197       -22.3459
  18   2.0000      -0.763067       -20.7641
  19   2.0000      -0.710637       -19.3374
  20   2.0000      -0.682328       -18.5671
  21   2.0000      -0.659093       -17.9348
  22   2.0000      -0.632942       -17.2232
  23   2.0000      -0.622924       -16.9506
  24   2.0000      -0.590416       -16.0660
  25   2.0000      -0.583908       -15.8889
  26   2.0000      -0.568159       -15.4604
  27   2.0000      -0.544713       -14.8224
  28   2.0000      -0.519042       -14.1239
  29   2.0000      -0.498005       -13.5514
  30   2.0000      -0.492613       -13.4047
  31   2.0000      -0.465172       -12.6580
  32   2.0000      -0.463060       -12.6005
  33   2.0000      -0.418619       -11.3912
  34   2.0000      -0.336896        -9.1674
  35   2.0000      -0.327527        -8.9125
  36   0.0000       0.027547         0.7496
  37   0.0000       0.031262         0.8507
  38   0.0000       0.033811         0.9200
  39   0.0000       0.041587         1.1316
  40   0.0000       0.044176         1.2021

MULLIKEN ATOMIC CHARGES
-----------------------
   0 C :   -0.170503
   1 C :   -0.671825
   2 C :   -0.843205
   3 C :    1.422772
   4 C :   -1.146154
   5 C :   -0.521872
   6 H :    0.462712
   7 H :    0.437937
   8 H :    0.180051
   9 H :    0.123908
  10 H :    0.455968
  11 C :    0.515992
  12 C :   -0.655157
  13 C :   -0.461541
  14 H :    0.288940
  15 H :    0.354406
  16 H :    0.261028
  17 O :   -0.830441
  18 H :    0.378093
  19 H :    0.418892
Sum of atomic charges:    0.0000000

LOEWDIN ATOMIC CHARGES
----------------------
   0 C :    0.191167
   1 C :    0.200022
   2 C :    0.217172
   3 C :   -0.107533
   4 C :    0.211588
   5 C :    0.195496
   6 H :   -0.185495
   7 H :   -0.182412
   8 H :   -0.186864
   9 H :   -0.172146
  10 H :   -0.183097
  11 C :   -0.243967
  12 C :    0.347258
  13 C :    0.084519
  14 H :   -0.151123
  15 H :   -0.149602
  16 H :   -0.155133
  17 O :    0.559820
  18 H :   -0.154174
  19 H :   -0.135496

  Mayer bond orders larger than 0.100000
B(  0-C ,  1-C ) :   1.1301 B(  0-C ,  5-C ) :   1.1068 B(  0-C ,  6-H ) :   0.8232
B(  1-C ,  2-C ) :   1.2279 B(  1-C ,  6-H ) :  -0.1629 B(  1-C ,  7-H ) :   0.8855
B(  1-C ,  8-H ) :  -0.1134 B(  2-C ,  3-C ) :   0.4391 B(  2-C ,  4-C ) :  -0.1240
B(  2-C ,  8-H ) :   1.3283 B(  2-C ,  9-H ) :   0.1534 B(  3-C ,  4-C ) :   0.3878
B(  3-C ,  5-C ) :   0.1145 B(  3-C ,  8-H ) :  -0.1160 B(  3-C ,  9-H ) :  -0.2004
B(  3-C , 11-C ) :   0.6706 B(  4-C ,  5-C ) :   1.3004 B(  4-C ,  8-H ) :   0.1449
B(  4-C ,  9-H ) :   1.4227 B(  5-C ,  6-H ) :  -0.1487 B(  5-C ,  9-H ) :  -0.1217
B(  5-C , 10-H ) :   0.8348 B( 11-C , 12-C ) :   0.7569 B( 11-C , 17-O ) :   0.6237
B( 11-C , 19-H ) :   0.9975 B( 12-C , 13-C ) :   1.1059 B( 12-C , 14-H ) :   0.9117
B( 12-C , 15-H ) :   0.8600 B( 12-C , 17-O ) :   0.1234 B( 13-C , 16-H ) :   0.9699
B( 13-C , 17-O ) :   0.9034 B( 13-C , 18-H ) :   0.8638

MP2 TOTAL ENERGY:     -423.312739983 Eh
FINAL SINGLE POINT ENERGY      -423.312739983095

DIPOLE MOMENT
-------------
                                X             Y             Z
Electronic contribution:      2.22424       1.03448      -2.01574
Nuclear contribution   :     -2.37531      -1.54046       2.58690
                        -----------------------------------------
Total Dipole Moment    :     -0.15107      -0.50598       0.57116
                        -----------------------------------------
Magnitude (a.u.)       :      0.77786
Magnitude (Debye)      :      1.97717

Rotational constants in cm-1:     0.119310     0.028616     0.025148
Rotational constants in MHz :  3576.828451   857.893315   753.909416

                             ****ORCA TERMINATED NORMALLY****
TOTAL RUN TIME: 0 days 0 hours 5 minutes 16 seconds 667 msec
