                         Program Version 4.2.1 -  RELEASE  -
|  1> %pal
|  2>  nprocs 32
|  3> end
|  4> !RI-MP2 aug-cc-pVTZ aug-cc-pVTZ/C TightSCF
|  5> %maxcore 4500
|  6> *xyzfile 0 1  02_12R.xyz
|  7>
|  8>
|  9>                          ****END OF INPUT****

CARTESIAN COORDINATES (ANGSTROEM)
---------------------------------
  C     -3.063485   -1.324088   -0.548451
  C     -2.015348   -2.315183   -1.088923
  C     -0.680200   -1.664720   -1.259534
  C     -1.842403    1.252671    0.769236
  C     -2.824140   -1.007410    0.936827
  H     -2.357921   -2.697731   -2.056321
  H     -1.941120   -3.175474   -0.415367
  H     -2.944011   -0.396247   -1.118325
  H     -3.504917   -1.609611    1.547325
  C     -1.879911    2.158558   -0.203720
  C      0.395965   -1.871020   -0.499776
  C      1.649072   -1.154441   -0.660554
  C      2.697348   -1.286639    0.162034
  C     -0.692555    2.857756   -0.742855
  C     -4.483971   -1.833383   -0.778310
  H     -4.694546   -1.959937   -1.842739
  H     -5.223389   -1.138323   -0.372060
  H     -4.633486   -2.800273   -0.288372
  O     -0.813923    3.610488   -1.687200
  C     -3.007371    0.476016    1.299654
  H     -3.923760    0.846054    0.827472
  H     -1.811235   -1.301342    1.228785
  C      3.971822   -0.576141    0.059479
  C      4.910524   -0.816123    0.985811
  H      4.658246   -1.535474    1.762006
  C      4.141795    0.380492   -1.087429
  H      5.118982    0.856945   -1.090036
  H      3.385980    1.169218   -1.050829
  H      4.019077   -0.137554   -2.042157
  C      6.277883   -0.225445    1.102946
  H      6.395713    0.280806    2.065955
  H      6.506058    0.493903    0.318410
  H      7.039028   -1.010995    1.068943
  C      0.657670    2.618546   -0.108203
  H      0.653626    2.946258    0.933957
  H      1.406772    3.182911   -0.659569
  H      0.915366    1.557691   -0.115851
  C     -3.121527    0.661191    2.814093
  H     -3.237391    1.713790    3.079037
  H     -3.982063    0.113355    3.204102
  H     -2.227981    0.282913    3.319122
  H     -0.886012    1.000805    1.223485
  H     -2.813925    2.423653   -0.690066
  H      2.612340   -1.980793    0.995345
  H      1.702765   -0.470009   -1.502319
  H     -0.617515   -0.917537   -2.049324
  H      0.349692   -2.604725    0.303053

 Total Charge           Charge          ....    0
 Multiplicity           Mult            ....    1
 Number of Electrons    NEL             ....  144
 Basis Dimension        Dim             .... 1518

ORBITAL ENERGIES
----------------

  NO   OCC          E(Eh)            E(eV)
   0   2.0000     -20.534196      -558.7639
   1   2.0000     -11.322318      -308.0959
   2   2.0000     -11.253173      -306.2144
   3   2.0000     -11.242470      -305.9232
   4   2.0000     -11.237770      -305.7953
   5   2.0000     -11.233240      -305.6720
   6   2.0000     -11.231775      -305.6321
   7   2.0000     -11.231242      -305.6176
   8   2.0000     -11.231054      -305.6125
   9   2.0000     -11.230547      -305.5987
  10   2.0000     -11.229828      -305.5792
  11   2.0000     -11.229021      -305.5572
  12   2.0000     -11.227071      -305.5041
  13   2.0000     -11.224775      -305.4417
  14   2.0000     -11.224745      -305.4408
  15   2.0000     -11.224635      -305.4378
  16   2.0000     -11.224152      -305.4247
  17   2.0000     -11.220838      -305.3345
  18   2.0000     -11.216963      -305.2291
  19   2.0000      -1.377049       -37.4714
  20   2.0000      -1.135047       -30.8862
  21   2.0000      -1.123814       -30.5805
  22   2.0000      -1.099879       -29.9292
  23   2.0000      -1.071271       -29.1508
  24   2.0000      -1.041418       -28.3384
  25   2.0000      -1.016361       -27.6566
  26   2.0000      -0.983895       -26.7731
  27   2.0000      -0.978134       -26.6164
  28   2.0000      -0.934007       -25.4156
  29   2.0000      -0.932866       -25.3846
  30   2.0000      -0.902565       -24.5600
  31   2.0000      -0.869281       -23.6543
  32   2.0000      -0.807537       -21.9742
  33   2.0000      -0.783362       -21.3164
  34   2.0000      -0.773413       -21.0456
  35   2.0000      -0.755955       -20.5706
  36   2.0000      -0.731819       -19.9138
  37   2.0000      -0.713915       -19.4266
  38   2.0000      -0.668151       -18.1813
  39   2.0000      -0.665193       -18.1008
  40   2.0000      -0.651075       -17.7167
  41   2.0000      -0.640922       -17.4404
  42   2.0000      -0.630099       -17.1459
  43   2.0000      -0.605251       -16.4697
  44   2.0000      -0.601937       -16.3795
  45   2.0000      -0.594529       -16.1780
  46   2.0000      -0.592727       -16.1289
  47   2.0000      -0.583449       -15.8764
  48   2.0000      -0.581768       -15.8307
  49   2.0000      -0.566986       -15.4285
  50   2.0000      -0.565663       -15.3925
  51   2.0000      -0.559972       -15.2376
  52   2.0000      -0.552248       -15.0274
  53   2.0000      -0.545797       -14.8519
  54   2.0000      -0.539255       -14.6739
  55   2.0000      -0.536920       -14.6103
  56   2.0000      -0.521687       -14.1958
  57   2.0000      -0.520866       -14.1735
  58   2.0000      -0.512191       -13.9374
  59   2.0000      -0.506449       -13.7812
  60   2.0000      -0.498675       -13.5696
  61   2.0000      -0.495870       -13.4933
  62   2.0000      -0.491543       -13.3756
  63   2.0000      -0.478512       -13.0210
  64   2.0000      -0.466037       -12.6815
  65   2.0000      -0.464046       -12.6273
  66   2.0000      -0.459258       -12.4970
  67   2.0000      -0.445516       -12.1231
  68   2.0000      -0.407659       -11.0930
  69   2.0000      -0.376158       -10.2358
  70   2.0000      -0.370487       -10.0815
  71   2.0000      -0.284861        -7.7515
  72   0.0000       0.022106         0.6015
  73   0.0000       0.025491         0.6936
  74   0.0000       0.029818         0.8114
  75   0.0000       0.030693         0.8352
  76   0.0000       0.036700         0.9987

MULLIKEN ATOMIC CHARGES
-----------------------
   0 C :    0.648259
   1 C :   -0.443990
   2 C :   -0.238842
   3 C :    0.295390
   4 C :   -0.717961
   5 H :    0.332933
   6 H :    0.115263
   7 H :    0.358107
   8 H :    0.295786
   9 C :   -0.622505
  10 C :   -0.219719
  11 C :    0.825823
  12 C :   -1.219951
  13 C :    0.950153
  14 C :   -1.380308
  15 H :    0.258487
  16 H :    0.263943
  17 H :    0.262304
  18 O :   -1.138073
  19 C :    0.217724
  20 H :    0.219596
  21 H :    0.307560
  22 C :    2.326642
  23 C :   -0.918014
  24 H :    0.136150
  25 C :   -0.841128
  26 H :    0.240410
  27 H :    0.340785
  28 H :    0.186861
  29 C :   -0.930014
  30 H :    0.216297
  31 H :    0.381324
  32 H :    0.213898
  33 C :   -0.884126
  34 H :    0.313929
  35 H :    0.214911
  36 H :    0.582661
  37 C :   -1.152506
  38 H :    0.305725
  39 H :    0.242619
  40 H :    0.251330
  41 H :    0.043982
  42 H :    0.206559
  43 H :   -0.557476
  44 H :    0.002971
  45 H :   -0.085410
  46 H :   -0.208359
Sum of atomic charges:    0.0000000

LOEWDIN ATOMIC CHARGES
----------------------
   0 C :   -0.024439
   1 C :    0.274981
   2 C :    0.224480
   3 C :    0.217117
   4 C :    0.301134
   5 H :   -0.143687
   6 H :   -0.140022
   7 H :   -0.150010
   8 H :   -0.136326
   9 C :    0.228594
  10 C :    0.193731
  11 C :    0.179729
  12 C :    0.201165
  13 C :   -0.552336
  14 C :    0.595437
  15 H :   -0.160096
  16 H :   -0.158178
  17 H :   -0.156253
  18 O :    0.455356
  19 C :   -0.038207
  20 H :   -0.133386
  21 H :   -0.155649
  22 C :   -0.117637
  23 C :    0.233243
  24 H :   -0.190522
  25 C :    0.570227
  26 H :   -0.195545
  27 H :   -0.172159
  28 H :   -0.158141
  29 C :    0.569271
  30 H :   -0.170591
  31 H :   -0.201057
  32 H :   -0.170021
  33 C :    0.570802
  34 H :   -0.162425
  35 H :   -0.179340
  36 H :   -0.202855
  37 C :    0.601061
  38 H :   -0.158799
  39 H :   -0.160113
  40 H :   -0.156738
  41 H :   -0.165440
  42 H :   -0.184251
  43 H :   -0.188134
  44 H :   -0.196685
  45 H :   -0.162008
  46 H :   -0.175273

  Mayer bond orders larger than 0.100000
B(  0-C ,  1-C ) :   0.7790 B(  0-C ,  2-C ) :   0.1446 B(  0-C ,  4-C ) :   0.7962
B(  0-C ,  7-H ) :   0.9062 B(  0-C , 14-C ) :   0.2463 B(  0-C , 17-H ) :  -0.1434
B(  1-C ,  2-C ) :   0.4267 B(  1-C ,  5-H ) :   0.9835 B(  1-C ,  6-H ) :   1.1897
B(  1-C , 14-C ) :   0.1614 B(  1-C , 22-C ) :   0.1266 B(  2-C ,  5-H ) :  -0.2131
B(  2-C , 10-C ) :   1.0641 B(  2-C , 12-C ) :   0.3758 B(  2-C , 22-C ) :   0.1094
B(  2-C , 43-H ) :  -0.1202 B(  2-C , 45-H ) :   1.5739 B(  2-C , 46-H ) :  -0.1531
B(  3-C ,  4-C ) :   0.1260 B(  3-C ,  9-C ) :   1.1542 B(  3-C , 13-C ) :   0.1309
B(  3-C , 18-O ) :   0.1343 B(  3-C , 19-C ) :   0.8757 B(  3-C , 33-C ) :  -0.1612
B(  3-C , 41-H ) :   1.3251 B(  4-C ,  8-H ) :   1.0030 B(  4-C , 14-C ) :   0.1279
B(  4-C , 19-C ) :   1.0293 B(  4-C , 21-H ) :   0.9711 B(  9-C , 13-C ) :   0.8739
B(  9-C , 18-O ) :  -0.1023 B(  9-C , 19-C ) :   0.1060 B(  9-C , 33-C ) :   0.1384
B(  9-C , 42-H ) :   1.0545 B( 10-C , 23-C ) :   0.2012 B( 10-C , 24-H ) :   0.1683
B( 10-C , 43-H ) :  -0.2015 B( 10-C , 45-H ) :  -0.1232 B( 10-C , 46-H ) :   1.8911
B( 11-C , 12-C ) :   0.9474 B( 11-C , 22-C ) :   0.2193 B( 11-C , 25-C ) :  -0.2470
B( 11-C , 43-H ) :  -0.3872 B( 11-C , 44-H ) :   1.7812 B( 11-C , 45-H ) :  -0.2552
B( 11-C , 46-H ) :  -0.3623 B( 12-C , 23-C ) :   0.5769 B( 12-C , 24-H ) :  -0.1455
B( 12-C , 25-C ) :   0.1337 B( 12-C , 43-H ) :   2.7767 B( 12-C , 46-H ) :  -0.2176
B( 13-C , 18-O ) :   0.6409 B( 13-C , 33-C ) :   0.9034 B( 13-C , 36-H ) :   0.1553
B( 14-C , 15-H ) :   1.0712 B( 14-C , 16-H ) :   1.0311 B( 14-C , 17-H ) :   1.0902
B( 19-C , 20-H ) :   0.9668 B( 19-C , 37-C ) :   0.5890 B( 19-C , 40-H ) :  -0.1249
B( 22-C , 23-C ) :  -0.2427 B( 22-C , 24-H ) :  -0.3313 B( 22-C , 25-C ) :   0.5022
B( 22-C , 43-H ) :  -0.4287 B( 22-C , 46-H ) :  -0.2418 B( 23-C , 24-H ) :   1.4311
B( 23-C , 25-C ) :  -0.1427 B( 23-C , 29-C ) :   0.6077 B( 23-C , 32-H ) :  -0.1084
B( 23-C , 43-H ) :  -0.3577 B( 23-C , 44-H ) :  -0.1622 B( 23-C , 45-H ) :   0.1597
B( 23-C , 46-H ) :   0.2788 B( 24-H , 29-C ) :  -0.1495 B( 24-H , 43-H ) :  -0.3098
B( 24-H , 46-H ) :   0.1228 B( 25-C , 26-H ) :   0.9348 B( 25-C , 27-H ) :   0.9413
B( 25-C , 28-H ) :   1.1286 B( 29-C , 30-H ) :   1.1054 B( 29-C , 31-H ) :   0.8302
B( 29-C , 32-H ) :   1.1279 B( 33-C , 34-H ) :   0.9738 B( 33-C , 35-H ) :   1.0322
B( 33-C , 36-H ) :   0.6075 B( 37-C , 38-H ) :   0.9844 B( 37-C , 39-H ) :   1.0443
B( 37-C , 40-H ) :   1.0713 B( 43-H , 44-H ) :   0.1601 B( 43-H , 45-H ) :   0.1266
B( 45-H , 46-H ) :   0.2027

MP2 TOTAL ENERGY:     -776.309413878 Eh
FINAL SINGLE POINT ENERGY      -776.309413878083

DIPOLE MOMENT
-------------
                                X             Y             Z
Electronic contribution:      0.14006       5.94942      -5.58672
Nuclear contribution   :     -0.05032      -7.07290       6.80939
                        -----------------------------------------
Total Dipole Moment    :      0.08974      -1.12348       1.22267
                        -----------------------------------------
Magnitude (a.u.)       :      1.66288
Magnitude (Debye)      :      4.22671

Rotational constants in cm-1:     0.014414     0.005914     0.005077
Rotational constants in MHz :   432.121014   177.307690   152.217074

                             ****ORCA TERMINATED NORMALLY****
TOTAL RUN TIME: 0 days 1 hours 6 minutes 51 seconds 779 msec
