                         Program Version 4.2.1 -  RELEASE  -
|  1> %pal
|  2>  nprocs 32
|  3> end
|  4> !RI-MP2 aug-cc-pVTZ aug-cc-pVTZ/C TightSCF
|  5> %maxcore 4500
|  6> *xyzfile 1 1  04_63R1.xyz
|  7>
|  8>
|  9>                          ****END OF INPUT****

CARTESIAN COORDINATES (ANGSTROEM)
---------------------------------
  N      1.048613    1.176423   -0.529150
  H      1.631867    1.901412   -0.943867
  C      1.714166    0.191482   -0.075806
  C      1.063812   -1.021528    0.568825
  O      3.036266    0.058767   -0.051822
  N     -0.185434   -1.428782   -0.033382
  H      0.949731   -0.821568    1.637331
  H      1.761958   -1.852971    0.496711
  C     -1.343997   -0.737151   -0.054624
  C     -1.534528    0.423025    0.922576
  O     -2.245401   -0.947258   -0.836177
  N     -1.629292    1.621524    0.039018
  H     -0.729200    0.591946    1.631430
  H     -2.476521    0.277451    1.447050
  H     -2.315283    1.435461   -0.701126
  H     -0.658309    1.700887   -0.377665
  H     -1.888152    2.472858    0.537984
  H     -0.141396   -2.152959   -0.739718
  H      3.504460    0.836286   -0.385360

 Total Charge           Charge          ....    1
 Multiplicity           Mult            ....    1
 Number of Electrons    NEL             ....   70
 Basis Dimension        Dim             ....  644

ORBITAL ENERGIES
----------------

  NO   OCC          E(Eh)            E(eV)
   0   2.0000     -20.769768      -565.1741
   1   2.0000     -20.683058      -562.8146
   2   2.0000     -15.849690      -431.2920
   3   2.0000     -15.748582      -428.5407
   4   2.0000     -15.715621      -427.6438
   5   2.0000     -11.525920      -313.6362
   6   2.0000     -11.518789      -313.4422
   7   2.0000     -11.469692      -312.1062
   8   2.0000     -11.446475      -311.4744
   9   2.0000      -1.604019       -43.6476
  10   2.0000      -1.557142       -42.3720
  11   2.0000      -1.472744       -40.0754
  12   2.0000      -1.409043       -38.3420
  13   2.0000      -1.364885       -37.1404
  14   2.0000      -1.175108       -31.9763
  15   2.0000      -1.155529       -31.4435
  16   2.0000      -1.006245       -27.3813
  17   2.0000      -0.969674       -26.3862
  18   2.0000      -0.945803       -25.7366
  19   2.0000      -0.932294       -25.3690
  20   2.0000      -0.905912       -24.6511
  21   2.0000      -0.844749       -22.9868
  22   2.0000      -0.836288       -22.7565
  23   2.0000      -0.823900       -22.4195
  24   2.0000      -0.820210       -22.3191
  25   2.0000      -0.779054       -21.1991
  26   2.0000      -0.757526       -20.6133
  27   2.0000      -0.749161       -20.3857
  28   2.0000      -0.741338       -20.1728
  29   2.0000      -0.712168       -19.3791
  30   2.0000      -0.692600       -18.8466
  31   2.0000      -0.631633       -17.1876
  32   2.0000      -0.593147       -16.1403
  33   2.0000      -0.589317       -16.0361
  34   2.0000      -0.558150       -15.1880
  35   0.0000      -0.093835        -2.5534
  36   0.0000      -0.073843        -2.0094
  37   0.0000      -0.070902        -1.9293
  38   0.0000      -0.059122        -1.6088
  39   0.0000      -0.050370        -1.3706

MULLIKEN ATOMIC CHARGES
-----------------------
   0 N :   -0.542400
   1 H :    0.166534
   2 C :    0.239988
   3 C :    0.152928
   4 O :   -0.504156
   5 N :   -0.308596
   6 H :    0.284418
   7 H :    0.428182
   8 C :    0.586046
   9 C :   -0.111339
  10 O :   -0.950920
  11 N :    0.050216
  12 H :    0.302878
  13 H :    0.421873
  14 H :    0.068580
  15 H :    0.239090
  16 H :    0.092121
  17 H :    0.173819
  18 H :    0.210739
Sum of atomic charges:    1.0000000

LOEWDIN ATOMIC CHARGES
----------------------
   0 N :    0.722052
   1 H :   -0.359115
   2 C :   -0.476905
   3 C :    0.223042
   4 O :    0.892842
   5 N :    0.578819
   6 H :   -0.139202
   7 H :   -0.140813
   8 C :   -0.631094
   9 C :    0.336733
  10 O :    0.497191
  11 N :    1.073469
  12 H :   -0.146731
  13 H :   -0.111564
  14 H :   -0.164099
  15 H :   -0.357248
  16 H :   -0.127170
  17 H :   -0.251851
  18 H :   -0.418356

  Mayer bond orders larger than 0.100000
B(  0-N ,  1-H ) :   0.9684 B(  0-N ,  2-C ) :   1.4582 B(  0-N , 15-H ) :   0.1737
B(  2-C ,  3-C ) :   0.3474 B(  2-C ,  4-O ) :   0.9497 B(  3-C ,  5-N ) :   0.9194
B(  3-C ,  6-H ) :   0.9180 B(  3-C ,  7-H ) :   0.8762 B(  4-O , 18-H ) :   0.9910
B(  5-N ,  8-C ) :   1.0102 B(  5-N , 17-H ) :   0.9940 B(  8-C ,  9-C ) :   0.4404
B(  8-C , 10-O ) :   1.1951 B(  8-C , 12-H ) :   0.1133 B(  9-C , 11-N ) :   0.8278
B(  9-C , 12-H ) :   0.9126 B(  9-C , 13-H ) :   0.8547 B( 11-N , 14-H ) :   1.0476
B( 11-N , 15-H ) :   0.8442 B( 11-N , 16-H ) :   1.0590

MP2 TOTAL ENERGY:     -472.124350992 Eh
FINAL SINGLE POINT ENERGY      -472.124350992429

DIPOLE MOMENT
-------------
                                X             Y             Z
Electronic contribution:      0.62730      -2.09932      -1.74748
Nuclear contribution   :     -0.35608       4.42264       2.60918
                        -----------------------------------------
Total Dipole Moment    :      0.27122       2.32332       0.86171
                        -----------------------------------------
Magnitude (a.u.)       :      2.49277
Magnitude (Debye)      :      6.33612

Rotational constants in cm-1:     0.091208     0.037034     0.030054
Rotational constants in MHz :  2734.345266  1110.242739   900.999928

                             ****ORCA TERMINATED NORMALLY****
TOTAL RUN TIME: 0 days 0 hours 4 minutes 34 seconds 835 msec
