                         Program Version 4.2.1 -  RELEASE  -
|  1> %pal
|  2>  nprocs 32
|  3> end
|  4> !RI-MP2 aug-cc-pVTZ aug-cc-pVTZ/C TightSCF
|  5> %maxcore 4500
|  6> *xyzfile 0 1  02_40P.xyz
|  7>
|  8>
|  9>                          ****END OF INPUT****

CARTESIAN COORDINATES (ANGSTROEM)
---------------------------------
  C      0.178413   -0.823932   -0.251321
  C      0.500657   -0.272352    1.130337
  C     -0.564110   -2.225417   -0.101967
  O     -1.366366   -2.245085   -1.271389
  C     -1.602871   -2.057438    0.990328
  C     -2.559970   -1.317695    0.447685
  C     -2.113499   -1.063430   -0.978505
  C     -0.942530   -0.033538   -0.995351
  C     -1.204798    1.374631   -0.526340
  O     -2.427548    1.543859   -0.036993
  O     -0.417906    2.282477   -0.669853
  O     -0.130481    0.600147    1.670003
  O      1.488552   -0.938219    1.712770
  C      1.927608   -0.413504    2.970391
  C     -2.710640    2.842510    0.498822
  S      1.657913   -1.140659   -1.282432
  C      2.179990    0.504161   -1.853826
  C      2.969451    1.333536   -0.854407
  O      2.228455    1.668188    0.297614
  H      2.736767   -1.064048    3.290772
  H      1.113307   -0.423203    3.694574
  H      2.281880    0.606383    2.825380
  H     -3.737290    2.795994    0.851167
  H     -2.599565    3.604287   -0.271600
  H     -2.027689    3.050810    1.321518
  H      1.312237    1.062419   -2.209276
  H      2.806519    0.292878   -2.723904
  H      3.329212    2.238006   -1.363973
  H      3.839884    0.774028   -0.508613
  H      1.413353    2.117914    0.030295
  H     -3.433059   -0.891018    0.914570
  H     -1.497128   -2.382814    2.014391
  H      0.106321   -3.077919   -0.056420
  H     -2.881053   -0.889682   -1.726354
  H     -0.634177    0.060390   -2.035895

 Total Charge           Charge          ....    0
 Multiplicity           Mult            ....    1
 Number of Electrons    NEL             ....  152
 Basis Dimension        Dim             .... 1246

ORBITAL ENERGIES
----------------

  NO   OCC          E(Eh)            E(eV)
   0   2.0000     -91.951370     -2502.1240
   1   2.0000     -20.613793      -560.9298
   2   2.0000     -20.601745      -560.6020
   3   2.0000     -20.570935      -559.7636
   4   2.0000     -20.548206      -559.1451
   5   2.0000     -20.542099      -558.9789
   6   2.0000     -20.541868      -558.9726
   7   2.0000     -11.394016      -310.0470
   8   2.0000     -11.382782      -309.7412
   9   2.0000     -11.311176      -307.7927
  10   2.0000     -11.304866      -307.6210
  11   2.0000     -11.298834      -307.4569
  12   2.0000     -11.289460      -307.2018
  13   2.0000     -11.279061      -306.9189
  14   2.0000     -11.273893      -306.7782
  15   2.0000     -11.266783      -306.5847
  16   2.0000     -11.256374      -306.3015
  17   2.0000     -11.240872      -305.8797
  18   2.0000     -11.237945      -305.8000
  19   2.0000      -8.951612      -243.5858
  20   2.0000      -6.632802      -180.4877
  21   2.0000      -6.631757      -180.4593
  22   2.0000      -6.630856      -180.4348
  23   2.0000      -1.478279       -40.2260
  24   2.0000      -1.468401       -39.9572
  25   2.0000      -1.420238       -38.6467
  26   2.0000      -1.372264       -37.3412
  27   2.0000      -1.363773       -37.1101
  28   2.0000      -1.351639       -36.7800
  29   2.0000      -1.133674       -30.8488
  30   2.0000      -1.081361       -29.4253
  31   2.0000      -1.055450       -28.7203
  32   2.0000      -1.033808       -28.1313
  33   2.0000      -0.980867       -26.6908
  34   2.0000      -0.973006       -26.4768
  35   2.0000      -0.924732       -25.1632
  36   2.0000      -0.871907       -23.7258
  37   2.0000      -0.832548       -22.6548
  38   2.0000      -0.817813       -22.2538
  39   2.0000      -0.790557       -21.5121
  40   2.0000      -0.774818       -21.0839
  41   2.0000      -0.764291       -20.7974
  42   2.0000      -0.743768       -20.2390
  43   2.0000      -0.723821       -19.6962
  44   2.0000      -0.697323       -18.9751
  45   2.0000      -0.686889       -18.6912
  46   2.0000      -0.678512       -18.4632
  47   2.0000      -0.676159       -18.3992
  48   2.0000      -0.670484       -18.2448
  49   2.0000      -0.652030       -17.7426
  50   2.0000      -0.645112       -17.5544
  51   2.0000      -0.624905       -17.0045
  52   2.0000      -0.622889       -16.9497
  53   2.0000      -0.602971       -16.4077
  54   2.0000      -0.585148       -15.9227
  55   2.0000      -0.581731       -15.8297
  56   2.0000      -0.569229       -15.4895
  57   2.0000      -0.566719       -15.4212
  58   2.0000      -0.556081       -15.1317
  59   2.0000      -0.549362       -14.9489
  60   2.0000      -0.540361       -14.7040
  61   2.0000      -0.535150       -14.5622
  62   2.0000      -0.529548       -14.4097
  63   2.0000      -0.519388       -14.1333
  64   2.0000      -0.512075       -13.9343
  65   2.0000      -0.496284       -13.5046
  66   2.0000      -0.477695       -12.9987
  67   2.0000      -0.473812       -12.8931
  68   2.0000      -0.464815       -12.6483
  69   2.0000      -0.460150       -12.5213
  70   2.0000      -0.457672       -12.4539
  71   2.0000      -0.443289       -12.0625
  72   2.0000      -0.439239       -11.9523
  73   2.0000      -0.416368       -11.3300
  74   2.0000      -0.367483        -9.9997
  75   2.0000      -0.343731        -9.3534
  76   0.0000       0.024184         0.6581
  77   0.0000       0.029491         0.8025
  78   0.0000       0.031381         0.8539
  79   0.0000       0.035432         0.9642
  80   0.0000       0.041140         1.1195

MULLIKEN ATOMIC CHARGES
-----------------------
   0 C :    1.842631
   1 C :    1.162731
   2 C :    0.103833
   3 O :   -1.103542
   4 C :   -0.857077
   5 C :   -0.968210
   6 C :    0.258817
   7 C :    0.321831
   8 C :    0.963370
   9 O :   -0.440588
  10 O :   -1.144837
  11 O :   -1.180130
  12 O :   -0.651169
  13 C :   -1.185236
  14 C :   -1.131946
  15 S :   -0.791732
  16 C :   -0.497139
  17 C :   -0.373650
  18 O :   -0.731720
  19 H :    0.354413
  20 H :    0.399717
  21 H :    0.437200
  22 H :    0.334972
  23 H :    0.407963
  24 H :    0.430088
  25 H :    0.274021
  26 H :    0.283598
  27 H :    0.303838
  28 H :    0.306535
  29 H :    0.327743
  30 H :    0.596016
  31 H :    0.680655
  32 H :    0.548557
  33 H :    0.497634
  34 H :    0.220813
Sum of atomic charges:   -0.0000000

LOEWDIN ATOMIC CHARGES
----------------------
   0 C :   -0.568377
   1 C :   -0.936432
   2 C :   -0.301155
   3 O :    0.600987
   4 C :    0.243989
   5 C :    0.257705
   6 C :   -0.220834
   7 C :   -0.036943
   8 C :   -0.830747
   9 O :    0.591991
  10 O :    0.547470
  11 O :    0.520312
  12 O :    0.574151
  13 C :    0.370655
  14 C :    0.379254
  15 S :    1.317745
  16 C :   -0.039252
  17 C :   -0.023870
  18 O :    0.828685
  19 H :   -0.180419
  20 H :   -0.179483
  21 H :   -0.181804
  22 H :   -0.180878
  23 H :   -0.179419
  24 H :   -0.170873
  25 H :   -0.242360
  26 H :   -0.222741
  27 H :   -0.154719
  28 H :   -0.174358
  29 H :   -0.638817
  30 H :   -0.160928
  31 H :   -0.156767
  32 H :   -0.145704
  33 H :   -0.122636
  34 H :   -0.183428

  Mayer bond orders larger than 0.100000
B(  0-C ,  1-C ) :   0.3889 B(  0-C ,  2-C ) :   0.9475 B(  0-C ,  7-C ) :   0.6914
B(  0-C ,  8-C ) :   0.2273 B(  0-C , 10-O ) :  -0.1566 B(  0-C , 12-O ) :  -0.3347
B(  0-C , 15-S ) :   0.3134 B(  0-C , 18-O ) :  -0.2103 B(  1-C ,  5-C ) :   0.1187
B(  1-C ,  7-C ) :   0.1076 B(  1-C ,  8-C ) :  -0.1452 B(  1-C , 10-O ) :   0.1342
B(  1-C , 11-O ) :   0.5684 B(  1-C , 12-O ) :   0.7890 B(  1-C , 15-S ) :  -0.2771
B(  2-C ,  3-O ) :   0.6224 B(  2-C ,  4-C ) :   0.8689 B(  2-C ,  5-C ) :  -0.1017
B(  2-C ,  6-C ) :   0.2219 B(  2-C , 12-O ) :   0.1141 B(  2-C , 32-H ) :   0.7868
B(  3-O ,  6-C ) :   0.5851 B(  3-O ,  7-C ) :   0.1507 B(  3-O , 32-H ) :  -0.1388
B(  4-C ,  5-C ) :   1.6776 B(  4-C , 31-H ) :   0.4112 B(  5-C ,  6-C ) :   1.0257
B(  5-C ,  7-C ) :   0.3349 B(  5-C , 30-H ) :   0.5928 B(  6-C ,  7-C ) :   1.1256
B(  6-C ,  8-C ) :  -0.1705 B(  6-C , 33-H ) :   0.7989 B(  7-C ,  8-C ) :   0.4389
B(  7-C ,  9-O ) :  -0.1576 B(  7-C , 10-O ) :  -0.1854 B(  7-C , 15-S ) :   0.2031
B(  7-C , 18-O ) :   0.1352 B(  7-C , 34-H ) :   0.9744 B(  8-C ,  9-O ) :   0.7666
B(  8-C , 10-O ) :   0.9573 B(  9-O , 14-C ) :   1.0105 B( 12-O , 13-C ) :   1.0772
B( 13-C , 19-H ) :   0.9288 B( 13-C , 20-H ) :   0.8716 B( 13-C , 21-H ) :   0.8289
B( 14-C , 22-H ) :   0.9584 B( 14-C , 23-H ) :   0.8575 B( 14-C , 24-H ) :   0.8100
B( 15-S , 16-C ) :   0.9188 B( 16-C , 17-C ) :   0.9109 B( 16-C , 25-H ) :   0.9320
B( 16-C , 26-H ) :   0.9109 B( 17-C , 18-O ) :   0.9397 B( 17-C , 27-H ) :   0.9369
B( 17-C , 28-H ) :   0.9618 B( 18-O , 29-H ) :   0.7825

MP2 TOTAL ENERGY:    -1314.371495333 Eh
FINAL SINGLE POINT ENERGY     -1314.371495333365

DIPOLE MOMENT
-------------
                                X             Y             Z
Electronic contribution:     -2.62589      -7.51424      -3.80862
Nuclear contribution   :      2.04808       7.87696       4.07242
                        -----------------------------------------
Total Dipole Moment    :     -0.57781       0.36272       0.26380
                        -----------------------------------------
Magnitude (a.u.)       :      0.73145
Magnitude (Debye)      :      1.85920

Rotational constants in cm-1:     0.014983     0.012208     0.010582
Rotational constants in MHz :   449.192199   365.981566   317.239424

                             ****ORCA TERMINATED NORMALLY****
TOTAL RUN TIME: 0 days 0 hours 42 minutes 55 seconds 859 msec
