                         Program Version 4.2.1 -  RELEASE  -
|  1> %pal
|  2>  nprocs 32
|  3> end
|  4> !RI-MP2 aug-cc-pVTZ aug-cc-pVTZ/C TightSCF
|  5> %maxcore 4500
|  6> *xyzfile 0 1  06_14R.xyz
|  7>
|  8>
|  9>                          ****END OF INPUT****

CARTESIAN COORDINATES (ANGSTROEM)
---------------------------------
  C      0.755081   -0.482080    0.964817
  H     -0.180782   -0.604220    1.516197
  B      0.562057    0.151105   -0.449731
  C      1.367236   -1.887745    0.751810
  H      0.588943   -2.525137    0.316154
  H      1.611484   -2.334717    1.721695
  C      1.652280    0.495338    1.764258
  H      1.059261    1.393340    1.973959
  C     -4.608805   -1.909847    0.192944
  H     -4.277445   -2.801491   -0.328607
  H     -5.572431   -1.956189    0.683523
  C     -3.864263   -0.805839    0.229827
  C     -2.567182   -0.674050   -0.406890
  H     -4.224723    0.066409    0.765025
  H      1.890905    0.060180    2.740844
  C     -1.818405    0.425801   -0.338863
  O     -0.629396    0.552413   -0.998201
  O     -2.164491    1.500947    0.395819
  C     -1.970286    2.779710   -0.207449
  H     -0.914696    2.971387   -0.401424
  H     -2.531462    2.849278   -1.142724
  H     -2.352348    3.504901    0.506695
  C      2.953978    0.915715    1.064300
  H      3.374708    1.775113    1.594768
  H      3.696020    0.124572    1.163823
  C      1.895539    0.323109   -1.239772
  H      1.737225    0.765169   -2.227786
  C      2.786646    1.285658   -0.417883
  H      2.341794    2.286056   -0.480440
  H      3.774436    1.368157   -0.884633
  C      2.490776   -1.092172   -1.435235
  H      3.474985   -1.019286   -1.911039
  H      1.851528   -1.625451   -2.148598
  C      2.607124   -1.934637   -0.155220
  H      2.795103   -2.974941   -0.436752
  H      3.486431   -1.625859    0.408824
  H     -2.166436   -1.513443   -0.961667

 Total Charge           Charge          ....    0
 Multiplicity           Mult            ....    1
 Number of Electrons    NEL             ....  120
 Basis Dimension        Dim             .... 1219

ORBITAL ENERGIES
----------------

  NO   OCC          E(Eh)            E(eV)
   0   2.0000     -20.591648      -560.3272
   1   2.0000     -20.587601      -560.2171
   2   2.0000     -11.352799      -308.9254
   3   2.0000     -11.288200      -307.1675
   4   2.0000     -11.229913      -305.5815
   5   2.0000     -11.220985      -305.3385
   6   2.0000     -11.220295      -305.3198
   7   2.0000     -11.219710      -305.3038
   8   2.0000     -11.219597      -305.3008
   9   2.0000     -11.215333      -305.1847
  10   2.0000     -11.215292      -305.1836
  11   2.0000     -11.214571      -305.1640
  12   2.0000     -11.211567      -305.0823
  13   2.0000     -11.194688      -304.6230
  14   2.0000     -11.194211      -304.6100
  15   2.0000      -7.603829      -206.9107
  16   2.0000      -1.454586       -39.5813
  17   2.0000      -1.374625       -37.4055
  18   2.0000      -1.116201       -30.3734
  19   2.0000      -1.084640       -29.5146
  20   2.0000      -1.042869       -28.3779
  21   2.0000      -1.029002       -28.0006
  22   2.0000      -1.004548       -27.3352
  23   2.0000      -0.940058       -25.5803
  24   2.0000      -0.933402       -25.3992
  25   2.0000      -0.915281       -24.9061
  26   2.0000      -0.837759       -22.7966
  27   2.0000      -0.793818       -21.6009
  28   2.0000      -0.787217       -21.4213
  29   2.0000      -0.764698       -20.8085
  30   2.0000      -0.750013       -20.4089
  31   2.0000      -0.722408       -19.6577
  32   2.0000      -0.694609       -18.9013
  33   2.0000      -0.675897       -18.3921
  34   2.0000      -0.666429       -18.1344
  35   2.0000      -0.638993       -17.3879
  36   2.0000      -0.621058       -16.8999
  37   2.0000      -0.615115       -16.7381
  38   2.0000      -0.599041       -16.3007
  39   2.0000      -0.588789       -16.0218
  40   2.0000      -0.580468       -15.7953
  41   2.0000      -0.578272       -15.7356
  42   2.0000      -0.567705       -15.4480
  43   2.0000      -0.562615       -15.3095
  44   2.0000      -0.546428       -14.8691
  45   2.0000      -0.543276       -14.7833
  46   2.0000      -0.519953       -14.1486
  47   2.0000      -0.505657       -13.7596
  48   2.0000      -0.502422       -13.6716
  49   2.0000      -0.493724       -13.4349
  50   2.0000      -0.486084       -13.2270
  51   2.0000      -0.478336       -13.0162
  52   2.0000      -0.474040       -12.8993
  53   2.0000      -0.465614       -12.6700
  54   2.0000      -0.459364       -12.4999
  55   2.0000      -0.424580       -11.5534
  56   2.0000      -0.421882       -11.4800
  57   2.0000      -0.418922       -11.3994
  58   2.0000      -0.384465       -10.4618
  59   2.0000      -0.298761        -8.1297
  60   0.0000       0.023348         0.6353
  61   0.0000       0.029367         0.7991
  62   0.0000       0.031247         0.8503
  63   0.0000       0.033649         0.9156
  64   0.0000       0.039901         1.0858

MULLIKEN ATOMIC CHARGES
-----------------------
   0 C :    0.447009
   1 H :    0.616798
   2 B :    0.506057
   3 C :   -0.906070
   4 H :    0.081706
   5 H :    0.233218
   6 C :   -0.928507
   7 H :    0.097026
   8 C :   -1.249365
   9 H :    0.327184
  10 H :    0.394549
  11 C :    0.069120
  12 C :   -0.280264
  13 H :    0.278955
  14 H :    0.241853
  15 C :    1.267869
  16 O :   -0.608408
  17 O :   -0.759029
  18 C :   -1.107593
  19 H :    0.511301
  20 H :    0.361743
  21 H :    0.340132
  22 C :   -0.418911
  23 H :    0.390563
  24 H :    0.144591
  25 C :    0.418408
  26 H :    0.354835
  27 C :   -0.818117
  28 H :    0.077333
  29 H :    0.231009
  30 C :   -0.877202
  31 H :    0.271343
  32 H :    0.025610
  33 C :   -0.394323
  34 H :    0.365939
  35 H :    0.137263
  36 H :    0.156374
Sum of atomic charges:    0.0000000

LOEWDIN ATOMIC CHARGES
----------------------
   0 C :    0.136452
   1 H :   -0.143593
   2 B :   -0.682114
   3 C :    0.330123
   4 H :   -0.132559
   5 H :   -0.129635
   6 C :    0.330205
   7 H :   -0.131998
   8 C :    0.511522
   9 H :   -0.226630
  10 H :   -0.234191
  11 C :    0.131881
  12 C :    0.177028
  13 H :   -0.199346
  14 H :   -0.129662
  15 C :   -0.659103
  16 O :    0.674943
  17 O :    0.578345
  18 C :    0.374195
  19 H :   -0.182069
  20 H :   -0.164171
  21 H :   -0.179114
  22 C :    0.322803
  23 H :   -0.134942
  24 H :   -0.178677
  25 C :    0.134969
  26 H :   -0.133417
  27 C :    0.323955
  28 H :   -0.134678
  29 H :   -0.131333
  30 C :    0.326102
  31 H :   -0.131545
  32 H :   -0.132522
  33 C :    0.323191
  34 H :   -0.134952
  35 H :   -0.178783
  36 H :   -0.190680

  Mayer bond orders larger than 0.100000
B(  0-C ,  1-H ) :   0.7719 B(  0-C ,  2-B ) :   1.2333 B(  0-C ,  3-C ) :   0.6876
B(  0-C ,  6-C ) :   0.6944 B(  0-C , 12-C ) :   0.1207 B(  0-C , 15-C ) :  -0.1191
B(  1-H ,  2-B ) :  -0.1878 B(  1-H ,  3-C ) :  -0.2348 B(  1-H ,  6-C ) :  -0.2481
B(  2-B ,  3-C ) :   0.1815 B(  2-B ,  6-C ) :   0.1978 B(  2-B , 12-C ) :  -0.1482
B(  2-B , 15-C ) :   0.1410 B(  2-B , 16-O ) :  -0.3334 B(  2-B , 17-O ) :   0.2235
B(  2-B , 25-C ) :   1.2085 B(  3-C ,  4-H ) :   1.1749 B(  3-C ,  5-H ) :   1.0314
B(  3-C , 30-C ) :   0.1376 B(  3-C , 33-C ) :   0.9112 B(  6-C ,  7-H ) :   1.1609
B(  6-C , 14-H ) :   1.0329 B(  6-C , 22-C ) :   0.9167 B(  6-C , 27-C ) :   0.1303
B(  8-C ,  9-H ) :   1.0251 B(  8-C , 10-H ) :   0.8600 B(  8-C , 11-C ) :   1.0861
B(  8-C , 15-C ) :   0.1821 B( 11-C , 12-C ) :   0.3832 B( 11-C , 13-H ) :   1.0826
B( 11-C , 15-C ) :   0.1881 B( 12-C , 15-C ) :   1.4004 B( 12-C , 17-O ) :  -0.1684
B( 12-C , 36-H ) :   1.2909 B( 15-C , 16-O ) :   0.2519 B( 15-C , 17-O ) :   0.5046
B( 15-C , 18-C ) :  -0.1446 B( 15-C , 36-H ) :  -0.1038 B( 16-O , 17-O ) :  -0.2846
B( 16-O , 25-C ) :  -0.2745 B( 17-O , 18-C ) :   1.1331 B( 18-C , 19-H ) :   0.7126
B( 18-C , 20-H ) :   0.9031 B( 18-C , 21-H ) :   0.9565 B( 22-C , 23-H ) :   0.8481
B( 22-C , 24-H ) :   1.1043 B( 22-C , 27-C ) :   0.9230 B( 25-C , 26-H ) :   0.8347
B( 25-C , 27-C ) :   0.8090 B( 25-C , 30-C ) :   0.7365 B( 26-H , 27-C ) :  -0.1400
B( 26-H , 30-C ) :  -0.1552 B( 27-C , 28-H ) :   1.1585 B( 27-C , 29-H ) :   1.0035
B( 30-C , 31-H ) :   0.9734 B( 30-C , 32-H ) :   1.2448 B( 30-C , 33-C ) :   0.9067
B( 30-C , 35-H ) :   0.1078 B( 33-C , 34-H ) :   0.8857 B( 33-C , 35-H ) :   1.0876

MP2 TOTAL ENERGY:     -681.954207588 Eh
FINAL SINGLE POINT ENERGY      -681.954207588024

DIPOLE MOMENT
-------------
                                X             Y             Z
Electronic contribution:     -8.66846       2.43776      -2.91942
Nuclear contribution   :      9.17937      -1.95101       2.88801
                        -----------------------------------------
Total Dipole Moment    :      0.51091       0.48675      -0.03141
                        -----------------------------------------
Magnitude (a.u.)       :      0.70636
Magnitude (Debye)      :      1.79542

Rotational constants in cm-1:     0.028297     0.011236     0.009705
Rotational constants in MHz :   848.314991   336.843939   290.938188

                             ****ORCA TERMINATED NORMALLY****
TOTAL RUN TIME: 0 days 0 hours 38 minutes 8 seconds 344 msec
