                         Program Version 4.2.1 -  RELEASE  -
|  1> %pal
|  2>  nprocs 32
|  3> end
|  4> !RI-MP2 aug-cc-pVTZ aug-cc-pVTZ/C TightSCF
|  5> %maxcore 4500
|  6> *xyzfile 0 1  10_2P1.xyz
|  7>
|  8>
|  9>                          ****END OF INPUT****

CARTESIAN COORDINATES (ANGSTROEM)
---------------------------------
  C      2.748727    0.505710    1.014528
  C      1.273723    0.878686    0.873513
  C      0.375057   -0.242331    0.248976
  C      1.113037   -0.765022   -0.974236
  C      2.508231   -1.273694   -0.724098
  C      3.371897   -0.094125   -0.244713
  C     -0.943791    0.499791   -0.062211
  C     -0.526818    1.953661   -0.289327
  C      0.950584    2.105223    0.027862
  O     -1.244316    2.835176   -0.673645
  C      0.033483   -1.311287    1.305489
  C     -1.073985   -0.658457    2.148849
  C     -1.845148    0.273568    1.210694
  N     -3.119394   -0.256127    0.667970
  O     -3.191015    0.486257   -0.549341
  C     -1.950030    0.043652   -1.140339
  C     -2.157059   -1.469614   -1.155932
  C     -2.991200   -1.630451    0.136349
  O      0.665426   -0.668451   -2.093286
  C      4.814454   -0.522033   -0.008391
  H      0.889031    1.071917    1.878865
  H      1.488093    2.096925   -0.926873
  H      1.152410    3.060344    0.512191
  H      2.856062   -0.221276    1.827667
  H      3.312620    1.390368    1.324774
  H      0.899169   -1.587780    1.909636
  H     -0.324490   -2.224858    0.828391
  H      2.894849   -1.701632   -1.649052
  H      2.500631   -2.048737    0.049727
  H      3.366489    0.660817   -1.039183
  H      4.869257   -1.288530    0.770198
  H      5.426815    0.324179    0.311332
  H      5.258671   -0.933985   -0.916863
  H     -1.727366   -1.386401    2.630262
  H     -0.633401   -0.068701    2.953424
  H     -1.233290   -2.039367   -1.163411
  H     -2.729555   -1.751896   -2.038767
  H     -2.549317   -2.291928    0.878562
  H     -3.998133   -1.986561   -0.072457
  H     -1.826456    0.520099   -2.105488
  H     -2.104061    1.216370    1.689366

 Total Charge           Charge          ....    0
 Multiplicity           Mult            ....    1
 Number of Electrons    NEL             ....  148
 Basis Dimension        Dim             .... 1403

ORBITAL ENERGIES
----------------

  NO   OCC          E(Eh)            E(eV)
   0   2.0000     -20.573449      -559.8320
   1   2.0000     -20.559876      -559.4627
   2   2.0000     -20.543292      -559.0114
   3   2.0000     -15.605300      -424.6418
   4   2.0000     -11.339406      -308.5609
   5   2.0000     -11.325342      -308.1782
   6   2.0000     -11.280536      -306.9590
   7   2.0000     -11.269721      -306.6647
   8   2.0000     -11.263010      -306.4821
   9   2.0000     -11.258272      -306.3532
  10   2.0000     -11.255277      -306.2717
  11   2.0000     -11.251877      -306.1791
  12   2.0000     -11.250681      -306.1466
  13   2.0000     -11.247135      -306.0501
  14   2.0000     -11.245696      -306.0109
  15   2.0000     -11.245279      -305.9996
  16   2.0000     -11.243335      -305.9467
  17   2.0000     -11.240498      -305.8695
  18   2.0000     -11.233416      -305.6768
  19   2.0000     -11.221972      -305.3654
  20   2.0000      -1.432101       -38.9694
  21   2.0000      -1.406329       -38.2682
  22   2.0000      -1.389678       -37.8151
  23   2.0000      -1.194938       -32.5159
  24   2.0000      -1.144704       -31.1490
  25   2.0000      -1.116775       -30.3890
  26   2.0000      -1.073100       -29.2005
  27   2.0000      -1.053789       -28.6750
  28   2.0000      -1.027922       -27.9712
  29   2.0000      -1.009062       -27.4580
  30   2.0000      -0.970081       -26.3972
  31   2.0000      -0.959533       -26.1102
  32   2.0000      -0.876713       -23.8566
  33   2.0000      -0.857890       -23.3444
  34   2.0000      -0.833425       -22.6786
  35   2.0000      -0.817261       -22.2388
  36   2.0000      -0.801115       -21.7994
  37   2.0000      -0.780200       -21.2303
  38   2.0000      -0.745606       -20.2890
  39   2.0000      -0.726161       -19.7598
  40   2.0000      -0.706021       -19.2118
  41   2.0000      -0.683802       -18.6072
  42   2.0000      -0.676212       -18.4007
  43   2.0000      -0.665758       -18.1162
  44   2.0000      -0.656587       -17.8666
  45   2.0000      -0.643624       -17.5139
  46   2.0000      -0.634375       -17.2622
  47   2.0000      -0.630689       -17.1619
  48   2.0000      -0.611137       -16.6299
  49   2.0000      -0.599961       -16.3258
  50   2.0000      -0.596337       -16.2272
  51   2.0000      -0.581632       -15.8270
  52   2.0000      -0.574888       -15.6435
  53   2.0000      -0.566919       -15.4266
  54   2.0000      -0.562612       -15.3095
  55   2.0000      -0.549629       -14.9562
  56   2.0000      -0.546268       -14.8647
  57   2.0000      -0.538549       -14.6547
  58   2.0000      -0.527726       -14.3602
  59   2.0000      -0.523265       -14.2388
  60   2.0000      -0.511937       -13.9305
  61   2.0000      -0.508336       -13.8325
  62   2.0000      -0.499870       -13.6021
  63   2.0000      -0.499246       -13.5852
  64   2.0000      -0.494487       -13.4557
  65   2.0000      -0.484430       -13.1820
  66   2.0000      -0.475739       -12.9455
  67   2.0000      -0.467280       -12.7153
  68   2.0000      -0.456363       -12.4183
  69   2.0000      -0.453976       -12.3533
  70   2.0000      -0.433048       -11.7838
  71   2.0000      -0.412838       -11.2339
  72   2.0000      -0.393207       -10.6997
  73   2.0000      -0.382287       -10.4025
  74   0.0000       0.016328         0.4443
  75   0.0000       0.024062         0.6548
  76   0.0000       0.025350         0.6898
  77   0.0000       0.031819         0.8658
  78   0.0000       0.038292         1.0420

MULLIKEN ATOMIC CHARGES
-----------------------
   0 C :   -0.704565
   1 C :   -0.430749
   2 C :    3.024873
   3 C :    0.566756
   4 C :   -0.717672
   5 C :    0.331791
   6 C :    1.416067
   7 C :    0.041181
   8 C :   -0.767412
   9 O :   -1.405011
  10 C :   -0.683338
  11 C :   -0.776581
  12 C :    0.080151
  13 N :   -0.819989
  14 O :   -0.999129
  15 C :   -0.169328
  16 C :   -0.786189
  17 C :   -0.377992
  18 O :   -1.512686
  19 C :   -1.285215
  20 H :    0.453343
  21 H :    0.208840
  22 H :    0.232816
  23 H :    0.104847
  24 H :    0.436966
  25 H :    0.532018
  26 H :    0.066124
  27 H :    0.457545
  28 H :    0.024530
  29 H :    0.263505
  30 H :    0.251473
  31 H :    0.229779
  32 H :    0.244124
  33 H :    0.243739
  34 H :    0.194152
  35 H :    0.179471
  36 H :    0.331577
  37 H :    0.179489
  38 H :    0.467838
  39 H :    0.447126
  40 H :    0.425735
Sum of atomic charges:   -0.0000000

LOEWDIN ATOMIC CHARGES
----------------------
   0 C :    0.332796
   1 C :    0.035020
   2 C :   -0.226045
   3 C :   -0.456869
   4 C :    0.325772
   5 C :   -0.025418
   6 C :   -0.207013
   7 C :   -0.455113
   8 C :    0.351063
   9 O :    0.509550
  10 C :    0.344565
  11 C :    0.353194
  12 C :   -0.058248
  13 N :    0.143422
  14 O :    0.516833
  15 C :   -0.206206
  16 C :    0.341444
  17 C :    0.202584
  18 O :    0.544819
  19 C :    0.605098
  20 H :   -0.130387
  21 H :   -0.133331
  22 H :   -0.125366
  23 H :   -0.133049
  24 H :   -0.119834
  25 H :   -0.131431
  26 H :   -0.154922
  27 H :   -0.138378
  28 H :   -0.134923
  29 H :   -0.123491
  30 H :   -0.156066
  31 H :   -0.156486
  32 H :   -0.157198
  33 H :   -0.136947
  34 H :   -0.141229
  35 H :   -0.188013
  36 H :   -0.132995
  37 H :   -0.178986
  38 H :   -0.142679
  39 H :   -0.131321
  40 H :   -0.124218

  Mayer bond orders larger than 0.100000
B(  0-C ,  1-C ) :   0.7033 B(  0-C ,  2-C ) :  -0.2200 B(  0-C ,  3-C ) :   0.1095
B(  0-C ,  5-C ) :   0.9858 B(  0-C , 20-H ) :  -0.1156 B(  0-C , 23-H ) :   1.2947
B(  0-C , 24-H ) :   0.7799 B(  0-C , 29-H ) :   0.1304 B(  1-C ,  2-C ) :   0.5046
B(  1-C ,  3-C ) :   0.1601 B(  1-C ,  6-C ) :   0.1518 B(  1-C ,  7-C ) :   0.3258
B(  1-C ,  8-C ) :   1.0143 B(  1-C , 20-H ) :   0.9562 B(  2-C ,  3-C ) :   0.4475
B(  2-C ,  4-C ) :  -0.4700 B(  2-C ,  5-C ) :   0.1111 B(  2-C ,  6-C ) :   0.6648
B(  2-C ,  7-C ) :  -0.1362 B(  2-C ,  8-C ) :  -0.1133 B(  2-C , 10-C ) :   0.6192
B(  2-C , 11-C ) :  -0.1476 B(  2-C , 14-O ) :  -0.1366 B(  2-C , 16-C ) :  -0.1528
B(  2-C , 18-O ) :   0.3405 B(  2-C , 19-C ) :  -0.1138 B(  2-C , 23-H ) :  -0.1289
B(  2-C , 26-H ) :  -0.1049 B(  2-C , 28-H ) :  -0.1734 B(  2-C , 34-H ) :  -0.1176
B(  3-C ,  4-C ) :   1.4815 B(  3-C ,  6-C ) :  -0.1686 B(  3-C ,  7-C ) :  -0.2441
B(  3-C , 10-C ) :  -0.5430 B(  3-C , 18-O ) :  -0.1843 B(  4-C ,  5-C ) :   0.8260
B(  4-C , 10-C ) :  -0.1168 B(  4-C , 18-O ) :   0.1863 B(  4-C , 27-H ) :   0.6796
B(  4-C , 28-H ) :   1.3057 B(  5-C , 19-C ) :   0.5145 B(  5-C , 29-H ) :   0.8678
B(  5-C , 30-H ) :  -0.1437 B(  6-C ,  7-C ) :   0.3799 B(  6-C ,  8-C ) :   0.1155
B(  6-C ,  9-O ) :  -0.3770 B(  6-C , 12-C ) :   0.8390 B(  6-C , 14-O ) :  -0.2130
B(  6-C , 15-C ) :   0.2096 B(  6-C , 16-C ) :   0.2018 B(  7-C ,  8-C ) :   1.0447
B(  7-C ,  9-O ) :   0.3140 B(  7-C , 12-C ) :  -0.1988 B(  7-C , 20-H ) :  -0.1225
B(  8-C , 20-H ) :  -0.1743 B(  8-C , 21-H ) :   1.0630 B(  8-C , 22-H ) :   1.0028
B(  9-O , 12-C ) :   0.1415 B(  9-O , 15-C ) :   0.2737 B( 10-C , 11-C ) :   1.0950
B( 10-C , 25-H ) :   0.7390 B( 10-C , 26-H ) :   1.3344 B( 11-C , 12-C ) :   0.9348
B( 11-C , 13-N ) :   0.1356 B( 11-C , 25-H ) :  -0.2038 B( 11-C , 26-H ) :   0.1861
B( 11-C , 33-H ) :   1.0641 B( 11-C , 34-H ) :   1.0541 B( 12-C , 15-C ) :   0.3839
B( 12-C , 40-H ) :   0.9409 B( 13-N , 14-O ) :   0.6794 B( 13-N , 16-C ) :   0.1851
B( 13-N , 17-C ) :   0.6587 B( 13-N , 38-H ) :  -0.1433 B( 13-N , 40-H ) :  -0.1576
B( 14-O , 15-C ) :   0.4830 B( 14-O , 16-C ) :   0.1635 B( 14-O , 39-H ) :  -0.1624
B( 15-C , 16-C ) :   0.7532 B( 15-C , 39-H ) :   0.9093 B( 16-C , 17-C ) :   1.0172
B( 16-C , 35-H ) :   1.0841 B( 16-C , 36-H ) :   0.8279 B( 17-C , 37-H ) :   1.1070
B( 17-C , 38-H ) :   0.7879 B( 19-C , 30-H ) :   1.1015 B( 19-C , 31-H ) :   1.0741
B( 19-C , 32-H ) :   1.0551

MP2 TOTAL ENERGY:     -901.020899931 Eh
FINAL SINGLE POINT ENERGY      -901.020899930784

DIPOLE MOMENT
-------------
                                X             Y             Z
Electronic contribution:    -15.48790       7.70794      -6.23801
Nuclear contribution   :     17.87796      -9.23694       7.67593
                        -----------------------------------------
Total Dipole Moment    :      2.39006      -1.52900       1.43792
                        -----------------------------------------
Magnitude (a.u.)       :      3.18086
Magnitude (Debye)      :      8.08509

Rotational constants in cm-1:     0.023120     0.009826     0.009182
Rotational constants in MHz :   693.106204   294.564907   275.258527

                             ****ORCA TERMINATED NORMALLY****
TOTAL RUN TIME: 0 days 1 hours 18 minutes 21 seconds 174 msec
