                         Program Version 4.2.1 -  RELEASE  -
|  1> %pal
|  2>  nprocs 32
|  3> end
|  4> !RI-MP2 aug-cc-pVTZ aug-cc-pVTZ/C TightSCF
|  5> %maxcore 4500
|  6> *xyzfile 0 2  06_15P.xyz
|  7>
|  8>
|  9>                          ****END OF INPUT****

CARTESIAN COORDINATES (ANGSTROEM)
---------------------------------
  Si     1.444292   -0.002664    0.049038
  C      1.563014   -1.428156   -1.177528
  C      2.251247   -2.684392   -0.634156
  C      0.553579    1.438578   -0.779833
  C      0.490299    2.724122    0.051159
  C      3.169690    0.535681    0.594089
  C      4.065672    1.035093   -0.544500
  C      0.474312   -0.576709    1.585594
  C     -0.874172   -1.080415    1.235355
  C     -2.074053   -0.198758    1.184682
  C     -3.020487   -0.509214    0.024277
  C     -5.187683    0.073445   -1.169138
  C     -4.253325    0.386936   -0.006301
  H      0.548424   -1.673130   -1.508570
  H      2.088224   -1.072770   -2.070718
  H      1.721699   -3.087181    0.233048
  H      2.296073   -3.478196   -1.383607
  H      3.277387   -2.476349   -0.319978
  H     -0.457674    1.110854   -1.041998
  H      1.051104    1.641238   -1.734628
  H     -0.049879    3.517595   -0.470862
  H     -0.015230    2.562995    1.006762
  H      1.489817    3.104780    0.275769
  H      3.650595   -0.305904    1.104184
  H      3.064889    1.316313    1.355311
  H      4.221558    0.260966   -1.300243
  H      3.626299    1.898186   -1.051452
  H      5.051078    1.338315   -0.182505
  H     -2.643966   -0.277321    2.125337
  H     -1.760076    0.849643    1.126498
  H     -2.474863   -0.411426   -0.921107
  H     -3.332968   -1.558021    0.086301
  H     -5.545260   -0.958496   -1.118572
  H     -6.061656    0.728310   -1.170307
  H     -4.677252    0.198320   -2.127915
  H     -3.935046    1.433747   -0.063147
  H     -4.796118    0.285428    0.939736
  H     -0.996974   -2.129367    0.985349
  H      1.076144   -1.348196    2.078052
  H      0.415014    0.269693    2.280538

 Total Charge           Charge          ....    0
 Multiplicity           Mult            ....    2
 Number of Electrons    NEL             ....  113
 Basis Dimension        Dim             .... 1223

ORBITAL ENERGIES
----------------
                 SPIN UP ORBITALS
  NO   OCC          E(Eh)            E(eV)
   0   1.0000     -68.739140     -1870.4871
   1   1.0000     -11.217677      -305.2485
   2   1.0000     -11.214900      -305.1729
   3   1.0000     -11.214771      -305.1694
   4   1.0000     -11.214471      -305.1613
   5   1.0000     -11.214309      -305.1569
   6   1.0000     -11.213799      -305.1430
   7   1.0000     -11.213703      -305.1404
   8   1.0000     -11.209238      -305.0189
   9   1.0000     -11.197823      -304.7083
  10   1.0000     -11.197453      -304.6982
  11   1.0000     -11.197190      -304.6910
  12   1.0000     -11.196207      -304.6643
  13   1.0000      -6.087795      -165.6573
  14   1.0000      -4.194492      -114.1379
  15   1.0000      -4.193432      -114.1091
  16   1.0000      -4.193395      -114.1081
  17   1.0000      -1.090431       -29.6721
  18   1.0000      -1.043173       -28.3862
  19   1.0000      -1.024908       -27.8892
  20   1.0000      -1.008554       -27.4442
  21   1.0000      -1.004208       -27.3259
  22   1.0000      -0.962549       -26.1923
  23   1.0000      -0.876552       -23.8522
  24   1.0000      -0.850555       -23.1448
  25   1.0000      -0.833388       -22.6776
  26   1.0000      -0.821864       -22.3641
  27   1.0000      -0.792884       -21.5755
  28   1.0000      -0.775282       -21.0965
  29   1.0000      -0.648687       -17.6517
  30   1.0000      -0.640330       -17.4243
  31   1.0000      -0.614394       -16.7185
  32   1.0000      -0.611303       -16.6344
  33   1.0000      -0.609776       -16.5929
  34   1.0000      -0.588326       -16.0092
  35   1.0000      -0.582530       -15.8515
  36   1.0000      -0.575130       -15.6501
  37   1.0000      -0.567473       -15.4417
  38   1.0000      -0.565196       -15.3798
  39   1.0000      -0.543431       -14.7875
  40   1.0000      -0.541066       -14.7232
  41   1.0000      -0.527397       -14.3512
  42   1.0000      -0.519300       -14.1309
  43   1.0000      -0.505446       -13.7539
  44   1.0000      -0.503383       -13.6977
  45   1.0000      -0.496917       -13.5218
  46   1.0000      -0.493444       -13.4273
  47   1.0000      -0.488564       -13.2945
  48   1.0000      -0.486155       -13.2289
  49   1.0000      -0.477159       -12.9842
  50   1.0000      -0.470169       -12.7940
  51   1.0000      -0.462813       -12.5938
  52   1.0000      -0.457195       -12.4409
  53   1.0000      -0.431118       -11.7313
  54   1.0000      -0.397139       -10.8067
  55   1.0000      -0.396607       -10.7922
  56   1.0000      -0.292211        -7.9515
  57   0.0000       0.024656         0.6709
  58   0.0000       0.029658         0.8070
  59   0.0000       0.030202         0.8218
  60   0.0000       0.031297         0.8516
  61   0.0000       0.039990         1.0882

                 SPIN DOWN ORBITALS
  NO   OCC          E(Eh)            E(eV)
   0   1.0000     -68.738412     -1870.4673
   1   1.0000     -11.217627      -305.2471
   2   1.0000     -11.214769      -305.1694
   3   1.0000     -11.214756      -305.1690
   4   1.0000     -11.214264      -305.1556
   5   1.0000     -11.213694      -305.1401
   6   1.0000     -11.212945      -305.1198
   7   1.0000     -11.209246      -305.0191
   8   1.0000     -11.200519      -304.7816
   9   1.0000     -11.197510      -304.6997
  10   1.0000     -11.196889      -304.6828
  11   1.0000     -11.196234      -304.6650
  12   1.0000     -11.193835      -304.5997
  13   1.0000      -6.086645      -165.6260
  14   1.0000      -4.193040      -114.0984
  15   1.0000      -4.192842      -114.0930
  16   1.0000      -4.192041      -114.0712
  17   1.0000      -1.078559       -29.3491
  18   1.0000      -1.032233       -28.0885
  19   1.0000      -1.013295       -27.5732
  20   1.0000      -1.008492       -27.4425
  21   1.0000      -1.003596       -27.3092
  22   1.0000      -0.957125       -26.0447
  23   1.0000      -0.870413       -23.6852
  24   1.0000      -0.850321       -23.1384
  25   1.0000      -0.832664       -22.6579
  26   1.0000      -0.821824       -22.3630
  27   1.0000      -0.789738       -21.4899
  28   1.0000      -0.735992       -20.0274
  29   1.0000      -0.643370       -17.5070
  30   1.0000      -0.634219       -17.2580
  31   1.0000      -0.612058       -16.6550
  32   1.0000      -0.609015       -16.5721
  33   1.0000      -0.606793       -16.5117
  34   1.0000      -0.586034       -15.9468
  35   1.0000      -0.576286       -15.6815
  36   1.0000      -0.570759       -15.5311
  37   1.0000      -0.565661       -15.3924
  38   1.0000      -0.563799       -15.3418
  39   1.0000      -0.538211       -14.6455
  40   1.0000      -0.535525       -14.5724
  41   1.0000      -0.524429       -14.2704
  42   1.0000      -0.516274       -14.0485
  43   1.0000      -0.503611       -13.7040
  44   1.0000      -0.497197       -13.5294
  45   1.0000      -0.494629       -13.4595
  46   1.0000      -0.492658       -13.4059
  47   1.0000      -0.488192       -13.2844
  48   1.0000      -0.482041       -13.1170
  49   1.0000      -0.476580       -12.9684
  50   1.0000      -0.465960       -12.6794
  51   1.0000      -0.460447       -12.5294
  52   1.0000      -0.450634       -12.2624
  53   1.0000      -0.409214       -11.1353
  54   1.0000      -0.396995       -10.8028
  55   1.0000      -0.394912       -10.7461
  56   0.0000       0.024680         0.6716
  57   0.0000       0.029668         0.8073
  58   0.0000       0.030241         0.8229
  59   0.0000       0.031395         0.8543
  60   0.0000       0.040018         1.0889

MULLIKEN ATOMIC CHARGES AND SPIN POPULATIONS
--------------------------------------------
   0 Si:    2.073904    0.067953
   1 C :   -0.688872   -0.001300
   2 C :   -1.175700   -0.000855
   3 C :   -0.664065    0.002017
   4 C :   -1.166266    0.000485
   5 C :   -0.754310    0.012169
   6 C :   -1.168567    0.000899
   7 C :   -0.232455   -0.252249
   8 C :   -0.994720    1.430970
   9 C :   -0.130444   -0.245565
  10 C :   -0.280935    0.066683
  11 C :   -1.008544   -0.000045
  12 C :   -0.536191    0.002490
  13 H :    0.295293   -0.011877
  14 H :    0.156907    0.000260
  15 H :    0.304191   -0.000643
  16 H :    0.261287    0.000298
  17 H :    0.285510   -0.000013
  18 H :    0.341002    0.002749
  19 H :    0.161671   -0.002082
  20 H :    0.278125   -0.000032
  21 H :    0.304010   -0.000304
  22 H :    0.246652    0.000269
  23 H :    0.244460   -0.002449
  24 H :    0.238855   -0.001952
  25 H :    0.252958   -0.000294
  26 H :    0.299145   -0.000985
  27 H :    0.269987    0.002270
  28 H :    0.411944    0.104434
  29 H :    0.163519   -0.012177
  30 H :    0.283583    0.007497
  31 H :    0.223955    0.000270
  32 H :    0.260138   -0.000015
  33 H :    0.279130    0.000433
  34 H :    0.264835    0.000125
  35 H :    0.253304   -0.000356
  36 H :    0.201269   -0.001289
  37 H :    0.126616   -0.264487
  38 H :    0.199673    0.080607
  39 H :    0.119143    0.016089
Sum of atomic charges         :   -0.0000000

LOEWDIN ATOMIC CHARGES AND SPIN POPULATIONS
-------------------------------------------
   0 Si:    0.538685    0.035420
   1 C :    0.279081    0.003268
   2 C :    0.525786    0.000250
   3 C :    0.284176    0.001594
   4 C :    0.528692    0.000319
   5 C :    0.277837    0.008510
   6 C :    0.524449    0.002041
   7 C :    0.275881    0.119935
   8 C :    0.229749    0.530373
   9 C :    0.237901    0.109966
  10 C :    0.255745    0.014579
  11 C :    0.576216    0.000385
  12 C :    0.253415    0.003176
  13 H :   -0.202293    0.002547
  14 H :   -0.203791    0.000096
  15 H :   -0.177559   -0.000046
  16 H :   -0.170686   -0.000016
  17 H :   -0.176524    0.000047
  18 H :   -0.215568    0.000611
  19 H :   -0.199296    0.000215
  20 H :   -0.167941    0.000002
  21 H :   -0.181375    0.000245
  22 H :   -0.177238    0.000081
  23 H :   -0.204509   -0.000014
  24 H :   -0.203649   -0.000005
  25 H :   -0.176511    0.000126
  26 H :   -0.177566    0.000112
  27 H :   -0.170608    0.000695
  28 H :   -0.137228    0.028166
  29 H :   -0.171063    0.004060
  30 H :   -0.146847    0.004084
  31 H :   -0.139276   -0.000071
  32 H :   -0.170058    0.000024
  33 H :   -0.172743    0.000189
  34 H :   -0.170029    0.000036
  35 H :   -0.144610    0.000144
  36 H :   -0.145337    0.000668
  37 H :   -0.176247    0.105450
  38 H :   -0.207260    0.011094
  39 H :   -0.201802    0.011644

  Mayer bond orders larger than 0.100000
B(  0-Si,  1-C ) :   0.4294 B(  0-Si,  3-C ) :   0.5982 B(  0-Si,  5-C ) :   0.8394
B(  0-Si,  7-C ) :   0.4474 B(  0-Si,  8-C ) :   0.3960 B(  0-Si, 18-H ) :   0.1120
B(  1-C ,  2-C ) :   0.9660 B(  1-C ,  3-C ) :   0.1080 B(  1-C ,  5-C ) :   0.1421
B(  1-C ,  7-C ) :   0.1417 B(  1-C , 13-H ) :   0.9336 B(  1-C , 14-H ) :   1.0324
B(  2-C , 15-H ) :   0.9501 B(  2-C , 16-H ) :   1.0106 B(  2-C , 17-H ) :   0.9629
B(  3-C ,  4-C ) :   0.9276 B(  3-C ,  7-C ) :   0.1363 B(  3-C , 18-H ) :   0.8421
B(  3-C , 19-H ) :   1.0255 B(  4-C , 20-H ) :   0.9850 B(  4-C , 21-H ) :   0.9685
B(  4-C , 22-H ) :   1.0039 B(  5-C ,  6-C ) :   0.9802 B(  5-C , 23-H ) :   0.9526
B(  5-C , 24-H ) :   0.9769 B(  6-C , 25-H ) :   0.9908 B(  6-C , 26-H ) :   0.9531
B(  6-C , 27-H ) :   1.0021 B(  7-C ,  8-C ) :   0.8252 B(  7-C , 38-H ) :   1.0758
B(  7-C , 39-H ) :   1.0337 B(  8-C ,  9-C ) :   0.5913 B(  8-C , 28-H ) :  -0.1712
B(  8-C , 29-H ) :   0.1391 B(  8-C , 37-H ) :   1.1239 B(  8-C , 38-H ) :  -0.1389
B(  9-C , 10-C ) :   0.8792 B(  9-C , 28-H ) :   0.8402 B(  9-C , 29-H ) :   1.0479
B( 10-C , 12-C ) :   0.8888 B( 10-C , 29-H ) :   0.1254 B( 10-C , 30-H ) :   0.9624
B( 10-C , 31-H ) :   0.9691 B( 11-C , 12-C ) :   0.9335 B( 11-C , 32-H ) :   0.9759
B( 11-C , 33-H ) :   0.9962 B( 11-C , 34-H ) :   0.9598 B( 12-C , 35-H ) :   0.9588
B( 12-C , 36-H ) :   1.0022

MP2 TOTAL ENERGY:     -761.493351774 Eh
FINAL SINGLE POINT ENERGY      -761.493351774296

DIPOLE MOMENT
-------------
                                X             Y             Z
Electronic contribution:      3.49310      -1.80369       3.02644
Nuclear contribution   :     -3.46514       1.85177      -3.05584
                        -----------------------------------------
Total Dipole Moment    :      0.02797       0.04809      -0.02941
                        -----------------------------------------
Magnitude (a.u.)       :      0.06292
Magnitude (Debye)      :      0.15994

Rotational constants in cm-1:     0.032776     0.010418     0.009341
Rotational constants in MHz :   982.584903   312.335687   280.040074

                             ****ORCA TERMINATED NORMALLY****
TOTAL RUN TIME: 0 days 0 hours 47 minutes 26 seconds 87 msec
