                         Program Version 4.2.1 -  RELEASE  -
|  1> %pal
|  2>  nprocs 32
|  3> end
|  4> !RI-MP2 aug-cc-pVTZ aug-cc-pVTZ/C TightSCF
|  5> %maxcore 4500
|  6> *xyzfile -1 1  09_17TS.xyz
|  7>
|  8>
|  9>                          ****END OF INPUT****

CARTESIAN COORDINATES (ANGSTROEM)
---------------------------------
  C     -1.431140   -0.110333    0.467065
  C     -0.174721   -0.291850    1.288666
  O      0.195515   -1.464937    1.510099
  C      0.569095    0.851074    1.644627
  C      2.020866    1.107926    0.155523
  C      2.068989    2.363944   -0.334492
  C      2.649158   -0.060041    0.168253
  O      3.531192   -0.424619   -0.847976
  C      3.183706   -1.660077   -1.425558
  H      1.291808    0.721998    2.441598
  H      0.110034    1.827180    1.594149
  H      1.186519    2.867493   -0.714389
  H      2.983359    2.943639   -0.270188
  H      2.472922   -0.827334    0.914231
  H      2.211515   -1.601088   -1.929609
  H      3.126053   -2.453380   -0.668774
  H      3.958809   -1.911091   -2.153177
  C     -1.780657    1.086528   -0.159221
  C     -2.944571    1.184834   -0.908620
  C     -3.787519    0.087960   -1.044104
  C     -3.444778   -1.112008   -0.432403
  C     -2.274915   -1.208997    0.306514
  H     -1.124065    1.942885   -0.078556
  H     -3.191064    2.121579   -1.397069
  H     -4.697925    0.166057   -1.628507
  H     -4.090460   -1.977677   -0.538630
  H     -1.972243   -2.137564    0.774442

 Total Charge           Charge          ....   -1
 Multiplicity           Mult            ....    1
 Number of Electrons    NEL             ....  102
 Basis Dimension        Dim             ....  943

ORBITAL ENERGIES
----------------

  NO   OCC          E(Eh)            E(eV)
   0   2.0000     -20.428615      -555.8909
   1   2.0000     -20.350874      -553.7754
   2   2.0000     -11.153532      -303.5030
   3   2.0000     -11.148089      -303.3549
   4   2.0000     -11.130168      -302.8673
   5   2.0000     -11.126007      -302.7540
   6   2.0000     -11.125739      -302.7468
   7   2.0000     -11.119584      -302.5793
   8   2.0000     -11.114976      -302.4539
   9   2.0000     -11.113743      -302.4203
  10   2.0000     -11.110481      -302.3316
  11   2.0000     -11.108737      -302.2841
  12   2.0000     -11.043146      -300.4993
  13   2.0000     -11.037619      -300.3489
  14   2.0000      -1.245546       -33.8930
  15   2.0000      -1.186720       -32.2923
  16   2.0000      -1.041874       -28.3508
  17   2.0000      -0.918505       -24.9938
  18   2.0000      -0.904542       -24.6138
  19   2.0000      -0.902353       -24.5543
  20   2.0000      -0.823703       -22.4141
  21   2.0000      -0.805113       -21.9082
  22   2.0000      -0.741723       -20.1833
  23   2.0000      -0.722348       -19.6561
  24   2.0000      -0.707843       -19.2614
  25   2.0000      -0.617487       -16.8027
  26   2.0000      -0.583544       -15.8790
  27   2.0000      -0.571969       -15.5641
  28   2.0000      -0.523192       -14.2368
  29   2.0000      -0.516220       -14.0471
  30   2.0000      -0.507781       -13.8174
  31   2.0000      -0.497504       -13.5378
  32   2.0000      -0.492589       -13.4040
  33   2.0000      -0.479799       -13.0560
  34   2.0000      -0.475531       -12.9399
  35   2.0000      -0.437164       -11.8958
  36   2.0000      -0.430993       -11.7279
  37   2.0000      -0.418081       -11.3766
  38   2.0000      -0.406879       -11.0717
  39   2.0000      -0.404069       -10.9953
  40   2.0000      -0.378395       -10.2966
  41   2.0000      -0.376051       -10.2329
  42   2.0000      -0.366369        -9.9694
  43   2.0000      -0.354597        -9.6491
  44   2.0000      -0.314871        -8.5681
  45   2.0000      -0.253305        -6.8928
  46   2.0000      -0.243273        -6.6198
  47   2.0000      -0.227813        -6.1991
  48   2.0000      -0.219372        -5.9694
  49   2.0000      -0.205238        -5.5848
  50   2.0000      -0.072230        -1.9655
  51   0.0000       0.092737         2.5235
  52   0.0000       0.102133         2.7792
  53   0.0000       0.110092         2.9957
  54   0.0000       0.111703         3.0396
  55   0.0000       0.120512         3.2793

MULLIKEN ATOMIC CHARGES
-----------------------
   0 C :    1.758192
   1 C :    0.962786
   2 O :   -1.263614
   3 C :   -0.878703
   4 C :    1.281266
   5 C :   -1.318971
   6 C :   -0.799343
   7 O :   -0.698291
   8 C :   -0.932137
   9 H :    0.422895
  10 H :    0.160232
  11 H :    0.248158
  12 H :    0.321329
  13 H :    0.471954
  14 H :    0.364949
  15 H :    0.321938
  16 H :    0.361336
  17 C :   -0.577655
  18 C :   -1.019648
  19 C :   -0.186455
  20 C :   -0.700844
  21 C :   -0.963803
  22 H :    0.135545
  23 H :    0.442698
  24 H :    0.428444
  25 H :    0.488020
  26 H :    0.169722
Sum of atomic charges:   -1.0000000

LOEWDIN ATOMIC CHARGES
----------------------
   0 C :   -0.111443
   1 C :   -0.648358
   2 O :    0.398431
   3 C :    0.338289
   4 C :   -0.081241
   5 C :    0.400927
   6 C :   -0.130990
   7 O :    0.502576
   8 C :    0.283682
   9 H :   -0.221526
  10 H :   -0.262694
  11 H :   -0.287246
  12 H :   -0.285804
  13 H :   -0.260558
  14 H :   -0.179030
  15 H :   -0.186593
  16 H :   -0.199517
  17 C :    0.206193
  18 C :    0.184431
  19 C :    0.166556
  20 C :    0.176851
  21 C :    0.193975
  22 H :   -0.206872
  23 H :   -0.192574
  24 H :   -0.196881
  25 H :   -0.195203
  26 H :   -0.205379

  Mayer bond orders larger than 0.100000
B(  0-C ,  1-C ) :   0.3855 B(  0-C ,  2-O ) :  -0.1158 B(  0-C , 17-C ) :   0.6025
B(  0-C , 21-C ) :   0.3433 B(  0-C , 22-H ) :  -0.1839 B(  0-C , 26-H ) :  -0.1611
B(  1-C ,  2-O ) :   0.7551 B(  1-C ,  3-C ) :   1.0777 B(  1-C ,  9-H ) :  -0.1197
B(  1-C , 17-C ) :   0.1425 B(  1-C , 18-C ) :  -0.1233 B(  1-C , 19-C ) :   0.1689
B(  1-C , 21-C ) :   0.3294 B(  1-C , 22-H ) :  -0.1226 B(  1-C , 25-H ) :   0.1409
B(  1-C , 26-H ) :  -0.1912 B(  2-O , 26-H ) :   0.1022 B(  3-C ,  4-C ) :   0.4857
B(  3-C ,  9-H ) :   0.8189 B(  3-C , 10-H ) :   1.2028 B(  3-C , 17-C ) :  -0.1556
B(  4-C ,  5-C ) :   0.9224 B(  4-C ,  6-C ) :   1.1254 B(  4-C , 11-H ) :  -0.1439
B(  5-C ,  6-C ) :  -0.3107 B(  5-C , 11-H ) :   1.0670 B(  5-C , 12-H ) :   1.0507
B(  6-C ,  7-O ) :   0.6662 B(  6-C , 13-H ) :   0.9010 B(  7-O ,  8-C ) :   1.0752
B(  8-C , 14-H ) :   0.8615 B(  8-C , 15-H ) :   0.8968 B(  8-C , 16-H ) :   0.9111
B( 17-C , 18-C ) :   1.0932 B( 17-C , 19-C ) :  -0.1918 B( 17-C , 21-C ) :  -0.3387
B( 17-C , 22-H ) :   1.5430 B( 17-C , 26-H ) :   0.1856 B( 18-C , 19-C ) :   1.1222
B( 18-C , 20-C ) :   0.2231 B( 18-C , 21-C ) :   0.1528 B( 18-C , 22-H ) :  -0.1049
B( 18-C , 23-H ) :   0.7464 B( 18-C , 24-H ) :  -0.2002 B( 19-C , 20-C ) :   1.0850
B( 19-C , 21-C ) :  -0.1750 B( 19-C , 24-H ) :   0.8646 B( 20-C , 21-C ) :   1.1147
B( 20-C , 24-H ) :  -0.1866 B( 20-C , 25-H ) :   0.7392 B( 20-C , 26-H ) :  -0.1040
B( 21-C , 22-H ) :   0.1030 B( 21-C , 24-H ) :   0.1887 B( 21-C , 25-H ) :  -0.1227
B( 21-C , 26-H ) :   1.3499

MP2 TOTAL ENERGY:     -614.266026557 Eh
FINAL SINGLE POINT ENERGY      -614.266026556657

DIPOLE MOMENT
-------------
                                X             Y             Z
Electronic contribution:     -4.45623      -2.16770       2.66407
Nuclear contribution   :      2.32955       1.65685      -3.65273
                        -----------------------------------------
Total Dipole Moment    :     -2.12668      -0.51085      -0.98866
                        -----------------------------------------
Magnitude (a.u.)       :      2.40025
Magnitude (Debye)      :      6.10094

Rotational constants in cm-1:     0.036895     0.012597     0.011748
Rotational constants in MHz :  1106.070101   377.657277   352.207748

                             ****ORCA TERMINATED NORMALLY****
TOTAL RUN TIME: 0 days 0 hours 15 minutes 15 seconds 955 msec
