                         Program Version 4.2.1 -  RELEASE  -
|  1> %pal
|  2>  nprocs 32
|  3> end
|  4> !RI-MP2 aug-cc-pVTZ aug-cc-pVTZ/C TightSCF
|  5> %maxcore 4500
|  6> *xyzfile 0 1  02_3TS.xyz
|  7>
|  8>
|  9>                          ****END OF INPUT****

CARTESIAN COORDINATES (ANGSTROEM)
---------------------------------
  C      0.551260   -2.367881   -0.757979
  C      0.497068   -1.894045    0.567796
  C      1.473671   -1.025176    1.106431
  C      1.146952   -0.339698    2.404963
  C      2.598124   -0.757347    0.364282
  C      3.670658    0.211079    0.700354
  C      1.391192    0.064124   -1.851005
  C      0.317087   -0.846122   -1.919516
  C     -1.024408   -0.394702   -1.454139
  O     -2.031792   -1.041726   -1.749921
  C     -1.084870    0.768394   -0.578077
  C      0.048477    1.583474   -0.396390
  C      1.312622    1.309539   -1.158432
  O      2.218413    2.145418   -1.156183
  C      0.000176    2.657653    0.466674
  C     -1.173282    2.919453    1.172905
  C     -2.300335    2.140652    1.003697
  C     -2.275662    1.069790    0.110063
  O     -3.392520    0.352250   -0.053916
  H      0.233014    0.249126    2.310047
  H      0.970393   -1.076059    3.190782
  H      1.945977    0.323864    2.724020
  H      3.701168    0.465233    1.758449
  H      4.646094   -0.176263    0.401808
  H      3.508395    1.143267    0.136032
  H      0.245235   -1.459571   -2.812049
  H      0.879039    3.279439    0.569343
  H     -1.208337    3.757108    1.859737
  H     -3.220421    2.346097    1.535250
  H      2.271215   -0.090074   -2.462918
  H      2.818572   -1.403423   -0.470987
  H      1.523973   -2.653374   -1.130693
  H     -3.212579   -0.310205   -0.757806
  O     -0.606186   -2.020681    1.326741
  C     -1.609002   -2.969885    0.978324
  H     -2.109313   -2.698058    0.048975
  H     -2.325120   -2.946788    1.795610
  H     -1.175905   -3.969871    0.893510
  H     -0.233084   -3.038372   -1.082582

 Total Charge           Charge          ....    0
 Multiplicity           Mult            ....    1
 Number of Electrons    NEL             ....  152
 Basis Dimension        Dim             .... 1380

ORBITAL ENERGIES
----------------

  NO   OCC          E(Eh)            E(eV)
   0   2.0000     -20.615187      -560.9678
   1   2.0000     -20.581192      -560.0427
   2   2.0000     -20.560308      -559.4744
   3   2.0000     -20.503553      -557.9301
   4   2.0000     -11.354144      -308.9620
   5   2.0000     -11.343345      -308.6681
   6   2.0000     -11.321761      -308.0808
   7   2.0000     -11.309607      -307.7500
   8   2.0000     -11.297435      -307.4188
   9   2.0000     -11.284300      -307.0614
  10   2.0000     -11.280712      -306.9638
  11   2.0000     -11.262716      -306.4741
  12   2.0000     -11.256519      -306.3054
  13   2.0000     -11.255764      -306.2849
  14   2.0000     -11.251305      -306.1636
  15   2.0000     -11.244465      -305.9775
  16   2.0000     -11.235299      -305.7280
  17   2.0000     -11.228327      -305.5383
  18   2.0000     -11.225235      -305.4542
  19   2.0000     -11.225169      -305.4524
  20   2.0000     -11.216264      -305.2101
  21   2.0000      -1.445375       -39.3306
  22   2.0000      -1.423295       -38.7298
  23   2.0000      -1.392422       -37.8897
  24   2.0000      -1.349056       -36.7097
  25   2.0000      -1.172818       -31.9140
  26   2.0000      -1.148460       -31.2512
  27   2.0000      -1.104214       -30.0472
  28   2.0000      -1.054600       -28.6971
  29   2.0000      -1.034350       -28.1461
  30   2.0000      -1.024383       -27.8749
  31   2.0000      -1.001645       -27.2562
  32   2.0000      -0.972186       -26.4545
  33   2.0000      -0.940541       -25.5934
  34   2.0000      -0.912388       -24.8273
  35   2.0000      -0.873815       -23.7777
  36   2.0000      -0.853763       -23.2321
  37   2.0000      -0.826852       -22.4998
  38   2.0000      -0.798070       -21.7166
  39   2.0000      -0.744739       -20.2654
  40   2.0000      -0.729575       -19.8528
  41   2.0000      -0.719112       -19.5680
  42   2.0000      -0.715444       -19.4682
  43   2.0000      -0.706007       -19.2114
  44   2.0000      -0.695939       -18.9375
  45   2.0000      -0.684801       -18.6344
  46   2.0000      -0.672807       -18.3080
  47   2.0000      -0.637364       -17.3435
  48   2.0000      -0.631187       -17.1755
  49   2.0000      -0.622917       -16.9504
  50   2.0000      -0.618563       -16.8320
  51   2.0000      -0.610676       -16.6173
  52   2.0000      -0.600513       -16.3408
  53   2.0000      -0.599148       -16.3037
  54   2.0000      -0.585165       -15.9232
  55   2.0000      -0.576161       -15.6781
  56   2.0000      -0.575189       -15.6517
  57   2.0000      -0.570444       -15.5226
  58   2.0000      -0.561102       -15.2684
  59   2.0000      -0.554065       -15.0769
  60   2.0000      -0.551412       -15.0047
  61   2.0000      -0.538513       -14.6537
  62   2.0000      -0.535595       -14.5743
  63   2.0000      -0.529272       -14.4022
  64   2.0000      -0.523158       -14.2359
  65   2.0000      -0.516449       -14.0533
  66   2.0000      -0.513072       -13.9614
  67   2.0000      -0.499102       -13.5813
  68   2.0000      -0.477773       -13.0009
  69   2.0000      -0.460052       -12.5187
  70   2.0000      -0.436563       -11.8795
  71   2.0000      -0.400392       -10.8952
  72   2.0000      -0.365436        -9.9440
  73   2.0000      -0.354529        -9.6472
  74   2.0000      -0.319276        -8.6879
  75   2.0000      -0.279424        -7.6035
  76   0.0000       0.019267         0.5243
  77   0.0000       0.026568         0.7230
  78   0.0000       0.028831         0.7845
  79   0.0000       0.032074         0.8728
  80   0.0000       0.034668         0.9434

MULLIKEN ATOMIC CHARGES
-----------------------
   0 C :   -0.741808
   1 C :    0.490401
   2 C :    1.596542
   3 C :   -1.095545
   4 C :   -0.445964
   5 C :   -1.210311
   6 C :   -0.885390
   7 C :    0.032367
   8 C :    1.065670
   9 O :   -1.448782
  10 C :    0.617141
  11 C :    1.610698
  12 C :    1.402533
  13 O :   -1.537515
  14 C :   -1.185221
  15 C :   -0.321130
  16 C :   -0.983408
  17 C :    0.642784
  18 O :   -1.210721
  19 H :    0.321586
  20 H :    0.230274
  21 H :    0.341290
  22 H :    0.319835
  23 H :    0.211380
  24 H :    0.297714
  25 H :    0.503548
  26 H :    0.137793
  27 H :    0.592345
  28 H :    0.554700
  29 H :    0.110641
  30 H :    0.269677
  31 H :    0.439157
  32 H :    0.170025
  33 O :   -0.961291
  34 C :   -1.109464
  35 H :    0.548107
  36 H :    0.288951
  37 H :    0.371685
  38 H :   -0.030292
Sum of atomic charges:    0.0000000

LOEWDIN ATOMIC CHARGES
----------------------
   0 C :    0.428496
   1 C :   -0.345868
   2 C :   -0.078630
   3 C :    0.588030
   4 C :    0.252174
   5 C :    0.616366
   6 C :    0.188712
   7 C :    0.093884
   8 C :   -0.477028
   9 O :    0.581013
  10 C :   -0.071524
  11 C :   -0.115605
  12 C :   -0.580083
  13 O :    0.479634
  14 C :    0.218989
  15 C :    0.216014
  16 C :    0.237083
  17 C :   -0.345463
  18 O :    0.877379
  19 H :   -0.174507
  20 H :   -0.157610
  21 H :   -0.190038
  22 H :   -0.182228
  23 H :   -0.154340
  24 H :   -0.250351
  25 H :   -0.151519
  26 H :   -0.185981
  27 H :   -0.167563
  28 H :   -0.177493
  29 H :   -0.171765
  30 H :   -0.208466
  31 H :   -0.185099
  32 H :   -0.687830
  33 O :    0.619033
  34 C :    0.385571
  35 H :   -0.206832
  36 H :   -0.166788
  37 H :   -0.161007
  38 H :   -0.188758

  Mayer bond orders larger than 0.100000
B(  0-C ,  1-C ) :   1.5553 B(  0-C ,  2-C ) :  -0.2904 B(  0-C ,  7-C ) :   0.4931
B(  0-C , 10-C ) :   0.1612 B(  0-C , 12-C ) :   0.1343 B(  0-C , 31-H ) :   0.7414
B(  0-C , 38-H ) :   1.3981 B(  1-C ,  2-C ) :   0.7285 B(  1-C ,  5-C ) :  -0.1172
B(  1-C ,  7-C ) :   0.1835 B(  1-C ,  8-C ) :  -0.1078 B(  1-C , 10-C ) :   0.1197
B(  1-C , 11-C ) :  -0.1376 B(  1-C , 12-C ) :   0.1025 B(  1-C , 33-O ) :   0.3336
B(  1-C , 34-C ) :  -0.2178 B(  2-C ,  3-C ) :   0.5300 B(  2-C ,  4-C ) :   0.9703
B(  2-C ,  7-C ) :   0.1320 B(  2-C , 11-C ) :   0.1556 B(  2-C , 12-C ) :  -0.1147
B(  2-C , 33-O ) :  -0.2612 B(  3-C , 19-H ) :   1.0013 B(  3-C , 20-H ) :   1.0764
B(  3-C , 21-H ) :   0.9069 B(  4-C ,  5-C ) :   0.9369 B(  4-C ,  6-C ) :   0.1065
B(  4-C , 30-H ) :   1.1361 B(  4-C , 31-H ) :  -0.1067 B(  5-C , 22-H ) :   0.9274
B(  5-C , 23-H ) :   1.1334 B(  5-C , 24-H ) :   0.9191 B(  5-C , 30-H ) :  -0.1852
B(  6-C ,  7-C ) :   1.1539 B(  6-C ,  8-C ) :   0.1257 B(  6-C , 10-C ) :  -0.4946
B(  6-C , 11-C ) :   0.2412 B(  6-C , 12-C ) :   1.2260 B(  6-C , 13-O ) :   0.1527
B(  6-C , 25-H ) :  -0.1450 B(  6-C , 29-H ) :   1.1112 B(  7-C ,  8-C ) :   0.9556
B(  7-C , 10-C ) :   0.2548 B(  7-C , 11-C ) :  -0.3802 B(  7-C , 12-C ) :   0.1550
B(  7-C , 25-H ) :   0.7364 B(  8-C ,  9-O ) :  -0.5401 B(  8-C , 10-C ) :   0.6342
B(  8-C , 12-C ) :   0.3055 B(  8-C , 14-C ) :  -0.2297 B(  8-C , 17-C ) :   0.2712
B(  8-C , 18-O ) :   0.1405 B(  9-O , 10-C ) :   0.1892 B(  9-O , 11-C ) :   0.1207
B(  9-O , 17-C ) :   0.1847 B(  9-O , 32-H ) :   0.2148 B(  9-O , 38-H ) :   0.1033
B( 10-C , 11-C ) :   0.4860 B( 10-C , 12-C ) :   0.2904 B( 10-C , 13-O ) :   0.1803
B( 10-C , 15-C ) :  -0.2038 B( 10-C , 16-C ) :   0.4113 B( 10-C , 17-C ) :   0.5369
B( 10-C , 27-H ) :   0.1157 B( 10-C , 32-H ) :  -0.1401 B( 11-C , 12-C ) :   0.5233
B( 11-C , 13-O ) :   0.1817 B( 11-C , 14-C ) :   0.4705 B( 11-C , 15-C ) :   0.3240
B( 11-C , 16-C ) :  -0.1614 B( 11-C , 17-C ) :  -0.7606 B( 11-C , 18-O ) :  -0.1208
B( 12-C , 13-O ) :  -0.9905 B( 12-C , 14-C ) :   0.2565 B( 12-C , 17-C ) :  -0.1055
B( 13-O , 14-C ) :   0.1082 B( 13-O , 24-H ) :   0.1116 B( 13-O , 26-H ) :   0.1968
B( 13-O , 29-H ) :   0.1280 B( 14-C , 15-C ) :   1.0692 B( 14-C , 16-C ) :   0.1385
B( 14-C , 17-C ) :   0.3947 B( 14-C , 26-H ) :   1.1626 B( 15-C , 16-C ) :   1.2008
B( 15-C , 17-C ) :  -0.1024 B( 15-C , 26-H ) :  -0.1499 B( 15-C , 27-H ) :   0.5843
B( 16-C , 17-C ) :   0.8739 B( 16-C , 18-O ) :   0.2201 B( 16-C , 28-H ) :   0.5368
B( 17-C , 18-O ) :  -0.1209 B( 17-C , 32-H ) :   0.1616 B( 18-O , 32-H ) :   0.8749
B( 33-O , 34-C ) :   1.0953 B( 34-C , 35-H ) :   0.6669 B( 34-C , 36-H ) :   1.0499
B( 34-C , 37-H ) :   0.9367

MP2 TOTAL ENERGY:     -957.704986818 Eh
FINAL SINGLE POINT ENERGY      -957.704986817939

DIPOLE MOMENT
-------------
                                X             Y             Z
Electronic contribution:     -8.83611       6.45561      -7.46204
Nuclear contribution   :      9.17060      -8.24200       8.45531
                        -----------------------------------------
Total Dipole Moment    :      0.33448      -1.78638       0.99327
                        -----------------------------------------
Magnitude (a.u.)       :      2.07114
Magnitude (Debye)      :      5.26443

Rotational constants in cm-1:     0.013632     0.012004     0.009466
Rotational constants in MHz :   408.666260   359.876509   283.770415

                             ****ORCA TERMINATED NORMALLY****
TOTAL RUN TIME: 0 days 1 hours 15 minutes 34 seconds 675 msec
