                         Program Version 4.2.1 -  RELEASE  -
|  1> %pal
|  2>  nprocs 32
|  3> end
|  4> !RI-MP2 aug-cc-pVTZ aug-cc-pVTZ/C TightSCF
|  5> %maxcore 4500
|  6> *xyzfile 0 1  04_29R1.xyz
|  7>
|  8>
|  9>                          ****END OF INPUT****

CARTESIAN COORDINATES (ANGSTROEM)
---------------------------------
  C     -2.183175    0.812360    0.706271
  S     -1.870532   -0.562660   -0.436564
  C     -0.322553   -1.246710    0.236400
  C      0.962646   -0.671086   -0.364408
  C      2.184495   -1.425042    0.158479
  C      1.088224    0.803485   -0.006490
  O      1.299116    1.170446    1.132832
  H     -2.258556    0.447569    1.730117
  H     -1.413781    1.578806    0.647478
  H     -3.140528    1.243333    0.415257
  H      2.102608   -2.489773   -0.069253
  H      2.268661   -1.300652    1.238622
  H      3.103047   -1.048997   -0.295939
  H     -0.321515   -1.113147    1.319769
  H     -0.359481   -2.318272    0.035460
  H      0.907489   -0.776877   -1.451367
  N      0.958263    1.677291   -1.038981
  H      0.959586    2.662756   -0.826635
  H      0.602389    1.375172   -1.929794

 Total Charge           Charge          ....    0
 Multiplicity           Mult            ....    1
 Number of Electrons    NEL             ....   72
 Basis Dimension        Dim             ....  625

ORBITAL ENERGIES
----------------

  NO   OCC          E(Eh)            E(eV)
   0   2.0000     -91.947885     -2502.0292
   1   2.0000     -20.520475      -558.3905
   2   2.0000     -15.587687      -424.1625
   3   2.0000     -11.350518      -308.8633
   4   2.0000     -11.262819      -306.4769
   5   2.0000     -11.250987      -306.1549
   6   2.0000     -11.249234      -306.1072
   7   2.0000     -11.224197      -305.4259
   8   2.0000      -8.948194      -243.4927
   9   2.0000      -6.629533      -180.3988
  10   2.0000      -6.628563      -180.3724
  11   2.0000      -6.627686      -180.3485
  12   2.0000      -1.387145       -37.7461
  13   2.0000      -1.215748       -33.0822
  14   2.0000      -1.105672       -30.0869
  15   2.0000      -1.035241       -28.1703
  16   2.0000      -0.944638       -25.7049
  17   2.0000      -0.885382       -24.0925
  18   2.0000      -0.816055       -22.2060
  19   2.0000      -0.772404       -21.0182
  20   2.0000      -0.716392       -19.4940
  21   2.0000      -0.692486       -18.8435
  22   2.0000      -0.623008       -16.9529
  23   2.0000      -0.617844       -16.8124
  24   2.0000      -0.602063       -16.3830
  25   2.0000      -0.583345       -15.8736
  26   2.0000      -0.565126       -15.3779
  27   2.0000      -0.562543       -15.3076
  28   2.0000      -0.533738       -14.5238
  29   2.0000      -0.530854       -14.4453
  30   2.0000      -0.497941       -13.5497
  31   2.0000      -0.480883       -13.0855
  32   2.0000      -0.429944       -11.6994
  33   2.0000      -0.423100       -11.5131
  34   2.0000      -0.418743       -11.3946
  35   2.0000      -0.341081        -9.2813
  36   0.0000       0.025329         0.6892
  37   0.0000       0.031888         0.8677
  38   0.0000       0.036508         0.9934
  39   0.0000       0.041534         1.1302
  40   0.0000       0.047784         1.3003

MULLIKEN ATOMIC CHARGES
-----------------------
   0 C :   -0.789183
   1 S :   -0.401401
   2 C :   -0.383144
   3 C :    0.372079
   4 C :   -1.012916
   5 C :    1.113951
   6 O :   -1.112751
   7 H :    0.263188
   8 H :    0.331449
   9 H :    0.280342
  10 H :    0.255192
  11 H :    0.301739
  12 H :    0.278870
  13 H :    0.233823
  14 H :    0.303543
  15 H :    0.291855
  16 N :   -0.613365
  17 H :    0.166722
  18 H :    0.120007
Sum of atomic charges:   -0.0000000

LOEWDIN ATOMIC CHARGES
----------------------
   0 C :    0.226768
   1 S :    1.194554
   2 C :   -0.068091
   3 C :   -0.115293
   4 C :    0.582940
   5 C :   -0.721669
   6 O :    0.459757
   7 H :   -0.236193
   8 H :   -0.263933
   9 H :   -0.253705
  10 H :   -0.163241
  11 H :   -0.166335
  12 H :   -0.157472
  13 H :   -0.208957
  14 H :   -0.221236
  15 H :   -0.165229
  16 N :    0.860606
  17 H :   -0.283124
  18 H :   -0.300146

  Mayer bond orders larger than 0.100000
B(  0-C ,  1-S ) :   0.9125 B(  0-C ,  7-H ) :   0.9344 B(  0-C ,  8-H ) :   0.8682
B(  0-C ,  9-H ) :   0.9545 B(  1-S ,  2-C ) :   0.8536 B(  2-C ,  3-C ) :   0.9551
B(  2-C ,  5-C ) :   0.1435 B(  2-C , 13-H ) :   0.9432 B(  2-C , 14-H ) :   0.9434
B(  3-C ,  4-C ) :   0.7006 B(  3-C ,  5-C ) :   0.8262 B(  3-C , 15-H ) :   0.7919
B(  4-C , 10-H ) :   0.9835 B(  4-C , 11-H ) :   0.9686 B(  4-C , 12-H ) :   0.9691
B(  5-C ,  6-O ) :   0.8319 B(  5-C , 16-N ) :   0.6675 B(  6-O , 16-N ) :   0.1405
B( 16-N , 17-H ) :   0.9916 B( 16-N , 18-H ) :   1.1106

MP2 TOTAL ENERGY:     -724.253265818 Eh
FINAL SINGLE POINT ENERGY      -724.253265818014

DIPOLE MOMENT
-------------
                                X             Y             Z
Electronic contribution:     -2.60842       1.71073      -1.72859
Nuclear contribution   :      2.57202      -1.72002       0.85162
                        -----------------------------------------
Total Dipole Moment    :     -0.03640      -0.00929      -0.87697
                        -----------------------------------------
Magnitude (a.u.)       :      0.87777
Magnitude (Debye)      :      2.23112

Rotational constants in cm-1:     0.074060     0.042460     0.033878
Rotational constants in MHz :  2220.276696  1272.914057  1015.628352

                             ****ORCA TERMINATED NORMALLY****
TOTAL RUN TIME: 0 days 0 hours 3 minutes 56 seconds 712 msec
