                         Program Version 4.2.1 -  RELEASE  -
|  1> %pal
|  2>  nprocs 32
|  3> end
|  4> !RI-MP2 aug-cc-pVTZ aug-cc-pVTZ/C TightSCF
|  5> %maxcore 4500
|  6> *xyzfile 0 1  10_84TS.xyz
|  7>
|  8>
|  9>                          ****END OF INPUT****

CARTESIAN COORDINATES (ANGSTROEM)
---------------------------------
  C     -0.468404   -1.481327   -0.880136
  C      0.171057   -0.525220    0.104378
  C     -0.565236    0.476252    0.711977
  C     -2.079581    0.406412    0.608990
  C     -2.524279   -0.842478    1.365469
  C     -2.483126   -1.889085    0.548635
  C     -2.007946   -1.450134   -0.823624
  H     -0.136745   -1.223644   -1.893287
  H     -0.097067   -2.491998   -0.690293
  H     -2.419065   -2.040416   -1.643146
  C     -2.455668    0.017524   -0.828566
  H     -2.663366   -2.920196    0.824609
  H     -2.737803   -0.858208    2.426220
  C      1.579770   -0.517954    0.218036
  H     -0.138924    0.981927    1.570702
  H     -3.534298    0.091110   -0.974865
  H     -1.946569    0.616593   -1.585348
  H     -2.545765    1.322744    0.966774
  C      2.191037    1.088590   -1.153130
  C      2.172880    0.093123    1.375313
  C      2.335567   -1.597485   -0.351473
  N      2.629208    0.608201    2.294802
  N      2.931277   -2.446025   -0.846027
  H      3.136518    1.298338   -0.665773
  H      2.261246    0.534997   -2.084117
  C      1.136940    1.921655   -0.955616
  C      0.029300    2.250983   -0.515477
  C     -1.051589    3.227798   -0.341204
  H     -1.990365    2.877183   -0.771352
  H     -1.219993    3.445064    0.715272
  H     -0.775528    4.159352   -0.838253

 Total Charge           Charge          ....    0
 Multiplicity           Mult            ....    1
 Number of Electrons    NEL             ....  118
 Basis Dimension        Dim             .... 1104

ORBITAL ENERGIES
----------------

  NO   OCC          E(Eh)            E(eV)
   0   2.0000     -15.578293      -423.9069
   1   2.0000     -15.575480      -423.8304
   2   2.0000     -11.325112      -308.1720
   3   2.0000     -11.294486      -307.3386
   4   2.0000     -11.285984      -307.1073
   5   2.0000     -11.284026      -307.0539
   6   2.0000     -11.279227      -306.9234
   7   2.0000     -11.276253      -306.8425
   8   2.0000     -11.269446      -306.6572
   9   2.0000     -11.266206      -306.5690
  10   2.0000     -11.257841      -306.3414
  11   2.0000     -11.251826      -306.1778
  12   2.0000     -11.250961      -306.1542
  13   2.0000     -11.246411      -306.0304
  14   2.0000     -11.242243      -305.9170
  15   2.0000     -11.238514      -305.8155
  16   2.0000     -11.237605      -305.7908
  17   2.0000      -1.245229       -33.8844
  18   2.0000      -1.227343       -33.3977
  19   2.0000      -1.201209       -32.6866
  20   2.0000      -1.139778       -31.0149
  21   2.0000      -1.102221       -29.9930
  22   2.0000      -1.046502       -28.4768
  23   2.0000      -1.037118       -28.2214
  24   2.0000      -1.014920       -27.6174
  25   2.0000      -0.980523       -26.6814
  26   2.0000      -0.928255       -25.2591
  27   2.0000      -0.894058       -24.3285
  28   2.0000      -0.843223       -22.9453
  29   2.0000      -0.782503       -21.2930
  30   2.0000      -0.746962       -20.3259
  31   2.0000      -0.739479       -20.1223
  32   2.0000      -0.730259       -19.8714
  33   2.0000      -0.699112       -19.0238
  34   2.0000      -0.669684       -18.2230
  35   2.0000      -0.644428       -17.5358
  36   2.0000      -0.639014       -17.3885
  37   2.0000      -0.631547       -17.1853
  38   2.0000      -0.612297       -16.6615
  39   2.0000      -0.609171       -16.5764
  40   2.0000      -0.605328       -16.4718
  41   2.0000      -0.579489       -15.7687
  42   2.0000      -0.572676       -15.5833
  43   2.0000      -0.571321       -15.5464
  44   2.0000      -0.566265       -15.4089
  45   2.0000      -0.555873       -15.1261
  46   2.0000      -0.547456       -14.8970
  47   2.0000      -0.524228       -14.2650
  48   2.0000      -0.499930       -13.6038
  49   2.0000      -0.490347       -13.3430
  50   2.0000      -0.487659       -13.2699
  51   2.0000      -0.485882       -13.2215
  52   2.0000      -0.477822       -13.0022
  53   2.0000      -0.467190       -12.7129
  54   2.0000      -0.463806       -12.6208
  55   2.0000      -0.396435       -10.7875
  56   2.0000      -0.372353       -10.1323
  57   2.0000      -0.347623        -9.4593
  58   2.0000      -0.326928        -8.8962
  59   0.0000       0.017799         0.4843
  60   0.0000       0.026132         0.7111
  61   0.0000       0.027562         0.7500
  62   0.0000       0.033248         0.9047
  63   0.0000       0.038671         1.0523

MULLIKEN ATOMIC CHARGES
-----------------------
   0 C :   -0.817602
   1 C :    0.351759
   2 C :   -0.884683
   3 C :    0.297320
   4 C :   -1.092598
   5 C :   -0.760889
   6 C :   -0.271008
   7 H :    0.143321
   8 H :    0.241243
   9 H :    0.434100
  10 C :   -0.690172
  11 H :    0.549435
  12 H :    0.394835
  13 C :    0.179369
  14 H :    0.184053
  15 H :    0.347095
  16 H :    0.274112
  17 H :    0.321221
  18 C :   -0.555371
  19 C :    1.490123
  20 C :    1.352666
  21 N :   -1.167485
  22 N :   -1.171428
  23 H :    0.311657
  24 H :    0.340814
  25 C :   -0.544249
  26 C :    0.717697
  27 C :   -0.792622
  28 H :    0.276433
  29 H :    0.211388
  30 H :    0.329467
Sum of atomic charges:    0.0000000

LOEWDIN ATOMIC CHARGES
----------------------
   0 C :    0.319356
   1 C :   -0.122681
   2 C :    0.191381
   3 C :   -0.013030
   4 C :    0.275498
   5 C :    0.266310
   6 C :    0.013579
   7 H :   -0.121869
   8 H :   -0.141528
   9 H :   -0.118256
  10 C :    0.309735
  11 H :   -0.159215
  12 H :   -0.157970
  13 C :   -0.286294
  14 H :   -0.166850
  15 H :   -0.122817
  16 H :   -0.144267
  17 H :   -0.142189
  18 C :    0.423497
  19 C :   -0.278555
  20 C :   -0.266852
  21 N :    0.321984
  22 N :    0.310335
  23 H :   -0.190957
  24 H :   -0.179861
  25 C :    0.074155
  26 C :    0.064423
  27 C :    0.551587
  28 H :   -0.182683
  29 H :   -0.162832
  30 H :   -0.163132

  Mayer bond orders larger than 0.100000
B(  0-C ,  1-C ) :   0.4824 B(  0-C ,  6-C ) :   1.0757 B(  0-C ,  7-H ) :   1.1159
B(  0-C ,  8-H ) :   0.9486 B(  0-C , 13-C ) :  -0.1490 B(  1-C ,  2-C ) :   1.1591
B(  1-C ,  3-C ) :   0.2176 B(  1-C ,  4-C ) :  -0.2689 B(  1-C , 10-C ) :  -0.3683
B(  1-C , 13-C ) :   0.7989 B(  1-C , 19-C ) :   1.0508 B(  1-C , 20-C ) :   0.4089
B(  1-C , 26-C ) :   0.1220 B(  2-C ,  3-C ) :   1.0114 B(  2-C ,  4-C ) :   0.4443
B(  2-C , 10-C ) :   0.1296 B(  2-C , 14-H ) :   0.9254 B(  2-C , 18-C ) :   0.1453
B(  2-C , 19-C ) :   0.1225 B(  2-C , 20-C ) :  -0.1215 B(  2-C , 26-C ) :   0.4257
B(  3-C ,  4-C ) :   0.5754 B(  3-C , 10-C ) :   0.9965 B(  3-C , 13-C ) :  -0.1331
B(  3-C , 17-H ) :   0.8901 B(  4-C ,  5-C ) :   1.5392 B(  4-C , 10-C ) :   0.1047
B(  4-C , 12-H ) :   0.9669 B(  4-C , 17-H ) :  -0.3335 B(  5-C ,  6-C ) :   0.9860
B(  5-C ,  9-H ) :  -0.1925 B(  5-C , 11-H ) :   0.6444 B(  6-C ,  9-H ) :   0.8446
B(  6-C , 10-C ) :   1.1192 B( 10-C , 15-H ) :   0.8754 B( 10-C , 16-H ) :   1.0130
B( 13-C , 14-H ) :  -0.1599 B( 13-C , 18-C ) :   0.3221 B( 13-C , 20-C ) :   0.8855
B( 13-C , 21-N ) :   0.9145 B( 13-C , 22-N ) :   0.8957 B( 13-C , 25-C ) :   0.2031
B( 13-C , 26-C ) :   0.1468 B( 14-H , 19-C ) :   0.1368 B( 14-H , 25-C ) :  -0.1124
B( 18-C , 23-H ) :   1.0697 B( 18-C , 24-H ) :   0.9473 B( 18-C , 25-C ) :   0.9647
B( 19-C , 20-C ) :  -0.2739 B( 19-C , 21-N ) :   0.6969 B( 20-C , 22-N ) :   0.8298
B( 25-C , 26-C ) :   1.5475 B( 25-C , 27-C ) :  -0.2946 B( 26-C , 27-C ) :   0.5800
B( 27-C , 28-H ) :   1.0244 B( 27-C , 29-H ) :   1.0816 B( 27-C , 30-H ) :   0.9552

MP2 TOTAL ENERGY:     -687.961927697 Eh
FINAL SINGLE POINT ENERGY      -687.961927697122

DIPOLE MOMENT
-------------
                                X             Y             Z
Electronic contribution:     12.43313      -4.75032       3.79394
Nuclear contribution   :    -14.73000       5.76441      -4.62021
                        -----------------------------------------
Total Dipole Moment    :     -2.29687       1.01409      -0.82627
                        -----------------------------------------
Magnitude (a.u.)       :      2.64324
Magnitude (Debye)      :      6.71858

Rotational constants in cm-1:     0.021839     0.015620     0.012106
Rotational constants in MHz :   654.718862   468.261085   362.923708

                             ****ORCA TERMINATED NORMALLY****
TOTAL RUN TIME: 0 days 0 hours 33 minutes 6 seconds 27 msec
