                         Program Version 4.2.1 -  RELEASE  -
|  1> %pal
|  2>  nprocs 32
|  3> end
|  4> !RI-MP2 aug-cc-pVTZ aug-cc-pVTZ/C TightSCF
|  5> %maxcore 4500
|  6> *xyzfile 1 1  05_29P1.xyz
|  7>
|  8>
|  9>                          ****END OF INPUT****

CARTESIAN COORDINATES (ANGSTROEM)
---------------------------------
  C     -0.000000   -1.021979    0.000003
  C     -1.279336   -0.432978   -0.044192
  C     -2.382041   -1.258103    0.286256
  C     -1.519963    0.909346   -0.426868
  C     -3.657534   -0.741826    0.317000
  H     -2.208163   -2.296175    0.543991
  C     -2.801183    1.407337   -0.419779
  H     -0.707886    1.523498   -0.788631
  C     -3.864883    0.590229   -0.032122
  H     -4.494569   -1.368653    0.594433
  H     -2.990070    2.425589   -0.733475
  H     -4.870838    0.992648   -0.028161
  C      1.279336   -0.432978    0.044194
  C      2.382039   -1.258103   -0.286256
  C      1.519964    0.909346    0.426870
  C      3.657533   -0.741827   -0.317003
  H      2.208161   -2.296175   -0.543992
  C      2.801184    1.407336    0.419779
  H      0.707888    1.523498    0.788634
  C      3.864883    0.590229    0.032119
  H      4.494567   -1.368653   -0.594438
  H      2.990072    2.425588    0.733475
  H      4.870839    0.992647    0.028157
  H     -0.000000   -2.109989    0.000002

 Total Charge           Charge          ....    1
 Multiplicity           Mult            ....    1
 Number of Electrons    NEL             ....   88
 Basis Dimension        Dim             ....  851

ORBITAL ENERGIES
----------------

  NO   OCC          E(Eh)            E(eV)
   0   2.0000     -11.477764      -312.3258
   1   2.0000     -11.411852      -310.5323
   2   2.0000     -11.411851      -310.5323
   3   2.0000     -11.409579      -310.4704
   4   2.0000     -11.409569      -310.4701
   5   2.0000     -11.407958      -310.4263
   6   2.0000     -11.407939      -310.4258
   7   2.0000     -11.407636      -310.4175
   8   2.0000     -11.407636      -310.4175
   9   2.0000     -11.382698      -309.7390
  10   2.0000     -11.382698      -309.7389
  11   2.0000     -11.381146      -309.6967
  12   2.0000     -11.381146      -309.6967
  13   2.0000      -1.341159       -36.4948
  14   2.0000      -1.315624       -35.8000
  15   2.0000      -1.246839       -33.9282
  16   2.0000      -1.184192       -32.2235
  17   2.0000      -1.184121       -32.2216
  18   2.0000      -1.175751       -31.9938
  19   2.0000      -1.087635       -29.5961
  20   2.0000      -1.001499       -27.2522
  21   2.0000      -0.999857       -27.2075
  22   2.0000      -0.977022       -26.5861
  23   2.0000      -0.937800       -25.5188
  24   2.0000      -0.870466       -23.6866
  25   2.0000      -0.854140       -23.2423
  26   2.0000      -0.830501       -22.5991
  27   2.0000      -0.809907       -22.0387
  28   2.0000      -0.782297       -21.2874
  29   2.0000      -0.776012       -21.1164
  30   2.0000      -0.753864       -20.5137
  31   2.0000      -0.746561       -20.3150
  32   2.0000      -0.742736       -20.2109
  33   2.0000      -0.731281       -19.8992
  34   2.0000      -0.682759       -18.5788
  35   2.0000      -0.677288       -18.4300
  36   2.0000      -0.661473       -17.9996
  37   2.0000      -0.656641       -17.8681
  38   2.0000      -0.646969       -17.6049
  39   2.0000      -0.643861       -17.5203
  40   2.0000      -0.551079       -14.9956
  41   2.0000      -0.497314       -13.5326
  42   2.0000      -0.495588       -13.4856
  43   2.0000      -0.475468       -12.9381
  44   0.0000      -0.164524        -4.4769
  45   0.0000      -0.068782        -1.8716
  46   0.0000      -0.058594        -1.5944
  47   0.0000      -0.053121        -1.4455
  48   0.0000      -0.048846        -1.3292

MULLIKEN ATOMIC CHARGES
-----------------------
   0 C :   -0.602713
   1 C :    2.278261
   2 C :   -1.064168
   3 C :   -0.625945
   4 C :   -0.674745
   5 H :    0.061607
   6 C :   -1.063420
   7 H :    0.268553
   8 C :    0.029771
   9 H :    0.554725
  10 H :    0.444206
  11 H :    0.565098
  12 C :    2.278265
  13 C :   -1.064317
  14 C :   -0.625854
  15 C :   -0.674798
  16 H :    0.061543
  17 C :   -1.063443
  18 H :    0.268540
  19 C :    0.029820
  20 H :    0.554712
  21 H :    0.444255
  22 H :    0.565083
  23 H :    0.054963
Sum of atomic charges:    1.0000000

LOEWDIN ATOMIC CHARGES
----------------------
   0 C :    0.332186
   1 C :   -0.081501
   2 C :    0.256796
   3 C :    0.254278
   4 C :    0.256918
   5 H :   -0.152885
   6 C :    0.258695
   7 H :   -0.177591
   8 C :    0.266921
   9 H :   -0.164831
  10 H :   -0.164408
  11 H :   -0.147420
  12 C :   -0.081502
  13 C :    0.256796
  14 C :    0.254278
  15 C :    0.256919
  16 H :   -0.152885
  17 C :    0.258694
  18 H :   -0.177591
  19 C :    0.266921
  20 H :   -0.164832
  21 H :   -0.164408
  22 H :   -0.147420
  23 H :   -0.142130

  Mayer bond orders larger than 0.100000
B(  0-C ,  1-C ) :   0.4832 B(  0-C ,  2-C ) :   0.2215 B(  0-C ,  3-C ) :   0.3747
B(  0-C ,  5-H ) :  -0.1951 B(  0-C ,  8-C ) :   0.2020 B(  0-C , 12-C ) :   0.4833
B(  0-C , 13-C ) :   0.2215 B(  0-C , 14-C ) :   0.3748 B(  0-C , 16-H ) :  -0.1952
B(  0-C , 19-C ) :   0.2020 B(  0-C , 23-H ) :   1.3321 B(  1-C ,  2-C ) :  -0.2207
B(  1-C ,  3-C ) :   0.3279 B(  1-C ,  5-H ) :  -0.2575 B(  1-C ,  7-H ) :  -0.1033
B(  1-C , 12-C ) :  -0.1125 B(  1-C , 23-H ) :  -0.1060 B(  2-C ,  3-C ) :  -0.4736
B(  2-C ,  4-C ) :   1.3066 B(  2-C ,  5-H ) :   1.7220 B(  2-C ,  6-C ) :   0.1345
B(  2-C ,  7-H ) :   0.1656 B(  2-C ,  8-C ) :  -0.2052 B(  2-C ,  9-H ) :  -0.1149
B(  2-C , 11-H ) :   0.1751 B(  3-C ,  5-H ) :   0.1137 B(  3-C ,  6-C ) :   1.5513
B(  3-C ,  7-H ) :   1.3483 B(  3-C ,  8-C ) :  -0.1342 B(  3-C , 18-H ) :  -0.1270
B(  4-C ,  6-C ) :   0.1821 B(  4-C ,  8-C ) :   1.0526 B(  4-C ,  9-H ) :   0.6055
B(  4-C , 11-H ) :  -0.1182 B(  6-C ,  8-C ) :   1.0453 B(  6-C , 10-H ) :   0.7750
B(  6-C , 11-H ) :  -0.2182 B(  7-H , 14-C ) :  -0.1270 B(  8-C , 11-H ) :   0.6568
B( 12-C , 13-C ) :  -0.2207 B( 12-C , 14-C ) :   0.3279 B( 12-C , 16-H ) :  -0.2576
B( 12-C , 18-H ) :  -0.1033 B( 12-C , 23-H ) :  -0.1060 B( 13-C , 14-C ) :  -0.4737
B( 13-C , 15-C ) :   1.3068 B( 13-C , 16-H ) :   1.7221 B( 13-C , 17-C ) :   0.1345
B( 13-C , 18-H ) :   0.1656 B( 13-C , 19-C ) :  -0.2053 B( 13-C , 20-H ) :  -0.1149
B( 13-C , 22-H ) :   0.1751 B( 14-C , 16-H ) :   0.1137 B( 14-C , 17-C ) :   1.5512
B( 14-C , 18-H ) :   1.3483 B( 14-C , 19-C ) :  -0.1343 B( 15-C , 17-C ) :   0.1822
B( 15-C , 19-C ) :   1.0525 B( 15-C , 20-H ) :   0.6055 B( 15-C , 22-H ) :  -0.1182
B( 17-C , 19-C ) :   1.0454 B( 17-C , 21-H ) :   0.7748 B( 17-C , 22-H ) :  -0.2182
B( 19-C , 22-H ) :   0.6568

MP2 TOTAL ENERGY:     -500.661602422 Eh
FINAL SINGLE POINT ENERGY      -500.661602422220

DIPOLE MOMENT
-------------
                                X             Y             Z
Electronic contribution:     -0.00000      -0.69140       0.00000
Nuclear contribution   :      0.00000       0.44360      -0.00001
                        -----------------------------------------
Total Dipole Moment    :     -0.00000      -0.24780      -0.00000
                        -----------------------------------------
Magnitude (a.u.)       :      0.24780
Magnitude (Debye)      :      0.62986

Rotational constants in cm-1:     0.085041     0.013662     0.012052
Rotational constants in MHz :  2549.464211   409.571469   361.312578

                             ****ORCA TERMINATED NORMALLY****
TOTAL RUN TIME: 0 days 0 hours 11 minutes 35 seconds 370 msec
