                         Program Version 4.2.1 -  RELEASE  -
|  1> %pal
|  2>  nprocs 32
|  3> end
|  4> !RI-MP2 aug-cc-pVTZ aug-cc-pVTZ/C TightSCF
|  5> %maxcore 4500
|  6> *xyzfile 0 2  06_19P.xyz
|  7>
|  8>
|  9>                          ****END OF INPUT****

CARTESIAN COORDINATES (ANGSTROEM)
---------------------------------
  C     -0.007059    0.321317    2.322393
  C      1.287963    0.909805    2.713077
  Si     0.000633    0.018634    0.396141
  Si     0.748767    1.931259   -0.746997
  Si    -2.163895   -0.544767   -0.343653
  Si     1.428804   -1.781486   -0.104672
  C      2.623836    2.094460   -0.644576
  H      2.960826    2.994692   -1.166755
  H      2.959085    2.161344    0.392495
  H      3.126686    1.239170   -1.101706
  C      0.266103    1.792816   -2.565616
  H      0.653169    2.647858   -3.127286
  H      0.668799    0.886395   -3.022667
  H     -0.818357    1.777480   -2.695183
  C     -0.027657    3.500656   -0.047795
  H      0.281172    4.370682   -0.634626
  H     -1.118723    3.454169   -0.069456
  H      0.279339    3.673606    0.985856
  C     -2.078781   -1.337006   -2.053429
  H     -1.525764   -2.278512   -2.035322
  H     -3.086416   -1.553486   -2.420003
  H     -1.595571   -0.680263   -2.779794
  C     -2.961059   -1.777477    0.840261
  H     -3.066581   -1.367057    1.846831
  H     -3.959618   -2.054196    0.489715
  H     -2.369870   -2.692470    0.917084
  C     -3.264055    0.982720   -0.464787
  H     -3.358579    1.492903    0.495837
  H     -2.867227    1.702773   -1.184190
  H     -4.269096    0.705102   -0.795569
  C      0.605820   -3.417637    0.348940
  H     -0.295651   -3.594255   -0.241758
  H      1.288493   -4.253127    0.169044
  H      0.321552   -3.444497    1.403855
  C      1.812766   -1.796174   -1.950965
  H      2.420104   -2.669363   -2.205875
  H      0.904006   -1.835774   -2.554856
  H      2.372472   -0.907184   -2.250247
  C      3.057581   -1.672517    0.837721
  H      3.731265   -2.472820    0.517606
  H      3.562714   -0.719875    0.666385
  H      2.905216   -1.781701    1.913800
  C     -1.196092    1.175310    2.774746
  H     -2.150360    0.711168    2.522305
  H     -1.173225    1.322689    3.857889
  H     -1.174791    2.162198    2.306938
  H     -0.101546   -0.681924    2.755452
  H      2.185354    0.310361    2.780205
  H      1.394597    1.985315    2.792710

 Total Charge           Charge          ....    0
 Multiplicity           Mult            ....    2
 Number of Electrons    NEL             ....  161
 Basis Dimension        Dim             .... 1511

ORBITAL ENERGIES
----------------
                 SPIN UP ORBITALS
  NO   OCC          E(Eh)            E(eV)
   0   1.0000     -68.746754     -1870.6943
   1   1.0000     -68.746668     -1870.6919
   2   1.0000     -68.746223     -1870.6798
   3   1.0000     -68.727482     -1870.1699
   4   1.0000     -11.224417      -305.4319
   5   1.0000     -11.217760      -305.2508
   6   1.0000     -11.215727      -305.1954
   7   1.0000     -11.196772      -304.6797
   8   1.0000     -11.196110      -304.6617
   9   1.0000     -11.196100      -304.6614
  10   1.0000     -11.195981      -304.6581
  11   1.0000     -11.195849      -304.6545
  12   1.0000     -11.195774      -304.6525
  13   1.0000     -11.195646      -304.6490
  14   1.0000     -11.195540      -304.6461
  15   1.0000     -11.194843      -304.6272
  16   1.0000      -6.094621      -165.8431
  17   1.0000      -6.094562      -165.8415
  18   1.0000      -6.094059      -165.8278
  19   1.0000      -6.079198      -165.4234
  20   1.0000      -4.201004      -114.3151
  21   1.0000      -4.200698      -114.3068
  22   1.0000      -4.200580      -114.3036
  23   1.0000      -4.200538      -114.3024
  24   1.0000      -4.200514      -114.3018
  25   1.0000      -4.200497      -114.3013
  26   1.0000      -4.200218      -114.2938
  27   1.0000      -4.200078      -114.2899
  28   1.0000      -4.200012      -114.2881
  29   1.0000      -4.185162      -113.8840
  30   1.0000      -4.184492      -113.8658
  31   1.0000      -4.184356      -113.8621
  32   1.0000      -1.061654       -28.8891
  33   1.0000      -0.968565       -26.3560
  34   1.0000      -0.962205       -26.1829
  35   1.0000      -0.961805       -26.1720
  36   1.0000      -0.931015       -25.3342
  37   1.0000      -0.924079       -25.1455
  38   1.0000      -0.922203       -25.0944
  39   1.0000      -0.920935       -25.0599
  40   1.0000      -0.919399       -25.0181
  41   1.0000      -0.918719       -24.9996
  42   1.0000      -0.918301       -24.9882
  43   1.0000      -0.796526       -21.6746
  44   1.0000      -0.699818       -19.0430
  45   1.0000      -0.631546       -17.1852
  46   1.0000      -0.623851       -16.9758
  47   1.0000      -0.619260       -16.8509
  48   1.0000      -0.601012       -16.3544
  49   1.0000      -0.581763       -15.8306
  50   1.0000      -0.576205       -15.6793
  51   1.0000      -0.574058       -15.6209
  52   1.0000      -0.570237       -15.5169
  53   1.0000      -0.564208       -15.3529
  54   1.0000      -0.561771       -15.2866
  55   1.0000      -0.560192       -15.2436
  56   1.0000      -0.553974       -15.0744
  57   1.0000      -0.552840       -15.0435
  58   1.0000      -0.550345       -14.9756
  59   1.0000      -0.541102       -14.7241
  60   1.0000      -0.538854       -14.6630
  61   1.0000      -0.538181       -14.6446
  62   1.0000      -0.534126       -14.5343
  63   1.0000      -0.533885       -14.5277
  64   1.0000      -0.532006       -14.4766
  65   1.0000      -0.528817       -14.3898
  66   1.0000      -0.527236       -14.3468
  67   1.0000      -0.526511       -14.3271
  68   1.0000      -0.520262       -14.1570
  69   1.0000      -0.504018       -13.7150
  70   1.0000      -0.486184       -13.2297
  71   1.0000      -0.443329       -12.0636
  72   1.0000      -0.431281       -11.7358
  73   1.0000      -0.430400       -11.7118
  74   1.0000      -0.425777       -11.5860
  75   1.0000      -0.425092       -11.5673
  76   1.0000      -0.422656       -11.5011
  77   1.0000      -0.421297       -11.4641
  78   1.0000      -0.339612        -9.2413
  79   1.0000      -0.335495        -9.1293
  80   1.0000      -0.301834        -8.2133
  81   0.0000       0.022732         0.6186
  82   0.0000       0.028142         0.7658
  83   0.0000       0.028406         0.7730
  84   0.0000       0.029423         0.8006
  85   0.0000       0.039087         1.0636

                 SPIN DOWN ORBITALS
  NO   OCC          E(Eh)            E(eV)
   0   1.0000     -68.746698     -1870.6927
   1   1.0000     -68.746559     -1870.6890
   2   1.0000     -68.746248     -1870.6805
   3   1.0000     -68.726705     -1870.1487
   4   1.0000     -11.220551      -305.3267
   5   1.0000     -11.215048      -305.1770
   6   1.0000     -11.201651      -304.8124
   7   1.0000     -11.196780      -304.6799
   8   1.0000     -11.196104      -304.6615
   9   1.0000     -11.196001      -304.6587
  10   1.0000     -11.195943      -304.6571
  11   1.0000     -11.195839      -304.6543
  12   1.0000     -11.195778      -304.6526
  13   1.0000     -11.195679      -304.6499
  14   1.0000     -11.195561      -304.6467
  15   1.0000     -11.194756      -304.6248
  16   1.0000      -6.094609      -165.8427
  17   1.0000      -6.094323      -165.8350
  18   1.0000      -6.094097      -165.8288
  19   1.0000      -6.077964      -165.3898
  20   1.0000      -4.200804      -114.3097
  21   1.0000      -4.200598      -114.3041
  22   1.0000      -4.200557      -114.3030
  23   1.0000      -4.200435      -114.2996
  24   1.0000      -4.200354      -114.2974
  25   1.0000      -4.200305      -114.2961
  26   1.0000      -4.200262      -114.2949
  27   1.0000      -4.200092      -114.2903
  28   1.0000      -4.200034      -114.2887
  29   1.0000      -4.184045      -113.8536
  30   1.0000      -4.183822      -113.8476
  31   1.0000      -4.182549      -113.8130
  32   1.0000      -1.042195       -28.3596
  33   1.0000      -0.968333       -26.3497
  34   1.0000      -0.961917       -26.1751
  35   1.0000      -0.961652       -26.1679
  36   1.0000      -0.924007       -25.1435
  37   1.0000      -0.922282       -25.0966
  38   1.0000      -0.921414       -25.0730
  39   1.0000      -0.919561       -25.0225
  40   1.0000      -0.919254       -25.0142
  41   1.0000      -0.918224       -24.9861
  42   1.0000      -0.892504       -24.2863
  43   1.0000      -0.766898       -20.8684
  44   1.0000      -0.694665       -18.9028
  45   1.0000      -0.627016       -17.0620
  46   1.0000      -0.623148       -16.9567
  47   1.0000      -0.615827       -16.7575
  48   1.0000      -0.595612       -16.2074
  49   1.0000      -0.580193       -15.7878
  50   1.0000      -0.574562       -15.6346
  51   1.0000      -0.573373       -15.6023
  52   1.0000      -0.566101       -15.4044
  53   1.0000      -0.563929       -15.3453
  54   1.0000      -0.561285       -15.2733
  55   1.0000      -0.558521       -15.1981
  56   1.0000      -0.553738       -15.0680
  57   1.0000      -0.551349       -15.0030
  58   1.0000      -0.549468       -14.9518
  59   1.0000      -0.540867       -14.7177
  60   1.0000      -0.538586       -14.6557
  61   1.0000      -0.537562       -14.6278
  62   1.0000      -0.534002       -14.5309
  63   1.0000      -0.533474       -14.5166
  64   1.0000      -0.531761       -14.4700
  65   1.0000      -0.528737       -14.3877
  66   1.0000      -0.527034       -14.3413
  67   1.0000      -0.526249       -14.3200
  68   1.0000      -0.516472       -14.0539
  69   1.0000      -0.495605       -13.4861
  70   1.0000      -0.482471       -13.1287
  71   1.0000      -0.435121       -11.8403
  72   1.0000      -0.431130       -11.7316
  73   1.0000      -0.430171       -11.7056
  74   1.0000      -0.425112       -11.5679
  75   1.0000      -0.424897       -11.5620
  76   1.0000      -0.422636       -11.5005
  77   1.0000      -0.384212       -10.4550
  78   1.0000      -0.335007        -9.1160
  79   1.0000      -0.334540        -9.1033
  80   0.0000       0.022787         0.6201
  81   0.0000       0.028160         0.7663
  82   0.0000       0.028424         0.7734
  83   0.0000       0.029093         0.7917
  84   0.0000       0.039081         1.0634

MULLIKEN ATOMIC CHARGES AND SPIN POPULATIONS
--------------------------------------------
   0 C :    0.508353   -0.260044
   1 C :   -1.590781    1.345487
   2 Si:    1.577972   -0.014352
   3 Si:    2.702546    0.011086
   4 Si:    3.076317    0.047633
   5 Si:    1.955708   -0.011226
   6 C :   -1.535799   -0.001080
   7 H :    0.026004    0.002726
   8 H :    0.254453   -0.001977
   9 H :    0.341853    0.000130
  10 C :   -1.518670   -0.003525
  11 H :    0.061802   -0.000158
  12 H :    0.295701   -0.001377
  13 H :    0.303865    0.000536
  14 C :   -1.653661    0.002584
  15 H :   -0.011513    0.000501
  16 H :    0.328762   -0.000125
  17 H :    0.223646   -0.002774
  18 C :   -1.832871    0.007106
  19 H :    0.302550   -0.001328
  20 H :   -0.022338    0.002138
  21 H :    0.321685   -0.002271
  22 C :   -1.719827   -0.003292
  23 H :    0.278332   -0.000707
  24 H :    0.012492    0.000312
  25 H :    0.338907    0.000349
  26 C :   -1.560045   -0.001990
  27 H :    0.238584   -0.000745
  28 H :    0.323618    0.000187
  29 H :    0.004048    0.000147
  30 C :   -1.496010   -0.000580
  31 H :    0.337523    0.000618
  32 H :    0.049598    0.000037
  33 H :    0.217906    0.000217
  34 C :   -1.216019   -0.002909
  35 H :    0.183119   -0.000273
  36 H :    0.266791   -0.000538
  37 H :    0.280054   -0.000933
  38 C :   -1.647493   -0.000252
  39 H :    0.026415    0.000462
  40 H :    0.334648    0.002958
  41 H :    0.170049    0.001056
  42 C :   -1.350705    0.040844
  43 H :    0.346319    0.001397
  44 H :    0.173271   -0.005470
  45 H :    0.349833   -0.005398
  46 H :    0.262085    0.047070
  47 H :    0.310129   -0.116905
  48 H :    0.370798   -0.075354
Sum of atomic charges         :    0.0000000

LOEWDIN ATOMIC CHARGES AND SPIN POPULATIONS
-------------------------------------------
   0 C :   -0.163780    0.122095
   1 C :    0.510597    0.537201
   2 Si:    0.526845    0.043663
   3 Si:    0.423266    0.004203
   4 Si:    0.423712    0.014996
   5 Si:    0.427718    0.000916
   6 C :    0.545272    0.002920
   7 H :   -0.226459    0.000379
   8 H :   -0.237115    0.004125
   9 H :   -0.245105    0.000189
  10 C :    0.544841   -0.000513
  11 H :   -0.224376   -0.000125
  12 H :   -0.242982    0.000009
  13 H :   -0.244840    0.000013
  14 C :    0.546088    0.000379
  15 H :   -0.226696    0.000044
  16 H :   -0.237576    0.000002
  17 H :   -0.240989    0.000368
  18 C :    0.545271    0.006062
  19 H :   -0.245749    0.000255
  20 H :   -0.224033    0.001358
  21 H :   -0.242413    0.000295
  22 C :    0.552458   -0.000014
  23 H :   -0.240232   -0.000074
  24 H :   -0.226310    0.000041
  25 H :   -0.243736    0.000042
  26 C :    0.547076    0.000559
  27 H :   -0.239669   -0.000094
  28 H :   -0.243943    0.000041
  29 H :   -0.226234    0.000125
  30 C :    0.543194   -0.000261
  31 H :   -0.248585    0.000031
  32 H :   -0.226854   -0.000067
  33 H :   -0.230148    0.000038
  34 C :    0.545973   -0.000083
  35 H :   -0.224218   -0.000034
  36 H :   -0.245521    0.000061
  37 H :   -0.243926    0.000032
  38 C :    0.543168    0.000618
  39 H :   -0.226975    0.000059
  40 H :   -0.239281    0.000917
  41 H :   -0.240070   -0.000641
  42 C :    0.514713    0.012565
  43 H :   -0.200851    0.000521
  44 H :   -0.157608    0.004797
  45 H :   -0.184105    0.000176
  46 H :   -0.206615    0.012599
  47 H :   -0.232005    0.114797
  48 H :   -0.211195    0.114412

  Mayer bond orders larger than 0.100000
B(  0-C ,  1-C ) :   0.3831 B(  0-C ,  2-Si) :   1.0175 B(  0-C ,  3-Si) :   0.1889
B(  0-C ,  4-Si) :  -0.1405 B(  0-C ,  5-Si) :  -0.2493 B(  0-C , 42-C ) :   0.6531
B(  0-C , 46-H ) :   1.0611 B(  1-C ,  5-Si) :   0.1153 B(  1-C , 42-C ) :   0.1405
B(  1-C , 46-H ) :  -0.2241 B(  1-C , 47-H ) :   0.9877 B(  1-C , 48-H ) :   0.9112
B(  2-Si,  5-Si) :  -0.1905 B(  2-Si,  6-C ) :   0.1723 B(  2-Si, 10-C ) :   0.1382
B(  2-Si, 14-C ) :   0.2615 B(  2-Si, 18-C ) :   0.1368 B(  2-Si, 22-C ) :   0.3072
B(  2-Si, 26-C ) :   0.2118 B(  2-Si, 30-C ) :   0.1936 B(  2-Si, 34-C ) :  -0.1588
B(  2-Si, 38-C ) :   0.1795 B(  2-Si, 42-C ) :  -0.1530 B(  3-Si,  4-Si) :   0.4234
B(  3-Si,  5-Si) :   0.3929 B(  3-Si,  6-C ) :  -0.1480 B(  3-Si, 14-C ) :  -0.3135
B(  3-Si, 15-H ) :  -0.1465 B(  3-Si, 30-C ) :  -0.1286 B(  4-Si,  5-Si) :   0.2797
B(  4-Si,  6-C ) :  -0.1081 B(  4-Si, 18-C ) :  -0.8314 B(  4-Si, 20-H ) :  -0.1351
B(  4-Si, 22-C ) :  -0.3470 B(  4-Si, 24-H ) :  -0.1371 B(  4-Si, 26-C ) :  -0.1835
B(  4-Si, 29-H ) :  -0.1191 B(  4-Si, 30-C ) :  -0.1002 B(  4-Si, 43-H ) :  -0.1033
B(  5-Si, 14-C ) :  -0.1061 B(  5-Si, 26-C ) :  -0.1163 B(  5-Si, 30-C ) :  -0.1517
B(  5-Si, 34-C ) :   0.5705 B(  5-Si, 36-H ) :   0.1217 B(  5-Si, 38-C ) :  -0.2803
B(  5-Si, 39-H ) :  -0.1315 B(  6-C ,  7-H ) :   1.2611 B(  6-C ,  8-H ) :   1.0710
B(  6-C ,  9-H ) :   0.9675 B( 10-C , 11-H ) :   1.2051 B( 10-C , 12-H ) :   1.0435
B( 10-C , 13-H ) :   1.0142 B( 10-C , 14-C ) :   0.1288 B( 14-C , 15-H ) :   1.3462
B( 14-C , 16-H ) :   0.9636 B( 14-C , 17-H ) :   1.1158 B( 18-C , 19-H ) :   1.0464
B( 18-C , 20-H ) :   1.3890 B( 18-C , 21-H ) :   1.0411 B( 18-C , 22-C ) :   0.1905
B( 18-C , 26-C ) :   0.1060 B( 22-C , 23-H ) :   1.0765 B( 22-C , 24-H ) :   1.3424
B( 22-C , 25-H ) :   0.9660 B( 26-C , 27-H ) :   1.0992 B( 26-C , 28-H ) :   0.9984
B( 26-C , 29-H ) :   1.3132 B( 30-C , 31-H ) :   0.9638 B( 30-C , 32-H ) :   1.2606
B( 30-C , 33-H ) :   1.0845 B( 34-C , 35-H ) :   0.9768 B( 34-C , 36-H ) :   1.0381
B( 34-C , 37-H ) :   1.0200 B( 34-C , 38-C ) :   0.2012 B( 38-C , 39-H ) :   1.2786
B( 38-C , 40-H ) :   0.9707 B( 38-C , 41-H ) :   1.1907 B( 42-C , 43-H ) :   0.9068
B( 42-C , 44-H ) :   1.1861 B( 42-C , 45-H ) :   1.0051 B( 42-C , 46-H ) :  -0.1108

MP2 TOTAL ENERGY:    -1632.319139897 Eh
FINAL SINGLE POINT ENERGY     -1632.319139897220

DIPOLE MOMENT
-------------
                                X             Y             Z
Electronic contribution:      0.92045      -0.70593       1.42746
Nuclear contribution   :     -0.95738       0.66190      -1.48479
                        -----------------------------------------
Total Dipole Moment    :     -0.03693      -0.04403      -0.05732
                        -----------------------------------------
Magnitude (a.u.)       :      0.08117
Magnitude (Debye)      :      0.20632

Rotational constants in cm-1:     0.011049     0.010921     0.009009
Rotational constants in MHz :   331.243310   327.395533   270.097581

                             ****ORCA TERMINATED NORMALLY****
TOTAL RUN TIME: 0 days 2 hours 6 minutes 7 seconds 281 msec
