                         Program Version 4.2.1 -  RELEASE  -
|  1> %pal
|  2>  nprocs 32
|  3> end
|  4> !RI-MP2 aug-cc-pVTZ aug-cc-pVTZ/C TightSCF
|  5> %maxcore 4500
|  6> *xyzfile 0 1  06_12TS.xyz
|  7>
|  8>
|  9>                          ****END OF INPUT****

CARTESIAN COORDINATES (ANGSTROEM)
---------------------------------
  C     -0.569558   -0.961519    0.916453
  H      0.195540   -1.499377    1.489716
  B      0.032560   -0.063096   -0.236416
  C     -1.326339   -0.058512    1.908381
  H     -0.580697    0.549949    2.432772
  H     -1.817390   -0.667349    2.676227
  C     -1.445843   -2.025285    0.213301
  H     -0.774873   -2.700462   -0.330927
  C      1.537713    3.462684   -0.063551
  H      1.624710    3.705414    0.989806
  H      1.446426    4.288715   -0.756398
  C      1.541231    2.204636   -0.493626
  C      1.683992    1.035997    0.378368
  H      1.451010    2.004329   -1.555358
  H     -1.960818   -2.643093    0.957879
  H      2.024649    1.226122    1.390766
  C      1.977113   -0.224356   -0.127393
  O      1.171341   -0.679548   -1.050102
  O      2.831962   -1.036401    0.455054
  C      2.786306   -2.429034    0.098079
  H      1.785854   -2.828359    0.254856
  H      3.076717   -2.560454   -0.942749
  H      3.501086   -2.913992    0.756507
  C     -2.475532   -1.465695   -0.781617
  H     -2.845728   -2.287226   -1.402493
  H     -3.346364   -1.096597   -0.240951
  C     -1.091532    0.733077   -0.993187
  H     -0.704726    1.390320   -1.775719
  C     -1.930875   -0.360610   -1.699851
  H     -1.297440   -0.821568   -2.466229
  H     -2.765814    0.104581   -2.235712
  C     -1.876017    1.601857    0.007688
  H     -2.735151    2.064407   -0.491544
  H     -1.220031    2.425042    0.306837
  C     -2.363369    0.878844    1.273138
  H     -2.656414    1.629553    2.013467
  H     -3.273506    0.320613    1.054623

 Total Charge           Charge          ....    0
 Multiplicity           Mult            ....    1
 Number of Electrons    NEL             ....  120
 Basis Dimension        Dim             .... 1219

ORBITAL ENERGIES
----------------

  NO   OCC          E(Eh)            E(eV)
   0   2.0000     -20.629931      -561.3690
   1   2.0000     -20.587590      -560.2168
   2   2.0000     -11.406407      -310.3841
   3   2.0000     -11.303671      -307.5885
   4   2.0000     -11.242781      -305.9316
   5   2.0000     -11.230891      -305.6081
   6   2.0000     -11.210997      -305.0667
   7   2.0000     -11.210397      -305.0504
   8   2.0000     -11.207685      -304.9766
   9   2.0000     -11.206259      -304.9378
  10   2.0000     -11.205352      -304.9131
  11   2.0000     -11.202190      -304.8271
  12   2.0000     -11.200972      -304.7940
  13   2.0000     -11.187362      -304.4236
  14   2.0000     -11.183356      -304.3146
  15   2.0000      -7.607613      -207.0137
  16   2.0000      -1.495652       -40.6987
  17   2.0000      -1.401746       -38.1434
  18   2.0000      -1.105120       -30.0718
  19   2.0000      -1.093286       -29.7498
  20   2.0000      -1.030928       -28.0530
  21   2.0000      -1.022512       -27.8240
  22   2.0000      -1.016273       -27.6542
  23   2.0000      -0.955702       -26.0060
  24   2.0000      -0.922648       -25.1065
  25   2.0000      -0.903592       -24.5880
  26   2.0000      -0.821906       -22.3652
  27   2.0000      -0.786958       -21.4142
  28   2.0000      -0.781654       -21.2699
  29   2.0000      -0.769683       -20.9441
  30   2.0000      -0.742049       -20.1922
  31   2.0000      -0.735220       -20.0064
  32   2.0000      -0.703611       -19.1462
  33   2.0000      -0.700948       -19.0738
  34   2.0000      -0.662520       -18.0281
  35   2.0000      -0.636218       -17.3124
  36   2.0000      -0.621809       -16.9203
  37   2.0000      -0.621471       -16.9111
  38   2.0000      -0.605433       -16.4747
  39   2.0000      -0.584719       -15.9110
  40   2.0000      -0.575672       -15.6648
  41   2.0000      -0.571171       -15.5424
  42   2.0000      -0.566162       -15.4060
  43   2.0000      -0.553737       -15.0680
  44   2.0000      -0.541758       -14.7420
  45   2.0000      -0.536760       -14.6060
  46   2.0000      -0.529202       -14.4003
  47   2.0000      -0.514001       -13.9867
  48   2.0000      -0.501660       -13.6509
  49   2.0000      -0.494810       -13.4645
  50   2.0000      -0.490105       -13.3364
  51   2.0000      -0.472052       -12.8452
  52   2.0000      -0.462131       -12.5752
  53   2.0000      -0.455712       -12.4006
  54   2.0000      -0.447176       -12.1683
  55   2.0000      -0.433575       -11.7982
  56   2.0000      -0.410839       -11.1795
  57   2.0000      -0.404133       -10.9970
  58   2.0000      -0.371749       -10.1158
  59   2.0000      -0.305743        -8.3197
  60   0.0000       0.022586         0.6146
  61   0.0000       0.029958         0.8152
  62   0.0000       0.032271         0.8781
  63   0.0000       0.033812         0.9201
  64   0.0000       0.043118         1.1733

MULLIKEN ATOMIC CHARGES
-----------------------
   0 C :    0.543302
   1 H :    0.440154
   2 B :    2.275728
   3 C :   -0.954763
   4 H :   -0.035901
   5 H :    0.265877
   6 C :   -0.975676
   7 H :   -0.025633
   8 C :   -1.476733
   9 H :    0.311586
  10 H :    0.371438
  11 C :    0.169449
  12 C :    0.140252
  13 H :    0.284580
  14 H :    0.218925
  15 H :    0.370811
  16 C :    0.465426
  17 O :   -1.192295
  18 O :   -0.758773
  19 C :   -1.016080
  20 H :    0.486638
  21 H :    0.335424
  22 H :    0.344634
  23 C :   -0.392956
  24 H :    0.376949
  25 H :    0.088170
  26 C :    0.459363
  27 H :    0.356858
  28 C :   -1.107831
  29 H :   -0.114919
  30 H :    0.267646
  31 C :   -0.923018
  32 H :    0.192604
  33 H :    0.084222
  34 C :   -0.369380
  35 H :    0.370034
  36 H :    0.123891
Sum of atomic charges:    0.0000000

LOEWDIN ATOMIC CHARGES
----------------------
   0 C :    0.113904
   1 H :   -0.142902
   2 B :   -0.849855
   3 C :    0.324105
   4 H :   -0.136372
   5 H :   -0.131477
   6 C :    0.326133
   7 H :   -0.139306
   8 C :    0.532446
   9 H :   -0.215276
  10 H :   -0.224861
  11 C :    0.145562
  12 C :    0.213161
  13 H :   -0.174846
  14 H :   -0.130345
  15 H :   -0.152254
  16 C :   -0.699642
  17 O :    0.698396
  18 O :    0.634659
  19 C :    0.409792
  20 H :   -0.183523
  21 H :   -0.164427
  22 H :   -0.172821
  23 C :    0.327900
  24 H :   -0.135126
  25 H :   -0.178471
  26 C :    0.125886
  27 H :   -0.148654
  28 C :    0.331741
  29 H :   -0.130940
  30 H :   -0.130406
  31 C :    0.325998
  32 H :   -0.129015
  33 H :   -0.152276
  34 C :    0.327002
  35 H :   -0.135217
  36 H :   -0.178673

  Mayer bond orders larger than 0.100000
B(  0-C ,  1-H ) :   0.8987 B(  0-C ,  2-B ) :   1.1661 B(  0-C ,  3-C ) :   0.6113
B(  0-C ,  5-H ) :  -0.1020 B(  0-C ,  6-C ) :   0.7223 B(  0-C , 17-O ) :  -0.1771
B(  0-C , 18-O ) :   0.1257 B(  0-C , 26-C ) :   0.1938 B(  1-H ,  2-B ) :  -0.1289
B(  1-H ,  3-C ) :  -0.2525 B(  1-H ,  6-C ) :  -0.1934 B(  2-B ,  7-H ) :  -0.1379
B(  2-B , 11-C ) :  -0.1087 B(  2-B , 12-C ) :   0.2602 B(  2-B , 13-H ) :  -0.1315
B(  2-B , 16-C ) :  -0.2993 B(  2-B , 17-O ) :  -1.4865 B(  2-B , 19-C ) :  -0.1211
B(  2-B , 25-H ) :  -0.1099 B(  2-B , 26-C ) :   1.2403 B(  2-B , 27-H ) :  -0.1111
B(  2-B , 28-C ) :  -0.2235 B(  2-B , 29-H ) :  -0.1207 B(  2-B , 31-C ) :   0.2181
B(  2-B , 34-C ) :  -0.1219 B(  3-C ,  4-H ) :   1.3779 B(  3-C ,  5-H ) :   1.0047
B(  3-C , 31-C ) :   0.1942 B(  3-C , 34-C ) :   0.8627 B(  3-C , 36-H ) :   0.1035
B(  6-C ,  7-H ) :   1.2928 B(  6-C , 14-H ) :   1.0488 B(  6-C , 23-C ) :   0.8862
B(  6-C , 25-H ) :   0.1155 B(  6-C , 28-C ) :   0.1982 B(  8-C ,  9-H ) :   1.1121
B(  8-C , 10-H ) :   0.8615 B(  8-C , 11-C ) :   0.8870 B( 11-C , 12-C ) :   0.8754
B( 11-C , 13-H ) :   1.0274 B( 11-C , 16-C ) :   0.1786 B( 12-C , 15-H ) :   0.6909
B( 12-C , 16-C ) :   1.2941 B( 16-C , 17-O ) :   1.5125 B( 16-C , 18-O ) :   0.4834
B( 17-O , 18-O ) :  -0.1166 B( 18-O , 19-C ) :   1.0002 B( 19-C , 20-H ) :   0.7480
B( 19-C , 21-H ) :   0.9168 B( 19-C , 22-H ) :   0.9554 B( 23-C , 24-H ) :   0.8837
B( 23-C , 25-H ) :   1.1277 B( 23-C , 28-C ) :   0.8794 B( 25-H , 28-C ) :   0.1347
B( 26-C , 27-H ) :   0.8289 B( 26-C , 28-C ) :   0.7035 B( 26-C , 31-C ) :   0.7524
B( 26-C , 32-H ) :  -0.1038 B( 27-H , 28-C ) :  -0.2706 B( 27-H , 31-C ) :  -0.1633
B( 28-C , 29-H ) :   1.4659 B( 28-C , 30-H ) :   1.0209 B( 31-C , 32-H ) :   1.0460
B( 31-C , 33-H ) :   1.1932 B( 31-C , 34-C ) :   0.8790 B( 31-C , 36-H ) :   0.1009
B( 34-C , 35-H ) :   0.8689 B( 34-C , 36-H ) :   1.1214

MP2 TOTAL ENERGY:     -681.934363617 Eh
FINAL SINGLE POINT ENERGY      -681.934363617038

DIPOLE MOMENT
-------------
                                X             Y             Z
Electronic contribution:     11.64819      -0.43808      -2.23115
Nuclear contribution   :    -11.09453      -0.29245       2.36151
                        -----------------------------------------
Total Dipole Moment    :      0.55366      -0.73054       0.13036
                        -----------------------------------------
Magnitude (a.u.)       :      0.92586
Magnitude (Debye)      :      2.35335

Rotational constants in cm-1:     0.022580     0.017309     0.012769
Rotational constants in MHz :   676.939908   518.899965   382.808155

                             ****ORCA TERMINATED NORMALLY****
TOTAL RUN TIME: 0 days 0 hours 40 minutes 41 seconds 482 msec
