                         Program Version 4.2.1 -  RELEASE  -
|  1> %pal
|  2>  nprocs 32
|  3> end
|  4> !RI-MP2 aug-cc-pVTZ aug-cc-pVTZ/C TightSCF
|  5> %maxcore 4500
|  6> *xyzfile 0 1  06_11TS.xyz
|  7>
|  8>
|  9>                          ****END OF INPUT****

CARTESIAN COORDINATES (ANGSTROEM)
---------------------------------
  C     -1.707965    1.004765   -0.597139
  C     -0.474269   -0.848354    0.778063
  C     -2.823491    1.043222    0.473101
  H     -2.627934    1.905613    1.120309
  H     -3.794528    1.231379    0.000182
  H      0.433158   -1.168462    1.298744
  H     -1.679116    2.000081   -1.055235
  H     -0.125825    1.408220    1.147304
  C     -1.596682   -0.793210    1.839018
  H     -1.774097   -1.797451    2.241610
  H     -1.232128   -0.185799    2.673962
  B     -0.381883    0.659239    0.223244
  C      1.057145    1.882515   -0.290856
  C      1.179758    0.699896   -0.916300
  H      0.751028    0.548693   -1.897593
  C      1.195420    3.125213    0.060183
  H      1.945050    3.722229   -0.447400
  H      0.592334    3.583596    0.829523
  C      2.227134   -0.281668   -0.532439
  O      2.547537   -1.211041   -1.224565
  O      2.775807   -0.006791    0.653603
  C      3.764154   -0.935167    1.110624
  H      4.597957   -0.977905    0.410561
  H      4.091007   -0.560616    2.076573
  H      3.328970   -1.929312    1.211008
  C     -0.752332   -1.851457   -0.357223
  H      0.156228   -1.961773   -0.954693
  H     -0.945877   -2.842348    0.070458
  C     -1.964719   -0.013633   -1.721388
  H     -1.222865    0.147896   -2.513141
  H     -2.933771    0.185211   -2.193940
  C     -2.936519   -0.214772    1.351705
  H     -3.488214   -0.984594    0.812803
  H     -3.552756    0.022274    2.224554
  C     -1.915383   -1.488688   -1.294775
  H     -1.847483   -2.112353   -2.191350
  H     -2.861986   -1.760090   -0.828205

 Total Charge           Charge          ....    0
 Multiplicity           Mult            ....    1
 Number of Electrons    NEL             ....  120
 Basis Dimension        Dim             .... 1219

ORBITAL ENERGIES
----------------

  NO   OCC          E(Eh)            E(eV)
   0   2.0000     -20.611963      -560.8800
   1   2.0000     -20.551552      -559.2362
   2   2.0000     -11.393893      -310.0436
   3   2.0000     -11.333595      -308.4028
   4   2.0000     -11.291224      -307.2498
   5   2.0000     -11.278839      -306.9128
   6   2.0000     -11.276235      -306.8420
   7   2.0000     -11.202151      -304.8260
   8   2.0000     -11.201646      -304.8123
   9   2.0000     -11.200466      -304.7802
  10   2.0000     -11.199038      -304.7413
  11   2.0000     -11.197315      -304.6944
  12   2.0000     -11.194458      -304.6167
  13   2.0000     -11.185683      -304.3779
  14   2.0000     -11.180799      -304.2450
  15   2.0000      -7.554589      -205.5708
  16   2.0000      -1.475553       -40.1518
  17   2.0000      -1.371762       -37.3275
  18   2.0000      -1.149641       -31.2833
  19   2.0000      -1.095362       -29.8063
  20   2.0000      -1.037430       -28.2299
  21   2.0000      -1.023755       -27.8578
  22   2.0000      -1.010765       -27.5043
  23   2.0000      -0.972542       -26.4642
  24   2.0000      -0.914142       -24.8751
  25   2.0000      -0.897804       -24.4305
  26   2.0000      -0.829282       -22.5659
  27   2.0000      -0.779852       -21.2209
  28   2.0000      -0.768342       -20.9077
  29   2.0000      -0.764306       -20.7978
  30   2.0000      -0.739738       -20.1293
  31   2.0000      -0.710335       -19.3292
  32   2.0000      -0.695052       -18.9133
  33   2.0000      -0.690114       -18.7789
  34   2.0000      -0.673960       -18.3394
  35   2.0000      -0.656264       -17.8578
  36   2.0000      -0.644062       -17.5258
  37   2.0000      -0.624328       -16.9888
  38   2.0000      -0.598222       -16.2784
  39   2.0000      -0.581160       -15.8142
  40   2.0000      -0.575866       -15.6701
  41   2.0000      -0.566125       -15.4050
  42   2.0000      -0.559768       -15.2321
  43   2.0000      -0.553590       -15.0640
  44   2.0000      -0.542126       -14.7520
  45   2.0000      -0.538044       -14.6409
  46   2.0000      -0.522887       -14.2285
  47   2.0000      -0.487196       -13.2573
  48   2.0000      -0.484827       -13.1928
  49   2.0000      -0.478766       -13.0279
  50   2.0000      -0.469088       -12.7645
  51   2.0000      -0.456657       -12.4263
  52   2.0000      -0.453386       -12.3373
  53   2.0000      -0.451880       -12.2963
  54   2.0000      -0.440441       -11.9850
  55   2.0000      -0.428057       -11.6480
  56   2.0000      -0.409684       -11.1481
  57   2.0000      -0.386474       -10.5165
  58   2.0000      -0.384185       -10.4542
  59   2.0000      -0.363966        -9.9040
  60   0.0000       0.019053         0.5184
  61   0.0000       0.029071         0.7911
  62   0.0000       0.030964         0.8426
  63   0.0000       0.033244         0.9046
  64   0.0000       0.042436         1.1547

MULLIKEN ATOMIC CHARGES
-----------------------
   0 C :    0.153980
   1 C :    0.425501
   2 C :   -0.933673
   3 H :   -0.095874
   4 H :    0.283754
   5 H :    0.593513
   6 H :    0.531154
   7 H :   -0.429929
   8 C :   -1.104334
   9 H :    0.240764
  10 H :   -0.093265
  11 B :    1.505695
  12 C :    0.746346
  13 C :    0.690376
  14 H :    0.720712
  15 C :   -2.194866
  16 H :    0.114476
  17 H :    0.394596
  18 C :    0.934084
  19 O :   -1.259865
  20 O :   -0.415072
  21 C :   -1.020936
  22 H :    0.391340
  23 H :    0.325877
  24 H :    0.401124
  25 C :   -0.765900
  26 H :    0.001055
  27 H :    0.241230
  28 C :   -0.815837
  29 H :   -0.020617
  30 H :    0.294004
  31 C :   -0.408200
  32 H :    0.045045
  33 H :    0.406446
  34 C :   -0.405448
  35 H :    0.418519
  36 H :    0.104226
Sum of atomic charges:   -0.0000000

LOEWDIN ATOMIC CHARGES
----------------------
   0 C :    0.109974
   1 C :    0.113292
   2 C :    0.320535
   3 H :   -0.136358
   4 H :   -0.132823
   5 H :   -0.145471
   6 H :   -0.133545
   7 H :   -0.061725
   8 C :    0.323069
   9 H :   -0.132833
  10 H :   -0.137473
  11 B :   -0.519047
  12 C :    0.090571
  13 C :    0.180318
  14 H :   -0.154465
  15 C :    0.617508
  16 H :   -0.193488
  17 H :   -0.187880
  18 C :   -0.828594
  19 O :    0.499058
  20 O :    0.588742
  21 C :    0.372054
  22 H :   -0.176388
  23 H :   -0.180131
  24 H :   -0.173097
  25 C :    0.322702
  26 H :   -0.176831
  27 H :   -0.130723
  28 C :    0.319173
  29 H :   -0.151979
  30 H :   -0.132293
  31 C :    0.328740
  32 H :   -0.179759
  33 H :   -0.136399
  34 C :    0.330228
  35 H :   -0.135121
  36 H :   -0.179542

  Mayer bond orders larger than 0.100000
B(  0-C ,  1-C ) :   0.1891 B(  0-C ,  2-C ) :   0.8756 B(  0-C ,  6-H ) :   0.8343
B(  0-C ,  7-H ) :   0.2025 B(  0-C , 11-B ) :   0.9273 B(  0-C , 15-C ) :  -0.1425
B(  0-C , 28-C ) :   0.7351 B(  1-C ,  5-H ) :   0.6587 B(  1-C ,  7-H ) :   0.1432
B(  1-C ,  8-C ) :   0.5118 B(  1-C , 10-H ) :  -0.1670 B(  1-C , 11-B ) :   0.9767
B(  1-C , 25-C ) :   0.7144 B(  1-C , 27-H ) :  -0.1237 B(  2-C ,  3-H ) :   1.3788
B(  2-C ,  4-H ) :   0.9685 B(  2-C ,  6-H ) :  -0.1896 B(  2-C ,  8-C ) :   0.1829
B(  2-C , 11-B ) :  -0.1512 B(  2-C , 31-C ) :   0.8825 B(  2-C , 32-H ) :   0.1503
B(  2-C , 33-H ) :  -0.1221 B(  3-H , 11-B ) :  -0.1918 B(  5-H ,  8-C ) :  -0.3323
B(  5-H , 11-B ) :  -0.1654 B(  5-H , 18-C ) :   0.1023 B(  5-H , 20-O ) :   0.1266
B(  5-H , 25-C ) :  -0.1819 B(  6-H , 11-B ) :  -0.1636 B(  6-H , 28-C ) :  -0.2463
B(  7-H , 11-B ) :   0.6487 B(  8-C ,  9-H ) :   1.0748 B(  8-C , 10-H ) :   1.5054
B(  8-C , 11-B ) :  -0.1121 B(  8-C , 31-C ) :   0.8443 B(  8-C , 32-H ) :   0.1400
B(  8-C , 33-H ) :  -0.1162 B( 11-B , 12-C ) :   0.5487 B( 11-B , 14-H ) :   0.1066
B( 11-B , 15-C ) :  -0.2652 B( 11-B , 18-C ) :  -0.1769 B( 11-B , 20-O ) :  -0.1719
B( 11-B , 25-C ) :   0.1302 B( 11-B , 28-C ) :   0.1632 B( 11-B , 32-H ) :  -0.1144
B( 12-C , 13-C ) :   1.5604 B( 12-C , 14-H ) :  -0.2602 B( 12-C , 15-C ) :   0.1796
B( 12-C , 16-H ) :  -0.1795 B( 13-C , 14-H ) :   0.5720 B( 13-C , 15-C ) :  -0.5353
B( 13-C , 18-C ) :   0.7306 B( 13-C , 19-O ) :  -0.2819 B( 14-H , 15-C ) :  -0.1232
B( 15-C , 16-H ) :   1.5837 B( 15-C , 17-H ) :   1.0464 B( 18-C , 19-O ) :   0.8381
B( 18-C , 20-O ) :   0.9966 B( 20-O , 21-C ) :   0.9125 B( 21-C , 22-H ) :   0.8711
B( 21-C , 23-H ) :   0.9555 B( 21-C , 24-H ) :   0.8411 B( 25-C , 26-H ) :   1.2764
B( 25-C , 27-H ) :   0.9623 B( 25-C , 28-C ) :   0.1554 B( 25-C , 34-C ) :   0.8534
B( 25-C , 35-H ) :  -0.1057 B( 28-C , 29-H ) :   1.3117 B( 28-C , 30-H ) :   0.9477
B( 28-C , 34-C ) :   0.8575 B( 28-C , 35-H ) :  -0.1110 B( 28-C , 36-H ) :   0.1070
B( 31-C , 32-H ) :   1.1523 B( 31-C , 33-H ) :   0.8706 B( 34-C , 35-H ) :   0.8302
B( 34-C , 36-H ) :   1.1450

MP2 TOTAL ENERGY:     -681.878382358 Eh
FINAL SINGLE POINT ENERGY      -681.878382358057

DIPOLE MOMENT
-------------
                                X             Y             Z
Electronic contribution:     12.91980       3.39000      -3.47832
Nuclear contribution   :    -12.08061      -2.12544       3.93890
                        -----------------------------------------
Total Dipole Moment    :      0.83918       1.26456       0.46058
                        -----------------------------------------
Magnitude (a.u.)       :      1.58603
Magnitude (Debye)      :      4.03136

Rotational constants in cm-1:     0.026755     0.013514     0.012170
Rotational constants in MHz :   802.101448   405.152984   364.841762

                             ****ORCA TERMINATED NORMALLY****
TOTAL RUN TIME: 0 days 0 hours 41 minutes 58 seconds 518 msec
