                         Program Version 4.2.1 -  RELEASE  -
|  1> %pal
|  2>  nprocs 32
|  3> end
|  4> !RI-MP2 aug-cc-pVTZ aug-cc-pVTZ/C TightSCF
|  5> %maxcore 4500
|  6> *xyzfile 0 1  08_11R1.xyz
|  7>
|  8>
|  9>                          ****END OF INPUT****

CARTESIAN COORDINATES (ANGSTROEM)
---------------------------------
  O      2.821036   -0.933830    0.527642
  C      3.238793   -1.782040   -0.551615
  H      3.585424   -1.176654   -1.389436
  H      4.054962   -2.384560   -0.162572
  H      2.413188   -2.422802   -0.861931
  P      1.647779    0.102911    0.378947
  O      1.374017    0.906064    1.582842
  O      2.030807    0.961250   -0.915592
  O      0.425610   -0.826146   -0.102727
  C     -0.703577   -0.239907   -0.777952
  C     -1.493449    0.733443    0.126290
  O     -2.850052    0.347881    0.014402
  C     -2.884807   -1.070293   -0.172629
  C     -1.715245   -1.329460   -1.128345
  H     -2.041642   -1.211192   -2.161836
  H     -1.271287   -2.317845   -1.016142
  H     -0.326607    0.261571   -1.671004
  H      1.478419    1.768318   -0.951542
  C     -1.371996    2.195849   -0.266798
  H     -1.140090    0.605985    1.155720
  O     -0.025733    2.651242   -0.166195
  H     -2.033050    2.799775    0.359657
  H     -1.672700    2.330311   -1.306650
  H      0.292145    2.504324    0.739051
  C     -2.767700   -1.814694    1.147752
  H     -3.847935   -1.285157   -0.636454
  H     -2.889215   -2.887941    0.984297
  H     -3.543113   -1.480303    1.838310
  H     -1.792761   -1.656579    1.613151

 Total Charge           Charge          ....    0
 Multiplicity           Mult            ....    1
 Number of Electrons    NEL             ....  120
 Basis Dimension        Dim             ....  993

ORBITAL ENERGIES
----------------

  NO   OCC          E(Eh)            E(eV)
   0   2.0000     -80.103977     -2179.7400
   1   2.0000     -20.598688      -560.5188
   2   2.0000     -20.593902      -560.3886
   3   2.0000     -20.591479      -560.3226
   4   2.0000     -20.574224      -559.8531
   5   2.0000     -20.566023      -559.6299
   6   2.0000     -20.511410      -558.1438
   7   2.0000     -11.310845      -307.7838
   8   2.0000     -11.300829      -307.5112
   9   2.0000     -11.290176      -307.2213
  10   2.0000     -11.288292      -307.1700
  11   2.0000     -11.287605      -307.1513
  12   2.0000     -11.238952      -305.8274
  13   2.0000     -11.220604      -305.3281
  14   2.0000      -7.620489      -207.3640
  15   2.0000      -5.519121      -150.1829
  16   2.0000      -5.518657      -150.1703
  17   2.0000      -5.517529      -150.1396
  18   2.0000      -1.458376       -39.6844
  19   2.0000      -1.403255       -38.1845
  20   2.0000      -1.388075       -37.7714
  21   2.0000      -1.383537       -37.6479
  22   2.0000      -1.371536       -37.3214
  23   2.0000      -1.300523       -35.3890
  24   2.0000      -1.076922       -29.3045
  25   2.0000      -1.055549       -28.7230
  26   2.0000      -0.976977       -26.5849
  27   2.0000      -0.970179       -26.3999
  28   2.0000      -0.903725       -24.5916
  29   2.0000      -0.838031       -22.8040
  30   2.0000      -0.811249       -22.0752
  31   2.0000      -0.804700       -21.8970
  32   2.0000      -0.750225       -20.4147
  33   2.0000      -0.726859       -19.7788
  34   2.0000      -0.705173       -19.1887
  35   2.0000      -0.681926       -18.5562
  36   2.0000      -0.672995       -18.3131
  37   2.0000      -0.670286       -18.2394
  38   2.0000      -0.650880       -17.7113
  39   2.0000      -0.645222       -17.5574
  40   2.0000      -0.635761       -17.2999
  41   2.0000      -0.620423       -16.8826
  42   2.0000      -0.609145       -16.5757
  43   2.0000      -0.601647       -16.3716
  44   2.0000      -0.591580       -16.0977
  45   2.0000      -0.567224       -15.4349
  46   2.0000      -0.559017       -15.2116
  47   2.0000      -0.551863       -15.0169
  48   2.0000      -0.537331       -14.6215
  49   2.0000      -0.532638       -14.4938
  50   2.0000      -0.526612       -14.3298
  51   2.0000      -0.514810       -14.0087
  52   2.0000      -0.503000       -13.6873
  53   2.0000      -0.498841       -13.5741
  54   2.0000      -0.489106       -13.3093
  55   2.0000      -0.472205       -12.8494
  56   2.0000      -0.469592       -12.7782
  57   2.0000      -0.468264       -12.7421
  58   2.0000      -0.443025       -12.0553
  59   2.0000      -0.426089       -11.5945
  60   0.0000       0.022624         0.6156
  61   0.0000       0.030377         0.8266
  62   0.0000       0.032120         0.8740
  63   0.0000       0.036758         1.0002
  64   0.0000       0.044533         1.2118

MULLIKEN ATOMIC CHARGES
-----------------------
   0 O :   -0.757343
   1 C :   -0.863157
   2 H :    0.372356
   3 H :    0.359442
   4 H :    0.406464
   5 P :    2.145455
   6 O :   -1.126641
   7 O :   -0.731265
   8 O :   -0.828237
   9 C :    0.554890
  10 C :    0.677007
  11 O :   -1.115627
  12 C :    0.153220
  13 C :   -0.907935
  14 H :    0.187780
  15 H :    0.311042
  16 H :    0.562737
  17 H :    0.295802
  18 C :   -0.456624
  19 H :    0.410747
  20 O :   -0.689611
  21 H :    0.304694
  22 H :    0.268409
  23 H :    0.224159
  24 C :   -1.081479
  25 H :    0.471246
  26 H :    0.212945
  27 H :    0.273162
  28 H :    0.366360
Sum of atomic charges:    0.0000000

LOEWDIN ATOMIC CHARGES
----------------------
   0 O :    0.355701
   1 C :    0.317326
   2 H :   -0.186085
   3 H :   -0.185112
   4 H :   -0.188163
   5 P :   -0.233533
   6 O :    0.083548
   7 O :    0.664520
   8 O :    0.410529
   9 C :   -0.266340
  10 C :   -0.264956
  11 O :    0.611221
  12 C :   -0.242740
  13 C :    0.331700
  14 H :   -0.138536
  15 H :   -0.144010
  16 H :   -0.155058
  17 H :   -0.667839
  18 C :    0.085367
  19 H :   -0.165897
  20 O :    0.856060
  21 H :   -0.142349
  22 H :   -0.151747
  23 H :   -0.560400
  24 C :    0.602619
  25 H :   -0.136794
  26 H :   -0.162046
  27 H :   -0.159640
  28 H :   -0.167344

  Mayer bond orders larger than 0.100000
B(  0-O ,  1-C ) :   0.9199 B(  0-O ,  5-P ) :   0.3860 B(  0-O ,  6-O ) :  -0.1547
B(  1-C ,  2-H ) :   0.8631 B(  1-C ,  3-H ) :   0.9295 B(  1-C ,  4-H ) :   0.8337
B(  5-P ,  6-O ) :   1.2306 B(  5-P ,  7-O ) :   0.7789 B(  5-P ,  8-O ) :   1.1027
B(  6-O ,  8-O ) :   0.1476 B(  7-O ,  8-O ) :   0.1533 B(  7-O ,  9-C ) :   0.1434
B(  7-O , 16-H ) :  -0.1846 B(  7-O , 17-H ) :   0.8274 B(  8-O ,  9-C ) :   0.1273
B(  8-O , 10-C ) :   0.1999 B(  9-C , 10-C ) :   0.9831 B(  9-C , 11-O ) :   0.1484
B(  9-C , 13-C ) :   0.9444 B(  9-C , 16-H ) :   0.7782 B(  9-C , 24-C ) :  -0.1060
B( 10-C , 11-O ) :   0.1770 B( 10-C , 18-C ) :   0.5377 B( 10-C , 19-H ) :   0.9313
B( 10-C , 20-O ) :  -0.1080 B( 10-C , 22-H ) :  -0.1091 B( 11-O , 12-C ) :   0.8407
B( 11-O , 13-C ) :   0.1417 B( 11-O , 19-H ) :  -0.1366 B( 12-C , 13-C ) :   1.0700
B( 12-C , 24-C ) :   0.7569 B( 12-C , 25-H ) :   0.7989 B( 13-C , 14-H ) :   1.0178
B( 13-C , 15-H ) :   0.9558 B( 13-C , 16-H ) :  -0.1538 B( 13-C , 24-C ) :   0.1058
B( 18-C , 20-O ) :   0.9017 B( 18-C , 21-H ) :   0.9907 B( 18-C , 22-H ) :   1.1063
B( 20-O , 23-H ) :   0.9396 B( 24-C , 26-H ) :   1.0563 B( 24-C , 27-H ) :   0.9813
B( 24-C , 28-H ) :   0.8602

MP2 TOTAL ENERGY:    -1066.958659548 Eh
FINAL SINGLE POINT ENERGY     -1066.958659547679

DIPOLE MOMENT
-------------
                                X             Y             Z
Electronic contribution:      9.75699       5.43358       2.48208
Nuclear contribution   :    -10.20798      -6.57854      -3.80003
                        -----------------------------------------
Total Dipole Moment    :     -0.45099      -1.14496      -1.31796
                        -----------------------------------------
Magnitude (a.u.)       :      1.80315
Magnitude (Debye)      :      4.58323

Rotational constants in cm-1:     0.031634     0.015761     0.012549
Rotational constants in MHz :   948.352866   472.507127   376.206086

                             ****ORCA TERMINATED NORMALLY****
TOTAL RUN TIME: 0 days 0 hours 16 minutes 3 seconds 817 msec
