                         Program Version 4.2.1 -  RELEASE  -
|  1> %pal
|  2>  nprocs 32
|  3> end
|  4> !RI-MP2 aug-cc-pVTZ aug-cc-pVTZ/C TightSCF
|  5> %maxcore 4500
|  6> *xyzfile 0 1  08_12R2.xyz
|  7>
|  8>
|  9>                          ****END OF INPUT****

CARTESIAN COORDINATES (ANGSTROEM)
---------------------------------
  N      2.700720   -1.193779   -0.000002
  C      1.720316   -0.269105   -0.000001
  N      2.046088    1.025554   -0.000001
  C      1.066492    1.935908    0.000001
  N     -0.243401    1.733413    0.000002
  C     -0.541403    0.433394    0.000001
  C      0.361727   -0.620488   -0.000000
  H      1.392695    2.970712    0.000001
  N     -0.295188   -1.832965    0.000000
  C     -1.556814   -1.508592    0.000002
  N     -1.781109   -0.152517    0.000004
  H     -2.380167   -2.208298    0.000003
  C     -3.051283    0.543592   -0.000005
  H     -3.136697    1.172548    0.885983
  H     -3.854512   -0.191405    0.000078
  H     -3.136763    1.172422   -0.886076
  H      2.472633   -2.172702   -0.000000
  H      3.658832   -0.889468   -0.000000

 Total Charge           Charge          ....    0
 Multiplicity           Mult            ....    1
 Number of Electrons    NEL             ....   78
 Basis Dimension        Dim             ....  667

ORBITAL ENERGIES
----------------

  NO   OCC          E(Eh)            E(eV)
   0   2.0000     -15.626891      -425.2293
   1   2.0000     -15.581412      -423.9918
   2   2.0000     -15.561592      -423.4525
   3   2.0000     -15.551385      -423.1747
   4   2.0000     -15.545131      -423.0045
   5   2.0000     -11.332930      -308.3847
   6   2.0000     -11.315137      -307.9005
   7   2.0000     -11.306369      -307.6619
   8   2.0000     -11.305009      -307.6249
   9   2.0000     -11.284266      -307.0605
  10   2.0000     -11.245163      -305.9965
  11   2.0000      -1.370803       -37.3015
  12   2.0000      -1.301583       -35.4179
  13   2.0000      -1.247012       -33.9329
  14   2.0000      -1.199089       -32.6289
  15   2.0000      -1.153774       -31.3958
  16   2.0000      -1.034681       -28.1551
  17   2.0000      -0.983221       -26.7548
  18   2.0000      -0.892532       -24.2870
  19   2.0000      -0.873349       -23.7650
  20   2.0000      -0.806647       -21.9500
  21   2.0000      -0.759388       -20.6640
  22   2.0000      -0.728435       -19.8217
  23   2.0000      -0.685723       -18.6595
  24   2.0000      -0.681202       -18.5365
  25   2.0000      -0.666128       -18.1263
  26   2.0000      -0.627670       -17.0798
  27   2.0000      -0.608095       -16.5471
  28   2.0000      -0.596073       -16.2200
  29   2.0000      -0.596071       -16.2199
  30   2.0000      -0.571153       -15.5419
  31   2.0000      -0.538845       -14.6627
  32   2.0000      -0.496802       -13.5187
  33   2.0000      -0.487301       -13.2601
  34   2.0000      -0.445932       -12.1344
  35   2.0000      -0.409343       -11.1388
  36   2.0000      -0.405395       -11.0314
  37   2.0000      -0.366220        -9.9654
  38   2.0000      -0.306204        -8.3322
  39   0.0000       0.023246         0.6326
  40   0.0000       0.031555         0.8586
  41   0.0000       0.035195         0.9577
  42   0.0000       0.045191         1.2297
  43   0.0000       0.045755         1.2450

MULLIKEN ATOMIC CHARGES
-----------------------
   0 N :   -0.533034
   1 C :    0.023653
   2 N :   -0.436020
   3 C :   -0.701644
   4 N :   -0.659984
   5 C :    0.050859
   6 C :    1.690316
   7 H :    0.653396
   8 N :   -0.941663
   9 C :   -0.476548
  10 N :    0.353386
  11 H :    0.696623
  12 C :   -0.971648
  13 H :    0.341922
  14 H :    0.373849
  15 H :    0.341917
  16 H :    0.107938
  17 H :    0.086682
Sum of atomic charges:    0.0000000

LOEWDIN ATOMIC CHARGES
----------------------
   0 N :    0.871098
   1 C :   -0.419827
   2 N :    0.389443
   3 C :   -0.179381
   4 N :    0.399578
   5 C :   -0.455975
   6 C :   -0.312941
   7 H :   -0.203144
   8 N :    0.393526
   9 C :   -0.051388
  10 N :    0.244469
  11 H :   -0.164348
  12 C :    0.535013
  13 H :   -0.153033
  14 H :   -0.166211
  15 H :   -0.153032
  16 H :   -0.286978
  17 H :   -0.286869

  Mayer bond orders larger than 0.100000
B(  0-N ,  1-C ) :   1.0482 B(  0-N ,  2-N ) :  -0.1827 B(  0-N ,  6-C ) :  -0.2473
B(  0-N , 16-H ) :   1.1019 B(  0-N , 17-H ) :   1.1388 B(  1-C ,  2-N ) :   0.5076
B(  1-C ,  3-C ) :  -0.3705 B(  1-C ,  4-N ) :   0.1389 B(  1-C ,  5-C ) :   1.2840
B(  1-C ,  6-C ) :  -0.6347 B(  1-C , 10-N ) :  -0.1511 B(  2-N ,  3-C ) :   1.3305
B(  2-N ,  6-C ) :  -0.1005 B(  3-C ,  4-N ) :   1.5587 B(  3-C ,  5-C ) :  -0.4400
B(  3-C ,  7-H ) :   0.4282 B(  4-N ,  5-C ) :   0.6848 B(  4-N ,  6-C ) :  -0.1999
B(  4-N , 10-N ) :  -0.2021 B(  5-C ,  6-C ) :   1.1458 B(  5-C ,  8-N ) :   0.2773
B(  5-C ,  9-C ) :  -0.5780 B(  5-C , 10-N ) :   0.7543 B(  5-C , 12-C ) :  -0.1639
B(  8-N ,  9-C ) :   1.5931 B(  8-N , 10-N ) :  -0.1010 B(  9-C , 10-N ) :   1.1422
B(  9-C , 11-H ) :   0.4100 B( 10-N , 12-C ) :   0.8879 B( 12-C , 13-H ) :   0.9329
B( 12-C , 14-H ) :   0.8771 B( 12-C , 15-H ) :   0.9329

MP2 TOTAL ENERGY:     -505.706468779 Eh
FINAL SINGLE POINT ENERGY      -505.706468779156

DIPOLE MOMENT
-------------
                                X             Y             Z
Electronic contribution:      3.99828      -0.39942       0.00001
Nuclear contribution   :     -4.88086      -0.14600      -0.00001
                        -----------------------------------------
Total Dipole Moment    :     -0.88259      -0.54542       0.00000
                        -----------------------------------------
Magnitude (a.u.)       :      1.03752
Magnitude (Debye)      :      2.63716

Rotational constants in cm-1:     0.072841     0.036158     0.024273
Rotational constants in MHz :  2183.731986  1083.980922   727.699359

                             ****ORCA TERMINATED NORMALLY****
TOTAL RUN TIME: 0 days 0 hours 5 minutes 9 seconds 771 msec
