                         Program Version 4.2.1 -  RELEASE  -
|  1> %pal
|  2>  nprocs 32
|  3> end
|  4> !RI-MP2 aug-cc-pVTZ aug-cc-pVTZ/C TightSCF
|  5> %maxcore 4500
|  6> *xyzfile 0 1  10_81R.xyz
|  7>
|  8>
|  9>                          ****END OF INPUT****

CARTESIAN COORDINATES (ANGSTROEM)
---------------------------------
  C     -2.591492   -1.919214    0.079274
  C     -2.098317   -1.377974    1.418693
  C     -1.019053   -0.347243    1.262920
  C     -0.709887    0.224116    0.105628
  C     -1.434921   -0.085841   -1.179847
  C     -2.768273   -0.782855   -0.921541
  H     -3.526976   -2.465918    0.215813
  H     -1.860534   -2.632813   -0.315596
  H     -1.726434   -2.190660    2.049197
  H     -2.929041   -0.928310    1.976076
  H     -1.600161    0.835798   -1.746055
  H     -0.800699   -0.725057   -1.804983
  H     -3.178169   -1.153936   -1.863279
  H     -3.485201   -0.056400   -0.525479
  C      0.425962    1.245363   -0.011514
  C      1.125971    1.440235    1.266069
  C     -0.133088    2.545045   -0.429063
  N      1.693374    1.589035    2.249953
  N     -0.576663    3.535299   -0.798013
  C      1.475990    0.815969   -1.091721
  C      2.038931   -0.494729   -0.814099
  C      2.485339   -1.575141   -0.557389
  C      3.034496   -2.884372   -0.237849
  H      3.446806   -3.360893   -1.129221
  H      3.832259   -2.799526    0.502213
  H      2.261940   -3.539213    0.169727
  H      0.976237    0.824247   -2.061659
  H      2.260092    1.574742   -1.129147
  H     -0.477036   -0.072548    2.161443

 Total Charge           Charge          ....    0
 Multiplicity           Mult            ....    1
 Number of Electrons    NEL             ....  106
 Basis Dimension        Dim             .... 1012

ORBITAL ENERGIES
----------------

  NO   OCC          E(Eh)            E(eV)
   0   2.0000     -15.588573      -424.1866
   1   2.0000     -15.586017      -424.1171
   2   2.0000     -11.352367      -308.9136
   3   2.0000     -11.295503      -307.3663
   4   2.0000     -11.291142      -307.2476
   5   2.0000     -11.288955      -307.1881
   6   2.0000     -11.264988      -306.5359
   7   2.0000     -11.258477      -306.3587
   8   2.0000     -11.248603      -306.0901
   9   2.0000     -11.244784      -305.9861
  10   2.0000     -11.244122      -305.9681
  11   2.0000     -11.240117      -305.8591
  12   2.0000     -11.234544      -305.7075
  13   2.0000     -11.234344      -305.7020
  14   2.0000     -11.232790      -305.6597
  15   2.0000      -1.256980       -34.2042
  16   2.0000      -1.236432       -33.6450
  17   2.0000      -1.176669       -32.0188
  18   2.0000      -1.126867       -30.6636
  19   2.0000      -1.076536       -29.2940
  20   2.0000      -1.033603       -28.1258
  21   2.0000      -1.025208       -27.8973
  22   2.0000      -0.991985       -26.9933
  23   2.0000      -0.932426       -25.3726
  24   2.0000      -0.874510       -23.7966
  25   2.0000      -0.840889       -22.8818
  26   2.0000      -0.784763       -21.3545
  27   2.0000      -0.737926       -20.0800
  28   2.0000      -0.707220       -19.2444
  29   2.0000      -0.681144       -18.5349
  30   2.0000      -0.658985       -17.9319
  31   2.0000      -0.633996       -17.2519
  32   2.0000      -0.624169       -16.9845
  33   2.0000      -0.622178       -16.9303
  34   2.0000      -0.604548       -16.4506
  35   2.0000      -0.601453       -16.3664
  36   2.0000      -0.598588       -16.2884
  37   2.0000      -0.589272       -16.0349
  38   2.0000      -0.580882       -15.8066
  39   2.0000      -0.574363       -15.6292
  40   2.0000      -0.560856       -15.2617
  41   2.0000      -0.554432       -15.0869
  42   2.0000      -0.541420       -14.7328
  43   2.0000      -0.496841       -13.5197
  44   2.0000      -0.493193       -13.4205
  45   2.0000      -0.485108       -13.2005
  46   2.0000      -0.482395       -13.1266
  47   2.0000      -0.476837       -12.9754
  48   2.0000      -0.466762       -12.7013
  49   2.0000      -0.459497       -12.5035
  50   2.0000      -0.391566       -10.6550
  51   2.0000      -0.390182       -10.6174
  52   2.0000      -0.371175       -10.1002
  53   0.0000       0.019647         0.5346
  54   0.0000       0.026720         0.7271
  55   0.0000       0.028723         0.7816
  56   0.0000       0.035537         0.9670
  57   0.0000       0.041714         1.1351

MULLIKEN ATOMIC CHARGES
-----------------------
   0 C :   -0.544424
   1 C :   -0.362514
   2 C :   -1.517879
   3 C :    1.667800
   4 C :   -0.570725
   5 C :   -0.623052
   6 H :    0.284828
   7 H :    0.192434
   8 H :    0.283097
   9 H :    0.268930
  10 H :    0.319410
  11 H :    0.215286
  12 H :    0.325369
  13 H :    0.144061
  14 C :    0.014332
  15 C :    1.171084
  16 C :    0.889673
  17 N :   -1.081145
  18 N :   -1.070466
  19 C :   -0.259600
  20 C :    0.558205
  21 C :   -0.496974
  22 C :   -0.949953
  23 H :    0.276398
  24 H :    0.260200
  25 H :    0.296421
  26 H :    0.172340
  27 H :    0.250512
  28 H :   -0.113647
Sum of atomic charges:   -0.0000000

LOEWDIN ATOMIC CHARGES
----------------------
   0 C :    0.293152
   1 C :    0.293979
   2 C :    0.279805
   3 C :   -0.077592
   4 C :    0.284481
   5 C :    0.303042
   6 H :   -0.137228
   7 H :   -0.136332
   8 H :   -0.143859
   9 H :   -0.137982
  10 H :   -0.147001
  11 H :   -0.137905
  12 H :   -0.134499
  13 H :   -0.131171
  14 C :   -0.396331
  15 C :   -0.241045
  16 C :   -0.218326
  17 N :    0.342307
  18 N :    0.323582
  19 C :    0.220161
  20 C :    0.093390
  21 C :    0.111502
  22 C :    0.528185
  23 H :   -0.182643
  24 H :   -0.180806
  25 H :   -0.183284
  26 H :   -0.155368
  27 H :   -0.140094
  28 H :   -0.192119

  Mayer bond orders larger than 0.100000
B(  0-C ,  1-C ) :   0.9032 B(  0-C ,  2-C ) :   0.1563 B(  0-C ,  3-C ) :  -0.1464
B(  0-C ,  4-C ) :   0.1154 B(  0-C ,  5-C ) :   0.9243 B(  0-C ,  6-H ) :   0.9517
B(  0-C ,  7-H ) :   1.0408 B(  1-C ,  2-C ) :   0.5852 B(  1-C ,  5-C ) :   0.1056
B(  1-C ,  8-H ) :   1.0133 B(  1-C ,  9-H ) :   1.0157 B(  1-C , 28-H ) :  -0.1055
B(  2-C ,  3-C ) :  -0.7202 B(  2-C ,  8-H ) :  -0.1655 B(  2-C ,  9-H ) :  -0.1228
B(  2-C , 14-C ) :   0.3141 B(  2-C , 15-C ) :  -0.2030 B(  2-C , 20-C ) :  -0.1019
B(  2-C , 28-H ) :   2.1541 B(  3-C ,  4-C ) :   0.6131 B(  3-C , 14-C ) :   0.6479
B(  3-C , 15-C ) :   0.4513 B(  3-C , 16-C ) :   0.4283 B(  3-C , 19-C ) :   0.1417
B(  3-C , 28-H ) :  -0.8261 B(  4-C ,  5-C ) :   0.9621 B(  4-C , 10-H ) :   0.9019
B(  4-C , 11-H ) :   1.0411 B(  5-C , 12-H ) :   0.8813 B(  5-C , 13-H ) :   1.1008
B( 10-H , 14-C ) :  -0.1411 B( 14-C , 15-C ) :   0.9064 B( 14-C , 16-C ) :   0.9813
B( 14-C , 17-N ) :   0.4748 B( 14-C , 18-N ) :   0.4816 B( 14-C , 19-C ) :   0.7358
B( 14-C , 20-C ) :   0.2234 B( 14-C , 21-C ) :   0.1092 B( 15-C , 17-N ) :   1.2746
B( 15-C , 28-H ) :  -0.1126 B( 16-C , 18-N ) :   1.1246 B( 19-C , 20-C ) :   0.5278
B( 19-C , 21-C ) :   0.1246 B( 19-C , 22-C ) :   0.1128 B( 19-C , 26-H ) :   1.0482
B( 19-C , 27-H ) :   1.0034 B( 20-C , 21-C ) :   1.5814 B( 20-C , 22-C ) :  -0.2579
B( 20-C , 27-H ) :  -0.1261 B( 21-C , 22-C ) :   1.0785 B( 22-C , 23-H ) :   0.9882
B( 22-C , 24-H ) :   0.9830 B( 22-C , 25-H ) :   0.9109

MP2 TOTAL ENERGY:     -611.967431683 Eh
FINAL SINGLE POINT ENERGY      -611.967431683479

DIPOLE MOMENT
-------------
                                X             Y             Z
Electronic contribution:      6.51550      14.52819       2.73945
Nuclear contribution   :     -6.82803     -16.72820      -3.50664
                        -----------------------------------------
Total Dipole Moment    :     -0.31253      -2.20000      -0.76718
                        -----------------------------------------
Magnitude (a.u.)       :      2.35080
Magnitude (Debye)      :      5.97526

Rotational constants in cm-1:     0.020245     0.018480     0.013090
Rotational constants in MHz :   606.930591   554.011972   392.439121

                             ****ORCA TERMINATED NORMALLY****
TOTAL RUN TIME: 0 days 0 hours 20 minutes 7 seconds 838 msec
