                         Program Version 4.2.1 -  RELEASE  -
|  1> %pal
|  2>  nprocs 32
|  3> end
|  4> !RI-MP2 aug-cc-pVTZ aug-cc-pVTZ/C TightSCF
|  5> %maxcore 4500
|  6> *xyzfile 1 1  09_25P.xyz
|  7>
|  8>
|  9>                          ****END OF INPUT****

CARTESIAN COORDINATES (ANGSTROEM)
---------------------------------
  C     -0.356823    0.301847    0.498504
  C      0.090260    0.539291   -0.977165
  C     -0.552552   -0.646314   -1.751699
  N     -1.198326   -1.519448   -0.738256
  H      0.158065   -1.238847   -2.319270
  H     -1.330578   -0.282474   -2.417051
  C     -1.585802   -0.616930    0.447893
  C     -2.888753    0.079919    0.003765
  N     -3.796667   -0.898058   -0.597476
  H     -2.639469    0.845094   -0.730695
  H     -3.308079    0.579932    0.878556
  N     -1.811854   -1.337831    1.643905
  C     -0.761825   -2.128558    2.274401
  N     -0.527208    1.774086   -1.479684
  C     -0.268772    2.108895   -2.880464
  H     -0.664324    1.340662   -3.547534
  H      0.789919    2.255261   -3.121923
  H      0.005789   -1.483587    2.703927
  H     -4.333079   -0.493268   -1.354211
  H     -4.464492   -1.277241    0.062781
  C     -0.610629    1.533404    1.371584
  H      0.421684   -0.283630    0.983453
  C      0.651729    2.329117    1.562868
  H     -0.979806    1.196190    2.340420
  H     -1.351289    2.189058    0.918179
  O      1.377565    1.894740    2.603051
  O      1.011054    3.223692    0.843445
  C      1.635710    0.585700   -1.154370
  C      2.569425   -0.265350   -0.282722
  H      1.940906    1.619290   -0.981676
  H      1.862886    0.383462   -2.203601
  C      2.439234   -1.759412   -0.381115
  H      2.450458   -0.021304    0.778341
  H      3.599418   -0.004855   -0.525449
  O      3.612924   -2.374767   -0.358865
  O      1.393952   -2.375612   -0.438210
  H      3.470759   -3.333886   -0.380419
  H      2.165028    2.454911    2.682501
  H     -0.202107    2.551455   -0.912531
  H     -0.274029   -2.849842    1.608183
  H     -1.207481   -2.683967    3.097555
  H     -0.795496    3.033900   -3.111801
  H     -2.715399   -1.785815    1.677174
  H     -0.511808   -2.218329   -0.439105
  H     -2.080264   -1.937483   -1.069476

 Total Charge           Charge          ....    1
 Multiplicity           Mult            ....    1
 Number of Electrons    NEL             ....  156
 Basis Dimension        Dim             .... 1495

ORBITAL ENERGIES
----------------

  NO   OCC          E(Eh)            E(eV)
   0   2.0000     -20.738712      -564.3290
   1   2.0000     -20.727180      -564.0152
   2   2.0000     -20.682521      -562.8000
   3   2.0000     -20.664143      -562.2999
   4   2.0000     -15.786457      -429.5713
   5   2.0000     -15.689029      -426.9202
   6   2.0000     -15.687702      -426.8841
   7   2.0000     -15.661177      -426.1623
   8   2.0000     -11.521645      -313.5199
   9   2.0000     -11.501646      -312.9757
  10   2.0000     -11.456069      -311.7355
  11   2.0000     -11.411434      -310.5209
  12   2.0000     -11.409301      -310.4629
  13   2.0000     -11.390288      -309.9455
  14   2.0000     -11.380849      -309.6886
  15   2.0000     -11.373821      -309.4974
  16   2.0000     -11.372134      -309.4515
  17   2.0000     -11.366386      -309.2951
  18   2.0000     -11.358228      -309.0731
  19   2.0000     -11.352363      -308.9135
  20   2.0000      -1.602490       -43.6060
  21   2.0000      -1.584931       -43.1282
  22   2.0000      -1.496547       -40.7231
  23   2.0000      -1.480831       -40.2955
  24   2.0000      -1.458760       -39.6949
  25   2.0000      -1.352181       -36.7947
  26   2.0000      -1.337065       -36.3834
  27   2.0000      -1.317897       -35.8618
  28   2.0000      -1.224142       -33.3106
  29   2.0000      -1.196979       -32.5715
  30   2.0000      -1.137455       -30.9517
  31   2.0000      -1.127215       -30.6731
  32   2.0000      -1.062524       -28.9128
  33   2.0000      -1.052002       -28.6264
  34   2.0000      -1.029928       -28.0258
  35   2.0000      -1.022457       -27.8225
  36   2.0000      -0.953102       -25.9352
  37   2.0000      -0.942155       -25.6373
  38   2.0000      -0.921659       -25.0796
  39   2.0000      -0.909816       -24.7574
  40   2.0000      -0.884834       -24.0776
  41   2.0000      -0.854121       -23.2418
  42   2.0000      -0.844478       -22.9794
  43   2.0000      -0.825617       -22.4662
  44   2.0000      -0.822872       -22.3915
  45   2.0000      -0.817112       -22.2348
  46   2.0000      -0.815844       -22.2002
  47   2.0000      -0.783365       -21.3165
  48   2.0000      -0.780409       -21.2360
  49   2.0000      -0.773967       -21.0607
  50   2.0000      -0.768203       -20.9039
  51   2.0000      -0.754732       -20.5373
  52   2.0000      -0.746990       -20.3266
  53   2.0000      -0.736109       -20.0306
  54   2.0000      -0.734907       -19.9978
  55   2.0000      -0.723615       -19.6906
  56   2.0000      -0.717966       -19.5368
  57   2.0000      -0.710957       -19.3461
  58   2.0000      -0.700926       -19.0732
  59   2.0000      -0.693246       -18.8642
  60   2.0000      -0.679435       -18.4884
  61   2.0000      -0.673560       -18.3285
  62   2.0000      -0.669770       -18.2254
  63   2.0000      -0.655620       -17.8403
  64   2.0000      -0.652377       -17.7521
  65   2.0000      -0.648980       -17.6597
  66   2.0000      -0.642996       -17.4968
  67   2.0000      -0.636766       -17.3273
  68   2.0000      -0.622379       -16.9358
  69   2.0000      -0.616680       -16.7807
  70   2.0000      -0.612736       -16.6734
  71   2.0000      -0.596360       -16.2278
  72   2.0000      -0.591773       -16.1030
  73   2.0000      -0.579166       -15.7599
  74   2.0000      -0.563501       -15.3336
  75   2.0000      -0.543963       -14.8020
  76   2.0000      -0.515995       -14.0409
  77   2.0000      -0.490239       -13.3401
  78   0.0000      -0.065305        -1.7770
  79   0.0000      -0.055109        -1.4996
  80   0.0000      -0.052776        -1.4361
  81   0.0000      -0.049095        -1.3360
  82   0.0000      -0.038744        -1.0543

MULLIKEN ATOMIC CHARGES
-----------------------
   0 C :    1.065129
   1 C :    2.433447
   2 C :   -0.938679
   3 N :    0.106466
   4 H :    0.189137
   5 H :    0.286849
   6 C :    2.354533
   7 C :   -0.478392
   8 N :   -0.640731
   9 H :    0.421869
  10 H :    0.139066
  11 N :   -1.195653
  12 C :   -1.104496
  13 N :   -0.835932
  14 C :   -1.123630
  15 H :    0.311387
  16 H :    0.312177
  17 H :    0.340983
  18 H :    0.060425
  19 H :    0.052467
  20 C :   -0.735499
  21 H :    0.019310
  22 C :    0.732134
  23 H :    0.429000
  24 H :    0.346046
  25 O :   -0.632701
  26 O :   -1.086297
  27 C :   -1.082742
  28 C :   -0.012455
  29 H :    0.071054
  30 H :    0.174598
  31 C :    0.510989
  32 H :    0.282370
  33 H :    0.207123
  34 O :   -0.699976
  35 O :   -0.668399
  36 H :    0.229121
  37 H :    0.216082
  38 H :    0.143210
  39 H :    0.291953
  40 H :    0.446203
  41 H :    0.366675
  42 H :   -0.133996
  43 H :    0.019140
  44 H :   -0.189365
Sum of atomic charges:    1.0000000

LOEWDIN ATOMIC CHARGES
----------------------
   0 C :    0.061085
   1 C :   -0.288436
   2 C :    0.344450
   3 N :    0.822167
   4 H :   -0.123751
   5 H :   -0.142596
   6 C :   -0.367880
   7 C :    0.245852
   8 N :    0.890954
   9 H :   -0.167478
  10 H :   -0.116288
  11 N :    0.611791
  12 C :    0.521651
  13 N :    0.598241
  14 C :    0.509040
  15 H :   -0.171448
  16 H :   -0.157334
  17 H :   -0.161171
  18 H :   -0.282642
  19 H :   -0.287061
  20 C :    0.326517
  21 H :   -0.209598
  22 C :   -0.760709
  23 H :   -0.132848
  24 H :   -0.154410
  25 O :    0.863005
  26 O :    0.517390
  27 C :    0.344884
  28 C :    0.325531
  29 H :   -0.158386
  30 H :   -0.138568
  31 C :   -0.716951
  32 H :   -0.155231
  33 H :   -0.144650
  34 O :    0.875055
  35 O :    0.567578
  36 H :   -0.435193
  37 H :   -0.441873
  38 H :   -0.380020
  39 H :   -0.168349
  40 H :   -0.148097
  41 H :   -0.149702
  42 H :   -0.285065
  43 H :   -0.350614
  44 H :   -0.228844

  Mayer bond orders larger than 0.100000
B(  0-C ,  1-C ) :   0.8610 B(  0-C ,  2-C ) :  -0.2481 B(  0-C ,  6-C ) :   0.4776
B(  0-C , 11-N ) :   0.5915 B(  0-C , 12-C ) :  -0.1995 B(  0-C , 13-N ) :   0.1786
B(  0-C , 20-C ) :   0.6192 B(  0-C , 21-H ) :   0.7222 B(  0-C , 23-H ) :  -0.1410
B(  0-C , 24-H ) :  -0.1258 B(  0-C , 26-O ) :  -0.2556 B(  0-C , 27-C ) :   0.1579
B(  0-C , 28-C ) :  -0.2197 B(  1-C ,  2-C ) :  -0.1738 B(  1-C ,  3-N ) :  -0.1899
B(  1-C ,  4-H ) :  -0.2165 B(  1-C ,  5-H ) :  -0.1438 B(  1-C ,  6-C ) :   0.8498
B(  1-C ,  7-C ) :   0.1237 B(  1-C , 13-N ) :  -0.1786 B(  1-C , 20-C ) :  -0.2311
B(  1-C , 21-H ) :  -0.2630 B(  1-C , 22-C ) :   0.3172 B(  1-C , 26-O ) :   0.2694
B(  1-C , 27-C ) :  -0.7799 B(  1-C , 28-C ) :   0.2686 B(  1-C , 29-H ) :  -0.5014
B(  1-C , 38-H ) :   0.1734 B(  2-C ,  3-N ) :   0.8886 B(  2-C ,  4-H ) :   1.3354
B(  2-C ,  5-H ) :   1.0739 B(  2-C , 13-N ) :   0.3898 B(  2-C , 27-C ) :  -0.2055
B(  3-N ,  6-C ) :   0.9947 B(  3-N , 35-O ) :  -0.1405 B(  3-N , 43-H ) :   1.1327
B(  3-N , 44-H ) :   1.1988 B(  5-H ,  6-C ) :  -0.1971 B(  6-C ,  7-C ) :   0.4859
B(  6-C ,  8-N ) :  -0.5031 B(  6-C ,  9-H ) :  -0.1836 B(  6-C , 10-H ) :  -0.2497
B(  6-C , 11-N ) :  -0.8819 B(  6-C , 12-C ) :  -0.1316 B(  6-C , 13-N ) :  -0.2228
B(  6-C , 20-C ) :   0.1890 B(  6-C , 21-H ) :  -0.3314 B(  6-C , 22-C ) :  -0.2446
B(  6-C , 23-H ) :   0.1094 B(  6-C , 43-H ) :   0.1041 B(  6-C , 44-H ) :  -0.2431
B(  7-C ,  8-N ) :   0.9240 B(  7-C ,  9-H ) :   0.9094 B(  7-C , 10-H ) :   1.3176
B(  7-C , 11-N ) :  -0.1536 B(  8-N , 18-H ) :   1.0334 B(  8-N , 19-H ) :   1.0793
B(  8-N , 44-H ) :   0.1659 B( 11-N , 12-C ) :   1.0443 B( 11-N , 17-H ) :   0.1001
B( 11-N , 40-H ) :  -0.1254 B( 11-N , 42-H ) :   1.1934 B( 12-C , 17-H ) :   0.9319
B( 12-C , 39-H ) :   0.9900 B( 12-C , 40-H ) :   0.8369 B( 13-N , 14-C ) :   1.0716
B( 13-N , 38-H ) :   0.7830 B( 14-C , 15-H ) :   0.9779 B( 14-C , 16-H ) :   0.9479
B( 14-C , 27-C ) :  -0.1291 B( 14-C , 41-H ) :   0.9250 B( 20-C , 22-C ) :   0.6405
B( 20-C , 23-H ) :   1.0011 B( 20-C , 24-H ) :   1.1247 B( 21-H , 22-C ) :   0.1461
B( 22-C , 23-H ) :  -0.2344 B( 22-C , 25-O ) :   0.8383 B( 22-C , 26-O ) :   0.9769
B( 23-H , 24-H ) :   0.1103 B( 23-H , 25-O ) :  -0.1617 B( 25-O , 37-H ) :   0.9950
B( 27-C , 28-C ) :   0.7561 B( 27-C , 29-H ) :   1.5425 B( 27-C , 30-H ) :   1.0963
B( 27-C , 31-C ) :   0.4180 B( 28-C , 31-C ) :   0.1499 B( 28-C , 32-H ) :   1.0005
B( 28-C , 33-H ) :   1.0366 B( 28-C , 34-O ) :  -0.1046 B( 31-C , 32-H ) :   0.1097
B( 31-C , 33-H ) :  -0.1820 B( 31-C , 34-O ) :   0.7256 B( 31-C , 35-O ) :   1.5422
B( 33-H , 34-O ) :   0.1144 B( 34-O , 35-O ) :  -0.1598 B( 34-O , 36-H ) :   1.0228

MP2 TOTAL ENERGY:     -990.308601263 Eh
FINAL SINGLE POINT ENERGY      -990.308601263247

DIPOLE MOMENT
-------------
                                X             Y             Z
Electronic contribution:      8.95266      -0.19581       5.11129
Nuclear contribution   :    -10.10785      -1.47873      -5.45048
                        -----------------------------------------
Total Dipole Moment    :     -1.15519      -1.67455      -0.33918
                        -----------------------------------------
Magnitude (a.u.)       :      2.06243
Magnitude (Debye)      :      5.24228

Rotational constants in cm-1:     0.011686     0.010550     0.008989
Rotational constants in MHz :   350.333876   316.289722   269.496720

                             ****ORCA TERMINATED NORMALLY****
TOTAL RUN TIME: 0 days 1 hours 17 minutes 29 seconds 646 msec
