                         Program Version 4.2.1 -  RELEASE  -
|  1> %pal
|  2>  nprocs 32
|  3> end
|  4> !RI-MP2 aug-cc-pVTZ aug-cc-pVTZ/C TightSCF
|  5> %maxcore 4500
|  6> *xyzfile 0 2  01_32R.xyz
|  7>
|  8>
|  9>                          ****END OF INPUT****

CARTESIAN COORDINATES (ANGSTROEM)
---------------------------------
  C      0.501988    2.618673    0.116305
  C      0.882398    1.220784   -0.259321
  O     -0.146872    0.474675   -0.767577
  C      2.115901    0.729215   -0.178614
  Si    -1.372299   -0.360107    0.016611
  C     -2.016944   -1.547901   -1.264031
  H     -2.373501   -1.011097   -2.145900
  H     -2.847619   -2.140336   -0.871847
  H     -1.233632   -2.237256   -1.586351
  C     -2.717338    0.823643    0.555162
  H     -2.376269    1.499925    1.342103
  H     -3.578210    0.273750    0.945781
  H     -3.063377    1.431506   -0.284028
  C     -0.658934   -1.243091    1.499650
  H      0.110398   -1.960279    1.205900
  H     -1.439706   -1.786562    2.038528
  H     -0.203234   -0.537617    2.198854
  H      1.370705    3.186421    0.447720
  H      0.052723    3.126065   -0.741121
  H     -0.240260    2.621772    0.919216
  C      2.521547   -0.658639   -0.575342
  C      3.035736   -1.479598    0.556509
  H      3.288169   -0.607109   -1.359105
  H      1.663562   -1.153870   -1.050304
  H      2.733796   -1.268513    1.574135
  H      3.644995   -2.355669    0.372522
  H      2.892499    1.384448    0.200054

 Total Charge           Charge          ....    0
 Multiplicity           Mult            ....    2
 Number of Electrons    NEL             ....   87
 Basis Dimension        Dim             ....  855

ORBITAL ENERGIES
----------------
                 SPIN UP ORBITALS
  NO   OCC          E(Eh)            E(eV)
   0   1.0000     -68.776776     -1871.5112
   1   1.0000     -20.545962      -559.0841
   2   1.0000     -11.284203      -307.0588
   3   1.0000     -11.224281      -305.4282
   4   1.0000     -11.221502      -305.3526
   5   1.0000     -11.219492      -305.2979
   6   1.0000     -11.206273      -304.9382
   7   1.0000     -11.198697      -304.7320
   8   1.0000     -11.196506      -304.6724
   9   1.0000     -11.196466      -304.6713
  10   1.0000      -6.120538      -166.5483
  11   1.0000      -4.227660      -115.0405
  12   1.0000      -4.226872      -115.0190
  13   1.0000      -4.226725      -115.0150
  14   1.0000      -1.361282       -37.0424
  15   1.0000      -1.077048       -29.3080
  16   1.0000      -1.019619       -27.7452
  17   1.0000      -0.967532       -26.3279
  18   1.0000      -0.933382       -25.3986
  19   1.0000      -0.926513       -25.2117
  20   1.0000      -0.926221       -25.2038
  21   1.0000      -0.827753       -22.5243
  22   1.0000      -0.763904       -20.7869
  23   1.0000      -0.659786       -17.9537
  24   1.0000      -0.647066       -17.6076
  25   1.0000      -0.626027       -17.0351
  26   1.0000      -0.591406       -16.0930
  27   1.0000      -0.588663       -16.0183
  28   1.0000      -0.567423       -15.4404
  29   1.0000      -0.563102       -15.3228
  30   1.0000      -0.559568       -15.2266
  31   1.0000      -0.552250       -15.0275
  32   1.0000      -0.543072       -14.7777
  33   1.0000      -0.540504       -14.7078
  34   1.0000      -0.536569       -14.6008
  35   1.0000      -0.531439       -14.4612
  36   1.0000      -0.522688       -14.2231
  37   1.0000      -0.520576       -14.1656
  38   1.0000      -0.495803       -13.4915
  39   1.0000      -0.473428       -12.8826
  40   1.0000      -0.430400       -11.7118
  41   1.0000      -0.417982       -11.3739
  42   1.0000      -0.349745        -9.5171
  43   1.0000      -0.324173        -8.8212
  44   0.0000       0.024377         0.6633
  45   0.0000       0.031976         0.8701
  46   0.0000       0.033506         0.9117
  47   0.0000       0.035518         0.9665
  48   0.0000       0.044050         1.1987

                 SPIN DOWN ORBITALS
  NO   OCC          E(Eh)            E(eV)
   0   1.0000     -68.776788     -1871.5115
   1   1.0000     -20.545981      -559.0846
   2   1.0000     -11.285505      -307.0942
   3   1.0000     -11.222704      -305.3853
   4   1.0000     -11.221329      -305.3479
   5   1.0000     -11.204567      -304.8918
   6   1.0000     -11.200791      -304.7890
   7   1.0000     -11.198701      -304.7321
   8   1.0000     -11.196503      -304.6723
   9   1.0000     -11.196400      -304.6695
  10   1.0000      -6.120559      -166.5489
  11   1.0000      -4.227690      -115.0413
  12   1.0000      -4.226885      -115.0194
  13   1.0000      -4.226736      -115.0153
  14   1.0000      -1.361805       -37.0566
  15   1.0000      -1.068456       -29.0742
  16   1.0000      -1.005075       -27.3495
  17   1.0000      -0.967473       -26.3263
  18   1.0000      -0.926889       -25.2219
  19   1.0000      -0.926392       -25.2084
  20   1.0000      -0.909204       -24.7407
  21   1.0000      -0.789414       -21.4811
  22   1.0000      -0.758054       -20.6277
  23   1.0000      -0.654180       -17.8011
  24   1.0000      -0.645425       -17.5629
  25   1.0000      -0.623574       -16.9683
  26   1.0000      -0.588938       -16.0258
  27   1.0000      -0.583129       -15.8677
  28   1.0000      -0.565345       -15.3838
  29   1.0000      -0.562956       -15.3188
  30   1.0000      -0.558882       -15.2080
  31   1.0000      -0.551664       -15.0115
  32   1.0000      -0.542408       -14.7597
  33   1.0000      -0.536373       -14.5955
  34   1.0000      -0.531239       -14.4557
  35   1.0000      -0.528265       -14.3748
  36   1.0000      -0.519635       -14.1400
  37   1.0000      -0.505516       -13.7558
  38   1.0000      -0.492336       -13.3972
  39   1.0000      -0.471777       -12.8377
  40   1.0000      -0.430344       -11.7103
  41   1.0000      -0.417706       -11.3664
  42   1.0000      -0.325881        -8.8677
  43   0.0000       0.024454         0.6654
  44   0.0000       0.031929         0.8688
  45   0.0000       0.033699         0.9170
  46   0.0000       0.035568         0.9678
  47   0.0000       0.044130         1.2008

MULLIKEN ATOMIC CHARGES AND SPIN POPULATIONS
--------------------------------------------
   0 C :   -0.995839    0.009295
   1 C :    0.953579   -0.054594
   2 O :   -0.898932   -0.002195
   3 C :   -0.696591    0.071737
   4 Si:    1.996806    0.003307
   5 C :   -1.329684    0.000819
   6 H :    0.257603    0.000056
   7 H :    0.245700    0.000071
   8 H :    0.287537    0.000173
   9 C :   -1.328291    0.000036
  10 H :    0.278815    0.000076
  11 H :    0.197695   -0.000003
  12 H :    0.288865    0.000038
  13 C :   -1.132376    0.001634
  14 H :    0.280538   -0.006219
  15 H :    0.219798    0.000112
  16 H :    0.305423    0.001082
  17 H :    0.232844    0.000840
  18 H :    0.273262   -0.002532
  19 H :    0.264698   -0.002368
  20 C :   -0.018798   -0.212645
  21 C :   -1.098763    1.257052
  22 H :    0.375269    0.050215
  23 H :    0.222875    0.047965
  24 H :    0.483007   -0.046727
  25 H :    0.310187   -0.105535
  26 H :    0.024773   -0.011691
Sum of atomic charges         :    0.0000000

LOEWDIN ATOMIC CHARGES AND SPIN POPULATIONS
-------------------------------------------
   0 C :    0.565701   -0.004683
   1 C :   -0.460899   -0.018098
   2 O :    0.415956   -0.004321
   3 C :    0.199397    0.027613
   4 Si:    0.336970    0.000143
   5 C :    0.587658    0.000092
   6 H :   -0.228117   -0.000010
   7 H :   -0.230252    0.000013
   8 H :   -0.229622    0.000123
   9 C :    0.586752   -0.000010
  10 H :   -0.239853   -0.000029
  11 H :   -0.228835   -0.000001
  12 H :   -0.226005    0.000005
  13 C :    0.587555    0.002371
  14 H :   -0.236473    0.005007
  15 H :   -0.226228    0.000252
  16 H :   -0.224477    0.000162
  17 H :   -0.177129    0.000011
  18 H :   -0.163091   -0.000935
  19 H :   -0.181329   -0.000939
  20 C :    0.178886    0.134394
  21 C :    0.585110    0.565761
  22 H :   -0.163044    0.013130
  23 H :   -0.181456    0.028968
  24 H :   -0.228420    0.122878
  25 H :   -0.227061    0.121314
  26 H :   -0.191691    0.006791

  Mayer bond orders larger than 0.100000
B(  0-C ,  1-C ) :   0.4380 B(  0-C ,  2-O ) :  -0.1062 B(  0-C , 17-H ) :   1.0826
B(  0-C , 18-H ) :   1.0514 B(  0-C , 19-H ) :   1.0579 B(  1-C ,  2-O ) :   0.7943
B(  1-C ,  3-C ) :   1.1576 B(  1-C , 26-H ) :  -0.1647 B(  2-O ,  3-C ) :  -0.2176
B(  2-O ,  4-Si) :   0.5962 B(  2-O ,  9-C ) :   0.1363 B(  2-O , 13-C ) :   0.1765
B(  3-C , 20-C ) :   0.7950 B(  3-C , 22-H ) :  -0.1659 B(  3-C , 23-H ) :   0.1170
B(  3-C , 26-H ) :   1.4668 B(  4-Si,  5-C ) :   0.5390 B(  4-Si,  9-C ) :   0.5676
B(  4-Si, 13-C ) :   0.6666 B(  5-C ,  6-H ) :   0.9916 B(  5-C ,  7-H ) :   0.9985
B(  5-C ,  8-H ) :   0.9531 B(  5-C ,  9-C ) :   0.2286 B(  5-C , 13-C ) :   0.1727
B(  9-C , 10-H ) :   0.9873 B(  9-C , 11-H ) :   1.0245 B(  9-C , 12-H ) :   0.9364
B(  9-C , 13-C ) :   0.1600 B( 13-C , 14-H ) :   0.9680 B( 13-C , 15-H ) :   0.9300
B( 13-C , 16-H ) :   0.9329 B( 20-C , 21-C ) :   0.7219 B( 20-C , 22-H ) :   0.9573
B( 20-C , 23-H ) :   0.8759 B( 21-C , 22-H ) :  -0.1306 B( 21-C , 23-H ) :   0.1307
B( 21-C , 24-H ) :   0.7271 B( 21-C , 25-H ) :   0.9405

MP2 TOTAL ENERGY:     -678.548396461 Eh
FINAL SINGLE POINT ENERGY      -678.548396461356

DIPOLE MOMENT
-------------
                                X             Y             Z
Electronic contribution:      1.24382       1.59274      -3.01320
Nuclear contribution   :     -1.57667      -1.56328       3.31653
                        -----------------------------------------
Total Dipole Moment    :     -0.33284       0.02946       0.30332
                        -----------------------------------------
Magnitude (a.u.)       :      0.45129
Magnitude (Debye)      :      1.14708

Rotational constants in cm-1:     0.047082     0.026480     0.021044
Rotational constants in MHz :  1411.477478   793.848867   630.868611

                             ****ORCA TERMINATED NORMALLY****
TOTAL RUN TIME: 0 days 0 hours 26 minutes 0 seconds 234 msec
