                         Program Version 4.2.1 -  RELEASE  -
|  1> %pal
|  2>  nprocs 32
|  3> end
|  4> !RI-MP2 aug-cc-pVTZ aug-cc-pVTZ/C TightSCF
|  5> %maxcore 4500
|  6> *xyzfile 0 1  06_16R.xyz
|  7>
|  8>
|  9>                          ****END OF INPUT****

CARTESIAN COORDINATES (ANGSTROEM)
---------------------------------
  C     -1.818134    3.190624   -0.333852
  H     -2.043497    3.948716    0.413211
  H     -0.998937    1.968089    1.248595
  C     -1.022616   -0.362533   -0.249253
  H      0.076810   -0.555340   -2.013337
  C      1.369029   -2.661969   -1.590669
  H      2.838868   -1.571949   -0.373255
  H      2.985954   -1.438923   -3.438046
  B     -2.160740   -1.934436    1.232731
  C     -2.782400   -2.764236    0.064969
  H     -3.568306   -3.438596    0.409398
  C     -2.369105   -2.272475    2.747159
  H     -1.794508   -1.633600    3.419889
  C     -2.772552    1.189310   -0.841477
  O     -3.590614    0.396963   -1.202322
  H      0.752646    3.459073    0.098470
  C      1.665014    1.585196    0.495077
  C      2.489723    0.013987    2.134172
  C      4.024868    1.052735    0.617292
  H      3.167099    2.414309   -0.792747
  H      4.604884   -0.360598    2.130746
  H      0.436386    0.536790    1.922314
  H     -1.426329    3.667498   -1.236708
  C     -0.871458    2.101548    0.168991
  N     -1.440596    0.949999   -0.539887
  C     -0.215905   -1.011886   -1.076312
  O      0.259684   -2.244110   -0.791518
  C      2.561409   -1.778412   -1.402749
  C      3.256258   -1.258311   -2.402266
  H      4.124231   -0.636936   -2.220582
  O     -1.383082   -0.818003    0.988234
  H     -1.999065   -3.372897   -0.399319
  H     -3.185601   -2.115435   -0.716805
  H     -2.110358   -3.317373    2.946531
  H     -3.430295   -2.177743    3.003019
  O     -3.028611    2.508799   -0.668663
  C      0.578721    2.408849   -0.166067
  H      0.692116    2.348706   -1.252651
  C      1.437541    0.711414    1.552314
  C      3.786416    0.182386    1.673806
  C      2.972683    1.741418    0.036127
  H      5.032840    1.193687    0.245094
  H      2.286589   -0.669096    2.950224
  H      1.577498   -3.677793   -1.252994
  H      1.072882   -2.703473   -2.644909

 Total Charge           Charge          ....    0
 Multiplicity           Mult            ....    1
 Number of Electrons    NEL             ....  168
 Basis Dimension        Dim             .... 1564

ORBITAL ENERGIES
----------------

  NO   OCC          E(Eh)            E(eV)
   0   2.0000     -20.606516      -560.7318
   1   2.0000     -20.588599      -560.2443
   2   2.0000     -20.573338      -559.8290
   3   2.0000     -20.529356      -558.6322
   4   2.0000     -15.599302      -424.4786
   5   2.0000     -11.399643      -310.2001
   6   2.0000     -11.314525      -307.8839
   7   2.0000     -11.307422      -307.6906
   8   2.0000     -11.297603      -307.4234
   9   2.0000     -11.293155      -307.3024
  10   2.0000     -11.288854      -307.1853
  11   2.0000     -11.252262      -306.1896
  12   2.0000     -11.250972      -306.1545
  13   2.0000     -11.240774      -305.8770
  14   2.0000     -11.240267      -305.8632
  15   2.0000     -11.238714      -305.8209
  16   2.0000     -11.237509      -305.7882
  17   2.0000     -11.236588      -305.7631
  18   2.0000     -11.235499      -305.7335
  19   2.0000     -11.233929      -305.6908
  20   2.0000     -11.181001      -304.2505
  21   2.0000     -11.168349      -303.9062
  22   2.0000      -7.603122      -206.8915
  23   2.0000      -1.477769       -40.2121
  24   2.0000      -1.422606       -38.7111
  25   2.0000      -1.394674       -37.9510
  26   2.0000      -1.370089       -37.2820
  27   2.0000      -1.261627       -34.3306
  28   2.0000      -1.166810       -31.7505
  29   2.0000      -1.092848       -29.7379
  30   2.0000      -1.082275       -29.4502
  31   2.0000      -1.039184       -28.2776
  32   2.0000      -1.022679       -27.8285
  33   2.0000      -1.017889       -27.6982
  34   2.0000      -0.954402       -25.9706
  35   2.0000      -0.948914       -25.8213
  36   2.0000      -0.933820       -25.4105
  37   2.0000      -0.912479       -24.8298
  38   2.0000      -0.867429       -23.6040
  39   2.0000      -0.852163       -23.1885
  40   2.0000      -0.829511       -22.5721
  41   2.0000      -0.805115       -21.9083
  42   2.0000      -0.788909       -21.4673
  43   2.0000      -0.782061       -21.2810
  44   2.0000      -0.741039       -20.1647
  45   2.0000      -0.727627       -19.7997
  46   2.0000      -0.721407       -19.6305
  47   2.0000      -0.704035       -19.1578
  48   2.0000      -0.684941       -18.6382
  49   2.0000      -0.666635       -18.1401
  50   2.0000      -0.653337       -17.7782
  51   2.0000      -0.643109       -17.4999
  52   2.0000      -0.642054       -17.4712
  53   2.0000      -0.630067       -17.1450
  54   2.0000      -0.628541       -17.1035
  55   2.0000      -0.625450       -17.0194
  56   2.0000      -0.605152       -16.4670
  57   2.0000      -0.597619       -16.2620
  58   2.0000      -0.591515       -16.0959
  59   2.0000      -0.590313       -16.0632
  60   2.0000      -0.581773       -15.8308
  61   2.0000      -0.574263       -15.6265
  62   2.0000      -0.569002       -15.4833
  63   2.0000      -0.557795       -15.1784
  64   2.0000      -0.548921       -14.9369
  65   2.0000      -0.547757       -14.9052
  66   2.0000      -0.531429       -14.4609
  67   2.0000      -0.518722       -14.1151
  68   2.0000      -0.516528       -14.0555
  69   2.0000      -0.511480       -13.9181
  70   2.0000      -0.505697       -13.7607
  71   2.0000      -0.503866       -13.7109
  72   2.0000      -0.496626       -13.5139
  73   2.0000      -0.493982       -13.4419
  74   2.0000      -0.486752       -13.2452
  75   2.0000      -0.485619       -13.2144
  76   2.0000      -0.461486       -12.5577
  77   2.0000      -0.455706       -12.4004
  78   2.0000      -0.433460       -11.7950
  79   2.0000      -0.410743       -11.1769
  80   2.0000      -0.383403       -10.4329
  81   2.0000      -0.349404        -9.5078
  82   2.0000      -0.341645        -9.2966
  83   2.0000      -0.324330        -8.8255
  84   0.0000       0.019629         0.5341
  85   0.0000       0.025522         0.6945
  86   0.0000       0.028101         0.7647
  87   0.0000       0.030501         0.8300
  88   0.0000       0.038538         1.0487

MULLIKEN ATOMIC CHARGES
-----------------------
   0 C :   -0.407681
   1 H :    0.352780
   2 H :    0.241095
   3 C :    2.351322
   4 H :    0.331944
   5 C :   -0.378090
   6 H :    0.652213
   7 H :    0.149793
   8 B :   -0.013242
   9 C :   -1.156713
  10 H :    0.058471
  11 C :   -1.139858
  12 H :    0.374116
  13 C :    0.437404
  14 O :   -0.949647
  15 H :    0.470657
  16 C :    1.587806
  17 C :   -0.952042
  18 C :   -0.467202
  19 H :   -0.145613
  20 H :    0.536160
  21 H :    0.020948
  22 H :    0.258408
  23 C :   -0.061330
  24 N :    0.166630
  25 C :   -1.082606
  26 O :   -0.695510
  27 C :   -0.111569
  28 C :   -1.380953
  29 H :    0.600386
  30 O :   -0.439756
  31 H :    0.435901
  32 H :    0.532593
  33 H :    0.229909
  34 H :    0.245032
  35 O :   -0.515470
  36 C :   -0.261670
  37 H :    0.092269
  38 C :   -0.212412
  39 C :   -0.139264
  40 C :   -1.036141
  41 H :    0.493011
  42 H :    0.244164
  43 H :    0.359417
  44 H :    0.324342
Sum of atomic charges:   -0.0000000

LOEWDIN ATOMIC CHARGES
----------------------
   0 C :    0.108202
   1 H :   -0.136900
   2 H :   -0.126974
   3 C :   -0.509539
   4 H :   -0.168307
   5 C :    0.034419
   6 H :   -0.200023
   7 H :   -0.211866
   8 B :   -0.605901
   9 C :    0.686265
  10 H :   -0.184646
  11 C :    0.682623
  12 H :   -0.194128
  13 C :   -0.926185
  14 O :    0.463595
  15 H :   -0.130148
  16 C :   -0.086522
  17 C :    0.208186
  18 C :    0.185766
  19 H :   -0.167293
  20 H :   -0.179747
  21 H :   -0.213914
  22 H :   -0.140465
  23 C :   -0.093305
  24 N :    0.260187
  25 C :   -0.039740
  26 O :    0.586882
  27 C :    0.176678
  28 C :    0.532838
  29 H :   -0.218042
  30 O :    0.657267
  31 H :   -0.195908
  32 H :   -0.207040
  33 H :   -0.186725
  34 H :   -0.185614
  35 O :    0.605257
  36 C :    0.309668
  37 H :   -0.138339
  38 C :    0.219230
  39 C :    0.186489
  40 C :    0.207767
  41 H :   -0.177583
  42 H :   -0.173812
  43 H :   -0.155071
  44 H :   -0.157583

  Mayer bond orders larger than 0.100000
B(  0-C ,  1-H ) :   0.9863 B(  0-C , 22-H ) :   1.1324 B(  0-C , 23-C ) :   0.7749
B(  0-C , 35-O ) :   0.5182 B(  2-H , 23-C ) :   0.9410 B(  2-H , 24-N ) :   0.1476
B(  2-H , 35-O ) :  -0.1002 B(  2-H , 36-C ) :   0.1011 B(  3-C ,  4-H ) :  -0.1685
B(  3-C ,  8-B ) :  -0.1193 B(  3-C ,  9-C ) :  -0.2223 B(  3-C , 10-H ) :  -0.1440
B(  3-C , 14-O ) :   0.1787 B(  3-C , 24-N ) :   0.9536 B(  3-C , 25-C ) :  -0.2069
B(  3-C , 30-O ) :  -0.2748 B(  3-C , 36-C ) :  -0.1299 B(  4-H , 25-C ) :   1.2546
B(  4-H , 26-O ) :  -0.1095 B(  5-C , 26-O ) :   1.0339 B(  5-C , 27-C ) :   0.9933
B(  5-C , 43-H ) :   0.9138 B(  5-C , 44-H ) :   0.9512 B(  6-H , 27-C ) :   0.6226
B(  7-H , 27-C ) :  -0.1156 B(  7-H , 28-C ) :   1.3906 B(  8-B ,  9-C ) :   1.1530
B(  8-B , 11-C ) :   0.6572 B(  8-B , 30-O ) :   1.0220 B(  9-C , 10-H ) :   1.2311
B(  9-C , 30-O ) :  -0.1889 B(  9-C , 31-H ) :   0.7866 B(  9-C , 32-H ) :   0.6823
B( 11-C , 12-H ) :   0.8088 B( 11-C , 30-O ) :   0.2260 B( 11-C , 33-H ) :   1.0015
B( 11-C , 34-H ) :   0.9739 B( 13-C , 14-O ) :   1.5890 B( 13-C , 24-N ) :   0.7346
B( 13-C , 35-O ) :   0.8556 B( 14-O , 24-N ) :  -0.3532 B( 14-O , 35-O ) :  -0.2627
B( 15-H , 16-C ) :  -0.1635 B( 15-H , 36-C ) :   0.8495 B( 15-H , 40-C ) :  -0.1756
B( 16-C , 17-C ) :   0.2560 B( 16-C , 18-C ) :   0.4887 B( 16-C , 19-H ) :  -0.2468
B( 16-C , 20-H ) :   0.1902 B( 16-C , 21-H ) :  -0.3252 B( 16-C , 23-C ) :   0.2185
B( 16-C , 36-C ) :  -0.3656 B( 16-C , 37-H ) :  -0.2374 B( 16-C , 38-C ) :   0.7751
B( 16-C , 40-C ) :   0.7429 B( 16-C , 41-H ) :  -0.1030 B( 16-C , 42-H ) :  -0.2146
B( 17-C , 18-C ) :   0.2527 B( 17-C , 20-H ) :  -0.2213 B( 17-C , 38-C ) :   0.7761
B( 17-C , 39-C ) :   1.1815 B( 17-C , 40-C ) :   0.2845 B( 17-C , 42-H ) :   1.1246
B( 18-C , 19-H ) :  -0.1626 B( 18-C , 20-H ) :  -0.1352 B( 18-C , 39-C ) :   1.0642
B( 18-C , 40-C ) :   1.1892 B( 18-C , 41-H ) :   0.7310 B( 19-H , 21-H ) :   0.1934
B( 19-H , 36-C ) :  -0.2087 B( 19-H , 38-C ) :   0.1747 B( 19-H , 40-C ) :   1.8747
B( 20-H , 39-C ) :   0.7139 B( 20-H , 40-C ) :   0.1259 B( 21-H , 38-C ) :   1.7942
B( 21-H , 39-C ) :  -0.1054 B( 21-H , 40-C ) :   0.1891 B( 22-H , 23-C ) :  -0.1707
B( 23-C , 24-N ) :   0.6967 B( 23-C , 35-O ) :   0.3932 B( 23-C , 36-C ) :   0.9972
B( 23-C , 38-C ) :  -0.1055 B( 23-C , 40-C ) :   0.1132 B( 24-N , 25-C ) :   0.2818
B( 24-N , 35-O ) :  -0.1674 B( 25-C , 26-O ) :   0.6052 B( 25-C , 30-O ) :   0.5268
B( 26-O , 30-O ) :  -0.1051 B( 27-C , 28-C ) :   0.9984 B( 28-C , 29-H ) :   0.4441
B( 36-C , 37-H ) :   1.3145 B( 36-C , 38-C ) :   0.1427 B( 36-C , 39-C ) :   0.1240
B( 36-C , 40-C ) :   0.2998 B( 38-C , 40-C ) :  -0.4394 B( 39-C , 40-C ) :  -0.1098

MP2 TOTAL ENERGY:    -1039.612591611 Eh
FINAL SINGLE POINT ENERGY     -1039.612591611048

DIPOLE MOMENT
-------------
                                X             Y             Z
Electronic contribution:     -8.53038       7.22722      -1.46455
Nuclear contribution   :     10.71408      -6.57809       1.42477
                        -----------------------------------------
Total Dipole Moment    :      2.18370       0.64913      -0.03977
                        -----------------------------------------
Magnitude (a.u.)       :      2.27848
Magnitude (Debye)      :      5.79144

Rotational constants in cm-1:     0.010809     0.007342     0.005999
Rotational constants in MHz :   324.044992   220.120842   179.832366

                             ****ORCA TERMINATED NORMALLY****
TOTAL RUN TIME: 0 days 1 hours 28 minutes 23 seconds 140 msec
