                         Program Version 4.2.1 -  RELEASE  -
|  1> %pal
|  2>  nprocs 32
|  3> end
|  4> !RI-MP2 aug-cc-pVTZ aug-cc-pVTZ/C TightSCF
|  5> %maxcore 4500
|  6> *xyzfile 0 1  02_36TS.xyz
|  7>
|  8>
|  9>                          ****END OF INPUT****

CARTESIAN COORDINATES (ANGSTROEM)
---------------------------------
  C     -0.186078   -0.901891   -0.996871
  C      2.107901   -0.675559   -0.131856
  C     -0.725170   -0.016367   -0.079293
  H     -0.408305   -0.140911    0.945642
  C      2.040664    0.772563    0.033454
  C      1.109034   -1.372213   -0.810246
  C      3.367620    1.507312    0.024764
  H      1.433700   -2.278536   -1.313285
  H     -0.729290   -1.168074   -1.896370
  C      0.844279    2.847550   -0.032773
  C      3.385842   -1.393687    0.008300
  C     -1.993397    0.726438   -0.263512
  H     -1.967086    1.584779    0.418772
  C     -2.230000    1.221034   -1.693127
  H     -1.372129    1.794645   -2.052628
  H     -2.381034    0.395818   -2.391331
  H     -3.112218    1.861603   -1.747759
  N      0.923706    1.409540    0.112774
  Si    -3.456440   -0.322781    0.397448
  C     -4.974351    0.781617    0.443859
  C     -3.761662   -1.785562   -0.732866
  C     -3.044607   -0.915284    2.128220
  H     -4.026528   -1.469106   -1.744418
  H     -4.586225   -2.395112   -0.354072
  H     -2.878414   -2.424182   -0.798900
  H     -5.254273    1.128092   -0.553521
  H     -4.808565    1.661807    1.070306
  H     -5.830774    0.240862    0.855030
  H     -0.202464    3.121133   -0.175502
  H      1.414489    3.238144   -0.882227
  H      1.187342    3.355391    0.874609
  H     -2.787417   -0.081933    2.787274
  H     -2.202178   -1.610510    2.122825
  H     -3.897816   -1.434473    2.572198
  C      4.650933   -0.614839    0.308030
  C      4.395615    0.770110    0.875005
  O      3.455483   -2.602292   -0.137420
  H      3.729398    1.585713   -1.007269
  H      3.234104    2.522910    0.394428
  H      4.023524    0.693335    1.901604
  H      5.324160    1.343619    0.917336
  H      5.271519   -1.228973    0.961614
  H      5.187090   -0.532880   -0.645185

 Total Charge           Charge          ....    0
 Multiplicity           Mult            ....    1
 Number of Electrons    NEL             ....  144
 Basis Dimension        Dim             .... 1407

ORBITAL ENERGIES
----------------

  NO   OCC          E(Eh)            E(eV)
   0   2.0000     -68.761799     -1871.1037
   1   2.0000     -20.505737      -557.9895
   2   2.0000     -15.545542      -423.0157
   3   2.0000     -11.304426      -307.6091
   4   2.0000     -11.289394      -307.2000
   5   2.0000     -11.284277      -307.0608
   6   2.0000     -11.251311      -306.1637
   7   2.0000     -11.250091      -306.1305
   8   2.0000     -11.236379      -305.7574
   9   2.0000     -11.232309      -305.6467
  10   2.0000     -11.226239      -305.4815
  11   2.0000     -11.225323      -305.4566
  12   2.0000     -11.222438      -305.3781
  13   2.0000     -11.208581      -305.0010
  14   2.0000     -11.204727      -304.8961
  15   2.0000     -11.202590      -304.8380
  16   2.0000     -11.199849      -304.7634
  17   2.0000     -11.198947      -304.7388
  18   2.0000      -6.109296      -166.2424
  19   2.0000      -4.215554      -114.7111
  20   2.0000      -4.215408      -114.7071
  21   2.0000      -4.215335      -114.7051
  22   2.0000      -1.353452       -36.8293
  23   2.0000      -1.235544       -33.6209
  24   2.0000      -1.113543       -30.3011
  25   2.0000      -1.103520       -30.0283
  26   2.0000      -1.060100       -28.8468
  27   2.0000      -0.994470       -27.0609
  28   2.0000      -0.977776       -26.6066
  29   2.0000      -0.969028       -26.3686
  30   2.0000      -0.943112       -25.6634
  31   2.0000      -0.930509       -25.3204
  32   2.0000      -0.928830       -25.2748
  33   2.0000      -0.901963       -24.5437
  34   2.0000      -0.852651       -23.2018
  35   2.0000      -0.811764       -22.0892
  36   2.0000      -0.761862       -20.7313
  37   2.0000      -0.744653       -20.2630
  38   2.0000      -0.677810       -18.4441
  39   2.0000      -0.673958       -18.3393
  40   2.0000      -0.662096       -18.0166
  41   2.0000      -0.647373       -17.6159
  42   2.0000      -0.630379       -17.1535
  43   2.0000      -0.616764       -16.7830
  44   2.0000      -0.607513       -16.5313
  45   2.0000      -0.597233       -16.2515
  46   2.0000      -0.590574       -16.0703
  47   2.0000      -0.588944       -16.0260
  48   2.0000      -0.576401       -15.6847
  49   2.0000      -0.571810       -15.5597
  50   2.0000      -0.569588       -15.4993
  51   2.0000      -0.567489       -15.4422
  52   2.0000      -0.555113       -15.1054
  53   2.0000      -0.552955       -15.0467
  54   2.0000      -0.545089       -14.8326
  55   2.0000      -0.542999       -14.7758
  56   2.0000      -0.541232       -14.7277
  57   2.0000      -0.535783       -14.5794
  58   2.0000      -0.525037       -14.2870
  59   2.0000      -0.515790       -14.0354
  60   2.0000      -0.503985       -13.7141
  61   2.0000      -0.491136       -13.3645
  62   2.0000      -0.481825       -13.1111
  63   2.0000      -0.468801       -12.7567
  64   2.0000      -0.459827       -12.5125
  65   2.0000      -0.435926       -11.8622
  66   2.0000      -0.434458       -11.8222
  67   2.0000      -0.433813       -11.8047
  68   2.0000      -0.397020       -10.8035
  69   2.0000      -0.384956       -10.4752
  70   2.0000      -0.347398        -9.4532
  71   2.0000      -0.277895        -7.5619
  72   0.0000       0.020221         0.5503
  73   0.0000       0.024904         0.6777
  74   0.0000       0.029150         0.7932
  75   0.0000       0.031060         0.8452
  76   0.0000       0.037378         1.0171

MULLIKEN ATOMIC CHARGES
-----------------------
   0 C :    0.323158
   1 C :    1.209191
   2 C :    0.028281
   3 H :    0.027877
   4 C :    0.087381
   5 C :   -1.540998
   6 C :   -0.173345
   7 H :   -0.479410
   8 H :    0.081363
   9 C :   -1.155589
  10 C :    0.610332
  11 C :    0.693036
  12 H :    0.354802
  13 C :   -1.258914
  14 H :    0.343202
  15 H :    0.298839
  16 H :    0.257492
  17 N :   -0.372331
  18 Si:    2.380953
  19 C :   -1.590206
  20 C :   -1.247261
  21 C :   -1.437001
  22 H :    0.219154
  23 H :    0.141311
  24 H :    0.353853
  25 H :    0.222165
  26 H :    0.245728
  27 H :    0.198728
  28 H :    0.376365
  29 H :    0.286981
  30 H :    0.341370
  31 H :    0.218073
  32 H :    0.321639
  33 H :    0.125558
  34 C :   -0.234472
  35 C :   -0.636263
  36 O :   -1.277427
  37 H :    0.317557
  38 H :    0.326277
  39 H :    0.213222
  40 H :    0.310643
  41 H :    0.284707
  42 H :    0.203979
Sum of atomic charges:   -0.0000000

LOEWDIN ATOMIC CHARGES
----------------------
   0 C :    0.208137
   1 C :   -0.065786
   2 C :    0.085843
   3 H :   -0.181312
   4 C :   -0.239868
   5 C :    0.206791
   6 C :    0.296455
   7 H :   -0.183414
   8 H :   -0.191587
   9 C :    0.423612
  10 C :   -0.546063
  11 C :    0.001978
  12 H :   -0.189294
  13 C :    0.546951
  14 H :   -0.158810
  15 H :   -0.175804
  16 H :   -0.165130
  17 N :    0.403311
  18 Si:    0.526374
  19 C :    0.590160
  20 C :    0.590795
  21 C :    0.592934
  22 H :   -0.225983
  23 H :   -0.224503
  24 H :   -0.229362
  25 H :   -0.230695
  26 H :   -0.224054
  27 H :   -0.226205
  28 H :   -0.192467
  29 H :   -0.164782
  30 H :   -0.166854
  31 H :   -0.221700
  32 H :   -0.225874
  33 H :   -0.224847
  34 C :    0.288434
  35 C :    0.285565
  36 O :    0.461814
  37 H :   -0.121677
  38 H :   -0.175267
  39 H :   -0.133139
  40 H :   -0.135444
  41 H :   -0.149539
  42 H :   -0.139694

  Mayer bond orders larger than 0.100000
B(  0-C ,  1-C ) :   0.4671 B(  0-C ,  2-C ) :   0.8967 B(  0-C ,  3-H ) :   0.3974
B(  0-C ,  7-H ) :  -0.3263 B(  0-C ,  8-H ) :   1.3700 B(  0-C , 10-C ) :  -0.1384
B(  0-C , 11-C ) :   0.1574 B(  0-C , 18-Si) :  -0.1668 B(  1-C ,  2-C ) :   0.1629
B(  1-C ,  3-H ) :  -0.1800 B(  1-C ,  4-C ) :   0.3564 B(  1-C ,  5-C ) :   0.1287
B(  1-C ,  7-H ) :  -0.9227 B(  1-C , 10-C ) :   0.8559 B(  1-C , 11-C ) :   0.1341
B(  1-C , 34-C ) :   0.2995 B(  2-C ,  3-H ) :   1.0296 B(  2-C ,  4-C ) :   0.1047
B(  2-C ,  5-C ) :   0.5640 B(  2-C ,  8-H ) :  -0.4287 B(  2-C , 10-C ) :   0.1630
B(  2-C , 11-C ) :   1.0796 B(  2-C , 12-H ) :  -0.2700 B(  2-C , 13-C ) :   0.1442
B(  2-C , 18-Si) :   0.5689 B(  2-C , 21-C ) :  -0.1049 B(  3-H ,  4-C ) :  -0.1464
B(  3-H , 11-C ) :   0.1610 B(  3-H , 21-C ) :   0.1222 B(  4-C ,  5-C ) :   0.3742
B(  4-C ,  6-C ) :   0.3345 B(  4-C ,  7-H ) :   0.2084 B(  4-C ,  8-H ) :  -0.1118
B(  4-C , 10-C ) :  -0.2942 B(  4-C , 17-N ) :   1.6584 B(  4-C , 34-C ) :  -0.1288
B(  4-C , 38-H ) :  -0.1277 B(  5-C ,  7-H ) :   2.3301 B(  5-C ,  8-H ) :  -0.1042
B(  5-C , 10-C ) :   0.7649 B(  5-C , 11-C ) :  -0.1127 B(  6-C , 17-N ) :  -0.1388
B(  6-C , 35-C ) :   1.0302 B(  6-C , 37-H ) :   0.9625 B(  6-C , 38-H ) :   0.9593
B(  7-H , 36-O ) :   0.3155 B(  9-C , 17-N ) :   1.0064 B(  9-C , 28-H ) :   0.8866
B(  9-C , 29-H ) :   1.0042 B(  9-C , 30-H ) :   0.9523 B( 10-C , 34-C ) :   0.6294
B( 10-C , 36-O ) :   0.5411 B( 11-C , 12-H ) :   0.9063 B( 11-C , 13-C ) :   0.5488
B( 11-C , 18-Si) :   0.9301 B( 11-C , 20-C ) :   0.2387 B( 11-C , 21-C ) :   0.2315
B( 12-H , 18-Si) :  -0.2261 B( 13-C , 14-H ) :   0.9249 B( 13-C , 15-H ) :   1.0756
B( 13-C , 16-H ) :   1.0553 B( 18-Si, 20-C ) :   0.2780 B( 19-C , 20-C ) :   0.1958
B( 19-C , 21-C ) :   0.1976 B( 19-C , 25-H ) :   1.0719 B( 19-C , 26-H ) :   1.0123
B( 19-C , 27-H ) :   1.1267 B( 20-C , 21-C ) :   0.1559 B( 20-C , 22-H ) :   1.0512
B( 20-C , 23-H ) :   1.0925 B( 20-C , 24-H ) :   0.8951 B( 21-C , 31-H ) :   1.0535
B( 21-C , 32-H ) :   0.9421 B( 21-C , 33-H ) :   1.1223 B( 34-C , 35-C ) :   0.9649
B( 34-C , 36-O ) :  -0.1294 B( 34-C , 41-H ) :   0.9387 B( 34-C , 42-H ) :   1.0297
B( 35-C , 39-H ) :   0.9883 B( 35-C , 40-H ) :   0.9308

MP2 TOTAL ENERGY:    -1004.186204757 Eh
FINAL SINGLE POINT ENERGY     -1004.186204757089

DIPOLE MOMENT
-------------
                                X             Y             Z
Electronic contribution:     14.79751      -8.04966      -0.15685
Nuclear contribution   :    -15.77719      10.00853       0.23973
                        -----------------------------------------
Total Dipole Moment    :     -0.97967       1.95886       0.08287
                        -----------------------------------------
Magnitude (a.u.)       :      2.19175
Magnitude (Debye)      :      5.57098

Rotational constants in cm-1:     0.024300     0.006430     0.005731
Rotational constants in MHz :   728.505226   192.767504   171.823283

                             ****ORCA TERMINATED NORMALLY****
TOTAL RUN TIME: 0 days 1 hours 7 minutes 24 seconds 774 msec
