                         Program Version 4.2.1 -  RELEASE  -
|  1> %pal
|  2>  nprocs 32
|  3> end
|  4> !RI-MP2 aug-cc-pVTZ aug-cc-pVTZ/C TightSCF
|  5> %maxcore 4500
|  6> *xyzfile 0 1  10_37TS.xyz
|  7>
|  8>
|  9>                          ****END OF INPUT****

CARTESIAN COORDINATES (ANGSTROEM)
---------------------------------
  C      1.173351   -2.485796    0.397896
  N     -0.116429   -1.841500    0.510709
  C      2.202120   -1.623776   -0.299314
  C      0.324611   -0.511512   -1.500483
  H     -0.139919    0.465657   -1.475480
  H      0.427163   -0.771588   -2.559113
  C      2.353500    0.779613   -0.698086
  C      3.540419   -1.957389   -0.118218
  H      4.179463   -2.075074   -0.972801
  H      3.771277   -2.658483    0.684607
  C      3.602568    0.916738   -0.091146
  C      4.621898   -0.008873   -0.230300
  C      1.714260   -0.456707   -0.915507
  H      4.794270   -0.352186   -1.237762
  H      3.721908    1.736735    0.612377
  C      5.842359    0.022270    0.645126
  H      6.308855   -0.962336    0.708789
  H      6.591536    0.708979    0.237748
  H      5.597762    0.346201    1.657636
  H      1.077427   -3.458480   -0.122920
  C     -0.613761   -1.533261   -0.822525
  H      1.552949   -2.705863    1.400770
  S      1.475228    2.333941   -0.896977
  C     -1.058556   -2.646312    1.265730
  C     -2.045435   -1.031410   -0.795713
  H     -0.608073   -2.466826   -1.420162
  C     -2.841438   -1.169440    0.339274
  C     -2.292959   -1.823151    1.578540
  H     -3.059568   -2.452966    2.037606
  H     -2.027580   -1.049238    2.303792
  H     -0.575515   -2.969236    2.190490
  H     -1.339232   -3.559199    0.707629
  C     -2.586361   -0.434561   -1.933977
  C     -4.148772   -0.687802    0.319421
  C     -4.674282   -0.083755   -0.808637
  C     -3.886748    0.038668   -1.946603
  H     -4.285227    0.502206   -2.841081
  H     -1.977765   -0.330865   -2.824554
  H     -4.760333   -0.794038    1.209513
  H     -5.693322    0.284300   -0.805333
  C      0.079869    2.176748    0.210808
  C      0.208525    1.597439    1.467551
  C     -1.150256    2.685057   -0.194289
  C     -2.243585    2.619322    0.656859
  C     -2.115661    2.043739    1.912221
  C     -0.887982    1.533234    2.312212
  H     -1.254435    3.111873   -1.184589
  H     -3.202728    2.998395    0.326595
  H      1.159859    1.183997    1.776160
  H     -2.972810    1.982468    2.571643
  H     -0.780696    1.078515    3.290044

 Total Charge           Charge          ....    0
 Multiplicity           Mult            ....    1
 Number of Electrons    NEL             ....  192
 Basis Dimension        Dim             .... 1775

ORBITAL ENERGIES
----------------

  NO   OCC          E(Eh)            E(eV)
   0   2.0000     -91.949314     -2502.0680
   1   2.0000     -15.546258      -423.0352
   2   2.0000     -11.261080      -306.4296
   3   2.0000     -11.260804      -306.4220
   4   2.0000     -11.255720      -306.2837
   5   2.0000     -11.255468      -306.2769
   6   2.0000     -11.253542      -306.2245
   7   2.0000     -11.249170      -306.1055
   8   2.0000     -11.242873      -305.9341
   9   2.0000     -11.238575      -305.8172
  10   2.0000     -11.234063      -305.6944
  11   2.0000     -11.231808      -305.6330
  12   2.0000     -11.230579      -305.5996
  13   2.0000     -11.228750      -305.5498
  14   2.0000     -11.228619      -305.5463
  15   2.0000     -11.227403      -305.5132
  16   2.0000     -11.226906      -305.4996
  17   2.0000     -11.226364      -305.4849
  18   2.0000     -11.226326      -305.4839
  19   2.0000     -11.225895      -305.4721
  20   2.0000     -11.225477      -305.4608
  21   2.0000     -11.224440      -305.4325
  22   2.0000     -11.223830      -305.4160
  23   2.0000     -11.221840      -305.3618
  24   2.0000     -11.221014      -305.3393
  25   2.0000     -11.218454      -305.2697
  26   2.0000      -8.949064      -243.5164
  27   2.0000      -6.630384      -180.4219
  28   2.0000      -6.629271      -180.3916
  29   2.0000      -6.628585      -180.3730
  30   2.0000      -1.256227       -34.1837
  31   2.0000      -1.158975       -31.5373
  32   2.0000      -1.155076       -31.4312
  33   2.0000      -1.138668       -30.9847
  34   2.0000      -1.080035       -29.3893
  35   2.0000      -1.065244       -28.9868
  36   2.0000      -1.050866       -28.5955
  37   2.0000      -1.046121       -28.4664
  38   2.0000      -1.015081       -27.6218
  39   2.0000      -1.011624       -27.5277
  40   2.0000      -0.996111       -27.1055
  41   2.0000      -0.973300       -26.4848
  42   2.0000      -0.933938       -25.4137
  43   2.0000      -0.922617       -25.1057
  44   2.0000      -0.890007       -24.2183
  45   2.0000      -0.858674       -23.3657
  46   2.0000      -0.837263       -22.7831
  47   2.0000      -0.826086       -22.4789
  48   2.0000      -0.819887       -22.3103
  49   2.0000      -0.805679       -21.9236
  50   2.0000      -0.781200       -21.2575
  51   2.0000      -0.769357       -20.9353
  52   2.0000      -0.748695       -20.3730
  53   2.0000      -0.696320       -18.9478
  54   2.0000      -0.691871       -18.8268
  55   2.0000      -0.672199       -18.2915
  56   2.0000      -0.666085       -18.1251
  57   2.0000      -0.658420       -17.9165
  58   2.0000      -0.647465       -17.6184
  59   2.0000      -0.630606       -17.1597
  60   2.0000      -0.628173       -17.0935
  61   2.0000      -0.623300       -16.9609
  62   2.0000      -0.609809       -16.5938
  63   2.0000      -0.603565       -16.4238
  64   2.0000      -0.596180       -16.2229
  65   2.0000      -0.593616       -16.1531
  66   2.0000      -0.586675       -15.9642
  67   2.0000      -0.582354       -15.8467
  68   2.0000      -0.577247       -15.7077
  69   2.0000      -0.567835       -15.4516
  70   2.0000      -0.562911       -15.3176
  71   2.0000      -0.552723       -15.0403
  72   2.0000      -0.545956       -14.8562
  73   2.0000      -0.542145       -14.7525
  74   2.0000      -0.527409       -14.3515
  75   2.0000      -0.523547       -14.2464
  76   2.0000      -0.520747       -14.1702
  77   2.0000      -0.511019       -13.9055
  78   2.0000      -0.506056       -13.7705
  79   2.0000      -0.497724       -13.5437
  80   2.0000      -0.494725       -13.4622
  81   2.0000      -0.491921       -13.3858
  82   2.0000      -0.478082       -13.0093
  83   2.0000      -0.473447       -12.8832
  84   2.0000      -0.463761       -12.6196
  85   2.0000      -0.451347       -12.2818
  86   2.0000      -0.444841       -12.1047
  87   2.0000      -0.429225       -11.6798
  88   2.0000      -0.378213       -10.2917
  89   2.0000      -0.363843        -9.9007
  90   2.0000      -0.330753        -9.0003
  91   2.0000      -0.328140        -8.9291
  92   2.0000      -0.319728        -8.7002
  93   2.0000      -0.315373        -8.5817
  94   2.0000      -0.291104        -7.9213
  95   2.0000      -0.288350        -7.8464
  96   0.0000       0.022344         0.6080
  97   0.0000       0.026406         0.7185
  98   0.0000       0.029219         0.7951
  99   0.0000       0.031639         0.8610
 100   0.0000       0.036657         0.9975

MULLIKEN ATOMIC CHARGES
-----------------------
   0 C :   -0.886775
   1 N :    0.658367
   2 C :    1.798136
   3 C :   -1.292780
   4 H :    0.523123
   5 H :    0.135115
   6 C :    0.597126
   7 C :   -1.202616
   8 H :    0.293393
   9 H :    0.408240
  10 C :   -0.393878
  11 C :    0.124565
  12 C :   -0.904623
  13 H :    0.445930
  14 H :    0.314469
  15 C :   -0.977734
  16 H :    0.274662
  17 H :    0.280967
  18 H :    0.283172
  19 H :    0.302235
  20 C :   -0.268521
  21 H :    0.003734
  22 S :   -1.432614
  23 C :   -0.768330
  24 C :    1.703645
  25 H :    0.089603
  26 C :    0.755809
  27 C :   -0.577342
  28 H :    0.271665
  29 H :    0.166378
  30 H :    0.334206
  31 H :    0.225895
  32 C :   -1.550743
  33 C :   -0.931673
  34 C :   -0.331998
  35 C :   -0.467024
  36 H :    0.509352
  37 H :    0.004852
  38 H :    0.042723
  39 H :    0.606867
  40 C :    0.536996
  41 C :   -0.283343
  42 C :   -0.576508
  43 C :   -0.275449
  44 C :   -0.200964
  45 C :   -0.399753
  46 H :    0.666258
  47 H :    0.199320
  48 H :    0.459603
  49 H :    0.521740
  50 H :    0.184520
Sum of atomic charges:    0.0000000

LOEWDIN ATOMIC CHARGES
----------------------
   0 C :    0.158756
   1 N :    0.310265
   2 C :   -0.082736
   3 C :    0.287854
   4 H :   -0.267476
   5 H :   -0.125302
   6 C :   -0.439041
   7 C :    0.521448
   8 H :   -0.233011
   9 H :   -0.174211
  10 C :    0.098336
  11 C :    0.149031
  12 C :   -0.099653
  13 H :   -0.196132
  14 H :   -0.198846
  15 C :    0.581078
  16 H :   -0.172874
  17 H :   -0.164033
  18 H :   -0.171021
  19 H :   -0.118566
  20 C :   -0.093624
  21 H :   -0.142076
  22 S :    1.286117
  23 C :    0.173816
  24 C :   -0.041953
  25 H :   -0.111659
  26 C :   -0.074274
  27 C :    0.301770
  28 H :   -0.137502
  29 H :   -0.156018
  30 H :   -0.135855
  31 H :   -0.114506
  32 C :    0.222695
  33 C :    0.215867
  34 C :    0.195878
  35 C :    0.204243
  36 H :   -0.181017
  37 H :   -0.171002
  38 H :   -0.168589
  39 H :   -0.181683
  40 C :   -0.489928
  41 C :    0.146410
  42 C :    0.124429
  43 C :    0.187589
  44 C :    0.188635
  45 C :    0.187524
  46 H :   -0.188199
  47 H :   -0.174976
  48 H :   -0.185568
  49 H :   -0.175371
  50 H :   -0.175039

  Mayer bond orders larger than 0.100000
B(  0-C ,  1-N ) :   0.7541 B(  0-C ,  2-C ) :   0.1252 B(  0-C ,  3-C ) :   0.3098
B(  0-C ,  7-C ) :  -0.1522 B(  0-C , 19-H ) :   1.0228 B(  0-C , 21-H ) :   1.4821
B(  0-C , 24-C ) :  -0.1905 B(  1-N ,  2-C ) :  -0.2624 B(  1-N ,  4-H ) :   0.1341
B(  1-N , 12-C ) :  -0.1043 B(  1-N , 20-C ) :   0.7187 B(  1-N , 21-H ) :  -0.1454
B(  1-N , 23-C ) :   0.6671 B(  1-N , 26-C ) :  -0.2181 B(  1-N , 32-C ) :  -0.1607
B(  1-N , 40-C ) :   0.2230 B(  1-N , 41-C ) :  -0.1687 B(  1-N , 42-C ) :  -0.1070
B(  2-C ,  7-C ) :   0.3489 B(  2-C ,  8-H ) :  -0.1242 B(  2-C , 10-C ) :   0.3465
B(  2-C , 11-C ) :  -0.1883 B(  2-C , 12-C ) :   1.1809 B(  2-C , 19-H ) :  -0.1570
B(  2-C , 21-H ) :  -0.2412 B(  3-C ,  4-H ) :   1.0850 B(  3-C ,  5-H ) :   0.9086
B(  3-C ,  6-C ) :   0.2222 B(  3-C ,  7-C ) :  -0.1228 B(  3-C ,  9-H ) :  -0.1147
B(  3-C , 12-C ) :   1.0508 B(  3-C , 20-C ) :   0.9441 B(  3-C , 24-C ) :   0.1549
B(  3-C , 25-H ) :   0.1044 B(  4-H , 22-S ) :  -0.1734 B(  4-H , 32-C ) :  -0.1146
B(  5-H , 24-C ) :  -0.1017 B(  5-H , 32-C ) :   0.1259 B(  5-H , 41-C ) :  -0.1389
B(  6-C ,  7-C ) :  -0.2306 B(  6-C , 10-C ) :   0.7733 B(  6-C , 12-C ) :   1.4400
B(  6-C , 14-H ) :  -0.1323 B(  6-C , 22-S ) :   0.8350 B(  6-C , 40-C ) :   0.3020
B(  7-C ,  8-H ) :   1.1901 B(  7-C ,  9-H ) :   0.7247 B(  7-C , 10-C ) :  -0.1292
B(  7-C , 11-C ) :   0.5067 B(  7-C , 12-C ) :   0.7243 B(  7-C , 13-H ) :   0.2012
B(  7-C , 20-C ) :  -0.1278 B( 10-C , 11-C ) :   1.1652 B( 10-C , 12-C ) :   0.3913
B( 10-C , 14-H ) :   0.9985 B( 10-C , 22-S ) :  -0.3979 B( 11-C , 12-C ) :   0.1269
B( 11-C , 13-H ) :   0.8540 B( 11-C , 15-C ) :   0.5560 B( 12-C , 24-C ) :   0.1165
B( 12-C , 25-H ) :  -0.1011 B( 12-C , 26-C ) :  -0.1317 B( 12-C , 40-C ) :  -0.1182
B( 12-C , 41-C ) :   0.2121 B( 14-H , 22-S ) :  -0.1780 B( 15-C , 16-H ) :   0.9963
B( 15-C , 17-H ) :   1.0078 B( 15-C , 18-H ) :   1.0021 B( 20-C , 21-H ) :   0.1002
B( 20-C , 24-C ) :   0.7124 B( 20-C , 25-H ) :   1.0278 B( 20-C , 26-C ) :   0.1669
B( 20-C , 32-C ) :   1.0057 B( 20-C , 40-C ) :  -0.2669 B( 20-C , 41-C ) :   0.2208
B( 20-C , 42-C ) :   0.1047 B( 20-C , 47-H ) :   0.1072 B( 20-C , 49-H ) :  -0.1624
B( 21-H , 24-C ) :  -0.1169 B( 22-S , 40-C ) :   1.1920 B( 22-S , 46-H ) :  -0.1989
B( 22-S , 48-H ) :  -0.1141 B( 23-C , 26-C ) :   0.2530 B( 23-C , 27-C ) :   1.1043
B( 23-C , 30-H ) :   0.9429 B( 23-C , 31-H ) :   1.0930 B( 24-C , 25-H ) :  -0.2656
B( 24-C , 26-C ) :   0.7265 B( 24-C , 27-C ) :   0.2991 B( 24-C , 32-C ) :  -0.5589
B( 24-C , 33-C ) :   0.1943 B( 24-C , 34-C ) :  -0.2425 B( 24-C , 37-H ) :  -0.1034
B( 24-C , 39-H ) :   0.1694 B( 25-H , 32-C ) :  -0.1134 B( 25-H , 40-C ) :  -0.1611
B( 25-H , 41-C ) :   0.1110 B( 26-C , 28-H ) :  -0.1181 B( 26-C , 32-C ) :   0.1946
B( 26-C , 33-C ) :   0.5921 B( 26-C , 34-C ) :   0.5810 B( 26-C , 39-H ) :  -0.1067
B( 26-C , 40-C ) :   0.1045 B( 27-C , 28-H ) :   1.0292 B( 27-C , 29-H ) :   1.1416
B( 27-C , 32-C ) :  -0.1779 B( 27-C , 33-C ) :   0.2004 B( 32-C , 34-C ) :   0.2896
B( 32-C , 35-C ) :   1.2870 B( 32-C , 37-H ) :   1.5951 B( 33-C , 34-C ) :   0.9150
B( 33-C , 38-H ) :   1.4731 B( 34-C , 35-C ) :   1.0531 B( 34-C , 39-H ) :   0.5101
B( 35-C , 36-H ) :   0.6929 B( 40-C , 41-C ) :   1.0812 B( 40-C , 42-C ) :   1.0893
B( 40-C , 43-C ) :   0.1181 B( 40-C , 45-C ) :   0.1957 B( 40-C , 47-H ) :   0.1667
B( 40-C , 48-H ) :  -0.1233 B( 40-C , 49-H ) :  -0.1117 B( 40-C , 50-H ) :   0.1968
B( 41-C , 42-C ) :   0.1888 B( 41-C , 44-C ) :   0.2414 B( 41-C , 45-C ) :   0.8601
B( 41-C , 48-H ) :   0.9507 B( 41-C , 50-H ) :  -0.1383 B( 42-C , 43-C ) :   1.0773
B( 42-C , 44-C ) :   0.3475 B( 42-C , 46-H ) :   0.4900 B( 43-C , 44-C ) :   1.1230
B( 43-C , 45-C ) :  -0.1607 B( 43-C , 47-H ) :   1.1741 B( 44-C , 45-C ) :   1.3079
B( 44-C , 48-H ) :  -0.1394 B( 44-C , 49-H ) :   0.6967 B( 45-C , 48-H ) :  -0.1915
B( 45-C , 50-H ) :   1.2734

MP2 TOTAL ENERGY:    -1379.949494624 Eh
FINAL SINGLE POINT ENERGY     -1379.949494623591

DIPOLE MOMENT
-------------
                                X             Y             Z
Electronic contribution:     -6.32997      11.27880      -5.86452
Nuclear contribution   :      6.47808     -12.32608       6.32085
                        -----------------------------------------
Total Dipole Moment    :      0.14812      -1.04728       0.45633
                        -----------------------------------------
Magnitude (a.u.)       :      1.15194
Magnitude (Debye)      :      2.92800

Rotational constants in cm-1:     0.011384     0.005459     0.004625
Rotational constants in MHz :   341.285321   163.669688   138.664839

                             ****ORCA TERMINATED NORMALLY****
TOTAL RUN TIME: 0 days 2 hours 36 minutes 44 seconds 891 msec
