                         Program Version 4.2.1 -  RELEASE  -
|  1> %pal
|  2>  nprocs 32
|  3> end
|  4> !RI-MP2 aug-cc-pVTZ aug-cc-pVTZ/C TightSCF
|  5> %maxcore 4500
|  6> *xyzfile 0 1  06_33P2.xyz
|  7>
|  8>
|  9>                          ****END OF INPUT****

CARTESIAN COORDINATES (ANGSTROEM)
---------------------------------
  C     -0.609270    0.000000    0.372843
  C      0.057091    1.260541   -0.152141
  Cl    -2.370987    0.000000   -0.067158
  C      0.057091   -1.260541   -0.152141
  C      1.546883    1.259575    0.199742
  C      2.241300    0.000000   -0.315201
  C      1.546883   -1.259575    0.199742
  H     -0.438547    2.142024    0.258728
  H     -0.068499    1.296694   -1.238963
  H     -0.068499   -1.296694   -1.238963
  H     -0.438547   -2.142024    0.258728
  H      1.663649    1.318859    1.288122
  H      2.019536    2.154391   -0.212187
  H      3.293392    0.000000   -0.019418
  H      2.222531    0.000000   -1.411142
  H      1.663649   -1.318859    1.288122
  H      2.019536   -2.154391   -0.212187
  H     -0.601291    0.000000    1.463787

 Total Charge           Charge          ....    0
 Multiplicity           Mult            ....    1
 Number of Electrons    NEL             ....   64
 Basis Dimension        Dim             ....  579

ORBITAL ENERGIES
----------------

  NO   OCC          E(Eh)            E(eV)
   0   2.0000    -104.812162     -2852.0839
   1   2.0000     -11.291503      -307.2574
   2   2.0000     -11.230391      -305.5945
   3   2.0000     -11.230377      -305.5941
   4   2.0000     -11.228317      -305.5380
   5   2.0000     -11.228260      -305.5365
   6   2.0000     -11.225448      -305.4600
   7   2.0000     -10.536484      -286.7123
   8   2.0000      -8.003215      -217.7785
   9   2.0000      -8.001583      -217.7341
  10   2.0000      -8.001569      -217.7338
  11   2.0000      -1.157585       -31.4995
  12   2.0000      -1.086516       -29.5656
  13   2.0000      -1.019196       -27.7337
  14   2.0000      -0.982448       -26.7338
  15   2.0000      -0.848319       -23.0839
  16   2.0000      -0.825102       -22.4522
  17   2.0000      -0.770232       -20.9591
  18   2.0000      -0.660810       -17.9816
  19   2.0000      -0.621272       -16.9057
  20   2.0000      -0.615065       -16.7368
  21   2.0000      -0.610747       -16.6193
  22   2.0000      -0.550098       -14.9689
  23   2.0000      -0.541977       -14.7479
  24   2.0000      -0.533301       -14.5118
  25   2.0000      -0.511731       -13.9249
  26   2.0000      -0.498003       -13.5514
  27   2.0000      -0.469228       -12.7683
  28   2.0000      -0.456195       -12.4137
  29   2.0000      -0.449360       -12.2277
  30   2.0000      -0.421676       -11.4744
  31   2.0000      -0.418644       -11.3919
  32   0.0000       0.027525         0.7490
  33   0.0000       0.033492         0.9114
  34   0.0000       0.034945         0.9509
  35   0.0000       0.040033         1.0894
  36   0.0000       0.052292         1.4229

MULLIKEN ATOMIC CHARGES
-----------------------
   0 C :    0.327841
   1 C :   -0.558510
   2 Cl:   -0.545935
   3 C :   -0.558510
   4 C :   -0.487023
   5 C :   -0.469470
   6 C :   -0.487023
   7 H :    0.336963
   8 H :    0.215259
   9 H :    0.215259
  10 H :    0.336963
  11 H :    0.163924
  12 H :    0.326772
  13 H :    0.310393
  14 H :    0.175660
  15 H :    0.163924
  16 H :    0.326772
  17 H :    0.206743
Sum of atomic charges:   -0.0000000

LOEWDIN ATOMIC CHARGES
----------------------
   0 C :   -0.558460
   1 C :    0.207719
   2 Cl:    0.935602
   3 C :    0.207719
   4 C :    0.287404
   5 C :    0.287000
   6 C :    0.287404
   7 H :   -0.154033
   8 H :   -0.152646
   9 H :   -0.152646
  10 H :   -0.154033
  11 H :   -0.138576
  12 H :   -0.139088
  13 H :   -0.139869
  14 H :   -0.138275
  15 H :   -0.138576
  16 H :   -0.139088
  17 H :   -0.207560

  Mayer bond orders larger than 0.100000
B(  0-C ,  1-C ) :   0.9127 B(  0-C ,  2-Cl) :   0.4986 B(  0-C ,  3-C ) :   0.9127
B(  0-C , 17-H ) :   0.9564 B(  1-C ,  3-C ) :   0.1065 B(  1-C ,  4-C ) :   0.9005
B(  1-C ,  7-H ) :   0.9051 B(  1-C ,  8-H ) :   0.9991 B(  3-C ,  6-C ) :   0.9005
B(  3-C ,  9-H ) :   0.9991 B(  3-C , 10-H ) :   0.9051 B(  4-C ,  5-C ) :   0.8811
B(  4-C , 11-H ) :   1.0343 B(  4-C , 12-H ) :   0.8963 B(  5-C ,  6-C ) :   0.8811
B(  5-C , 13-H ) :   0.9099 B(  5-C , 14-H ) :   1.0265 B(  6-C , 15-H ) :   1.0343
B(  6-C , 16-H ) :   0.8963

MP2 TOTAL ENERGY:     -694.476029897 Eh
FINAL SINGLE POINT ENERGY      -694.476029896930

DIPOLE MOMENT
-------------
                                X             Y             Z
Electronic contribution:    -13.78016       0.00000      -0.16049
Nuclear contribution   :     14.85545       0.00000       0.32500
                        -----------------------------------------
Total Dipole Moment    :      1.07528       0.00000       0.16451
                        -----------------------------------------
Magnitude (a.u.)       :      1.08779
Magnitude (Debye)      :      2.76495

Rotational constants in cm-1:     0.143896     0.046095     0.037285
Rotational constants in MHz :  4313.879123  1381.905759  1117.774538

                             ****ORCA TERMINATED NORMALLY****
TOTAL RUN TIME: 0 days 0 hours 3 minutes 14 seconds 836 msec
