                         Program Version 4.2.1 -  RELEASE  -
|  1> %pal
|  2>  nprocs 32
|  3> end
|  4> !RI-MP2 aug-cc-pVTZ aug-cc-pVTZ/C TightSCF
|  5> %maxcore 4500
|  6> *xyzfile 0 1  10_11R1.xyz
|  7>
|  8>
|  9>                          ****END OF INPUT****

CARTESIAN COORDINATES (ANGSTROEM)
---------------------------------
  C      0.600016   -1.151146    0.209992
  C     -0.600016   -1.151146    0.209992
  C      1.876398   -0.436612    0.047299
  C     -1.876398   -0.436612    0.047299
  C      1.447911    0.844237   -0.725539
  H      2.264746    1.570334   -0.718432
  H      1.241533    0.586130   -1.765942
  C     -1.447911    0.844237   -0.725539
  H     -2.264746    1.570334   -0.718432
  S      0.000000    1.770465   -0.085694
  C     -2.897858   -1.207793   -0.791594
  H     -3.213233   -2.113727   -0.270956
  H     -3.783319   -0.593115   -0.972546
  H     -2.475675   -1.499243   -1.754904
  C     -2.468910   -0.075001    1.412371
  H     -3.389650    0.499848    1.282018
  H     -2.704459   -0.977080    1.979124
  H     -1.763555    0.521033    1.992018
  C      2.897858   -1.207794   -0.791594
  H      3.783318   -0.593116   -0.972546
  H      3.213233   -2.113727   -0.270956
  H      2.475675   -1.499243   -1.754904
  C      2.468911   -0.075001    1.412371
  H      2.704459   -0.977080    1.979124
  H      3.389650    0.499847    1.282017
  H      1.763556    0.521033    1.992018
  H     -1.241533    0.586130   -1.765942

 Total Charge           Charge          ....    0
 Multiplicity           Mult            ....    1
 Number of Electrons    NEL             ....   92
 Basis Dimension        Dim             ....  878

ORBITAL ENERGIES
----------------

  NO   OCC          E(Eh)            E(eV)
   0   2.0000     -91.943716     -2501.9157
   1   2.0000     -11.267413      -306.6019
   2   2.0000     -11.267412      -306.6019
   3   2.0000     -11.261250      -306.4342
   4   2.0000     -11.261242      -306.4340
   5   2.0000     -11.223227      -305.3995
   6   2.0000     -11.223227      -305.3995
   7   2.0000     -11.217596      -305.2463
   8   2.0000     -11.217596      -305.2463
   9   2.0000     -11.212338      -305.1032
  10   2.0000     -11.208397      -304.9960
  11   2.0000      -8.943488      -243.3647
  12   2.0000      -6.624718      -180.2677
  13   2.0000      -6.623816      -180.2432
  14   2.0000      -6.622999      -180.2210
  15   2.0000      -1.148547       -31.2535
  16   2.0000      -1.113518       -30.3004
  17   2.0000      -1.024131       -27.8680
  18   2.0000      -0.997733       -27.1497
  19   2.0000      -0.941814       -25.6281
  20   2.0000      -0.940874       -25.6025
  21   2.0000      -0.939705       -25.5707
  22   2.0000      -0.834958       -22.7204
  23   2.0000      -0.830864       -22.6090
  24   2.0000      -0.761371       -20.7180
  25   2.0000      -0.656094       -17.8532
  26   2.0000      -0.652560       -17.7571
  27   2.0000      -0.623614       -16.9694
  28   2.0000      -0.614824       -16.7302
  29   2.0000      -0.605578       -16.4786
  30   2.0000      -0.595766       -16.2116
  31   2.0000      -0.572621       -15.5818
  32   2.0000      -0.550992       -14.9933
  33   2.0000      -0.546253       -14.8643
  34   2.0000      -0.536430       -14.5970
  35   2.0000      -0.527063       -14.3421
  36   2.0000      -0.517581       -14.0841
  37   2.0000      -0.503462       -13.6999
  38   2.0000      -0.503161       -13.6917
  39   2.0000      -0.498791       -13.5728
  40   2.0000      -0.483800       -13.1649
  41   2.0000      -0.469108       -12.7651
  42   2.0000      -0.414789       -11.2870
  43   2.0000      -0.373993       -10.1769
  44   2.0000      -0.359698        -9.7879
  45   2.0000      -0.332273        -9.0416
  46   0.0000       0.028720         0.7815
  47   0.0000       0.029370         0.7992
  48   0.0000       0.036084         0.9819
  49   0.0000       0.039051         1.0626
  50   0.0000       0.043815         1.1923

MULLIKEN ATOMIC CHARGES
-----------------------
   0 C :    0.018906
   1 C :    0.018919
   2 C :    1.211512
   3 C :    1.211505
   4 C :   -0.521849
   5 H :    0.285531
   6 H :    0.255091
   7 C :   -0.521849
   8 H :    0.285533
   9 S :   -0.616426
  10 C :   -1.343716
  11 H :    0.275283
  12 H :    0.242438
  13 H :    0.293495
  14 C :   -1.270733
  15 H :    0.253068
  16 H :    0.274632
  17 H :    0.334554
  18 C :   -1.343717
  19 H :    0.242438
  20 H :    0.275283
  21 H :    0.293494
  22 C :   -1.270735
  23 H :    0.274632
  24 H :    0.253068
  25 H :    0.334553
  26 H :    0.255092
Sum of atomic charges:   -0.0000000

LOEWDIN ATOMIC CHARGES
----------------------
   0 C :    0.090240
   1 C :    0.090240
   2 C :   -0.463003
   3 C :   -0.463004
   4 C :   -0.029067
   5 H :   -0.212388
   6 H :   -0.208514
   7 C :   -0.029067
   8 H :   -0.212388
   9 S :    1.268322
  10 C :    0.578627
  11 H :   -0.155783
  12 H :   -0.154955
  13 H :   -0.159492
  14 C :    0.567017
  15 H :   -0.157375
  16 H :   -0.155710
  17 H :   -0.173758
  18 C :    0.578627
  19 H :   -0.154956
  20 H :   -0.155783
  21 H :   -0.159492
  22 C :    0.567018
  23 H :   -0.155710
  24 H :   -0.157376
  25 H :   -0.173757
  26 H :   -0.208514

  Mayer bond orders larger than 0.100000
B(  0-C ,  1-C ) :   2.6510 B(  0-C ,  2-C ) :   0.9085 B(  0-C ,  3-C ) :   0.1764
B(  0-C ,  4-C ) :   0.1913 B(  0-C ,  7-C ) :  -0.1130 B(  0-C , 10-C ) :  -0.1068
B(  1-C ,  2-C ) :   0.1764 B(  1-C ,  3-C ) :   0.9085 B(  1-C ,  4-C ) :  -0.1130
B(  1-C ,  7-C ) :   0.1913 B(  1-C , 18-C ) :  -0.1068 B(  2-C ,  3-C ) :   0.3107
B(  2-C ,  4-C ) :   0.9020 B(  2-C ,  9-S ) :   0.2311 B(  2-C , 18-C ) :   0.1138
B(  2-C , 19-H ) :  -0.1120 B(  2-C , 22-C ) :   0.3618 B(  3-C ,  7-C ) :   0.9020
B(  3-C ,  9-S ) :   0.2311 B(  3-C , 10-C ) :   0.1138 B(  3-C , 12-H ) :  -0.1120
B(  3-C , 14-C ) :   0.3618 B(  4-C ,  5-H ) :   0.9551 B(  4-C ,  6-H ) :   0.9804
B(  4-C ,  9-S ) :   0.7769 B(  4-C , 18-C ) :   0.1516 B(  7-C ,  8-H ) :   0.9551
B(  7-C ,  9-S ) :   0.7769 B(  7-C , 10-C ) :   0.1516 B(  7-C , 26-H ) :   0.9804
B( 10-C , 11-H ) :   1.0510 B( 10-C , 12-H ) :   1.0794 B( 10-C , 13-H ) :   1.0421
B( 10-C , 14-C ) :   0.1376 B( 14-C , 15-H ) :   1.0373 B( 14-C , 16-H ) :   1.0381
B( 14-C , 17-H ) :   1.0038 B( 18-C , 19-H ) :   1.0794 B( 18-C , 20-H ) :   1.0510
B( 18-C , 21-H ) :   1.0421 B( 18-C , 22-C ) :   0.1376 B( 22-C , 23-H ) :   1.0381
B( 22-C , 24-H ) :   1.0373 B( 22-C , 25-H ) :   1.0038

MP2 TOTAL ENERGY:     -787.500983067 Eh
FINAL SINGLE POINT ENERGY      -787.500983067210

DIPOLE MOMENT
-------------
                                X             Y             Z
Electronic contribution:      0.00000       4.08152       0.07440
Nuclear contribution   :     -0.00000      -4.17463      -0.46876
                        -----------------------------------------
Total Dipole Moment    :      0.00000      -0.09311      -0.39437
                        -----------------------------------------
Magnitude (a.u.)       :      0.40521
Magnitude (Debye)      :      1.02997

Rotational constants in cm-1:     0.052068     0.023314     0.020472
Rotational constants in MHz :  1560.971874   698.921325   613.724977

                             ****ORCA TERMINATED NORMALLY****
TOTAL RUN TIME: 0 days 0 hours 11 minutes 40 seconds 589 msec
