                         Program Version 4.2.1 -  RELEASE  -
|  1> %pal
|  2>  nprocs 32
|  3> end
|  4> !RI-MP2 aug-cc-pVTZ aug-cc-pVTZ/C TightSCF
|  5> %maxcore 4500
|  6> *xyzfile -1 1  09_14R2.xyz
|  7>
|  8>
|  9>                          ****END OF INPUT****

CARTESIAN COORDINATES (ANGSTROEM)
---------------------------------
  C      0.267785    0.020701   -0.009744
  C      1.792701   -0.072446   -0.021732
  C      2.502209    1.080390    0.226160
  O      2.262059   -1.230592   -0.239567
  H      2.024549    2.022423    0.458643
  H      3.584983    1.041332    0.240673
  C     -0.452065   -1.169106    0.100871
  C     -1.840055   -1.176316    0.124526
  C     -2.549842    0.014277    0.021930
  C     -1.847464    1.207743   -0.107378
  C     -0.459046    1.207642   -0.124843
  H      0.131145   -2.080619    0.154712
  H     -2.373940   -2.117320    0.217945
  H     -3.634878    0.013222    0.033906
  H     -2.386564    2.145323   -0.203621
  H      0.072892    2.143068   -0.244466

 Total Charge           Charge          ....   -1
 Multiplicity           Mult            ....    1
 Number of Electrons    NEL             ....   64
 Basis Dimension        Dim             ....  575

ORBITAL ENERGIES
----------------

  NO   OCC          E(Eh)            E(eV)
   0   2.0000     -20.285177      -551.9877
   1   2.0000     -11.107086      -302.2392
   2   2.0000     -11.105706      -302.2016
   3   2.0000     -11.103850      -302.1511
   4   2.0000     -11.103827      -302.1505
   5   2.0000     -11.094659      -301.9010
   6   2.0000     -11.087605      -301.7091
   7   2.0000     -11.084939      -301.6365
   8   2.0000     -10.997817      -299.2658
   9   2.0000      -1.118735       -30.4423
  10   2.0000      -1.016159       -27.6511
  11   2.0000      -0.887545       -24.1513
  12   2.0000      -0.878989       -23.9185
  13   2.0000      -0.785486       -21.3742
  14   2.0000      -0.694031       -18.8855
  15   2.0000      -0.680647       -18.5213
  16   2.0000      -0.584652       -15.9092
  17   2.0000      -0.540146       -14.6981
  18   2.0000      -0.488891       -13.3034
  19   2.0000      -0.479655       -13.0521
  20   2.0000      -0.452991       -12.3265
  21   2.0000      -0.449435       -12.2297
  22   2.0000      -0.391468       -10.6524
  23   2.0000      -0.378047       -10.2872
  24   2.0000      -0.375540       -10.2190
  25   2.0000      -0.347760        -9.4630
  26   2.0000      -0.324309        -8.8249
  27   2.0000      -0.314375        -8.5546
  28   2.0000      -0.206215        -5.6114
  29   2.0000      -0.201510        -5.4834
  30   2.0000      -0.189733        -5.1629
  31   2.0000      -0.096023        -2.6129
  32   0.0000       0.101046         2.7496
  33   0.0000       0.108592         2.9550
  34   0.0000       0.117698         3.2027
  35   0.0000       0.128713         3.5025
  36   0.0000       0.139306         3.7907

MULLIKEN ATOMIC CHARGES
-----------------------
   0 C :    1.692481
   1 C :    1.016145
   2 C :   -1.432219
   3 O :   -1.180416
   4 H :    0.333142
   5 H :    0.314767
   6 C :   -1.009342
   7 C :   -0.577039
   8 C :   -0.308208
   9 C :   -0.769812
  10 C :   -0.739459
  11 H :    0.218704
  12 H :    0.448310
  13 H :    0.433180
  14 H :    0.396282
  15 H :    0.163485
Sum of atomic charges:   -1.0000000

LOEWDIN ATOMIC CHARGES
----------------------
   0 C :   -0.138822
   1 C :   -0.738435
   2 C :    0.396158
   3 O :    0.287976
   4 H :   -0.323809
   5 H :   -0.293778
   6 C :    0.183049
   7 C :    0.165342
   8 C :    0.150717
   9 C :    0.162763
  10 C :    0.183837
  11 H :   -0.219178
  12 H :   -0.199107
  13 H :   -0.204315
  14 H :   -0.199694
  15 H :   -0.212705

  Mayer bond orders larger than 0.100000
B(  0-C ,  1-C ) :   0.4957 B(  0-C ,  6-C ) :   0.4040 B(  0-C , 10-C ) :   0.5385
B(  0-C , 15-H ) :  -0.1271 B(  1-C ,  2-C ) :   0.9842 B(  1-C ,  3-O ) :   0.8461
B(  1-C ,  6-C ) :   0.1218 B(  1-C , 10-C ) :   0.2294 B(  1-C , 12-H ) :   0.1315
B(  2-C ,  4-H ) :   1.0420 B(  2-C ,  5-H ) :   0.8936 B(  6-C ,  7-C ) :   1.1162
B(  6-C , 11-H ) :   1.2136 B(  6-C , 12-H ) :  -0.1745 B(  6-C , 13-H ) :   0.1667
B(  6-C , 15-H ) :   0.1063 B(  7-C ,  8-C ) :   1.1406 B(  7-C , 12-H ) :   0.8107
B(  7-C , 13-H ) :  -0.1616 B(  8-C ,  9-C ) :   1.1805 B(  8-C , 13-H ) :   0.8697
B(  9-C , 10-C ) :   1.1436 B(  9-C , 13-H ) :  -0.1863 B(  9-C , 14-H ) :   0.8945
B(  9-C , 15-H ) :  -0.1182 B( 10-C , 14-H ) :  -0.1035 B( 10-C , 15-H ) :   1.3428

MP2 TOTAL ENERGY:     -383.545968106 Eh
FINAL SINGLE POINT ENERGY      -383.545968105602

DIPOLE MOMENT
-------------
                                X             Y             Z
Electronic contribution:     -0.73572      -2.52263      -0.52065
Nuclear contribution   :     -2.52854       3.12625       0.64949
                        -----------------------------------------
Total Dipole Moment    :     -3.26425       0.60362       0.12884
                        -----------------------------------------
Magnitude (a.u.)       :      3.32209
Magnitude (Debye)      :      8.44409

Rotational constants in cm-1:     0.127621     0.041533     0.031643
Rotational constants in MHz :  3825.995831  1245.132981   948.625609

                             ****ORCA TERMINATED NORMALLY****
TOTAL RUN TIME: 0 days 0 hours 3 minutes 4 seconds 667 msec
