                         Program Version 4.2.1 -  RELEASE  -
|  1> %pal
|  2>  nprocs 32
|  3> end
|  4> !RI-MP2 aug-cc-pVTZ aug-cc-pVTZ/C TightSCF
|  5> %maxcore 4500
|  6> *xyzfile 0 1  10_55TS.xyz
|  7>
|  8>
|  9>                          ****END OF INPUT****

CARTESIAN COORDINATES (ANGSTROEM)
---------------------------------
  S     -1.487164   -0.027807    0.117394
  C     -0.661079   -1.401508   -0.787652
  C      0.544624   -2.085203   -0.112238
  C      1.490629   -1.027353    0.353401
  C      1.530142    1.063353   -0.399592
  C      0.517544    2.073265    0.042720
  C     -0.860178    1.604970   -0.431734
  C      2.811755   -0.689543    0.048022
  C      2.819900    0.720267    0.016906
  H      1.192147    0.513398   -1.266513
  H      1.049523   -0.456585    1.155410
  O     -1.225618   -0.168211    1.547975
  O     -2.860599   -0.048511   -0.381383
  H     -1.494688   -2.092671   -0.919310
  H     -0.405722   -0.998325   -1.768115
  H      0.987578   -2.767526   -0.841505
  H      0.181139   -2.673911    0.733738
  H      0.688453    3.067245   -0.388131
  H      0.525050    2.189502    1.128218
  H     -0.924465    1.577275   -1.521063
  H     -1.662824    2.249526   -0.069929
  H      3.606972   -1.378000   -0.217446
  H      3.581171    1.399272    0.384597

 Total Charge           Charge          ....    0
 Multiplicity           Mult            ....    1
 Number of Electrons    NEL             ....   92
 Basis Dimension        Dim             ....  786

ORBITAL ENERGIES
----------------

  NO   OCC          E(Eh)            E(eV)
   0   2.0000     -92.177593     -2508.2798
   1   2.0000     -20.542080      -558.9784
   2   2.0000     -20.537822      -558.8625
   3   2.0000     -11.288979      -307.1887
   4   2.0000     -11.286602      -307.1241
   5   2.0000     -11.263062      -306.4835
   6   2.0000     -11.259901      -306.3975
   7   2.0000     -11.258657      -306.3636
   8   2.0000     -11.257647      -306.3361
   9   2.0000     -11.235145      -305.7238
  10   2.0000     -11.234035      -305.6936
  11   2.0000      -9.147451      -248.9148
  12   2.0000      -6.831657      -185.8988
  13   2.0000      -6.831563      -185.8963
  14   2.0000      -6.831365      -185.8909
  15   2.0000      -1.439414       -39.1685
  16   2.0000      -1.329183       -36.1689
  17   2.0000      -1.154705       -31.4211
  18   2.0000      -1.097011       -29.8512
  19   2.0000      -1.084753       -29.5176
  20   2.0000      -0.968176       -26.3454
  21   2.0000      -0.962435       -26.1892
  22   2.0000      -0.860445       -23.4139
  23   2.0000      -0.838884       -22.8272
  24   2.0000      -0.786336       -21.3973
  25   2.0000      -0.746134       -20.3033
  26   2.0000      -0.695761       -18.9326
  27   2.0000      -0.680260       -18.5108
  28   2.0000      -0.659897       -17.9567
  29   2.0000      -0.646341       -17.5878
  30   2.0000      -0.629805       -17.1379
  31   2.0000      -0.619731       -16.8637
  32   2.0000      -0.613290       -16.6885
  33   2.0000      -0.600459       -16.3393
  34   2.0000      -0.579902       -15.7799
  35   2.0000      -0.558100       -15.1867
  36   2.0000      -0.545221       -14.8362
  37   2.0000      -0.530771       -14.4430
  38   2.0000      -0.524430       -14.2705
  39   2.0000      -0.513457       -13.9719
  40   2.0000      -0.487650       -13.2696
  41   2.0000      -0.478092       -13.0095
  42   2.0000      -0.463055       -12.6004
  43   2.0000      -0.427835       -11.6420
  44   2.0000      -0.341174        -9.2838
  45   2.0000      -0.325427        -8.8553
  46   0.0000       0.023420         0.6373
  47   0.0000       0.027840         0.7576
  48   0.0000       0.030782         0.8376
  49   0.0000       0.037911         1.0316
  50   0.0000       0.043353         1.1797

MULLIKEN ATOMIC CHARGES
-----------------------
   0 S :    2.333605
   1 C :   -0.650752
   2 C :   -0.457188
   3 C :    0.073697
   4 C :    0.079724
   5 C :   -0.323756
   6 C :   -0.710013
   7 C :   -0.868302
   8 C :   -0.950561
   9 H :    0.385129
  10 H :    0.390920
  11 O :   -1.095283
  12 O :   -1.142318
  13 H :    0.310234
  14 H :    0.182812
  15 H :    0.246866
  16 H :    0.210735
  17 H :    0.279856
  18 H :    0.227335
  19 H :    0.185455
  20 H :    0.342391
  21 H :    0.429316
  22 H :    0.520099
Sum of atomic charges:    0.0000000

LOEWDIN ATOMIC CHARGES
----------------------
   0 S :    0.341226
   1 C :    0.236471
   2 C :    0.283040
   3 C :    0.166836
   4 C :    0.163220
   5 C :    0.276987
   6 C :    0.219133
   7 C :    0.208356
   8 C :    0.208078
   9 H :   -0.228953
  10 H :   -0.257169
  11 O :    0.054438
  12 O :    0.034139
  13 H :   -0.196300
  14 H :   -0.190728
  15 H :   -0.145251
  16 H :   -0.148344
  17 H :   -0.140534
  18 H :   -0.147724
  19 H :   -0.183158
  20 H :   -0.188831
  21 H :   -0.182861
  22 H :   -0.182072

  Mayer bond orders larger than 0.100000
B(  0-S ,  1-C ) :   0.9750 B(  0-S ,  6-C ) :   0.9597 B(  0-S , 11-O ) :   1.0304
B(  0-S , 12-O ) :   0.7834 B(  1-C ,  2-C ) :   0.9865 B(  1-C , 11-O ) :   0.1609
B(  1-C , 12-O ) :   0.1186 B(  1-C , 13-H ) :   0.8654 B(  1-C , 14-H ) :   1.0158
B(  2-C ,  3-C ) :   0.9103 B(  2-C , 15-H ) :   0.9954 B(  2-C , 16-H ) :   1.0457
B(  3-C ,  4-C ) :   0.3477 B(  3-C ,  7-C ) :   1.0951 B(  3-C , 10-H ) :   0.7807
B(  4-C ,  5-C ) :   0.7645 B(  4-C ,  8-C ) :   1.0514 B(  4-C ,  9-H ) :   0.8347
B(  5-C ,  6-C ) :   0.9564 B(  5-C , 17-H ) :   0.9527 B(  5-C , 18-H ) :   1.0050
B(  6-C , 11-O ) :   0.1698 B(  6-C , 12-O ) :   0.1039 B(  6-C , 19-H ) :   1.0282
B(  6-C , 20-H ) :   0.8648 B(  7-C ,  8-C ) :   1.1256 B(  7-C , 21-H ) :   0.8942
B(  8-C , 22-H ) :   0.7300

MP2 TOTAL ENERGY:     -859.235746357 Eh
FINAL SINGLE POINT ENERGY      -859.235746357382

DIPOLE MOMENT
-------------
                                X             Y             Z
Electronic contribution:     -6.04462      -0.43046       2.45953
Nuclear contribution   :      7.32874       0.62861      -3.58650
                        -----------------------------------------
Total Dipole Moment    :      1.28412       0.19815      -1.12697
                        -----------------------------------------
Magnitude (a.u.)       :      1.71997
Magnitude (Debye)      :      4.37181

Rotational constants in cm-1:     0.054338     0.028347     0.021838
Rotational constants in MHz :  1629.012587   849.833553   654.672107

                             ****ORCA TERMINATED NORMALLY****
TOTAL RUN TIME: 0 days 0 hours 9 minutes 49 seconds 682 msec
