                         Program Version 4.2.1 -  RELEASE  -
|  1> %pal
|  2>  nprocs 32
|  3> end
|  4> !RI-MP2 aug-cc-pVTZ aug-cc-pVTZ/C TightSCF
|  5> %maxcore 4500
|  6> *xyzfile 1 1  10_17P.xyz
|  7>
|  8>
|  9>                          ****END OF INPUT****

CARTESIAN COORDINATES (ANGSTROEM)
---------------------------------
  C      2.028335   -0.925595   -0.289657
  N      0.609202   -1.193964   -0.017472
  N     -0.086177   -0.259494   -0.420257
  C     -1.497053   -0.224950   -0.174157
  C     -2.301183    0.645501   -0.902172
  C     -2.028683   -1.073541    0.793116
  C     -3.664776    0.654458   -0.659369
  H     -1.891719    1.303123   -1.655122
  C     -3.390625   -1.049074    1.024260
  H     -1.379185   -1.734038    1.350081
  C     -4.208693   -0.188587    0.299563
  H     -4.302490    1.322024   -1.223615
  H     -3.816722   -1.700702    1.775787
  H     -5.274926   -0.173807    0.486719
  C      2.612128   -0.422168    1.052584
  H      2.617304   -1.260033    1.752675
  H      3.658798   -0.180782    0.845666
  C      2.704163   -2.216765   -0.723599
  H      2.248030   -2.615051   -1.630891
  H      3.757101   -2.018866   -0.929941
  H      2.642704   -2.972465    0.059185
  C      1.980063    0.150156   -1.386556
  C      0.669597    0.865629   -1.109324
  C      0.747870    2.089129   -0.189413
  H      0.896136    2.959522   -0.832353
  H     -0.223678    2.231937    0.289831
  C      1.854134    2.051543    0.869532
  C      1.923108    0.775747    1.711905
  H      0.920298    0.499666    2.055979
  H      2.486111    0.993043    2.621562
  H      2.826998    2.229314    0.402112
  H      1.689827    2.904371    1.530612
  H      2.834081    0.821431   -1.349473
  H      1.960764   -0.323698   -2.368712
  H      0.119088    1.100318   -2.016261

 Total Charge           Charge          ....    1
 Multiplicity           Mult            ....    1
 Number of Electrons    NEL             ....  116
 Basis Dimension        Dim             .... 1173

ORBITAL ENERGIES
----------------

  NO   OCC          E(Eh)            E(eV)
   0   2.0000     -15.883039      -432.1995
   1   2.0000     -15.829599      -430.7453
   2   2.0000     -11.446972      -311.4879
   3   2.0000     -11.432733      -311.1005
   4   2.0000     -11.432694      -311.0994
   5   2.0000     -11.390138      -309.9414
   6   2.0000     -11.383888      -309.7714
   7   2.0000     -11.383674      -309.7655
   8   2.0000     -11.373878      -309.4989
   9   2.0000     -11.373569      -309.4905
  10   2.0000     -11.370833      -309.4161
  11   2.0000     -11.369877      -309.3901
  12   2.0000     -11.368511      -309.3529
  13   2.0000     -11.354918      -308.9830
  14   2.0000     -11.354697      -308.9770
  15   2.0000     -11.354235      -308.9644
  16   2.0000      -1.618190       -44.0332
  17   2.0000      -1.333665       -36.2909
  18   2.0000      -1.281007       -34.8580
  19   2.0000      -1.271635       -34.6030
  20   2.0000      -1.196774       -32.5659
  21   2.0000      -1.184060       -32.2199
  22   2.0000      -1.165166       -31.7058
  23   2.0000      -1.114294       -30.3215
  24   2.0000      -1.091057       -29.6892
  25   2.0000      -1.051254       -28.6061
  26   2.0000      -1.008899       -27.4535
  27   2.0000      -0.986212       -26.8362
  28   2.0000      -0.955292       -25.9948
  29   2.0000      -0.941987       -25.6328
  30   2.0000      -0.896669       -24.3996
  31   2.0000      -0.892317       -24.2812
  32   2.0000      -0.839282       -22.8380
  33   2.0000      -0.819994       -22.3132
  34   2.0000      -0.796309       -21.6687
  35   2.0000      -0.781532       -21.2666
  36   2.0000      -0.772056       -21.0087
  37   2.0000      -0.755675       -20.5630
  38   2.0000      -0.747859       -20.3503
  39   2.0000      -0.738392       -20.0927
  40   2.0000      -0.734786       -19.9945
  41   2.0000      -0.727086       -19.7850
  42   2.0000      -0.710397       -19.3309
  43   2.0000      -0.703779       -19.1508
  44   2.0000      -0.685899       -18.6643
  45   2.0000      -0.681109       -18.5339
  46   2.0000      -0.660417       -17.9709
  47   2.0000      -0.653688       -17.7877
  48   2.0000      -0.646209       -17.5842
  49   2.0000      -0.641309       -17.4509
  50   2.0000      -0.630590       -17.1592
  51   2.0000      -0.619685       -16.8625
  52   2.0000      -0.612348       -16.6628
  53   2.0000      -0.601591       -16.3701
  54   2.0000      -0.589785       -16.0489
  55   2.0000      -0.587360       -15.9829
  56   2.0000      -0.481663       -13.1067
  57   2.0000      -0.478582       -13.0229
  58   0.0000      -0.104036        -2.8310
  59   0.0000      -0.066162        -1.8004
  60   0.0000      -0.054181        -1.4743
  61   0.0000      -0.052509        -1.4288
  62   0.0000      -0.050709        -1.3799

MULLIKEN ATOMIC CHARGES
-----------------------
   0 C :    1.764165
   1 N :   -1.926081
   2 N :    1.899935
   3 C :    1.170563
   4 C :   -0.346151
   5 C :   -0.615389
   6 C :   -0.907104
   7 H :    0.532481
   8 C :   -0.981504
   9 H :    0.516989
  10 C :   -0.317271
  11 H :    0.393181
  12 H :    0.439941
  13 H :    0.525121
  14 C :   -0.556407
  15 H :    0.279586
  16 H :    0.267544
  17 C :   -1.431125
  18 H :    0.270370
  19 H :    0.277740
  20 H :    0.252303
  21 C :   -1.006267
  22 C :   -0.121230
  23 C :   -0.385390
  24 H :    0.281573
  25 H :    0.162669
  26 C :   -0.407172
  27 C :   -0.594361
  28 H :    0.196839
  29 H :    0.266791
  30 H :    0.080849
  31 H :    0.314744
  32 H :    0.213869
  33 H :    0.176746
  34 H :    0.311453
Sum of atomic charges:    1.0000000

LOEWDIN ATOMIC CHARGES
----------------------
   0 C :   -0.398402
   1 N :    0.503225
   2 N :    0.183273
   3 C :   -0.171468
   4 C :    0.242520
   5 C :    0.242556
   6 C :    0.241855
   7 H :   -0.179344
   8 C :    0.240304
   9 H :   -0.175618
  10 C :    0.243239
  11 H :   -0.164238
  12 H :   -0.164164
  13 H :   -0.160301
  14 C :    0.334258
  15 H :   -0.128760
  16 H :   -0.121109
  17 C :    0.629444
  18 H :   -0.148807
  19 H :   -0.136764
  20 H :   -0.146545
  21 C :    0.369933
  22 C :    0.028479
  23 C :    0.353497
  24 H :   -0.119943
  25 H :   -0.140398
  26 C :    0.327098
  27 C :    0.323552
  28 H :   -0.139974
  29 H :   -0.128579
  30 H :   -0.139657
  31 H :   -0.128215
  32 H :   -0.122567
  33 H :   -0.118689
  34 H :   -0.129691

  Mayer bond orders larger than 0.100000
B(  0-C ,  1-N ) :   0.7941 B(  0-C ,  2-N ) :  -0.1093 B(  0-C , 14-C ) :   0.6455
B(  0-C , 18-H ) :  -0.1581 B(  0-C , 19-H ) :  -0.1146 B(  0-C , 20-H ) :  -0.1839
B(  0-C , 21-C ) :   0.5662 B(  1-N ,  2-N ) :  -1.5643 B(  1-N ,  4-C ) :   0.1383
B(  1-N ,  5-C ) :   0.3392 B(  1-N ,  9-H ) :  -0.3552 B(  1-N , 14-C ) :   0.1178
B(  1-N , 21-C ) :   0.2981 B(  1-N , 22-C ) :  -0.2110 B(  2-N ,  3-C ) :   0.3208
B(  2-N ,  4-C ) :  -0.6579 B(  2-N ,  5-C ) :  -0.8324 B(  2-N ,  7-H ) :   0.1376
B(  2-N ,  9-H ) :   0.2836 B(  2-N , 14-C ) :   0.1020 B(  2-N , 21-C ) :   0.2031
B(  2-N , 22-C ) :   0.9893 B(  3-C ,  4-C ) :   0.6550 B(  3-C ,  5-C ) :   0.3459
B(  3-C ,  6-C ) :  -0.2804 B(  3-C ,  7-H ) :  -0.2399 B(  3-C ,  8-C ) :  -0.2022
B(  3-C ,  9-H ) :  -0.1703 B(  3-C , 10-C ) :  -0.1739 B(  4-C ,  5-C ) :  -0.1135
B(  4-C ,  6-C ) :   1.3385 B(  4-C ,  7-H ) :   0.7056 B(  4-C ,  9-H ) :   0.1159
B(  4-C , 10-C ) :   0.1498 B(  5-C ,  8-C ) :   1.3387 B(  5-C ,  9-H ) :   0.8301
B(  6-C ,  7-H ) :  -0.1229 B(  6-C , 10-C ) :   1.1507 B(  6-C , 11-H ) :   0.8871
B(  8-C ,  9-H ) :  -0.1157 B(  8-C , 10-C ) :   1.1564 B(  8-C , 12-H ) :   0.8221
B( 10-C , 13-H ) :   0.7010 B( 14-C , 15-H ) :   0.9897 B( 14-C , 16-H ) :   0.9907
B( 14-C , 27-C ) :   0.8042 B( 17-C , 18-H ) :   1.0783 B( 17-C , 19-H ) :   1.0802
B( 17-C , 20-H ) :   1.1624 B( 21-C , 22-C ) :   0.9529 B( 21-C , 32-H ) :   1.1800
B( 21-C , 33-H ) :   1.0196 B( 22-C , 23-C ) :   0.7815 B( 22-C , 34-H ) :   0.8657
B( 23-C , 24-H ) :   0.9492 B( 23-C , 25-H ) :   1.1288 B( 23-C , 26-C ) :   0.7834
B( 26-C , 27-C ) :   0.8873 B( 26-C , 30-H ) :   1.1616 B( 26-C , 31-H ) :   0.9087
B( 27-C , 28-H ) :   1.0707 B( 27-C , 29-H ) :   0.9639

MP2 TOTAL ENERGY:     -652.831835531 Eh
FINAL SINGLE POINT ENERGY      -652.831835530802

DIPOLE MOMENT
-------------
                                X             Y             Z
Electronic contribution:    -11.63497      -3.13713      -1.67346
Nuclear contribution   :     12.01293       3.44601       1.18508
                        -----------------------------------------
Total Dipole Moment    :      0.37796       0.30887      -0.48838
                        -----------------------------------------
Magnitude (a.u.)       :      0.69049
Magnitude (Debye)      :      1.75508

Rotational constants in cm-1:     0.033929     0.012481     0.011413
Rotational constants in MHz :  1017.180637   374.166110   342.152111

                             ****ORCA TERMINATED NORMALLY****
TOTAL RUN TIME: 0 days 0 hours 38 minutes 7 seconds 985 msec
