                         Program Version 4.2.1 -  RELEASE  -
|  1> %pal
|  2>  nprocs 32
|  3> end
|  4> !RI-MP2 aug-cc-pVTZ aug-cc-pVTZ/C TightSCF
|  5> %maxcore 4500
|  6> *xyzfile 0 2  01_22R.xyz
|  7>
|  8>
|  9>                          ****END OF INPUT****

CARTESIAN COORDINATES (ANGSTROEM)
---------------------------------
  C     -0.496463   -0.954416    0.059733
  C      0.745777   -1.436653   -0.616916
  C      2.009470   -0.677536   -0.151529
  H      0.647801   -1.334203   -1.700900
  H      0.893652   -2.503021   -0.409898
  C      1.932314    0.794558   -0.413261
  H      2.874148   -1.097539   -0.677542
  H      2.172223   -0.851898    0.915854
  S     -1.569833    0.074720   -0.842651
  C     -1.999061    1.383377    0.343564
  H     -2.666140    2.066865   -0.180453
  H     -1.101831    1.918116    0.653494
  H     -2.519333    0.982949    1.211942
  C     -0.689235   -1.179533    1.520718
  H     -1.743021   -1.320077    1.775099
  H     -0.318069   -0.343559    2.129809
  H     -0.145561   -2.072490    1.840931
  C      2.018108    1.736345    0.515421
  H      1.955806    2.788774    0.265601
  H      2.162808    1.486644    1.562000
  H      1.779379    1.087069   -1.449904

 Total Charge           Charge          ....    0
 Multiplicity           Mult            ....    2
 Number of Electrons    NEL             ....   71
 Basis Dimension        Dim             ....  671

ORBITAL ENERGIES
----------------
                 SPIN UP ORBITALS
  NO   OCC          E(Eh)            E(eV)
   0   1.0000     -91.945419     -2501.9620
   1   1.0000     -11.250949      -306.1539
   2   1.0000     -11.247891      -306.0707
   3   1.0000     -11.231664      -305.6291
   4   1.0000     -11.230094      -305.5864
   5   1.0000     -11.228409      -305.5405
   6   1.0000     -11.223577      -305.4091
   7   1.0000     -11.217613      -305.2468
   8   1.0000      -8.945619      -243.4227
   9   1.0000      -6.626842      -180.3255
  10   1.0000      -6.626026      -180.3033
  11   1.0000      -6.625096      -180.2780
  12   1.0000      -1.123781       -30.5796
  13   1.0000      -1.069313       -29.0975
  14   1.0000      -1.012089       -27.5403
  15   1.0000      -0.973075       -26.4787
  16   1.0000      -0.905873       -24.6501
  17   1.0000      -0.853627       -23.2284
  18   1.0000      -0.760037       -20.6817
  19   1.0000      -0.727125       -19.7861
  20   1.0000      -0.640742       -17.4355
  21   1.0000      -0.631215       -17.1762
  22   1.0000      -0.619991       -16.8708
  23   1.0000      -0.600286       -16.3346
  24   1.0000      -0.583017       -15.8647
  25   1.0000      -0.566495       -15.4151
  26   1.0000      -0.558280       -15.1916
  27   1.0000      -0.553685       -15.0665
  28   1.0000      -0.526714       -14.3326
  29   1.0000      -0.495683       -13.4882
  30   1.0000      -0.485777       -13.2187
  31   1.0000      -0.475210       -12.9311
  32   1.0000      -0.438865       -11.9421
  33   1.0000      -0.387245       -10.5375
  34   1.0000      -0.363499        -9.8913
  35   1.0000      -0.282920        -7.6986
  36   0.0000       0.028923         0.7870
  37   0.0000       0.032420         0.8822
  38   0.0000       0.035307         0.9608
  39   0.0000       0.039060         1.0629
  40   0.0000       0.048853         1.3293

                 SPIN DOWN ORBITALS
  NO   OCC          E(Eh)            E(eV)
   0   1.0000     -91.945578     -2501.9664
   1   1.0000     -11.246674      -306.0376
   2   1.0000     -11.231609      -305.6276
   3   1.0000     -11.231463      -305.6237
   4   1.0000     -11.227721      -305.5218
   5   1.0000     -11.226907      -305.4997
   6   1.0000     -11.225973      -305.4743
   7   1.0000     -11.217732      -305.2500
   8   1.0000      -8.945723      -243.4255
   9   1.0000      -6.628235      -180.3634
  10   1.0000      -6.626744      -180.3229
  11   1.0000      -6.623905      -180.2456
  12   1.0000      -1.100316       -29.9411
  13   1.0000      -1.057742       -28.7826
  14   1.0000      -1.006707       -27.3939
  15   1.0000      -0.968228       -26.3468
  16   1.0000      -0.895372       -24.3643
  17   1.0000      -0.852140       -23.1879
  18   1.0000      -0.757573       -20.6146
  19   1.0000      -0.696087       -18.9415
  20   1.0000      -0.635604       -17.2957
  21   1.0000      -0.624032       -16.9808
  22   1.0000      -0.604532       -16.4502
  23   1.0000      -0.587204       -15.9786
  24   1.0000      -0.573663       -15.6102
  25   1.0000      -0.559151       -15.2153
  26   1.0000      -0.553348       -15.0574
  27   1.0000      -0.545935       -14.8556
  28   1.0000      -0.520486       -14.1631
  29   1.0000      -0.490850       -13.3567
  30   1.0000      -0.480082       -13.0637
  31   1.0000      -0.468628       -12.7520
  32   1.0000      -0.425715       -11.5843
  33   1.0000      -0.364301        -9.9131
  34   1.0000      -0.342174        -9.3110
  35   0.0000       0.028767         0.7828
  36   0.0000       0.032482         0.8839
  37   0.0000       0.035352         0.9620
  38   0.0000       0.039005         1.0614
  39   0.0000       0.048706         1.3254

MULLIKEN ATOMIC CHARGES AND SPIN POPULATIONS
--------------------------------------------
   0 C :    0.473710    1.222430
   1 C :   -0.382767   -0.173802
   2 C :   -0.297613    0.073626
   3 H :    0.242593    0.001512
   4 H :    0.286372    0.029382
   5 C :    0.043677    0.004130
   6 H :    0.382994    0.003492
   7 H :    0.037581   -0.006932
   8 S :   -0.505648   -0.060997
   9 C :   -0.824782    0.035875
  10 H :    0.239591   -0.002321
  11 H :    0.368986    0.009949
  12 H :    0.257979   -0.000401
  13 C :   -0.908483   -0.216268
  14 H :    0.296166    0.024312
  15 H :    0.270009    0.053040
  16 H :    0.235823    0.016277
  17 C :   -1.030944   -0.013608
  18 H :    0.546629   -0.000325
  19 H :    0.153733    0.000206
  20 H :    0.114393    0.000421
Sum of atomic charges         :    0.0000000

LOEWDIN ATOMIC CHARGES AND SPIN POPULATIONS
-------------------------------------------
   0 C :   -0.488127    0.545079
   1 C :    0.173885    0.093489
   2 C :    0.240548    0.031482
   3 H :   -0.179468    0.001615
   4 H :   -0.155108    0.011002
   5 C :    0.158921    0.006396
   6 H :   -0.145673    0.006169
   7 H :   -0.160652    0.002092
   8 S :    1.219480    0.124198
   9 C :    0.236835    0.029268
  10 H :   -0.252607    0.003259
  11 H :   -0.245798    0.005787
  12 H :   -0.247224    0.001968
  13 C :    0.478804    0.103986
  14 H :   -0.185244    0.009204
  15 H :   -0.171486    0.022903
  16 H :   -0.175463    0.005182
  17 C :    0.514762   -0.002308
  18 H :   -0.223920   -0.000691
  19 H :   -0.216624   -0.000645
  20 H :   -0.175841    0.000565

  Mayer bond orders larger than 0.100000
B(  0-C ,  1-C ) :   0.8313 B(  0-C ,  2-C ) :   0.1223 B(  0-C ,  8-S ) :   0.6620
B(  0-C , 13-C ) :   0.6656 B(  1-C ,  2-C ) :   0.9706 B(  1-C ,  3-H ) :   1.0164
B(  1-C ,  4-H ) :   0.9497 B(  2-C ,  5-C ) :   0.7331 B(  2-C ,  6-H ) :   0.8756
B(  2-C ,  7-H ) :   1.0748 B(  5-C ,  6-H ) :  -0.1210 B(  5-C ,  7-H ) :   0.1235
B(  5-C , 17-C ) :   1.2514 B(  5-C , 20-H ) :   1.1292 B(  8-S ,  9-C ) :   0.9481
B(  8-S , 11-H ) :   0.1048 B(  9-C , 10-H ) :   1.0124 B(  9-C , 11-H ) :   0.8447
B(  9-C , 12-H ) :   0.9475 B( 13-C , 14-H ) :   0.9861 B( 13-C , 15-H ) :   0.9981
B( 13-C , 16-H ) :   0.9828 B( 17-C , 18-H ) :   0.5736 B( 17-C , 19-H ) :   1.2578

MP2 TOTAL ENERGY:     -671.597251259 Eh
FINAL SINGLE POINT ENERGY      -671.597251259005

DIPOLE MOMENT
-------------
                                X             Y             Z
Electronic contribution:     -3.95900      -0.79426      -5.59824
Nuclear contribution   :      4.16854       0.83089       6.15127
                        -----------------------------------------
Total Dipole Moment    :      0.20955       0.03663       0.55303
                        -----------------------------------------
Magnitude (a.u.)       :      0.59253
Magnitude (Debye)      :      1.50610

Rotational constants in cm-1:     0.068797     0.040852     0.034391
Rotational constants in MHz :  2062.480776  1224.717680  1031.023567

                             ****ORCA TERMINATED NORMALLY****
TOTAL RUN TIME: 0 days 0 hours 8 minutes 42 seconds 751 msec
