                         Program Version 4.2.1 -  RELEASE  -
|  1> %pal
|  2>  nprocs 32
|  3> end
|  4> !RI-MP2 aug-cc-pVTZ aug-cc-pVTZ/C TightSCF
|  5> %maxcore 4500
|  6> *xyzfile -1 1  08_14R2.xyz
|  7>
|  8>
|  9>                          ****END OF INPUT****

CARTESIAN COORDINATES (ANGSTROEM)
---------------------------------
  N     -0.166254    1.350843   -0.083598
  C      1.049103    0.638470   -0.064604
  C      1.023118   -0.755849   -0.238974
  N     -0.196349   -1.368153   -0.410572
  C     -1.296241   -0.766932    0.389699
  C     -1.360804    0.705881   -0.017400
  N     -2.459982    1.392904   -0.153264
  C     -3.663082    0.739825   -0.159148
  C     -2.573842   -1.484114   -0.053288
  N     -3.668844   -0.664371   -0.153605
  C      2.272092    1.280674    0.073197
  C      3.481008    0.590188    0.034424
  C      3.458946   -0.794515   -0.146494
  C      2.234719   -1.439129   -0.273179
  O     -4.735645    1.313653   -0.217133
  O     -2.657546   -2.687345   -0.204425
  O     -1.177586   -0.828032    1.697866
  C     -0.133858    2.801486   -0.135776
  H     -1.155080    3.148357   -0.256941
  H      0.476854    3.134336   -0.977942
  H      0.279991    3.209544    0.790809
  C      4.780547    1.333765    0.192689
  H      5.434956    1.203801   -0.675704
  H      5.342960    0.990298    1.067189
  H      4.602679    2.403533    0.315053
  C      4.737636   -1.587625   -0.189674
  H      5.307446   -1.484843    0.739202
  H      5.392085   -1.256238   -1.002268
  H      4.532087   -2.648595   -0.338113
  H      2.297884    2.352322    0.218374
  H      2.208409   -2.516867   -0.399599
  H     -4.575353   -1.098741   -0.254728
  H     -0.194757   -2.374432   -0.297357

 Total Charge           Charge          ....   -1
 Multiplicity           Mult            ....    1
 Number of Electrons    NEL             ....  144
 Basis Dimension        Dim             .... 1219

ORBITAL ENERGIES
----------------

  NO   OCC          E(Eh)            E(eV)
   0   2.0000     -20.404493      -555.2345
   1   2.0000     -20.394531      -554.9634
   2   2.0000     -20.302580      -552.4613
   3   2.0000     -15.497575      -421.7104
   4   2.0000     -15.473025      -421.0424
   5   2.0000     -15.436085      -420.0372
   6   2.0000     -15.413653      -419.4268
   7   2.0000     -11.252855      -306.2058
   8   2.0000     -11.224100      -305.4233
   9   2.0000     -11.216939      -305.2284
  10   2.0000     -11.184899      -304.3566
  11   2.0000     -11.166747      -303.8626
  12   2.0000     -11.163683      -303.7793
  13   2.0000     -11.155376      -303.5532
  14   2.0000     -11.140639      -303.1522
  15   2.0000     -11.140384      -303.1453
  16   2.0000     -11.137484      -303.0663
  17   2.0000     -11.131632      -302.9071
  18   2.0000     -11.130411      -302.8739
  19   2.0000     -11.120735      -302.6106
  20   2.0000      -1.282313       -34.8935
  21   2.0000      -1.257829       -34.2273
  22   2.0000      -1.215365       -33.0718
  23   2.0000      -1.149632       -31.2831
  24   2.0000      -1.126958       -30.6661
  25   2.0000      -1.090907       -29.6851
  26   2.0000      -1.065152       -28.9843
  27   2.0000      -1.040602       -28.3162
  28   2.0000      -0.942942       -25.6587
  29   2.0000      -0.931883       -25.3578
  30   2.0000      -0.875676       -23.8284
  31   2.0000      -0.857624       -23.3371
  32   2.0000      -0.834920       -22.7193
  33   2.0000      -0.786088       -21.3906
  34   2.0000      -0.757284       -20.6067
  35   2.0000      -0.723442       -19.6859
  36   2.0000      -0.711802       -19.3691
  37   2.0000      -0.668674       -18.1955
  38   2.0000      -0.634674       -17.2704
  39   2.0000      -0.607097       -16.5199
  40   2.0000      -0.584304       -15.8997
  41   2.0000      -0.568657       -15.4739
  42   2.0000      -0.543574       -14.7914
  43   2.0000      -0.537039       -14.6136
  44   2.0000      -0.533290       -14.5115
  45   2.0000      -0.510917       -13.9028
  46   2.0000      -0.507866       -13.8197
  47   2.0000      -0.506097       -13.7716
  48   2.0000      -0.504970       -13.7409
  49   2.0000      -0.488717       -13.2987
  50   2.0000      -0.480829       -13.0840
  51   2.0000      -0.471407       -12.8276
  52   2.0000      -0.467987       -12.7346
  53   2.0000      -0.457907       -12.4603
  54   2.0000      -0.449592       -12.2340
  55   2.0000      -0.443526       -12.0690
  56   2.0000      -0.435490       -11.8503
  57   2.0000      -0.420195       -11.4341
  58   2.0000      -0.404549       -11.0083
  59   2.0000      -0.397535       -10.8175
  60   2.0000      -0.388072       -10.5600
  61   2.0000      -0.367837       -10.0094
  62   2.0000      -0.347611        -9.4590
  63   2.0000      -0.324640        -8.8339
  64   2.0000      -0.321289        -8.7427
  65   2.0000      -0.297091        -8.0843
  66   2.0000      -0.288758        -7.8575
  67   2.0000      -0.281440        -7.6584
  68   2.0000      -0.226681        -6.1683
  69   2.0000      -0.212747        -5.7891
  70   2.0000      -0.210978        -5.7410
  71   2.0000      -0.162869        -4.4319
  72   0.0000       0.082356         2.2410
  73   0.0000       0.088611         2.4112
  74   0.0000       0.103015         2.8032
  75   0.0000       0.104845         2.8530
  76   0.0000       0.112280         3.0553

MULLIKEN ATOMIC CHARGES
-----------------------
   0 N :   -0.229383
   1 C :    1.277946
   2 C :    1.996038
   3 N :   -1.004675
   4 C :    2.164312
   5 C :    0.213435
   6 N :   -0.433104
   7 C :    0.047847
   8 C :    0.123296
   9 N :    0.181188
  10 C :   -0.955084
  11 C :    0.429201
  12 C :    0.564854
  13 C :   -0.859979
  14 O :   -0.882156
  15 O :   -0.986813
  16 O :   -1.401815
  17 C :   -1.250833
  18 H :    0.359438
  19 H :    0.299909
  20 H :    0.336576
  21 C :   -1.024218
  22 H :    0.218827
  23 H :    0.234875
  24 H :    0.235842
  25 C :   -1.103729
  26 H :    0.239182
  27 H :    0.240428
  28 H :    0.229086
  29 H :   -0.315171
  30 H :   -0.052150
  31 H :    0.132546
  32 H :   -0.025716
Sum of atomic charges:   -1.0000000

LOEWDIN ATOMIC CHARGES
----------------------
   0 N :    0.284965
   1 C :   -0.157326
   2 C :   -0.209939
   3 N :    0.568267
   4 C :   -0.945164
   5 C :   -0.369970
   6 N :    0.387136
   7 C :   -0.887930
   8 C :   -0.674422
   9 N :    0.530611
  10 C :    0.237729
  11 C :   -0.107590
  12 C :   -0.114591
  13 C :    0.251940
  14 O :    0.388755
  15 O :    0.435373
  16 O :    0.317954
  17 C :    0.496404
  18 H :   -0.222266
  19 H :   -0.157298
  20 H :   -0.150776
  21 C :    0.559620
  22 H :   -0.172173
  23 H :   -0.170324
  24 H :   -0.182370
  25 C :    0.564773
  26 H :   -0.169212
  27 H :   -0.170953
  28 H :   -0.181712
  29 H :   -0.204678
  30 H :   -0.176780
  31 H :   -0.288955
  32 H :   -0.309097

  Mayer bond orders larger than 0.100000
B(  0-N ,  2-C ) :  -0.3524 B(  0-N ,  5-C ) :   1.1652 B(  0-N ,  6-N ) :  -0.1737
B(  0-N , 10-C ) :  -0.6544 B(  0-N , 11-C ) :   0.1444 B(  0-N , 17-C ) :   1.3344
B(  0-N , 29-H ) :  -0.1159 B(  1-C ,  2-C ) :   0.6505 B(  1-C ,  3-N ) :   0.4861
B(  1-C ,  5-C ) :  -0.9501 B(  1-C ,  6-N ) :   0.2434 B(  1-C , 12-C ) :  -0.1475
B(  1-C , 13-C ) :   0.1101 B(  1-C , 17-C ) :  -0.3587 B(  1-C , 21-C ) :  -0.1389
B(  1-C , 25-C ) :   0.1271 B(  1-C , 26-H ) :   0.1096 B(  1-C , 27-H ) :   0.1007
B(  1-C , 29-H ) :  -0.4660 B(  1-C , 32-H ) :   0.1014 B(  2-C ,  3-N ) :  -0.1515
B(  2-C ,  4-C ) :   0.1573 B(  2-C ,  5-C ) :  -0.1482 B(  2-C , 10-C ) :  -0.3271
B(  2-C , 12-C ) :   0.5530 B(  2-C , 13-C ) :  -0.2352 B(  2-C , 25-C ) :  -0.1698
B(  2-C , 30-H ) :  -0.2777 B(  2-C , 32-H ) :  -0.1304 B(  3-N ,  4-C ) :   0.8905
B(  3-N ,  8-C ) :   0.2115 B(  3-N , 13-C ) :  -0.3557 B(  3-N , 16-O ) :   0.2798
B(  3-N , 32-H ) :   1.1379 B(  4-C ,  5-C ) :   0.6131 B(  4-C ,  6-N ) :  -0.1445
B(  4-C ,  8-C ) :  -0.2571 B(  5-C ,  7-C ) :  -0.5699 B(  5-C ,  8-C ) :   0.2181
B(  5-C , 10-C ) :   0.1776 B(  5-C , 12-C ) :   0.1244 B(  5-C , 13-C ) :   0.1407
B(  5-C , 16-O ) :   0.2900 B(  6-N ,  7-C ) :   1.2106 B(  6-N , 14-O ) :  -0.3066
B(  6-N , 17-C ) :  -0.1086 B(  6-N , 18-H ) :   0.1400 B(  7-C ,  8-C ) :  -0.2448
B(  7-C ,  9-N ) :   0.9895 B(  7-C , 14-O ) :   1.5345 B(  8-C ,  9-N ) :   0.8477
B(  8-C , 15-O ) :   1.1893 B(  8-C , 16-O ) :   0.1973 B(  9-N , 14-O ) :  -0.1664
B(  9-N , 15-O ) :  -0.2051 B(  9-N , 31-H ) :   1.0562 B( 10-C , 11-C ) :   1.0065
B( 10-C , 12-C ) :  -0.1389 B( 10-C , 13-C ) :  -0.1297 B( 10-C , 17-C ) :  -0.1833
B( 10-C , 21-C ) :  -0.2165 B( 10-C , 25-C ) :   0.2365 B( 10-C , 29-H ) :   2.1809
B( 11-C , 12-C ) :   0.8855 B( 11-C , 22-H ) :  -0.1804 B( 11-C , 23-H ) :  -0.1831
B( 11-C , 25-C ) :   0.6194 B( 11-C , 28-H ) :   0.1800 B( 11-C , 29-H ) :  -0.2721
B( 11-C , 30-H ) :   0.1027 B( 12-C , 13-C ) :   0.7816 B( 12-C , 21-C ) :   0.5539
B( 12-C , 22-H ) :   0.1040 B( 12-C , 24-H ) :   0.1420 B( 12-C , 25-C ) :   0.1432
B( 12-C , 26-H ) :  -0.2075 B( 12-C , 27-H ) :  -0.2151 B( 12-C , 30-H ) :  -0.1010
B( 13-C , 25-C ) :  -0.5043 B( 13-C , 26-H ) :  -0.1383 B( 13-C , 27-H ) :  -0.1251
B( 13-C , 28-H ) :  -0.1442 B( 13-C , 30-H ) :   1.5771 B( 17-C , 18-H ) :   0.8555
B( 17-C , 19-H ) :   0.9718 B( 17-C , 20-H ) :   0.9763 B( 21-C , 22-H ) :   1.0854
B( 21-C , 23-H ) :   1.0803 B( 21-C , 24-H ) :   1.0273 B( 25-C , 26-H ) :   1.0785
B( 25-C , 27-H ) :   1.0790 B( 25-C , 28-H ) :   1.0425

MP2 TOTAL ENERGY:     -946.297368964 Eh
FINAL SINGLE POINT ENERGY      -946.297368964030

DIPOLE MOMENT
-------------
                                X             Y             Z
Electronic contribution:    -25.31191      -4.17878      -0.30608
Nuclear contribution   :     29.26399       4.94526      -1.03841
                        -----------------------------------------
Total Dipole Moment    :      3.95208       0.76647      -1.34448
                        -----------------------------------------
Magnitude (a.u.)       :      4.24429
Magnitude (Debye)      :     10.78814

Rotational constants in cm-1:     0.026807     0.007387     0.006046
Rotational constants in MHz :   803.653860   221.452322   181.243590

                             ****ORCA TERMINATED NORMALLY****
TOTAL RUN TIME: 0 days 0 hours 39 minutes 55 seconds 677 msec
