                         Program Version 4.2.1 -  RELEASE  -
|  1> %pal
|  2>  nprocs 32
|  3> end
|  4> !RI-MP2 aug-cc-pVTZ aug-cc-pVTZ/C TightSCF
|  5> %maxcore 4500
|  6> *xyzfile 0 1  10_4P.xyz
|  7>
|  8>
|  9>                          ****END OF INPUT****

CARTESIAN COORDINATES (ANGSTROEM)
---------------------------------
  C     -2.491989    0.467758   -1.065385
  C     -1.379513    0.375489   -0.237404
  C     -1.527875   -0.135998    1.048903
  C     -2.772712   -0.552998    1.493839
  C     -3.878811   -0.467308    0.659135
  C     -3.736588    0.043618   -0.622712
  C     -0.034792    0.813674   -0.750969
  N      0.767846    1.468183    0.289137
  O      2.069226    1.554927   -0.329726
  C      0.367094    2.824676    0.591713
  C      2.283047    0.234706   -0.740846
  C      0.935420   -0.302797   -1.231067
  H      3.097748    0.229229   -1.462930
  C      0.781820   -1.630298   -0.525316
  C      2.622724   -0.681295    0.442102
  H      0.355150    3.455714   -0.306586
  H     -0.631026    2.788282    1.026848
  H      1.058459    3.241132    1.321786
  H     -0.667120   -0.200789    1.702850
  H     -2.878114   -0.950599    2.495751
  H     -4.849623   -0.797572    1.007912
  H     -4.595558    0.116306   -1.278478
  H     -2.384664    0.873720   -2.065325
  O      3.488305   -0.563736    1.238136
  O      1.747074   -1.746733    0.456635
  O      0.000184   -2.495098   -0.731940
  H      0.848566   -0.460857   -2.303119
  H     -0.174014    1.497909   -1.599469

 Total Charge           Charge          ....    0
 Multiplicity           Mult            ....    1
 Number of Electrons    NEL             ....  122
 Basis Dimension        Dim             .... 1035

ORBITAL ENERGIES
----------------

  NO   OCC          E(Eh)            E(eV)
   0   2.0000     -20.646014      -561.8066
   1   2.0000     -20.622869      -561.1768
   2   2.0000     -20.575234      -559.8806
   3   2.0000     -20.575212      -559.8800
   4   2.0000     -15.640511      -425.5999
   5   2.0000     -11.408325      -310.4363
   6   2.0000     -11.404960      -310.3447
   7   2.0000     -11.335943      -308.4667
   8   2.0000     -11.307359      -307.6889
   9   2.0000     -11.287607      -307.1514
  10   2.0000     -11.266433      -306.5752
  11   2.0000     -11.257700      -306.3376
  12   2.0000     -11.248813      -306.0958
  13   2.0000     -11.246140      -306.0230
  14   2.0000     -11.245251      -305.9988
  15   2.0000     -11.244349      -305.9743
  16   2.0000     -11.243546      -305.9524
  17   2.0000      -1.517890       -41.3039
  18   2.0000      -1.466371       -39.9020
  19   2.0000      -1.437502       -39.1164
  20   2.0000      -1.391234       -37.8574
  21   2.0000      -1.207640       -32.8616
  22   2.0000      -1.166120       -31.7317
  23   2.0000      -1.130923       -30.7740
  24   2.0000      -1.042683       -28.3728
  25   2.0000      -1.030268       -28.0350
  26   2.0000      -0.980723       -26.6868
  27   2.0000      -0.944375       -25.6977
  28   2.0000      -0.885599       -24.0984
  29   2.0000      -0.869028       -23.6475
  30   2.0000      -0.843016       -22.9396
  31   2.0000      -0.831949       -22.6385
  32   2.0000      -0.777109       -21.1462
  33   2.0000      -0.744015       -20.2457
  34   2.0000      -0.723923       -19.6989
  35   2.0000      -0.711047       -19.3486
  36   2.0000      -0.708176       -19.2705
  37   2.0000      -0.683486       -18.5986
  38   2.0000      -0.669155       -18.2086
  39   2.0000      -0.667097       -18.1526
  40   2.0000      -0.649298       -17.6683
  41   2.0000      -0.639272       -17.3955
  42   2.0000      -0.624592       -16.9960
  43   2.0000      -0.618169       -16.8212
  44   2.0000      -0.600577       -16.3425
  45   2.0000      -0.586617       -15.9627
  46   2.0000      -0.581033       -15.8107
  47   2.0000      -0.572882       -15.5889
  48   2.0000      -0.563328       -15.3289
  49   2.0000      -0.558857       -15.2073
  50   2.0000      -0.549298       -14.9472
  51   2.0000      -0.529175       -14.3996
  52   2.0000      -0.506448       -13.7812
  53   2.0000      -0.504160       -13.7189
  54   2.0000      -0.502165       -13.6646
  55   2.0000      -0.490064       -13.3353
  56   2.0000      -0.473154       -12.8752
  57   2.0000      -0.454638       -12.3713
  58   2.0000      -0.405026       -11.0213
  59   2.0000      -0.350352        -9.5336
  60   2.0000      -0.346893        -9.4394
  61   0.0000       0.018116         0.4930
  62   0.0000       0.025302         0.6885
  63   0.0000       0.031983         0.8703
  64   0.0000       0.032851         0.8939
  65   0.0000       0.041299         1.1238

MULLIKEN ATOMIC CHARGES
-----------------------
   0 C :   -1.488467
   1 C :    2.056187
   2 C :   -0.347852
   3 C :   -0.985122
   4 C :   -0.085886
   5 C :   -0.551840
   6 C :    0.272140
   7 N :   -0.269531
   8 O :   -0.870276
   9 C :   -1.088913
  10 C :    0.221730
  11 C :   -0.089447
  12 H :    0.470117
  13 C :    0.934758
  14 C :    0.690957
  15 H :    0.356269
  16 H :    0.439475
  17 H :    0.350801
  18 H :    0.039731
  19 H :    0.407172
  20 H :    0.605867
  21 H :    0.456221
  22 H :   -0.097873
  23 O :   -0.887311
  24 O :   -0.270000
  25 O :   -1.008225
  26 H :    0.322108
  27 H :    0.417212
Sum of atomic charges:    0.0000000

LOEWDIN ATOMIC CHARGES
----------------------
   0 C :    0.225738
   1 C :   -0.119042
   2 C :    0.209604
   3 C :    0.216849
   4 C :    0.205563
   5 C :    0.209631
   6 C :   -0.129367
   7 N :    0.085224
   8 O :    0.527455
   9 C :    0.469340
  10 C :   -0.258449
  11 C :    0.041557
  12 H :   -0.128646
  13 C :   -0.763937
  14 C :   -0.746869
  15 H :   -0.153772
  16 H :   -0.164449
  17 H :   -0.161409
  18 H :   -0.171710
  19 H :   -0.176225
  20 H :   -0.179476
  21 H :   -0.179227
  22 H :   -0.169718
  23 O :    0.472429
  24 O :    0.596270
  25 O :    0.494646
  26 H :   -0.120091
  27 H :   -0.131918

  Mayer bond orders larger than 0.100000
B(  0-C ,  1-C ) :  -0.2515 B(  0-C ,  2-C ) :  -0.4822 B(  0-C ,  3-C ) :   0.1902
B(  0-C ,  4-C ) :  -0.1114 B(  0-C ,  5-C ) :   1.3358 B(  0-C ,  6-C ) :   0.2571
B(  0-C , 18-H ) :   0.2915 B(  0-C , 20-H ) :   0.1765 B(  0-C , 21-H ) :  -0.1665
B(  0-C , 22-H ) :   2.0128 B(  1-C ,  2-C ) :   0.5302 B(  1-C ,  3-C ) :  -0.2065
B(  1-C ,  6-C ) :   0.7719 B(  1-C , 11-C ) :   0.1245 B(  1-C , 18-H ) :  -0.3270
B(  1-C , 22-H ) :  -0.3989 B(  1-C , 27-H ) :  -0.2584 B(  2-C ,  3-C ) :   1.3987
B(  2-C ,  6-C ) :   0.1441 B(  2-C ,  7-N ) :  -0.1152 B(  2-C , 18-H ) :   1.6395
B(  3-C ,  4-C ) :   1.1987 B(  3-C ,  6-C ) :   0.1392 B(  3-C , 18-H ) :  -0.1195
B(  3-C , 19-H ) :   0.9242 B(  3-C , 20-H ) :  -0.2201 B(  4-C ,  5-C ) :   1.1044
B(  4-C , 20-H ) :   0.6008 B(  5-C , 18-H ) :  -0.1296 B(  5-C , 20-H ) :  -0.1759
B(  5-C , 21-H ) :   0.8423 B(  5-C , 22-H ) :  -0.1553 B(  6-C ,  7-N ) :   1.0270
B(  6-C , 11-C ) :   0.8343 B(  6-C , 13-C ) :   0.2263 B(  6-C , 22-H ) :  -0.1423
B(  6-C , 27-H ) :   1.1816 B(  7-N ,  8-O ) :   0.6001 B(  7-N ,  9-C ) :   0.8327
B(  7-N , 11-C ) :   0.1801 B(  7-N , 18-H ) :  -0.1515 B(  7-N , 27-H ) :  -0.2557
B(  8-O , 10-C ) :   0.7807 B(  8-O , 27-H ) :  -0.1014 B(  9-C , 15-H ) :   0.9044
B(  9-C , 16-H ) :   0.8395 B(  9-C , 17-H ) :   0.9550 B( 10-C , 11-C ) :   1.1364
B( 10-C , 12-H ) :   0.7749 B( 10-C , 13-C ) :   0.1155 B( 10-C , 14-C ) :   0.7681
B( 11-C , 13-C ) :   0.6820 B( 11-C , 25-O ) :   0.1175 B( 11-C , 26-H ) :   0.8659
B( 13-C , 24-O ) :   0.6577 B( 13-C , 25-O ) :   0.9910 B( 13-C , 26-H ) :  -0.1065
B( 14-C , 23-O ) :   1.1587 B( 14-C , 24-O ) :   0.9188 B( 18-H , 22-H ) :   0.2087
B( 24-O , 25-O ) :  -0.1060

MP2 TOTAL ENERGY:     -818.052958594 Eh
FINAL SINGLE POINT ENERGY      -818.052958594010

DIPOLE MOMENT
-------------
                                X             Y             Z
Electronic contribution:      9.47266      -8.30053       0.17727
Nuclear contribution   :    -10.51251       9.57853      -1.42362
                        -----------------------------------------
Total Dipole Moment    :     -1.03985       1.27799      -1.24635
                        -----------------------------------------
Magnitude (a.u.)       :      2.06590
Magnitude (Debye)      :      5.25110

Rotational constants in cm-1:     0.028803     0.013002     0.010992
Rotational constants in MHz :   863.490409   389.789062   329.524612

                             ****ORCA TERMINATED NORMALLY****
TOTAL RUN TIME: 0 days 0 hours 25 minutes 52 seconds 88 msec
