                         Program Version 4.2.1 -  RELEASE  -
|  1> %pal
|  2>  nprocs 32
|  3> end
|  4> !RI-MP2 aug-cc-pVTZ aug-cc-pVTZ/C TightSCF
|  5> %maxcore 4500
|  6> *xyzfile 0 1  09_21R1.xyz
|  7>
|  8>
|  9>                          ****END OF INPUT****

CARTESIAN COORDINATES (ANGSTROEM)
---------------------------------
  C     -3.551814   -0.563157    0.028392
  C     -2.247905   -0.738748    0.199358
  C     -1.295544    0.387288   -0.024427
  O     -1.702147    1.515887   -0.209156
  C      0.173293    0.108144   -0.002026
  C      0.702478   -1.176693   -0.110663
  C      2.076591   -1.370736   -0.111441
  C      2.931188   -0.284663    0.008454
  C      2.410935    1.000142    0.117736
  C      1.041283    1.195046    0.105142
  H      0.614879    2.187259    0.176548
  H      3.077274    1.849126    0.209726
  H      4.003729   -0.437863    0.014589
  H      2.479369   -2.371651   -0.206236
  H      0.051268   -2.034010   -0.216566
  H     -1.859065   -1.696427    0.519839
  H     -3.933449    0.401437   -0.285852
  H     -4.259864   -1.364699    0.198044

 Total Charge           Charge          ....    0
 Multiplicity           Mult            ....    1
 Number of Electrons    NEL             ....   70
 Basis Dimension        Dim             ....  644

ORBITAL ENERGIES
----------------

  NO   OCC          E(Eh)            E(eV)
   0   2.0000     -20.539631      -558.9118
   1   2.0000     -11.334999      -308.4410
   2   2.0000     -11.253495      -306.2232
   3   2.0000     -11.252911      -306.2073
   4   2.0000     -11.250599      -306.1444
   5   2.0000     -11.248206      -306.0792
   6   2.0000     -11.244756      -305.9854
   7   2.0000     -11.244420      -305.9762
   8   2.0000     -11.242277      -305.9179
   9   2.0000     -11.242178      -305.9152
  10   2.0000      -1.386709       -37.7343
  11   2.0000      -1.169974       -31.8366
  12   2.0000      -1.075984       -29.2790
  13   2.0000      -1.040035       -28.3008
  14   2.0000      -1.029546       -28.0154
  15   2.0000      -0.899912       -24.4879
  16   2.0000      -0.845507       -23.0074
  17   2.0000      -0.819021       -22.2867
  18   2.0000      -0.745192       -20.2777
  19   2.0000      -0.721599       -19.6357
  20   2.0000      -0.676027       -18.3956
  21   2.0000      -0.651947       -17.7404
  22   2.0000      -0.633803       -17.2467
  23   2.0000      -0.618453       -16.8290
  24   2.0000      -0.602853       -16.4045
  25   2.0000      -0.592082       -16.1114
  26   2.0000      -0.557163       -15.1612
  27   2.0000      -0.541970       -14.7478
  28   2.0000      -0.523880       -14.2555
  29   2.0000      -0.504301       -13.7227
  30   2.0000      -0.502669       -13.6783
  31   2.0000      -0.422669       -11.5014
  32   2.0000      -0.388850       -10.5812
  33   2.0000      -0.351413        -9.5624
  34   2.0000      -0.347412        -9.4536
  35   0.0000       0.025074         0.6823
  36   0.0000       0.028758         0.7826
  37   0.0000       0.035067         0.9542
  38   0.0000       0.043348         1.1796
  39   0.0000       0.046667         1.2699

MULLIKEN ATOMIC CHARGES
-----------------------
   0 C :   -1.217190
   1 C :   -0.002774
   2 C :    1.100575
   3 O :   -1.034398
   4 C :    1.836641
   5 C :   -0.719376
   6 C :   -0.908960
   7 C :   -0.106358
   8 C :   -0.637484
   9 C :   -1.033986
  10 H :    0.038414
  11 H :    0.556615
  12 H :    0.448552
  13 H :    0.453386
  14 H :    0.128317
  15 H :    0.276625
  16 H :    0.305133
  17 H :    0.516269
Sum of atomic charges:   -0.0000000

LOEWDIN ATOMIC CHARGES
----------------------
   0 C :    0.544913
   1 C :    0.183324
   2 C :   -0.552234
   3 O :    0.478478
   4 C :   -0.120922
   5 C :    0.206503
   6 C :    0.208017
   7 C :    0.203274
   8 C :    0.210776
   9 C :    0.209138
  10 H :   -0.185675
  11 H :   -0.180856
  12 H :   -0.177714
  13 H :   -0.181894
  14 H :   -0.198010
  15 H :   -0.226700
  16 H :   -0.213998
  17 H :   -0.206421

  Mayer bond orders larger than 0.100000
B(  0-C ,  1-C ) :   1.2845 B(  0-C ,  2-C ) :  -0.1217 B(  0-C , 16-H ) :   1.0163
B(  0-C , 17-H ) :   0.6748 B(  1-C ,  2-C ) :   0.5581 B(  1-C ,  3-O ) :  -0.1405
B(  1-C , 14-H ) :  -0.1119 B(  1-C , 15-H ) :   1.1194 B(  2-C ,  3-O ) :   0.8816
B(  2-C ,  4-C ) :   0.5875 B(  2-C ,  5-C ) :   0.2538 B(  2-C ,  7-C ) :   0.1540
B(  2-C ,  9-C ) :   0.1346 B(  2-C , 10-H ) :  -0.1719 B(  2-C , 11-H ) :   0.1368
B(  2-C , 14-H ) :  -0.1505 B(  3-O , 10-H ) :   0.2285 B(  4-C ,  5-C ) :   0.2993
B(  4-C ,  6-C ) :  -0.1039 B(  4-C ,  9-C ) :   0.1521 B(  4-C , 10-H ) :  -0.2915
B(  4-C , 14-H ) :  -0.2446 B(  5-C ,  6-C ) :   1.2122 B(  5-C ,  7-C ) :  -0.2016
B(  5-C ,  9-C ) :  -0.3133 B(  5-C , 10-H ) :   0.1700 B(  5-C , 14-H ) :   1.6298
B(  6-C ,  7-C ) :   1.2092 B(  6-C ,  8-C ) :   0.2005 B(  6-C ,  9-C ) :   0.1908
B(  6-C , 12-H ) :  -0.1942 B(  6-C , 13-H ) :   0.7882 B(  6-C , 14-H ) :  -0.1047
B(  7-C ,  8-C ) :   1.0761 B(  7-C ,  9-C ) :  -0.1767 B(  7-C , 12-H ) :   0.8291
B(  8-C ,  9-C ) :   1.2819 B(  8-C , 11-H ) :   0.6088 B(  8-C , 12-H ) :  -0.1737
B(  9-C , 10-H ) :   1.5151 B(  9-C , 11-H ) :  -0.2238 B(  9-C , 12-H ) :   0.2311
B(  9-C , 14-H ) :   0.1791

MP2 TOTAL ENERGY:     -422.128650809 Eh
FINAL SINGLE POINT ENERGY      -422.128650809167

DIPOLE MOMENT
-------------
                                X             Y             Z
Electronic contribution:      0.29766       2.33702      -0.24334
Nuclear contribution   :      0.14653      -3.42478       0.40465
                        -----------------------------------------
Total Dipole Moment    :      0.44419      -1.08776       0.16131
                        -----------------------------------------
Magnitude (a.u.)       :      1.18598
Magnitude (Debye)      :      3.01451

Rotational constants in cm-1:     0.117216     0.028335     0.022965
Rotational constants in MHz :  3514.046432   849.453510   688.465036

                             ****ORCA TERMINATED NORMALLY****
TOTAL RUN TIME: 0 days 0 hours 4 minutes 33 seconds 487 msec
