                         Program Version 4.2.1 -  RELEASE  -
|  1> %pal
|  2>  nprocs 32
|  3> end
|  4> !RI-MP2 aug-cc-pVTZ aug-cc-pVTZ/C TightSCF
|  5> %maxcore 4500
|  6> *xyzfile 1 1  10_33P.xyz
|  7>
|  8>
|  9>                          ****END OF INPUT****

CARTESIAN COORDINATES (ANGSTROEM)
---------------------------------
  C      2.040222   -1.612672    1.191093
  C      1.164935   -1.935649   -0.021738
  C      2.683925   -0.551447   -0.866440
  C      3.124520   -0.670380    0.600340
  H      1.495437   -1.178896    2.026726
  H      2.466358   -2.547559    1.554549
  H      3.178884    0.287593    1.108004
  H      4.117255   -1.118224    0.654892
  C      2.191231   -1.973738   -1.157199
  H      1.762243   -2.091142   -2.151527
  H      2.949000   -2.736442   -0.986940
  H      0.466098   -2.761877    0.084918
  H      3.421096   -0.147863   -1.554285
  N      1.404296    0.165341   -1.047916
  N      0.396108   -0.690315   -0.439887
  C     -0.416632    0.097416    0.597096
  C     -1.874847   -0.000395    0.241729
  C     -2.370633    0.583086   -0.925148
  C     -2.741357   -0.697093    1.076524
  C     -3.712451    0.464116   -1.249576
  H     -1.716631    1.146463   -1.582890
  C     -4.087951   -0.807391    0.755935
  H     -2.366791   -1.149748    1.988018
  C     -4.572835   -0.230225   -0.407608
  H     -4.090611    0.921131   -2.155262
  H     -4.756515   -1.345039    1.416214
  H     -5.622313   -0.316625   -0.659121
  C      1.096249    1.556341   -0.672522
  H      0.462058    1.936097   -1.478417
  C      0.211723    1.508836    0.601731
  H     -0.593676    2.230783    0.466057
  C      2.325415    2.445512   -0.632776
  H      2.852983    2.406616   -1.586547
  H      2.015036    3.479130   -0.476646
  H      3.021580    2.181703    0.161168
  C      0.889169    1.832858    1.929597
  H      1.301529    2.841645    1.921220
  H      0.155820    1.790502    2.737155
  H      1.695038    1.143332    2.180328
  H     -0.254622   -0.392402    1.552416
  H     -0.266176   -0.959419   -1.171649

 Total Charge           Charge          ....    1
 Multiplicity           Mult            ....    1
 Number of Electrons    NEL             ....  132
 Basis Dimension        Dim             .... 1357

ORBITAL ENERGIES
----------------

  NO   OCC          E(Eh)            E(eV)
   0   2.0000     -15.843593      -431.1261
   1   2.0000     -15.740905      -428.3318
   2   2.0000     -11.437481      -311.2297
   3   2.0000     -11.432372      -311.0907
   4   2.0000     -11.409683      -310.4732
   5   2.0000     -11.404776      -310.3397
   6   2.0000     -11.375600      -309.5458
   7   2.0000     -11.374026      -309.5030
   8   2.0000     -11.373049      -309.4764
   9   2.0000     -11.371348      -309.4301
  10   2.0000     -11.360055      -309.1228
  11   2.0000     -11.359415      -309.1054
  12   2.0000     -11.358094      -309.0694
  13   2.0000     -11.351568      -308.8919
  14   2.0000     -11.349615      -308.8387
  15   2.0000     -11.347820      -308.7899
  16   2.0000     -11.344581      -308.7017
  17   2.0000     -11.343252      -308.6656
  18   2.0000      -1.529638       -41.6236
  19   2.0000      -1.314093       -35.7583
  20   2.0000      -1.294163       -35.2160
  21   2.0000      -1.275246       -34.7012
  22   2.0000      -1.224249       -33.3135
  23   2.0000      -1.160671       -31.5835
  24   2.0000      -1.139297       -31.0019
  25   2.0000      -1.127212       -30.6730
  26   2.0000      -1.121271       -30.5113
  27   2.0000      -1.075050       -29.2536
  28   2.0000      -1.060563       -28.8594
  29   2.0000      -1.009220       -27.4623
  30   2.0000      -0.962559       -26.1926
  31   2.0000      -0.952371       -25.9153
  32   2.0000      -0.941430       -25.6176
  33   2.0000      -0.921590       -25.0777
  34   2.0000      -0.914560       -24.8864
  35   2.0000      -0.871032       -23.7020
  36   2.0000      -0.840703       -22.8767
  37   2.0000      -0.831860       -22.6361
  38   2.0000      -0.802476       -21.8365
  39   2.0000      -0.784629       -21.3508
  40   2.0000      -0.769632       -20.9427
  41   2.0000      -0.756358       -20.5815
  42   2.0000      -0.749079       -20.3835
  43   2.0000      -0.737577       -20.0705
  44   2.0000      -0.735177       -20.0052
  45   2.0000      -0.711909       -19.3720
  46   2.0000      -0.706817       -19.2335
  47   2.0000      -0.705205       -19.1896
  48   2.0000      -0.686424       -18.6785
  49   2.0000      -0.677567       -18.4375
  50   2.0000      -0.670084       -18.2339
  51   2.0000      -0.665276       -18.1031
  52   2.0000      -0.659124       -17.9357
  53   2.0000      -0.653932       -17.7944
  54   2.0000      -0.642452       -17.4820
  55   2.0000      -0.641381       -17.4529
  56   2.0000      -0.624242       -16.9865
  57   2.0000      -0.622021       -16.9261
  58   2.0000      -0.615913       -16.7598
  59   2.0000      -0.615303       -16.7433
  60   2.0000      -0.608939       -16.5701
  61   2.0000      -0.598671       -16.2907
  62   2.0000      -0.591611       -16.0986
  63   2.0000      -0.515050       -14.0152
  64   2.0000      -0.458706       -12.4820
  65   2.0000      -0.458096       -12.4654
  66   0.0000      -0.065188        -1.7739
  67   0.0000      -0.055429        -1.5083
  68   0.0000      -0.052620        -1.4319
  69   0.0000      -0.050629        -1.3777
  70   0.0000      -0.038385        -1.0445

MULLIKEN ATOMIC CHARGES
-----------------------
   0 C :   -0.549228
   1 C :   -0.253168
   2 C :   -0.333489
   3 C :   -0.433995
   4 H :    0.245438
   5 H :    0.411518
   6 H :    0.211624
   7 H :    0.375031
   8 C :   -1.002097
   9 H :    0.348752
  10 H :    0.169504
  11 H :    0.491680
  12 H :    0.525320
  13 N :   -0.537435
  14 N :    0.479618
  15 C :    0.208756
  16 C :    2.727777
  17 C :   -0.578804
  18 C :   -1.209433
  19 C :   -1.207798
  20 H :    0.302477
  21 C :   -0.639394
  22 H :   -0.356379
  23 C :   -0.189865
  24 H :    0.368626
  25 H :    0.652705
  26 H :    0.516142
  27 C :    0.198799
  28 H :    0.364921
  29 C :    0.548137
  30 H :    0.306577
  31 C :   -1.117857
  32 H :    0.105580
  33 H :    0.167476
  34 H :    0.381897
  35 C :   -1.210283
  36 H :    0.122717
  37 H :    0.160940
  38 H :    0.522581
  39 H :   -0.117391
  40 H :   -0.177977
Sum of atomic charges:    1.0000000

LOEWDIN ATOMIC CHARGES
----------------------
   0 C :    0.380502
   1 C :    0.063582
   2 C :   -0.042119
   3 C :    0.380251
   4 H :   -0.158640
   5 H :   -0.116105
   6 H :   -0.185599
   7 H :   -0.116509
   8 C :    0.374212
   9 H :   -0.114343
  10 H :   -0.110784
  11 H :   -0.081547
  12 H :   -0.102872
  13 N :    0.367658
  14 N :    0.466403
  15 C :    0.045784
  16 C :   -0.081264
  17 C :    0.231720
  18 C :    0.242260
  19 C :    0.233006
  20 H :   -0.172309
  21 C :    0.230442
  22 H :   -0.165382
  23 C :    0.227391
  24 H :   -0.168350
  25 H :   -0.168595
  26 H :   -0.167796
  27 C :   -0.060382
  28 H :   -0.138369
  29 C :    0.074822
  30 H :   -0.127699
  31 C :    0.629246
  32 H :   -0.142557
  33 H :   -0.139040
  34 H :   -0.174674
  35 C :    0.633917
  36 H :   -0.145889
  37 H :   -0.137594
  38 H :   -0.191226
  39 H :   -0.169595
  40 H :   -0.201955

  Mayer bond orders larger than 0.100000
B(  0-C ,  1-C ) :   0.7781 B(  0-C ,  3-C ) :   0.9838 B(  0-C ,  4-H ) :   1.1428
B(  0-C ,  5-H ) :   0.7692 B(  0-C , 15-C ) :  -0.1960 B(  1-C ,  2-C ) :  -0.1645
B(  1-C ,  8-C ) :   1.0763 B(  1-C , 11-H ) :   0.6995 B(  1-C , 14-N ) :   0.9658
B(  2-C ,  3-C ) :   0.7577 B(  2-C ,  8-C ) :   1.2385 B(  2-C , 12-H ) :   0.7150
B(  2-C , 13-N ) :   1.0037 B(  3-C ,  6-H ) :   1.1101 B(  3-C ,  7-H ) :   0.8255
B(  4-H , 15-C ) :  -0.1842 B(  6-H , 15-C ) :   0.1139 B(  8-C ,  9-H ) :   0.8646
B(  8-C , 10-H ) :   1.1861 B(  8-C , 14-N ) :  -0.1242 B( 12-H , 13-N ) :  -0.1018
B( 13-N , 14-N ) :   0.6299 B( 13-N , 17-C ) :   0.1698 B( 13-N , 19-C ) :  -0.1373
B( 13-N , 27-C ) :   0.4536 B( 13-N , 28-H ) :  -0.1861 B( 14-N , 15-C ) :   0.9624
B( 14-N , 17-C ) :  -0.2659 B( 14-N , 19-C ) :   0.3280 B( 14-N , 20-H ) :  -0.1919
B( 14-N , 27-C ) :   0.3159 B( 14-N , 29-C ) :   0.1351 B( 14-N , 40-H ) :   0.9777
B( 15-C , 17-C ) :   0.7113 B( 15-C , 18-C ) :   0.7685 B( 15-C , 21-C ) :   0.1447
B( 15-C , 22-H ) :  -0.2191 B( 15-C , 24-H ) :  -0.1250 B( 15-C , 26-H ) :   0.1581
B( 15-C , 27-C ) :   0.2365 B( 15-C , 29-C ) :   1.0793 B( 15-C , 39-H ) :   1.1028
B( 16-C , 18-C ) :  -0.6601 B( 16-C , 19-C ) :  -0.2791 B( 16-C , 20-H ) :  -0.2437
B( 16-C , 22-H ) :  -0.5633 B( 16-C , 24-H ) :   0.1589 B( 16-C , 25-H ) :   0.1370
B( 16-C , 26-H ) :  -0.1410 B( 16-C , 29-C ) :   0.1266 B( 16-C , 39-H ) :  -0.2477
B( 17-C , 18-C ) :  -0.7332 B( 17-C , 19-C ) :   1.2059 B( 17-C , 20-H ) :   1.3719
B( 17-C , 26-H ) :  -0.1011 B( 18-C , 19-C ) :   0.1645 B( 18-C , 20-H ) :   0.2240
B( 18-C , 21-C ) :   1.2205 B( 18-C , 22-H ) :   2.5714 B( 18-C , 23-C ) :  -0.1044
B( 18-C , 25-H ) :  -0.2195 B( 18-C , 26-H ) :   0.2046 B( 18-C , 29-C ) :  -0.1871
B( 19-C , 20-H ) :  -0.3028 B( 19-C , 21-C ) :   0.2737 B( 19-C , 23-C ) :   1.3396
B( 19-C , 24-H ) :   0.9425 B( 19-C , 26-H ) :  -0.1227 B( 19-C , 39-H ) :  -0.1537
B( 19-C , 40-H ) :  -0.1040 B( 20-H , 21-C ) :  -0.2571 B( 20-H , 22-H ) :   0.1288
B( 20-H , 23-C ) :  -0.1645 B( 20-H , 39-H ) :   0.1373 B( 21-C , 22-H ) :  -0.2250
B( 21-C , 23-C ) :   1.1108 B( 21-C , 24-H ) :   0.1150 B( 21-C , 25-H ) :   0.5009
B( 21-C , 26-H ) :  -0.2440 B( 22-H , 25-H ) :  -0.1074 B( 23-C , 26-H ) :   0.6754
B( 27-C , 28-H ) :   1.1211 B( 27-C , 29-C ) :   0.9707 B( 27-C , 31-C ) :   0.1541
B( 27-C , 32-H ) :  -0.1713 B( 27-C , 34-H ) :  -0.1054 B( 28-H , 31-C ) :  -0.1041
B( 29-C , 30-H ) :   0.8619 B( 29-C , 35-C ) :   0.4265 B( 31-C , 32-H ) :   1.2798
B( 31-C , 33-H ) :   1.1743 B( 31-C , 34-H ) :   0.9548 B( 35-C , 36-H ) :   1.2554
B( 35-C , 37-H ) :   1.1986 B( 35-C , 38-H ) :   0.7720

MP2 TOTAL ENERGY:     -731.281771195 Eh
FINAL SINGLE POINT ENERGY      -731.281771194728

DIPOLE MOMENT
-------------
                                X             Y             Z
Electronic contribution:    -11.10353      -4.38106      -4.14306
Nuclear contribution   :     12.01188       3.71193       4.14604
                        -----------------------------------------
Total Dipole Moment    :      0.90835      -0.66913       0.00299
                        -----------------------------------------
Magnitude (a.u.)       :      1.12820
Magnitude (Debye)      :      2.86766

Rotational constants in cm-1:     0.026168     0.010105     0.009156
Rotational constants in MHz :   784.494489   302.948559   274.499667

                             ****ORCA TERMINATED NORMALLY****
TOTAL RUN TIME: 0 days 1 hours 1 minutes 1 seconds 256 msec
