                         Program Version 4.2.1 -  RELEASE  -
|  1> %pal
|  2>  nprocs 32
|  3> end
|  4> !RI-MP2 aug-cc-pVTZ aug-cc-pVTZ/C TightSCF
|  5> %maxcore 4500
|  6> *xyzfile 0 1  10_37P.xyz
|  7>
|  8>
|  9>                          ****END OF INPUT****

CARTESIAN COORDINATES (ANGSTROEM)
---------------------------------
  C     -0.102494   -2.590145    1.067154
  N      1.119239   -2.169892    0.414155
  C     -1.320783   -1.870288    0.575100
  C      0.097070   -0.278243   -0.665035
  H      0.345638   -0.644576   -1.665733
  H      0.075197    0.805568   -0.725510
  C     -2.499782   -0.145241   -0.648672
  C     -2.654481   -2.365031    1.067303
  C     -3.678031   -0.761293   -0.514771
  C     -3.757652   -2.164718    0.026852
  C     -1.242037   -0.803207   -0.226688
  C     -3.673768   -3.185044   -1.115259
  H     -2.713804   -3.108463   -1.629908
  H     -3.779714   -4.203402   -0.732330
  H     -4.463978   -3.015103   -1.849204
  H     -0.042804   -2.453544    2.167807
  C      1.186235   -0.717345    0.308694
  H     -0.229479   -3.665735    0.902603
  S     -2.464727    1.449318   -1.443430
  C      2.296096   -2.765497    1.013060
  C      2.554696   -0.219502   -0.106675
  H      0.957803   -0.261626    1.292180
  C      3.645771   -1.079377   -0.219689
  C      3.489740   -2.541994    0.103602
  H      4.401676   -2.915736    0.576310
  H      3.341667   -3.113842   -0.817540
  H      2.112292   -3.834692    1.142427
  H      2.497452   -2.345264    2.015932
  C      2.734370    1.142810   -0.349326
  C      4.882856   -0.565935   -0.605559
  C      5.048337    0.782414   -0.868930
  C      3.966582    1.643770   -0.731019
  H      4.084859    2.704599   -0.916434
  H      1.899581    1.823956   -0.229618
  H      5.728640   -1.240379   -0.689766
  H      6.017599    1.163896   -1.166856
  C     -1.656356    2.451251   -0.211115
  C     -0.899062    3.537417   -0.643697
  C     -1.756035    2.179773    1.149796
  C     -1.085598    2.978246    2.065240
  C     -0.331503    4.061985    1.636435
  C     -0.248688    4.343060    0.279037
  H     -2.349189    1.340691    1.489751
  H     -1.158824    2.752804    3.122539
  H     -0.807060    3.738704   -1.704488
  H      0.189543    4.682609    2.354782
  H      0.338284    5.185363   -0.067230
  H     -2.915542   -1.821566    1.985550
  H     -2.590482   -3.421894    1.342418
  H     -4.723736   -2.289514    0.523494
  H     -4.587563   -0.269903   -0.840407

 Total Charge           Charge          ....    0
 Multiplicity           Mult            ....    1
 Number of Electrons    NEL             ....  192
 Basis Dimension        Dim             .... 1775

ORBITAL ENERGIES
----------------

  NO   OCC          E(Eh)            E(eV)
   0   2.0000     -91.958376     -2502.3146
   1   2.0000     -15.545159      -423.0053
   2   2.0000     -11.268278      -306.6254
   3   2.0000     -11.260946      -306.4259
   4   2.0000     -11.255850      -306.2873
   5   2.0000     -11.255599      -306.2804
   6   2.0000     -11.248453      -306.0860
   7   2.0000     -11.240445      -305.8681
   8   2.0000     -11.240175      -305.8607
   9   2.0000     -11.238379      -305.8118
  10   2.0000     -11.238150      -305.8056
  11   2.0000     -11.236861      -305.7705
  12   2.0000     -11.235741      -305.7401
  13   2.0000     -11.235349      -305.7294
  14   2.0000     -11.231336      -305.6202
  15   2.0000     -11.231191      -305.6162
  16   2.0000     -11.230014      -305.5842
  17   2.0000     -11.229552      -305.5717
  18   2.0000     -11.228935      -305.5549
  19   2.0000     -11.225176      -305.4526
  20   2.0000     -11.223860      -305.4167
  21   2.0000     -11.223018      -305.3938
  22   2.0000     -11.222450      -305.3784
  23   2.0000     -11.222291      -305.3741
  24   2.0000     -11.216430      -305.2146
  25   2.0000     -11.214228      -305.1546
  26   2.0000      -8.958225      -243.7657
  27   2.0000      -6.639556      -180.6715
  28   2.0000      -6.638547      -180.6441
  29   2.0000      -6.637714      -180.6214
  30   2.0000      -1.253046       -34.0971
  31   2.0000      -1.170491       -31.8507
  32   2.0000      -1.157456       -31.4960
  33   2.0000      -1.149353       -31.2755
  34   2.0000      -1.080339       -29.3975
  35   2.0000      -1.075396       -29.2630
  36   2.0000      -1.051257       -28.6062
  37   2.0000      -1.041066       -28.3288
  38   2.0000      -1.025017       -27.8921
  39   2.0000      -1.021435       -27.7947
  40   2.0000      -0.992128       -26.9972
  41   2.0000      -0.974086       -26.5062
  42   2.0000      -0.934283       -25.4231
  43   2.0000      -0.929421       -25.2908
  44   2.0000      -0.885851       -24.1052
  45   2.0000      -0.860475       -23.4147
  46   2.0000      -0.841975       -22.9113
  47   2.0000      -0.836254       -22.7556
  48   2.0000      -0.822251       -22.3746
  49   2.0000      -0.807814       -21.9817
  50   2.0000      -0.789347       -21.4792
  51   2.0000      -0.764890       -20.8137
  52   2.0000      -0.742040       -20.1919
  53   2.0000      -0.703821       -19.1520
  54   2.0000      -0.691500       -18.8167
  55   2.0000      -0.672465       -18.2987
  56   2.0000      -0.661884       -18.0108
  57   2.0000      -0.652371       -17.7519
  58   2.0000      -0.644806       -17.5461
  59   2.0000      -0.635643       -17.2967
  60   2.0000      -0.632216       -17.2035
  61   2.0000      -0.619044       -16.8450
  62   2.0000      -0.615835       -16.7577
  63   2.0000      -0.612811       -16.6754
  64   2.0000      -0.599242       -16.3062
  65   2.0000      -0.593540       -16.1510
  66   2.0000      -0.592263       -16.1163
  67   2.0000      -0.583166       -15.8688
  68   2.0000      -0.573695       -15.6110
  69   2.0000      -0.571062       -15.5394
  70   2.0000      -0.560722       -15.2580
  71   2.0000      -0.553548       -15.0628
  72   2.0000      -0.543042       -14.7769
  73   2.0000      -0.534259       -14.5379
  74   2.0000      -0.525306       -14.2943
  75   2.0000      -0.520388       -14.1605
  76   2.0000      -0.519549       -14.1377
  77   2.0000      -0.511948       -13.9308
  78   2.0000      -0.507686       -13.8148
  79   2.0000      -0.501325       -13.6418
  80   2.0000      -0.498793       -13.5729
  81   2.0000      -0.491651       -13.3785
  82   2.0000      -0.479439       -13.0462
  83   2.0000      -0.473899       -12.8955
  84   2.0000      -0.472058       -12.8454
  85   2.0000      -0.457768       -12.4565
  86   2.0000      -0.446444       -12.1484
  87   2.0000      -0.430813       -11.7230
  88   2.0000      -0.419817       -11.4238
  89   2.0000      -0.382729       -10.4146
  90   2.0000      -0.358198        -9.7471
  91   2.0000      -0.345094        -9.3905
  92   2.0000      -0.323759        -8.8099
  93   2.0000      -0.317101        -8.6288
  94   2.0000      -0.314651        -8.5621
  95   2.0000      -0.292108        -7.9487
  96   0.0000       0.022731         0.6186
  97   0.0000       0.026924         0.7326
  98   0.0000       0.028721         0.7815
  99   0.0000       0.031129         0.8471
 100   0.0000       0.035789         0.9739

MULLIKEN ATOMIC CHARGES
-----------------------
   0 C :   -0.609371
   1 N :   -0.470014
   2 C :    0.057895
   3 C :   -1.016903
   4 H :    0.045987
   5 H :    0.170500
   6 C :    0.588228
   7 C :   -0.848312
   8 C :   -0.468373
   9 C :    0.332801
  10 C :    0.791093
  11 C :   -1.040889
  12 H :    0.347656
  13 H :    0.208886
  14 H :    0.266933
  15 H :    0.239468
  16 C :    0.010062
  17 H :    0.179833
  18 S :   -1.249146
  19 C :   -0.807224
  20 C :    1.419548
  21 H :    0.199823
  22 C :    1.115746
  23 C :   -0.579718
  24 H :    0.197576
  25 H :    0.197794
  26 H :    0.353643
  27 H :    0.228272
  28 C :   -1.437346
  29 C :   -1.028673
  30 C :   -0.341912
  31 C :   -0.705252
  32 H :    0.385231
  33 H :    0.742076
  34 H :    0.017408
  35 H :    0.658715
  36 C :    0.313400
  37 C :   -0.479721
  38 C :   -0.229770
  39 C :   -0.747110
  40 C :   -0.156094
  41 C :   -0.359460
  42 H :    0.502561
  43 H :    0.398667
  44 H :    0.529626
  45 H :    0.622810
  46 H :    0.306166
  47 H :    0.157406
  48 H :    0.315085
  49 H :    0.366011
  50 H :    0.308378
Sum of atomic charges:   -0.0000000

LOEWDIN ATOMIC CHARGES
----------------------
   0 C :    0.172596
   1 N :    0.318412
   2 C :   -0.039367
   3 C :    0.284772
   4 H :   -0.111158
   5 H :   -0.238952
   6 C :   -0.456434
   7 C :    0.299179
   8 C :    0.172017
   9 C :   -0.040167
  10 C :   -0.102898
  11 C :    0.600035
  12 H :   -0.159418
  13 H :   -0.159867
  14 H :   -0.159524
  15 H :   -0.111358
  16 C :   -0.111960
  17 H :   -0.136560
  18 S :    1.292735
  19 C :    0.167446
  20 C :   -0.035767
  21 H :   -0.103287
  22 C :   -0.067305
  23 C :    0.300973
  24 H :   -0.143713
  25 H :   -0.131854
  26 H :   -0.136291
  27 H :   -0.114706
  28 C :    0.232323
  29 C :    0.221417
  30 C :    0.198243
  31 C :    0.206788
  32 H :   -0.182955
  33 H :   -0.183357
  34 H :   -0.173635
  35 H :   -0.183896
  36 C :   -0.504864
  37 C :    0.118249
  38 C :    0.142150
  39 C :    0.198041
  40 C :    0.192348
  41 C :    0.185149
  42 H :   -0.196090
  43 H :   -0.178640
  44 H :   -0.192514
  45 H :   -0.183492
  46 H :   -0.180172
  47 H :   -0.123943
  48 H :   -0.140547
  49 H :   -0.133499
  50 H :   -0.184681

  Mayer bond orders larger than 0.100000
B(  0-C ,  1-N ) :   0.6600 B(  0-C ,  3-C ) :   0.1212 B(  0-C , 10-C ) :  -0.1243
B(  0-C , 15-H ) :   1.2400 B(  0-C , 16-C ) :   0.1231 B(  0-C , 17-H ) :   1.3063
B(  0-C , 26-H ) :  -0.1147 B(  1-N ,  3-C ) :   0.3208 B(  1-N , 10-C ) :  -0.3354
B(  1-N , 15-H ) :  -0.1425 B(  1-N , 16-C ) :   0.8170 B(  1-N , 19-C ) :   0.9850
B(  1-N , 20-C ) :  -0.2406 B(  1-N , 21-H ) :  -0.1088 B(  1-N , 22-C ) :  -0.1026
B(  2-C ,  5-H ) :   0.2467 B(  2-C ,  6-C ) :   0.3243 B(  2-C ,  7-C ) :   0.3591
B(  2-C ,  9-C ) :   0.2056 B(  2-C , 10-C ) :   2.1348 B(  2-C , 15-H ) :  -0.1849
B(  2-C , 16-C ) :  -0.2229 B(  2-C , 17-H ) :  -0.2506 B(  2-C , 19-C ) :  -0.1155
B(  2-C , 20-C ) :   0.2021 B(  2-C , 36-C ) :  -0.1251 B(  2-C , 38-C ) :   0.3098
B(  3-C ,  4-H ) :   1.0911 B(  3-C ,  5-H ) :   1.2204 B(  3-C ,  6-C ) :   0.7135
B(  3-C ,  8-C ) :  -0.1433 B(  3-C , 10-C ) :   0.1411 B(  3-C , 16-C ) :   0.8553
B(  3-C , 18-S ) :  -0.1893 B(  3-C , 20-C ) :   0.2139 B(  3-C , 21-H ) :   0.1162
B(  3-C , 22-C ) :  -0.1513 B(  5-H , 18-S ) :  -0.1927 B(  5-H , 36-C ) :   0.1697
B(  6-C ,  8-C ) :   1.5351 B(  6-C ,  9-C ) :   0.1630 B(  6-C , 10-C ) :   0.3818
B(  6-C , 18-S ) :   0.4365 B(  6-C , 38-C ) :   0.1267 B(  6-C , 50-H ) :   0.2070
B(  7-C ,  8-C ) :   0.3409 B(  7-C ,  9-C ) :   1.0027 B(  7-C , 11-C ) :   0.1008
B(  7-C , 47-H ) :   1.1718 B(  7-C , 48-H ) :   0.9388 B(  8-C ,  9-C ) :   0.5701
B(  8-C , 18-S ) :  -0.4416 B(  8-C , 49-H ) :  -0.1356 B(  8-C , 50-H ) :   1.0492
B(  9-C , 11-C ) :   0.6831 B(  9-C , 49-H ) :   0.9576 B( 10-C , 16-C ) :   0.1818
B( 10-C , 18-S ) :   0.8800 B( 10-C , 20-C ) :  -0.1725 B( 10-C , 36-C ) :   0.1392
B( 10-C , 37-C ) :  -0.1145 B( 11-C , 12-H ) :   0.9213 B( 11-C , 13-H ) :   1.0568
B( 11-C , 14-H ) :   1.0139 B( 16-C , 18-S ) :   0.1191 B( 16-C , 20-C ) :   0.8643
B( 16-C , 21-H ) :   0.9913 B( 16-C , 22-C ) :   0.3273 B( 16-C , 23-C ) :  -0.2057
B( 16-C , 28-C ) :   1.1058 B( 16-C , 30-C ) :   0.1176 B( 16-C , 31-C ) :   0.1202
B( 16-C , 33-H ) :  -0.1435 B( 18-S , 36-C ) :   0.9392 B( 18-S , 38-C ) :   0.1271
B( 18-S , 44-H ) :  -0.1791 B( 18-S , 50-H ) :  -0.1674 B( 19-C , 22-C ) :   0.1205
B( 19-C , 23-C ) :   1.0433 B( 19-C , 26-H ) :   0.9148 B( 19-C , 27-H ) :   1.0804
B( 19-C , 29-C ) :  -0.1220 B( 20-C , 22-C ) :   0.9962 B( 20-C , 23-C ) :   0.3050
B( 20-C , 28-C ) :  -0.6901 B( 20-C , 29-C ) :   0.7068 B( 20-C , 30-C ) :  -0.1606
B( 20-C , 31-C ) :  -0.2075 B( 20-C , 33-H ) :   0.2058 B( 20-C , 35-H ) :   0.1204
B( 20-C , 38-C ) :   0.1268 B( 22-C , 25-H ) :  -0.1516 B( 22-C , 28-C ) :  -0.3841
B( 22-C , 29-C ) :   0.2566 B( 22-C , 30-C ) :   0.3448 B( 22-C , 36-C ) :   0.1124
B( 22-C , 38-C ) :  -0.1607 B( 23-C , 24-H ) :   1.1241 B( 23-C , 25-H ) :   1.1423
B( 23-C , 28-C ) :  -0.1290 B( 23-C , 29-C ) :   0.1645 B( 28-C , 30-C ) :   0.2786
B( 28-C , 31-C ) :   1.4052 B( 28-C , 33-H ) :   0.4090 B( 29-C , 30-C ) :   0.8258
B( 29-C , 34-H ) :   1.5911 B( 30-C , 31-C ) :   0.9812 B( 30-C , 32-H ) :  -0.1055
B( 30-C , 34-H ) :  -0.1538 B( 30-C , 35-H ) :   0.4174 B( 31-C , 32-H ) :   0.8903
B( 36-C , 37-C ) :   1.2385 B( 36-C , 38-C ) :   1.2012 B( 36-C , 39-C ) :   0.3547
B( 36-C , 41-C ) :   0.1223 B( 36-C , 42-H ) :  -0.1485 B( 36-C , 43-H ) :   0.1528
B( 37-C , 38-C ) :  -0.1421 B( 37-C , 40-C ) :   0.1318 B( 37-C , 41-C ) :   1.1842
B( 37-C , 44-H ) :   0.8026 B( 38-C , 39-C ) :   0.9636 B( 38-C , 42-H ) :   0.8755
B( 38-C , 43-H ) :  -0.1948 B( 39-C , 40-C ) :   1.2926 B( 39-C , 43-H ) :   0.9218
B( 40-C , 41-C ) :   1.2288 B( 40-C , 45-H ) :   0.5297 B( 41-C , 46-H ) :   1.0705

MP2 TOTAL ENERGY:    -1380.017727117 Eh
FINAL SINGLE POINT ENERGY     -1380.017727116725

DIPOLE MOMENT
-------------
                                X             Y             Z
Electronic contribution:     -1.72650      13.99950      -5.08658
Nuclear contribution   :      1.71572     -14.50711       5.94520
                        -----------------------------------------
Total Dipole Moment    :     -0.01078      -0.50761       0.85862
                        -----------------------------------------
Magnitude (a.u.)       :      0.99750
Magnitude (Debye)      :      2.53544

Rotational constants in cm-1:     0.008015     0.005803     0.003867
Rotational constants in MHz :   240.296985   173.955296   115.940250

                             ****ORCA TERMINATED NORMALLY****
TOTAL RUN TIME: 0 days 2 hours 7 minutes 10 seconds 405 msec
