                         Program Version 4.2.1 -  RELEASE  -
|  1> %pal
|  2>  nprocs 32
|  3> end
|  4> !RI-MP2 aug-cc-pVTZ aug-cc-pVTZ/C TightSCF
|  5> %maxcore 4500
|  6> *xyzfile 0 1  04_68R1.xyz
|  7>
|  8>
|  9>                          ****END OF INPUT****

CARTESIAN COORDINATES (ANGSTROEM)
---------------------------------
  C      0.663289    1.204430   -0.000001
  C     -0.724189    1.230154   -0.000004
  C     -1.408751    0.014714   -0.000002
  C     -0.739530   -1.208037    0.000001
  C      0.651340   -1.203065    0.000002
  C      1.338048   -0.004509    0.000002
  H      1.219803    2.132824   -0.000002
  H      1.195670   -2.138603    0.000004
  O     -2.773800    0.088285    0.000000
  H     -3.156782   -0.792578   -0.000045
  C     -1.511841   -2.498608    0.000006
  H     -0.836823   -3.353324   -0.000010
  H     -2.149609   -2.590580    0.885549
  H     -2.149634   -2.590573   -0.885521
  C     -1.492583    2.518909   -0.000006
  H     -2.140844    2.586694    0.876289
  H     -0.816379    3.373580   -0.000039
  H     -2.140892    2.586662   -0.876268
  Cl     3.088894   -0.014371    0.000004

 Total Charge           Charge          ....    0
 Multiplicity           Mult            ....    1
 Number of Electrons    NEL             ....   82
 Basis Dimension        Dim             ....  671

ORBITAL ENERGIES
----------------

  NO   OCC          E(Eh)            E(eV)
   0   2.0000    -104.833846     -2852.6740
   1   2.0000     -20.595516      -560.4325
   2   2.0000     -11.300414      -307.4999
   3   2.0000     -11.290614      -307.2332
   4   2.0000     -11.251085      -306.1576
   5   2.0000     -11.245595      -306.0082
   6   2.0000     -11.245128      -305.9955
   7   2.0000     -11.244044      -305.9660
   8   2.0000     -11.241621      -305.9001
   9   2.0000     -11.223916      -305.4183
  10   2.0000     -10.557476      -287.2835
  11   2.0000      -8.024370      -218.3542
  12   2.0000      -8.022542      -218.3045
  13   2.0000      -8.022507      -218.3035
  14   2.0000      -1.413090       -38.4521
  15   2.0000      -1.186933       -32.2981
  16   2.0000      -1.117375       -30.4053
  17   2.0000      -1.077189       -29.3118
  18   2.0000      -1.004232       -27.3265
  19   2.0000      -0.954295       -25.9677
  20   2.0000      -0.941509       -25.6198
  21   2.0000      -0.824344       -22.4316
  22   2.0000      -0.801828       -21.8188
  23   2.0000      -0.742685       -20.2095
  24   2.0000      -0.692588       -18.8463
  25   2.0000      -0.631286       -17.1782
  26   2.0000      -0.622576       -16.9411
  27   2.0000      -0.605928       -16.4882
  28   2.0000      -0.587994       -16.0001
  29   2.0000      -0.582245       -15.8437
  30   2.0000      -0.572515       -15.5789
  31   2.0000      -0.570296       -15.5186
  32   2.0000      -0.554514       -15.0891
  33   2.0000      -0.543013       -14.7761
  34   2.0000      -0.525129       -14.2895
  35   2.0000      -0.508726       -13.8431
  36   2.0000      -0.497723       -13.5437
  37   2.0000      -0.447965       -12.1897
  38   2.0000      -0.445318       -12.1177
  39   2.0000      -0.339974        -9.2512
  40   2.0000      -0.309680        -8.4268
  41   0.0000       0.023775         0.6469
  42   0.0000       0.031718         0.8631
  43   0.0000       0.037330         1.0158
  44   0.0000       0.040316         1.0971
  45   0.0000       0.047039         1.2800

MULLIKEN ATOMIC CHARGES
-----------------------
   0 C :   -0.631788
   1 C :    0.901090
   2 C :    0.303559
   3 C :    0.750298
   4 C :   -0.768929
   5 C :    0.519215
   6 H :    0.324973
   7 H :    0.303198
   8 O :   -0.919502
   9 H :    0.187273
  10 C :   -0.976589
  11 H :    0.233600
  12 H :    0.259280
  13 H :    0.259273
  14 C :   -0.975604
  15 H :    0.255976
  16 H :    0.256523
  17 H :    0.255969
  18 Cl:   -0.537814
Sum of atomic charges:   -0.0000000

LOEWDIN ATOMIC CHARGES
----------------------
   0 C :    0.119451
   1 C :   -0.119033
   2 C :   -0.332987
   3 C :   -0.106746
   4 C :    0.115101
   5 C :   -0.763257
   6 H :   -0.195123
   7 H :   -0.196402
   8 O :    0.873590
   9 H :   -0.508665
  10 C :    0.580984
  11 H :   -0.171870
  12 H :   -0.159142
  13 H :   -0.159144
  14 C :    0.579211
  15 H :   -0.165238
  16 H :   -0.177270
  17 H :   -0.165240
  18 Cl:    0.951781

  Mayer bond orders larger than 0.100000
B(  0-C ,  1-C ) :   0.8110 B(  0-C ,  2-C ) :  -0.2651 B(  0-C ,  3-C ) :   0.1493
B(  0-C ,  5-C ) :   1.0217 B(  0-C ,  6-H ) :   1.0498 B(  1-C ,  2-C ) :   1.2573
B(  1-C ,  5-C ) :   0.1058 B(  1-C , 14-C ) :   0.4414 B(  1-C , 15-H ) :  -0.1027
B(  1-C , 17-H ) :  -0.1027 B(  2-C ,  3-C ) :   1.2389 B(  2-C ,  4-C ) :  -0.2220
B(  2-C ,  5-C ) :   0.2898 B(  2-C ,  8-O ) :   0.5628 B(  2-C , 10-C ) :   0.2785
B(  2-C , 14-C ) :   0.2123 B(  3-C ,  4-C ) :   0.7924 B(  3-C ,  8-O ) :  -0.1220
B(  3-C , 10-C ) :   0.4361 B(  3-C , 12-H ) :  -0.1077 B(  3-C , 13-H ) :  -0.1077
B(  4-C ,  5-C ) :   1.0794 B(  4-C ,  7-H ) :   1.0960 B(  5-C , 18-Cl) :   0.6749
B(  8-O ,  9-H ) :   0.9865 B( 10-C , 11-H ) :   1.0719 B( 10-C , 12-H ) :   1.0016
B( 10-C , 13-H ) :   1.0016 B( 14-C , 15-H ) :   1.0228 B( 14-C , 16-H ) :   1.0145
B( 14-C , 17-H ) :   1.0228

MP2 TOTAL ENERGY:     -844.462393805 Eh
FINAL SINGLE POINT ENERGY      -844.462393804875

DIPOLE MOMENT
-------------
                                X             Y             Z
Electronic contribution:     14.23440       0.18921       0.00002
Nuclear contribution   :    -15.18107      -0.75122      -0.00005
                        -----------------------------------------
Total Dipole Moment    :     -0.94667      -0.56201      -0.00002
                        -----------------------------------------
Magnitude (a.u.)       :      1.10093
Magnitude (Debye)      :      2.79834

Rotational constants in cm-1:     0.059233     0.027246     0.018792
Rotational constants in MHz :  1775.771378   816.800761   563.366974

                             ****ORCA TERMINATED NORMALLY****
TOTAL RUN TIME: 0 days 0 hours 5 minutes 17 seconds 397 msec
