                         Program Version 4.2.1 -  RELEASE  -
|  1> %pal
|  2>  nprocs 32
|  3> end
|  4> !RI-MP2 aug-cc-pVTZ aug-cc-pVTZ/C TightSCF
|  5> %maxcore 4500
|  6> *xyzfile 0 2  01_22P.xyz
|  7>
|  8>
|  9>                          ****END OF INPUT****

CARTESIAN COORDINATES (ANGSTROEM)
---------------------------------
  C      0.133250   -0.371573    0.250681
  C      1.144215   -1.486638   -0.099525
  C      2.170155   -0.399295   -0.473692
  H      0.827819   -2.064532   -0.968893
  H      1.399409   -2.171639    0.709499
  C      1.013967    0.632272   -0.606145
  H      2.774855   -0.560967   -1.365517
  H      2.832462   -0.150316    0.356930
  S     -1.528844   -0.722882   -0.402102
  C     -2.358168    0.864129   -0.125846
  H     -3.324771    0.805380   -0.624551
  H     -1.786135    1.680786   -0.566869
  H     -2.523166    1.059102    0.932838
  C      0.118507   -0.052584    1.736424
  H     -0.339540   -0.873947    2.289831
  H     -0.435873    0.862706    1.948671
  H      1.135521    0.087564    2.112257
  C      1.224305    2.013494   -0.152659
  H      0.883293    2.860889   -0.732829
  H      1.711977    2.216665    0.793262
  H      0.628271    0.615591   -1.626420

 Total Charge           Charge          ....    0
 Multiplicity           Mult            ....    2
 Number of Electrons    NEL             ....   71
 Basis Dimension        Dim             ....  671

ORBITAL ENERGIES
----------------
                 SPIN UP ORBITALS
  NO   OCC          E(Eh)            E(eV)
   0   1.0000     -91.936402     -2501.7167
   1   1.0000     -11.264961      -306.5352
   2   1.0000     -11.246195      -306.0245
   3   1.0000     -11.232842      -305.6612
   4   1.0000     -11.230881      -305.6078
   5   1.0000     -11.225506      -305.4616
   6   1.0000     -11.223662      -305.4114
   7   1.0000     -11.219074      -305.2865
   8   1.0000      -8.936913      -243.1858
   9   1.0000      -6.618168      -180.0895
  10   1.0000      -6.617196      -180.0630
  11   1.0000      -6.616344      -180.0399
  12   1.0000      -1.160710       -31.5845
  13   1.0000      -1.038424       -28.2569
  14   1.0000      -0.999620       -27.2010
  15   1.0000      -0.974717       -26.5234
  16   1.0000      -0.886627       -24.1263
  17   1.0000      -0.849934       -23.1279
  18   1.0000      -0.808721       -22.0064
  19   1.0000      -0.713593       -19.4179
  20   1.0000      -0.644518       -17.5382
  21   1.0000      -0.628972       -17.1152
  22   1.0000      -0.610065       -16.6007
  23   1.0000      -0.592733       -16.1291
  24   1.0000      -0.579308       -15.7638
  25   1.0000      -0.568448       -15.4683
  26   1.0000      -0.545400       -14.8411
  27   1.0000      -0.534613       -14.5476
  28   1.0000      -0.525253       -14.2929
  29   1.0000      -0.499787       -13.5999
  30   1.0000      -0.472745       -12.8640
  31   1.0000      -0.447862       -12.1869
  32   1.0000      -0.430866       -11.7245
  33   1.0000      -0.418789       -11.3958
  34   1.0000      -0.358081        -9.7439
  35   1.0000      -0.316735        -8.6188
  36   0.0000       0.029072         0.7911
  37   0.0000       0.033443         0.9100
  38   0.0000       0.036213         0.9854
  39   0.0000       0.038565         1.0494
  40   0.0000       0.049655         1.3512

                 SPIN DOWN ORBITALS
  NO   OCC          E(Eh)            E(eV)
   0   1.0000     -91.936392     -2501.7164
   1   1.0000     -11.261628      -306.4445
   2   1.0000     -11.246105      -306.0221
   3   1.0000     -11.235126      -305.7233
   4   1.0000     -11.224073      -305.4226
   5   1.0000     -11.223121      -305.3967
   6   1.0000     -11.219194      -305.2898
   7   1.0000     -11.209901      -305.0369
   8   1.0000      -8.936907      -243.1856
   9   1.0000      -6.618197      -180.0903
  10   1.0000      -6.617186      -180.0628
  11   1.0000      -6.616252      -180.0374
  12   1.0000      -1.154323       -31.4107
  13   1.0000      -1.034946       -28.1623
  14   1.0000      -0.977800       -26.6073
  15   1.0000      -0.954363       -25.9695
  16   1.0000      -0.884224       -24.0610
  17   1.0000      -0.825354       -22.4590
  18   1.0000      -0.794127       -21.6093
  19   1.0000      -0.709085       -19.2952
  20   1.0000      -0.641292       -17.4504
  21   1.0000      -0.624497       -16.9934
  22   1.0000      -0.603876       -16.4323
  23   1.0000      -0.588459       -16.0128
  24   1.0000      -0.574238       -15.6258
  25   1.0000      -0.564798       -15.3689
  26   1.0000      -0.545132       -14.8338
  27   1.0000      -0.532303       -14.4847
  28   1.0000      -0.520781       -14.1712
  29   1.0000      -0.485794       -13.2191
  30   1.0000      -0.465753       -12.6738
  31   1.0000      -0.444347       -12.0913
  32   1.0000      -0.426915       -11.6170
  33   1.0000      -0.405854       -11.0439
  34   1.0000      -0.330095        -8.9823
  35   0.0000       0.029364         0.7990
  36   0.0000       0.032850         0.8939
  37   0.0000       0.036065         0.9814
  38   0.0000       0.038666         1.0521
  39   0.0000       0.049324         1.3422

MULLIKEN ATOMIC CHARGES AND SPIN POPULATIONS
--------------------------------------------
   0 C :    1.022882    0.127831
   1 C :   -0.979898   -0.024986
   2 C :   -0.819880    0.104931
   3 H :    0.201824   -0.000471
   4 H :    0.352321   -0.000541
   5 C :    0.480823   -0.252597
   6 H :    0.414407   -0.004251
   7 H :    0.122562   -0.001546
   8 S :   -0.591445    0.000975
   9 C :   -0.861518    0.000921
  10 H :    0.259998    0.000210
  11 H :    0.311579   -0.006825
  12 H :    0.245231    0.001141
  13 C :   -0.961806    0.003583
  14 H :    0.290692    0.003794
  15 H :    0.316890   -0.014552
  16 H :    0.253527    0.000261
  17 C :   -1.234320    1.218009
  18 H :    0.316963   -0.060090
  19 H :    0.351068   -0.082537
  20 H :    0.508097   -0.013259
Sum of atomic charges         :   -0.0000000

LOEWDIN ATOMIC CHARGES AND SPIN POPULATIONS
-------------------------------------------
   0 C :   -0.640341    0.044384
   1 C :    0.262783    0.007000
   2 C :    0.324957    0.028330
   3 H :   -0.164399    0.000227
   4 H :   -0.142453    0.000493
   5 C :   -0.080272    0.104685
   6 H :   -0.141671    0.003424
   7 H :   -0.152484    0.003240
   8 S :    1.243952    0.006982
   9 C :    0.230073    0.003879
  10 H :   -0.252673    0.000195
  11 H :   -0.239981    0.004117
  12 H :   -0.246229    0.000116
  13 C :    0.508617    0.008409
  14 H :   -0.165347    0.000538
  15 H :   -0.182853    0.004629
  16 H :   -0.165727    0.000164
  17 C :    0.600907    0.544262
  18 H :   -0.217917    0.120089
  19 H :   -0.213260    0.114795
  20 H :   -0.165681    0.000042

  Mayer bond orders larger than 0.100000
B(  0-C ,  1-C ) :   0.9259 B(  0-C ,  2-C ) :  -0.1553 B(  0-C ,  5-C ) :   0.9196
B(  0-C ,  8-S ) :   0.4707 B(  0-C ,  9-C ) :  -0.1052 B(  0-C , 13-C ) :   0.4918
B(  0-C , 17-C ) :   0.1674 B(  0-C , 20-H ) :  -0.1272 B(  1-C ,  2-C ) :   1.3313
B(  1-C ,  3-H ) :   1.0390 B(  1-C ,  4-H ) :   0.8649 B(  1-C ,  5-C ) :  -0.2359
B(  2-C ,  3-H ) :   0.1029 B(  2-C ,  5-C ) :   0.9323 B(  2-C ,  6-H ) :   0.7613
B(  2-C ,  7-H ) :   1.1470 B(  2-C , 20-H ) :  -0.1819 B(  5-C , 17-C ) :   0.3157
B(  5-C , 20-H ) :   0.8825 B(  8-S ,  9-C ) :   0.9768 B(  8-S , 20-H ) :  -0.1208
B(  9-C , 10-H ) :   0.9948 B(  9-C , 11-H ) :   0.9087 B(  9-C , 12-H ) :   0.9426
B( 13-C , 14-H ) :   1.0473 B( 13-C , 15-H ) :   1.0118 B( 13-C , 16-H ) :   0.9606
B( 17-C , 18-H ) :   0.9463 B( 17-C , 19-H ) :   0.9653

MP2 TOTAL ENERGY:     -671.592995356 Eh
FINAL SINGLE POINT ENERGY      -671.592995356190

DIPOLE MOMENT
-------------
                                X             Y             Z
Electronic contribution:     -3.63488      -4.00681      -3.12480
Nuclear contribution   :      3.95290       4.52892       3.37443
                        -----------------------------------------
Total Dipole Moment    :      0.31802       0.52210       0.24963
                        -----------------------------------------
Magnitude (a.u.)       :      0.66034
Magnitude (Debye)      :      1.67845

Rotational constants in cm-1:     0.080205     0.046518     0.039383
Rotational constants in MHz :  2404.471978  1394.560955  1180.657806

                             ****ORCA TERMINATED NORMALLY****
TOTAL RUN TIME: 0 days 0 hours 8 minutes 52 seconds 395 msec
