                         Program Version 4.2.1 -  RELEASE  -
|  1> %pal
|  2>  nprocs 32
|  3> end
|  4> !RI-MP2 aug-cc-pVTZ aug-cc-pVTZ/C TightSCF
|  5> %maxcore 4500
|  6> *xyzfile 0 1  09_18TS.xyz
|  7>
|  8>
|  9>                          ****END OF INPUT****

CARTESIAN COORDINATES (ANGSTROEM)
---------------------------------
  N      0.839211    0.975724   -0.191824
  C      2.174649    0.627446    0.079378
  C      2.344840   -0.711393    0.063140
  S      0.827454   -1.498853   -0.289594
  C     -0.006894   -0.021015   -0.422702
  C      3.185528    1.691568    0.345872
  H      3.218482    2.424034   -0.463675
  H      4.177608    1.254940    0.438732
  H      2.971304    2.227966    1.273661
  C      3.585166   -1.505782    0.311057
  H      4.445274   -0.856056    0.469217
  H      3.810424   -2.157935   -0.535142
  H      3.477147   -2.137180    1.195613
  C      0.386493    2.365220   -0.234471
  H      0.837005    2.927016    0.581526
  H     -0.692064    2.366321   -0.103618
  H      0.657638    2.824752   -1.185856
  C     -1.955028   -0.371632   -0.683283
  O     -2.028606   -1.594966   -0.607580
  C     -2.215150    0.359451   -1.985267
  H     -1.638395   -0.111384   -2.781064
  H     -1.966533    1.419921   -1.925153
  H     -3.278113    0.258397   -2.216196
  S     -2.655929    0.654475    0.740825
  C     -2.392214   -0.540987    2.069225
  H     -2.464472   -1.534814    1.625559
  H     -3.173995   -0.410452    2.815224
  H     -1.415680   -0.413087    2.537184

 Total Charge           Charge          ....    0
 Multiplicity           Mult            ....    1
 Number of Electrons    NEL             ....  116
 Basis Dimension        Dim             ....  951

ORBITAL ENERGIES
----------------

  NO   OCC          E(Eh)            E(eV)
   0   2.0000     -91.991395     -2503.2131
   1   2.0000     -91.921060     -2501.2992
   2   2.0000     -20.473356      -557.1084
   3   2.0000     -15.649938      -425.8565
   4   2.0000     -11.341115      -308.6074
   5   2.0000     -11.299521      -307.4756
   6   2.0000     -11.298189      -307.4393
   7   2.0000     -11.282913      -307.0237
   8   2.0000     -11.277803      -306.8846
   9   2.0000     -11.259827      -306.3955
  10   2.0000     -11.251453      -306.1676
  11   2.0000     -11.224300      -305.4287
  12   2.0000     -11.212596      -305.1103
  13   2.0000      -8.992209      -244.6904
  14   2.0000      -8.922295      -242.7880
  15   2.0000      -6.672988      -181.5812
  16   2.0000      -6.672060      -181.5560
  17   2.0000      -6.671619      -181.5440
  18   2.0000      -6.603450      -179.6890
  19   2.0000      -6.602560      -179.6648
  20   2.0000      -6.601777      -179.6435
  21   2.0000      -1.341052       -36.4919
  22   2.0000      -1.331268       -36.2257
  23   2.0000      -1.129428       -30.7333
  24   2.0000      -1.074077       -29.2271
  25   2.0000      -1.021684       -27.8014
  26   2.0000      -1.011262       -27.5178
  27   2.0000      -0.981041       -26.6955
  28   2.0000      -0.957955       -26.0673
  29   2.0000      -0.928466       -25.2648
  30   2.0000      -0.843680       -22.9577
  31   2.0000      -0.809122       -22.0173
  32   2.0000      -0.743363       -20.2279
  33   2.0000      -0.705824       -19.2064
  34   2.0000      -0.677408       -18.4332
  35   2.0000      -0.669573       -18.2200
  36   2.0000      -0.622827       -16.9480
  37   2.0000      -0.611462       -16.6387
  38   2.0000      -0.608034       -16.5454
  39   2.0000      -0.606225       -16.4962
  40   2.0000      -0.596001       -16.2180
  41   2.0000      -0.591830       -16.1045
  42   2.0000      -0.580136       -15.7863
  43   2.0000      -0.567891       -15.4531
  44   2.0000      -0.563443       -15.3321
  45   2.0000      -0.560898       -15.2628
  46   2.0000      -0.550677       -14.9847
  47   2.0000      -0.542794       -14.7702
  48   2.0000      -0.535524       -14.5723
  49   2.0000      -0.493650       -13.4329
  50   2.0000      -0.489017       -13.3068
  51   2.0000      -0.474697       -12.9172
  52   2.0000      -0.441368       -12.0102
  53   2.0000      -0.403316       -10.9748
  54   2.0000      -0.363756        -9.8983
  55   2.0000      -0.346717        -9.4346
  56   2.0000      -0.340028        -9.2526
  57   2.0000      -0.317072        -8.6280
  58   0.0000       0.015571         0.4237
  59   0.0000       0.025543         0.6950
  60   0.0000       0.030692         0.8352
  61   0.0000       0.034996         0.9523
  62   0.0000       0.045032         1.2254

MULLIKEN ATOMIC CHARGES
-----------------------
   0 N :    0.441300
   1 C :   -0.437276
   2 C :    1.010074
   3 S :   -0.384906
   4 C :   -0.334897
   5 C :   -0.876978
   6 H :    0.223418
   7 H :    0.321051
   8 H :    0.243612
   9 C :   -0.972737
  10 H :    0.369332
  11 H :    0.254299
  12 H :    0.247354
  13 C :   -1.161896
  14 H :    0.351079
  15 H :    0.419279
  16 H :    0.367654
  17 C :    1.703123
  18 O :   -1.290025
  19 C :   -1.071665
  20 H :    0.308467
  21 H :    0.340126
  22 H :    0.307020
  23 S :   -0.400121
  24 C :   -0.846394
  25 H :    0.326808
  26 H :    0.268902
  27 H :    0.273995
Sum of atomic charges:   -0.0000000

LOEWDIN ATOMIC CHARGES
----------------------
   0 N :    0.112781
   1 C :   -0.267848
   2 C :   -0.454570
   3 S :    1.340014
   4 C :   -0.428506
   5 C :    0.595875
   6 H :   -0.158378
   7 H :   -0.183941
   8 H :   -0.158895
   9 C :    0.520645
  10 H :   -0.194040
  11 H :   -0.175320
  12 H :   -0.173368
  13 C :    0.509079
  14 H :   -0.164042
  15 H :   -0.238962
  16 H :   -0.142338
  17 C :   -1.112693
  18 O :    0.344137
  19 C :    0.461356
  20 H :   -0.180378
  21 H :   -0.206671
  22 H :   -0.179854
  23 S :    1.149577
  24 C :    0.191091
  25 H :   -0.294601
  26 H :   -0.260580
  27 H :   -0.249571

  Mayer bond orders larger than 0.100000
B(  0-N ,  1-C ) :   0.2539 B(  0-N ,  2-C ) :  -0.3646 B(  0-N ,  4-C ) :   1.3853
B(  0-N ,  5-C ) :  -0.2284 B(  0-N , 13-C ) :   0.9963 B(  1-C ,  2-C ) :   1.1589
B(  1-C ,  3-S ) :   0.3200 B(  1-C ,  4-C ) :   0.2689 B(  1-C ,  5-C ) :   0.8790
B(  1-C , 13-C ) :  -0.1497 B(  2-C ,  3-S ) :   0.6739 B(  2-C ,  5-C ) :  -0.2016
B(  2-C ,  9-C ) :   0.5698 B(  3-S ,  4-C ) :   0.9708 B(  4-C , 17-C ) :   0.3583
B(  4-C , 18-O ) :   0.2317 B(  4-C , 23-S ) :   0.1656 B(  5-C ,  6-H ) :   1.0987
B(  5-C ,  7-H ) :   0.9057 B(  5-C ,  8-H ) :   1.0694 B(  9-C , 10-H ) :   0.8176
B(  9-C , 11-H ) :   1.0652 B(  9-C , 12-H ) :   1.0666 B( 13-C , 14-H ) :   0.9286
B( 13-C , 15-H ) :   0.8668 B( 13-C , 16-H ) :   0.8903 B( 17-C , 18-O ) :   0.5011
B( 17-C , 19-C ) :   0.7542 B( 17-C , 23-S ) :   0.7549 B( 19-C , 20-H ) :   0.9773
B( 19-C , 21-H ) :   0.9335 B( 19-C , 22-H ) :   0.9791 B( 23-S , 24-C ) :   0.9483
B( 24-C , 25-H ) :   0.9046 B( 24-C , 26-H ) :   0.9823 B( 24-C , 27-H ) :   0.9132

MP2 TOTAL ENERGY:    -1276.401339321 Eh
FINAL SINGLE POINT ENERGY     -1276.401339321224

DIPOLE MOMENT
-------------
                                X             Y             Z
Electronic contribution:     -6.19074      -6.53047      -1.46836
Nuclear contribution   :      9.01617       8.10811       1.70539
                        -----------------------------------------
Total Dipole Moment    :      2.82543       1.57764       0.23703
                        -----------------------------------------
Magnitude (a.u.)       :      3.24471
Magnitude (Debye)      :      8.24741

Rotational constants in cm-1:     0.032963     0.014113     0.012441
Rotational constants in MHz :   988.213549   423.096115   372.960944

                             ****ORCA TERMINATED NORMALLY****
TOTAL RUN TIME: 0 days 0 hours 18 minutes 16 seconds 612 msec
