                         Program Version 4.2.1 -  RELEASE  -
|  1> %pal
|  2>  nprocs 32
|  3> end
|  4> !RI-MP2 aug-cc-pVTZ aug-cc-pVTZ/C TightSCF
|  5> %maxcore 4500
|  6> *xyzfile 0 1  05_5P2.xyz
|  7>
|  8>
|  9>                          ****END OF INPUT****

CARTESIAN COORDINATES (ANGSTROEM)
---------------------------------
  C      0.663575    1.184983   -0.060040
  H      1.233125   -2.090525   -0.207527
  H     -1.233143   -2.090524   -0.207429
  H      2.317885    0.000002   -0.229525
  C     -0.663581    1.184982   -0.059986
  C      0.663575   -1.184982   -0.060061
  N     -1.402417   -0.000002    0.195001
  C     -0.663581   -1.184981   -0.060007
  N      1.402435   -0.000002    0.194891
  H      1.233125    2.090528   -0.207490
  H     -2.317910    0.000002   -0.229320
  H     -1.233143    2.090528   -0.207392

 Total Charge           Charge          ....    0
 Multiplicity           Mult            ....    1
 Number of Electrons    NEL             ....   44
 Basis Dimension        Dim             ....  414

ORBITAL ENERGIES
----------------

  NO   OCC          E(Eh)            E(eV)
   0   2.0000     -15.567007      -423.5998
   1   2.0000     -15.567004      -423.5997
   2   2.0000     -11.251567      -306.1707
   3   2.0000     -11.251546      -306.1701
   4   2.0000     -11.249786      -306.1222
   5   2.0000     -11.249785      -306.1222
   6   2.0000      -1.267456       -34.4892
   7   2.0000      -1.196957       -32.5708
   8   2.0000      -1.034132       -28.1402
   9   2.0000      -0.944545       -25.7024
  10   2.0000      -0.836411       -22.7599
  11   2.0000      -0.742600       -20.2072
  12   2.0000      -0.693782       -18.8788
  13   2.0000      -0.658476       -17.9181
  14   2.0000      -0.635415       -17.2905
  15   2.0000      -0.601629       -16.3712
  16   2.0000      -0.577369       -15.7110
  17   2.0000      -0.532145       -14.4804
  18   2.0000      -0.511142       -13.9089
  19   2.0000      -0.474356       -12.9079
  20   2.0000      -0.370732       -10.0881
  21   2.0000      -0.252643        -6.8748
  22   0.0000       0.027712         0.7541
  23   0.0000       0.031584         0.8595
  24   0.0000       0.037437         1.0187
  25   0.0000       0.047572         1.2945
  26   0.0000       0.055148         1.5007

MULLIKEN ATOMIC CHARGES
-----------------------
   0 C :   -0.464777
   1 H :    0.591356
   2 H :    0.591358
   3 H :    0.020836
   4 C :   -0.464788
   5 C :   -0.464777
   6 N :   -0.273983
   7 C :   -0.464787
   8 N :   -0.273990
   9 H :    0.591357
  10 H :    0.020837
  11 H :    0.591357
Sum of atomic charges:    0.0000000

LOEWDIN ATOMIC CHARGES
----------------------
   0 C :    0.092865
   1 H :   -0.188970
   2 H :   -0.188969
   3 H :   -0.315298
   4 C :    0.092864
   5 C :    0.092864
   6 N :    0.507508
   7 C :    0.092863
   8 N :    0.507510
   9 H :   -0.188971
  10 H :   -0.315296
  11 H :   -0.188969

  Mayer bond orders larger than 0.100000
B(  0-C ,  4-C ) :   1.5966 B(  0-C ,  8-N ) :   0.8445 B(  0-C ,  9-H ) :   0.6002
B(  1-H ,  5-C ) :   0.6002 B(  2-H ,  7-C ) :   0.6002 B(  3-H ,  8-N ) :   1.1529
B(  4-C ,  6-N ) :   0.8445 B(  4-C , 11-H ) :   0.6002 B(  5-C ,  7-C ) :   1.5966
B(  5-C ,  8-N ) :   0.8445 B(  6-N ,  7-C ) :   0.8445 B(  6-N ,  8-N ) :  -0.1332
B(  6-N , 10-H ) :   1.1529

MP2 TOTAL ENERGY:     -264.964590584 Eh
FINAL SINGLE POINT ENERGY      -264.964590584152

DIPOLE MOMENT
-------------
                                X             Y             Z
Electronic contribution:      0.00001      -0.00000       0.62211
Nuclear contribution   :     -0.00006       0.00001      -1.29469
                        -----------------------------------------
Total Dipole Moment    :     -0.00005       0.00001      -0.67257
                        -----------------------------------------
Magnitude (a.u.)       :      0.67257
Magnitude (Debye)      :      1.70955

Rotational constants in cm-1:     0.194704     0.177986     0.094547
Rotational constants in MHz :  5837.067207  5335.889175  2834.443384

                             ****ORCA TERMINATED NORMALLY****
TOTAL RUN TIME: 0 days 0 hours 1 minutes 2 seconds 805 msec
