                         Program Version 4.2.1 -  RELEASE  -
|  1> %pal
|  2>  nprocs 32
|  3> end
|  4> !RI-MP2 aug-cc-pVTZ aug-cc-pVTZ/C TightSCF
|  5> %maxcore 4500
|  6> *xyzfile -1 1  05_4R.xyz
|  7>
|  8>
|  9>                          ****END OF INPUT****

CARTESIAN COORDINATES (ANGSTROEM)
---------------------------------
  O     -2.870674   -1.201143   -0.462460
  C     -2.589824    0.086690    0.051355
  C     -1.185513    0.579601   -0.277371
  H     -2.729649    0.119138    1.140990
  H     -3.302207    0.782291   -0.395475
  C     -0.104971   -0.167559    0.521863
  O     -0.307124   -1.579219    0.409765
  C      1.309509    0.303709    0.131205
  H     -0.243391    0.094617    1.577789
  C      2.407860   -0.742270   -0.046632
  O      3.603882   -0.369013   -0.379558
  O      1.474858    1.505315    0.016750
  O     -1.156273    1.958243    0.028129
  H     -1.004735    0.411090   -1.349401
  H     -0.210597    2.200577    0.028267
  H      0.431314   -1.943945   -0.095701
  H     -2.111375   -1.749059   -0.216229
  H      2.299899   -1.328040    0.922450
  H      1.891028   -1.461161   -0.796217

 Total Charge           Charge          ....   -1
 Multiplicity           Mult            ....    1
 Number of Electrons    NEL             ....   80
 Basis Dimension        Dim             ....  667

ORBITAL ENERGIES
----------------

  NO   OCC          E(Eh)            E(eV)
   0   2.0000     -20.464029      -556.8545
   1   2.0000     -20.441997      -556.2550
   2   2.0000     -20.434106      -556.0403
   3   2.0000     -20.414603      -555.5096
   4   2.0000     -20.263308      -551.3926
   5   2.0000     -11.190094      -304.4979
   6   2.0000     -11.178816      -304.1910
   7   2.0000     -11.171093      -303.9809
   8   2.0000     -11.165728      -303.8349
   9   2.0000     -11.120041      -302.5917
  10   2.0000      -1.281716       -34.8773
  11   2.0000      -1.257942       -34.2304
  12   2.0000      -1.248114       -33.9629
  13   2.0000      -1.235210       -33.6118
  14   2.0000      -1.087866       -29.6023
  15   2.0000      -0.919383       -25.0177
  16   2.0000      -0.842613       -22.9287
  17   2.0000      -0.779706       -21.2169
  18   2.0000      -0.706007       -19.2114
  19   2.0000      -0.629880       -17.1399
  20   2.0000      -0.599433       -16.3114
  21   2.0000      -0.576739       -15.6939
  22   2.0000      -0.564795       -15.3688
  23   2.0000      -0.521773       -14.1982
  24   2.0000      -0.509456       -13.8630
  25   2.0000      -0.493456       -13.4276
  26   2.0000      -0.474906       -12.9229
  27   2.0000      -0.465596       -12.6695
  28   2.0000      -0.445207       -12.1147
  29   2.0000      -0.443752       -12.0751
  30   2.0000      -0.424253       -11.5445
  31   2.0000      -0.403460       -10.9787
  32   2.0000      -0.372922       -10.1477
  33   2.0000      -0.359462        -9.7815
  34   2.0000      -0.358561        -9.7570
  35   2.0000      -0.333608        -9.0779
  36   2.0000      -0.313740        -8.5373
  37   2.0000      -0.283209        -7.7065
  38   2.0000      -0.174074        -4.7368
  39   2.0000      -0.171649        -4.6708
  40   0.0000       0.109026         2.9667
  41   0.0000       0.116526         3.1708
  42   0.0000       0.121558         3.3078
  43   0.0000       0.131182         3.5696
  44   0.0000       0.137324         3.7368

MULLIKEN ATOMIC CHARGES
-----------------------
   0 O :   -0.745038
   1 C :   -0.202683
   2 C :    0.417038
   3 H :    0.220039
   4 H :    0.328462
   5 C :    0.341225
   6 O :   -0.731305
   7 C :    0.581517
   8 H :    0.348684
   9 C :    0.191355
  10 O :   -1.129499
  11 O :   -0.935296
  12 O :   -0.889749
  13 H :    0.252715
  14 H :    0.282280
  15 H :    0.151094
  16 H :    0.235018
  17 H :    0.187208
  18 H :    0.096934
Sum of atomic charges:   -1.0000000

LOEWDIN ATOMIC CHARGES
----------------------
   0 O :    0.812953
   1 C :    0.020250
   2 C :   -0.285294
   3 H :   -0.156286
   4 H :   -0.170726
   5 C :   -0.221766
   6 O :    0.886139
   7 C :   -0.463266
   8 H :   -0.145792
   9 C :   -0.420723
  10 O :    0.209855
  11 O :    0.520023
  12 O :    0.836347
  13 H :   -0.132714
  14 H :   -0.676778
  15 H :   -0.576512
  16 H :   -0.640420
  17 H :   -0.191948
  18 H :   -0.203339

  Mayer bond orders larger than 0.100000
B(  0-O ,  1-C ) :   0.6628 B(  0-O , 16-H ) :   0.9083 B(  1-C ,  2-C ) :   0.8392
B(  1-C ,  3-H ) :   1.0241 B(  1-C ,  4-H ) :   0.9492 B(  2-C ,  5-C ) :   0.8836
B(  2-C ,  6-O ) :   0.1044 B(  2-C , 12-O ) :   0.4424 B(  2-C , 13-H ) :   0.9655
B(  5-C ,  6-O ) :   0.4467 B(  5-C ,  7-C ) :   0.7901 B(  5-C ,  8-H ) :   0.9140
B(  5-C , 12-O ) :   0.1300 B(  6-O , 15-H ) :   1.0003 B(  7-C ,  9-C ) :   0.7778
B(  7-C , 11-O ) :   1.0913 B(  9-C , 10-O ) :   1.0250 B(  9-C , 17-H ) :   1.0154
B(  9-C , 18-H ) :   1.0083 B( 12-O , 14-H ) :   0.8455

MP2 TOTAL ENERGY:     -571.159495796 Eh
FINAL SINGLE POINT ENERGY      -571.159495795771

DIPOLE MOMENT
-------------
                                X             Y             Z
Electronic contribution:      1.54448       2.42684      -0.13587
Nuclear contribution   :     -4.94285      -2.85503       0.80627
                        -----------------------------------------
Total Dipole Moment    :     -3.39837      -0.42818       0.67039
                        -----------------------------------------
Magnitude (a.u.)       :      3.49023
Magnitude (Debye)      :      8.87146

Rotational constants in cm-1:     0.079680     0.026399     0.020821
Rotational constants in MHz :  2388.749823   791.411008   624.203651

                             ****ORCA TERMINATED NORMALLY****
TOTAL RUN TIME: 0 days 0 hours 5 minutes 2 seconds 699 msec
