                         Program Version 4.2.1 -  RELEASE  -
|  1> %pal
|  2>  nprocs 32
|  3> end
|  4> !RI-MP2 aug-cc-pVTZ aug-cc-pVTZ/C TightSCF
|  5> %maxcore 4500
|  6> *xyzfile 0 2  04_64TS.xyz
|  7>
|  8>
|  9>                          ****END OF INPUT****

CARTESIAN COORDINATES (ANGSTROEM)
---------------------------------
  N     -0.567708    0.423515   -0.476262
  S     -0.357362   -1.199621   -0.692778
  O      0.105650   -1.785441    0.753468
  C      1.488244   -1.662821    1.143176
  C      1.798075   -0.289752    1.722751
  H      2.118603   -1.904571    0.287325
  H      1.614731   -2.432479    1.902344
  C      1.710881    0.861851    0.745054
  H      2.818090   -0.333529    2.126472
  H      1.133973   -0.114083    2.572148
  H      0.588273    0.770013    0.144312
  C      2.730513    0.921076   -0.368441
  H      1.595770    1.822492    1.251232
  C     -1.740021    0.969792    0.257336
  C     -2.069747    0.249676    1.565585
  C     -1.393873    2.433503    0.537169
  C     -2.937994    0.921560   -0.701985
  H     -3.784045    1.435386   -0.240136
  H     -3.225430   -0.104025   -0.922778
  H     -2.691505    1.424818   -1.637870
  H     -2.337670   -0.792284    1.394753
  H     -2.916393    0.746039    2.044109
  H     -1.225956    0.278938    2.256545
  H     -2.269839    2.944830    0.938993
  H     -0.590091    2.520977    1.269444
  H     -1.086863    2.937976   -0.380049
  O      0.766232   -1.356198   -1.586809
  O     -1.623258   -1.834031   -0.951621
  C      2.464806    2.057885   -1.348669
  H      2.748266   -0.026703   -0.909687
  H      3.721406    1.043837    0.090442
  H      3.236877    2.099927   -2.118384
  H      1.502952    1.915279   -1.844144
  H      2.446305    3.025224   -0.838950

 Total Charge           Charge          ....    0
 Multiplicity           Mult            ....    2
 Number of Electrons    NEL             ....  121
 Basis Dimension        Dim             .... 1108

ORBITAL ENERGIES
----------------
                 SPIN UP ORBITALS
  NO   OCC          E(Eh)            E(eV)
   0   1.0000     -92.230433     -2509.7177
   1   1.0000     -20.611938      -560.8793
   2   1.0000     -20.555276      -559.3375
   3   1.0000     -20.551386      -559.2316
   4   1.0000     -15.618729      -425.0072
   5   1.0000     -11.305379      -307.6350
   6   1.0000     -11.290387      -307.2270
   7   1.0000     -11.264835      -306.5317
   8   1.0000     -11.250319      -306.1367
   9   1.0000     -11.230466      -305.5965
  10   1.0000     -11.227946      -305.5279
  11   1.0000     -11.221158      -305.3432
  12   1.0000     -11.216460      -305.2154
  13   1.0000     -11.215648      -305.1933
  14   1.0000      -9.190566      -250.0880
  15   1.0000      -6.876645      -187.1230
  16   1.0000      -6.875362      -187.0881
  17   1.0000      -6.875072      -187.0802
  18   1.0000      -1.502432       -40.8832
  19   1.0000      -1.383424       -37.6449
  20   1.0000      -1.353564       -36.8323
  21   1.0000      -1.252540       -34.0833
  22   1.0000      -1.118896       -30.4467
  23   1.0000      -1.079031       -29.3619
  24   1.0000      -1.036588       -28.2070
  25   1.0000      -0.958557       -26.0837
  26   1.0000      -0.951917       -25.9030
  27   1.0000      -0.943501       -25.6740
  28   1.0000      -0.882338       -24.0096
  29   1.0000      -0.841988       -22.9116
  30   1.0000      -0.814115       -22.1532
  31   1.0000      -0.770083       -20.9550
  32   1.0000      -0.741191       -20.1688
  33   1.0000      -0.694499       -18.8983
  34   1.0000      -0.692395       -18.8410
  35   1.0000      -0.671493       -18.2722
  36   1.0000      -0.655199       -17.8289
  37   1.0000      -0.644373       -17.5343
  38   1.0000      -0.624521       -16.9941
  39   1.0000      -0.615884       -16.7590
  40   1.0000      -0.612587       -16.6693
  41   1.0000      -0.596889       -16.2422
  42   1.0000      -0.590825       -16.0772
  43   1.0000      -0.564301       -15.3554
  44   1.0000      -0.563990       -15.3470
  45   1.0000      -0.553638       -15.0653
  46   1.0000      -0.547806       -14.9066
  47   1.0000      -0.537970       -14.6389
  48   1.0000      -0.529619       -14.4117
  49   1.0000      -0.519517       -14.1368
  50   1.0000      -0.513920       -13.9845
  51   1.0000      -0.510951       -13.9037
  52   1.0000      -0.503237       -13.6938
  53   1.0000      -0.499393       -13.5892
  54   1.0000      -0.489681       -13.3249
  55   1.0000      -0.483967       -13.1694
  56   1.0000      -0.477821       -13.0022
  57   1.0000      -0.474445       -12.9103
  58   1.0000      -0.472033       -12.8447
  59   1.0000      -0.436723       -11.8838
  60   1.0000      -0.387528       -10.5452
  61   0.0000       0.018689         0.5085
  62   0.0000       0.027939         0.7603
  63   0.0000       0.030482         0.8295
  64   0.0000       0.035232         0.9587
  65   0.0000       0.041453         1.1280

                 SPIN DOWN ORBITALS
  NO   OCC          E(Eh)            E(eV)
   0   1.0000     -92.230840     -2509.7287
   1   1.0000     -20.612129      -560.8845
   2   1.0000     -20.553602      -559.2919
   3   1.0000     -20.551586      -559.2371
   4   1.0000     -15.594226      -424.3405
   5   1.0000     -11.305018      -307.6252
   6   1.0000     -11.291671      -307.2620
   7   1.0000     -11.251562      -306.1706
   8   1.0000     -11.249712      -306.1202
   9   1.0000     -11.231504      -305.6248
  10   1.0000     -11.227656      -305.5200
  11   1.0000     -11.221086      -305.3413
  12   1.0000     -11.216299      -305.2110
  13   1.0000     -11.214445      -305.1606
  14   1.0000      -9.191116      -250.1030
  15   1.0000      -6.876882      -187.1295
  16   1.0000      -6.876377      -187.1157
  17   1.0000      -6.875587      -187.0942
  18   1.0000      -1.500046       -40.8183
  19   1.0000      -1.382554       -37.6212
  20   1.0000      -1.351802       -36.7844
  21   1.0000      -1.202646       -32.7257
  22   1.0000      -1.100709       -29.9518
  23   1.0000      -1.065076       -28.9822
  24   1.0000      -1.034041       -28.1377
  25   1.0000      -0.951450       -25.8903
  26   1.0000      -0.946676       -25.7604
  27   1.0000      -0.936250       -25.4767
  28   1.0000      -0.874006       -23.7829
  29   1.0000      -0.836365       -22.7586
  30   1.0000      -0.794707       -21.6251
  31   1.0000      -0.763728       -20.7821
  32   1.0000      -0.720692       -19.6110
  33   1.0000      -0.690358       -18.7856
  34   1.0000      -0.675564       -18.3830
  35   1.0000      -0.650742       -17.7076
  36   1.0000      -0.643464       -17.5095
  37   1.0000      -0.639846       -17.4111
  38   1.0000      -0.620078       -16.8732
  39   1.0000      -0.612494       -16.6668
  40   1.0000      -0.607252       -16.5242
  41   1.0000      -0.587428       -15.9847
  42   1.0000      -0.585381       -15.9290
  43   1.0000      -0.561094       -15.2681
  44   1.0000      -0.552597       -15.0369
  45   1.0000      -0.549299       -14.9472
  46   1.0000      -0.543405       -14.7868
  47   1.0000      -0.528837       -14.3904
  48   1.0000      -0.518685       -14.1141
  49   1.0000      -0.513688       -13.9782
  50   1.0000      -0.504983       -13.7413
  51   1.0000      -0.502262       -13.6672
  52   1.0000      -0.497080       -13.5262
  53   1.0000      -0.493343       -13.4246
  54   1.0000      -0.484912       -13.1951
  55   1.0000      -0.480451       -13.0737
  56   1.0000      -0.474006       -12.8984
  57   1.0000      -0.471263       -12.8237
  58   1.0000      -0.455433       -12.3930
  59   1.0000      -0.409147       -11.1334
  60   0.0000       0.018648         0.5074
  61   0.0000       0.027114         0.7378
  62   0.0000       0.030406         0.8274
  63   0.0000       0.032052         0.8722
  64   0.0000       0.041204         1.1212

MULLIKEN ATOMIC CHARGES AND SPIN POPULATIONS
--------------------------------------------
   0 N :   -0.593317    0.838028
   1 S :    2.336357   -0.073482
   2 O :   -0.866083   -0.002785
   3 C :   -0.349874    0.022502
   4 C :   -0.587810   -0.094256
   5 H :    0.311516   -0.001176
   6 H :    0.376716   -0.001891
   7 C :   -0.016136    0.705411
   8 H :    0.294076    0.034210
   9 H :    0.185168   -0.004143
  10 H :    0.595867   -0.404538
  11 C :   -0.568569   -0.052587
  12 H :    0.475842    0.000310
  13 C :    2.052234   -0.094901
  14 C :   -1.286219    0.005848
  15 C :   -1.421017    0.019785
  16 C :   -1.473415    0.035364
  17 H :    0.232371    0.007783
  18 H :    0.326599   -0.000175
  19 H :    0.263591   -0.001526
  20 H :    0.283677   -0.002170
  21 H :    0.137426   -0.002739
  22 H :    0.491589   -0.004624
  23 H :    0.146029   -0.004617
  24 H :    0.382758    0.002751
  25 H :    0.269925   -0.001181
  26 O :   -1.094006   -0.003590
  27 O :   -1.122514    0.030351
  28 C :   -1.117606    0.014835
  29 H :    0.234608    0.002525
  30 H :    0.258231    0.036255
  31 H :    0.253259   -0.003679
  32 H :    0.382815   -0.001155
  33 H :    0.205908   -0.000740
Sum of atomic charges         :    0.0000000

LOEWDIN ATOMIC CHARGES AND SPIN POPULATIONS
-------------------------------------------
   0 N :    0.360780    0.433324
   1 S :   -0.026953    0.020577
   2 O :    0.374866   -0.004818
   3 C :    0.020659    0.001101
   4 C :    0.301397    0.033365
   5 H :   -0.195974    0.000161
   6 H :   -0.155666   -0.000139
   7 C :    0.254404    0.253611
   8 H :   -0.133815    0.012651
   9 H :   -0.152328   -0.000411
  10 H :   -0.478293    0.091787
  11 C :    0.269708    0.037797
  12 H :   -0.126745    0.038797
  13 C :   -0.519477    0.031026
  14 C :    0.579040   -0.002899
  15 C :    0.579724   -0.002648
  16 C :    0.578625    0.018315
  17 H :   -0.157163    0.005347
  18 H :   -0.208095    0.000246
  19 H :   -0.155569    0.001075
  20 H :   -0.180185   -0.000201
  21 H :   -0.152382   -0.000879
  22 H :   -0.172975   -0.000373
  23 H :   -0.152299   -0.000586
  24 H :   -0.174326   -0.001452
  25 H :   -0.149029   -0.000571
  26 O :    0.102549   -0.005057
  27 O :    0.097091    0.027588
  28 C :    0.591287   -0.000700
  29 H :   -0.184546    0.000913
  30 H :   -0.133935    0.015002
  31 H :   -0.164886   -0.000421
  32 H :   -0.170365   -0.001326
  33 H :   -0.165124   -0.000201

  Mayer bond orders larger than 0.100000
B(  0-N ,  1-S ) :   1.1385 B(  0-N ,  2-O ) :   0.1584 B(  0-N , 10-H ) :  -0.2909
B(  0-N , 13-C ) :   0.2224 B(  1-S ,  2-O ) :   0.6978 B(  1-S , 26-O ) :   1.2336
B(  1-S , 27-O ) :   0.9847 B(  2-O ,  3-C ) :   0.7401 B(  3-C ,  4-C ) :   0.9657
B(  3-C ,  5-H ) :   1.0555 B(  3-C ,  6-H ) :   0.8440 B(  4-C ,  7-C ) :   0.8234
B(  4-C ,  8-H ) :   0.9019 B(  4-C ,  9-H ) :   1.1014 B(  4-C , 11-C ) :   0.1183
B(  7-C , 10-H ) :   0.5062 B(  7-C , 11-C ) :   0.8143 B(  7-C , 12-H ) :   0.7637
B( 10-H , 26-O ) :  -0.1665 B( 11-C , 28-C ) :   0.8798 B( 11-C , 29-H ) :   0.9813
B( 11-C , 30-H ) :   0.9761 B( 13-C , 14-C ) :   0.5006 B( 13-C , 15-C ) :   0.2760
B( 13-C , 16-C ) :   0.1525 B( 13-C , 21-H ) :  -0.1030 B( 13-C , 23-H ) :  -0.1563
B( 14-C , 20-H ) :   1.0259 B( 14-C , 21-H ) :   1.1823 B( 14-C , 22-H ) :   0.7913
B( 15-C , 23-H ) :   1.2411 B( 15-C , 24-H ) :   0.9265 B( 15-C , 25-H ) :   1.0513
B( 16-C , 17-H ) :   1.1212 B( 16-C , 18-H ) :   1.0152 B( 16-C , 19-H ) :   1.0676
B( 28-C , 31-H ) :   1.0263 B( 28-C , 32-H ) :   0.8521 B( 28-C , 33-H ) :   1.0527

MP2 TOTAL ENERGY:    -1031.877923277 Eh
FINAL SINGLE POINT ENERGY     -1031.877923276787

DIPOLE MOMENT
-------------
                                X             Y             Z
Electronic contribution:     -2.67169     -16.26773      -5.88058
Nuclear contribution   :      3.46846      17.60048       7.53993
                        -----------------------------------------
Total Dipole Moment    :      0.79677       1.33275       1.65935
                        -----------------------------------------
Magnitude (a.u.)       :      2.27256
Magnitude (Debye)      :      5.77639

Rotational constants in cm-1:     0.024528     0.018749     0.015413
Rotational constants in MHz :   735.335502   562.066779   462.059597

                             ****ORCA TERMINATED NORMALLY****
TOTAL RUN TIME: 0 days 1 hours 4 minutes 58 seconds 484 msec
