                         Program Version 4.2.1 -  RELEASE  -
|  1> %pal
|  2>  nprocs 32
|  3> end
|  4> !RI-MP2 aug-cc-pVTZ aug-cc-pVTZ/C TightSCF
|  5> %maxcore 4500
|  6> *xyzfile 0 1  08_13R2.xyz
|  7>
|  8>
|  9>                          ****END OF INPUT****

CARTESIAN COORDINATES (ANGSTROEM)
---------------------------------
  N      0.746120   -0.000001   -0.116045
  C     -0.706140   -0.000001    0.017647
  H     -1.114347    0.877695   -0.486648
  H     -1.114365   -0.877610   -0.486786
  H     -1.077156   -0.000077    1.051562
  H      1.159936   -0.817242    0.314152
  H      1.159933    0.817242    0.314153

 Total Charge           Charge          ....    0
 Multiplicity           Mult            ....    1
 Number of Electrons    NEL             ....   18
 Basis Dimension        Dim             ....  207

ORBITAL ENERGIES
----------------

  NO   OCC          E(Eh)            E(eV)
   0   2.0000     -15.538417      -422.8218
   1   2.0000     -11.241637      -305.9005
   2   2.0000      -1.168830       -31.8055
   3   2.0000      -0.895160       -24.3586
   4   2.0000      -0.663531       -18.0556
   5   2.0000      -0.602481       -16.3944
   6   2.0000      -0.559069       -15.2131
   7   2.0000      -0.516651       -14.0588
   8   2.0000      -0.387379       -10.5411
   9   0.0000       0.029686         0.8078
  10   0.0000       0.042847         1.1659
  11   0.0000       0.043897         1.1945
  12   0.0000       0.049292         1.3413
  13   0.0000       0.068839         1.8732

MULLIKEN ATOMIC CHARGES
-----------------------
   0 N :   -0.499367
   1 C :   -0.739005
   2 H :    0.326089
   3 H :    0.326080
   4 H :    0.307579
   5 H :    0.139310
   6 H :    0.139314
Sum of atomic charges:    0.0000000

LOEWDIN ATOMIC CHARGES
----------------------
   0 N :    0.800901
   1 C :    0.431190
   2 H :   -0.186284
   3 H :   -0.186284
   4 H :   -0.179863
   5 H :   -0.339830
   6 H :   -0.339830

  Mayer bond orders larger than 0.100000
B(  0-N ,  1-C ) :   0.8327 B(  0-N ,  5-H ) :   0.9815 B(  0-N ,  6-H ) :   0.9815
B(  1-C ,  2-H ) :   0.9069 B(  1-C ,  3-H ) :   0.9069 B(  1-C ,  4-H ) :   0.9003

MP2 TOTAL ENERGY:      -95.666995011 Eh
FINAL SINGLE POINT ENERGY       -95.666995011415

DIPOLE MOMENT
-------------
                                X             Y             Z
Electronic contribution:      0.97707      -0.00001      -0.25715
Nuclear contribution   :     -1.06845       0.00001       0.76818
                        -----------------------------------------
Total Dipole Moment    :     -0.09138       0.00000       0.51103
                        -----------------------------------------
Magnitude (a.u.)       :      0.51913
Magnitude (Debye)      :      1.31953

Rotational constants in cm-1:     3.480462     0.762472     0.730897
Rotational constants in MHz : 104341.624587 22858.350189 21911.733527

                             ****ORCA TERMINATED NORMALLY****
TOTAL RUN TIME: 0 days 0 hours 0 minutes 12 seconds 336 msec
