                         Program Version 4.2.1 -  RELEASE  -
|  1> %pal
|  2>  nprocs 32
|  3> end
|  4> !RI-MP2 aug-cc-pVTZ aug-cc-pVTZ/C TightSCF
|  5> %maxcore 4500
|  6> *xyzfile 0 1  10_86TS.xyz
|  7>
|  8>
|  9>                          ****END OF INPUT****

CARTESIAN COORDINATES (ANGSTROEM)
---------------------------------
  O     -0.477684   -1.361735   -0.246471
  C     -1.269347   -0.493171    0.260126
  C     -1.465236    0.748644   -0.294256
  C      0.619812    1.421859    0.328890
  C      1.349183    0.442836   -0.304694
  C      1.307584   -0.863290    0.178628
  H     -1.223160    0.917218   -1.333942
  H     -2.156488    1.441022    0.173139
  H      0.542828    2.418534   -0.087995
  H      0.407337    1.347284    1.387444
  H      1.658058    0.601028   -1.332216
  H      1.798681   -1.660367   -0.362063
  H      1.195861   -1.035704    1.241650
  H     -1.653615   -0.676398    1.273591

 Total Charge           Charge          ....    0
 Multiplicity           Mult            ....    1
 Number of Electrons    NEL             ....   46
 Basis Dimension        Dim             ....  460

ORBITAL ENERGIES
----------------

  NO   OCC          E(Eh)            E(eV)
   0   2.0000     -20.541459      -558.9615
   1   2.0000     -11.287225      -307.1410
   2   2.0000     -11.280843      -306.9673
   3   2.0000     -11.272283      -306.7344
   4   2.0000     -11.221102      -305.3417
   5   2.0000     -11.218346      -305.2667
   6   2.0000      -1.350220       -36.7413
   7   2.0000      -1.089421       -29.6446
   8   2.0000      -1.004004       -27.3203
   9   2.0000      -0.924813       -25.1654
  10   2.0000      -0.784996       -21.3608
  11   2.0000      -0.767568       -20.8866
  12   2.0000      -0.675259       -18.3747
  13   2.0000      -0.648056       -17.6345
  14   2.0000      -0.625193       -17.0124
  15   2.0000      -0.609220       -16.5777
  16   2.0000      -0.560045       -15.2396
  17   2.0000      -0.548762       -14.9326
  18   2.0000      -0.532336       -14.4856
  19   2.0000      -0.526511       -14.3271
  20   2.0000      -0.427952       -11.6452
  21   2.0000      -0.376383       -10.2419
  22   2.0000      -0.308778        -8.4023
  23   0.0000       0.028258         0.7689
  24   0.0000       0.034877         0.9490
  25   0.0000       0.037032         1.0077
  26   0.0000       0.044365         1.2072
  27   0.0000       0.052697         1.4340

MULLIKEN ATOMIC CHARGES
-----------------------
   0 O :   -0.816581
   1 C :   -0.164939
   2 C :   -0.704886
   3 C :   -0.665840
   4 C :   -0.525404
   5 C :   -0.358885
   6 H :    0.469367
   7 H :    0.331618
   8 H :    0.425833
   9 H :    0.434677
  10 H :    0.346143
  11 H :    0.381216
  12 H :    0.346218
  13 H :    0.501463
Sum of atomic charges:    0.0000000

LOEWDIN ATOMIC CHARGES
----------------------
   0 O :    0.480531
   1 C :   -0.288494
   2 C :    0.428422
   3 C :    0.447978
   4 C :    0.117813
   5 C :    0.331785
   6 H :   -0.212648
   7 H :   -0.211565
   8 H :   -0.176025
   9 H :   -0.186416
  10 H :   -0.187250
  11 H :   -0.174622
  12 H :   -0.182266
  13 H :   -0.187244

  Mayer bond orders larger than 0.100000
B(  0-O ,  1-C ) :   1.2413 B(  0-O ,  3-C ) :   0.1220 B(  0-O ,  5-C ) :   0.2468
B(  1-C ,  2-C ) :   1.3699 B(  1-C , 13-H ) :   0.7180 B(  2-C ,  3-C ) :   0.4553
B(  2-C ,  5-C ) :   0.1035 B(  2-C ,  6-H ) :   0.7717 B(  2-C ,  7-H ) :   0.9104
B(  3-C ,  4-C ) :   1.3165 B(  3-C ,  8-H ) :   0.8454 B(  3-C ,  9-H ) :   0.8017
B(  4-C ,  5-C ) :   1.2752 B(  4-C , 10-H ) :   0.8941 B(  5-C , 11-H ) :   0.8752
B(  5-C , 12-H ) :   0.9032

MP2 TOTAL ENERGY:     -269.933126811 Eh
FINAL SINGLE POINT ENERGY      -269.933126810672

DIPOLE MOMENT
-------------
                                X             Y             Z
Electronic contribution:     -0.22655      -2.63553      -0.51699
Nuclear contribution   :      0.57716       3.42118       0.98155
                        -----------------------------------------
Total Dipole Moment    :      0.35061       0.78564       0.46457
                        -----------------------------------------
Magnitude (a.u.)       :      0.97775
Magnitude (Debye)      :      2.48523

Rotational constants in cm-1:     0.162480     0.131704     0.083091
Rotational constants in MHz :  4871.016271  3948.376091  2490.999466

                             ****ORCA TERMINATED NORMALLY****
TOTAL RUN TIME: 0 days 0 hours 1 minutes 24 seconds 348 msec
