                         Program Version 4.2.1 -  RELEASE  -
|  1> %pal
|  2>  nprocs 32
|  3> end
|  4> !RI-MP2 aug-cc-pVTZ aug-cc-pVTZ/C TightSCF
|  5> %maxcore 4500
|  6> *xyzfile 0 2  06_31P.xyz
|  7>
|  8>
|  9>                          ****END OF INPUT****

CARTESIAN COORDINATES (ANGSTROEM)
---------------------------------
  Si     1.009991   -0.256438    1.884303
  Si    -1.200987    2.056673   -0.200994
  Si    -1.692643   -1.712535   -0.442613
  C     -0.216905    0.178798    3.250789
  H      0.237274    0.016045    4.232524
  H     -0.516298    1.228061    3.197695
  H     -1.122594   -0.428213    3.198740
  C      1.574619   -2.036687    2.151247
  H      2.089746   -2.139097    3.110697
  H      0.722493   -2.720702    2.158999
  H      2.259273   -2.371292    1.369010
  C      2.485723    0.901675    2.062191
  H      2.919441    0.805869    3.062063
  H      3.271250    0.688465    1.336423
  H      2.185943    1.942595    1.926083
  C     -1.595712    2.533109   -1.982613
  H     -2.227738    1.783995   -2.465007
  H     -2.125127    3.489559   -2.018874
  H     -0.687298    2.633870   -2.581059
  C     -2.816323    1.957195    0.767858
  H     -2.647119    1.646584    1.801263
  H     -3.305969    2.934988    0.791263
  H     -3.515683    1.249057    0.318252
  C     -0.147728    3.419490    0.567220
  H      0.031574    3.233303    1.628591
  H      0.824692    3.501554    0.077329
  H     -0.650613    4.387155    0.481735
  C     -2.691215   -1.939895    1.140872
  H     -3.148189   -1.006372    1.474738
  H     -3.493689   -2.665817    0.980852
  H     -2.066230   -2.315368    1.954461
  C     -2.874739   -1.261860   -1.842999
  H     -3.596087   -2.066690   -2.011628
  H     -3.438290   -0.353284   -1.620318
  H     -2.338226   -1.097425   -2.780849
  C     -0.902252   -3.371030   -0.869946
  H     -1.669281   -4.149583   -0.919398
  H     -0.399803   -3.340003   -1.838965
  H     -0.166735   -3.676183   -0.122221
  C      1.090971   -0.040486   -1.720807
  C      2.047386    1.097905   -1.718875
  C      2.004337   -1.284985   -1.840918
  C      3.467204    0.643088   -1.633837
  H      1.756204    2.128814   -1.870720
  C      3.352274   -0.842969   -1.258583
  H      1.610282   -2.170830   -1.342186
  H      2.127338   -1.539805   -2.898239
  H      3.971485    0.754973   -2.605921
  H      4.065429    1.217483   -0.918619
  H      4.185066   -1.442438   -1.629611
  H      3.340134   -0.948504   -0.171804
  Si    -0.084011   -0.012719   -0.180978
  H      0.398614    0.019421   -2.570919

 Total Charge           Charge          ....    0
 Multiplicity           Mult            ....    2
 Number of Electrons    NEL             ....  175
 Basis Dimension        Dim             .... 1649

ORBITAL ENERGIES
----------------
                 SPIN UP ORBITALS
  NO   OCC          E(Eh)            E(eV)
   0   1.0000     -68.746076     -1870.6758
   1   1.0000     -68.745398     -1870.6574
   2   1.0000     -68.744622     -1870.6363
   3   1.0000     -68.725644     -1870.1198
   4   1.0000     -11.219385      -305.2950
   5   1.0000     -11.218033      -305.2582
   6   1.0000     -11.216716      -305.2224
   7   1.0000     -11.215974      -305.2022
   8   1.0000     -11.210985      -305.0664
   9   1.0000     -11.196012      -304.6590
  10   1.0000     -11.195735      -304.6514
  11   1.0000     -11.195174      -304.6362
  12   1.0000     -11.194937      -304.6297
  13   1.0000     -11.194664      -304.6223
  14   1.0000     -11.194631      -304.6214
  15   1.0000     -11.194441      -304.6162
  16   1.0000     -11.194176      -304.6090
  17   1.0000     -11.193108      -304.5800
  18   1.0000      -6.093830      -165.8215
  19   1.0000      -6.093292      -165.8069
  20   1.0000      -6.092527      -165.7861
  21   1.0000      -6.077362      -165.3734
  22   1.0000      -4.200001      -114.2878
  23   1.0000      -4.199844      -114.2836
  24   1.0000      -4.199790      -114.2821
  25   1.0000      -4.199561      -114.2759
  26   1.0000      -4.199245      -114.2673
  27   1.0000      -4.199216      -114.2665
  28   1.0000      -4.198665      -114.2515
  29   1.0000      -4.198540      -114.2481
  30   1.0000      -4.198494      -114.2468
  31   1.0000      -4.183275      -113.8327
  32   1.0000      -4.182726      -113.8178
  33   1.0000      -4.182603      -113.8144
  34   1.0000      -1.125708       -30.6321
  35   1.0000      -0.969660       -26.3858
  36   1.0000      -0.965155       -26.2632
  37   1.0000      -0.962516       -26.1914
  38   1.0000      -0.959355       -26.1054
  39   1.0000      -0.958386       -26.0790
  40   1.0000      -0.923086       -25.1184
  41   1.0000      -0.921253       -25.0686
  42   1.0000      -0.920834       -25.0572
  43   1.0000      -0.918243       -24.9867
  44   1.0000      -0.917686       -24.9715
  45   1.0000      -0.917111       -24.9559
  46   1.0000      -0.782530       -21.2937
  47   1.0000      -0.761787       -20.7293
  48   1.0000      -0.698033       -18.9944
  49   1.0000      -0.660522       -17.9737
  50   1.0000      -0.642874       -17.4935
  51   1.0000      -0.622130       -16.9290
  52   1.0000      -0.621032       -16.8991
  53   1.0000      -0.587537       -15.9877
  54   1.0000      -0.573841       -15.6150
  55   1.0000      -0.572644       -15.5824
  56   1.0000      -0.568063       -15.4578
  57   1.0000      -0.563542       -15.3348
  58   1.0000      -0.562784       -15.3141
  59   1.0000      -0.560716       -15.2579
  60   1.0000      -0.554093       -15.0776
  61   1.0000      -0.552915       -15.0456
  62   1.0000      -0.550490       -14.9796
  63   1.0000      -0.544145       -14.8069
  64   1.0000      -0.541429       -14.7330
  65   1.0000      -0.537797       -14.6342
  66   1.0000      -0.536246       -14.5920
  67   1.0000      -0.533616       -14.5204
  68   1.0000      -0.532961       -14.5026
  69   1.0000      -0.530759       -14.4427
  70   1.0000      -0.526920       -14.3382
  71   1.0000      -0.525856       -14.3093
  72   1.0000      -0.524401       -14.2697
  73   1.0000      -0.510431       -13.8895
  74   1.0000      -0.495178       -13.4745
  75   1.0000      -0.478823       -13.0294
  76   1.0000      -0.472899       -12.8682
  77   1.0000      -0.469548       -12.7770
  78   1.0000      -0.436146       -11.8681
  79   1.0000      -0.430046       -11.7021
  80   1.0000      -0.429420       -11.6851
  81   1.0000      -0.424014       -11.5380
  82   1.0000      -0.423893       -11.5347
  83   1.0000      -0.421500       -11.4696
  84   1.0000      -0.405865       -11.0442
  85   1.0000      -0.335853        -9.1390
  86   1.0000      -0.333635        -9.0787
  87   1.0000      -0.291607        -7.9350
  88   0.0000       0.022728         0.6185
  89   0.0000       0.028314         0.7705
  90   0.0000       0.028363         0.7718
  91   0.0000       0.028478         0.7749
  92   0.0000       0.038482         1.0472

                 SPIN DOWN ORBITALS
  NO   OCC          E(Eh)            E(eV)
   0   1.0000     -68.746098     -1870.6764
   1   1.0000     -68.745289     -1870.6544
   2   1.0000     -68.744650     -1870.6370
   3   1.0000     -68.724905     -1870.0997
   4   1.0000     -11.219857      -305.3078
   5   1.0000     -11.217747      -305.2504
   6   1.0000     -11.215833      -305.1983
   7   1.0000     -11.214014      -305.1488
   8   1.0000     -11.196020      -304.6592
   9   1.0000     -11.195726      -304.6512
  10   1.0000     -11.195665      -304.6495
  11   1.0000     -11.195077      -304.6335
  12   1.0000     -11.194945      -304.6300
  13   1.0000     -11.194664      -304.6223
  14   1.0000     -11.194656      -304.6221
  15   1.0000     -11.194408      -304.6153
  16   1.0000     -11.194176      -304.6090
  17   1.0000     -11.193108      -304.5800
  18   1.0000      -6.093866      -165.8225
  19   1.0000      -6.093128      -165.8024
  20   1.0000      -6.092570      -165.7873
  21   1.0000      -6.076198      -165.3418
  22   1.0000      -4.200079      -114.2900
  23   1.0000      -4.199856      -114.2839
  24   1.0000      -4.199802      -114.2824
  25   1.0000      -4.199225      -114.2667
  26   1.0000      -4.199138      -114.2643
  27   1.0000      -4.199112      -114.2636
  28   1.0000      -4.198759      -114.2540
  29   1.0000      -4.198557      -114.2485
  30   1.0000      -4.198517      -114.2475
  31   1.0000      -4.182220      -113.8040
  32   1.0000      -4.182099      -113.8007
  33   1.0000      -4.180852      -113.7668
  34   1.0000      -1.109881       -30.2014
  35   1.0000      -0.969276       -26.3754
  36   1.0000      -0.962384       -26.1878
  37   1.0000      -0.960613       -26.1396
  38   1.0000      -0.958498       -26.0821
  39   1.0000      -0.932136       -25.3647
  40   1.0000      -0.923013       -25.1165
  41   1.0000      -0.921157       -25.0660
  42   1.0000      -0.920634       -25.0517
  43   1.0000      -0.918051       -24.9814
  44   1.0000      -0.917619       -24.9697
  45   1.0000      -0.917068       -24.9547
  46   1.0000      -0.780388       -21.2354
  47   1.0000      -0.728046       -19.8111
  48   1.0000      -0.690101       -18.7786
  49   1.0000      -0.652609       -17.7584
  50   1.0000      -0.635671       -17.2975
  51   1.0000      -0.621439       -16.9102
  52   1.0000      -0.620662       -16.8891
  53   1.0000      -0.586804       -15.9678
  54   1.0000      -0.573642       -15.6096
  55   1.0000      -0.572562       -15.5802
  56   1.0000      -0.564387       -15.3577
  57   1.0000      -0.563225       -15.3261
  58   1.0000      -0.561010       -15.2658
  59   1.0000      -0.558432       -15.1957
  60   1.0000      -0.553430       -15.0596
  61   1.0000      -0.552322       -15.0295
  62   1.0000      -0.549216       -14.9449
  63   1.0000      -0.541321       -14.7301
  64   1.0000      -0.538757       -14.6603
  65   1.0000      -0.537181       -14.6175
  66   1.0000      -0.534091       -14.5333
  67   1.0000      -0.532902       -14.5010
  68   1.0000      -0.530855       -14.4453
  69   1.0000      -0.527292       -14.3484
  70   1.0000      -0.525799       -14.3077
  71   1.0000      -0.525213       -14.2918
  72   1.0000      -0.520135       -14.1536
  73   1.0000      -0.502281       -13.6678
  74   1.0000      -0.487416       -13.2633
  75   1.0000      -0.475757       -12.9460
  76   1.0000      -0.471286       -12.8243
  77   1.0000      -0.464877       -12.6499
  78   1.0000      -0.433688       -11.8013
  79   1.0000      -0.429904       -11.6983
  80   1.0000      -0.429352       -11.6833
  81   1.0000      -0.423946       -11.5362
  82   1.0000      -0.423531       -11.5249
  83   1.0000      -0.421487       -11.4693
  84   1.0000      -0.380875       -10.3641
  85   1.0000      -0.333610        -9.0780
  86   1.0000      -0.332713        -9.0536
  87   0.0000       0.022752         0.6191
  88   0.0000       0.028326         0.7708
  89   0.0000       0.028383         0.7723
  90   0.0000       0.028515         0.7759
  91   0.0000       0.038494         1.0475

MULLIKEN ATOMIC CHARGES AND SPIN POPULATIONS
--------------------------------------------
   0 Si:    3.472398   -0.016079
   1 Si:    2.410504   -0.012547
   2 Si:    2.143730    0.029117
   3 C :   -2.044071   -0.002930
   4 H :   -0.068132    0.000030
   5 H :    0.330125   -0.000693
   6 H :    0.331315   -0.000644
   7 C :   -1.628963   -0.000162
   8 H :   -0.016228    0.000022
   9 H :    0.285749    0.000045
  10 H :    0.282209    0.000926
  11 C :   -1.736661    0.003280
  12 H :   -0.027430    0.000586
  13 H :    0.321058    0.005919
  14 H :    0.315387    0.005648
  15 C :   -1.681548   -0.001228
  16 H :    0.330137   -0.000003
  17 H :   -0.003935   -0.000000
  18 H :    0.300583    0.000672
  19 C :   -1.587858   -0.003675
  20 H :    0.290414   -0.001496
  21 H :    0.047953    0.000168
  22 H :    0.285466   -0.000110
  23 C :   -1.529732   -0.000929
  24 H :    0.270097   -0.000769
  25 H :    0.273409   -0.004690
  26 H :    0.052826    0.001914
  27 C :   -1.326884    0.000797
  28 H :    0.299998   -0.001454
  29 H :    0.166464    0.001098
  30 H :    0.242129   -0.000726
  31 C :   -1.492986    0.000978
  32 H :    0.050797    0.000268
  33 H :    0.321103    0.000604
  34 H :    0.206188    0.000393
  35 C :   -1.620247   -0.001450
  36 H :   -0.001405   -0.000048
  37 H :    0.183171   -0.000197
  38 H :    0.314501    0.000069
  39 C :    0.035167   -0.368559
  40 C :   -0.731077    1.530504
  41 C :   -0.854575    0.003141
  42 C :   -0.496991   -0.226857
  43 H :   -0.006035   -0.300083
  44 C :   -0.540138    0.030451
  45 H :    0.340895   -0.000295
  46 H :    0.139394   -0.014070
  47 H :    0.292379    0.096981
  48 H :    0.224592    0.032472
  49 H :    0.328998   -0.000416
  50 H :    0.270573   -0.005406
  51 Si:    2.010616    0.056339
  52 H :    0.224568    0.163094
Sum of atomic charges         :    0.0000000

LOEWDIN ATOMIC CHARGES AND SPIN POPULATIONS
-------------------------------------------
   0 Si:    0.432865    0.002056
   1 Si:    0.424946    0.001500
   2 Si:    0.433599    0.009507
   3 C :    0.546953    0.000174
   4 H :   -0.223313    0.000028
   5 H :   -0.242623    0.000049
   6 H :   -0.248105    0.000078
   7 C :    0.549968   -0.000221
   8 H :   -0.225170   -0.000062
   9 H :   -0.240194    0.000009
  10 H :   -0.242863   -0.000038
  11 C :    0.562129    0.001899
  12 H :   -0.221926    0.000237
  13 H :   -0.260301    0.001034
  14 H :   -0.239914    0.000534
  15 C :    0.549325   -0.000163
  16 H :   -0.240744   -0.000001
  17 H :   -0.227249   -0.000033
  18 H :   -0.237652   -0.000101
  19 C :    0.545139   -0.000224
  20 H :   -0.240947    0.000028
  21 H :   -0.224577   -0.000057
  22 H :   -0.245816    0.000023
  23 C :    0.545562    0.001135
  24 H :   -0.244568    0.000079
  25 H :   -0.239451    0.002073
  26 H :   -0.225937    0.000156
  27 C :    0.544312    0.003599
  28 H :   -0.245521    0.000211
  29 H :   -0.224964    0.000805
  30 H :   -0.241659    0.000137
  31 C :    0.544264    0.000827
  32 H :   -0.226926    0.000256
  33 H :   -0.248444    0.000060
  34 H :   -0.230485    0.000248
  35 C :    0.545679   -0.000252
  36 H :   -0.227031   -0.000026
  37 H :   -0.237591   -0.000047
  38 H :   -0.238718   -0.000049
  39 C :   -0.104026    0.113601
  40 C :    0.237046    0.527939
  41 C :    0.255014    0.005183
  42 C :    0.270448    0.112650
  43 H :   -0.188761    0.107836
  44 C :    0.293530    0.004820
  45 H :   -0.180089   -0.000116
  46 H :   -0.133957    0.000517
  47 H :   -0.143140    0.028779
  48 H :   -0.154502    0.014647
  49 H :   -0.133322    0.000028
  50 H :   -0.188103    0.000425
  51 Si:    0.540680    0.037095
  52 H :   -0.202869    0.021125

  Mayer bond orders larger than 0.100000
B(  0-Si,  1-Si) :   0.5144 B(  0-Si,  2-Si) :   0.3068 B(  0-Si,  3-C ) :  -1.4831
B(  0-Si,  4-H ) :  -0.2596 B(  0-Si,  7-C ) :  -0.3231 B(  0-Si,  8-H ) :  -0.1615
B(  0-Si, 11-C ) :  -0.4567 B(  0-Si, 12-H ) :  -0.1630 B(  0-Si, 31-C ) :  -0.1507
B(  0-Si, 51-Si) :  -0.1576 B(  1-Si,  2-Si) :   0.3327 B(  1-Si,  7-C ) :  -0.1166
B(  1-Si, 15-C ) :  -0.2316 B(  1-Si, 17-H ) :  -0.1450 B(  1-Si, 19-C ) :  -0.1632
B(  1-Si, 26-H ) :  -0.1009 B(  1-Si, 39-C ) :  -0.1719 B(  1-Si, 43-H ) :  -0.1700
B(  1-Si, 51-Si) :  -0.4108 B(  2-Si, 11-C ) :  -0.1467 B(  2-Si, 27-C ) :   0.4583
B(  2-Si, 31-C ) :  -0.1644 B(  2-Si, 35-C ) :  -0.3024 B(  2-Si, 36-H ) :  -0.1302
B(  2-Si, 39-C ) :  -0.1120 B(  3-C ,  4-H ) :   1.5326 B(  3-C ,  5-H ) :   1.0412
B(  3-C ,  6-H ) :   1.0633 B(  3-C , 11-C ) :   0.1012 B(  3-C , 51-Si) :   0.3169
B(  7-C ,  8-H ) :   1.3297 B(  7-C ,  9-H ) :   1.0573 B(  7-C , 10-H ) :   1.0498
B(  7-C , 11-C ) :   0.1288 B(  7-C , 51-Si) :   0.2882 B( 11-C , 12-H ) :   1.3916
B( 11-C , 13-H ) :   1.0415 B( 11-C , 14-H ) :   1.0098 B( 11-C , 51-Si) :   0.3385
B( 15-C , 16-H ) :   0.9866 B( 15-C , 17-H ) :   1.3554 B( 15-C , 18-H ) :   1.0392
B( 15-C , 19-C ) :   0.1836 B( 15-C , 51-Si) :   0.1452 B( 19-C , 20-H ) :   1.0520
B( 19-C , 21-H ) :   1.2206 B( 19-C , 22-H ) :   1.0589 B( 23-C , 24-H ) :   1.0604
B( 23-C , 25-H ) :   1.0649 B( 23-C , 26-H ) :   1.2216 B( 27-C , 28-H ) :   1.0192
B( 27-C , 29-H ) :   0.9933 B( 27-C , 30-H ) :   1.0860 B( 27-C , 35-C ) :   0.1946
B( 27-C , 51-Si) :  -0.1849 B( 31-C , 32-H ) :   1.2364 B( 31-C , 33-H ) :   0.9821
B( 31-C , 34-H ) :   1.1033 B( 31-C , 51-Si) :   0.2509 B( 35-C , 36-H ) :   1.2832
B( 35-C , 37-H ) :   1.1779 B( 35-C , 38-H ) :   0.9994 B( 35-C , 51-Si) :   0.1281
B( 39-C , 40-C ) :   1.1095 B( 39-C , 41-C ) :   0.7635 B( 39-C , 44-C ) :   0.1364
B( 39-C , 51-Si) :   0.8955 B( 39-C , 52-H ) :   1.1210 B( 40-C , 41-C ) :   0.1662
B( 40-C , 42-C ) :   0.4074 B( 40-C , 43-H ) :   1.3469 B( 40-C , 47-H ) :  -0.1267
B( 40-C , 51-Si) :   0.1636 B( 40-C , 52-H ) :  -0.4720 B( 41-C , 42-C ) :   0.2880
B( 41-C , 44-C ) :   0.9451 B( 41-C , 45-H ) :   0.9384 B( 41-C , 46-H ) :   1.0822
B( 41-C , 50-H ) :   0.1026 B( 41-C , 51-Si) :  -0.1504 B( 41-C , 52-H ) :  -0.1642
B( 42-C , 44-C ) :   0.9316 B( 42-C , 47-H ) :   0.9664 B( 42-C , 48-H ) :   0.9898
B( 43-H , 51-Si) :   0.1986 B( 43-H , 52-H ) :  -0.1073 B( 44-C , 49-H ) :   0.9226
B( 44-C , 50-H ) :   1.0092 B( 45-H , 51-Si) :  -0.1921 B( 51-Si, 52-H ) :  -0.2255

MP2 TOTAL ENERGY:    -1709.579711051 Eh
FINAL SINGLE POINT ENERGY     -1709.579711050647

DIPOLE MOMENT
-------------
                                X             Y             Z
Electronic contribution:      1.11816       0.75093      -2.85713
Nuclear contribution   :     -1.04006      -0.80596       2.77899
                        -----------------------------------------
Total Dipole Moment    :      0.07811      -0.05504      -0.07814
                        -----------------------------------------
Magnitude (a.u.)       :      0.12343
Magnitude (Debye)      :      0.31375

Rotational constants in cm-1:     0.009725     0.008617     0.007900
Rotational constants in MHz :   291.544296   258.343473   236.836977

                             ****ORCA TERMINATED NORMALLY****
TOTAL RUN TIME: 0 days 2 hours 51 minutes 3 seconds 234 msec
