                         Program Version 4.2.1 -  RELEASE  -
|  1> %pal
|  2>  nprocs 32
|  3> end
|  4> !RI-MP2 aug-cc-pVTZ aug-cc-pVTZ/C TightSCF
|  5> %maxcore 4500
|  6> *xyzfile 0 1  10_38R.xyz
|  7>
|  8>
|  9>                          ****END OF INPUT****

CARTESIAN COORDINATES (ANGSTROEM)
---------------------------------
  C     -1.304497    2.521784    0.958721
  H     -1.729347    3.502140    1.178283
  H     -0.852581    2.137083    1.894699
  C     -0.220092    2.658602   -0.080101
  C     -0.870717    0.449484   -0.990657
  H     -1.428384    0.855550   -1.839926
  H     -0.481412   -0.521547   -1.277261
  C     -1.849566    0.317601    0.184964
  H     -1.278986   -0.071567    1.052776
  N     -2.368571    1.642136    0.504593
  C      1.570903    1.054357   -0.722588
  C      0.202464    3.845444   -0.501077
  C      2.649780    1.889815   -0.181926
  C      3.950510    1.758414   -0.430376
  C      0.262747    1.370995   -0.628473
  C      5.012148    2.606667    0.189559
  H      4.588545    3.358826    0.857433
  H      5.712111    1.993457    0.765188
  H      5.600865    3.120326   -0.576314
  C     -2.955456   -0.681163   -0.102761
  C     -3.483343    1.597454    1.431675
  H     -3.726540    2.619406    1.729372
  H     -3.223098    1.041030    2.350794
  C     -4.671890    0.952589    0.745054
  H     -5.024837    1.620644   -0.046349
  C     -4.292503   -0.380441    0.156162
  H     -5.494536    0.822932    1.453011
  C     -5.272289   -1.334455   -0.112050
  H     -6.310033   -1.092324    0.092091
  C     -2.629157   -1.946859   -0.590181
  H     -1.591678   -2.206128   -0.763016
  C     -4.942496   -2.578813   -0.619102
  H     -5.717898   -3.308098   -0.820360
  C     -3.608695   -2.889212   -0.851178
  H     -3.331557   -3.864852   -1.231579
  S      2.046897   -0.449311   -1.570195
  C      2.742540   -1.426413   -0.251819
  C      2.350696   -1.282854    1.074620
  C      2.894580   -2.105983    2.049222
  C      3.818480   -3.085332    1.710192
  C      4.202582   -3.231944    0.384353
  C      3.674380   -2.402312   -0.593806
  H      1.627352   -0.524008    1.343999
  H      2.588218   -1.983013    3.081301
  H      4.237819   -3.728098    2.474262
  H      4.926113   -3.989614    0.108048
  H      3.989845   -2.506841   -1.625340
  H      0.970775    3.936220   -1.258424
  H     -0.219340    4.762616   -0.105979
  H      2.329926    2.665113    0.505819
  H      4.281640    0.990240   -1.122114

 Total Charge           Charge          ....    0
 Multiplicity           Mult            ....    1
 Number of Electrons    NEL             ....  192
 Basis Dimension        Dim             .... 1775

ORBITAL ENERGIES
----------------

  NO   OCC          E(Eh)            E(eV)
   0   2.0000     -91.956022     -2502.2506
   1   2.0000     -15.552582      -423.2073
   2   2.0000     -11.266816      -306.5857
   3   2.0000     -11.265937      -306.5617
   4   2.0000     -11.265431      -306.5480
   5   2.0000     -11.260359      -306.4099
   6   2.0000     -11.252771      -306.2035
   7   2.0000     -11.251935      -306.1807
   8   2.0000     -11.244548      -305.9797
   9   2.0000     -11.237400      -305.7852
  10   2.0000     -11.237049      -305.7756
  11   2.0000     -11.235725      -305.7396
  12   2.0000     -11.235451      -305.7322
  13   2.0000     -11.234499      -305.7063
  14   2.0000     -11.233902      -305.6900
  15   2.0000     -11.232259      -305.6453
  16   2.0000     -11.228410      -305.5406
  17   2.0000     -11.227653      -305.5200
  18   2.0000     -11.226985      -305.5018
  19   2.0000     -11.226367      -305.4850
  20   2.0000     -11.225995      -305.4748
  21   2.0000     -11.225841      -305.4707
  22   2.0000     -11.225782      -305.4691
  23   2.0000     -11.223099      -305.3961
  24   2.0000     -11.222779      -305.3873
  25   2.0000     -11.219360      -305.2943
  26   2.0000      -8.956324      -243.7140
  27   2.0000      -6.637660      -180.6199
  28   2.0000      -6.636613      -180.5914
  29   2.0000      -6.635883      -180.5715
  30   2.0000      -1.258800       -34.2537
  31   2.0000      -1.166042       -31.7296
  32   2.0000      -1.157087       -31.4859
  33   2.0000      -1.140284       -31.0287
  34   2.0000      -1.087588       -29.5948
  35   2.0000      -1.067154       -29.0387
  36   2.0000      -1.056012       -28.7355
  37   2.0000      -1.049523       -28.5590
  38   2.0000      -1.021089       -27.7852
  39   2.0000      -1.018033       -27.7021
  40   2.0000      -0.999375       -27.1944
  41   2.0000      -0.972273       -26.4569
  42   2.0000      -0.935383       -25.4531
  43   2.0000      -0.928354       -25.2618
  44   2.0000      -0.902277       -24.5522
  45   2.0000      -0.859744       -23.3948
  46   2.0000      -0.837416       -22.7872
  47   2.0000      -0.833130       -22.6706
  48   2.0000      -0.818305       -22.2672
  49   2.0000      -0.808479       -21.9998
  50   2.0000      -0.787928       -21.4406
  51   2.0000      -0.757138       -20.6028
  52   2.0000      -0.747539       -20.3416
  53   2.0000      -0.705677       -19.2024
  54   2.0000      -0.695888       -18.9361
  55   2.0000      -0.687440       -18.7062
  56   2.0000      -0.663231       -18.0474
  57   2.0000      -0.659826       -17.9548
  58   2.0000      -0.642993       -17.4967
  59   2.0000      -0.639264       -17.3953
  60   2.0000      -0.631221       -17.1764
  61   2.0000      -0.626965       -17.0606
  62   2.0000      -0.621621       -16.9152
  63   2.0000      -0.607023       -16.5179
  64   2.0000      -0.603144       -16.4124
  65   2.0000      -0.593152       -16.1405
  66   2.0000      -0.591170       -16.0866
  67   2.0000      -0.588361       -16.0101
  68   2.0000      -0.572461       -15.5775
  69   2.0000      -0.566487       -15.4149
  70   2.0000      -0.563694       -15.3389
  71   2.0000      -0.560344       -15.2477
  72   2.0000      -0.549833       -14.9617
  73   2.0000      -0.537474       -14.6254
  74   2.0000      -0.532425       -14.4880
  75   2.0000      -0.525539       -14.3006
  76   2.0000      -0.522358       -14.2141
  77   2.0000      -0.514831       -14.0093
  78   2.0000      -0.514407       -13.9977
  79   2.0000      -0.508953       -13.8493
  80   2.0000      -0.498951       -13.5772
  81   2.0000      -0.493053       -13.4167
  82   2.0000      -0.482807       -13.1378
  83   2.0000      -0.475393       -12.9361
  84   2.0000      -0.462851       -12.5948
  85   2.0000      -0.457405       -12.4466
  86   2.0000      -0.445422       -12.1206
  87   2.0000      -0.413051       -11.2397
  88   2.0000      -0.395721       -10.7681
  89   2.0000      -0.376227       -10.2377
  90   2.0000      -0.364554        -9.9200
  91   2.0000      -0.341498        -9.2926
  92   2.0000      -0.327781        -8.9194
  93   2.0000      -0.321406        -8.7459
  94   2.0000      -0.306899        -8.3512
  95   2.0000      -0.295724        -8.0471
  96   0.0000       0.022843         0.6216
  97   0.0000       0.026653         0.7253
  98   0.0000       0.028470         0.7747
  99   0.0000       0.031098         0.8462
 100   0.0000       0.034622         0.9421

MULLIKEN ATOMIC CHARGES
-----------------------
   0 C :   -0.691140
   1 H :    0.429351
   2 H :    0.187597
   3 C :    0.643318
   4 C :   -0.940916
   5 H :    0.092137
   6 H :    0.296679
   7 C :    0.366269
   8 H :    0.358000
   9 N :   -0.347083
  10 C :    1.173828
  11 C :   -1.626224
  12 C :    0.275866
  13 C :   -0.877270
  14 C :    0.278699
  15 C :   -1.006523
  16 H :    0.304413
  17 H :    0.278217
  18 H :    0.271809
  19 C :    1.324972
  20 C :   -0.746870
  21 H :    0.360135
  22 H :    0.218352
  23 C :   -0.636322
  24 H :    0.174113
  25 C :    1.091843
  26 H :    0.208646
  27 C :   -1.096843
  28 H :    0.103380
  29 C :   -1.149040
  30 H :    0.265053
  31 C :   -0.287885
  32 H :    0.585232
  33 C :   -0.841131
  34 H :    0.468235
  35 S :   -1.167620
  36 C :    1.519160
  37 C :   -0.272017
  38 C :   -1.197022
  39 C :   -0.080282
  40 C :   -0.611879
  41 C :   -0.899522
  42 H :    0.348330
  43 H :    0.392439
  44 H :    0.597787
  45 H :    0.473705
  46 H :    0.162375
  47 H :    0.536412
  48 H :    0.190000
  49 H :    0.071099
  50 H :    0.428138
Sum of atomic charges:    0.0000000

LOEWDIN ATOMIC CHARGES
----------------------
   0 C :    0.165779
   1 H :   -0.151452
   2 H :   -0.114398
   3 C :   -0.111964
   4 C :    0.281381
   5 H :   -0.115161
   6 H :   -0.249875
   7 C :   -0.113443
   8 H :   -0.110061
   9 N :    0.314527
  10 C :   -0.429955
  11 C :    0.568438
  12 C :    0.118997
  13 C :    0.188750
  14 C :   -0.136025
  15 C :    0.560778
  16 H :   -0.180354
  17 H :   -0.173585
  18 H :   -0.174659
  19 C :   -0.035268
  20 C :    0.169685
  21 H :   -0.139043
  22 H :   -0.113596
  23 C :    0.301055
  24 H :   -0.131497
  25 C :   -0.067842
  26 H :   -0.142868
  27 C :    0.221901
  28 H :   -0.172821
  29 C :    0.230797
  30 H :   -0.181172
  31 C :    0.199726
  32 H :   -0.182665
  33 C :    0.207283
  34 H :   -0.181929
  35 S :    1.312650
  36 C :   -0.479920
  37 C :    0.138967
  38 C :    0.194022
  39 C :    0.190382
  40 C :    0.184584
  41 C :    0.118879
  42 H :   -0.203657
  43 H :   -0.180859
  44 H :   -0.185545
  45 H :   -0.182067
  46 H :   -0.197038
  47 H :   -0.199523
  48 H :   -0.200829
  49 H :   -0.212346
  50 H :   -0.217159

  Mayer bond orders larger than 0.100000
B(  0-C ,  1-H ) :   0.9052 B(  0-C ,  2-H ) :   1.0384 B(  0-C ,  3-C ) :   0.7977
B(  0-C ,  4-C ) :   0.1271 B(  0-C ,  7-C ) :  -0.1177 B(  0-C ,  9-N ) :   0.7195
B(  0-C , 14-C ) :   0.1318 B(  1-H ,  9-N ) :  -0.1915 B(  2-H ,  3-C ) :   0.1784
B(  3-C ,  4-C ) :   0.2292 B(  3-C ,  9-N ) :   0.1558 B(  3-C , 10-C ) :   0.5058
B(  3-C , 11-C ) :   0.7875 B(  3-C , 14-C ) :   0.6045 B(  3-C , 49-H ) :  -0.1433
B(  4-C ,  5-H ) :   1.1529 B(  4-C ,  6-H ) :   1.1354 B(  4-C ,  7-C ) :   0.5586
B(  4-C ,  9-N ) :   0.1543 B(  4-C , 14-C ) :   1.2020 B(  4-C , 19-C ) :   0.1544
B(  4-C , 25-C ) :  -0.1242 B(  6-H , 35-S ) :  -0.1916 B(  7-C ,  8-H ) :   0.9077
B(  7-C ,  9-N ) :   0.9362 B(  7-C , 14-C ) :   0.1720 B(  7-C , 19-C ) :   0.8408
B(  7-C , 23-C ) :  -0.1724 B(  7-C , 25-C ) :   0.3303 B(  7-C , 29-C ) :   0.7068
B(  7-C , 35-S ) :  -0.1367 B(  8-H ,  9-N ) :  -0.1857 B(  9-N , 14-C ) :  -0.1317
B(  9-N , 19-C ) :  -0.2302 B(  9-N , 20-C ) :   0.9369 B(  9-N , 25-C ) :  -0.1441
B( 10-C , 13-C ) :   0.6195 B( 10-C , 14-C ) :   1.1933 B( 10-C , 35-S ) :  -0.1108
B( 10-C , 37-C ) :   0.1707 B( 10-C , 49-H ) :   0.1325 B( 10-C , 50-H ) :  -0.3067
B( 11-C , 47-H ) :   0.6638 B( 11-C , 48-H ) :   1.2186 B( 12-C , 14-C ) :   0.2585
B( 12-C , 49-H ) :   1.1697 B( 13-C , 15-C ) :   0.6085 B( 13-C , 35-S ) :  -0.1894
B( 13-C , 50-H ) :   1.1486 B( 14-C , 35-S ) :   1.0740 B( 14-C , 36-C ) :  -0.2259
B( 14-C , 37-C ) :  -0.1407 B( 14-C , 41-C ) :   0.1308 B( 14-C , 48-H ) :  -0.1003
B( 14-C , 50-H ) :   0.2558 B( 15-C , 16-H ) :   0.9279 B( 15-C , 17-H ) :   1.0005
B( 15-C , 18-H ) :   1.0430 B( 15-C , 49-H ) :   0.1032 B( 19-C , 23-C ) :   0.2806
B( 19-C , 25-C ) :   0.9135 B( 19-C , 27-C ) :   0.5950 B( 19-C , 29-C ) :  -0.3484
B( 19-C , 31-C ) :  -0.1935 B( 19-C , 32-H ) :   0.1122 B( 19-C , 33-C ) :  -0.1339
B( 20-C , 21-H ) :   0.8846 B( 20-C , 22-H ) :   1.0806 B( 20-C , 23-C ) :   1.0499
B( 20-C , 25-C ) :   0.1688 B( 23-C , 24-H ) :   1.1704 B( 23-C , 26-H ) :   1.1392
B( 23-C , 29-C ) :  -0.1198 B( 24-H , 25-C ) :  -0.1235 B( 25-C , 27-C ) :   0.3689
B( 25-C , 29-C ) :  -0.3837 B( 25-C , 31-C ) :   0.2803 B( 25-C , 33-C ) :   0.1191
B( 27-C , 28-H ) :   1.4196 B( 27-C , 31-C ) :   0.8378 B( 28-H , 31-C ) :  -0.1230
B( 29-C , 30-H ) :   1.2573 B( 29-C , 31-C ) :   0.1441 B( 29-C , 33-C ) :   1.3680
B( 30-H , 33-C ) :  -0.1043 B( 31-C , 32-H ) :   0.5615 B( 31-C , 33-C ) :   1.0659
B( 32-H , 33-C ) :  -0.1160 B( 33-C , 34-H ) :   0.7590 B( 35-S , 36-C ) :   0.2560
B( 35-S , 37-C ) :   0.3061 B( 35-S , 41-C ) :   0.1488 B( 35-S , 50-H ) :  -0.2470
B( 36-C , 37-C ) :   1.0835 B( 36-C , 38-C ) :   0.2597 B( 36-C , 40-C ) :   0.2643
B( 36-C , 41-C ) :   0.6776 B( 36-C , 44-H ) :   0.1203 B( 36-C , 45-H ) :  -0.1084
B( 36-C , 46-H ) :  -0.2249 B( 37-C , 38-C ) :   0.9711 B( 37-C , 39-C ) :  -0.1238
B( 37-C , 41-C ) :  -0.4194 B( 37-C , 42-H ) :   0.9622 B( 37-C , 46-H ) :   0.2216
B( 38-C , 39-C ) :   1.1964 B( 38-C , 40-C ) :   0.1706 B( 38-C , 43-H ) :   0.8475
B( 38-C , 44-H ) :  -0.1926 B( 39-C , 40-C ) :   1.0966 B( 39-C , 44-H ) :   0.5902
B( 40-C , 41-C ) :   1.0877 B( 40-C , 44-H ) :  -0.1646 B( 40-C , 45-H ) :   0.7917
B( 40-C , 46-H ) :  -0.1138 B( 41-C , 44-H ) :   0.1113 B( 41-C , 46-H ) :   1.4691

MP2 TOTAL ENERGY:    -1379.976760897 Eh
FINAL SINGLE POINT ENERGY     -1379.976760897355

DIPOLE MOMENT
-------------
                                X             Y             Z
Electronic contribution:     -0.37266      -9.37646      -7.45964
Nuclear contribution   :      0.36700       9.68143       8.29619
                        -----------------------------------------
Total Dipole Moment    :     -0.00566       0.30497       0.83655
                        -----------------------------------------
Magnitude (a.u.)       :      0.89043
Magnitude (Debye)      :      2.26328

Rotational constants in cm-1:     0.009425     0.004238     0.003299
Rotational constants in MHz :   282.555436   127.045901    98.891592

                             ****ORCA TERMINATED NORMALLY****
TOTAL RUN TIME: 0 days 2 hours 4 minutes 57 seconds 817 msec
