                         Program Version 4.2.1 -  RELEASE  -
|  1> %pal
|  2>  nprocs 32
|  3> end
|  4> !RI-MP2 aug-cc-pVTZ aug-cc-pVTZ/C TightSCF
|  5> %maxcore 4500
|  6> *xyzfile 0 1  05_5R1.xyz
|  7>
|  8>
|  9>                          ****END OF INPUT****

CARTESIAN COORDINATES (ANGSTROEM)
---------------------------------
  H     -1.373367   -1.850974   -0.228650
  C     -0.418297    1.337126   -0.094394
  C      0.898623    1.115437   -0.063960
  H      2.474692   -0.406878    0.273122
  H      0.889056   -2.288410   -0.010493
  H     -1.575352    0.177250    1.303184
  H     -0.827314    2.320957   -0.287732
  H      1.594540    1.927889   -0.240282
  C     -1.367504    0.208821    0.217602
  C      1.418882   -0.227081    0.135415
  N     -0.774631   -1.042852   -0.238308
  C      0.562168   -1.255508   -0.003001
  H     -2.323063    0.347366   -0.290974

 Total Charge           Charge          ....    0
 Multiplicity           Mult            ....    1
 Number of Electrons    NEL             ....   44
 Basis Dimension        Dim             ....  437

ORBITAL ENERGIES
----------------

  NO   OCC          E(Eh)            E(eV)
   0   2.0000     -15.568691      -423.6456
   1   2.0000     -11.269072      -306.6470
   2   2.0000     -11.263152      -306.4859
   3   2.0000     -11.223542      -305.4081
   4   2.0000     -11.216358      -305.2126
   5   2.0000     -11.202505      -304.8357
   6   2.0000      -1.247583       -33.9485
   7   2.0000      -1.068040       -29.0628
   8   2.0000      -1.021404       -27.7938
   9   2.0000      -0.882267       -24.0077
  10   2.0000      -0.822649       -22.3854
  11   2.0000      -0.727517       -19.7967
  12   2.0000      -0.678426       -18.4609
  13   2.0000      -0.625836       -17.0299
  14   2.0000      -0.618199       -16.8220
  15   2.0000      -0.598485       -16.2856
  16   2.0000      -0.577517       -15.7150
  17   2.0000      -0.507328       -13.8051
  18   2.0000      -0.489923       -13.3315
  19   2.0000      -0.459374       -12.5002
  20   2.0000      -0.393193       -10.6993
  21   2.0000      -0.270995        -7.3741
  22   0.0000       0.026973         0.7340
  23   0.0000       0.035155         0.9566
  24   0.0000       0.036926         1.0048
  25   0.0000       0.046642         1.2692
  26   0.0000       0.049911         1.3581

MULLIKEN ATOMIC CHARGES
-----------------------
   0 H :    0.046400
   1 C :   -0.567405
   2 C :   -0.557602
   3 H :    0.288942
   4 H :    0.649710
   5 H :    0.273448
   6 H :    0.409186
   7 H :    0.430783
   8 C :   -0.066939
   9 C :   -0.337358
  10 N :   -0.245752
  11 C :   -0.609828
  12 H :    0.286415
Sum of atomic charges:   -0.0000000

LOEWDIN ATOMIC CHARGES
----------------------
   0 H :   -0.288276
   1 C :    0.221193
   2 C :    0.162166
   3 H :   -0.213785
   4 H :   -0.166750
   5 H :   -0.139997
   6 H :   -0.190162
   7 H :   -0.189641
   8 C :    0.159874
   9 C :    0.179114
  10 N :    0.536241
  11 C :    0.087649
  12 H :   -0.157626

  Mayer bond orders larger than 0.100000
B(  0-H , 10-N ) :   1.0723 B(  1-C ,  2-C ) :   1.5567 B(  1-C ,  6-H ) :   0.8245
B(  1-C ,  8-C ) :   0.7540 B(  1-C , 11-C ) :   0.1585 B(  2-C ,  7-H ) :   0.8694
B(  2-C ,  9-C ) :   0.9776 B(  2-C , 11-C ) :   0.1303 B(  3-H ,  9-C ) :   1.0805
B(  4-H , 11-C ) :   0.4416 B(  5-H ,  8-C ) :   0.9262 B(  8-C , 10-N ) :   0.8606
B(  8-C , 12-H ) :   0.9616 B(  9-C , 10-N ) :  -0.1480 B(  9-C , 11-C ) :   1.2151
B( 10-N , 11-C ) :   1.0435

MP2 TOTAL ENERGY:     -248.937645918 Eh
FINAL SINGLE POINT ENERGY      -248.937645917767

DIPOLE MOMENT
-------------
                                X             Y             Z
Electronic contribution:      0.71704      -0.64440      -0.41856
Nuclear contribution   :     -1.16678       0.22521       0.52644
                        -----------------------------------------
Total Dipole Moment    :     -0.44973      -0.41918       0.10788
                        -----------------------------------------
Magnitude (a.u.)       :      0.62419
Magnitude (Debye)      :      1.58657

Rotational constants in cm-1:     0.180184     0.178027     0.093313
Rotational constants in MHz :  5401.785424  5337.110879  2797.444090

                             ****ORCA TERMINATED NORMALLY****
TOTAL RUN TIME: 0 days 0 hours 1 minutes 20 seconds 325 msec
