                         Program Version 4.2.1 -  RELEASE  -
|  1> %pal
|  2>  nprocs 32
|  3> end
|  4> !RI-MP2 aug-cc-pVTZ aug-cc-pVTZ/C TightSCF
|  5> %maxcore 4500
|  6> *xyzfile 0 1  07_5P.xyz
|  7>
|  8>
|  9>                          ****END OF INPUT****

CARTESIAN COORDINATES (ANGSTROEM)
---------------------------------
  C     -2.353986   -1.255084   -0.000088
  C     -3.701673   -0.925444   -0.000035
  C     -4.089333    0.405805    0.000079
  C     -3.119335    1.402386    0.000139
  C     -1.775814    1.070685    0.000087
  C     -1.369494   -0.266343   -0.000027
  H     -2.054622   -2.297295   -0.000178
  H     -4.448693   -1.710027   -0.000083
  H     -5.140136    0.668739    0.000120
  H     -3.414914    2.444763    0.000226
  H     -1.035030    1.860310    0.000131
  C      0.043302   -0.676000   -0.000085
  C      1.116289    0.114501    0.000008
  H      1.001463    1.197822    0.000147
  P      2.811427   -0.555931   -0.000085
  C      3.517015    0.420719    1.404966
  H      3.313816    1.490610    1.310150
  H      3.094741    0.063661    2.345012
  H      4.597887    0.271477    1.443221
  C      3.516995    0.421063   -1.404907
  H      3.094706    0.064237   -2.345035
  H      3.313801    1.490931   -1.309825
  H      4.597866    0.271828   -1.443217
  H      0.203910   -1.751814   -0.000217

 Total Charge           Charge          ....    0
 Multiplicity           Mult            ....    1
 Number of Electrons    NEL             ....   88
 Basis Dimension        Dim             ....  809

ORBITAL ENERGIES
----------------

  NO   OCC          E(Eh)            E(eV)
   0   2.0000     -79.932886     -2175.0844
   1   2.0000     -11.246338      -306.0284
   2   2.0000     -11.245346      -306.0014
   3   2.0000     -11.238655      -305.8193
   4   2.0000     -11.238179      -305.8064
   5   2.0000     -11.237536      -305.7889
   6   2.0000     -11.236869      -305.7707
   7   2.0000     -11.236395      -305.7579
   8   2.0000     -11.226858      -305.4983
   9   2.0000     -11.218116      -305.2605
  10   2.0000     -11.218107      -305.2602
  11   2.0000      -7.472602      -203.3398
  12   2.0000      -5.366443      -146.0283
  13   2.0000      -5.366320      -146.0250
  14   2.0000      -5.365449      -146.0013
  15   2.0000      -1.165273       -31.7087
  16   2.0000      -1.080173       -29.3930
  17   2.0000      -1.022085       -27.8123
  18   2.0000      -1.016785       -27.6681
  19   2.0000      -0.977609       -26.6021
  20   2.0000      -0.932341       -25.3703
  21   2.0000      -0.855482       -23.2789
  22   2.0000      -0.831346       -22.6221
  23   2.0000      -0.777367       -21.1532
  24   2.0000      -0.715727       -19.4759
  25   2.0000      -0.705483       -19.1972
  26   2.0000      -0.646759       -17.5992
  27   2.0000      -0.633964       -17.2510
  28   2.0000      -0.605267       -16.4702
  29   2.0000      -0.592020       -16.1097
  30   2.0000      -0.585817       -15.9409
  31   2.0000      -0.578637       -15.7455
  32   2.0000      -0.555086       -15.1047
  33   2.0000      -0.548994       -14.9389
  34   2.0000      -0.541448       -14.7335
  35   2.0000      -0.519148       -14.1267
  36   2.0000      -0.513660       -13.9774
  37   2.0000      -0.492484       -13.4012
  38   2.0000      -0.467189       -12.7129
  39   2.0000      -0.454477       -12.3669
  40   2.0000      -0.408204       -11.1078
  41   2.0000      -0.342868        -9.3299
  42   2.0000      -0.334209        -9.0943
  43   2.0000      -0.308981        -8.4078
  44   0.0000       0.026454         0.7198
  45   0.0000       0.029992         0.8161
  46   0.0000       0.033771         0.9190
  47   0.0000       0.039241         1.0678
  48   0.0000       0.040676         1.1069

MULLIKEN ATOMIC CHARGES
-----------------------
   0 C :   -1.037867
   1 C :   -0.732901
   2 C :   -0.131290
   3 C :   -0.755657
   4 C :   -0.484306
   5 C :    2.032720
   6 H :    0.006284
   7 H :    0.599447
   8 H :    0.340958
   9 H :    0.543923
  10 H :   -0.118797
  11 C :   -0.478204
  12 C :    0.333354
  13 H :    0.739200
  14 P :   -0.919135
  15 C :   -0.932862
  16 H :    0.271281
  17 H :    0.294910
  18 H :    0.283617
  19 C :   -0.932867
  20 H :    0.294918
  21 H :    0.271291
  22 H :    0.283613
  23 H :    0.228371
Sum of atomic charges:    0.0000000

LOEWDIN ATOMIC CHARGES
----------------------
   0 C :    0.207116
   1 C :    0.199411
   2 C :    0.195465
   3 C :    0.201175
   4 C :    0.213810
   5 C :   -0.134659
   6 H :   -0.178522
   7 H :   -0.181964
   8 H :   -0.183235
   9 H :   -0.181631
  10 H :   -0.192528
  11 C :    0.124795
  12 C :    0.024723
  13 H :   -0.252231
  14 P :    0.973239
  15 C :    0.401296
  16 H :   -0.232716
  17 H :   -0.240139
  18 H :   -0.239830
  19 C :    0.401296
  20 H :   -0.240138
  21 H :   -0.232716
  22 H :   -0.239830
  23 H :   -0.212188

  Mayer bond orders larger than 0.100000
B(  0-C ,  1-C ) :   1.1457 B(  0-C ,  2-C ) :  -0.2305 B(  0-C ,  4-C ) :  -0.4653
B(  0-C ,  5-C ) :   0.1681 B(  0-C ,  6-H ) :   1.9220 B(  0-C ,  7-H ) :  -0.2159
B(  0-C ,  8-H ) :   0.2649 B(  0-C , 10-H ) :   0.2507 B(  0-C , 11-C ) :   0.2969
B(  1-C ,  2-C ) :   1.0578 B(  1-C ,  3-C ) :   0.3299 B(  1-C ,  5-C ) :   0.1573
B(  1-C ,  6-H ) :  -0.1452 B(  1-C ,  7-H ) :   0.5216 B(  1-C ,  8-H ) :  -0.1935
B(  2-C ,  3-C ) :   1.0906 B(  2-C ,  4-C ) :  -0.2782 B(  2-C ,  8-H ) :   0.9602
B(  2-C , 10-H ) :  -0.1107 B(  2-C , 11-C ) :   0.1139 B(  3-C ,  4-C ) :   1.0675
B(  3-C ,  5-C ) :   0.1916 B(  3-C ,  8-H ) :  -0.1602 B(  3-C ,  9-H ) :   0.5424
B(  3-C , 11-C ) :   0.1732 B(  3-C , 12-C ) :  -0.2428 B(  3-C , 13-H ) :   0.1068
B(  3-C , 14-P ) :  -0.1116 B(  4-C ,  5-C ) :   0.5498 B(  4-C ,  6-H ) :   0.1864
B(  4-C , 10-H ) :   1.8913 B(  4-C , 14-P ) :   0.2079 B(  5-C ,  6-H ) :  -0.3424
B(  5-C , 10-H ) :  -0.3665 B(  5-C , 11-C ) :   0.1883 B(  5-C , 12-C ) :  -0.2131
B(  6-H , 10-H ) :   0.2073 B(  6-H , 11-C ) :  -0.1220 B(  6-H , 13-H ) :  -0.1092
B(  7-H , 13-H ) :   0.1016 B(  8-H , 11-C ) :  -0.1112 B(  8-H , 12-C ) :   0.1172
B(  9-H , 11-C ) :   0.2278 B(  9-H , 12-C ) :  -0.1903 B( 10-H , 11-C ) :  -0.2398
B( 10-H , 13-H ) :  -0.1585 B( 10-H , 14-P ) :   0.1637 B( 11-C , 12-C ) :   1.1141
B( 11-C , 23-H ) :   1.0788 B( 12-C , 13-H ) :   0.7983 B( 12-C , 14-P ) :   0.7539
B( 12-C , 15-C ) :  -0.1518 B( 12-C , 19-C ) :  -0.1518 B( 12-C , 23-H ) :   0.1392
B( 13-H , 14-P ) :  -0.9019 B( 14-P , 15-C ) :   1.0881 B( 14-P , 19-C ) :   1.0881
B( 14-P , 23-H ) :  -0.2821 B( 15-C , 16-H ) :   0.9117 B( 15-C , 17-H ) :   0.9242
B( 15-C , 18-H ) :   0.9285 B( 19-C , 20-H ) :   0.9242 B( 19-C , 21-H ) :   0.9117
B( 19-C , 22-H ) :   0.9285

MP2 TOTAL ENERGY:     -728.929396527 Eh
FINAL SINGLE POINT ENERGY      -728.929396527390

DIPOLE MOMENT
-------------
                                X             Y             Z
Electronic contribution:     -4.70172      -4.12491      -0.00047
Nuclear contribution   :      4.47659       4.62499       0.00054
                        -----------------------------------------
Total Dipole Moment    :     -0.22514       0.50008       0.00006
                        -----------------------------------------
Magnitude (a.u.)       :      0.54842
Magnitude (Debye)      :      1.39398

Rotational constants in cm-1:     0.092530     0.012205     0.011780
Rotational constants in MHz :  2773.969766   365.898375   353.148777

                             ****ORCA TERMINATED NORMALLY****
TOTAL RUN TIME: 0 days 0 hours 8 minutes 50 seconds 8 msec
