                         Program Version 4.2.1 -  RELEASE  -
|  1> %pal
|  2>  nprocs 32
|  3> end
|  4> !RI-MP2 aug-cc-pVTZ aug-cc-pVTZ/C TightSCF
|  5> %maxcore 4500
|  6> *xyzfile 0 1  10_66P.xyz
|  7>
|  8>
|  9>                          ****END OF INPUT****

CARTESIAN COORDINATES (ANGSTROEM)
---------------------------------
  C     -1.282963    0.787250   -0.500451
  C      0.161913    1.165691   -0.679473
  C     -2.254181    1.692113   -0.345848
  C      0.634339    1.715466    0.635828
  C     -2.005802    3.100928   -0.137561
  C      0.155768    2.877988    1.095467
  C     -0.933446    3.624930    0.500617
  H      1.366831    1.156203    1.203225
  H      0.585364    3.297034    2.000389
  H     -0.948718    4.692922    0.696179
  H     -2.807507    3.779229   -0.411241
  C      1.731908   -2.076514   -0.256501
  C      0.865414   -0.082869   -1.270921
  H      0.199184    1.987745   -1.403117
  C      2.071474   -0.682601   -0.555450
  C     -0.183652   -1.232083   -1.317401
  H      1.161083    0.156619   -2.293562
  C      0.516006   -2.404902   -0.691288
  C      3.248205   -0.077979   -0.353525
  C      4.413500   -0.740278    0.324737
  C      3.521983    1.326955   -0.808070
  H      2.712761    1.750302   -1.400121
  H      4.434833    1.354439   -1.411426
  H      3.690094    1.990174    0.046455
  H      4.187735   -1.737839    0.695315
  H      4.753040   -0.136149    1.172111
  H      5.262295   -0.818652   -0.362135
  C     -1.469176   -0.721069   -0.558573
  C     -2.682622   -1.088356   -1.284430
  N     -3.616408   -1.345963   -1.897356
  C     -1.528740   -1.352664    0.839678
  O     -2.227189   -2.279123    1.138813
  O     -0.662518   -0.765149    1.658699
  C     -0.538642   -1.339711    2.962730
  H      0.179281   -0.715991    3.488077
  H     -1.501362   -1.332530    3.471859
  H     -0.176508   -2.364751    2.886070
  H     -3.290516    1.367587   -0.354798
  H     -0.488082   -1.453456   -2.341193
  H      0.059252   -3.382423   -0.607730
  H      2.405755   -2.768312    0.229655

 Total Charge           Charge          ....    0
 Multiplicity           Mult            ....    1
 Number of Electrons    NEL             ....  156
 Basis Dimension        Dim             .... 1449

ORBITAL ENERGIES
----------------

  NO   OCC          E(Eh)            E(eV)
   0   2.0000     -20.616619      -561.0067
   1   2.0000     -20.558181      -559.4166
   2   2.0000     -15.564270      -423.5253
   3   2.0000     -11.396303      -310.1092
   4   2.0000     -11.307735      -307.6991
   5   2.0000     -11.295643      -307.3701
   6   2.0000     -11.268283      -306.6256
   7   2.0000     -11.267067      -306.5925
   8   2.0000     -11.261063      -306.4291
   9   2.0000     -11.251534      -306.1698
  10   2.0000     -11.250325      -306.1369
  11   2.0000     -11.246466      -306.0319
  12   2.0000     -11.245495      -306.0055
  13   2.0000     -11.244874      -305.9886
  14   2.0000     -11.243312      -305.9461
  15   2.0000     -11.242933      -305.9358
  16   2.0000     -11.241390      -305.8938
  17   2.0000     -11.240490      -305.8693
  18   2.0000     -11.239967      -305.8551
  19   2.0000     -11.231734      -305.6310
  20   2.0000     -11.231114      -305.6142
  21   2.0000     -11.229500      -305.5702
  22   2.0000      -1.483785       -40.3758
  23   2.0000      -1.379977       -37.5511
  24   2.0000      -1.227595       -33.4046
  25   2.0000      -1.197790       -32.5935
  26   2.0000      -1.149182       -31.2708
  27   2.0000      -1.116331       -30.3769
  28   2.0000      -1.079793       -29.3827
  29   2.0000      -1.062976       -28.9251
  30   2.0000      -1.035611       -28.1804
  31   2.0000      -0.992438       -27.0056
  32   2.0000      -0.984639       -26.7934
  33   2.0000      -0.952055       -25.9067
  34   2.0000      -0.948616       -25.8132
  35   2.0000      -0.897641       -24.4260
  36   2.0000      -0.863427       -23.4950
  37   2.0000      -0.830711       -22.6048
  38   2.0000      -0.809529       -22.0284
  39   2.0000      -0.778969       -21.1968
  40   2.0000      -0.757493       -20.6124
  41   2.0000      -0.737784       -20.0761
  42   2.0000      -0.735709       -20.0197
  43   2.0000      -0.700380       -19.0583
  44   2.0000      -0.697296       -18.9744
  45   2.0000      -0.686992       -18.6940
  46   2.0000      -0.684583       -18.6285
  47   2.0000      -0.669826       -18.2269
  48   2.0000      -0.652362       -17.7517
  49   2.0000      -0.636064       -17.3082
  50   2.0000      -0.615419       -16.7464
  51   2.0000      -0.606308       -16.4985
  52   2.0000      -0.601879       -16.3780
  53   2.0000      -0.595528       -16.2051
  54   2.0000      -0.593187       -16.1414
  55   2.0000      -0.579312       -15.7639
  56   2.0000      -0.567780       -15.4501
  57   2.0000      -0.556642       -15.1470
  58   2.0000      -0.550967       -14.9926
  59   2.0000      -0.548930       -14.9371
  60   2.0000      -0.546893       -14.8817
  61   2.0000      -0.537864       -14.6360
  62   2.0000      -0.531369       -14.4593
  63   2.0000      -0.524729       -14.2786
  64   2.0000      -0.520908       -14.1746
  65   2.0000      -0.513807       -13.9814
  66   2.0000      -0.502967       -13.6864
  67   2.0000      -0.488614       -13.2959
  68   2.0000      -0.477364       -12.9897
  69   2.0000      -0.473577       -12.8867
  70   2.0000      -0.465761       -12.6740
  71   2.0000      -0.456985       -12.4352
  72   2.0000      -0.451552       -12.2873
  73   2.0000      -0.440823       -11.9954
  74   2.0000      -0.426968       -11.6184
  75   2.0000      -0.360192        -9.8013
  76   2.0000      -0.315579        -8.5873
  77   2.0000      -0.311083        -8.4650
  78   0.0000       0.017703         0.4817
  79   0.0000       0.025501         0.6939
  80   0.0000       0.026257         0.7145
  81   0.0000       0.031391         0.8542
  82   0.0000       0.036781         1.0009

MULLIKEN ATOMIC CHARGES
-----------------------
   0 C :    0.403071
   1 C :    0.183102
   2 C :   -0.633151
   3 C :   -0.395448
   4 C :   -0.428184
   5 C :   -0.669802
   6 C :   -0.066383
   7 H :    0.368969
   8 H :    0.217185
   9 H :    0.318168
  10 H :    0.467861
  11 C :   -1.554428
  12 C :   -0.430006
  13 H :    0.107703
  14 C :    1.260960
  15 C :   -0.355277
  16 H :    0.017079
  17 C :   -0.312343
  18 C :    1.444087
  19 C :   -1.402077
  20 C :   -1.242790
  21 H :    0.362304
  22 H :    0.225356
  23 H :    0.182690
  24 H :    0.379610
  25 H :    0.188401
  26 H :    0.265365
  27 C :    0.006467
  28 C :    2.051731
  29 N :   -1.359018
  30 C :    0.984667
  31 O :   -1.424286
  32 O :    0.175808
  33 C :   -1.123298
  34 H :    0.364281
  35 H :    0.361950
  36 H :    0.330255
  37 H :    0.051528
  38 H :    0.115120
  39 H :    0.467884
  40 H :    0.094889
Sum of atomic charges:   -0.0000000

LOEWDIN ATOMIC CHARGES
----------------------
   0 C :   -0.074166
   1 C :    0.010939
   2 C :    0.243981
   3 C :    0.234457
   4 C :    0.221377
   5 C :    0.214731
   6 C :    0.212079
   7 H :   -0.182568
   8 H :   -0.186955
   9 H :   -0.187596
  10 H :   -0.187111
  11 C :    0.252699
  12 C :    0.067561
  13 H :   -0.133905
  14 C :   -0.059755
  15 C :    0.041110
  16 H :   -0.118439
  17 C :    0.265286
  18 C :   -0.079756
  19 C :    0.582734
  20 C :    0.580925
  21 H :   -0.183942
  22 H :   -0.154488
  23 H :   -0.153837
  24 H :   -0.195720
  25 H :   -0.159378
  26 H :   -0.158238
  27 C :   -0.305850
  28 C :   -0.232487
  29 N :    0.316922
  30 C :   -0.835979
  31 O :    0.508917
  32 O :    0.599510
  33 C :    0.382807
  34 H :   -0.176592
  35 H :   -0.173043
  36 H :   -0.170159
  37 H :   -0.173644
  38 H :   -0.125764
  39 H :   -0.152059
  40 H :   -0.174602

  Mayer bond orders larger than 0.100000
B(  0-C ,  1-C ) :   1.2236 B(  0-C ,  2-C ) :   0.4543 B(  0-C ,  3-C ) :   0.5126
B(  0-C ,  4-C ) :   0.3334 B(  0-C , 10-H ) :  -0.1031 B(  0-C , 11-C ) :   0.1747
B(  0-C , 12-C ) :  -0.2707 B(  0-C , 15-C ) :   0.3298 B(  0-C , 28-C ) :  -0.1696
B(  0-C , 29-N ) :   0.1188 B(  0-C , 30-C ) :   0.2959 B(  0-C , 37-H ) :  -0.2093
B(  1-C ,  2-C ) :  -0.2071 B(  1-C ,  3-C ) :   1.6677 B(  1-C ,  4-C ) :   0.1284
B(  1-C , 12-C ) :   0.8213 B(  1-C , 13-H ) :   0.8429 B(  1-C , 14-C ) :   0.4135
B(  1-C , 15-C ) :   0.1471 B(  1-C , 18-C ) :  -0.1407 B(  1-C , 27-C ) :  -0.1857
B(  1-C , 28-C ) :   0.1030 B(  1-C , 37-H ) :   0.2345 B(  1-C , 40-H ) :   0.1480
B(  2-C ,  3-C ) :   0.1227 B(  2-C ,  4-C ) :   0.5111 B(  2-C , 12-C ) :   0.1444
B(  2-C , 15-C ) :  -0.2270 B(  2-C , 27-C ) :   0.4588 B(  2-C , 28-C ) :   0.2151
B(  2-C , 37-H ) :   1.3151 B(  3-C ,  4-C ) :   0.1971 B(  3-C ,  5-C ) :   1.6742
B(  3-C ,  6-C ) :   0.2442 B(  3-C ,  7-H ) :   0.9602 B(  3-C , 13-H ) :   0.1232
B(  4-C ,  6-C ) :   1.4018 B(  4-C ,  9-H ) :  -0.1322 B(  4-C , 10-H ) :   0.6770
B(  4-C , 13-H ) :  -0.1862 B(  4-C , 37-H ) :  -0.1610 B(  5-C ,  6-C ) :   0.8033
B(  5-C ,  8-H ) :   1.0106 B(  5-C ,  9-H ) :  -0.1612 B(  6-C ,  7-H ) :  -0.1334
B(  6-C ,  8-H ) :  -0.1166 B(  6-C ,  9-H ) :   1.0114 B(  6-C , 13-H ) :  -0.1201
B( 11-C , 12-C ) :   0.2278 B( 11-C , 14-C ) :  -0.5747 B( 11-C , 15-C ) :   0.4128
B( 11-C , 17-C ) :   1.5245 B( 11-C , 18-C ) :   0.3125 B( 11-C , 19-C ) :   0.1742
B( 11-C , 40-H ) :   1.6545 B( 12-C , 13-H ) :  -0.1685 B( 12-C , 14-C ) :   0.9738
B( 12-C , 15-C ) :   0.8227 B( 12-C , 16-H ) :   1.4731 B( 12-C , 18-C ) :   0.1678
B( 12-C , 27-C ) :   0.1763 B( 12-C , 28-C ) :  -0.1334 B( 14-C , 15-C ) :   0.2468
B( 14-C , 16-H ) :  -0.3600 B( 14-C , 18-C ) :   0.9472 B( 14-C , 19-C ) :   0.1904
B( 14-C , 20-C ) :   0.2583 B( 14-C , 24-H ) :   0.1189 B( 14-C , 27-C ) :  -0.1555
B( 14-C , 39-H ) :  -0.1188 B( 14-C , 40-H ) :   0.4374 B( 15-C , 16-H ) :  -0.3686
B( 15-C , 17-C ) :   1.1248 B( 15-C , 18-C ) :  -0.2629 B( 15-C , 27-C ) :   1.2300
B( 15-C , 28-C ) :  -0.1044 B( 15-C , 38-H ) :   0.9842 B( 16-H , 40-H ) :  -0.1065
B( 17-C , 27-C ) :   0.2796 B( 17-C , 39-H ) :   0.8401 B( 18-C , 20-C ) :   0.2869
B( 18-C , 25-H ) :  -0.1203 B( 18-C , 26-H ) :  -0.1294 B( 18-C , 40-H ) :  -0.6524
B( 19-C , 20-C ) :   0.1104 B( 19-C , 24-H ) :   0.8911 B( 19-C , 25-H ) :   1.2048
B( 19-C , 26-H ) :   1.1290 B( 20-C , 21-H ) :   0.9665 B( 20-C , 22-H ) :   1.0925
B( 20-C , 23-H ) :   1.1643 B( 27-C , 28-C ) :   1.0425 B( 27-C , 29-N ) :   1.4186
B( 27-C , 30-C ) :   1.0287 B( 28-C , 29-N ) :  -0.3725 B( 30-C , 31-O ) :   0.6782
B( 30-C , 32-O ) :   1.1331 B( 31-O , 32-O ) :  -0.1456 B( 31-O , 33-C ) :   0.1313
B( 32-O , 33-C ) :   0.8715 B( 33-C , 34-H ) :   0.9108 B( 33-C , 35-H ) :   0.9183
B( 33-C , 36-H ) :   0.9344

MP2 TOTAL ENERGY:     -938.749170712 Eh
FINAL SINGLE POINT ENERGY      -938.749170712478

DIPOLE MOMENT
-------------
                                X             Y             Z
Electronic contribution:    -19.28391      -5.81885      -4.35067
Nuclear contribution   :     21.68941       6.75734       5.32994
                        -----------------------------------------
Total Dipole Moment    :      2.40550       0.93849       0.97927
                        -----------------------------------------
Magnitude (a.u.)       :      2.76155
Magnitude (Debye)      :      7.01931

Rotational constants in cm-1:     0.012754     0.009843     0.007574
Rotational constants in MHz :   382.345018   295.083495   227.050958

                             ****ORCA TERMINATED NORMALLY****
TOTAL RUN TIME: 0 days 1 hours 19 minutes 8 seconds 956 msec
