                         Program Version 4.2.1 -  RELEASE  -
|  1> %pal
|  2>  nprocs 32
|  3> end
|  4> !RI-MP2 aug-cc-pVTZ aug-cc-pVTZ/C TightSCF
|  5> %maxcore 4500
|  6> *xyzfile 0 1  10_38TS.xyz
|  7>
|  8>
|  9>                          ****END OF INPUT****

CARTESIAN COORDINATES (ANGSTROEM)
---------------------------------
  C     -0.586434   -2.193783    1.322254
  H     -0.713328   -3.207169    1.703485
  H     -0.819618   -1.509122    2.148833
  C     -1.585645   -1.923786    0.190440
  C      0.136173   -0.499745   -0.893441
  H      0.491848   -1.162863   -1.688549
  H      0.271926    0.509542   -1.266942
  C      1.018939   -0.706077    0.354507
  H      0.729328    0.043276    1.095739
  N      0.803960   -2.011217    0.971077
  C     -2.342004    0.117391   -0.905984
  C     -2.779563   -2.634226    0.168165
  H     -3.092776   -3.057436   -0.767832
  H     -3.012042   -3.266574    1.023764
  C     -3.670704   -0.017467   -0.494095
  H     -4.138479    0.879755   -0.094218
  C     -4.367452   -1.216191   -0.407085
  C     -1.318742   -0.814544   -0.629934
  C     -5.634142   -1.310435    0.399129
  H     -5.822995   -2.337623    0.715852
  H     -5.586275   -0.686130    1.292481
  H     -6.497041   -0.992689   -0.195395
  H     -4.360809   -1.827493   -1.293554
  C      2.472389   -0.490650    0.012170
  C      1.378998   -3.096623    0.191673
  H      1.009381   -3.113831   -0.846239
  H      1.080377   -4.042128    0.648432
  C      2.894121   -2.968847    0.206224
  H      3.337319   -3.670623   -0.505526
  C      3.352386   -1.564798   -0.101840
  H      3.258786   -3.245488    1.200415
  C      4.674966   -1.318725   -0.467169
  H      5.360610   -2.154793   -0.559234
  C      2.928702    0.803906   -0.226625
  H      2.240580    1.635628   -0.122796
  C      5.123690   -0.031591   -0.709720
  H      6.155482    0.139006   -0.992985
  C      4.245128    1.038235   -0.584218
  H      4.586992    2.050661   -0.762998
  S     -1.952214    1.763244   -1.509188
  C     -0.935175    2.473189   -0.226712
  C     -1.058587    2.114057    1.111496
  C     -0.261686    2.723362    2.069611
  C      0.649142    3.706866    1.707200
  C      0.759506    4.076851    0.373842
  C     -0.021949    3.458919   -0.592009
  H     -1.770576    1.351279    1.400490
  H     -0.356904    2.428626    3.108009
  H      1.270026    4.179110    2.458154
  H      1.469049    4.840502    0.078266
  H      0.084509    3.731455   -1.635441

 Total Charge           Charge          ....    0
 Multiplicity           Mult            ....    1
 Number of Electrons    NEL             ....  192
 Basis Dimension        Dim             .... 1775

ORBITAL ENERGIES
----------------

  NO   OCC          E(Eh)            E(eV)
   0   2.0000     -91.955985     -2502.2496
   1   2.0000     -15.544425      -422.9853
   2   2.0000     -11.268356      -306.6276
   3   2.0000     -11.265585      -306.5522
   4   2.0000     -11.255025      -306.2648
   5   2.0000     -11.254820      -306.2592
   6   2.0000     -11.253647      -306.2273
   7   2.0000     -11.246684      -306.0378
   8   2.0000     -11.244052      -305.9662
   9   2.0000     -11.240712      -305.8753
  10   2.0000     -11.240539      -305.8706
  11   2.0000     -11.238838      -305.8243
  12   2.0000     -11.238579      -305.8173
  13   2.0000     -11.237459      -305.7868
  14   2.0000     -11.235989      -305.7468
  15   2.0000     -11.234827      -305.7152
  16   2.0000     -11.229730      -305.5765
  17   2.0000     -11.228160      -305.5338
  18   2.0000     -11.227582      -305.5180
  19   2.0000     -11.225993      -305.4748
  20   2.0000     -11.223636      -305.4107
  21   2.0000     -11.221955      -305.3649
  22   2.0000     -11.221771      -305.3599
  23   2.0000     -11.221296      -305.3470
  24   2.0000     -11.219906      -305.3092
  25   2.0000     -11.216802      -305.2247
  26   2.0000      -8.955844      -243.7009
  27   2.0000      -6.637168      -180.6065
  28   2.0000      -6.636016      -180.5752
  29   2.0000      -6.635337      -180.5567
  30   2.0000      -1.250849       -34.0373
  31   2.0000      -1.169011       -31.8104
  32   2.0000      -1.151990       -31.3472
  33   2.0000      -1.140535       -31.0355
  34   2.0000      -1.077124       -29.3100
  35   2.0000      -1.067043       -29.0357
  36   2.0000      -1.051508       -28.6130
  37   2.0000      -1.047494       -28.5038
  38   2.0000      -1.024190       -27.8696
  39   2.0000      -1.016939       -27.6723
  40   2.0000      -0.994292       -27.0561
  41   2.0000      -0.976616       -26.5751
  42   2.0000      -0.936990       -25.4968
  43   2.0000      -0.926136       -25.2014
  44   2.0000      -0.887565       -24.1519
  45   2.0000      -0.860210       -23.4075
  46   2.0000      -0.837679       -22.7944
  47   2.0000      -0.832640       -22.6573
  48   2.0000      -0.824958       -22.4482
  49   2.0000      -0.808612       -22.0034
  50   2.0000      -0.788595       -21.4588
  51   2.0000      -0.781393       -21.2628
  52   2.0000      -0.732633       -19.9359
  53   2.0000      -0.704336       -19.1660
  54   2.0000      -0.691261       -18.8102
  55   2.0000      -0.676532       -18.4094
  56   2.0000      -0.660827       -17.9820
  57   2.0000      -0.657576       -17.8935
  58   2.0000      -0.642147       -17.4737
  59   2.0000      -0.634546       -17.2669
  60   2.0000      -0.633781       -17.2461
  61   2.0000      -0.621473       -16.9111
  62   2.0000      -0.619262       -16.8510
  63   2.0000      -0.599941       -16.3252
  64   2.0000      -0.595626       -16.2078
  65   2.0000      -0.594949       -16.1894
  66   2.0000      -0.591068       -16.0838
  67   2.0000      -0.581743       -15.8300
  68   2.0000      -0.579036       -15.7564
  69   2.0000      -0.570798       -15.5322
  70   2.0000      -0.564894       -15.3715
  71   2.0000      -0.558027       -15.1847
  72   2.0000      -0.552947       -15.0464
  73   2.0000      -0.541472       -14.7342
  74   2.0000      -0.536743       -14.6055
  75   2.0000      -0.524238       -14.2652
  76   2.0000      -0.518337       -14.1047
  77   2.0000      -0.514479       -13.9997
  78   2.0000      -0.505869       -13.7654
  79   2.0000      -0.503064       -13.6891
  80   2.0000      -0.497771       -13.5450
  81   2.0000      -0.495149       -13.4737
  82   2.0000      -0.482857       -13.1392
  83   2.0000      -0.473204       -12.8765
  84   2.0000      -0.459925       -12.5152
  85   2.0000      -0.453056       -12.3283
  86   2.0000      -0.449097       -12.2205
  87   2.0000      -0.432532       -11.7698
  88   2.0000      -0.393616       -10.7108
  89   2.0000      -0.361518        -9.8374
  90   2.0000      -0.346031        -9.4160
  91   2.0000      -0.324021        -8.8171
  92   2.0000      -0.318303        -8.6615
  93   2.0000      -0.316059        -8.6004
  94   2.0000      -0.297986        -8.1086
  95   2.0000      -0.284258        -7.7351
  96   0.0000       0.022468         0.6114
  97   0.0000       0.026808         0.7295
  98   0.0000       0.028802         0.7837
  99   0.0000       0.031408         0.8547
 100   0.0000       0.035497         0.9659

MULLIKEN ATOMIC CHARGES
-----------------------
   0 C :   -0.988340
   1 H :    0.129281
   2 H :    0.306090
   3 C :    1.004722
   4 C :   -1.176812
   5 H :    0.156230
   6 H :    0.046998
   7 C :    0.419727
   8 H :    0.406990
   9 N :   -0.764314
  10 C :    0.689158
  11 C :   -1.169642
  12 H :    0.315518
  13 H :    0.398633
  14 C :   -0.457819
  15 H :    0.283467
  16 C :    0.223440
  17 C :   -0.019932
  18 C :   -0.945535
  19 H :    0.271916
  20 H :    0.284911
  21 H :    0.272306
  22 H :    0.456080
  23 C :    0.825949
  24 C :   -0.600389
  25 H :    0.253092
  26 H :    0.337621
  27 C :   -0.643972
  28 H :    0.212995
  29 C :    1.484658
  30 H :    0.157925
  31 C :   -1.075782
  32 H :   -0.027873
  33 C :   -1.480924
  34 H :    1.069015
  35 C :   -0.280996
  36 H :    0.718507
  37 C :   -0.880554
  38 H :    0.328319
  39 S :   -1.200432
  40 C :    0.884044
  41 C :   -0.529466
  42 C :   -0.691219
  43 C :   -0.248970
  44 C :   -0.471044
  45 C :   -0.704414
  46 H :    0.580703
  47 H :    0.378559
  48 H :    0.494998
  49 H :    0.510767
  50 H :    0.455809
Sum of atomic charges:    0.0000000

LOEWDIN ATOMIC CHARGES
----------------------
   0 C :    0.187144
   1 H :   -0.155126
   2 H :   -0.125705
   3 C :   -0.082120
   4 C :    0.292532
   5 H :   -0.136610
   6 H :   -0.227545
   7 C :   -0.099224
   8 H :   -0.147243
   9 N :    0.324669
  10 C :   -0.437042
  11 C :    0.512623
  12 H :   -0.225455
  13 H :   -0.168522
  14 C :    0.100727
  15 H :   -0.200416
  16 C :    0.154849
  17 C :   -0.104857
  18 C :    0.580091
  19 H :   -0.173217
  20 H :   -0.171996
  21 H :   -0.164211
  22 H :   -0.201523
  23 C :   -0.044592
  24 C :    0.181109
  25 H :   -0.132678
  26 H :   -0.136325
  27 C :    0.308804
  28 H :   -0.142054
  29 C :   -0.060953
  30 H :   -0.133562
  31 C :    0.221260
  32 H :   -0.173234
  33 C :    0.234154
  34 H :   -0.192799
  35 C :    0.197964
  36 H :   -0.184482
  37 C :    0.208217
  38 H :   -0.183075
  39 S :    1.288449
  40 C :   -0.492049
  41 C :    0.130903
  42 C :    0.196778
  43 C :    0.194244
  44 C :    0.181335
  45 C :    0.117119
  46 H :   -0.192329
  47 H :   -0.175033
  48 H :   -0.181255
  49 H :   -0.177175
  50 H :   -0.190565

  Mayer bond orders larger than 0.100000
B(  0-C ,  1-H ) :   1.1531 B(  0-C ,  2-H ) :   0.9459 B(  0-C ,  3-C ) :   0.4842
B(  0-C ,  4-C ) :   0.3192 B(  0-C ,  7-C ) :   0.1375 B(  0-C ,  9-N ) :   1.1793
B(  0-C , 17-C ) :  -0.1121 B(  0-C , 23-C ) :  -0.1104 B(  1-H ,  3-C ) :   0.1022
B(  3-C ,  4-C ) :   0.5555 B(  3-C ,  7-C ) :   0.1513 B(  3-C , 11-C ) :   0.3524
B(  3-C , 12-H ) :  -0.1391 B(  3-C , 14-C ) :   0.4237 B(  3-C , 16-C ) :  -0.1812
B(  3-C , 17-C ) :   1.7369 B(  4-C ,  5-H ) :   1.0685 B(  4-C ,  6-H ) :   1.3187
B(  4-C ,  7-C ) :   0.6299 B(  4-C ,  8-H ) :   0.1021 B(  4-C , 11-C ) :  -0.1313
B(  4-C , 17-C ) :   0.6984 B(  4-C , 23-C ) :   0.1184 B(  4-C , 33-C ) :  -0.1961
B(  4-C , 39-S ) :   0.1466 B(  4-C , 41-C ) :  -0.1932 B(  5-H ,  6-H ) :  -0.1093
B(  5-H , 17-C ) :  -0.3418 B(  5-H , 41-C ) :  -0.1020 B(  6-H , 10-C ) :  -0.1396
B(  6-H , 17-C ) :   0.1736 B(  6-H , 39-S ) :  -0.1593 B(  6-H , 40-C ) :   0.1187
B(  6-H , 41-C ) :   0.1339 B(  6-H , 45-C ) :  -0.1055 B(  6-H , 46-H ) :  -0.1006
B(  7-C ,  8-H ) :   0.9525 B(  7-C ,  9-N ) :  -0.1461 B(  7-C , 10-C ) :   0.1156
B(  7-C , 11-C ) :  -0.1071 B(  7-C , 23-C ) :   0.4158 B(  7-C , 24-C ) :  -0.2998
B(  7-C , 27-C ) :  -0.1384 B(  7-C , 33-C ) :   0.9394 B(  7-C , 34-H ) :  -0.2900
B(  7-C , 37-C ) :   0.2478 B(  7-C , 41-C ) :   0.1075 B(  8-H ,  9-N ) :  -0.1921
B(  8-H , 23-C ) :  -0.2589 B(  8-H , 40-C ) :   0.1072 B(  9-N , 17-C ) :  -0.1632
B(  9-N , 23-C ) :   0.2388 B(  9-N , 24-C ) :   0.9129 B(  9-N , 29-C ) :  -0.1280
B(  9-N , 33-C ) :   0.1151 B( 10-C , 14-C ) :   0.8986 B( 10-C , 15-H ) :  -0.1483
B( 10-C , 17-C ) :   1.4494 B( 10-C , 22-H ) :  -0.1076 B( 10-C , 39-S ) :   0.6774
B( 10-C , 40-C ) :   0.1605 B( 11-C , 12-H ) :   1.0615 B( 11-C , 13-H ) :   0.8451
B( 11-C , 14-C ) :  -0.1117 B( 11-C , 16-C ) :   0.4681 B( 11-C , 17-C ) :   0.3728
B( 11-C , 22-H ) :   0.2238 B( 14-C , 15-H ) :   1.0585 B( 14-C , 16-C ) :   1.1227
B( 14-C , 17-C ) :   0.3126 B( 14-C , 39-S ) :  -0.3019 B( 15-H , 39-S ) :  -0.1686
B( 16-C , 17-C ) :   0.1051 B( 16-C , 18-C ) :   0.5423 B( 16-C , 22-H ) :   0.8667
B( 17-C , 23-C ) :   0.1520 B( 17-C , 33-C ) :   0.1580 B( 17-C , 41-C ) :   0.1665
B( 18-C , 19-H ) :   0.9913 B( 18-C , 20-H ) :   0.9969 B( 18-C , 21-H ) :   1.0137
B( 23-C , 27-C ) :   0.4086 B( 23-C , 29-C ) :   0.7963 B( 23-C , 31-C ) :   0.6816
B( 23-C , 32-H ) :   0.2369 B( 23-C , 33-C ) :  -0.9584 B( 23-C , 34-H ) :   0.3402
B( 23-C , 35-C ) :  -0.1760 B( 23-C , 37-C ) :  -0.2672 B( 23-C , 45-C ) :   0.1410
B( 24-C , 25-H ) :   1.1056 B( 24-C , 26-H ) :   0.9186 B( 24-C , 27-C ) :   0.9387
B( 24-C , 29-C ) :   0.1467 B( 26-H , 27-C ) :  -0.1073 B( 27-C , 28-H ) :   1.1305
B( 27-C , 30-H ) :   1.2533 B( 27-C , 31-C ) :   0.1484 B( 27-C , 33-C ) :  -0.2493
B( 29-C , 30-H ) :  -0.1532 B( 29-C , 31-C ) :   0.3031 B( 29-C , 32-H ) :  -0.1853
B( 29-C , 33-C ) :  -0.1781 B( 29-C , 35-C ) :   0.4754 B( 29-C , 36-H ) :  -0.1207
B( 29-C , 37-C ) :  -0.1270 B( 31-C , 32-H ) :   1.7261 B( 31-C , 35-C ) :   0.9463
B( 31-C , 37-C ) :  -0.1914 B( 32-H , 35-C ) :  -0.1768 B( 33-C , 35-C ) :   0.3079
B( 33-C , 37-C ) :   1.1676 B( 33-C , 38-H ) :  -0.1316 B( 33-C , 41-C ) :   0.1121
B( 34-H , 37-C ) :  -0.2720 B( 34-H , 41-C ) :  -0.2058 B( 34-H , 45-C ) :   0.1123
B( 35-C , 36-H ) :   0.2886 B( 35-C , 37-C ) :   0.9380 B( 35-C , 38-H ) :  -0.1631
B( 37-C , 38-H ) :   1.0100 B( 39-S , 40-C ) :   0.8353 B( 39-S , 41-C ) :   0.2478
B( 39-S , 42-C ) :  -0.1022 B( 39-S , 50-H ) :  -0.1035 B( 40-C , 41-C ) :   1.0688
B( 40-C , 42-C ) :   0.1391 B( 40-C , 44-C ) :   0.2071 B( 40-C , 45-C ) :   1.1257
B( 40-C , 46-H ) :  -0.1380 B( 40-C , 47-H ) :   0.1428 B( 41-C , 42-C ) :   1.0717
B( 41-C , 43-C ) :   0.1539 B( 41-C , 46-H ) :   0.7376 B( 41-C , 47-H ) :  -0.1532
B( 42-C , 43-C ) :   1.1680 B( 42-C , 45-C ) :   0.1256 B( 42-C , 46-H ) :  -0.1383
B( 42-C , 47-H ) :   0.9629 B( 43-C , 44-C ) :   1.2039 B( 43-C , 45-C ) :   0.1288
B( 43-C , 48-H ) :   0.6975 B( 44-C , 45-C ) :   1.1791 B( 44-C , 49-H ) :   0.6792
B( 45-C , 50-H ) :   0.8816

MP2 TOTAL ENERGY:    -1379.945026430 Eh
FINAL SINGLE POINT ENERGY     -1379.945026430216

DIPOLE MOMENT
-------------
                                X             Y             Z
Electronic contribution:      4.38280      11.92104      -5.72719
Nuclear contribution   :     -4.77369     -12.58830       6.21272
                        -----------------------------------------
Total Dipole Moment    :     -0.39089      -0.66726       0.48554
                        -----------------------------------------
Magnitude (a.u.)       :      0.91311
Magnitude (Debye)      :      2.32095

Rotational constants in cm-1:     0.008905     0.005631     0.003945
Rotational constants in MHz :   266.966463   168.808006   118.259961

                             ****ORCA TERMINATED NORMALLY****
TOTAL RUN TIME: 0 days 2 hours 11 minutes 32 seconds 494 msec
