                         Program Version 4.2.1 -  RELEASE  -
|  1> %pal
|  2>  nprocs 32
|  3> end
|  4> !RI-MP2 aug-cc-pVTZ aug-cc-pVTZ/C TightSCF
|  5> %maxcore 4500
|  6> *xyzfile -1 1  09_6TS.xyz
|  7>
|  8>
|  9>                          ****END OF INPUT****

CARTESIAN COORDINATES (ANGSTROEM)
---------------------------------
  C      1.857431   -0.935521   -0.834395
  C      1.294386   -0.056991    0.278314
  C      0.210077   -0.556220    1.014064
  O      1.732855    1.110978    0.354923
  C     -1.567046    0.142109   -0.113523
  C     -2.474015   -0.841865   -0.055799
  C     -1.285582    1.391242   -0.465254
  H      2.949121   -0.887680   -0.818068
  H      1.532722   -1.976184   -0.763653
  H      1.521525   -0.526778   -1.793048
  H     -0.103620   -0.010451    1.896264
  H     -0.016268   -1.614078    0.984940
  H     -0.512437    1.968854    0.026765
  H     -1.739623    1.799870   -1.362860
  H     -3.501506   -0.612145    0.207272
  H     -2.204255   -1.885761   -0.157438

 Total Charge           Charge          ....   -1
 Multiplicity           Mult            ....    1
 Number of Electrons    NEL             ....   54
 Basis Dimension        Dim             ....  529

ORBITAL ENERGIES
----------------

  NO   OCC          E(Eh)            E(eV)
   0   2.0000     -20.321944      -552.9882
   1   2.0000     -11.123037      -302.6732
   2   2.0000     -11.118220      -302.5422
   3   2.0000     -11.068120      -301.1789
   4   2.0000     -11.045957      -300.5758
   5   2.0000     -11.045451      -300.5620
   6   2.0000     -11.017284      -299.7955
   7   2.0000      -1.155547       -31.4440
   8   2.0000      -0.900967       -24.5165
   9   2.0000      -0.848078       -23.0774
  10   2.0000      -0.767997       -20.8982
  11   2.0000      -0.761314       -20.7164
  12   2.0000      -0.546264       -14.8646
  13   2.0000      -0.537612       -14.6292
  14   2.0000      -0.453292       -12.3347
  15   2.0000      -0.448087       -12.1931
  16   2.0000      -0.443623       -12.0716
  17   2.0000      -0.439120       -11.9491
  18   2.0000      -0.419647       -11.4192
  19   2.0000      -0.411364       -11.1938
  20   2.0000      -0.377255       -10.2656
  21   2.0000      -0.342124        -9.3097
  22   2.0000      -0.309315        -8.4169
  23   2.0000      -0.228475        -6.2171
  24   2.0000      -0.218689        -5.9508
  25   2.0000      -0.201069        -5.4714
  26   2.0000      -0.073062        -1.9881
  27   0.0000       0.118951         3.2368
  28   0.0000       0.120907         3.2900
  29   0.0000       0.127527         3.4702
  30   0.0000       0.132648         3.6095
  31   0.0000       0.137784         3.7493

MULLIKEN ATOMIC CHARGES
-----------------------
   0 C :   -0.894908
   1 C :    0.793750
   2 C :   -0.816644
   3 O :   -1.138036
   4 C :    1.105559
   5 C :   -1.426276
   6 C :   -1.403770
   7 H :    0.267690
   8 H :    0.291088
   9 H :    0.255236
  10 H :    0.376092
  11 H :    0.267308
  12 H :    0.375689
  13 H :    0.344033
  14 H :    0.380219
  15 H :    0.222970
Sum of atomic charges:   -1.0000000

LOEWDIN ATOMIC CHARGES
----------------------
   0 C :    0.522800
   1 C :   -0.724556
   2 C :    0.333760
   3 O :    0.350004
   4 C :   -0.084453
   5 C :    0.398445
   6 C :    0.421701
   7 H :   -0.198572
   8 H :   -0.202219
   9 H :   -0.185554
  10 H :   -0.238686
  11 H :   -0.269621
  12 H :   -0.291110
  13 H :   -0.263283
  14 H :   -0.284518
  15 H :   -0.284140

  Mayer bond orders larger than 0.100000
B(  0-C ,  1-C ) :   0.8260 B(  0-C ,  7-H ) :   1.0080 B(  0-C ,  8-H ) :   0.9412
B(  0-C ,  9-H ) :   0.9505 B(  1-C ,  2-C ) :   1.1724 B(  1-C ,  3-O ) :   0.8957
B(  2-C ,  4-C ) :   0.4229 B(  2-C , 10-H ) :   0.8968 B(  2-C , 11-H ) :   0.9512
B(  4-C ,  5-C ) :   1.0528 B(  4-C ,  6-C ) :   1.2320 B(  5-C ,  6-C ) :  -0.3502
B(  5-C , 14-H ) :   0.8996 B(  5-C , 15-H ) :   1.1191 B(  6-C , 12-H ) :   0.9407
B(  6-C , 13-H ) :   0.9530

MP2 TOTAL ENERGY:     -308.582774738 Eh
FINAL SINGLE POINT ENERGY      -308.582774738269

DIPOLE MOMENT
-------------
                                X             Y             Z
Electronic contribution:      2.04140       2.96046       1.34003
Nuclear contribution   :     -2.09762      -3.81895      -1.81808
                        -----------------------------------------
Total Dipole Moment    :     -0.05622      -0.85849      -0.47805
                        -----------------------------------------
Magnitude (a.u.)       :      0.98422
Magnitude (Debye)      :      2.50170

Rotational constants in cm-1:     0.138253     0.055351     0.047926
Rotational constants in MHz :  4144.722574  1659.383144  1436.780904

                             ****ORCA TERMINATED NORMALLY****
TOTAL RUN TIME: 0 days 0 hours 2 minutes 9 seconds 686 msec
