                         Program Version 4.2.1 -  RELEASE  -
|  1> %pal
|  2>  nprocs 32
|  3> end
|  4> !RI-MP2 aug-cc-pVTZ aug-cc-pVTZ/C TightSCF
|  5> %maxcore 4500
|  6> *xyzfile 1 1  05_32TS.xyz
|  7>
|  8>
|  9>                          ****END OF INPUT****

CARTESIAN COORDINATES (ANGSTROEM)
---------------------------------
  H      1.423947   -0.556225    1.030373
  C     -1.523818   -0.971446    1.730823
  C     -0.755979   -1.889134   -0.612342
  C     -1.874811   -1.054754   -1.238521
  C     -3.071663   -0.821515   -0.319119
  C     -2.633890   -0.206040    1.008405
  H     -1.469240   -0.085878   -1.527315
  H     -2.206548   -1.559497   -2.148381
  H     -3.569490   -1.774285   -0.127313
  H     -2.293241    0.809043    0.812400
  H     -3.491917   -0.139019    1.680768
  N     -0.453325   -1.306511    0.736509
  O      0.717495   -1.487327    1.200169
  C     -0.937820   -0.081062    2.818873
  H     -1.740546    0.198755    3.501132
  H     -0.167666   -0.594007    3.393285
  H     -0.530086    0.831072    2.393029
  C     -2.037575   -2.258037    2.400632
  H     -1.205389   -2.873088    2.745089
  H     -2.633486   -1.978336    3.270284
  H     -2.668921   -2.858213    1.751586
  C      0.482111   -1.811332   -1.496411
  H      0.230797   -2.239302   -2.467010
  H      0.786469   -0.781849   -1.648650
  H      1.314934   -2.378414   -1.083100
  C     -1.136784   -3.372784   -0.463081
  H     -1.151264   -3.823876   -1.455778
  H     -0.394735   -3.901837    0.136142
  H     -2.116252   -3.527450   -0.019591
  N     -4.077505    0.014528   -0.970726
  C     -3.869454    1.299408   -1.363514
  C     -5.031691    1.984170   -2.033249
  H     -5.922858    1.361531   -2.109265
  H     -5.272092    2.888027   -1.472984
  H     -4.723325    2.291443   -3.033057
  O     -2.803254    1.872150   -1.186943
  H     -4.979657   -0.391791   -1.154225
  C      5.114635   -0.936920   -0.482717
  C      4.057331   -0.527293    0.307676
  C      2.997278    0.193158   -0.252630
  C      3.014612    0.490488   -1.617007
  C      4.084487    0.092708   -2.401140
  C      5.131540   -0.624697   -1.838213
  H      5.929267   -1.499700   -0.045148
  H      4.047034   -0.780076    1.361600
  H      2.197816    1.049071   -2.054133
  H      4.102723    0.343762   -3.454134
  H      5.964313   -0.939815   -2.454418
  C      1.877528    0.649704    0.599799
  C      2.196532    1.405894    1.874193
  C      1.973046    2.905942    1.642275
  C      0.250645    2.366402   -0.082477
  C      0.537733    3.134524    1.186247
  H      2.675767    3.273416    0.888248
  H      2.179904    3.447849    2.565532
  H      0.754125    2.831185   -0.934655
  H     -0.806720    2.268866   -0.316208
  O      0.762427    0.991632   -0.063721
  H      0.355192    4.190848    0.976337
  H     -0.158208    2.850941    1.979405
  H      1.552816    1.074112    2.689752
  H      3.225051    1.200662    2.162885

 Total Charge           Charge          ....    1
 Multiplicity           Mult            ....    1
 Number of Electrons    NEL             ....  204
 Basis Dimension        Dim             .... 2047

ORBITAL ENERGIES
----------------

  NO   OCC          E(Eh)            E(eV)
   0   2.0000     -20.792617      -565.7959
   1   2.0000     -20.722530      -563.8887
   2   2.0000     -20.612085      -560.8833
   3   2.0000     -15.789829      -429.6631
   4   2.0000     -15.685772      -426.8315
   5   2.0000     -11.475783      -312.2719
   6   2.0000     -11.447809      -311.5107
   7   2.0000     -11.399800      -310.2043
   8   2.0000     -11.399367      -310.1925
   9   2.0000     -11.394995      -310.0736
  10   2.0000     -11.380861      -309.6890
  11   2.0000     -11.364655      -309.2480
  12   2.0000     -11.359700      -309.1131
  13   2.0000     -11.355391      -308.9959
  14   2.0000     -11.354239      -308.9646
  15   2.0000     -11.348410      -308.8059
  16   2.0000     -11.345946      -308.7389
  17   2.0000     -11.342491      -308.6449
  18   2.0000     -11.341831      -308.6269
  19   2.0000     -11.339560      -308.5651
  20   2.0000     -11.330263      -308.3121
  21   2.0000     -11.329545      -308.2926
  22   2.0000     -11.327284      -308.2311
  23   2.0000     -11.326390      -308.2068
  24   2.0000     -11.323745      -308.1348
  25   2.0000     -11.321191      -308.0653
  26   2.0000     -11.316454      -307.9364
  27   2.0000      -1.630226       -44.3607
  28   2.0000      -1.549769       -42.1714
  29   2.0000      -1.480650       -40.2905
  30   2.0000      -1.339937       -36.4615
  31   2.0000      -1.295781       -35.2600
  32   2.0000      -1.278849       -34.7993
  33   2.0000      -1.219738       -33.1908
  34   2.0000      -1.214154       -33.0388
  35   2.0000      -1.192708       -32.4552
  36   2.0000      -1.158593       -31.5269
  37   2.0000      -1.133537       -30.8451
  38   2.0000      -1.123416       -30.5697
  39   2.0000      -1.109462       -30.1900
  40   2.0000      -1.081942       -29.4411
  41   2.0000      -1.059214       -28.8227
  42   2.0000      -1.044686       -28.4274
  43   2.0000      -1.043797       -28.4032
  44   2.0000      -1.016611       -27.6634
  45   2.0000      -1.009977       -27.4829
  46   2.0000      -0.964334       -26.2409
  47   2.0000      -0.944574       -25.7032
  48   2.0000      -0.936693       -25.4887
  49   2.0000      -0.934462       -25.4280
  50   2.0000      -0.901169       -24.5220
  51   2.0000      -0.871503       -23.7148
  52   2.0000      -0.867939       -23.6178
  53   2.0000      -0.843563       -22.9545
  54   2.0000      -0.829108       -22.5612
  55   2.0000      -0.807720       -21.9792
  56   2.0000      -0.802457       -21.8360
  57   2.0000      -0.792152       -21.5556
  58   2.0000      -0.786155       -21.3924
  59   2.0000      -0.777040       -21.1443
  60   2.0000      -0.762817       -20.7573
  61   2.0000      -0.751675       -20.4541
  62   2.0000      -0.745566       -20.2879
  63   2.0000      -0.733190       -19.9511
  64   2.0000      -0.729415       -19.8484
  65   2.0000      -0.723451       -19.6861
  66   2.0000      -0.722151       -19.6507
  67   2.0000      -0.713204       -19.4073
  68   2.0000      -0.707024       -19.2391
  69   2.0000      -0.703389       -19.1402
  70   2.0000      -0.696288       -18.9470
  71   2.0000      -0.692714       -18.8497
  72   2.0000      -0.686914       -18.6919
  73   2.0000      -0.682104       -18.5610
  74   2.0000      -0.678366       -18.4593
  75   2.0000      -0.677711       -18.4414
  76   2.0000      -0.671581       -18.2747
  77   2.0000      -0.662643       -18.0314
  78   2.0000      -0.653492       -17.7824
  79   2.0000      -0.643574       -17.5125
  80   2.0000      -0.639679       -17.4066
  81   2.0000      -0.638467       -17.3736
  82   2.0000      -0.632592       -17.2137
  83   2.0000      -0.630521       -17.1573
  84   2.0000      -0.621648       -16.9159
  85   2.0000      -0.617451       -16.8017
  86   2.0000      -0.615942       -16.7606
  87   2.0000      -0.607005       -16.5174
  88   2.0000      -0.606380       -16.5004
  89   2.0000      -0.604675       -16.4540
  90   2.0000      -0.594688       -16.1823
  91   2.0000      -0.590055       -16.0562
  92   2.0000      -0.580814       -15.8048
  93   2.0000      -0.579859       -15.7788
  94   2.0000      -0.570031       -15.5113
  95   2.0000      -0.567621       -15.4457
  96   2.0000      -0.560089       -15.2408
  97   2.0000      -0.515626       -14.0309
  98   2.0000      -0.492639       -13.4054
  99   2.0000      -0.489255       -13.3133
 100   2.0000      -0.451334       -12.2814
 101   2.0000      -0.422618       -11.5000
 102   0.0000      -0.128237        -3.4895
 103   0.0000      -0.051673        -1.4061
 104   0.0000      -0.047192        -1.2842
 105   0.0000      -0.043766        -1.1909
 106   0.0000      -0.042116        -1.1460

MULLIKEN ATOMIC CHARGES
-----------------------
   0 H :    0.697949
   1 C :    1.802128
   2 C :    1.971648
   3 C :   -0.929217
   4 C :    0.967230
   5 C :   -0.921355
   6 H :    0.456201
   7 H :    0.355702
   8 H :    0.202489
   9 H :    0.550271
  10 H :    0.299188
  11 N :    1.874214
  12 O :   -1.684469
  13 C :   -1.837786
  14 H :    0.039891
  15 H :    0.175258
  16 H :    0.624852
  17 C :   -1.725596
  18 H :    0.136278
  19 H :    0.078747
  20 H :    0.295946
  21 C :   -1.623356
  22 H :   -0.061239
  23 H :    0.637532
  24 H :    0.243187
  25 C :   -1.820019
  26 H :    0.058317
  27 H :    0.135950
  28 H :    0.316212
  29 N :   -0.701963
  30 C :    0.752499
  31 C :   -0.972671
  32 H :    0.289627
  33 H :    0.323507
  34 H :    0.327150
  35 O :   -1.166735
  36 H :   -0.076534
  37 C :   -0.671846
  38 C :   -1.059376
  39 C :    2.141427
  40 C :   -0.326201
  41 C :   -1.317491
  42 C :   -0.104139
  43 H :    0.576690
  44 H :   -0.170569
  45 H :    0.294321
  46 H :    0.362341
  47 H :    0.591094
  48 C :    1.220576
  49 C :   -0.958938
  50 C :   -0.688077
  51 C :   -0.821251
  52 C :   -0.419155
  53 H :    0.061939
  54 H :    0.414160
  55 H :    0.071626
  56 H :    0.831867
  57 O :   -0.010896
  58 H :    0.308699
  59 H :    0.135988
  60 H :    0.176244
  61 H :    0.269937
Sum of atomic charges:    1.0000000

LOEWDIN ATOMIC CHARGES
----------------------
   0 H :   -0.553787
   1 C :   -0.355507
   2 C :   -0.356112
   3 C :    0.336139
   4 C :   -0.049371
   5 C :    0.336522
   6 H :   -0.170104
   7 H :   -0.111626
   8 H :   -0.129601
   9 H :   -0.190001
  10 H :   -0.110424
  11 N :    0.113742
  12 O :    0.759675
  13 C :    0.610256
  14 H :   -0.131672
  15 H :   -0.143343
  16 H :   -0.217203
  17 C :    0.630896
  18 H :   -0.138337
  19 H :   -0.144115
  20 H :   -0.189566
  21 C :    0.606192
  22 H :   -0.136071
  23 H :   -0.225765
  24 H :   -0.144972
  25 C :    0.630638
  26 H :   -0.144477
  27 H :   -0.137359
  28 H :   -0.194065
  29 N :    0.606799
  30 C :   -0.637612
  31 C :    0.617719
  32 H :   -0.176650
  33 H :   -0.163816
  34 H :   -0.163115
  35 O :    0.511365
  36 H :   -0.274117
  37 C :    0.235417
  38 C :    0.238278
  39 C :   -0.086949
  40 C :    0.225078
  41 C :    0.238275
  42 C :    0.233643
  43 H :   -0.169390
  44 H :   -0.159860
  45 H :   -0.174531
  46 H :   -0.168787
  47 H :   -0.164702
  48 C :   -0.307350
  49 C :    0.359257
  50 C :    0.335334
  51 C :    0.171010
  52 C :    0.321220
  53 H :   -0.124030
  54 H :   -0.122654
  55 H :   -0.130491
  56 H :   -0.231293
  57 O :    0.681369
  58 H :   -0.121257
  59 H :   -0.150723
  60 H :   -0.156408
  61 H :   -0.141611

  Mayer bond orders larger than 0.100000
B(  0-H ,  1-C ) :  -0.1033 B(  0-H , 11-N ) :   0.3201 B(  0-H , 12-O ) :  -0.1668
B(  0-H , 48-C ) :   0.5674 B(  0-H , 49-C ) :   0.1217 B(  0-H , 57-O ) :  -0.1140
B(  1-C ,  3-C ) :   0.1229 B(  1-C ,  4-C ) :  -0.1110 B(  1-C ,  5-C ) :   0.2748
B(  1-C , 11-N ) :   0.8530 B(  1-C , 12-O ) :   0.2310 B(  1-C , 14-H ) :  -0.1571
B(  1-C , 18-H ) :  -0.1227 B(  1-C , 19-H ) :  -0.2925 B(  1-C , 20-H ) :  -0.1125
B(  2-C ,  3-C ) :   0.3030 B(  2-C ,  4-C ) :  -0.1453 B(  2-C ,  5-C ) :   0.1068
B(  2-C , 11-N ) :   0.8809 B(  2-C , 12-O ) :   0.1767 B(  2-C , 22-H ) :  -0.1315
B(  2-C , 25-C ) :  -0.3232 B(  2-C , 26-H ) :  -0.3609 B(  2-C , 27-H ) :  -0.1920
B(  2-C , 28-H ) :  -0.1024 B(  3-C ,  4-C ) :   0.9214 B(  3-C ,  6-H ) :   0.9407
B(  3-C ,  7-H ) :   0.7836 B(  3-C ,  8-H ) :   0.1005 B(  3-C , 11-N ) :   0.3721
B(  3-C , 29-N ) :   0.2367 B(  3-C , 57-O ) :  -0.1514 B(  4-C ,  5-C ) :   0.9486
B(  4-C ,  7-H ) :  -0.1375 B(  4-C ,  8-H ) :   0.8193 B(  4-C , 10-H ) :  -0.1443
B(  4-C , 29-N ) :  -0.5423 B(  4-C , 30-C ) :  -0.7197 B(  5-C ,  8-H ) :   0.1018
B(  5-C ,  9-H ) :   0.8926 B(  5-C , 10-H ) :   0.8259 B(  5-C , 11-N ) :   0.3250
B(  5-C , 29-N ) :   0.2527 B(  5-C , 57-O ) :  -0.1479 B(  6-H , 11-N ) :   0.1931
B(  6-H , 21-C ) :  -0.1063 B(  6-H , 35-O ) :  -0.1371 B(  8-H , 29-N ) :  -0.2147
B(  8-H , 30-C ) :   0.1939 B(  9-H , 11-N ) :   0.1344 B(  9-H , 35-O ) :  -0.1440
B( 11-N , 13-C ) :  -0.3444 B( 11-N , 15-H ) :  -0.1769 B( 11-N , 17-C ) :  -0.4773
B( 11-N , 18-H ) :  -0.2933 B( 11-N , 21-C ) :  -0.2267 B( 11-N , 24-H ) :  -0.1216
B( 11-N , 25-C ) :  -0.3409 B( 11-N , 27-H ) :  -0.1982 B( 11-N , 39-C ) :   0.1326
B( 11-N , 48-C ) :   0.1788 B( 11-N , 57-O ) :  -0.2262 B( 12-O , 15-H ) :   0.1044
B( 12-O , 17-C ) :   0.1824 B( 12-O , 18-H ) :   0.1257 B( 12-O , 25-C ) :   0.1216
B( 12-O , 38-C ) :   0.1745 B( 12-O , 39-C ) :   0.1016 B( 12-O , 48-C ) :  -0.2208
B( 12-O , 57-O ) :   0.1218 B( 13-C , 14-H ) :   1.5019 B( 13-C , 15-H ) :   1.2199
B( 13-C , 16-H ) :   0.7560 B( 13-C , 17-C ) :   0.1546 B( 17-C , 18-H ) :   1.3104
B( 17-C , 19-H ) :   1.4027 B( 17-C , 20-H ) :   1.1394 B( 21-C , 22-H ) :   1.5347
B( 21-C , 23-H ) :   0.7316 B( 21-C , 24-H ) :   1.1020 B( 21-C , 25-C ) :   0.1863
B( 21-C , 39-C ) :  -0.1027 B( 23-H , 57-O ) :  -0.1131 B( 25-C , 26-H ) :   1.4733
B( 25-C , 27-H ) :   1.3250 B( 25-C , 28-H ) :   1.1062 B( 29-N , 30-C ) :   1.2403
B( 29-N , 35-O ) :   0.1951 B( 29-N , 36-H ) :   1.2332 B( 30-C , 31-C ) :   0.3420
B( 30-C , 34-H ) :  -0.1028 B( 30-C , 35-O ) :   1.6036 B( 30-C , 36-H ) :  -0.1464
B( 31-C , 32-H ) :   0.9611 B( 31-C , 33-H ) :   1.0410 B( 31-C , 34-H ) :   1.0367
B( 31-C , 35-O ) :  -0.2064 B( 35-O , 56-H ) :  -0.2013 B( 37-C , 38-C ) :   1.7508
B( 37-C , 39-C ) :  -0.3167 B( 37-C , 41-C ) :   0.2351 B( 37-C , 42-C ) :   1.1259
B( 37-C , 43-H ) :   0.5935 B( 37-C , 45-H ) :  -0.3012 B( 37-C , 46-H ) :   0.1037
B( 37-C , 47-H ) :  -0.2622 B( 37-C , 48-C ) :   0.4709 B( 38-C , 40-C ) :  -0.5137
B( 38-C , 44-H ) :   1.9647 B( 38-C , 45-H ) :   0.2354 B( 38-C , 48-C ) :   0.1002
B( 38-C , 57-O ) :  -0.1103 B( 39-C , 40-C ) :   0.5033 B( 39-C , 41-C ) :  -0.1598
B( 39-C , 42-C ) :  -0.1022 B( 39-C , 45-H ) :  -0.1559 B( 39-C , 48-C ) :  -0.3445
B( 39-C , 57-O ) :   0.1322 B( 40-C , 41-C ) :   1.0419 B( 40-C , 42-C ) :   0.2749
B( 40-C , 45-H ) :   1.1859 B( 40-C , 47-H ) :  -0.1074 B( 40-C , 48-C ) :   0.4318
B( 40-C , 49-C ) :  -0.1109 B( 41-C , 42-C ) :   1.1969 B( 41-C , 45-H ) :  -0.2793
B( 41-C , 46-H ) :   0.9636 B( 41-C , 47-H ) :  -0.1265 B( 41-C , 48-C ) :   0.1334
B( 42-C , 47-H ) :   0.5705 B( 42-C , 48-C ) :   0.1025 B( 44-H , 45-H ) :   0.2040
B( 44-H , 48-C ) :  -0.8109 B( 44-H , 57-O ) :   0.1069 B( 45-H , 48-C ) :  -0.2102
B( 45-H , 57-O ) :   0.1051 B( 47-H , 48-C ) :   0.2043 B( 48-C , 49-C ) :   0.2561
B( 48-C , 50-C ) :  -0.1867 B( 48-C , 52-C ) :  -0.1594 B( 48-C , 55-H ) :   0.1102
B( 48-C , 57-O ) :   1.3653 B( 49-C , 50-C ) :   1.0436 B( 49-C , 60-H ) :   1.1896
B( 49-C , 61-H ) :   0.9913 B( 50-C , 51-C ) :   0.1244 B( 50-C , 52-C ) :   0.9054
B( 50-C , 53-H ) :   1.2322 B( 50-C , 54-H ) :   0.7989 B( 50-C , 60-H ) :   0.1818
B( 51-C , 52-C ) :   0.8645 B( 51-C , 55-H ) :   1.1863 B( 51-C , 56-H ) :   0.5074
B( 51-C , 57-O ) :   0.9064 B( 52-C , 58-H ) :   0.9061 B( 52-C , 59-H ) :   1.1255
B( 55-H , 57-O ) :  -0.1248 B( 56-H , 57-O ) :   0.2508

MP2 TOTAL ENERGY:    -1191.987770464 Eh
FINAL SINGLE POINT ENERGY     -1191.987770463830

DIPOLE MOMENT
-------------
                                X             Y             Z
Electronic contribution:     10.82423       1.57349      -5.60122
Nuclear contribution   :    -11.08157      -1.80230       5.97736
                        -----------------------------------------
Total Dipole Moment    :     -0.25734      -0.22881       0.37614
                        -----------------------------------------
Magnitude (a.u.)       :      0.50996
Magnitude (Debye)      :      1.29622

Rotational constants in cm-1:     0.009336     0.004539     0.004275
Rotational constants in MHz :   279.883157   136.072097   128.164789

                             ****ORCA TERMINATED NORMALLY****
TOTAL RUN TIME: 0 days 5 hours 49 minutes 37 seconds 542 msec
