                         Program Version 4.2.1 -  RELEASE  -
|  1> %pal
|  2>  nprocs 32
|  3> end
|  4> !RI-MP2 aug-cc-pVTZ aug-cc-pVTZ/C TightSCF
|  5> %maxcore 4500
|  6> *xyzfile -1 1  09_6P.xyz
|  7>
|  8>
|  9>                          ****END OF INPUT****

CARTESIAN COORDINATES (ANGSTROEM)
---------------------------------
  C      1.234983    1.207897    0.769167
  C      1.233033   -0.009803   -0.125298
  C     -0.006097   -0.257366   -0.950254
  O      2.222991   -0.713918   -0.215629
  C     -1.276046   -0.198156   -0.109700
  C     -2.100654    0.895843   -0.325896
  C     -1.385729   -1.217436    0.824159
  H      1.977533    1.079197    1.556504
  H      1.515320    2.076886    0.163354
  H      0.239621    1.392799    1.172988
  H     -0.657587   -2.019044    0.860028
  H     -2.235059   -1.279414    1.496542
  H      0.113235   -1.231521   -1.429351
  H     -0.046195    0.506343   -1.736124
  H     -3.006836    1.043649    0.252827
  H     -1.880900    1.616577   -1.104799

 Total Charge           Charge          ....   -1
 Multiplicity           Mult            ....    1
 Number of Electrons    NEL             ....   54
 Basis Dimension        Dim             ....  529

ORBITAL ENERGIES
----------------

  NO   OCC          E(Eh)            E(eV)
   0   2.0000     -20.398072      -555.0598
   1   2.0000     -11.184933      -304.3575
   2   2.0000     -11.086966      -301.6917
   3   2.0000     -11.075424      -301.3776
   4   2.0000     -11.064590      -301.0828
   5   2.0000     -10.996423      -299.2279
   6   2.0000     -10.992189      -299.1127
   7   2.0000      -1.238598       -33.7040
   8   2.0000      -0.928386       -25.2627
   9   2.0000      -0.855202       -23.2712
  10   2.0000      -0.780198       -21.2303
  11   2.0000      -0.710171       -19.3247
  12   2.0000      -0.594361       -16.1734
  13   2.0000      -0.532367       -14.4864
  14   2.0000      -0.494819       -13.4647
  15   2.0000      -0.487182       -13.2569
  16   2.0000      -0.462449       -12.5839
  17   2.0000      -0.427828       -11.6418
  18   2.0000      -0.422010       -11.4835
  19   2.0000      -0.394191       -10.7265
  20   2.0000      -0.363549        -9.8927
  21   2.0000      -0.342345        -9.3157
  22   2.0000      -0.330808        -9.0018
  23   2.0000      -0.302983        -8.2446
  24   2.0000      -0.269207        -7.3255
  25   2.0000      -0.211323        -5.7504
  26   2.0000      -0.042968        -1.1692
  27   0.0000       0.116961         3.1827
  28   0.0000       0.125234         3.4078
  29   0.0000       0.127435         3.4677
  30   0.0000       0.131504         3.5784
  31   0.0000       0.138456         3.7676

MULLIKEN ATOMIC CHARGES
-----------------------
   0 C :   -0.871051
   1 C :    0.621844
   2 C :   -0.183860
   3 O :   -1.004368
   4 C :    1.316082
   5 C :   -1.503196
   6 C :   -1.617360
   7 H :    0.258359
   8 H :    0.290743
   9 H :    0.366554
  10 H :    0.224440
  11 H :    0.191514
  12 H :    0.222645
  13 H :    0.265572
  14 H :    0.216297
  15 H :    0.205785
Sum of atomic charges:   -1.0000000

LOEWDIN ATOMIC CHARGES
----------------------
   0 C :    0.561933
   1 C :   -0.550463
   2 C :    0.203686
   3 O :    0.427792
   4 C :   -0.352839
   5 C :    0.400934
   6 C :    0.404559
   7 H :   -0.188022
   8 H :   -0.173046
   9 H :   -0.208463
  10 H :   -0.295685
  11 H :   -0.289291
  12 H :   -0.170460
  13 H :   -0.174575
  14 H :   -0.288234
  15 H :   -0.307826

  Mayer bond orders larger than 0.100000
B(  0-C ,  1-C ) :   0.7726 B(  0-C ,  7-H ) :   0.9953 B(  0-C ,  8-H ) :   0.9385
B(  0-C ,  9-H ) :   0.8841 B(  1-C ,  2-C ) :   0.8385 B(  1-C ,  3-O ) :   1.0293
B(  1-C ,  4-C ) :   0.2607 B(  2-C ,  4-C ) :   0.9493 B(  2-C , 12-H ) :   0.9496
B(  2-C , 13-H ) :   0.9569 B(  4-C ,  5-C ) :   0.7080 B(  4-C ,  6-C ) :   0.8123
B(  5-C , 14-H ) :   1.1040 B(  5-C , 15-H ) :   1.0605 B(  6-C , 10-H ) :   0.9826
B(  6-C , 11-H ) :   1.1579

MP2 TOTAL ENERGY:     -308.632184156 Eh
FINAL SINGLE POINT ENERGY      -308.632184155653

DIPOLE MOMENT
-------------
                                X             Y             Z
Electronic contribution:      5.54376      -2.34235      -1.52125
Nuclear contribution   :     -4.04335       3.25267       1.25893
                        -----------------------------------------
Total Dipole Moment    :      1.50041       0.91032      -0.26232
                        -----------------------------------------
Magnitude (a.u.)       :      1.77446
Magnitude (Debye)      :      4.51032

Rotational constants in cm-1:     0.147010     0.060783     0.054618
Rotational constants in MHz :  4407.253122  1822.223637  1637.419323

                             ****ORCA TERMINATED NORMALLY****
TOTAL RUN TIME: 0 days 0 hours 2 minutes 15 seconds 419 msec
