                         Program Version 4.2.1 -  RELEASE  -
|  1> %pal
|  2>  nprocs 32
|  3> end
|  4> !RI-MP2 aug-cc-pVTZ aug-cc-pVTZ/C TightSCF
|  5> %maxcore 4500
|  6> *xyzfile 0 1  02_38TS.xyz
|  7>
|  8>
|  9>                          ****END OF INPUT****

CARTESIAN COORDINATES (ANGSTROEM)
---------------------------------
  C     -5.292603    0.358811   -1.146888
  C     -4.185014    0.963708   -1.719417
  C     -2.922914    0.785644   -1.172526
  C     -2.737522   -0.006253   -0.033131
  C     -3.864462   -0.614933    0.537689
  C     -5.119764   -0.429574   -0.017107
  H     -6.277996    0.498994   -1.574220
  H     -4.297171    1.582333   -2.601998
  H     -2.078458    1.269602   -1.643347
  H     -3.749447   -1.228225    1.417476
  H     -5.974529   -0.909721    0.444604
  C     -1.390790   -0.188949    0.533498
  C     -1.088788   -1.025322    1.679578
  O     -1.853731   -1.624987    2.375688
  O      0.276426   -1.143421    1.982901
  N     -0.357402    0.451592   -0.008117
  N     -0.019235    1.245742   -0.804142
  C      1.167622   -0.513801    1.166220
  C      1.670945    0.709247    1.592382
  H      1.425091    0.997314    2.609326
  C      1.798681   -1.396600    0.152541
  C      1.039201   -2.293620   -0.597918
  C      3.185260   -1.393235    0.003299
  C      1.652590   -3.142839   -1.503971
  H     -0.036594   -2.321266   -0.484642
  C      3.798011   -2.246918   -0.899415
  H      3.782110   -0.720256    0.605149
  C      3.032147   -3.119609   -1.660425
  H      1.050209   -3.827131   -2.088333
  H      4.876273   -2.238007   -1.001125
  H      3.509785   -3.787545   -2.366839
  C      2.099532    1.689930    0.709187
  C      2.341727    3.130453    1.107207
  C      1.988812    1.600440   -0.677715
  C      1.925949    3.921324   -0.144424
  H      3.406934    3.271569    1.321827
  C      2.175870    2.948571   -1.308212
  H      2.157665    0.697094   -1.241403
  H      0.859360    4.148612   -0.091547
  H      2.463469    4.863477   -0.250881
  H      1.500825    3.097885   -2.152485
  H      3.199961    3.032961   -1.690839
  H      1.790485    3.419378    2.003664

 Total Charge           Charge          ....    0
 Multiplicity           Mult            ....    1
 Number of Electrons    NEL             ....  174
 Basis Dimension        Dim             .... 1564

ORBITAL ENERGIES
----------------

  NO   OCC          E(Eh)            E(eV)
   0   2.0000     -20.613919      -560.9333
   1   2.0000     -20.534577      -558.7742
   2   2.0000     -15.710916      -427.5158
   3   2.0000     -15.655899      -426.0187
   4   2.0000     -11.387027      -309.8568
   5   2.0000     -11.359587      -309.1101
   6   2.0000     -11.275279      -306.8159
   7   2.0000     -11.272553      -306.7418
   8   2.0000     -11.266254      -306.5703
   9   2.0000     -11.265258      -306.5432
  10   2.0000     -11.258098      -306.3484
  11   2.0000     -11.257081      -306.3208
  12   2.0000     -11.256818      -306.3136
  13   2.0000     -11.253343      -306.2190
  14   2.0000     -11.252034      -306.1834
  15   2.0000     -11.251093      -306.1578
  16   2.0000     -11.248493      -306.0870
  17   2.0000     -11.245085      -305.9943
  18   2.0000     -11.241066      -305.8850
  19   2.0000     -11.237222      -305.7804
  20   2.0000     -11.224760      -305.4413
  21   2.0000     -11.222103      -305.3689
  22   2.0000     -11.221431      -305.3507
  23   2.0000     -11.219635      -305.3018
  24   2.0000     -11.214946      -305.1742
  25   2.0000      -1.474685       -40.1282
  26   2.0000      -1.431610       -38.9561
  27   2.0000      -1.376502       -37.4565
  28   2.0000      -1.187872       -32.3236
  29   2.0000      -1.174141       -31.9500
  30   2.0000      -1.157077       -31.4857
  31   2.0000      -1.114455       -30.3259
  32   2.0000      -1.098382       -29.8885
  33   2.0000      -1.044263       -28.4158
  34   2.0000      -1.038064       -28.2472
  35   2.0000      -1.007967       -27.4282
  36   2.0000      -1.005817       -27.3697
  37   2.0000      -0.990440       -26.9512
  38   2.0000      -0.973290       -26.4846
  39   2.0000      -0.891825       -24.2678
  40   2.0000      -0.868585       -23.6354
  41   2.0000      -0.851048       -23.1582
  42   2.0000      -0.842468       -22.9247
  43   2.0000      -0.827267       -22.5111
  44   2.0000      -0.812676       -22.1140
  45   2.0000      -0.804512       -21.8919
  46   2.0000      -0.762666       -20.7532
  47   2.0000      -0.755187       -20.5497
  48   2.0000      -0.733818       -19.9682
  49   2.0000      -0.713068       -19.4036
  50   2.0000      -0.693481       -18.8706
  51   2.0000      -0.684837       -18.6354
  52   2.0000      -0.676345       -18.4043
  53   2.0000      -0.659323       -17.9411
  54   2.0000      -0.654196       -17.8016
  55   2.0000      -0.645553       -17.5664
  56   2.0000      -0.642648       -17.4873
  57   2.0000      -0.639349       -17.3976
  58   2.0000      -0.622570       -16.9410
  59   2.0000      -0.618331       -16.8256
  60   2.0000      -0.614264       -16.7150
  61   2.0000      -0.607624       -16.5343
  62   2.0000      -0.596863       -16.2415
  63   2.0000      -0.588643       -16.0178
  64   2.0000      -0.573080       -15.5943
  65   2.0000      -0.570201       -15.5160
  66   2.0000      -0.567047       -15.4301
  67   2.0000      -0.551236       -14.9999
  68   2.0000      -0.538002       -14.6398
  69   2.0000      -0.530663       -14.4401
  70   2.0000      -0.521631       -14.1943
  71   2.0000      -0.514541       -14.0014
  72   2.0000      -0.509869       -13.8743
  73   2.0000      -0.505328       -13.7507
  74   2.0000      -0.500787       -13.6271
  75   2.0000      -0.499591       -13.5946
  76   2.0000      -0.494145       -13.4464
  77   2.0000      -0.486763       -13.2455
  78   2.0000      -0.472047       -12.8451
  79   2.0000      -0.450103       -12.2479
  80   2.0000      -0.390900       -10.6369
  81   2.0000      -0.379755       -10.3337
  82   2.0000      -0.370942       -10.0938
  83   2.0000      -0.358260        -9.7488
  84   2.0000      -0.327943        -8.9238
  85   2.0000      -0.308496        -8.3946
  86   2.0000      -0.278370        -7.5748
  87   0.0000       0.017107         0.4655
  88   0.0000       0.024540         0.6678
  89   0.0000       0.027142         0.7386
  90   0.0000       0.031683         0.8621
  91   0.0000       0.034413         0.9364

MULLIKEN ATOMIC CHARGES
-----------------------
   0 C :   -0.267837
   1 C :   -1.027361
   2 C :   -0.944520
   3 C :    2.499320
   4 C :   -0.947890
   5 C :   -0.892763
   6 H :    0.416830
   7 H :    0.567328
   8 H :    0.107826
   9 H :   -0.012573
  10 H :    0.492363
  11 C :    0.131185
  12 C :    1.002222
  13 O :   -1.152638
  14 O :   -0.992510
  15 N :    0.798258
  16 N :   -1.345337
  17 C :    1.547111
  18 C :   -1.558517
  19 H :    0.002200
  20 C :    1.834117
  21 C :   -0.920234
  22 C :   -0.432642
  23 C :   -1.073103
  24 H :    0.347153
  25 C :   -0.920597
  26 H :    0.294790
  27 C :   -0.068185
  28 H :    0.462470
  29 H :    0.365857
  30 H :    0.585291
  31 C :    1.125704
  32 C :   -0.873299
  33 C :    0.057517
  34 C :   -0.480069
  35 H :    0.187734
  36 C :   -1.182654
  37 H :    0.793283
  38 H :    0.202765
  39 H :    0.371116
  40 H :    0.337743
  41 H :    0.221769
  42 H :    0.340777
Sum of atomic charges:   -0.0000000

LOEWDIN ATOMIC CHARGES
----------------------
   0 C :    0.188495
   1 C :    0.193966
   2 C :    0.204386
   3 C :   -0.117783
   4 C :    0.217098
   5 C :    0.197658
   6 H :   -0.187223
   7 H :   -0.182773
   8 H :   -0.256694
   9 H :   -0.257986
  10 H :   -0.181375
  11 C :   -0.239044
  12 C :   -0.787505
  13 O :    0.482285
  14 O :    0.608890
  15 N :    0.047515
  16 N :    0.435909
  17 C :   -0.436564
  18 C :    0.235111
  19 H :   -0.158285
  20 C :   -0.118220
  21 C :    0.232038
  22 C :    0.210505
  23 C :    0.224580
  24 H :   -0.182703
  25 C :    0.218734
  26 H :   -0.170421
  27 C :    0.211398
  28 H :   -0.175424
  29 H :   -0.177977
  30 H :   -0.175626
  31 C :   -0.110437
  32 C :    0.317253
  33 C :    0.098338
  34 C :    0.315535
  35 H :   -0.134793
  36 C :    0.298165
  37 H :   -0.188307
  38 H :   -0.141317
  39 H :   -0.140029
  40 H :   -0.141661
  41 H :   -0.135805
  42 H :   -0.139909

  Mayer bond orders larger than 0.100000
B(  0-C ,  1-C ) :   1.0801 B(  0-C ,  2-C ) :  -0.2098 B(  0-C ,  4-C ) :  -0.1936
B(  0-C ,  5-C ) :   1.0310 B(  0-C ,  6-H ) :   0.8812 B(  0-C ,  9-H ) :  -0.1164
B(  0-C , 11-C ) :   0.2449 B(  1-C ,  2-C ) :   1.1536 B(  1-C ,  3-C ) :  -0.1256
B(  1-C ,  5-C ) :   0.3570 B(  1-C ,  6-H ) :  -0.2017 B(  1-C ,  7-H ) :   0.4253
B(  2-C ,  4-C ) :  -0.8540 B(  2-C ,  5-C ) :   0.1796 B(  2-C ,  6-H ) :   0.1123
B(  2-C ,  8-H ) :   1.8666 B(  2-C ,  9-H ) :   0.2456 B(  2-C , 11-C ) :   0.6809
B(  2-C , 16-N ) :  -0.2490 B(  3-C ,  4-C ) :   0.1130 B(  3-C ,  5-C ) :  -0.1450
B(  3-C ,  8-H ) :  -0.2134 B(  3-C ,  9-H ) :  -0.1855 B(  3-C , 11-C ) :  -0.8670
B(  3-C , 12-C ) :   0.3727 B(  3-C , 13-O ) :   0.1354 B(  3-C , 15-N ) :  -0.2634
B(  3-C , 17-C ) :   0.1083 B(  4-C ,  5-C ) :   1.2025 B(  4-C ,  6-H ) :   0.1800
B(  4-C ,  8-H ) :   0.1425 B(  4-C ,  9-H ) :   1.9966 B(  4-C , 10-H ) :  -0.1389
B(  4-C , 11-C ) :   0.4433 B(  4-C , 12-C ) :   0.1515 B(  5-C ,  6-H ) :  -0.2174
B(  5-C , 10-H ) :   0.6786 B(  6-H , 11-C ) :  -0.2172 B(  7-H ,  9-H ) :  -0.1264
B(  7-H , 11-C ) :   0.3474 B(  8-H ,  9-H ) :   0.3677 B(  8-H , 11-C ) :  -0.2854
B(  8-H , 15-N ) :  -0.2033 B(  9-H , 11-C ) :  -0.5577 B( 11-C , 12-C ) :   0.8682
B( 11-C , 15-N ) :   1.6195 B( 11-C , 16-N ) :  -0.2080 B( 11-C , 20-C ) :  -0.1283
B( 11-C , 21-C ) :   0.1535 B( 12-C , 13-O ) :   0.8311 B( 12-C , 14-O ) :   1.1784
B( 12-C , 15-N ) :  -0.6016 B( 12-C , 16-N ) :   0.1212 B( 13-O , 14-O ) :  -0.2814
B( 13-O , 17-C ) :   0.1426 B( 14-O , 17-C ) :  -0.9784 B( 14-O , 20-C ) :   0.1223
B( 15-N , 16-N ) :   0.4904 B( 15-N , 17-C ) :   0.1981 B( 15-N , 18-C ) :   0.2467
B( 15-N , 33-C ) :  -0.1207 B( 16-N , 18-C ) :   0.1091 B( 16-N , 31-C ) :   0.1876
B( 16-N , 33-C ) :   0.2173 B( 17-C , 18-C ) :   0.5364 B( 17-C , 20-C ) :   0.7433
B( 17-C , 21-C ) :   0.3909 B( 17-C , 22-C ) :   0.2143 B( 17-C , 33-C ) :   0.1471
B( 18-C , 19-H ) :   1.4106 B( 18-C , 21-C ) :  -0.1462 B( 18-C , 22-C ) :  -0.1610
B( 18-C , 26-H ) :  -0.1062 B( 18-C , 31-C ) :   0.5720 B( 19-H , 20-C ) :  -0.2937
B( 19-H , 21-C ) :   0.1660 B( 19-H , 31-C ) :  -0.3165 B( 20-C , 21-C ) :   0.1288
B( 20-C , 22-C ) :   0.7107 B( 20-C , 26-H ) :  -0.1554 B( 21-C , 22-C ) :  -0.5984
B( 21-C , 23-C ) :   1.3583 B( 21-C , 24-H ) :   1.1576 B( 21-C , 26-H ) :   0.2124
B( 22-C , 25-C ) :   1.1989 B( 22-C , 26-H ) :   1.2397 B( 22-C , 33-C ) :   0.1215
B( 23-C , 24-H ) :  -0.1628 B( 23-C , 25-C ) :   0.2120 B( 23-C , 26-H ) :  -0.1539
B( 23-C , 27-C ) :   1.0829 B( 23-C , 28-H ) :   0.7151 B( 23-C , 30-H ) :  -0.2016
B( 25-C , 26-H ) :  -0.1301 B( 25-C , 27-C ) :   1.0889 B( 25-C , 29-H ) :   1.0001
B( 25-C , 30-H ) :  -0.1543 B( 27-C , 30-H ) :   0.5921 B( 31-C , 33-C ) :   1.3487
B( 31-C , 34-C ) :  -0.1622 B( 31-C , 35-H ) :  -0.1146 B( 32-C , 34-C ) :   1.0910
B( 32-C , 35-H ) :   1.1297 B( 32-C , 36-C ) :   0.2751 B( 32-C , 42-H ) :   0.9318
B( 33-C , 34-C ) :  -0.1272 B( 33-C , 36-C ) :   0.6279 B( 33-C , 37-H ) :   0.5306
B( 34-C , 36-C ) :   1.1036 B( 34-C , 38-H ) :   1.0569 B( 34-C , 39-H ) :   0.8573
B( 36-C , 37-H ) :  -0.2490 B( 36-C , 40-H ) :   0.9615 B( 36-C , 41-H ) :   1.0320

MP2 TOTAL ENERGY:    -1068.869656053 Eh
FINAL SINGLE POINT ENERGY     -1068.869656052780

DIPOLE MOMENT
-------------
                                X             Y             Z
Electronic contribution:     -5.32116     -10.71167       7.35791
Nuclear contribution   :      7.49824      11.68458      -8.62658
                        -----------------------------------------
Total Dipole Moment    :      2.17708       0.97292      -1.26867
                        -----------------------------------------
Magnitude (a.u.)       :      2.70107
Magnitude (Debye)      :      6.86556

Rotational constants in cm-1:     0.010328     0.005958     0.004832
Rotational constants in MHz :   309.615138   178.603306   144.871982

                             ****ORCA TERMINATED NORMALLY****
TOTAL RUN TIME: 0 days 1 hours 51 minutes 37 seconds 231 msec
