                         Program Version 4.2.1 -  RELEASE  -
|  1> %pal
|  2>  nprocs 32
|  3> end
|  4> !RI-MP2 aug-cc-pVTZ aug-cc-pVTZ/C TightSCF
|  5> %maxcore 4500
|  6> *xyzfile 0 1  04_53R1.xyz
|  7>
|  8>
|  9>                          ****END OF INPUT****

CARTESIAN COORDINATES (ANGSTROEM)
---------------------------------
  C      2.872282    0.018805    0.011395
  C      2.174859   -1.179422   -0.043633
  C      0.787230   -1.181240   -0.063949
  C      0.070220    0.012961   -0.034468
  C      0.780759    1.209854    0.026114
  C      2.168724    1.213922    0.048325
  H      3.955452    0.021665    0.026187
  H      2.712601   -2.119886   -0.069429
  H      0.245583   -2.117491   -0.101364
  H      0.255401    2.155761    0.056164
  H      2.701121    2.156671    0.092360
  C     -1.457242   -0.021370   -0.008333
  O     -1.931921   -1.225243   -0.620142
  H     -1.671107   -1.222284   -1.546329
  C     -2.084186    1.172265   -0.726812
  H     -3.165938    1.036245   -0.756134
  H     -1.874419    2.113982   -0.218680
  H     -1.713288    1.251388   -1.751991
  C     -1.945055   -0.097836    1.434781
  H     -1.612878    0.775318    1.998275
  H     -3.035334   -0.144631    1.456451
  H     -1.547373   -0.992430    1.915091

 Total Charge           Charge          ....    0
 Multiplicity           Mult            ....    1
 Number of Electrons    NEL             ....   74
 Basis Dimension        Dim             ....  736

ORBITAL ENERGIES
----------------

  NO   OCC          E(Eh)            E(eV)
   0   2.0000     -20.555320      -559.3387
   1   2.0000     -11.294435      -307.3372
   2   2.0000     -11.237382      -305.7847
   3   2.0000     -11.234175      -305.6974
   4   2.0000     -11.232933      -305.6636
   5   2.0000     -11.231793      -305.6326
   6   2.0000     -11.230753      -305.6043
   7   2.0000     -11.227434      -305.5140
   8   2.0000     -11.219114      -305.2876
   9   2.0000     -11.212851      -305.1172
  10   2.0000      -1.365453       -37.1559
  11   2.0000      -1.157075       -31.4856
  12   2.0000      -1.069156       -29.0932
  13   2.0000      -1.015554       -27.6346
  14   2.0000      -0.998441       -27.1690
  15   2.0000      -0.943898       -25.6848
  16   2.0000      -0.846370       -23.0309
  17   2.0000      -0.825124       -22.4528
  18   2.0000      -0.774485       -21.0748
  19   2.0000      -0.716174       -19.4881
  20   2.0000      -0.674466       -18.3532
  21   2.0000      -0.638529       -17.3753
  22   2.0000      -0.621453       -16.9106
  23   2.0000      -0.617844       -16.8124
  24   2.0000      -0.605019       -16.4634
  25   2.0000      -0.586878       -15.9698
  26   2.0000      -0.552393       -15.0314
  27   2.0000      -0.540721       -14.7138
  28   2.0000      -0.533578       -14.5194
  29   2.0000      -0.527397       -14.3512
  30   2.0000      -0.505241       -13.7483
  31   2.0000      -0.501426       -13.6445
  32   2.0000      -0.490498       -13.3471
  33   2.0000      -0.466166       -12.6850
  34   2.0000      -0.441386       -12.0107
  35   2.0000      -0.337504        -9.1840
  36   2.0000      -0.330505        -8.9935
  37   0.0000       0.026944         0.7332
  38   0.0000       0.032055         0.8723
  39   0.0000       0.034521         0.9394
  40   0.0000       0.039358         1.0710
  41   0.0000       0.045444         1.2366

MULLIKEN ATOMIC CHARGES
-----------------------
   0 C :   -0.354983
   1 C :   -0.837742
   2 C :   -0.962486
   3 C :    1.922194
   4 C :   -0.723496
   5 C :   -0.769018
   6 H :    0.502553
   7 H :    0.466189
   8 H :    0.160114
   9 H :    0.032492
  10 H :    0.441207
  11 C :    1.556104
  12 O :   -0.967289
  13 H :    0.157821
  14 C :   -1.172325
  15 H :    0.198609
  16 H :    0.301866
  17 H :    0.306874
  18 C :   -1.088419
  19 H :    0.283291
  20 H :    0.237314
  21 H :    0.309134
Sum of atomic charges:    0.0000000

LOEWDIN ATOMIC CHARGES
----------------------
   0 C :    0.192397
   1 C :    0.200781
   2 C :    0.212747
   3 C :   -0.095239
   4 C :    0.216781
   5 C :    0.201649
   6 H :   -0.184548
   7 H :   -0.181927
   8 H :   -0.188563
   9 H :   -0.191686
  10 H :   -0.181613
  11 C :   -0.585802
  12 O :    0.844522
  13 H :   -0.472553
  14 C :    0.585396
  15 H :   -0.158874
  16 H :   -0.174159
  17 H :   -0.153505
  18 C :    0.587595
  19 H :   -0.156893
  20 H :   -0.158595
  21 H :   -0.157910

  Mayer bond orders larger than 0.100000
B(  0-C ,  1-C ) :   1.1938 B(  0-C ,  5-C ) :   1.1848 B(  0-C ,  6-H ) :   0.7495
B(  1-C ,  2-C ) :   1.2275 B(  1-C ,  5-C ) :   0.1409 B(  1-C ,  6-H ) :  -0.1713
B(  1-C ,  7-H ) :   0.8084 B(  1-C ,  8-H ) :  -0.1066 B(  2-C ,  4-C ) :  -0.1698
B(  2-C ,  6-H ) :   0.1327 B(  2-C ,  7-H ) :  -0.1185 B(  2-C ,  8-H ) :   1.4628
B(  2-C ,  9-H ) :   0.2036 B(  2-C , 11-C ) :   0.1782 B(  3-C ,  8-H ) :  -0.2221
B(  3-C ,  9-H ) :  -0.3455 B(  3-C , 11-C ) :   0.8297 B(  3-C , 18-C ) :   0.1884
B(  4-C ,  5-C ) :   1.1127 B(  4-C ,  8-H ) :   0.1578 B(  4-C ,  9-H ) :   1.6850
B(  4-C , 11-C ) :   0.1100 B(  5-C ,  6-H ) :  -0.1829 B(  5-C ,  9-H ) :  -0.1582
B(  5-C , 10-H ) :   0.8211 B(  8-H ,  9-H ) :   0.1002 B(  8-H , 11-C ) :  -0.1102
B(  9-H , 11-C ) :  -0.1083 B( 11-C , 14-C ) :   0.5838 B( 11-C , 18-C ) :   0.3405
B( 12-O , 13-H ) :   1.0390 B( 12-O , 18-C ) :   0.1026 B( 14-C , 15-H ) :   1.0859
B( 14-C , 16-H ) :   1.0061 B( 14-C , 17-H ) :   0.9558 B( 14-C , 18-C ) :   0.1746
B( 18-C , 19-H ) :   0.9996 B( 18-C , 20-H ) :   1.0475 B( 18-C , 21-H ) :   0.9790

MP2 TOTAL ENERGY:     -424.559363264 Eh
FINAL SINGLE POINT ENERGY      -424.559363264143

DIPOLE MOMENT
-------------
                                X             Y             Z
Electronic contribution:      5.08993      -2.49917      -1.33266
Nuclear contribution   :     -4.87833       2.95416       1.11312
                        -----------------------------------------
Total Dipole Moment    :      0.21160       0.45499      -0.21954
                        -----------------------------------------
Magnitude (a.u.)       :      0.54771
Magnitude (Debye)      :      1.39216

Rotational constants in cm-1:     0.088134     0.031942     0.027528
Rotational constants in MHz :  2642.181760   957.599704   825.270062

                             ****ORCA TERMINATED NORMALLY****
TOTAL RUN TIME: 0 days 0 hours 6 minutes 53 seconds 500 msec
