                         Program Version 4.2.1 -  RELEASE  -
|  1> %pal
|  2>  nprocs 32
|  3> end
|  4> !RI-MP2 aug-cc-pVTZ aug-cc-pVTZ/C TightSCF
|  5> %maxcore 4500
|  6> *xyzfile 0 1  02_32TS.xyz
|  7>
|  8>
|  9>                          ****END OF INPUT****

CARTESIAN COORDINATES (ANGSTROEM)
---------------------------------
  C      1.566800   -0.228769   -0.139568
  N      1.221477   -0.697890    1.092994
  N      0.020614   -1.127784    1.226387
  C     -0.772662   -1.101652    0.124606
  N     -0.207094   -1.224856   -1.110602
  N      0.988388   -0.791635   -1.247304
  C      0.351828    1.556272   -0.149162
  C     -0.939501    1.233490   -0.059564
  C     -0.321788    1.825159    1.163921
  H      1.001694    2.073957   -0.834188
  H     -0.577166    2.848570    1.439342
  H     -0.079693    1.181777    2.005378
  C     -2.179783   -1.571790    0.295555
  H     -2.745963   -1.426013   -0.621763
  H     -2.175967   -2.638279    0.530050
  H     -2.661264   -1.049487    1.121686
  C      2.952628    0.311914   -0.291788
  H      3.170332    1.021204    0.505488
  H      3.672625   -0.506325   -0.229227
  H      3.065733    0.793555   -1.262019
  C     -2.201041    1.363792   -0.827908
  H     -2.105877    0.918631   -1.818687
  H     -3.049977    0.917342   -0.312235
  H     -2.417059    2.429713   -0.950697

 Total Charge           Charge          ....    0
 Multiplicity           Mult            ....    1
 Number of Electrons    NEL             ....   88
 Basis Dimension        Dim             ....  828

ORBITAL ENERGIES
----------------

  NO   OCC          E(Eh)            E(eV)
   0   2.0000     -15.624934      -425.1761
   1   2.0000     -15.624518      -425.1648
   2   2.0000     -15.623284      -425.1312
   3   2.0000     -15.622474      -425.1091
   4   2.0000     -11.324476      -308.1547
   5   2.0000     -11.318901      -308.0029
   6   2.0000     -11.272760      -306.7474
   7   2.0000     -11.256325      -306.3002
   8   2.0000     -11.249450      -306.1131
   9   2.0000     -11.245981      -306.0187
  10   2.0000     -11.235058      -305.7215
  11   2.0000     -11.234860      -305.7161
  12   2.0000      -1.424551       -38.7640
  13   2.0000      -1.320848       -35.9421
  14   2.0000      -1.184990       -32.2452
  15   2.0000      -1.172117       -31.8949
  16   2.0000      -1.037730       -28.2381
  17   2.0000      -0.999006       -27.1843
  18   2.0000      -0.974322       -26.5126
  19   2.0000      -0.952587       -25.9212
  20   2.0000      -0.876566       -23.8526
  21   2.0000      -0.834392       -22.7050
  22   2.0000      -0.767519       -20.8852
  23   2.0000      -0.752178       -20.4678
  24   2.0000      -0.686627       -18.6841
  25   2.0000      -0.675414       -18.3789
  26   2.0000      -0.652361       -17.7516
  27   2.0000      -0.612965       -16.6796
  28   2.0000      -0.603906       -16.4331
  29   2.0000      -0.593845       -16.1593
  30   2.0000      -0.584037       -15.8925
  31   2.0000      -0.576438       -15.6857
  32   2.0000      -0.572203       -15.5704
  33   2.0000      -0.565272       -15.3818
  34   2.0000      -0.547775       -14.9057
  35   2.0000      -0.531583       -14.4651
  36   2.0000      -0.503007       -13.6875
  37   2.0000      -0.491857       -13.3841
  38   2.0000      -0.486094       -13.2273
  39   2.0000      -0.468469       -12.7477
  40   2.0000      -0.439687       -11.9645
  41   2.0000      -0.376024       -10.2321
  42   2.0000      -0.373229       -10.1561
  43   2.0000      -0.346122        -9.4185
  44   0.0000       0.023788         0.6473
  45   0.0000       0.028729         0.7818
  46   0.0000       0.035469         0.9652
  47   0.0000       0.035950         0.9783
  48   0.0000       0.043403         1.1811

MULLIKEN ATOMIC CHARGES
-----------------------
   0 C :    1.799983
   1 N :   -0.719487
   2 N :   -0.637154
   3 C :    1.678168
   4 N :   -0.552930
   5 N :   -0.679685
   6 C :   -1.116660
   7 C :    0.880551
   8 C :   -1.409066
   9 H :    0.426419
  10 H :    0.334202
  11 H :    0.273886
  12 C :   -1.186157
  13 H :    0.280840
  14 H :    0.343842
  15 H :    0.208901
  16 C :   -1.221642
  17 H :    0.255183
  18 H :    0.330421
  19 H :    0.292977
  20 C :   -0.432658
  21 H :    0.281734
  22 H :    0.201221
  23 H :    0.367112
Sum of atomic charges:   -0.0000000

LOEWDIN ATOMIC CHARGES
----------------------
   0 C :   -0.582931
   1 N :    0.242248
   2 N :    0.239185
   3 C :   -0.541236
   4 N :    0.232486
   5 N :    0.238270
   6 C :    0.204945
   7 C :   -0.108087
   8 C :    0.369449
   9 H :   -0.152634
  10 H :   -0.155498
  11 H :   -0.212099
  12 C :    0.559925
  13 H :   -0.179409
  14 H :   -0.158642
  15 H :   -0.164715
  16 C :    0.565622
  17 H :   -0.164500
  18 H :   -0.159753
  19 H :   -0.172049
  20 C :    0.602403
  21 H :   -0.159626
  22 H :   -0.186541
  23 H :   -0.156813

  Mayer bond orders larger than 0.100000
B(  0-C ,  1-N ) :   0.3915 B(  0-C ,  2-N ) :   0.1270 B(  0-C ,  4-N ) :   0.1438
B(  0-C ,  5-N ) :   0.5096 B(  0-C ,  6-C ) :   0.2888 B(  0-C , 17-H ) :  -0.1490
B(  0-C , 18-H ) :  -0.1258 B(  0-C , 19-H ) :  -0.1090 B(  1-N ,  2-N ) :  -0.2474
B(  1-N ,  3-C ) :   0.1775 B(  1-N ,  4-N ) :   0.1143 B(  1-N ,  5-N ) :   0.2346
B(  1-N ,  6-C ) :   0.1309 B(  1-N , 16-C ) :   0.1674 B(  2-N ,  3-C ) :   0.4377
B(  2-N ,  4-N ) :   0.2002 B(  2-N ,  5-N ) :   0.1126 B(  2-N ,  7-C ) :   0.1571
B(  2-N , 12-C ) :   0.1392 B(  3-C ,  4-N ) :   0.5944 B(  3-C ,  5-N ) :   0.1393
B(  3-C ,  7-C ) :   0.2989 B(  3-C , 15-H ) :  -0.1828 B(  4-N ,  5-N ) :  -0.2677
B(  4-N ,  7-C ) :   0.1722 B(  4-N , 12-C ) :   0.1771 B(  5-N ,  6-C ) :   0.1734
B(  5-N , 16-C ) :   0.1648 B(  6-C ,  8-C ) :   1.5347 B(  6-C ,  9-H ) :   0.7770
B(  6-C , 20-C ) :  -0.1405 B(  7-C ,  8-C ) :   0.1424 B(  7-C , 20-C ) :   0.4519
B(  7-C , 23-H ) :  -0.1129 B(  8-C , 10-H ) :   0.8670 B(  8-C , 11-H ) :   1.0577
B(  8-C , 20-C ) :  -0.3513 B(  8-C , 23-H ) :  -0.1090 B( 12-C , 13-H ) :   1.0421
B( 12-C , 14-H ) :   0.9168 B( 12-C , 15-H ) :   1.1744 B( 16-C , 17-H ) :   1.1150
B( 16-C , 18-H ) :   0.9744 B( 16-C , 19-H ) :   1.0389 B( 20-C , 21-H ) :   1.0163
B( 20-C , 22-H ) :   1.0181 B( 20-C , 23-H ) :   0.9685

MP2 TOTAL ENERGY:     -529.882675222 Eh
FINAL SINGLE POINT ENERGY      -529.882675221672

DIPOLE MOMENT
-------------
                                X             Y             Z
Electronic contribution:      4.37870      -5.46483       0.24677
Nuclear contribution   :     -4.92223       6.58426      -0.42985
                        -----------------------------------------
Total Dipole Moment    :     -0.54352       1.11944      -0.18308
                        -----------------------------------------
Magnitude (a.u.)       :      1.25780
Magnitude (Debye)      :      3.19708

Rotational constants in cm-1:     0.046491     0.033834     0.027082
Rotational constants in MHz :  1393.759555  1014.313069   811.912019

                             ****ORCA TERMINATED NORMALLY****
TOTAL RUN TIME: 0 days 0 hours 12 minutes 0 seconds 300 msec
