                         Program Version 4.2.1 -  RELEASE  -
|  1> %pal
|  2>  nprocs 32
|  3> end
|  4> !RI-MP2 aug-cc-pVTZ aug-cc-pVTZ/C TightSCF
|  5> %maxcore 4500
|  6> *xyzfile 0 2  04_56R.xyz
|  7>
|  8>
|  9>                          ****END OF INPUT****

CARTESIAN COORDINATES (ANGSTROEM)
---------------------------------
  C      2.007139   -0.491772    0.421179
  C      1.375447   -1.698162   -0.234700
  C      0.236273   -1.333380   -1.220893
  H      0.980895   -2.357001    0.543154
  H      2.141769   -2.260347   -0.778213
  C     -0.861950   -0.528801   -0.608913
  C     -1.719087   -1.149123    0.447266
  C     -0.855577    0.963490   -0.703685
  N      1.863479   -0.186654    1.643998
  C      2.845808    0.388290   -0.471765
  C      3.383178    1.643564    0.195044
  C     -2.261186    1.566434   -0.603644
  H     -0.371867    1.282153   -1.632043
  H     -0.243100    1.378188    0.115300
  C     -3.111593   -0.513751    0.524909
  H     -1.236090   -1.026559    1.432875
  H     -1.799914   -2.229021    0.285785
  H      2.567403    2.273427    0.551881
  H      3.996163    1.394111    1.060973
  H      3.669137   -0.225746   -0.856563
  H      2.250798    0.650888   -1.352523
  C     -3.019618    1.008264    0.597862
  H     -2.818452    1.333841   -1.517625
  H     -2.193097    2.655691   -0.541141
  H     -4.020646    1.444825    0.648945
  H     -2.502371    1.297564    1.520754
  H     -3.652037   -0.907678    1.389753
  H     -3.684908   -0.796054   -0.364730
  H      3.986805    2.221145   -0.508026
  H     -0.165581   -2.277714   -1.606434
  H      0.656867   -0.801007   -2.078079
  H      1.280874   -0.874454    2.122007

 Total Charge           Charge          ....    0
 Multiplicity           Mult            ....    2
 Number of Electrons    NEL             ....   93
 Basis Dimension        Dim             .... 1012

ORBITAL ENERGIES
----------------
                 SPIN UP ORBITALS
  NO   OCC          E(Eh)            E(eV)
   0   1.0000     -15.533835      -422.6971
   1   1.0000     -11.276072      -306.8375
   2   1.0000     -11.235219      -305.7259
   3   1.0000     -11.229348      -305.5661
   4   1.0000     -11.225533      -305.4623
   5   1.0000     -11.224200      -305.4260
   6   1.0000     -11.218032      -305.2582
   7   1.0000     -11.216218      -305.2088
   8   1.0000     -11.214985      -305.1753
   9   1.0000     -11.214372      -305.1586
  10   1.0000     -11.213267      -305.1285
  11   1.0000     -11.204263      -304.8835
  12   1.0000      -1.212495       -32.9937
  13   1.0000      -1.132242       -30.8099
  14   1.0000      -1.064232       -28.9592
  15   1.0000      -1.031975       -28.0815
  16   1.0000      -1.006436       -27.3865
  17   1.0000      -0.990578       -26.9550
  18   1.0000      -0.898683       -24.4544
  19   1.0000      -0.858315       -23.3559
  20   1.0000      -0.837590       -22.7920
  21   1.0000      -0.797982       -21.7142
  22   1.0000      -0.738347       -20.0914
  23   1.0000      -0.721903       -19.6440
  24   1.0000      -0.658549       -17.9200
  25   1.0000      -0.645959       -17.5774
  26   1.0000      -0.627979       -17.0882
  27   1.0000      -0.612734       -16.6733
  28   1.0000      -0.603799       -16.4302
  29   1.0000      -0.600539       -16.3415
  30   1.0000      -0.586243       -15.9525
  31   1.0000      -0.576322       -15.6825
  32   1.0000      -0.555081       -15.1045
  33   1.0000      -0.539267       -14.6742
  34   1.0000      -0.528685       -14.3863
  35   1.0000      -0.516039       -14.0421
  36   1.0000      -0.504388       -13.7251
  37   1.0000      -0.498915       -13.5762
  38   1.0000      -0.488991       -13.3061
  39   1.0000      -0.485937       -13.2230
  40   1.0000      -0.473576       -12.8867
  41   1.0000      -0.463982       -12.6256
  42   1.0000      -0.436807       -11.8861
  43   1.0000      -0.435240       -11.8435
  44   1.0000      -0.413792       -11.2599
  45   1.0000      -0.402277       -10.9465
  46   1.0000      -0.310232        -8.4418
  47   0.0000       0.025257         0.6873
  48   0.0000       0.030060         0.8180
  49   0.0000       0.030746         0.8366
  50   0.0000       0.035292         0.9603
  51   0.0000       0.042290         1.1508

                 SPIN DOWN ORBITALS
  NO   OCC          E(Eh)            E(eV)
   0   1.0000     -15.533777      -422.6956
   1   1.0000     -11.276227      -306.8417
   2   1.0000     -11.232938      -305.6638
   3   1.0000     -11.232321      -305.6470
   4   1.0000     -11.225531      -305.4622
   5   1.0000     -11.221046      -305.3402
   6   1.0000     -11.217647      -305.2477
   7   1.0000     -11.215405      -305.1867
   8   1.0000     -11.213991      -305.1482
   9   1.0000     -11.213313      -305.1297
  10   1.0000     -11.204263      -304.8835
  11   1.0000     -11.199962      -304.7665
  12   1.0000      -1.211924       -32.9781
  13   1.0000      -1.112663       -30.2771
  14   1.0000      -1.057351       -28.7720
  15   1.0000      -1.030004       -28.0278
  16   1.0000      -1.005367       -27.3574
  17   1.0000      -0.974097       -26.5065
  18   1.0000      -0.897923       -24.4337
  19   1.0000      -0.854902       -23.2631
  20   1.0000      -0.836055       -22.7502
  21   1.0000      -0.786855       -21.4114
  22   1.0000      -0.735433       -20.0122
  23   1.0000      -0.698706       -19.0127
  24   1.0000      -0.654577       -17.8119
  25   1.0000      -0.643751       -17.5174
  26   1.0000      -0.619953       -16.8698
  27   1.0000      -0.611472       -16.6390
  28   1.0000      -0.598132       -16.2760
  29   1.0000      -0.592284       -16.1169
  30   1.0000      -0.572986       -15.5918
  31   1.0000      -0.563008       -15.3202
  32   1.0000      -0.550318       -14.9749
  33   1.0000      -0.532926       -14.5016
  34   1.0000      -0.528143       -14.3715
  35   1.0000      -0.509422       -13.8621
  36   1.0000      -0.502011       -13.6604
  37   1.0000      -0.497882       -13.5481
  38   1.0000      -0.487595       -13.2681
  39   1.0000      -0.482365       -13.1258
  40   1.0000      -0.470178       -12.7942
  41   1.0000      -0.460288       -12.5251
  42   1.0000      -0.433014       -11.7829
  43   1.0000      -0.430892       -11.7252
  44   1.0000      -0.410405       -11.1677
  45   1.0000      -0.401076       -10.9138
  46   0.0000       0.025381         0.6906
  47   0.0000       0.029584         0.8050
  48   0.0000       0.030741         0.8365
  49   0.0000       0.035423         0.9639
  50   0.0000       0.042288         1.1507

MULLIKEN ATOMIC CHARGES AND SPIN POPULATIONS
--------------------------------------------
   0 C :    0.835612   -0.012562
   1 C :   -0.394767    0.086201
   2 C :   -0.489486   -0.271709
   3 H :   -0.056153   -0.006286
   4 H :    0.459868   -0.000543
   5 C :    0.289218    1.459911
   6 C :   -0.534353   -0.273990
   7 C :   -0.313669   -0.272923
   8 N :   -1.097150    0.000309
   9 C :   -0.377429   -0.001053
  10 C :   -1.011947   -0.000183
  11 C :   -0.655627    0.059896
  12 H :    0.210333    0.003385
  13 H :    0.332945    0.089146
  14 C :   -0.586511    0.052003
  15 H :    0.255202    0.078777
  16 H :    0.305844    0.008648
  17 H :    0.321098   -0.000184
  18 H :    0.261211   -0.000004
  19 H :    0.453854   -0.000067
  20 H :    0.205167   -0.001644
  21 C :   -0.475287   -0.007489
  22 H :    0.155541   -0.000958
  23 H :    0.300802   -0.002476
  24 H :    0.303001    0.002478
  25 H :    0.155113   -0.000705
  26 H :    0.307732   -0.002543
  27 H :    0.142576   -0.002085
  28 H :    0.232027    0.000030
  29 H :    0.402020    0.025079
  30 H :   -0.011174   -0.007871
  31 H :    0.074388   -0.000588
Sum of atomic charges         :   -0.0000000

LOEWDIN ATOMIC CHARGES AND SPIN POPULATIONS
-------------------------------------------
   0 C :   -0.291958    0.003908
   1 C :    0.308137    0.031257
   2 C :    0.289306    0.098258
   3 H :   -0.156369    0.001964
   4 H :   -0.138392    0.005719
   5 C :    0.000744    0.532600
   6 C :    0.274612    0.101015
   7 C :    0.277433    0.104245
   8 N :    0.698179    0.001107
   9 C :    0.250786    0.000122
  10 C :    0.565908    0.000109
  11 C :    0.294367    0.014135
  12 H :   -0.147348    0.004416
  13 H :   -0.139697    0.027459
  14 C :    0.292153    0.014035
  15 H :   -0.137910    0.026519
  16 H :   -0.143145    0.003957
  17 H :   -0.171553    0.000269
  18 H :   -0.174162    0.000006
  19 H :   -0.140533    0.000125
  20 H :   -0.163433    0.000139
  21 C :    0.286157    0.001328
  22 H :   -0.140119    0.003179
  23 H :   -0.139863    0.001417
  24 H :   -0.140554    0.000580
  25 H :   -0.136537    0.000803
  26 H :   -0.140402    0.001525
  27 H :   -0.139891    0.003128
  28 H :   -0.171137   -0.000005
  29 H :   -0.142248    0.013434
  30 H :   -0.162003    0.002593
  31 H :   -0.420529    0.000653

  Mayer bond orders larger than 0.100000
B(  0-C ,  1-C ) :   0.9893 B(  0-C ,  2-C ) :   0.1342 B(  0-C ,  4-H ) :  -0.1186
B(  0-C ,  8-N ) :   0.6308 B(  0-C ,  9-C ) :   0.8215 B(  0-C , 19-H ) :  -0.1324
B(  1-C ,  2-C ) :   0.9607 B(  1-C ,  3-H ) :   1.2206 B(  1-C ,  4-H ) :   0.8357
B(  1-C ,  5-C ) :   0.1257 B(  1-C ,  8-N ) :  -0.1025 B(  2-C ,  5-C ) :   0.7429
B(  2-C , 29-H ) :   0.8956 B(  2-C , 30-H ) :   1.1018 B(  5-C ,  6-C ) :   0.7565
B(  5-C ,  7-C ) :   0.7253 B(  5-C , 21-C ) :  -0.1017 B(  6-C ,  7-C ) :   0.1052
B(  6-C , 14-C ) :   0.9606 B(  6-C , 15-H ) :   0.9396 B(  6-C , 16-H ) :   0.9604
B(  7-C , 11-C ) :   0.9193 B(  7-C , 12-H ) :   1.0422 B(  7-C , 13-H ) :   0.8854
B(  8-N , 31-H ) :   0.9993 B(  9-C , 10-C ) :   0.8314 B(  9-C , 19-H ) :   0.8302
B(  9-C , 20-H ) :   1.0056 B( 10-C , 17-H ) :   0.9292 B( 10-C , 18-H ) :   0.9918
B( 10-C , 28-H ) :   1.0337 B( 11-C , 21-C ) :   0.9129 B( 11-C , 22-H ) :   1.1110
B( 11-C , 23-H ) :   0.9322 B( 14-C , 21-C ) :   0.8733 B( 14-C , 26-H ) :   0.9092
B( 14-C , 27-H ) :   1.1071 B( 21-C , 24-H ) :   0.9175 B( 21-C , 25-H ) :   1.0628

MP2 TOTAL ENERGY:     -484.865494010 Eh
FINAL SINGLE POINT ENERGY      -484.865494009910

DIPOLE MOMENT
-------------
                                X             Y             Z
Electronic contribution:      0.93560      -2.82592       0.94547
Nuclear contribution   :     -1.20414       2.28468      -1.63256
                        -----------------------------------------
Total Dipole Moment    :     -0.26853      -0.54124      -0.68709
                        -----------------------------------------
Magnitude (a.u.)       :      0.91495
Magnitude (Debye)      :      2.32563

Rotational constants in cm-1:     0.049878     0.017861     0.016038
Rotational constants in MHz :  1495.316037   535.466519   480.804698

                             ****ORCA TERMINATED NORMALLY****
TOTAL RUN TIME: 0 days 0 hours 29 minutes 47 seconds 516 msec
