                         Program Version 4.2.1 -  RELEASE  -
|  1> %pal
|  2>  nprocs 32
|  3> end
|  4> !RI-MP2 aug-cc-pVTZ aug-cc-pVTZ/C TightSCF
|  5> %maxcore 4500
|  6> *xyzfile 0 1  06_16TS.xyz
|  7>
|  8>
|  9>                          ****END OF INPUT****

CARTESIAN COORDINATES (ANGSTROEM)
---------------------------------
  C      1.836847    1.619630    1.919106
  H      1.489688    2.293449    2.703563
  H      0.316284    0.251307    2.672482
  C     -1.002814    0.106638    0.258815
  H     -1.385914    0.715361   -1.817600
  C     -4.432863    0.391117   -0.779497
  H     -4.556998    0.129459    0.258808
  H     -4.046219    2.013211   -2.134854
  H     -2.964337    1.926482    0.748632
  B     -2.462252   -1.665882    0.306175
  C     -1.670888   -2.918580   -0.293282
  H     -1.326080   -3.577485    0.510048
  C     -3.755259   -2.005843    1.169243
  H     -4.579148   -2.365303    0.544929
  C      0.667625    1.864194   -0.027841
  O      0.280705    2.339836   -1.054042
  H      0.946866   -1.719324    1.380686
  C      2.629427   -0.873722    0.343190
  C      2.996812   -0.879356   -2.045823
  C      4.849531   -0.543889   -0.559739
  H      4.393383   -0.586113    1.532322
  H      5.016815   -0.557641   -2.700010
  H      1.091767   -1.188493   -1.124507
  H      2.884238    1.374967    2.078056
  C      0.942866    0.378786    1.790828
  N      0.114778    0.796868    0.661973
  C     -1.673516    0.178016   -0.934062
  O     -2.729978   -0.660174   -0.921275
  H     -5.014924   -0.186037   -1.484870
  C     -3.951681    1.660282   -1.113638
  C     -3.052952    2.249503   -0.281887
  H     -2.485875    3.124623   -0.571798
  O     -1.491485   -0.756959    1.103286
  H     -0.797792   -2.633827   -0.888262
  H     -2.320519   -3.515111   -0.940677
  H     -4.124949   -1.173559    1.774866
  H     -3.519224   -2.816083    1.865421
  O      1.733331    2.306487    0.664327
  C      1.693126   -0.935596    1.521031
  H      2.249159   -1.184405    2.428915
  C      2.144838   -0.995662   -0.957982
  C      4.351487   -0.648851   -1.850211
  C      3.992974   -0.656708    0.526303
  H      5.907373   -0.376086   -0.396920
  H      2.600278   -0.971338   -3.049616

 Total Charge           Charge          ....    0
 Multiplicity           Mult            ....    1
 Number of Electrons    NEL             ....  168
 Basis Dimension        Dim             .... 1564

ORBITAL ENERGIES
----------------

  NO   OCC          E(Eh)            E(eV)
   0   2.0000     -20.613859      -560.9316
   1   2.0000     -20.577798      -559.9503
   2   2.0000     -20.555644      -559.3475
   3   2.0000     -20.541729      -558.9689
   4   2.0000     -15.620187      -425.0469
   5   2.0000     -11.414669      -310.6089
   6   2.0000     -11.346743      -308.7606
   7   2.0000     -11.311789      -307.8094
   8   2.0000     -11.309768      -307.7544
   9   2.0000     -11.300224      -307.4947
  10   2.0000     -11.283336      -307.0352
  11   2.0000     -11.257649      -306.3362
  12   2.0000     -11.243685      -305.9562
  13   2.0000     -11.242394      -305.9211
  14   2.0000     -11.238689      -305.8203
  15   2.0000     -11.236130      -305.7507
  16   2.0000     -11.234870      -305.7164
  17   2.0000     -11.233791      -305.6870
  18   2.0000     -11.232111      -305.6413
  19   2.0000     -11.230293      -305.5918
  20   2.0000     -11.166257      -303.8493
  21   2.0000     -11.153897      -303.5130
  22   2.0000      -7.588504      -206.4937
  23   2.0000      -1.489361       -40.5276
  24   2.0000      -1.429368       -38.8951
  25   2.0000      -1.382411       -37.6173
  26   2.0000      -1.354175       -36.8490
  27   2.0000      -1.274677       -34.6857
  28   2.0000      -1.162658       -31.6375
  29   2.0000      -1.109659       -30.1954
  30   2.0000      -1.090629       -29.6775
  31   2.0000      -1.030298       -28.0358
  32   2.0000      -1.018040       -27.7023
  33   2.0000      -0.995479       -27.0884
  34   2.0000      -0.954225       -25.9658
  35   2.0000      -0.946928       -25.7672
  36   2.0000      -0.930373       -25.3167
  37   2.0000      -0.892292       -24.2805
  38   2.0000      -0.883210       -24.0334
  39   2.0000      -0.863812       -23.5055
  40   2.0000      -0.831482       -22.6258
  41   2.0000      -0.800878       -21.7930
  42   2.0000      -0.795958       -21.6591
  43   2.0000      -0.763930       -20.7876
  44   2.0000      -0.745885       -20.2966
  45   2.0000      -0.721507       -19.6332
  46   2.0000      -0.715342       -19.4655
  47   2.0000      -0.699181       -19.0257
  48   2.0000      -0.695299       -18.9201
  49   2.0000      -0.670139       -18.2354
  50   2.0000      -0.665410       -18.1067
  51   2.0000      -0.647991       -17.6327
  52   2.0000      -0.640328       -17.4242
  53   2.0000      -0.637088       -17.3360
  54   2.0000      -0.631425       -17.1820
  55   2.0000      -0.616577       -16.7779
  56   2.0000      -0.605917       -16.4878
  57   2.0000      -0.601492       -16.3674
  58   2.0000      -0.594555       -16.1787
  59   2.0000      -0.586615       -15.9626
  60   2.0000      -0.576992       -15.7007
  61   2.0000      -0.575865       -15.6701
  62   2.0000      -0.565033       -15.3753
  63   2.0000      -0.557174       -15.1615
  64   2.0000      -0.548755       -14.9324
  65   2.0000      -0.539578       -14.6827
  66   2.0000      -0.531586       -14.4652
  67   2.0000      -0.524562       -14.2741
  68   2.0000      -0.519492       -14.1361
  69   2.0000      -0.505465       -13.7544
  70   2.0000      -0.500383       -13.6161
  71   2.0000      -0.495875       -13.4934
  72   2.0000      -0.492386       -13.3985
  73   2.0000      -0.489934       -13.3318
  74   2.0000      -0.484814       -13.1925
  75   2.0000      -0.467539       -12.7224
  76   2.0000      -0.465251       -12.6601
  77   2.0000      -0.460884       -12.5413
  78   2.0000      -0.442907       -12.0521
  79   2.0000      -0.409736       -11.1495
  80   2.0000      -0.376382       -10.2419
  81   2.0000      -0.339301        -9.2329
  82   2.0000      -0.333268        -9.0687
  83   2.0000      -0.277845        -7.5605
  84   0.0000       0.019948         0.5428
  85   0.0000       0.027226         0.7409
  86   0.0000       0.029191         0.7943
  87   0.0000       0.032592         0.8869
  88   0.0000       0.035683         0.9710

MULLIKEN ATOMIC CHARGES
-----------------------
   0 C :   -0.572968
   1 H :    0.210076
   2 H :    0.316983
   3 C :    1.459844
   4 H :    0.543148
   5 C :   -0.340806
   6 H :    0.526226
   7 H :    0.349707
   8 H :    0.489779
   9 B :    1.330958
  10 C :   -1.395859
  11 H :    0.202166
  12 C :   -1.270645
  13 H :    0.274109
  14 C :    0.412691
  15 O :   -1.038138
  16 H :    0.543376
  17 C :    1.336297
  18 C :   -1.106784
  19 C :   -0.629483
  20 H :   -0.075337
  21 H :    0.526739
  22 H :    0.236287
  23 H :    0.403952
  24 C :   -0.295818
  25 N :    0.110657
  26 C :    0.241158
  27 O :   -0.954904
  28 H :    0.455215
  29 C :   -0.841182
  30 C :   -0.675499
  31 H :    0.407754
  32 O :   -1.151006
  33 H :    0.611691
  34 H :    0.012607
  35 H :    0.257111
  36 H :    0.123781
  37 O :   -0.520339
  38 C :   -0.405075
  39 H :    0.187691
  40 C :   -0.234863
  41 C :   -0.141387
  42 C :   -0.955622
  43 H :    0.595849
  44 H :    0.439867
Sum of atomic charges:    0.0000000

LOEWDIN ATOMIC CHARGES
----------------------
   0 C :    0.131268
   1 H :   -0.136075
   2 H :   -0.120642
   3 C :   -0.559863
   4 H :   -0.200846
   5 C :    0.461475
   6 H :   -0.222141
   7 H :   -0.178906
   8 H :   -0.178099
   9 B :   -1.066591
  10 C :    0.660804
  11 H :   -0.182884
  12 C :    0.657336
  13 H :   -0.178056
  14 C :   -0.934010
  15 O :    0.476674
  16 H :   -0.145652
  17 C :   -0.107681
  18 C :    0.217744
  19 C :    0.204509
  20 H :   -0.174525
  21 H :   -0.182111
  22 H :   -0.194812
  23 H :   -0.158961
  24 C :   -0.057856
  25 N :    0.274965
  26 C :   -0.097144
  27 O :    0.630556
  28 H :   -0.143764
  29 C :    0.151938
  30 C :    0.540435
  31 H :   -0.168863
  32 O :    0.661906
  33 H :   -0.200937
  34 H :   -0.179856
  35 H :   -0.197953
  36 H :   -0.179763
  37 O :    0.616721
  38 C :    0.321172
  39 H :   -0.138616
  40 C :    0.223675
  41 C :    0.200820
  42 C :    0.210549
  43 H :   -0.180620
  44 H :   -0.175319

  Mayer bond orders larger than 0.100000
B(  0-C ,  1-H ) :   1.1047 B(  0-C ,  2-H ) :  -0.1437 B(  0-C ,  3-C ) :  -0.1700
B(  0-C , 14-C ) :   0.1103 B(  0-C , 23-H ) :   0.9567 B(  0-C , 24-C ) :   1.0918
B(  0-C , 25-N ) :  -0.1052 B(  0-C , 37-O ) :   0.7684 B(  1-H , 37-O ) :   0.1056
B(  2-H , 24-C ) :   0.9868 B(  2-H , 32-O ) :  -0.1021 B(  3-C ,  9-B ) :   0.4975
B(  3-C , 14-C ) :  -0.5628 B(  3-C , 17-C ) :   0.1311 B(  3-C , 22-H ) :   0.1456
B(  3-C , 25-N ) :   0.9809 B(  3-C , 26-C ) :   1.4449 B(  3-C , 29-C ) :   0.1659
B(  3-C , 32-O ) :   0.5581 B(  3-C , 38-C ) :  -0.2137 B(  4-H , 26-C ) :   0.9015
B(  4-H , 27-O ) :  -0.1299 B(  4-H , 29-C ) :  -0.1009 B(  5-C ,  6-H ) :   0.7263
B(  5-C , 27-O ) :   0.1717 B(  5-C , 28-H ) :   0.7914 B(  5-C , 29-C ) :   1.2543
B(  7-H , 29-C ) :   0.9073 B(  8-H , 30-C ) :   0.7869 B(  9-B , 10-C ) :   0.2865
B(  9-B , 12-C ) :   0.4537 B(  9-B , 26-C ) :   0.2715 B(  9-B , 27-O ) :   0.5403
B(  9-B , 32-O ) :   0.5839 B(  9-B , 33-H ) :   0.1068 B( 10-C , 11-H ) :   1.0208
B( 10-C , 27-O ) :   0.1248 B( 10-C , 32-O ) :   0.2804 B( 10-C , 33-H ) :   0.5391
B( 10-C , 34-H ) :   1.3424 B( 12-C , 13-H ) :   0.9739 B( 12-C , 27-O ) :   0.1038
B( 12-C , 32-O ) :   0.1158 B( 12-C , 35-H ) :   0.9360 B( 12-C , 36-H ) :   1.1686
B( 14-C , 15-O ) :   1.3445 B( 14-C , 25-N ) :   0.9613 B( 14-C , 37-O ) :   0.8670
B( 15-O , 37-O ) :  -0.2891 B( 16-H , 17-C ) :  -0.1444 B( 16-H , 20-H ) :  -0.1009
B( 16-H , 38-C ) :   0.8747 B( 17-C , 18-C ) :   0.3601 B( 17-C , 19-C ) :   0.2787
B( 17-C , 20-H ) :  -0.1628 B( 17-C , 21-H ) :   0.1179 B( 17-C , 22-H ) :   0.1507
B( 17-C , 24-C ) :   0.1259 B( 17-C , 25-N ) :   0.1293 B( 17-C , 38-C ) :   0.1577
B( 17-C , 40-C ) :   0.7452 B( 17-C , 42-C ) :   0.1477 B( 17-C , 44-H ) :  -0.1551
B( 18-C , 19-C ) :   0.3410 B( 18-C , 21-H ) :  -0.1464 B( 18-C , 22-H ) :   0.3067
B( 18-C , 40-C ) :   0.9121 B( 18-C , 41-C ) :   1.0571 B( 18-C , 44-H ) :   0.6936
B( 19-C , 21-H ) :  -0.1717 B( 19-C , 41-C ) :   1.0325 B( 19-C , 42-C ) :   1.2664
B( 19-C , 43-H ) :   0.5355 B( 20-H , 22-H ) :   0.1734 B( 20-H , 38-C ) :  -0.1641
B( 20-H , 40-C ) :   0.1086 B( 20-H , 42-C ) :   1.7198 B( 21-H , 40-C ) :  -0.1129
B( 21-H , 41-C ) :   0.6871 B( 21-H , 42-C ) :   0.1236 B( 22-H , 40-C ) :   0.8261
B( 22-H , 41-C ) :  -0.1656 B( 24-C , 25-N ) :   0.9637 B( 24-C , 37-O ) :   0.1966
B( 24-C , 38-C ) :   0.7829 B( 25-N , 26-C ) :  -0.4384 B( 25-N , 32-O ) :  -0.5899
B( 25-N , 37-O ) :  -0.2693 B( 25-N , 40-C ) :   0.1301 B( 26-C , 27-O ) :   0.3554
B( 26-C , 32-O ) :  -0.1369 B( 27-O , 32-O ) :  -0.1279 B( 29-C , 30-C ) :   1.4118
B( 30-C , 31-H ) :   0.8638 B( 38-C , 39-H ) :   1.0397 B( 38-C , 40-C ) :   0.3357
B( 38-C , 42-C ) :   0.4109 B( 40-C , 41-C ) :  -0.1434 B( 40-C , 42-C ) :  -0.5668
B( 40-C , 44-H ) :   0.1105 B( 41-C , 42-C ) :  -0.1538 B( 42-C , 43-H ) :  -0.1058

MP2 TOTAL ENERGY:    -1039.593980407 Eh
FINAL SINGLE POINT ENERGY     -1039.593980406718

DIPOLE MOMENT
-------------
                                X             Y             Z
Electronic contribution:      8.19463      10.31408      -2.18900
Nuclear contribution   :     -8.28510      -9.63438       3.14690
                        -----------------------------------------
Total Dipole Moment    :     -0.09047       0.67970       0.95791
                        -----------------------------------------
Magnitude (a.u.)       :      1.17803
Magnitude (Debye)      :      2.99432

Rotational constants in cm-1:     0.015464     0.006150     0.005582
Rotational constants in MHz :   463.610109   184.357654   167.345852

                             ****ORCA TERMINATED NORMALLY****
TOTAL RUN TIME: 0 days 1 hours 34 minutes 34 seconds 143 msec
