                         Program Version 4.2.1 -  RELEASE  -
|  1> %pal
|  2>  nprocs 32
|  3> end
|  4> !RI-MP2 aug-cc-pVTZ aug-cc-pVTZ/C TightSCF
|  5> %maxcore 4500
|  6> *xyzfile -1 1  07_7P.xyz
|  7>
|  8>
|  9>                          ****END OF INPUT****

CARTESIAN COORDINATES (ANGSTROEM)
---------------------------------
  C     -0.881603    0.978902    0.349601
  C     -2.374385    0.632262    0.244353
  C     -2.537792   -0.837857    0.693427
  H     -2.915880    1.264992    0.948458
  C     -1.575963   -1.761349   -0.036028
  C     -0.151345   -1.274406    0.005518
  O     -0.160450    0.068952   -0.458884
  C     -0.552525    2.390480   -0.199765
  C      0.886514   -1.988943   -0.827001
  O      2.203756   -1.672644   -0.401881
  H      0.755808   -1.713513   -1.877518
  H      0.771976   -3.068017   -0.723682
  P      2.669772   -0.181494    0.131059
  O      2.048953    0.086506    1.469720
  O      2.527134    0.831679   -0.974713
  O      4.245189   -0.508906    0.341664
  H      4.714928   -0.347656   -0.481686
  O     -1.960950   -2.786598   -0.553548
  O     -3.859993   -1.295836    0.547980
  H     -2.241773   -0.890661    1.748649
  H     -3.802821   -2.128036    0.056870
  O     -1.347407    3.286993   -0.045202
  O      0.608085    2.571441   -0.781028
  H      1.250770    1.789263   -0.845793
  O     -0.482293    0.895543    1.680204
  H      0.501655    0.751594    1.703515
  C     -2.921375    0.840223   -1.163532
  H     -3.947356    0.477266   -1.217215
  H     -2.907929    1.897915   -1.421059
  H     -2.324746    0.298232   -1.902003
  H      0.173435   -1.301876    1.051649

 Total Charge           Charge          ....   -1
 Multiplicity           Mult            ....    1
 Number of Electrons    NEL             ....  156
 Basis Dimension        Dim             .... 1154

ORBITAL ENERGIES
----------------

  NO   OCC          E(Eh)            E(eV)
   0   2.0000     -79.947375     -2175.4787
   1   2.0000     -20.481504      -557.3301
   2   2.0000     -20.475231      -557.1593
   3   2.0000     -20.470607      -557.0335
   4   2.0000     -20.459999      -556.7449
   5   2.0000     -20.455614      -556.6256
   6   2.0000     -20.453794      -556.5760
   7   2.0000     -20.443688      -556.3010
   8   2.0000     -20.411892      -555.4358
   9   2.0000     -20.372294      -554.3583
  10   2.0000     -20.371871      -554.3468
  11   2.0000     -11.253257      -306.2167
  12   2.0000     -11.251889      -306.1795
  13   2.0000     -11.247205      -306.0520
  14   2.0000     -11.199990      -304.7672
  15   2.0000     -11.199019      -304.7408
  16   2.0000     -11.191878      -304.5465
  17   2.0000     -11.141056      -303.1635
  18   2.0000     -11.114484      -302.4405
  19   2.0000      -7.463197      -203.0839
  20   2.0000      -5.361985      -145.9070
  21   2.0000      -5.361246      -145.8869
  22   2.0000      -5.360210      -145.8587
  23   2.0000      -1.348601       -36.6973
  24   2.0000      -1.329220       -36.1699
  25   2.0000      -1.310372       -35.6570
  26   2.0000      -1.294819       -35.2338
  27   2.0000      -1.274558       -34.6825
  28   2.0000      -1.246435       -33.9172
  29   2.0000      -1.236415       -33.6446
  30   2.0000      -1.223565       -33.2949
  31   2.0000      -1.175186       -31.9784
  32   2.0000      -1.138877       -30.9904
  33   2.0000      -0.990408       -26.9504
  34   2.0000      -0.962751       -26.1978
  35   2.0000      -0.871607       -23.7176
  36   2.0000      -0.829098       -22.5609
  37   2.0000      -0.779431       -21.2094
  38   2.0000      -0.743570       -20.2336
  39   2.0000      -0.704083       -19.1591
  40   2.0000      -0.665815       -18.1177
  41   2.0000      -0.662755       -18.0345
  42   2.0000      -0.639555       -17.4032
  43   2.0000      -0.636414       -17.3177
  44   2.0000      -0.611819       -16.6485
  45   2.0000      -0.591331       -16.0909
  46   2.0000      -0.581918       -15.8348
  47   2.0000      -0.572060       -15.5665
  48   2.0000      -0.548062       -14.9135
  49   2.0000      -0.538219       -14.6457
  50   2.0000      -0.527513       -14.3544
  51   2.0000      -0.522600       -14.2207
  52   2.0000      -0.520598       -14.1662
  53   2.0000      -0.497180       -13.5289
  54   2.0000      -0.489202       -13.3119
  55   2.0000      -0.479416       -13.0456
  56   2.0000      -0.474622       -12.9151
  57   2.0000      -0.460355       -12.5269
  58   2.0000      -0.455467       -12.3939
  59   2.0000      -0.442931       -12.0528
  60   2.0000      -0.441279       -12.0078
  61   2.0000      -0.428618       -11.6633
  62   2.0000      -0.424986       -11.5645
  63   2.0000      -0.421516       -11.4700
  64   2.0000      -0.411366       -11.1938
  65   2.0000      -0.409861       -11.1529
  66   2.0000      -0.394968       -10.7476
  67   2.0000      -0.383878       -10.4459
  68   2.0000      -0.378193       -10.2912
  69   2.0000      -0.369808       -10.0630
  70   2.0000      -0.354468        -9.6456
  71   2.0000      -0.345674        -9.4063
  72   2.0000      -0.337917        -9.1952
  73   2.0000      -0.334879        -9.1125
  74   2.0000      -0.322747        -8.7824
  75   2.0000      -0.313659        -8.5351
  76   2.0000      -0.305386        -8.3100
  77   2.0000      -0.296079        -8.0567
  78   0.0000       0.102935         2.8010
  79   0.0000       0.106712         2.9038
  80   0.0000       0.110789         3.0147
  81   0.0000       0.115110         3.1323
  82   0.0000       0.120868         3.2890

MULLIKEN ATOMIC CHARGES
-----------------------
   0 C :    2.422307
   1 C :   -0.080460
   2 C :    0.688829
   3 H :    0.408040
   4 C :    0.274764
   5 C :    0.721574
   6 O :   -0.765894
   7 C :    0.113110
   8 C :   -0.291564
   9 O :   -0.774939
  10 H :    0.208355
  11 H :    0.290153
  12 P :    1.898511
  13 O :   -0.963506
  14 O :   -0.949113
  15 O :   -0.762004
  16 H :    0.165977
  17 O :   -1.249944
  18 O :   -0.927557
  19 H :    0.250223
  20 H :    0.170895
  21 O :   -1.071080
  22 O :   -0.603548
  23 H :    0.439072
  24 O :   -1.113354
  25 H :    0.325778
  26 C :   -1.097206
  27 H :    0.212924
  28 H :    0.302116
  29 H :    0.320653
  30 H :    0.436887
Sum of atomic charges:   -1.0000000

LOEWDIN ATOMIC CHARGES
----------------------
   0 C :   -0.794529
   1 C :   -0.012371
   2 C :   -0.240773
   3 H :   -0.127663
   4 C :   -0.439399
   5 C :   -0.278964
   6 O :    0.620037
   7 C :   -0.806900
   8 C :   -0.012010
   9 O :    0.374621
  10 H :   -0.151457
  11 H :   -0.166055
  12 P :   -0.394493
  13 O :    0.148200
  14 O :    0.161164
  15 O :    0.600751
  16 H :   -0.587744
  17 O :    0.514018
  18 O :    0.844356
  19 H :   -0.144024
  20 H :   -0.573058
  21 O :    0.431408
  22 O :    0.837834
  23 H :   -0.807229
  24 O :    0.863585
  25 H :   -0.733619
  26 C :    0.587439
  27 H :   -0.174339
  28 H :   -0.187725
  29 H :   -0.160516
  30 H :   -0.190544

  Mayer bond orders larger than 0.100000
B(  0-C ,  1-C ) :   0.9586 B(  0-C ,  5-C ) :  -0.1106 B(  0-C ,  6-O ) :   0.4930
B(  0-C ,  7-C ) :  -0.4171 B(  1-C ,  2-C ) :   1.0112 B(  1-C ,  3-H ) :   0.7689
B(  1-C ,  4-C ) :   0.3372 B(  1-C ,  7-C ) :  -0.1372 B(  1-C , 18-O ) :   0.1459
B(  1-C , 26-C ) :   0.6746 B(  2-C ,  4-C ) :   0.8835 B(  2-C , 17-O ) :   0.1258
B(  2-C , 19-H ) :   1.1330 B(  4-C ,  5-C ) :   0.6790 B(  4-C ,  6-O ) :   0.1493
B(  4-C , 17-O ) :   0.2337 B(  4-C , 18-O ) :   0.1851 B(  4-C , 30-H ) :  -0.1897
B(  5-C ,  6-O ) :   0.8444 B(  5-C ,  8-C ) :   0.6152 B(  5-C , 17-O ) :   0.1398
B(  5-C , 24-O ) :   0.1601 B(  5-C , 30-H ) :   0.9481 B(  6-O ,  7-C ) :   0.1917
B(  6-O , 22-O ) :   0.1465 B(  6-O , 24-O ) :   0.1490 B(  7-C , 21-O ) :   1.1944
B(  7-C , 22-O ) :   0.8282 B(  7-C , 24-O ) :   0.1863 B(  8-C ,  9-O ) :   0.5872
B(  8-C , 10-H ) :   1.0833 B(  8-C , 11-H ) :   0.9770 B(  9-O , 12-P ) :   0.9227
B(  9-O , 13-O ) :   0.1339 B( 12-P , 13-O ) :   1.4232 B( 12-P , 14-O ) :   1.3010
B( 12-P , 15-O ) :   0.2820 B( 13-O , 24-O ) :  -0.1403 B( 13-O , 25-H ) :   0.2108
B( 14-O , 22-O ) :  -0.1008 B( 14-O , 23-H ) :   0.1761 B( 15-O , 16-H ) :   1.0280
B( 18-O , 20-H ) :   1.0521 B( 21-O , 22-O ) :  -0.1271 B( 22-O , 23-H ) :   0.5867
B( 24-O , 25-H ) :   0.7843 B( 26-C , 27-H ) :   1.1010 B( 26-C , 28-H ) :   0.9865
B( 26-C , 29-H ) :   0.9249

MP2 TOTAL ENERGY:    -1403.865516241 Eh
FINAL SINGLE POINT ENERGY     -1403.865516241072

DIPOLE MOMENT
-------------
                                X             Y             Z
Electronic contribution:     11.30724       0.62249       2.32289
Nuclear contribution   :    -12.11930      -2.69974      -2.98901
                        -----------------------------------------
Total Dipole Moment    :     -0.81206      -2.07725      -0.66613
                        -----------------------------------------
Magnitude (a.u.)       :      2.32769
Magnitude (Debye)      :      5.91651

Rotational constants in cm-1:     0.018428     0.010192     0.007604
Rotational constants in MHz :   552.459247   305.544302   227.958947

                             ****ORCA TERMINATED NORMALLY****
TOTAL RUN TIME: 0 days 0 hours 32 minutes 12 seconds 896 msec
