                         Program Version 4.2.1 -  RELEASE  -
|  1> %pal
|  2>  nprocs 32
|  3> end
|  4> !RI-MP2 aug-cc-pVTZ aug-cc-pVTZ/C TightSCF
|  5> %maxcore 4500
|  6> *xyzfile 0 1  10_84R.xyz
|  7>
|  8>
|  9>                          ****END OF INPUT****

CARTESIAN COORDINATES (ANGSTROEM)
---------------------------------
  C      1.002846    0.011981   -1.280772
  C      0.323375    0.310550    0.038218
  C      0.758060   -0.189105    1.190095
  C      1.984300   -1.080234    1.211899
  C      3.194218   -0.191707    0.934949
  C      3.345184   -0.059941   -0.377872
  C      2.270721   -0.850172   -1.101449
  H      0.304962   -0.523909   -1.932040
  H      1.249952    0.950437   -1.789669
  H      2.589316   -1.239562   -2.069225
  C      1.964502   -1.938724   -0.061947
  H      4.060779    0.581506   -0.876301
  H      3.755254    0.322023    1.704561
  C     -0.886338    1.245769   -0.036636
  H      2.762344   -2.682468   -0.037865
  H      1.007114   -2.437499   -0.223547
  H      2.044274   -1.648715    2.139182
  C     -1.974117    0.718718   -1.032965
  C     -1.512824    1.425844    1.280772
  C     -0.444300    2.567539   -0.519910
  N     -2.023187    1.558703    2.297599
  N     -0.090628    3.572271   -0.942842
  C     -2.395357   -0.634235   -0.710355
  C     -2.717661   -1.749067   -0.417368
  C     -3.114607   -3.100648   -0.052141
  H     -2.315523   -3.601806    0.497631
  H     -4.003332   -3.086168    0.581274
  H     -3.339046   -3.694296   -0.940280
  H      0.268700    0.054854    2.125644
  H     -2.822066    1.406003   -1.010825
  H     -1.554031    0.763366   -2.038936

 Total Charge           Charge          ....    0
 Multiplicity           Mult            ....    1
 Number of Electrons    NEL             ....  118
 Basis Dimension        Dim             .... 1104

ORBITAL ENERGIES
----------------

  NO   OCC          E(Eh)            E(eV)
   0   2.0000     -15.588538      -424.1857
   1   2.0000     -15.586292      -424.1246
   2   2.0000     -11.352849      -308.9267
   3   2.0000     -11.295775      -307.3737
   4   2.0000     -11.291044      -307.2449
   5   2.0000     -11.289306      -307.1976
   6   2.0000     -11.265417      -306.5476
   7   2.0000     -11.259121      -306.3763
   8   2.0000     -11.249767      -306.1217
   9   2.0000     -11.248995      -306.1007
  10   2.0000     -11.248410      -306.0848
  11   2.0000     -11.246631      -306.0364
  12   2.0000     -11.244777      -305.9860
  13   2.0000     -11.236205      -305.7527
  14   2.0000     -11.235234      -305.7263
  15   2.0000     -11.232532      -305.6527
  16   2.0000     -11.231133      -305.6147
  17   2.0000      -1.257218       -34.2106
  18   2.0000      -1.236555       -33.6484
  19   2.0000      -1.196049       -32.5461
  20   2.0000      -1.156799       -31.4781
  21   2.0000      -1.083805       -29.4918
  22   2.0000      -1.052871       -28.6501
  23   2.0000      -1.034918       -28.1615
  24   2.0000      -1.002053       -27.2672
  25   2.0000      -0.974454       -26.5162
  26   2.0000      -0.933329       -25.3972
  27   2.0000      -0.888466       -24.1764
  28   2.0000      -0.832674       -22.6582
  29   2.0000      -0.787563       -21.4307
  30   2.0000      -0.736566       -20.0430
  31   2.0000      -0.733674       -19.9643
  32   2.0000      -0.724939       -19.7266
  33   2.0000      -0.681787       -18.5524
  34   2.0000      -0.663888       -18.0653
  35   2.0000      -0.657216       -17.8838
  36   2.0000      -0.632387       -17.2081
  37   2.0000      -0.625309       -17.0155
  38   2.0000      -0.602879       -16.4052
  39   2.0000      -0.601482       -16.3671
  40   2.0000      -0.598756       -16.2930
  41   2.0000      -0.591577       -16.0976
  42   2.0000      -0.581145       -15.8138
  43   2.0000      -0.575857       -15.6699
  44   2.0000      -0.564018       -15.3477
  45   2.0000      -0.560015       -15.2388
  46   2.0000      -0.543376       -14.7860
  47   2.0000      -0.515969       -14.0402
  48   2.0000      -0.500568       -13.6212
  49   2.0000      -0.493489       -13.4285
  50   2.0000      -0.490982       -13.3603
  51   2.0000      -0.482034       -13.1168
  52   2.0000      -0.477924       -13.0050
  53   2.0000      -0.468371       -12.7450
  54   2.0000      -0.464076       -12.6281
  55   2.0000      -0.392172       -10.6715
  56   2.0000      -0.390887       -10.6366
  57   2.0000      -0.378775       -10.3070
  58   2.0000      -0.346790        -9.4366
  59   0.0000       0.019028         0.5178
  60   0.0000       0.027093         0.7372
  61   0.0000       0.027694         0.7536
  62   0.0000       0.033727         0.9178
  63   0.0000       0.038776         1.0552

MULLIKEN ATOMIC CHARGES
-----------------------
   0 C :   -0.561810
   1 C :    1.719514
   2 C :   -1.671254
   3 C :   -0.097323
   4 C :   -0.782460
   5 C :   -0.654717
   6 C :   -0.154391
   7 H :    0.134351
   8 H :    0.368155
   9 H :    0.424864
  10 C :   -0.836649
  11 H :    0.483618
  12 H :    0.488724
  13 C :   -0.207552
  14 H :    0.290733
  15 H :    0.371196
  16 H :    0.405295
  17 C :   -0.249965
  18 C :    1.469981
  19 C :    0.944906
  20 N :   -1.152341
  21 N :   -1.082125
  22 C :    0.483372
  23 C :   -0.412135
  24 C :   -0.929685
  25 H :    0.305811
  26 H :    0.257659
  27 H :    0.271345
  28 H :   -0.061155
  29 H :    0.242214
  30 H :    0.191826
Sum of atomic charges:    0.0000000

LOEWDIN ATOMIC CHARGES
----------------------
   0 C :    0.310229
   1 C :   -0.077194
   2 C :    0.284525
   3 C :    0.001724
   4 C :    0.266688
   5 C :    0.260113
   6 C :    0.009672
   7 H :   -0.145327
   8 H :   -0.136477
   9 H :   -0.120411
  10 C :    0.312323
  11 H :   -0.161075
  12 H :   -0.161459
  13 C :   -0.392417
  14 H :   -0.129993
  15 H :   -0.129725
  16 H :   -0.129885
  17 C :    0.221368
  18 C :   -0.239472
  19 C :   -0.215774
  20 N :    0.341801
  21 N :    0.323864
  22 C :    0.093407
  23 C :    0.110784
  24 C :    0.528594
  25 H :   -0.182978
  26 H :   -0.180861
  27 H :   -0.182269
  28 H :   -0.183033
  29 H :   -0.140083
  30 H :   -0.156657

  Mayer bond orders larger than 0.100000
B(  0-C ,  1-C ) :   0.3689 B(  0-C ,  6-C ) :   1.0894 B(  0-C ,  7-H ) :   1.0887
B(  0-C ,  8-H ) :   0.8486 B(  1-C ,  2-C ) :  -0.6851 B(  1-C ,  3-C ) :   0.1071
B(  1-C ,  4-C ) :  -0.1567 B(  1-C ,  6-C ) :  -0.1240 B(  1-C ,  8-H ) :  -0.1049
B(  1-C , 10-C ) :  -0.4617 B(  1-C , 13-C ) :   0.7361 B(  1-C , 18-C ) :   0.6207
B(  1-C , 19-C ) :   0.6901 B(  1-C , 21-N ) :   0.1318 B(  1-C , 23-C ) :   0.3955
B(  1-C , 28-H ) :  -0.5519 B(  2-C ,  3-C ) :   0.8895 B(  2-C ,  4-C ) :   0.4289
B(  2-C ,  6-C ) :   0.1685 B(  2-C , 10-C ) :   0.3523 B(  2-C , 13-C ) :   0.5978
B(  2-C , 14-H ) :   0.1052 B(  2-C , 15-H ) :  -0.1133 B(  2-C , 16-H ) :  -0.1129
B(  2-C , 17-C ) :   0.1370 B(  2-C , 18-C ) :  -0.3249 B(  2-C , 20-N ) :   0.1679
B(  2-C , 28-H ) :   1.7998 B(  3-C ,  4-C ) :   1.0256 B(  3-C , 10-C ) :   1.0771
B(  3-C , 16-H ) :   0.8346 B(  3-C , 28-H ) :  -0.1114 B(  4-C ,  5-C ) :   1.4771
B(  4-C , 12-H ) :   0.7705 B(  5-C ,  6-C ) :   0.9584 B(  5-C ,  9-H ) :  -0.1547
B(  5-C , 11-H ) :   0.7684 B(  6-C ,  9-H ) :   0.8261 B(  6-C , 10-C ) :   0.9956
B( 10-C , 14-H ) :   0.9849 B( 10-C , 15-H ) :   0.8641 B( 13-C , 17-C ) :   0.7413
B( 13-C , 18-C ) :   0.8455 B( 13-C , 19-C ) :   0.8228 B( 13-C , 20-N ) :   0.6559
B( 13-C , 21-N ) :   0.4524 B( 13-C , 22-C ) :   0.2357 B( 17-C , 22-C ) :   0.5688
B( 17-C , 29-H ) :   1.0165 B( 17-C , 30-H ) :   1.0358 B( 18-C , 20-N ) :   0.9193
B( 18-C , 28-H ) :  -0.1918 B( 19-C , 21-N ) :   1.1337 B( 20-N , 28-H ) :   0.1214
B( 22-C , 23-C ) :   1.7413 B( 22-C , 24-C ) :  -0.2279 B( 22-C , 29-H ) :  -0.1364
B( 23-C , 24-C ) :   1.0188 B( 24-C , 25-H ) :   0.8980 B( 24-C , 26-H ) :   0.9985
B( 24-C , 27-H ) :   0.9878

MP2 TOTAL ENERGY:     -687.996120726 Eh
FINAL SINGLE POINT ENERGY      -687.996120726353

DIPOLE MOMENT
-------------
                                X             Y             Z
Electronic contribution:     -3.64666      12.65068       3.09430
Nuclear contribution   :      3.98409     -14.76093      -3.85066
                        -----------------------------------------
Total Dipole Moment    :      0.33744      -2.11025      -0.75636
                        -----------------------------------------
Magnitude (a.u.)       :      2.26696
Magnitude (Debye)      :      5.76215

Rotational constants in cm-1:     0.019443     0.014177     0.010728
Rotational constants in MHz :   582.890715   425.017607   321.616144

                             ****ORCA TERMINATED NORMALLY****
TOTAL RUN TIME: 0 days 0 hours 28 minutes 10 seconds 359 msec
