                         Program Version 4.2.1 -  RELEASE  -
|  1> %pal
|  2>  nprocs 32
|  3> end
|  4> !RI-MP2 aug-cc-pVTZ aug-cc-pVTZ/C TightSCF
|  5> %maxcore 4500
|  6> *xyzfile 0 1  10_43R.xyz
|  7>
|  8>
|  9>                          ****END OF INPUT****

CARTESIAN COORDINATES (ANGSTROEM)
---------------------------------
  C     -0.114498   -2.591609   -0.405885
  H     -0.581837   -3.319622   -1.091710
  C      0.929545   -1.795482   -1.152948
  C     -0.313455    0.325631   -0.823835
  H     -0.425665    1.037071   -0.005703
  H     -0.371172    0.889338   -1.759071
  C     -1.488154   -0.667728   -0.749526
  H     -1.644391   -1.111516   -1.750025
  N     -1.107792   -1.714065    0.194347
  C      2.147976    0.222862   -0.301657
  C      1.630259   -2.313245   -2.153148
  C      3.406863   -0.529183   -0.086710
  C      3.559525   -1.505675    0.800924
  C      1.026817   -0.376281   -0.730791
  C      4.832207   -2.253863    1.039887
  H      5.145018   -2.185651    2.086031
  H      4.707995   -3.318003    0.815585
  H      5.641878   -1.869960    0.416268
  C     -2.220287   -2.452407    0.753864
  H     -2.823435   -2.938203   -0.035327
  H     -1.816906   -3.247408    1.385649
  C     -2.768984    0.043506   -0.369275
  C     -3.520986   -0.337251    0.740425
  C     -3.091006   -1.517028    1.570576
  H     -2.521400   -1.174334    2.439874
  H     -3.970161   -2.047309    1.945055
  H      0.368476   -3.158673    0.397343
  C     -4.680845    0.369843    1.053536
  H     -5.264468    0.065678    1.916087
  C     -3.207194    1.110339   -1.154075
  H     -2.636870    1.397688   -2.030188
  C     -5.099759    1.438615    0.281096
  H     -6.004446    1.975572    0.539521
  C     -4.359210    1.807529   -0.835594
  H     -4.682016    2.633574   -1.457669
  Si     2.237709    2.044836    0.214318
  C      1.530110    2.214180    1.946747
  H      2.073260    1.570558    2.642962
  H      1.612301    3.243510    2.306308
  H      0.476871    1.928297    1.986611
  C      4.046117    2.555237    0.244481
  H      4.505812    2.471109   -0.743757
  H      4.136918    3.597440    0.561945
  H      4.626935    1.942399    0.936579
  C      1.343035    3.202308   -0.969602
  H      1.610270    2.988212   -2.007565
  H      0.257597    3.144007   -0.882866
  H      1.635473    4.235174   -0.760631
  H      2.384393   -1.733033   -2.669198
  H      1.480445   -3.337952   -2.475913
  H      2.698433   -1.801241    1.396770
  H      4.278853   -0.207773   -0.654774

 Total Charge           Charge          ....    0
 Multiplicity           Mult            ....    1
 Number of Electrons    NEL             ....  176
 Basis Dimension        Dim             .... 1729

ORBITAL ENERGIES
----------------

  NO   OCC          E(Eh)            E(eV)
   0   2.0000     -68.746517     -1870.6878
   1   2.0000     -15.548562      -423.0979
   2   2.0000     -11.262597      -306.4708
   3   2.0000     -11.254465      -306.2496
   4   2.0000     -11.251053      -306.1567
   5   2.0000     -11.238148      -305.8056
   6   2.0000     -11.236471      -305.7599
   7   2.0000     -11.235235      -305.7263
   8   2.0000     -11.234854      -305.7159
   9   2.0000     -11.230403      -305.5948
  10   2.0000     -11.229651      -305.5743
  11   2.0000     -11.228738      -305.5495
  12   2.0000     -11.227969      -305.5286
  13   2.0000     -11.225638      -305.4651
  14   2.0000     -11.224076      -305.4226
  15   2.0000     -11.217551      -305.2451
  16   2.0000     -11.215807      -305.1976
  17   2.0000     -11.214804      -305.1703
  18   2.0000     -11.213201      -305.1267
  19   2.0000     -11.203818      -304.8714
  20   2.0000     -11.190427      -304.5070
  21   2.0000     -11.188866      -304.4645
  22   2.0000     -11.188022      -304.4416
  23   2.0000      -6.093627      -165.8160
  24   2.0000      -4.199962      -114.2868
  25   2.0000      -4.199842      -114.2835
  26   2.0000      -4.199759      -114.2812
  27   2.0000      -1.255681       -34.1688
  28   2.0000      -1.158176       -31.5156
  29   2.0000      -1.119901       -30.4741
  30   2.0000      -1.072398       -29.1814
  31   2.0000      -1.062406       -28.9095
  32   2.0000      -1.051411       -28.6104
  33   2.0000      -1.013654       -27.5829
  34   2.0000      -0.995899       -27.0998
  35   2.0000      -0.965608       -26.2755
  36   2.0000      -0.953888       -25.9566
  37   2.0000      -0.926721       -25.2174
  38   2.0000      -0.916123       -24.9290
  39   2.0000      -0.914623       -24.8882
  40   2.0000      -0.894829       -24.3495
  41   2.0000      -0.858303       -23.3556
  42   2.0000      -0.834582       -22.7101
  43   2.0000      -0.812486       -22.1089
  44   2.0000      -0.803829       -21.8733
  45   2.0000      -0.756069       -20.5737
  46   2.0000      -0.742567       -20.2063
  47   2.0000      -0.693870       -18.8812
  48   2.0000      -0.683919       -18.6104
  49   2.0000      -0.668486       -18.1904
  50   2.0000      -0.654846       -17.8193
  51   2.0000      -0.644326       -17.5330
  52   2.0000      -0.633148       -17.2288
  53   2.0000      -0.626540       -17.0490
  54   2.0000      -0.608106       -16.5474
  55   2.0000      -0.604235       -16.4421
  56   2.0000      -0.593547       -16.1512
  57   2.0000      -0.585082       -15.9209
  58   2.0000      -0.582221       -15.8431
  59   2.0000      -0.566793       -15.4232
  60   2.0000      -0.564980       -15.3739
  61   2.0000      -0.560466       -15.2511
  62   2.0000      -0.557878       -15.1806
  63   2.0000      -0.553851       -15.0711
  64   2.0000      -0.551786       -15.0148
  65   2.0000      -0.547755       -14.9052
  66   2.0000      -0.535762       -14.5788
  67   2.0000      -0.533832       -14.5263
  68   2.0000      -0.526536       -14.3278
  69   2.0000      -0.526314       -14.3217
  70   2.0000      -0.523462       -14.2441
  71   2.0000      -0.520478       -14.1629
  72   2.0000      -0.516569       -14.0566
  73   2.0000      -0.513894       -13.9838
  74   2.0000      -0.492559       -13.4032
  75   2.0000      -0.486534       -13.2393
  76   2.0000      -0.477592       -12.9959
  77   2.0000      -0.459880       -12.5140
  78   2.0000      -0.458158       -12.4671
  79   2.0000      -0.427535       -11.6338
  80   2.0000      -0.421623       -11.4730
  81   2.0000      -0.416689       -11.3387
  82   2.0000      -0.375870       -10.2279
  83   2.0000      -0.366514        -9.9734
  84   2.0000      -0.352186        -9.5835
  85   2.0000      -0.329221        -8.9586
  86   2.0000      -0.321521        -8.7490
  87   2.0000      -0.300757        -8.1840
  88   0.0000       0.023433         0.6377
  89   0.0000       0.027779         0.7559
  90   0.0000       0.027941         0.7603
  91   0.0000       0.030677         0.8348
  92   0.0000       0.036030         0.9804

MULLIKEN ATOMIC CHARGES
-----------------------
   0 C :   -0.811074
   1 H :    0.239495
   2 C :    0.638112
   3 C :   -1.199161
   4 H :    0.217175
   5 H :    0.061787
   6 C :   -0.067444
   7 H :    0.261159
   8 N :   -0.097878
   9 C :    2.171251
  10 C :   -2.080334
  11 C :   -0.315148
  12 C :   -0.433396
  13 C :   -0.094116
  14 C :   -1.090834
  15 H :    0.257633
  16 H :    0.278217
  17 H :    0.282784
  18 C :   -0.722497
  19 H :    0.279856
  20 H :    0.303228
  21 C :    1.156678
  22 C :    0.853884
  23 C :   -0.525370
  24 H :    0.219711
  25 H :    0.230759
  26 H :    0.286936
  27 C :   -1.082658
  28 H :   -0.034678
  29 C :   -1.057982
  30 H :    0.127827
  31 C :   -0.226850
  32 H :    0.719511
  33 C :   -0.567868
  34 H :    0.395632
  35 Si:    3.151405
  36 C :   -1.447956
  37 H :    0.231715
  38 H :    0.141286
  39 H :    0.458327
  40 C :   -1.891063
  41 H :    0.229382
  42 H :    0.061729
  43 H :    0.227166
  44 C :   -1.560393
  45 H :    0.243177
  46 H :    0.460727
  47 H :    0.032320
  48 H :    0.412294
  49 H :    0.117646
  50 H :    0.454887
  51 H :    0.103002
Sum of atomic charges:    0.0000000

LOEWDIN ATOMIC CHARGES
----------------------
   0 C :    0.162543
   1 H :   -0.128402
   2 C :   -0.125379
   3 C :    0.292110
   4 H :   -0.172392
   5 H :   -0.138721
   6 C :   -0.103331
   7 H :   -0.107304
   8 N :    0.313149
   9 C :   -0.059785
  10 C :    0.564714
  11 C :    0.111247
  12 C :    0.200541
  13 C :   -0.114943
  14 C :    0.556630
  15 H :   -0.177166
  16 H :   -0.175770
  17 H :   -0.181264
  18 C :    0.166629
  19 H :   -0.114800
  20 H :   -0.134375
  21 C :   -0.047468
  22 C :   -0.067088
  23 C :    0.301628
  24 H :   -0.131530
  25 H :   -0.142968
  26 H :   -0.131368
  27 C :    0.223622
  28 H :   -0.172723
  29 C :    0.227015
  30 H :   -0.171973
  31 C :    0.199637
  32 H :   -0.182934
  33 C :    0.204395
  34 H :   -0.182413
  35 Si:    0.499625
  36 C :    0.592935
  37 H :   -0.224419
  38 H :   -0.226353
  39 H :   -0.233107
  40 C :    0.575239
  41 H :   -0.223651
  42 H :   -0.226889
  43 H :   -0.229799
  44 C :    0.586977
  45 H :   -0.221064
  46 H :   -0.242268
  47 H :   -0.226917
  48 H :   -0.202590
  49 H :   -0.203110
  50 H :   -0.171812
  51 H :   -0.182560

  Mayer bond orders larger than 0.100000
B(  0-C ,  1-H ) :   1.1249 B(  0-C ,  2-C ) :   0.9967 B(  0-C ,  6-C ) :   0.1310
B(  0-C ,  8-N ) :   0.7631 B(  0-C ,  9-C ) :  -0.1279 B(  0-C , 13-C ) :  -0.2012
B(  0-C , 26-H ) :   0.9814 B(  1-H , 13-C ) :  -0.1193 B(  2-C ,  3-C ) :   0.2657
B(  2-C ,  4-H ) :   0.2113 B(  2-C ,  5-H ) :  -0.1063 B(  2-C ,  9-C ) :  -0.6275
B(  2-C , 10-C ) :   0.5449 B(  2-C , 11-C ) :   0.1837 B(  2-C , 12-C ) :   0.1737
B(  2-C , 13-C ) :   0.6630 B(  2-C , 26-H ) :   0.1425 B(  2-C , 35-Si) :   0.2479
B(  3-C ,  4-H ) :   1.0185 B(  3-C ,  5-H ) :   1.0236 B(  3-C ,  6-C ) :   0.9113
B(  3-C ,  8-N ) :   0.6165 B(  3-C ,  9-C ) :  -0.2191 B(  3-C , 13-C ) :   1.3249
B(  3-C , 21-C ) :   0.5392 B(  3-C , 29-C ) :  -0.1896 B(  3-C , 30-H ) :  -0.1362
B(  3-C , 35-Si) :   0.3658 B(  3-C , 48-H ) :  -0.1564 B(  4-H ,  8-N ) :   0.1083
B(  4-H ,  9-C ) :  -0.1394 B(  4-H , 11-C ) :  -0.1347 B(  4-H , 21-C ) :  -0.1065
B(  4-H , 29-C ) :  -0.1132 B(  4-H , 35-Si) :   0.1541 B(  6-C ,  7-H ) :   1.0263
B(  6-C ,  8-N ) :   0.3917 B(  6-C , 18-C ) :   0.1039 B(  6-C , 21-C ) :   0.6384
B(  6-C , 22-C ) :   0.5320 B(  6-C , 23-C ) :  -0.1082 B(  6-C , 27-C ) :  -0.1314
B(  6-C , 29-C ) :   0.7507 B(  6-C , 31-C ) :   0.1168 B(  7-H , 21-C ) :  -0.2056
B(  8-N , 13-C ) :  -0.4152 B(  8-N , 18-C ) :   0.7008 B(  8-N , 22-C ) :  -0.1131
B(  8-N , 23-C ) :  -0.1199 B(  9-C , 10-C ) :   0.3303 B(  9-C , 13-C ) :   1.8895
B(  9-C , 30-H ) :  -0.1327 B(  9-C , 35-Si) :   0.2269 B(  9-C , 36-C ) :   0.2519
B(  9-C , 44-C ) :   0.3109 B(  9-C , 48-H ) :   0.2660 B( 10-C , 11-C ) :   0.2486
B( 10-C , 13-C ) :  -0.9724 B( 10-C , 48-H ) :   0.9163 B( 10-C , 49-H ) :   1.3158
B( 11-C , 12-C ) :   1.3119 B( 11-C , 13-C ) :   0.7137 B( 11-C , 35-Si) :  -0.2645
B( 11-C , 51-H ) :   1.0324 B( 12-C , 13-C ) :   0.1010 B( 12-C , 14-C ) :   0.6814
B( 12-C , 50-H ) :   0.8204 B( 13-C , 30-H ) :   0.1501 B( 13-C , 35-Si) :   1.2479
B( 13-C , 40-C ) :   0.1004 B( 13-C , 44-C ) :   0.2047 B( 13-C , 48-H ) :  -0.1644
B( 13-C , 51-H ) :  -0.1000 B( 14-C , 15-H ) :   1.0322 B( 14-C , 16-H ) :   0.9999
B( 14-C , 17-H ) :   0.9622 B( 18-C , 19-H ) :   1.0091 B( 18-C , 20-H ) :   0.9721
B( 18-C , 22-C ) :   0.1200 B( 18-C , 23-C ) :   1.1121 B( 21-C , 22-C ) :   0.4974
B( 21-C , 23-C ) :   0.2860 B( 21-C , 27-C ) :   0.4537 B( 21-C , 28-H ) :   0.1123
B( 21-C , 29-C ) :  -0.2012 B( 21-C , 31-C ) :  -0.2434 B( 21-C , 32-H ) :   0.1150
B( 21-C , 34-H ) :  -0.1224 B( 22-C , 23-C ) :   0.1201 B( 22-C , 24-H ) :  -0.1174
B( 22-C , 27-C ) :   0.5145 B( 22-C , 28-H ) :  -0.1074 B( 22-C , 31-C ) :   0.4041
B( 22-C , 32-H ) :  -0.1170 B( 22-C , 34-H ) :   0.1153 B( 23-C , 24-H ) :   1.1080
B( 23-C , 25-H ) :   1.0602 B( 23-C , 27-C ) :   0.1700 B( 23-C , 28-H ) :  -0.1071
B( 23-C , 29-C ) :  -0.1270 B( 27-C , 28-H ) :   1.7136 B( 27-C , 31-C ) :   0.9307
B( 27-C , 33-C ) :  -0.1836 B( 28-H , 31-C ) :  -0.1697 B( 28-H , 32-H ) :  -0.1004
B( 29-C , 30-H ) :   1.2715 B( 29-C , 31-C ) :   0.2242 B( 29-C , 33-C ) :   1.3586
B( 29-C , 34-H ) :  -0.1122 B( 31-C , 32-H ) :   0.3383 B( 31-C , 33-C ) :   1.0599
B( 31-C , 34-H ) :  -0.1077 B( 33-C , 34-H ) :   0.8880 B( 35-Si, 38-H ) :  -0.1342
B( 35-Si, 39-H ) :   0.1070 B( 35-Si, 40-C ) :  -1.0510 B( 35-Si, 42-H ) :  -0.1861
B( 35-Si, 44-C ) :  -0.1897 B( 35-Si, 46-H ) :   0.1066 B( 35-Si, 47-H ) :  -0.1939
B( 35-Si, 48-H ) :  -0.1391 B( 36-C , 37-H ) :   1.0254 B( 36-C , 38-H ) :   1.1532
B( 36-C , 39-H ) :   0.8034 B( 36-C , 40-C ) :   0.2851 B( 36-C , 44-C ) :   0.1642
B( 40-C , 41-H ) :   1.0799 B( 40-C , 42-H ) :   1.3180 B( 40-C , 43-H ) :   1.1154
B( 44-C , 45-H ) :   1.0729 B( 44-C , 46-H ) :   0.7836 B( 44-C , 47-H ) :   1.2674

MP2 TOTAL ENERGY:    -1159.632083343 Eh
FINAL SINGLE POINT ENERGY     -1159.632083343004

DIPOLE MOMENT
-------------
                                X             Y             Z
Electronic contribution:    -15.28951      -1.90935      -3.51746
Nuclear contribution   :     15.07436       1.56788       3.51050
                        -----------------------------------------
Total Dipole Moment    :     -0.21515      -0.34146      -0.00696
                        -----------------------------------------
Magnitude (a.u.)       :      0.40365
Magnitude (Debye)      :      1.02600

Rotational constants in cm-1:     0.012087     0.005426     0.004396
Rotational constants in MHz :   362.345781   162.652677   131.791978

                             ****ORCA TERMINATED NORMALLY****
TOTAL RUN TIME: 0 days 1 hours 54 minutes 44 seconds 377 msec
