                         Program Version 4.2.1 -  RELEASE  -
|  1> %pal
|  2>  nprocs 32
|  3> end
|  4> !RI-MP2 aug-cc-pVTZ aug-cc-pVTZ/C TightSCF
|  5> %maxcore 4500
|  6> *xyzfile 0 1  05_36P2.xyz
|  7>
|  8>
|  9>                          ****END OF INPUT****

CARTESIAN COORDINATES (ANGSTROEM)
---------------------------------
  N     -0.475797    1.760828    0.227829
  C      0.762523    1.117322    0.144457
  C      1.884288    1.715498    0.735253
  C      3.119329    1.107422    0.700384
  C      3.280647   -0.129107    0.076194
  C      2.181850   -0.735072   -0.508531
  C      0.932558   -0.114570   -0.475251
  O      4.542677   -0.651773    0.096742
  C      4.746316   -1.902845   -0.519250
  C     -1.579070    1.391402   -0.637569
  C     -2.268506    0.114096   -0.185426
  C     -2.284664   -0.265343    1.150986
  C     -2.959491   -1.411526    1.548140
  C     -3.625132   -2.192253    0.613127
  C     -3.609258   -1.821335   -0.724869
  C     -2.932220   -0.676069   -1.118636
  C     -2.580180    2.544438   -0.673227
  H      4.511520   -1.866020   -1.588310
  H     -4.119334   -2.428229   -1.463571
  H      4.144058   -2.685261   -0.045571
  H      5.801298   -2.136304   -0.392025
  H     -2.959423   -1.700055    2.592677
  H     -4.147803   -3.088888    0.923733
  H     -2.957220    2.747814    0.331666
  H     -3.429887    2.292285   -1.307348
  H     -2.114927    3.451491   -1.068294
  H     -1.746580    0.337198    1.872065
  H     -2.912698   -0.395746   -2.167256
  H      1.775284    2.674019    1.231887
  H      0.091696   -0.622363   -0.925935
  H      2.267933   -1.695290   -0.997521
  H      3.983290    1.574870    1.155786
  H     -0.399780    2.753283    0.385686
  H     -1.212196    1.223234   -1.661098

 Total Charge           Charge          ....    0
 Multiplicity           Mult            ....    1
 Number of Electrons    NEL             ....  122
 Basis Dimension        Dim             .... 1173

ORBITAL ENERGIES
----------------

  NO   OCC          E(Eh)            E(eV)
   0   2.0000     -20.573335      -559.8289
   1   2.0000     -15.558649      -423.3724
   2   2.0000     -11.280159      -306.9487
   3   2.0000     -11.276204      -306.8411
   4   2.0000     -11.271584      -306.7154
   5   2.0000     -11.264092      -306.5115
   6   2.0000     -11.234338      -305.7019
   7   2.0000     -11.232589      -305.6543
   8   2.0000     -11.230600      -305.6002
   9   2.0000     -11.229239      -305.5631
  10   2.0000     -11.228305      -305.5377
  11   2.0000     -11.226075      -305.4770
  12   2.0000     -11.225104      -305.4506
  13   2.0000     -11.224794      -305.4422
  14   2.0000     -11.223842      -305.4163
  15   2.0000     -11.223662      -305.4114
  16   2.0000     -11.220249      -305.3185
  17   2.0000      -1.400118       -38.0992
  18   2.0000      -1.245618       -33.8950
  19   2.0000      -1.155688       -31.4479
  20   2.0000      -1.132026       -30.8040
  21   2.0000      -1.055884       -28.7321
  22   2.0000      -1.015775       -27.6406
  23   2.0000      -1.013044       -27.5663
  24   2.0000      -1.001548       -27.2535
  25   2.0000      -0.974926       -26.5291
  26   2.0000      -0.925713       -25.1899
  27   2.0000      -0.872940       -23.7539
  28   2.0000      -0.831108       -22.6156
  29   2.0000      -0.825051       -22.4508
  30   2.0000      -0.802665       -21.8416
  31   2.0000      -0.779312       -21.2062
  32   2.0000      -0.718230       -19.5440
  33   2.0000      -0.698809       -19.0156
  34   2.0000      -0.687829       -18.7168
  35   2.0000      -0.673945       -18.3390
  36   2.0000      -0.649850       -17.6833
  37   2.0000      -0.647663       -17.6238
  38   2.0000      -0.630751       -17.1636
  39   2.0000      -0.617636       -16.8067
  40   2.0000      -0.604762       -16.4564
  41   2.0000      -0.599374       -16.3098
  42   2.0000      -0.586780       -15.9671
  43   2.0000      -0.582407       -15.8481
  44   2.0000      -0.565402       -15.3854
  45   2.0000      -0.562719       -15.3124
  46   2.0000      -0.549043       -14.9402
  47   2.0000      -0.536141       -14.5891
  48   2.0000      -0.522276       -14.2119
  49   2.0000      -0.517940       -14.0939
  50   2.0000      -0.510818       -13.9001
  51   2.0000      -0.499482       -13.5916
  52   2.0000      -0.489167       -13.3109
  53   2.0000      -0.481242       -13.0953
  54   2.0000      -0.471815       -12.8387
  55   2.0000      -0.469640       -12.7796
  56   2.0000      -0.408796       -11.1239
  57   2.0000      -0.339449        -9.2369
  58   2.0000      -0.334659        -9.1065
  59   2.0000      -0.325093        -8.8462
  60   2.0000      -0.273059        -7.4303
  61   0.0000       0.025032         0.6812
  62   0.0000       0.029151         0.7932
  63   0.0000       0.031272         0.8509
  64   0.0000       0.032636         0.8881
  65   0.0000       0.039597         1.0775

MULLIKEN ATOMIC CHARGES
-----------------------
   0 N :   -0.663848
   1 C :    1.028434
   2 C :   -0.685556
   3 C :   -0.747947
   4 C :    1.274345
   5 C :   -0.883395
   6 C :   -0.384737
   7 O :   -0.880480
   8 C :   -0.942057
   9 C :    0.877013
  10 C :    1.988438
  11 C :   -0.849070
  12 C :   -0.773805
  13 C :   -0.132170
  14 C :   -0.778940
  15 C :   -1.099374
  16 C :   -1.054424
  17 H :    0.356846
  18 H :    0.500092
  19 H :    0.359940
  20 H :    0.382960
  21 H :    0.412412
  22 H :    0.575319
  23 H :    0.306466
  24 H :    0.309521
  25 H :    0.255912
  26 H :   -0.165508
  27 H :   -0.067206
  28 H :    0.328457
  29 H :    0.466297
  30 H :    0.081106
  31 H :    0.487826
  32 H :   -0.115191
  33 H :    0.232323
Sum of atomic charges:   -0.0000000

LOEWDIN ATOMIC CHARGES
----------------------
   0 N :    0.568528
   1 C :   -0.216463
   2 C :    0.221296
   3 C :    0.207144
   4 C :   -0.390830
   5 C :    0.209843
   6 C :    0.229674
   7 O :    0.565750
   8 C :    0.324356
   9 C :   -0.153704
  10 C :   -0.123450
  11 C :    0.222259
  12 C :    0.204867
  13 C :    0.192624
  14 C :    0.198309
  15 C :    0.212500
  16 C :    0.609094
  17 H :   -0.174241
  18 H :   -0.182586
  19 H :   -0.174065
  20 H :   -0.181569
  21 H :   -0.181099
  22 H :   -0.185372
  23 H :   -0.152107
  24 H :   -0.158991
  25 H :   -0.157313
  26 H :   -0.177664
  27 H :   -0.168366
  28 H :   -0.174902
  29 H :   -0.198559
  30 H :   -0.201189
  31 H :   -0.176846
  32 H :   -0.300657
  33 H :   -0.136270

  Mayer bond orders larger than 0.100000
B(  0-N ,  1-C ) :   0.6157 B(  0-N ,  2-C ) :   0.1502 B(  0-N ,  6-C ) :  -0.4421
B(  0-N ,  9-C ) :   0.6365 B(  0-N , 10-C ) :   0.1506 B(  0-N , 26-H ) :  -0.1029
B(  0-N , 32-H ) :   1.3339 B(  1-C ,  2-C ) :   0.6698 B(  1-C ,  3-C ) :   0.2185
B(  1-C ,  5-C ) :  -0.2180 B(  1-C ,  6-C ) :   0.8344 B(  1-C , 30-H ) :  -0.1589
B(  1-C , 32-H ) :  -0.1364 B(  2-C ,  3-C ) :   1.2222 B(  2-C ,  4-C ) :  -0.1298
B(  2-C ,  6-C ) :  -0.1937 B(  2-C , 28-H ) :   0.9978 B(  3-C ,  4-C ) :   0.6557
B(  3-C ,  5-C ) :   0.1961 B(  3-C ,  6-C ) :  -0.1219 B(  3-C ,  7-O ) :   0.2551
B(  3-C , 31-H ) :   0.7139 B(  4-C ,  5-C ) :   1.1748 B(  4-C ,  6-C ) :   0.1016
B(  4-C ,  7-O ) :   0.2322 B(  5-C ,  6-C ) :   0.8952 B(  5-C ,  7-O ) :  -0.2781
B(  5-C , 11-C ) :  -0.1367 B(  5-C , 29-H ) :  -0.2084 B(  5-C , 30-H ) :   1.3575
B(  6-C , 11-C ) :   0.1092 B(  6-C , 29-H ) :   1.0412 B(  6-C , 30-H ) :  -0.1014
B(  6-C , 33-H ) :  -0.1144 B(  7-O ,  8-C ) :   0.9956 B(  8-C , 17-H ) :   0.8936
B(  8-C , 19-H ) :   0.8878 B(  8-C , 20-H ) :   0.9214 B(  8-C , 30-H ) :  -0.1317
B(  9-C , 10-C ) :   0.5647 B(  9-C , 11-C ) :  -0.2184 B(  9-C , 16-C ) :   0.5530
B(  9-C , 23-H ) :  -0.1155 B(  9-C , 26-H ) :  -0.1849 B(  9-C , 27-H ) :  -0.2528
B(  9-C , 33-H ) :   1.0328 B( 10-C , 12-C ) :   0.1746 B( 10-C , 14-C ) :   0.1541
B( 10-C , 26-H ) :  -0.5403 B( 10-C , 27-H ) :  -0.4517 B( 11-C , 12-C ) :   1.2692
B( 11-C , 13-C ) :  -0.1303 B( 11-C , 15-C ) :  -0.4684 B( 11-C , 26-H ) :   2.0809
B( 11-C , 27-H ) :   0.2590 B( 12-C , 13-C ) :   1.2173 B( 12-C , 14-C ) :   0.1379
B( 12-C , 21-H ) :   0.9244 B( 12-C , 22-H ) :  -0.1722 B( 12-C , 26-H ) :  -0.1278
B( 12-C , 27-H ) :  -0.1737 B( 13-C , 14-C ) :   1.1565 B( 13-C , 22-H ) :   0.6356
B( 14-C , 15-C ) :   1.4338 B( 14-C , 18-H ) :   0.7123 B( 14-C , 22-H ) :  -0.1305
B( 14-C , 27-H ) :  -0.1376 B( 15-C , 22-H ) :   0.1159 B( 15-C , 26-H ) :   0.3241
B( 15-C , 27-H ) :   1.8605 B( 15-C , 33-H ) :   0.1211 B( 16-C , 23-H ) :   1.0383
B( 16-C , 24-H ) :   0.9955 B( 16-C , 25-H ) :   1.0351 B( 26-H , 27-H ) :   0.2804

MP2 TOTAL ENERGY:     -710.368463862 Eh
FINAL SINGLE POINT ENERGY      -710.368463861922

DIPOLE MOMENT
-------------
                                X             Y             Z
Electronic contribution:      2.99622      -0.40389       2.72915
Nuclear contribution   :     -3.38279       0.43959      -3.14552
                        -----------------------------------------
Total Dipole Moment    :     -0.38657       0.03570      -0.41638
                        -----------------------------------------
Magnitude (a.u.)       :      0.56928
Magnitude (Debye)      :      1.44700

Rotational constants in cm-1:     0.027600     0.008272     0.007089
Rotational constants in MHz :   827.416585   247.987888   212.512286

                             ****ORCA TERMINATED NORMALLY****
TOTAL RUN TIME: 0 days 0 hours 30 minutes 38 seconds 533 msec
