                         Program Version 4.2.1 -  RELEASE  -
|  1> %pal
|  2>  nprocs 32
|  3> end
|  4> !RI-MP2 aug-cc-pVTZ aug-cc-pVTZ/C TightSCF
|  5> %maxcore 4500
|  6> *xyzfile 0 1  06_25TS.xyz
|  7>
|  8>
|  9>                          ****END OF INPUT****

CARTESIAN COORDINATES (ANGSTROEM)
---------------------------------
  C      1.710966   -2.792700   -0.758595
  C      0.834357   -2.104453    0.314562
  C      2.827710    0.213955   -0.135770
  H      1.077283   -3.424784   -1.390719
  C      1.492524   -2.168841    1.705632
  H      0.843263   -1.661196    2.427486
  H      1.547366   -3.216762    2.024381
  H      3.420566    1.119175   -0.297496
  H     -0.077853   -2.707104    0.415037
  H     -0.266302   -0.214814    0.968700
  C      2.894806   -1.579772    1.795901
  H      3.233786   -1.656378    2.833976
  H      3.586467   -2.201336    1.220405
  C      3.042588   -0.123259    1.358114
  H      2.378805    0.499616    1.965194
  H      4.060600    0.186346    1.616995
  C      3.442057   -0.835838   -1.094191
  H      3.884038   -0.295370   -1.937501
  C      2.498838   -1.879385   -1.701841
  H      1.790054   -1.359839   -2.353383
  H      3.091851   -2.511821   -2.370964
  H      4.280353   -1.335812   -0.599025
  H      2.400035   -3.490324   -0.269046
  C      1.365978    0.565200   -0.521820
  H      1.368423    0.613492   -1.618071
  Si     0.852884    2.321611   -0.052750
  C      0.466498    2.559253    1.775171
  H      1.361405    2.475054    2.395278
  H      0.046228    3.555158    1.941243
  H     -0.259258    1.828846    2.138807
  C     -0.687704    2.787701   -1.037953
  H     -0.959543    3.829094   -0.845546
  H     -0.515555    2.692538   -2.113903
  H     -1.554310    2.175477   -0.780792
  C      2.206570    3.544637   -0.523849
  H      2.509718    3.422063   -1.567343
  H      1.855788    4.572871   -0.400708
  H      3.098654    3.426975    0.095693
  B      0.350379   -0.597816   -0.006067
  C     -1.597081   -0.556274   -0.402787
  C     -2.590536   -0.354681    0.422475
  H     -2.445063   -0.112076    1.464233
  C     -0.875271   -0.823731   -1.486014
  H     -0.676075   -0.036042   -2.200522
  H     -0.728263   -1.846240   -1.807749
  C     -3.980905   -0.454737   -0.088806
  O     -4.302817   -0.716079   -1.216564
  O     -4.849938   -0.206243    0.900080
  C     -6.234399   -0.267466    0.539560
  H     -6.485752   -1.262393    0.173130
  H     -6.783275   -0.042749    1.449671
  H     -6.455642    0.465791   -0.235488

 Total Charge           Charge          ....    0
 Multiplicity           Mult            ....    1
 Number of Electrons    NEL             ....  168
 Basis Dimension        Dim             .... 1683

ORBITAL ENERGIES
----------------

  NO   OCC          E(Eh)            E(eV)
   0   2.0000     -68.736264     -1870.4088
   1   2.0000     -20.620179      -561.1036
   2   2.0000     -20.557313      -559.3929
   3   2.0000     -11.400809      -310.2318
   4   2.0000     -11.335003      -308.4411
   5   2.0000     -11.295976      -307.3791
   6   2.0000     -11.279570      -306.9327
   7   2.0000     -11.273531      -306.7684
   8   2.0000     -11.213466      -305.1339
   9   2.0000     -11.206500      -304.9444
  10   2.0000     -11.204410      -304.8875
  11   2.0000     -11.203879      -304.8731
  12   2.0000     -11.202642      -304.8394
  13   2.0000     -11.201053      -304.7962
  14   2.0000     -11.200096      -304.7701
  15   2.0000     -11.189393      -304.4789
  16   2.0000     -11.186646      -304.4041
  17   2.0000     -11.185780      -304.3806
  18   2.0000     -11.185672      -304.3776
  19   2.0000     -11.172272      -304.0130
  20   2.0000      -7.562417      -205.7838
  21   2.0000      -6.083645      -165.5444
  22   2.0000      -4.189971      -114.0149
  23   2.0000      -4.189891      -114.0127
  24   2.0000      -4.189527      -114.0028
  25   2.0000      -1.480512       -40.2868
  26   2.0000      -1.377501       -37.4837
  27   2.0000      -1.148339       -31.2479
  28   2.0000      -1.102260       -29.9940
  29   2.0000      -1.046604       -28.4795
  30   2.0000      -1.036013       -28.1913
  31   2.0000      -1.031440       -28.0669
  32   2.0000      -0.979170       -26.6446
  33   2.0000      -0.965026       -26.2597
  34   2.0000      -0.936798       -25.4916
  35   2.0000      -0.915692       -24.9173
  36   2.0000      -0.912774       -24.8378
  37   2.0000      -0.905583       -24.6422
  38   2.0000      -0.862619       -23.4731
  39   2.0000      -0.829302       -22.5665
  40   2.0000      -0.791049       -21.5255
  41   2.0000      -0.776745       -21.1363
  42   2.0000      -0.760111       -20.6837
  43   2.0000      -0.723008       -19.6740
  44   2.0000      -0.704385       -19.1673
  45   2.0000      -0.702449       -19.1146
  46   2.0000      -0.688185       -18.7265
  47   2.0000      -0.668954       -18.2032
  48   2.0000      -0.656777       -17.8718
  49   2.0000      -0.644299       -17.5323
  50   2.0000      -0.630944       -17.1689
  51   2.0000      -0.623103       -16.9555
  52   2.0000      -0.606204       -16.4956
  53   2.0000      -0.598390       -16.2830
  54   2.0000      -0.591580       -16.0977
  55   2.0000      -0.571893       -15.5620
  56   2.0000      -0.570083       -15.5127
  57   2.0000      -0.563975       -15.3465
  58   2.0000      -0.561381       -15.2760
  59   2.0000      -0.558482       -15.1971
  60   2.0000      -0.553750       -15.0683
  61   2.0000      -0.550070       -14.9682
  62   2.0000      -0.544690       -14.8218
  63   2.0000      -0.536128       -14.5888
  64   2.0000      -0.529889       -14.4190
  65   2.0000      -0.526004       -14.3133
  66   2.0000      -0.521999       -14.2043
  67   2.0000      -0.500738       -13.6258
  68   2.0000      -0.484530       -13.1847
  69   2.0000      -0.478326       -13.0159
  70   2.0000      -0.475138       -12.9292
  71   2.0000      -0.473065       -12.8727
  72   2.0000      -0.466480       -12.6936
  73   2.0000      -0.455601       -12.3975
  74   2.0000      -0.450631       -12.2623
  75   2.0000      -0.435610       -11.8535
  76   2.0000      -0.425325       -11.5737
  77   2.0000      -0.420998       -11.4560
  78   2.0000      -0.416455       -11.3323
  79   2.0000      -0.405822       -11.0430
  80   2.0000      -0.405190       -11.0258
  81   2.0000      -0.393186       -10.6991
  82   2.0000      -0.387628       -10.5479
  83   2.0000      -0.357537        -9.7291
  84   0.0000       0.021856         0.5947
  85   0.0000       0.026926         0.7327
  86   0.0000       0.029291         0.7971
  87   0.0000       0.030428         0.8280
  88   0.0000       0.036572         0.9952

MULLIKEN ATOMIC CHARGES
-----------------------
   0 C :   -0.746600
   1 C :    0.316719
   2 C :   -0.373363
   3 H :    0.139625
   4 C :   -0.800040
   5 H :    0.056581
   6 H :    0.175154
   7 H :    0.337615
   8 H :    0.168526
   9 H :   -0.165804
  10 C :   -0.415347
  11 H :    0.446631
  12 H :   -0.067047
  13 C :   -0.625135
  14 H :    0.192043
  15 H :    0.205574
  16 C :   -0.786408
  17 H :    0.139456
  18 C :   -0.413131
  19 H :   -0.058919
  20 H :    0.533451
  21 H :   -0.051475
  22 H :    0.032782
  23 C :    1.127944
  24 H :    0.417484
  25 Si:    2.877961
  26 C :   -1.485993
  27 H :    0.209087
  28 H :    0.009615
  29 H :    0.344953
  30 C :   -1.697375
  31 H :    0.009488
  32 H :    0.173122
  33 H :    0.394759
  34 C :   -1.810205
  35 H :    0.170600
  36 H :    0.059909
  37 H :    0.285044
  38 B :    0.616722
  39 C :    0.880808
  40 C :   -0.516780
  41 H :   -0.061037
  42 C :   -0.142431
  43 H :    0.411572
  44 H :    0.268752
  45 C :    0.372943
  46 O :   -0.976578
  47 O :   -0.409169
  48 C :   -0.905821
  49 H :    0.398175
  50 H :    0.348012
  51 H :    0.387553
Sum of atomic charges:    0.0000000

LOEWDIN ATOMIC CHARGES
----------------------
   0 C :    0.318063
   1 C :    0.120276
   2 C :    0.005674
   3 H :   -0.141523
   4 C :    0.304688
   5 H :   -0.136822
   6 H :   -0.132006
   7 H :   -0.170172
   8 H :   -0.143784
   9 H :   -0.105949
  10 C :    0.310040
  11 H :   -0.133139
  12 H :   -0.164641
  13 C :    0.333809
  14 H :   -0.159799
  15 H :   -0.130808
  16 C :    0.339403
  17 H :   -0.135410
  18 C :    0.311383
  19 H :   -0.162459
  20 H :   -0.134176
  21 H :   -0.148876
  22 H :   -0.145827
  23 C :    0.145147
  24 H :   -0.227645
  25 Si:    0.525375
  26 C :    0.598763
  27 H :   -0.232680
  28 H :   -0.223522
  29 H :   -0.231706
  30 C :    0.596444
  31 H :   -0.222968
  32 H :   -0.219754
  33 H :   -0.245776
  34 C :    0.591140
  35 H :   -0.220158
  36 H :   -0.227007
  37 H :   -0.229478
  38 B :   -0.517531
  39 C :    0.098969
  40 C :    0.258120
  41 H :   -0.180998
  42 C :    0.538905
  43 H :   -0.139403
  44 H :   -0.134521
  45 C :   -0.855835
  46 O :    0.473882
  47 O :    0.560981
  48 C :    0.363532
  49 H :   -0.178108
  50 H :   -0.184000
  51 H :   -0.178118

  Mayer bond orders larger than 0.100000
B(  0-C ,  1-C ) :   0.6928 B(  0-C ,  3-H ) :   1.1844 B(  0-C ,  8-H ) :  -0.2759
B(  0-C , 18-C ) :   0.7355 B(  0-C , 19-H ) :   0.1129 B(  0-C , 20-H ) :  -0.1450
B(  0-C , 22-H ) :   1.2210 B(  0-C , 38-B ) :   0.2155 B(  1-C ,  2-C ) :   0.2910
B(  1-C ,  3-H ) :  -0.1322 B(  1-C ,  4-C ) :   0.6674 B(  1-C ,  6-H ) :  -0.1367
B(  1-C ,  8-H ) :   1.0405 B(  1-C ,  9-H ) :   0.2010 B(  1-C , 10-C ) :   0.1285
B(  1-C , 18-C ) :   0.1511 B(  1-C , 38-B ) :   0.4099 B(  1-C , 42-C ) :   0.1003
B(  2-C ,  7-H ) :   1.0099 B(  2-C , 10-C ) :   0.1421 B(  2-C , 13-C ) :   0.8297
B(  2-C , 15-H ) :  -0.1845 B(  2-C , 16-C ) :   0.8188 B(  2-C , 18-C ) :   0.1050
B(  2-C , 23-C ) :   1.1561 B(  2-C , 34-C ) :   0.1254 B(  2-C , 38-B ) :   0.2030
B(  4-C ,  5-H ) :   1.2874 B(  4-C ,  6-H ) :   1.1324 B(  4-C ,  8-H ) :  -0.2320
B(  4-C , 10-C ) :   0.7288 B(  5-H , 38-B ) :  -0.1181 B(  7-H , 16-C ) :  -0.3293
B(  7-H , 23-C ) :  -0.2830 B(  7-H , 25-Si) :   0.2216 B(  8-H , 23-C ) :  -0.1572
B(  8-H , 25-Si) :   0.1302 B(  8-H , 38-B ) :  -0.5177 B(  8-H , 39-C ) :   0.1201
B(  9-H , 38-B ) :   0.5268 B(  9-H , 40-C ) :   0.1050 B(  9-H , 41-H ) :   0.1940
B( 10-C , 11-H ) :   0.7565 B( 10-C , 12-H ) :   1.3313 B( 10-C , 13-C ) :   0.7928
B( 10-C , 15-H ) :  -0.1033 B( 12-H , 38-B ) :  -0.1150 B( 13-C , 14-H ) :   1.0739
B( 13-C , 15-H ) :   1.0321 B( 13-C , 25-Si) :  -0.1031 B( 13-C , 38-B ) :  -0.1588
B( 14-H , 15-H ) :   0.1084 B( 16-C , 17-H ) :   1.1487 B( 16-C , 18-C ) :   0.7774
B( 16-C , 19-H ) :   0.1233 B( 16-C , 21-H ) :   1.3715 B( 16-C , 23-C ) :   0.1432
B( 16-C , 25-Si) :  -0.1068 B( 16-C , 38-B ) :  -0.1378 B( 17-H , 18-C ) :  -0.1115
B( 18-C , 19-H ) :   1.2664 B( 18-C , 20-H ) :   0.7725 B( 19-H , 23-C ) :  -0.1131
B( 23-C , 24-H ) :   0.8338 B( 23-C , 25-Si) :   0.5590 B( 23-C , 38-B ) :   1.0119
B( 23-C , 39-C ) :  -0.2174 B( 23-C , 40-C ) :   0.1288 B( 23-C , 42-C ) :  -0.1582
B( 24-H , 25-Si) :  -0.4844 B( 24-H , 38-B ) :  -0.5495 B( 25-Si, 26-C ) :  -0.2399
B( 25-Si, 28-H ) :  -0.2166 B( 25-Si, 30-C ) :  -0.3306 B( 25-Si, 31-H ) :  -0.1621
B( 25-Si, 32-H ) :  -0.1033 B( 25-Si, 34-C ) :  -1.0247 B( 25-Si, 35-H ) :  -0.1744
B( 25-Si, 36-H ) :  -0.1509 B( 25-Si, 38-B ) :   0.3936 B( 26-C , 27-H ) :   1.1270
B( 26-C , 28-H ) :   1.2623 B( 26-C , 29-H ) :   0.9429 B( 26-C , 30-C ) :   0.2407
B( 26-C , 34-C ) :   0.1131 B( 26-C , 38-B ) :   0.2221 B( 29-H , 38-B ) :  -0.1139
B( 30-C , 31-H ) :   1.3005 B( 30-C , 32-H ) :   1.1710 B( 30-C , 33-H ) :   0.8962
B( 30-C , 34-C ) :   0.1014 B( 34-C , 35-H ) :   1.2246 B( 34-C , 36-H ) :   1.2971
B( 34-C , 37-H ) :   1.0552 B( 38-B , 39-C ) :   0.4831 B( 38-B , 41-H ) :  -0.1615
B( 38-B , 43-H ) :  -0.1352 B( 38-B , 44-H ) :  -0.1487 B( 38-B , 45-C ) :   0.2906
B( 39-C , 40-C ) :   0.1972 B( 39-C , 41-H ) :  -0.6594 B( 39-C , 42-C ) :   1.2184
B( 39-C , 43-H ) :  -0.1697 B( 39-C , 44-H ) :  -0.1655 B( 39-C , 45-C ) :   0.2447
B( 39-C , 47-O ) :   0.1467 B( 40-C , 41-H ) :   2.2273 B( 40-C , 42-C ) :  -0.8937
B( 40-C , 45-C ) :  -0.3326 B( 40-C , 46-O ) :  -0.2513 B( 40-C , 47-O ) :  -0.3110
B( 41-H , 45-C ) :  -0.3673 B( 42-C , 43-H ) :   0.9177 B( 42-C , 44-H ) :   1.0276
B( 42-C , 45-C ) :   0.1459 B( 45-C , 46-O ) :   1.3075 B( 45-C , 47-O ) :   1.0844
B( 45-C , 48-C ) :  -0.1374 B( 47-O , 48-C ) :   0.8764 B( 48-C , 49-H ) :   0.8554
B( 48-C , 50-H ) :   0.9260 B( 48-C , 51-H ) :   0.8639

MP2 TOTAL ENERGY:    -1129.062417087 Eh
FINAL SINGLE POINT ENERGY     -1129.062417086778

DIPOLE MOMENT
-------------
                                X             Y             Z
Electronic contribution:    -19.53675      -3.92450      -2.23451
Nuclear contribution   :     18.69372       3.92808       2.41541
                        -----------------------------------------
Total Dipole Moment    :     -0.84303       0.00358       0.18090
                        -----------------------------------------
Magnitude (a.u.)       :      0.86223
Magnitude (Debye)      :      2.19162

Rotational constants in cm-1:     0.012769     0.006023     0.004972
Rotational constants in MHz :   382.809613   180.557711   149.049950

                             ****ORCA TERMINATED NORMALLY****
TOTAL RUN TIME: 0 days 1 hours 55 minutes 19 seconds 821 msec
