                         Program Version 4.2.1 -  RELEASE  -
|  1> %pal
|  2>  nprocs 32
|  3> end
|  4> !RI-MP2 aug-cc-pVTZ aug-cc-pVTZ/C TightSCF
|  5> %maxcore 4500
|  6> *xyzfile 0 1  09_13R2.xyz
|  7>
|  8>
|  9>                          ****END OF INPUT****

CARTESIAN COORDINATES (ANGSTROEM)
---------------------------------
  N      0.019836    1.048464    0.035810
  C      1.367835    0.661517   -0.218113
  C      1.632344   -0.640758   -0.076742
  S      0.197539   -1.555506    0.468495
  C     -0.792631   -0.114729    0.097635
  C      2.327683    1.735131   -0.614929
  H      1.921033    2.313550   -1.447668
  H      3.284377    1.317200   -0.921663
  H      2.520632    2.428830    0.207488
  C      2.902313   -1.390876   -0.290455
  H      3.728144   -0.717223   -0.515619
  H      2.809169   -2.104658   -1.113028
  H      3.169308   -1.958102    0.605624
  C     -0.144824    1.995338    1.143601
  H      0.211480    1.581459    2.095745
  H     -1.197538    2.250879    1.244763
  H      0.403558    2.911853    0.927147
  C     -2.085548   -0.170413   -0.222796
  C     -2.905346    0.996736   -0.644932
  H     -3.593682    1.309725    0.145564
  H     -3.506495    0.717717   -1.512686
  H     -2.262298    1.835521   -0.907854
  O     -2.800318   -1.335366   -0.182499
  H     -2.195566   -2.086657   -0.134039

 Total Charge           Charge          ....    0
 Multiplicity           Mult            ....    1
 Number of Electrons    NEL             ....   92
 Basis Dimension        Dim             ....  809

ORBITAL ENERGIES
----------------

  NO   OCC          E(Eh)            E(eV)
   0   2.0000     -91.959593     -2502.3477
   1   2.0000     -20.579629      -560.0002
   2   2.0000     -15.574618      -423.8069
   3   2.0000     -11.289603      -307.2057
   4   2.0000     -11.270735      -306.6923
   5   2.0000     -11.268762      -306.6386
   6   2.0000     -11.256608      -306.3079
   7   2.0000     -11.255565      -306.2795
   8   2.0000     -11.233702      -305.6846
   9   2.0000     -11.232732      -305.6582
  10   2.0000     -11.222768      -305.3871
  11   2.0000      -8.960014      -243.8144
  12   2.0000      -6.641273      -180.7182
  13   2.0000      -6.640559      -180.6988
  14   2.0000      -6.639474      -180.6693
  15   2.0000      -1.395546       -37.9747
  16   2.0000      -1.273261       -34.6472
  17   2.0000      -1.094704       -29.7884
  18   2.0000      -1.063847       -28.9487
  19   2.0000      -1.011236       -27.5171
  20   2.0000      -0.982797       -26.7433
  21   2.0000      -0.928847       -25.2752
  22   2.0000      -0.917344       -24.9622
  23   2.0000      -0.846161       -23.0252
  24   2.0000      -0.774049       -21.0629
  25   2.0000      -0.731238       -19.8980
  26   2.0000      -0.684701       -18.6317
  27   2.0000      -0.639334       -17.3972
  28   2.0000      -0.623961       -16.9788
  29   2.0000      -0.609178       -16.5766
  30   2.0000      -0.603786       -16.4298
  31   2.0000      -0.587429       -15.9847
  32   2.0000      -0.580777       -15.8037
  33   2.0000      -0.578890       -15.7524
  34   2.0000      -0.567309       -15.4373
  35   2.0000      -0.551947       -15.0193
  36   2.0000      -0.549418       -14.9504
  37   2.0000      -0.546088       -14.8598
  38   2.0000      -0.527409       -14.3515
  39   2.0000      -0.518638       -14.1129
  40   2.0000      -0.495161       -13.4740
  41   2.0000      -0.467401       -12.7186
  42   2.0000      -0.456950       -12.4343
  43   2.0000      -0.382844       -10.4177
  44   2.0000      -0.352245        -9.5851
  45   2.0000      -0.266971        -7.2647
  46   0.0000       0.026680         0.7260
  47   0.0000       0.030941         0.8420
  48   0.0000       0.034878         0.9491
  49   0.0000       0.037329         1.0158
  50   0.0000       0.046899         1.2762

MULLIKEN ATOMIC CHARGES
-----------------------
   0 N :    0.312322
   1 C :   -0.251042
   2 C :    0.861528
   3 S :   -0.726835
   4 C :    0.349503
   5 C :   -0.996340
   6 H :    0.208863
   7 H :    0.363138
   8 H :    0.193805
   9 C :   -1.000873
  10 H :    0.345187
  11 H :    0.264977
  12 H :    0.230799
  13 C :   -1.010233
  14 H :    0.307479
  15 H :    0.372230
  16 H :    0.318591
  17 C :    0.407341
  18 C :   -0.907985
  19 H :    0.298151
  20 H :    0.251819
  21 H :    0.373713
  22 O :   -0.737860
  23 H :    0.171723
Sum of atomic charges:    0.0000000

LOEWDIN ATOMIC CHARGES
----------------------
   0 N :    0.179310
   1 C :   -0.303934
   2 C :   -0.446213
   3 S :    1.255617
   4 C :   -0.584361
   5 C :    0.589415
   6 H :   -0.155830
   7 H :   -0.188423
   8 H :   -0.169708
   9 C :    0.505141
  10 H :   -0.195676
  11 H :   -0.174910
  12 H :   -0.178256
  13 C :    0.478354
  14 H :   -0.142936
  15 H :   -0.175177
  16 H :   -0.173637
  17 C :   -0.435237
  18 C :    0.564349
  19 H :   -0.162628
  20 H :   -0.168936
  21 H :   -0.188598
  22 O :    0.823457
  23 H :   -0.551184

  Mayer bond orders larger than 0.100000
B(  0-N ,  1-C ) :   0.4419 B(  0-N ,  2-C ) :  -0.1012 B(  0-N ,  3-S ) :  -0.1146
B(  0-N ,  4-C ) :   0.8250 B(  0-N , 13-C ) :   0.8999 B(  0-N , 17-C ) :  -0.1447
B(  1-C ,  2-C ) :   1.4417 B(  1-C ,  3-S ) :   0.3117 B(  1-C ,  4-C ) :   0.1470
B(  1-C ,  5-C ) :   0.7289 B(  2-C ,  3-S ) :   0.6038 B(  2-C ,  4-C ) :  -0.1940
B(  2-C ,  5-C ) :  -0.1238 B(  2-C ,  9-C ) :   0.5357 B(  2-C , 17-C ) :   0.1637
B(  3-S ,  4-C ) :   1.0066 B(  3-S , 17-C ) :  -0.2267 B(  4-C , 17-C ) :   1.5890
B(  4-C , 18-C ) :   0.2958 B(  4-C , 22-O ) :  -0.1892 B(  5-C ,  6-H ) :   1.0939
B(  5-C ,  7-H ) :   0.8748 B(  5-C ,  8-H ) :   1.1199 B(  9-C , 10-H ) :   0.8662
B(  9-C , 11-H ) :   1.0317 B(  9-C , 12-H ) :   1.0868 B( 13-C , 14-H ) :   0.9366
B( 13-C , 15-H ) :   0.8675 B( 13-C , 16-H ) :   0.9695 B( 17-C , 18-C ) :   0.5471
B( 17-C , 22-O ) :   0.7391 B( 17-C , 23-H ) :   0.1119 B( 18-C , 19-H ) :   0.9640
B( 18-C , 20-H ) :   1.0539 B( 18-C , 21-H ) :   0.8522 B( 22-O , 23-H ) :   1.0419

MP2 TOTAL ENERGY:     -839.474130365 Eh
FINAL SINGLE POINT ENERGY      -839.474130364799

DIPOLE MOMENT
-------------
                                X             Y             Z
Electronic contribution:     -4.46107      -9.18535       1.30496
Nuclear contribution   :      5.28867       9.92074      -1.35531
                        -----------------------------------------
Total Dipole Moment    :      0.82760       0.73539      -0.05034
                        -----------------------------------------
Magnitude (a.u.)       :      1.10827
Magnitude (Debye)      :      2.81699

Rotational constants in cm-1:     0.048322     0.025970     0.018775
Rotational constants in MHz :  1448.654785   778.554877   562.854933

                             ****ORCA TERMINATED NORMALLY****
TOTAL RUN TIME: 0 days 0 hours 9 minutes 30 seconds 542 msec
