                         Program Version 4.2.1 -  RELEASE  -
|  1> %pal
|  2>  nprocs 32
|  3> end
|  4> !RI-MP2 aug-cc-pVTZ aug-cc-pVTZ/C TightSCF
|  5> %maxcore 4500
|  6> *xyzfile 0 2  04_17TS.xyz
|  7>
|  8>
|  9>                          ****END OF INPUT****

CARTESIAN COORDINATES (ANGSTROEM)
---------------------------------
  N      1.762185   -0.464392    1.058765
  H      1.462405   -0.497280    2.021498
  C      0.756336   -0.449213    0.000495
  H      1.197992   -0.960905   -0.855250
  C     -0.488677   -1.203269    0.445299
  C      0.494814    1.010126   -0.402890
  H     -0.185339   -2.174124    0.839964
  H     -1.006247   -0.671926    1.252842
  S     -1.679780   -1.481101   -0.884872
  O     -0.433607    1.675469    0.043520
  H     -2.624486   -0.252108   -0.469721
  N      1.401294    1.517311   -1.246296
  H      2.246960    0.998975   -1.452285
  H      1.342682    2.497525   -1.476435
  C      3.084074   -0.403159    0.784002
  H      3.721673   -0.475902    1.677874
  O      3.540264   -0.280845   -0.335885
  O     -3.294489    0.519918    0.093306
  O     -2.645451    0.929112    1.212988
  H     -1.836509    1.386806    0.859318

 Total Charge           Charge          ....    0
 Multiplicity           Mult            ....    2
 Number of Electrons    NEL             ....   95
 Basis Dimension        Dim             ....  717

ORBITAL ENERGIES
----------------
                 SPIN UP ORBITALS
  NO   OCC          E(Eh)            E(eV)
   0   1.0000     -91.969606     -2502.6202
   1   1.0000     -20.664195      -562.3013
   2   1.0000     -20.622892      -561.1774
   3   1.0000     -20.560846      -559.4891
   4   1.0000     -20.554902      -559.3273
   5   1.0000     -15.629961      -425.3129
   6   1.0000     -15.603759      -424.5999
   7   1.0000     -11.384593      -309.7905
   8   1.0000     -11.384553      -309.7894
   9   1.0000     -11.316784      -307.9453
  10   1.0000     -11.284114      -307.0564
  11   1.0000      -8.970179      -244.0910
  12   1.0000      -6.660920      -181.2528
  13   1.0000      -6.648526      -180.9156
  14   1.0000      -6.647228      -180.8803
  15   1.0000      -1.529408       -41.6173
  16   1.0000      -1.425968       -38.8025
  17   1.0000      -1.416673       -38.5496
  18   1.0000      -1.280619       -34.8474
  19   1.0000      -1.239587       -33.7309
  20   1.0000      -1.193682       -32.4817
  21   1.0000      -1.100623       -29.9495
  22   1.0000      -0.995337       -27.0845
  23   1.0000      -0.885922       -24.1072
  24   1.0000      -0.858577       -23.3631
  25   1.0000      -0.821258       -22.3476
  26   1.0000      -0.785788       -21.3824
  27   1.0000      -0.761589       -20.7239
  28   1.0000      -0.749824       -20.4037
  29   1.0000      -0.727710       -19.8020
  30   1.0000      -0.703370       -19.1397
  31   1.0000      -0.690792       -18.7974
  32   1.0000      -0.646656       -17.5964
  33   1.0000      -0.642368       -17.4797
  34   1.0000      -0.638282       -17.3685
  35   1.0000      -0.610911       -16.6237
  36   1.0000      -0.586678       -15.9643
  37   1.0000      -0.582288       -15.8449
  38   1.0000      -0.561116       -15.2687
  39   1.0000      -0.539410       -14.6781
  40   1.0000      -0.508220       -13.8294
  41   1.0000      -0.487350       -13.2615
  42   1.0000      -0.478144       -13.0109
  43   1.0000      -0.465408       -12.6644
  44   1.0000      -0.444544       -12.0967
  45   1.0000      -0.428185       -11.6515
  46   1.0000      -0.417591       -11.3632
  47   1.0000      -0.374271       -10.1844
  48   0.0000       0.016225         0.4415
  49   0.0000       0.029149         0.7932
  50   0.0000       0.035080         0.9546
  51   0.0000       0.038471         1.0469
  52   0.0000       0.053384         1.4527

                 SPIN DOWN ORBITALS
  NO   OCC          E(Eh)            E(eV)
   0   1.0000     -91.963605     -2502.4569
   1   1.0000     -20.637007      -561.5615
   2   1.0000     -20.618841      -561.0672
   3   1.0000     -20.560829      -559.4886
   4   1.0000     -20.554889      -559.3270
   5   1.0000     -15.629975      -425.3132
   6   1.0000     -15.603765      -424.6000
   7   1.0000     -11.384602      -309.7908
   8   1.0000     -11.384577      -309.7901
   9   1.0000     -11.316715      -307.9435
  10   1.0000     -11.284532      -307.0677
  11   1.0000      -8.963728      -243.9154
  12   1.0000      -6.645718      -180.8392
  13   1.0000      -6.643813      -180.7873
  14   1.0000      -6.633566      -180.5085
  15   1.0000      -1.484618       -40.3985
  16   1.0000      -1.425841       -38.7991
  17   1.0000      -1.416389       -38.5419
  18   1.0000      -1.280556       -34.8457
  19   1.0000      -1.239366       -33.7249
  20   1.0000      -1.137249       -30.9461
  21   1.0000      -1.092042       -29.7160
  22   1.0000      -0.975763       -26.5519
  23   1.0000      -0.876665       -23.8553
  24   1.0000      -0.838383       -22.8136
  25   1.0000      -0.820373       -22.3235
  26   1.0000      -0.775382       -21.0992
  27   1.0000      -0.747686       -20.3456
  28   1.0000      -0.739831       -20.1318
  29   1.0000      -0.715094       -19.4587
  30   1.0000      -0.689553       -18.7637
  31   1.0000      -0.649211       -17.6659
  32   1.0000      -0.642849       -17.4928
  33   1.0000      -0.639079       -17.3902
  34   1.0000      -0.613333       -16.6896
  35   1.0000      -0.588239       -16.0068
  36   1.0000      -0.581558       -15.8250
  37   1.0000      -0.578909       -15.7529
  38   1.0000      -0.549115       -14.9422
  39   1.0000      -0.508340       -13.8326
  40   1.0000      -0.493932       -13.4406
  41   1.0000      -0.475259       -12.9324
  42   1.0000      -0.463136       -12.6026
  43   1.0000      -0.444200       -12.0873
  44   1.0000      -0.427174       -11.6240
  45   1.0000      -0.411071       -11.1858
  46   1.0000      -0.363015        -9.8781
  47   0.0000       0.004076         0.1109
  48   0.0000       0.016273         0.4428
  49   0.0000       0.029167         0.7937
  50   0.0000       0.036071         0.9815
  51   0.0000       0.038532         1.0485

MULLIKEN ATOMIC CHARGES AND SPIN POPULATIONS
--------------------------------------------
   0 N :   -0.221204    0.000409
   1 H :    0.062941    0.000055
   2 C :    0.751420    0.005326
   3 H :    0.377528    0.000118
   4 C :   -0.412378   -0.068389
   5 C :    0.743769   -0.006560
   6 H :    0.311407    0.007112
   7 H :    0.359746    0.026234
   8 S :   -0.476797    0.750523
   9 O :   -0.838506    0.002319
  10 H :    0.326445   -0.388567
  11 N :   -0.595248    0.001249
  12 H :    0.161822   -0.000075
  13 H :    0.130890   -0.000140
  14 C :   -0.270492   -0.000591
  15 H :    0.641289   -0.000086
  16 O :   -0.766686    0.000425
  17 O :   -0.258096    0.658975
  18 O :   -0.393088    0.014739
  19 H :    0.365240   -0.003078
Sum of atomic charges         :    0.0000000

LOEWDIN ATOMIC CHARGES AND SPIN POPULATIONS
-------------------------------------------
   0 N :    0.546792    0.000207
   1 H :   -0.269413   -0.000005
   2 C :   -0.183787    0.003549
   3 H :   -0.174840    0.002003
   4 C :   -0.133057    0.065885
   5 C :   -0.597513   -0.000718
   6 H :   -0.220311    0.007693
   7 H :   -0.264232    0.005212
   8 S :    1.243704    0.371209
   9 O :    0.572055   -0.000460
  10 H :   -0.927843    0.020712
  11 N :    0.879259   -0.000198
  12 H :   -0.373364   -0.000025
  13 H :   -0.265538   -0.000032
  14 C :   -0.330664   -0.000042
  15 H :   -0.163873   -0.000033
  16 O :    0.456306    0.000263
  17 O :    0.458980    0.451423
  18 O :    0.550969    0.079470
  19 H :   -0.803628   -0.006111

  Mayer bond orders larger than 0.100000
B(  0-N ,  1-H ) :   1.0437 B(  0-N ,  2-C ) :   0.6841 B(  0-N ,  5-C ) :   0.2147
B(  0-N , 14-C ) :   1.2507 B(  2-C ,  3-H ) :   0.9409 B(  2-C ,  4-C ) :   0.9027
B(  2-C ,  5-C ) :   0.2718 B(  2-C ,  9-O ) :   0.1486 B(  2-C , 11-N ) :  -0.1140
B(  4-C ,  6-H ) :   0.9066 B(  4-C ,  7-H ) :   0.9449 B(  4-C ,  8-S ) :   0.8889
B(  5-C ,  9-O ) :   0.9987 B(  5-C , 11-N ) :   0.9301 B(  7-H ,  8-S ) :   0.1068
B(  7-H , 18-O ) :  -0.1391 B(  8-S , 10-H ) :   0.3081 B( 10-H , 17-O ) :   0.3996
B( 11-N , 12-H ) :   1.0794 B( 11-N , 13-H ) :   1.0587 B( 14-C , 15-H ) :   0.5266
B( 14-C , 16-O ) :   1.6696 B( 17-O , 18-O ) :   0.7830 B( 18-O , 19-H ) :   0.7882

MP2 TOTAL ENERGY:     -964.922269886 Eh
FINAL SINGLE POINT ENERGY      -964.922269885984

DIPOLE MOMENT
-------------
                                X             Y             Z
Electronic contribution:     -2.48158      -0.12145      -1.62586
Nuclear contribution   :      4.27846      -0.05143       2.40270
                        -----------------------------------------
Total Dipole Moment    :      1.79689      -0.17288       0.77684
                        -----------------------------------------
Magnitude (a.u.)       :      1.96524
Magnitude (Debye)      :      4.99525

Rotational constants in cm-1:     0.050339     0.018169     0.016308
Rotational constants in MHz :  1509.117672   544.704508   488.912533

                             ****ORCA TERMINATED NORMALLY****
TOTAL RUN TIME: 0 days 0 hours 17 minutes 12 seconds 286 msec
