                         Program Version 4.2.1 -  RELEASE  -
|  1> %pal
|  2>  nprocs 32
|  3> end
|  4> !RI-MP2 aug-cc-pVTZ aug-cc-pVTZ/C TightSCF
|  5> %maxcore 4500
|  6> *xyzfile 0 2  01_29R.xyz
|  7>
|  8>
|  9>                          ****END OF INPUT****

CARTESIAN COORDINATES (ANGSTROEM)
---------------------------------
  C      0.469259   -1.205499   -0.593194
  C      1.707036   -1.529221    0.150789
  C      2.894487   -0.608781   -0.174748
  H      2.002325   -2.558481   -0.094295
  H      1.495017   -1.504358    1.221705
  C      2.710802    0.832607    0.311076
  H      3.078661   -0.612201   -1.254777
  H      3.789673   -1.027828    0.292081
  C      1.662141    1.599953   -0.435676
  H      3.668088    1.353990    0.198330
  H      2.475136    0.833866    1.379485
  C      0.618821    2.204233    0.115362
  C     -0.770405   -0.909754    0.085991
  O     -1.770926   -0.653033   -0.785121
  C     -3.046258   -0.311454   -0.220303
  H      0.467936   -1.174852   -1.676140
  O     -0.917066   -0.886757    1.291162
  C     -3.113600    1.155809    0.147997
  H     -2.901341    1.781160   -0.720997
  H     -2.396935    1.387999    0.935549
  H     -4.114435    1.400251    0.511437
  H     -3.227969   -0.943369    0.649259
  H     -3.763943   -0.558483   -1.001716
  H     -0.098316    2.753904   -0.481921
  H      0.438385    2.156976    1.184143
  H      1.797943    1.662397   -1.514234

 Total Charge           Charge          ....    0
 Multiplicity           Mult            ....    2
 Number of Electrons    NEL             ....   85
 Basis Dimension        Dim             ....  851

ORBITAL ENERGIES
----------------
                 SPIN UP ORBITALS
  NO   OCC          E(Eh)            E(eV)
   0   1.0000     -20.588366      -560.2379
   1   1.0000     -20.540832      -558.9445
   2   1.0000     -11.363060      -309.2046
   3   1.0000     -11.280501      -306.9580
   4   1.0000     -11.255878      -306.2880
   5   1.0000     -11.231245      -305.6177
   6   1.0000     -11.228577      -305.5451
   7   1.0000     -11.228209      -305.5351
   8   1.0000     -11.227237      -305.5087
   9   1.0000     -11.219109      -305.2875
  10   1.0000     -11.215499      -305.1892
  11   1.0000      -1.450757       -39.4771
  12   1.0000      -1.355906       -36.8961
  13   1.0000      -1.113144       -30.2902
  14   1.0000      -1.067728       -29.0543
  15   1.0000      -1.032060       -28.0838
  16   1.0000      -0.995906       -27.1000
  17   1.0000      -0.919887       -25.0314
  18   1.0000      -0.864388       -23.5212
  19   1.0000      -0.808352       -21.9964
  20   1.0000      -0.757005       -20.5992
  21   1.0000      -0.751064       -20.4375
  22   1.0000      -0.708805       -19.2876
  23   1.0000      -0.676853       -18.4181
  24   1.0000      -0.653068       -17.7709
  25   1.0000      -0.637027       -17.3344
  26   1.0000      -0.625949       -17.0329
  27   1.0000      -0.618937       -16.8421
  28   1.0000      -0.607699       -16.5363
  29   1.0000      -0.571130       -15.5412
  30   1.0000      -0.566282       -15.4093
  31   1.0000      -0.548872       -14.9356
  32   1.0000      -0.540605       -14.7106
  33   1.0000      -0.523067       -14.2334
  34   1.0000      -0.508621       -13.8403
  35   1.0000      -0.507550       -13.8111
  36   1.0000      -0.489273       -13.3138
  37   1.0000      -0.479096       -13.0369
  38   1.0000      -0.475572       -12.9410
  39   1.0000      -0.464666       -12.6442
  40   1.0000      -0.451798       -12.2940
  41   1.0000      -0.392319       -10.6755
  42   1.0000      -0.344624        -9.3777
  43   0.0000       0.027489         0.7480
  44   0.0000       0.031597         0.8598
  45   0.0000       0.035206         0.9580
  46   0.0000       0.036638         0.9970
  47   0.0000       0.045080         1.2267

                 SPIN DOWN ORBITALS
  NO   OCC          E(Eh)            E(eV)
   0   1.0000     -20.587970      -560.2272
   1   1.0000     -20.530794      -558.6713
   2   1.0000     -11.368091      -309.3415
   3   1.0000     -11.280611      -306.9610
   4   1.0000     -11.234551      -305.7077
   5   1.0000     -11.232863      -305.6617
   6   1.0000     -11.231008      -305.6113
   7   1.0000     -11.229847      -305.5797
   8   1.0000     -11.226827      -305.4975
   9   1.0000     -11.215417      -305.1870
  10   1.0000     -11.214311      -305.1569
  11   1.0000      -1.445272       -39.3278
  12   1.0000      -1.339251       -36.4429
  13   1.0000      -1.102409       -29.9981
  14   1.0000      -1.049825       -28.5672
  15   1.0000      -1.031427       -28.0666
  16   1.0000      -0.972961       -26.4756
  17   1.0000      -0.911326       -24.7985
  18   1.0000      -0.854614       -23.2552
  19   1.0000      -0.802315       -21.8321
  20   1.0000      -0.758151       -20.6303
  21   1.0000      -0.743516       -20.2321
  22   1.0000      -0.698799       -19.0153
  23   1.0000      -0.669069       -18.2063
  24   1.0000      -0.639648       -17.4057
  25   1.0000      -0.634597       -17.2683
  26   1.0000      -0.620779       -16.8923
  27   1.0000      -0.614559       -16.7230
  28   1.0000      -0.602925       -16.4064
  29   1.0000      -0.563125       -15.3234
  30   1.0000      -0.562019       -15.2933
  31   1.0000      -0.541407       -14.7324
  32   1.0000      -0.522946       -14.2301
  33   1.0000      -0.518520       -14.1096
  34   1.0000      -0.503594       -13.7035
  35   1.0000      -0.496456       -13.5092
  36   1.0000      -0.488070       -13.2811
  37   1.0000      -0.478125       -13.0104
  38   1.0000      -0.473607       -12.8875
  39   1.0000      -0.441744       -12.0205
  40   1.0000      -0.428583       -11.6623
  41   1.0000      -0.360720        -9.8157
  42   0.0000       0.027551         0.7497
  43   0.0000       0.031314         0.8521
  44   0.0000       0.035035         0.9534
  45   0.0000       0.036690         0.9984
  46   0.0000       0.045075         1.2265

MULLIKEN ATOMIC CHARGES AND SPIN POPULATIONS
--------------------------------------------
   0 C :   -0.206806    1.210816
   1 C :   -0.231292   -0.219253
   2 C :   -0.488570    0.053076
   3 H :    0.362162    0.073989
   4 H :    0.110188   -0.017751
   5 C :   -0.234995    0.029601
   6 H :    0.153058   -0.001563
   7 H :    0.277634   -0.002633
   8 C :   -0.047973   -0.250844
   9 H :    0.327898   -0.012937
  10 H :    0.116512    0.004566
  11 C :   -1.027784    0.254604
  12 C :    0.992363   -0.176558
  13 O :   -0.537513    0.022830
  14 C :   -0.270522   -0.009230
  15 H :    0.226996   -0.177278
  16 O :   -1.059630    0.229506
  17 C :   -0.932540    0.001109
  18 H :    0.253512    0.000627
  19 H :    0.374855   -0.000609
  20 H :    0.277778    0.000135
  21 H :    0.337476   -0.000265
  22 H :    0.346009   -0.000068
  23 H :    0.544438   -0.016352
  24 H :    0.204336   -0.026132
  25 H :    0.132409    0.030612
Sum of atomic charges         :   -0.0000000

LOEWDIN ATOMIC CHARGES AND SPIN POPULATIONS
-------------------------------------------
   0 C :    0.255786    0.482608
   1 C :    0.253442    0.095787
   2 C :    0.280883    0.017237
   3 H :   -0.142773    0.022745
   4 H :   -0.167520   -0.000850
   5 C :    0.254101   -0.014744
   6 H :   -0.144746    0.000869
   7 H :   -0.144482    0.002255
   8 C :    0.169397   -0.055249
   9 H :   -0.146481   -0.004030
  10 H :   -0.151182   -0.000181
  11 C :    0.515427    0.081311
  12 C :   -0.859631    0.090914
  13 O :    0.576115    0.000566
  14 C :    0.035415   -0.001562
  15 H :   -0.171270    0.094538
  16 O :    0.479460    0.162251
  17 C :    0.574289    0.000156
  18 H :   -0.172320    0.000144
  19 H :   -0.185249    0.000228
  20 H :   -0.169914    0.000143
  21 H :   -0.178459   -0.000782
  22 H :   -0.162232   -0.000164
  23 H :   -0.218433    0.021296
  24 H :   -0.206712    0.021066
  25 H :   -0.172911   -0.016551

  Mayer bond orders larger than 0.100000
B(  0-C ,  1-C ) :   0.7078 B(  0-C , 12-C ) :   0.7516 B(  0-C , 15-H ) :   1.0946
B(  0-C , 16-O ) :  -0.1688 B(  1-C ,  2-C ) :   0.8923 B(  1-C ,  3-H ) :   0.8915
B(  1-C ,  4-H ) :   1.0292 B(  1-C , 12-C ) :   0.1401 B(  2-C ,  5-C ) :   0.9189
B(  2-C ,  6-H ) :   1.0269 B(  2-C ,  7-H ) :   0.9719 B(  2-C ,  8-C ) :   0.1007
B(  5-C ,  8-C ) :   0.7909 B(  5-C ,  9-H ) :   0.9164 B(  5-C , 10-H ) :   1.0188
B(  8-C , 10-H ) :   0.1026 B(  8-C , 11-C ) :   1.2602 B(  8-C , 25-H ) :   1.1369
B( 11-C , 23-H ) :   0.5643 B( 11-C , 24-H ) :   1.1953 B( 11-C , 25-H ) :   0.1038
B( 12-C , 13-O ) :   0.8611 B( 12-C , 16-O ) :   1.1189 B( 13-O , 14-C ) :   0.7681
B( 14-C , 17-C ) :   0.9170 B( 14-C , 21-H ) :   0.9109 B( 14-C , 22-H ) :   0.8886
B( 17-C , 18-H ) :   0.9455 B( 17-C , 19-H ) :   0.8583 B( 17-C , 20-H ) :   0.9623

MP2 TOTAL ENERGY:     -501.397261077 Eh
FINAL SINGLE POINT ENERGY      -501.397261076688

DIPOLE MOMENT
-------------
                                X             Y             Z
Electronic contribution:     -2.50633      -5.03134      -0.27696
Nuclear contribution   :      2.74381       5.06696      -0.37448
                        -----------------------------------------
Total Dipole Moment    :      0.23749       0.03563      -0.65144
                        -----------------------------------------
Magnitude (a.u.)       :      0.69429
Magnitude (Debye)      :      1.76475

Rotational constants in cm-1:     0.057694     0.022964     0.018641
Rotational constants in MHz :  1729.628450   688.448021   558.830814

                             ****ORCA TERMINATED NORMALLY****
TOTAL RUN TIME: 0 days 0 hours 28 minutes 29 seconds 62 msec
