                         Program Version 4.2.1 -  RELEASE  -
|  1> %pal
|  2>  nprocs 32
|  3> end
|  4> !RI-MP2 aug-cc-pVTZ aug-cc-pVTZ/C TightSCF
|  5> %maxcore 4500
|  6> *xyzfile 0 1  08_8R2.xyz
|  7>
|  8>
|  9>                          ****END OF INPUT****

CARTESIAN COORDINATES (ANGSTROEM)
---------------------------------
  N     -1.960562    0.013542    0.000007
  C     -0.723191   -0.726092   -0.000052
  C      0.539861    0.111644   -0.000002
  H     -0.679366   -1.385850   -0.870549
  H     -0.679364   -1.385983    0.870341
  O      0.584111    1.310901    0.000020
  O      1.643727   -0.659690    0.000008
  H      2.412694   -0.072509    0.000026
  H     -2.026327    0.613421   -0.813304
  H     -2.026430    0.613122    0.813530

 Total Charge           Charge          ....    0
 Multiplicity           Mult            ....    1
 Number of Electrons    NEL             ....   40
 Basis Dimension        Dim             ....  345

ORBITAL ENERGIES
----------------

  NO   OCC          E(Eh)            E(eV)
   0   2.0000     -20.618778      -561.0655
   1   2.0000     -20.555815      -559.3522
   2   2.0000     -15.553220      -423.2246
   3   2.0000     -11.386481      -309.8419
   4   2.0000     -11.279127      -306.9206
   5   2.0000      -1.474404       -40.1206
   6   2.0000      -1.370874       -37.3034
   7   2.0000      -1.198235       -32.6056
   8   2.0000      -0.980032       -26.6680
   9   2.0000      -0.819489       -22.2994
  10   2.0000      -0.711510       -19.3612
  11   2.0000      -0.701922       -19.1003
  12   2.0000      -0.697724       -18.9860
  13   2.0000      -0.632910       -17.2224
  14   2.0000      -0.604576       -16.4513
  15   2.0000      -0.589798       -16.0492
  16   2.0000      -0.536791       -14.6068
  17   2.0000      -0.491737       -13.3808
  18   2.0000      -0.468794       -12.7565
  19   2.0000      -0.411589       -11.1999
  20   0.0000       0.027542         0.7494
  21   0.0000       0.038440         1.0460
  22   0.0000       0.041447         1.1278
  23   0.0000       0.046401         1.2626
  24   0.0000       0.067136         1.8269

MULLIKEN ATOMIC CHARGES
-----------------------
   0 N :   -0.578702
   1 C :    0.100392
   2 C :    0.413851
   3 H :    0.332754
   4 H :    0.332762
   5 O :   -0.711868
   6 O :   -0.401350
   7 H :    0.255096
   8 H :    0.128535
   9 H :    0.128531
Sum of atomic charges:    0.0000000

LOEWDIN ATOMIC CHARGES
----------------------
   0 N :    0.827083
   1 C :    0.128767
   2 C :   -0.796838
   3 H :   -0.157899
   4 H :   -0.157901
   5 O :    0.444610
   6 O :    0.827825
   7 H :   -0.471358
   8 H :   -0.322147
   9 H :   -0.322142

  Mayer bond orders larger than 0.100000
B(  0-N ,  1-C ) :   0.7689 B(  0-N ,  8-H ) :   0.9776 B(  0-N ,  9-H ) :   0.9776
B(  1-C ,  2-C ) :   0.6165 B(  1-C ,  3-H ) :   0.9126 B(  1-C ,  4-H ) :   0.9126
B(  2-C ,  5-O ) :   1.5570 B(  2-C ,  6-O ) :   1.0169 B(  6-O ,  7-H ) :   0.9415

MP2 TOTAL ENERGY:     -283.981020655 Eh
FINAL SINGLE POINT ENERGY      -283.981020655395

DIPOLE MOMENT
-------------
                                X             Y             Z
Electronic contribution:      3.32103       1.25397       0.00003
Nuclear contribution   :     -2.97740      -1.60865       0.00005
                        -----------------------------------------
Total Dipole Moment    :      0.34363      -0.35468       0.00008
                        -----------------------------------------
Magnitude (a.u.)       :      0.49385
Magnitude (Debye)      :      1.25526

Rotational constants in cm-1:     0.348315     0.129539     0.097550
Rotational constants in MHz : 10442.207251  3883.492915  2924.474616

                             ****ORCA TERMINATED NORMALLY****
TOTAL RUN TIME: 0 days 0 hours 0 minutes 37 seconds 70 msec
