                         Program Version 4.2.1 -  RELEASE  -
|  1> %pal
|  2>  nprocs 32
|  3> end
|  4> !RI-MP2 aug-cc-pVTZ aug-cc-pVTZ/C TightSCF
|  5> %maxcore 4500
|  6> *xyzfile 0 1  02_27R.xyz
|  7>
|  8>
|  9>                          ****END OF INPUT****

CARTESIAN COORDINATES (ANGSTROEM)
---------------------------------
  C      2.421343   -1.133342   -0.423367
  C     -0.862605    0.665782    0.690163
  C      3.877571    2.204112    0.122938
  C      3.737982    0.880733    0.113401
  C      2.589472    0.187503   -0.452865
  C      1.233154   -1.859234   -0.972524
  C      0.432532   -2.596448    0.109166
  C     -0.164144   -1.664050    1.173642
  H      0.586535   -1.150287   -1.497272
  H      1.080696   -3.321528    0.610186
  H     -0.703536   -2.272825    1.907705
  H      1.564722   -2.592397   -1.715497
  H     -0.363051   -3.176328   -0.367018
  H      0.640346   -1.152182    1.704617
  C     -2.337109   -1.166878   -0.097686
  H     -2.687306   -2.069657    0.411364
  H     -2.056601   -1.485385   -1.110242
  C     -2.914366    1.194372   -0.716166
  C     -1.109607   -0.646823    0.602654
  C     -1.714972    1.689011    0.064810
  O     -1.443138    2.870030    0.135067
  C     -3.448171   -0.125300   -0.171276
  H     -3.666925    1.983325   -0.719749
  H     -2.581988    1.063867   -1.753811
  H     -3.852395    0.035792    0.832898
  H     -4.270842   -0.489555   -0.790324
  H      0.019259    1.037526    1.199991
  H      3.185285   -1.747853    0.051974
  H      1.826209    0.810614   -0.913768
  H      4.745831    2.679883    0.560756
  H      3.121371    2.853689   -0.304757
  H      4.511008    0.256436    0.555070

 Total Charge           Charge          ....    0
 Multiplicity           Mult            ....    1
 Number of Electrons    NEL             ....  104
 Basis Dimension        Dim             .... 1058

ORBITAL ENERGIES
----------------

  NO   OCC          E(Eh)            E(eV)
   0   2.0000     -20.529707      -558.6417
   1   2.0000     -11.317591      -307.9673
   2   2.0000     -11.264181      -306.5139
   3   2.0000     -11.243974      -305.9641
   4   2.0000     -11.237855      -305.7976
   5   2.0000     -11.237672      -305.7926
   6   2.0000     -11.236856      -305.7704
   7   2.0000     -11.233923      -305.6906
   8   2.0000     -11.233559      -305.6807
   9   2.0000     -11.232789      -305.6597
  10   2.0000     -11.232078      -305.6404
  11   2.0000     -11.229174      -305.5613
  12   2.0000     -11.222491      -305.3795
  13   2.0000     -11.221934      -305.3644
  14   2.0000      -1.372721       -37.3536
  15   2.0000      -1.150242       -31.2997
  16   2.0000      -1.110073       -30.2066
  17   2.0000      -1.077253       -29.3136
  18   2.0000      -1.041300       -28.3352
  19   2.0000      -1.003378       -27.3033
  20   2.0000      -0.985475       -26.8161
  21   2.0000      -0.936222       -25.4759
  22   2.0000      -0.853681       -23.2298
  23   2.0000      -0.846986       -23.0477
  24   2.0000      -0.794745       -21.6261
  25   2.0000      -0.764428       -20.8011
  26   2.0000      -0.755083       -20.5469
  27   2.0000      -0.705748       -19.2044
  28   2.0000      -0.666548       -18.1377
  29   2.0000      -0.658698       -17.9241
  30   2.0000      -0.647175       -17.6105
  31   2.0000      -0.636052       -17.3079
  32   2.0000      -0.624771       -17.0009
  33   2.0000      -0.612388       -16.6639
  34   2.0000      -0.594906       -16.1882
  35   2.0000      -0.586118       -15.9491
  36   2.0000      -0.570063       -15.5122
  37   2.0000      -0.568748       -15.4764
  38   2.0000      -0.550479       -14.9793
  39   2.0000      -0.534811       -14.5530
  40   2.0000      -0.532253       -14.4833
  41   2.0000      -0.512987       -13.9591
  42   2.0000      -0.505192       -13.7470
  43   2.0000      -0.497102       -13.5268
  44   2.0000      -0.489706       -13.3256
  45   2.0000      -0.480075       -13.0635
  46   2.0000      -0.474444       -12.9103
  47   2.0000      -0.471454       -12.8289
  48   2.0000      -0.436315       -11.8727
  49   2.0000      -0.397595       -10.8191
  50   2.0000      -0.363198        -9.8831
  51   2.0000      -0.314899        -8.5688
  52   0.0000       0.021219         0.5774
  53   0.0000       0.027303         0.7430
  54   0.0000       0.030432         0.8281
  55   0.0000       0.033423         0.9095
  56   0.0000       0.040756         1.1090

MULLIKEN ATOMIC CHARGES
-----------------------
   0 C :   -0.575198
   1 C :   -0.919655
   2 C :   -1.125326
   3 C :   -0.072784
   4 C :    0.171553
   5 C :   -0.333550
   6 C :   -0.436783
   7 C :   -0.715862
   8 H :    0.102092
   9 H :    0.362499
  10 H :    0.295109
  11 H :    0.386970
  12 H :    0.110713
  13 H :    0.136299
  14 C :   -0.585741
  15 H :    0.323126
  16 H :    0.184303
  17 C :   -0.260203
  18 C :    1.277760
  19 C :    0.832273
  20 O :   -1.120031
  21 C :   -0.595164
  22 H :    0.327114
  23 H :    0.189867
  24 H :    0.198815
  25 H :    0.305146
  26 H :    0.148252
  27 H :    0.084956
  28 H :    0.246743
  29 H :    0.415742
  30 H :    0.315662
  31 H :    0.325305
Sum of atomic charges:   -0.0000000

LOEWDIN ATOMIC CHARGES
----------------------
   0 C :    0.216436
   1 C :    0.245773
   2 C :    0.523117
   3 C :    0.143519
   4 C :    0.174005
   5 C :    0.262904
   6 C :    0.292837
   7 C :    0.294952
   8 H :   -0.159979
   9 H :   -0.137520
  10 H :   -0.132635
  11 H :   -0.141273
  12 H :   -0.147170
  13 H :   -0.154995
  14 C :    0.286819
  15 H :   -0.134409
  16 H :   -0.132540
  17 C :    0.290293
  18 C :   -0.071594
  19 C :   -0.535509
  20 O :    0.457932
  21 C :    0.290053
  22 H :   -0.149666
  23 H :   -0.137314
  24 H :   -0.135822
  25 H :   -0.136244
  26 H :   -0.184616
  27 H :   -0.166834
  28 H :   -0.182696
  29 H :   -0.226179
  30 H :   -0.218404
  31 H :   -0.193237

  Mayer bond orders larger than 0.100000
B(  0-C ,  2-C ) :   0.1789 B(  0-C ,  4-C ) :   1.0022 B(  0-C ,  5-C ) :   0.7002
B(  0-C ,  8-H ) :   0.1615 B(  0-C , 11-H ) :  -0.2400 B(  0-C , 27-H ) :   1.4451
B(  1-C , 18-C ) :   1.0607 B(  1-C , 19-C ) :   0.9933 B(  1-C , 26-H ) :   1.1598
B(  2-C ,  3-C ) :   1.1155 B(  2-C ,  4-C ) :  -0.1461 B(  2-C , 29-H ) :   0.8151
B(  2-C , 30-H ) :   1.0616 B(  3-C ,  4-C ) :   0.4831 B(  3-C , 31-H ) :   1.0187
B(  4-C , 28-H ) :   1.1905 B(  5-C ,  6-C ) :   0.8963 B(  5-C ,  8-H ) :   1.1566
B(  5-C , 11-H ) :   0.8710 B(  6-C ,  7-C ) :   0.8918 B(  6-C ,  9-H ) :   0.8769
B(  6-C , 12-H ) :   1.0564 B(  7-C , 10-H ) :   0.9891 B(  7-C , 13-H ) :   1.1217
B(  7-C , 18-C ) :   0.6964 B( 10-H , 18-C ) :  -0.1451 B( 14-C , 15-H ) :   0.9655
B( 14-C , 16-H ) :   1.1103 B( 14-C , 17-C ) :   0.1011 B( 14-C , 18-C ) :   0.6304
B( 14-C , 21-C ) :   0.9424 B( 15-H , 18-C ) :  -0.1254 B( 17-C , 18-C ) :  -0.1636
B( 17-C , 19-C ) :   0.7453 B( 17-C , 21-C ) :   1.0044 B( 17-C , 22-H ) :   0.8777
B( 17-C , 23-H ) :   1.0176 B( 18-C , 19-C ) :   0.1758 B( 19-C , 20-O ) :   0.6504
B( 19-C , 26-H ) :  -0.1612 B( 20-O , 26-H ) :   0.1430 B( 21-C , 24-H ) :   1.0382
B( 21-C , 25-H ) :   0.9186

MP2 TOTAL ENERGY:     -580.202421865 Eh
FINAL SINGLE POINT ENERGY      -580.202421865091

DIPOLE MOMENT
-------------
                                X             Y             Z
Electronic contribution:     -1.45315       6.95618       1.25483
Nuclear contribution   :      1.10433      -8.92154      -1.37108
                        -----------------------------------------
Total Dipole Moment    :     -0.34882      -1.96536      -0.11625
                        -----------------------------------------
Magnitude (a.u.)       :      1.99946
Magnitude (Debye)      :      5.08222

Rotational constants in cm-1:     0.028644     0.014893     0.010689
Rotational constants in MHz :   858.731216   446.494225   320.462713

                             ****ORCA TERMINATED NORMALLY****
TOTAL RUN TIME: 0 days 0 hours 20 minutes 17 seconds 21 msec
