                         Program Version 4.2.1 -  RELEASE  -
|  1> %pal
|  2>  nprocs 32
|  3> end
|  4> !RI-MP2 aug-cc-pVTZ aug-cc-pVTZ/C TightSCF
|  5> %maxcore 4500
|  6> *xyzfile -1 1  09_9P.xyz
|  7>
|  8>
|  9>                          ****END OF INPUT****

CARTESIAN COORDINATES (ANGSTROEM)
---------------------------------
  C     -1.528527    1.612925    0.145291
  C     -2.025352    0.203024   -0.074269
  O     -3.163705   -0.106283    0.225874
  C     -1.085059   -0.765387   -0.751125
  C      0.288910   -0.787515   -0.106852
  C      0.333161   -1.245277    1.204894
  C      1.297818   -0.260299   -0.880313
  H     -2.108998    2.082236    0.939112
  H     -0.462103    1.617342    0.367166
  H     -1.680374    2.179002   -0.780317
  H     -0.554429   -1.661716    1.665572
  H      1.271058   -1.339077    1.738099
  O      2.617290   -0.187429   -0.401637
  C      2.821864    0.916361    0.445176
  H      3.831816    0.836256    0.862255
  H      2.738758    1.863405   -0.108542
  H      2.095290    0.925554    1.266187
  H     -0.998369   -0.465743   -1.802939
  H     -1.555039   -1.750778   -0.716578
  H      1.176813    0.020224   -1.920716

 Total Charge           Charge          ....   -1
 Multiplicity           Mult            ....    1
 Number of Electrons    NEL             ....   70
 Basis Dimension        Dim             ....  667

ORBITAL ENERGIES
----------------

  NO   OCC          E(Eh)            E(eV)
   0   2.0000     -20.403215      -555.1997
   1   2.0000     -20.395076      -554.9782
   2   2.0000     -11.189898      -304.4926
   3   2.0000     -11.122535      -302.6596
   4   2.0000     -11.092882      -301.8527
   5   2.0000     -11.083031      -301.5846
   6   2.0000     -11.066243      -301.1278
   7   2.0000     -11.054221      -300.8006
   8   2.0000     -10.993635      -299.1520
   9   2.0000      -1.244198       -33.8563
  10   2.0000      -1.207712       -32.8635
  11   2.0000      -0.934781       -25.4367
  12   2.0000      -0.861830       -23.4516
  13   2.0000      -0.799624       -21.7589
  14   2.0000      -0.768664       -20.9164
  15   2.0000      -0.698627       -19.0106
  16   2.0000      -0.598890       -16.2966
  17   2.0000      -0.550554       -14.9813
  18   2.0000      -0.508091       -13.8259
  19   2.0000      -0.499396       -13.5893
  20   2.0000      -0.493888       -13.4394
  21   2.0000      -0.477135       -12.9835
  22   2.0000      -0.461932       -12.5698
  23   2.0000      -0.452448       -12.3117
  24   2.0000      -0.419676       -11.4200
  25   2.0000      -0.408412       -11.1135
  26   2.0000      -0.386636       -10.5209
  27   2.0000      -0.368793       -10.0354
  28   2.0000      -0.350976        -9.5505
  29   2.0000      -0.344033        -9.3616
  30   2.0000      -0.313676        -8.5355
  31   2.0000      -0.276808        -7.5323
  32   2.0000      -0.269663        -7.3379
  33   2.0000      -0.210950        -5.7402
  34   2.0000      -0.045658        -1.2424
  35   0.0000       0.110999         3.0204
  36   0.0000       0.118417         3.2223
  37   0.0000       0.121449         3.3048
  38   0.0000       0.127217         3.4617
  39   0.0000       0.133738         3.6392

MULLIKEN ATOMIC CHARGES
-----------------------
   0 C :   -0.953332
   1 C :    0.685254
   2 O :   -1.034808
   3 C :   -0.076523
   4 C :    1.129091
   5 C :   -1.749211
   6 C :   -0.619416
   7 H :    0.247388
   8 H :    0.447805
   9 H :    0.275515
  10 H :    0.167926
  11 H :    0.241930
  12 O :   -0.770736
  13 C :   -0.785579
  14 H :    0.322778
  15 H :    0.271831
  16 H :    0.384340
  17 H :    0.261271
  18 H :    0.205518
  19 H :    0.348959
Sum of atomic charges:   -1.0000000

LOEWDIN ATOMIC CHARGES
----------------------
   0 C :    0.565664
   1 C :   -0.544819
   2 O :    0.431547
   3 C :    0.205135
   4 C :   -0.324122
   5 C :    0.413609
   6 C :   -0.119606
   7 H :   -0.186474
   8 H :   -0.210489
   9 H :   -0.171937
  10 H :   -0.292412
  11 H :   -0.288680
  12 O :    0.482038
  13 C :    0.249581
  14 H :   -0.201910
  15 H :   -0.192425
  16 H :   -0.210917
  17 H :   -0.173276
  18 H :   -0.167796
  19 H :   -0.262712

  Mayer bond orders larger than 0.100000
B(  0-C ,  1-C ) :   0.7762 B(  0-C ,  7-H ) :   1.0140 B(  0-C ,  8-H ) :   0.7804
B(  0-C ,  9-H ) :   0.9551 B(  1-C ,  2-O ) :   0.9536 B(  1-C ,  3-C ) :   0.8027
B(  1-C ,  4-C ) :   0.3243 B(  3-C ,  4-C ) :   0.8326 B(  3-C ,  5-C ) :  -0.1503
B(  3-C , 17-H ) :   0.9499 B(  3-C , 18-H ) :   0.9925 B(  4-C ,  5-C ) :   0.6642
B(  4-C ,  6-C ) :   1.1186 B(  5-C , 10-H ) :   1.1065 B(  5-C , 11-H ) :   1.0609
B(  6-C , 12-O ) :   0.4771 B(  6-C , 19-H ) :   0.9356 B( 12-O , 13-C ) :   0.9573
B( 13-C , 14-H ) :   0.9329 B( 13-C , 15-H ) :   0.9459 B( 13-C , 16-H ) :   0.8401

MP2 TOTAL ENERGY:     -422.967520934 Eh
FINAL SINGLE POINT ENERGY      -422.967520933907

DIPOLE MOMENT
-------------
                                X             Y             Z
Electronic contribution:     -3.95602      -2.79930      -2.19269
Nuclear contribution   :      3.81721       4.38408       1.53525
                        -----------------------------------------
Total Dipole Moment    :     -0.13880       1.58478      -0.65744
                        -----------------------------------------
Magnitude (a.u.)       :      1.72135
Magnitude (Debye)      :      4.37532

Rotational constants in cm-1:     0.106636     0.029188     0.027119
Rotational constants in MHz :  3196.867135   875.032452   812.995792

                             ****ORCA TERMINATED NORMALLY****
TOTAL RUN TIME: 0 days 0 hours 4 minutes 49 seconds 585 msec
