                         Program Version 4.2.1 -  RELEASE  -
|  1> %pal
|  2>  nprocs 32
|  3> end
|  4> !RI-MP2 aug-cc-pVTZ aug-cc-pVTZ/C TightSCF
|  5> %maxcore 4500
|  6> *xyzfile 1 1  05_7R2.xyz
|  7>
|  8>
|  9>                          ****END OF INPUT****

CARTESIAN COORDINATES (ANGSTROEM)
---------------------------------
  C     -0.218320    1.198986   -0.008700
  C     -0.940394    0.000000   -0.011484
  H      1.762757   -2.071418    0.003676
  H     -0.729628    2.152327   -0.016153
  C     -2.431850    0.000000    0.005370
  C      1.152034    1.179007    0.001631
  C     -0.218321   -1.198985   -0.008700
  N      1.800386   -0.000000    0.006785
  C      1.152033   -1.179007    0.001631
  H     -0.729629   -2.152327   -0.016153
  H     -2.837160   -0.888066   -0.478073
  H     -2.837161    0.888083   -0.478042
  H     -2.780533   -0.000018    1.043069
  H      1.762758    2.071417    0.003676
  H      2.814799   -0.000000    0.012011

 Total Charge           Charge          ....    1
 Multiplicity           Mult            ....    1
 Number of Electrons    NEL             ....   50
 Basis Dimension        Dim             ....  506

ORBITAL ENERGIES
----------------

  NO   OCC          E(Eh)            E(eV)
   0   2.0000     -15.847714      -431.2382
   1   2.0000     -11.496018      -312.8226
   2   2.0000     -11.495990      -312.8218
   3   2.0000     -11.465541      -311.9932
   4   2.0000     -11.425647      -310.9077
   5   2.0000     -11.425623      -310.9070
   6   2.0000     -11.383973      -309.7737
   7   2.0000      -1.522103       -41.4185
   8   2.0000      -1.312489       -35.7147
   9   2.0000      -1.252888       -34.0928
  10   2.0000      -1.158921       -31.5358
  11   2.0000      -1.075376       -29.2625
  12   2.0000      -1.029902       -28.0251
  13   2.0000      -0.974424       -26.5154
  14   2.0000      -0.885615       -24.0988
  15   2.0000      -0.852270       -23.1915
  16   2.0000      -0.813053       -22.1243
  17   2.0000      -0.809199       -22.0194
  18   2.0000      -0.789587       -21.4857
  19   2.0000      -0.731520       -19.9057
  20   2.0000      -0.730092       -19.8668
  21   2.0000      -0.701166       -19.0797
  22   2.0000      -0.690426       -18.7874
  23   2.0000      -0.577060       -15.7026
  24   2.0000      -0.552628       -15.0378
  25   0.0000      -0.110125        -2.9967
  26   0.0000      -0.090566        -2.4644
  27   0.0000      -0.071772        -1.9530
  28   0.0000      -0.067705        -1.8423
  29   0.0000      -0.067164        -1.8276

MULLIKEN ATOMIC CHARGES
-----------------------
   0 C :   -0.529108
   1 C :    1.132420
   2 H :    0.758132
   3 H :    0.259835
   4 C :   -0.876624
   5 C :   -0.485341
   6 C :   -0.529108
   7 N :   -0.283804
   8 C :   -0.485342
   9 H :    0.259841
  10 H :    0.294691
  11 H :    0.294690
  12 H :    0.357225
  13 H :    0.758135
  14 H :    0.074359
Sum of atomic charges:    1.0000000

LOEWDIN ATOMIC CHARGES
----------------------
   0 C :    0.291549
   1 C :   -0.062957
   2 H :   -0.121097
   3 H :   -0.153095
   4 C :    0.637547
   5 C :    0.228961
   6 C :    0.291548
   7 N :    0.577089
   8 C :    0.228962
   9 H :   -0.153094
  10 H :   -0.152763
  11 H :   -0.152763
  12 H :   -0.137111
  13 H :   -0.121098
  14 H :   -0.201680

  Mayer bond orders larger than 0.100000
B(  0-C ,  1-C ) :   1.0611 B(  0-C ,  3-H ) :   1.1298 B(  0-C ,  5-C ) :   0.9817
B(  0-C ,  7-N ) :  -0.1619 B(  1-C ,  4-C ) :   0.6504 B(  1-C ,  5-C ) :  -0.1148
B(  1-C ,  6-C ) :   1.0611 B(  1-C ,  8-C ) :  -0.1148 B(  2-H ,  8-C ) :   0.2773
B(  4-C , 10-H ) :   0.9875 B(  4-C , 11-H ) :   0.9875 B(  4-C , 12-H ) :   0.9049
B(  5-C ,  7-N ) :   1.2984 B(  5-C ,  8-C ) :   0.1879 B(  5-C , 13-H ) :   0.2773
B(  6-C ,  7-N ) :  -0.1619 B(  6-C ,  8-C ) :   0.9817 B(  6-C ,  9-H ) :   1.1298
B(  7-N ,  8-C ) :   1.2984 B(  7-N , 14-H ) :   1.2093

MP2 TOTAL ENERGY:     -287.376579739 Eh
FINAL SINGLE POINT ENERGY      -287.376579739166

DIPOLE MOMENT
-------------
                                X             Y             Z
Electronic contribution:      4.70151       0.00000      -0.04512
Nuclear contribution   :     -3.62548      -0.00000       0.07535
                        -----------------------------------------
Total Dipole Moment    :      1.07603      -0.00000       0.03023
                        -----------------------------------------
Magnitude (a.u.)       :      1.07645
Magnitude (Debye)      :      2.73612

Rotational constants in cm-1:     0.189269     0.083929     0.058779
Rotational constants in MHz :  5674.153183  2516.120668  1762.140421

                             ****ORCA TERMINATED NORMALLY****
TOTAL RUN TIME: 0 days 0 hours 2 minutes 1 seconds 78 msec
