                         Program Version 4.2.1 -  RELEASE  -
|  1> %pal
|  2>  nprocs 32
|  3> end
|  4> !RI-MP2 aug-cc-pVTZ aug-cc-pVTZ/C TightSCF
|  5> %maxcore 4500
|  6> *xyzfile 0 1  03_38P2.xyz
|  7>
|  8>
|  9>                          ****END OF INPUT****

CARTESIAN COORDINATES (ANGSTROEM)
---------------------------------
  O      0.335356   -1.005984    1.316070
  C      0.502537   -0.325641    0.368838
  C     -0.477219    0.629309   -0.272524
  C     -1.915852    0.228835    0.054427
  H     -0.314518    0.579123   -1.351935
  C     -0.148749    2.049899    0.206600
  H     -2.038754    0.200506    1.139998
  C     -2.335831   -1.103231   -0.556162
  H     -2.567401    1.025641   -0.315217
  H     -2.228948   -1.089272   -1.644040
  H     -3.380574   -1.321454   -0.328886
  H     -1.736314   -1.927889   -0.166863
  H      0.877359    2.329272   -0.032113
  H     -0.290249    2.133765    1.286128
  H     -0.818401    2.759662   -0.280746
  Cl     2.121509   -0.324500   -0.449527

 Total Charge           Charge          ....    0
 Multiplicity           Mult            ....    1
 Number of Electrons    NEL             ....   64
 Basis Dimension        Dim             ....  533

ORBITAL ENERGIES
----------------

  NO   OCC          E(Eh)            E(eV)
   0   2.0000    -104.841252     -2852.8755
   1   2.0000     -20.591448      -560.3218
   2   2.0000     -11.402793      -310.2858
   3   2.0000     -11.268678      -306.6363
   4   2.0000     -11.241329      -305.8921
   5   2.0000     -11.238880      -305.8255
   6   2.0000     -11.222796      -305.3878
   7   2.0000     -10.565853      -287.5115
   8   2.0000      -8.032444      -218.5739
   9   2.0000      -8.030832      -218.5300
  10   2.0000      -8.030699      -218.5264
  11   2.0000      -1.451991       -39.5107
  12   2.0000      -1.138762       -30.9873
  13   2.0000      -1.098687       -29.8968
  14   2.0000      -1.010149       -27.4876
  15   2.0000      -0.906901       -24.6780
  16   2.0000      -0.851976       -23.1835
  17   2.0000      -0.752788       -20.4844
  18   2.0000      -0.698296       -19.0016
  19   2.0000      -0.661983       -18.0135
  20   2.0000      -0.628531       -17.1032
  21   2.0000      -0.611402       -16.6371
  22   2.0000      -0.595736       -16.2108
  23   2.0000      -0.579658       -15.7733
  24   2.0000      -0.555283       -15.1100
  25   2.0000      -0.534508       -14.5447
  26   2.0000      -0.507664       -13.8142
  27   2.0000      -0.496318       -13.5055
  28   2.0000      -0.487790       -13.2734
  29   2.0000      -0.461317       -12.5531
  30   2.0000      -0.457619       -12.4525
  31   2.0000      -0.438037       -11.9196
  32   0.0000       0.026199         0.7129
  33   0.0000       0.033895         0.9223
  34   0.0000       0.037006         1.0070
  35   0.0000       0.043632         1.1873
  36   0.0000       0.054181         1.4743

MULLIKEN ATOMIC CHARGES
-----------------------
   0 O :   -0.772560
   1 C :    0.755880
   2 C :    0.293808
   3 C :   -0.429745
   4 H :    0.293655
   5 C :   -1.015856
   6 H :    0.258594
   7 C :   -0.991703
   8 H :    0.311946
   9 H :    0.246000
  10 H :    0.259860
  11 H :    0.317948
  12 H :    0.310637
  13 H :    0.264560
  14 H :    0.269263
  15 Cl:   -0.372289
Sum of atomic charges:   -0.0000000

LOEWDIN ATOMIC CHARGES
----------------------
   0 O :    0.428816
   1 C :   -1.081194
   2 C :   -0.150416
   3 C :    0.247004
   4 H :   -0.170563
   5 C :    0.573563
   6 H :   -0.145993
   7 C :    0.585081
   8 H :   -0.143619
   9 H :   -0.165752
  10 H :   -0.165795
  11 H :   -0.177792
  12 H :   -0.182102
  13 H :   -0.155794
  14 H :   -0.159452
  15 Cl:    0.864010

  Mayer bond orders larger than 0.100000
B(  0-O ,  1-C ) :   1.3163 B(  0-O ,  2-C ) :   0.1360 B(  1-C ,  2-C ) :   0.7892
B(  1-C ,  5-C ) :   0.1568 B(  1-C , 15-Cl) :   0.7308 B(  2-C ,  3-C ) :   0.8071
B(  2-C ,  4-H ) :   0.8939 B(  2-C ,  5-C ) :   0.6934 B(  3-C ,  6-H ) :   0.9794
B(  3-C ,  7-C ) :   0.8593 B(  3-C ,  8-H ) :   0.9017 B(  5-C , 12-H ) :   0.9524
B(  5-C , 13-H ) :   0.9749 B(  5-C , 14-H ) :   0.9779 B(  7-C ,  9-H ) :   0.9818
B(  7-C , 10-H ) :   1.0012 B(  7-C , 11-H ) :   0.9164

MP2 TOTAL ENERGY:     -730.375332416 Eh
FINAL SINGLE POINT ENERGY      -730.375332415655

DIPOLE MOMENT
-------------
                                X             Y             Z
Electronic contribution:     14.65143      -4.29816       0.49079
Nuclear contribution   :    -15.47843       5.12145      -1.02654
                        -----------------------------------------
Total Dipole Moment    :     -0.82700       0.82329      -0.53576
                        -----------------------------------------
Magnitude (a.u.)       :      1.28404
Magnitude (Debye)      :      3.26378

Rotational constants in cm-1:     0.101230     0.047267     0.039694
Rotational constants in MHz :  3034.793577  1417.040924  1189.985336

                             ****ORCA TERMINATED NORMALLY****
TOTAL RUN TIME: 0 days 0 hours 2 minutes 20 seconds 921 msec
