                         Program Version 4.2.1 -  RELEASE  -
|  1> %pal
|  2>  nprocs 32
|  3> end
|  4> !RI-MP2 aug-cc-pVTZ aug-cc-pVTZ/C TightSCF
|  5> %maxcore 4500
|  6> *xyzfile 0 1  04_83R1.xyz
|  7>
|  8>
|  9>                          ****END OF INPUT****

CARTESIAN COORDINATES (ANGSTROEM)
---------------------------------
  O      1.721031   -0.796577   -1.184470
  C      2.226198   -0.236070   -0.250395
  O      3.394365   -0.630293    0.287484
  C      1.671852    0.976218    0.446260
  C      0.283448    1.331805   -0.053713
  C     -0.743526    0.296641    0.359179
  H      0.269978    1.441116   -1.138981
  H     -0.034891    2.287269    0.372905
  S     -2.235112    0.336709   -0.601925
  C     -3.167186   -0.954423    0.255071
  H     -3.334389   -0.677955    1.293494
  H     -2.624839   -1.895888    0.210445
  H     -4.119658   -1.047820   -0.263610
  O     -0.583594   -0.466858    1.274929
  H      3.692402   -1.407551   -0.205557
  H      1.665175    0.776685    1.518531
  H      2.368887    1.801591    0.281619

 Total Charge           Charge          ....    0
 Multiplicity           Mult            ....    1
 Number of Electrons    NEL             ....   78
 Basis Dimension        Dim             ....  602

ORBITAL ENERGIES
----------------

  NO   OCC          E(Eh)            E(eV)
   0   2.0000     -91.969248     -2502.6105
   1   2.0000     -20.615860      -560.9861
   2   2.0000     -20.557919      -559.4094
   3   2.0000     -20.553085      -559.2779
   4   2.0000     -11.389233      -309.9168
   5   2.0000     -11.362257      -309.1827
   6   2.0000     -11.257728      -306.3384
   7   2.0000     -11.257509      -306.3324
   8   2.0000     -11.256725      -306.3110
   9   2.0000      -8.970830      -244.1087
  10   2.0000      -6.652059      -181.0117
  11   2.0000      -6.650925      -180.9809
  12   2.0000      -6.650245      -180.9624
  13   2.0000      -1.472975       -40.0817
  14   2.0000      -1.409207       -38.3465
  15   2.0000      -1.368913       -37.2500
  16   2.0000      -1.099838       -29.9281
  17   2.0000      -1.059972       -28.8433
  18   2.0000      -0.970711       -26.4144
  19   2.0000      -0.890340       -24.2274
  20   2.0000      -0.812180       -22.1005
  21   2.0000      -0.735898       -20.0248
  22   2.0000      -0.712063       -19.3762
  23   2.0000      -0.701684       -19.0938
  24   2.0000      -0.681600       -18.5473
  25   2.0000      -0.642044       -17.4709
  26   2.0000      -0.630064       -17.1449
  27   2.0000      -0.624545       -16.9947
  28   2.0000      -0.595923       -16.2159
  29   2.0000      -0.581694       -15.8287
  30   2.0000      -0.567973       -15.4553
  31   2.0000      -0.546865       -14.8810
  32   2.0000      -0.531787       -14.4707
  33   2.0000      -0.518833       -14.1182
  34   2.0000      -0.488089       -13.2816
  35   2.0000      -0.480476       -13.0744
  36   2.0000      -0.458943       -12.4885
  37   2.0000      -0.409652       -11.1472
  38   2.0000      -0.369455       -10.0534
  39   0.0000       0.026759         0.7282
  40   0.0000       0.032381         0.8811
  41   0.0000       0.034803         0.9470
  42   0.0000       0.043097         1.1727
  43   0.0000       0.050256         1.3675

MULLIKEN ATOMIC CHARGES
-----------------------
   0 O :   -0.783515
   1 C :    0.540836
   2 O :   -0.472107
   3 C :   -0.125893
   4 C :   -0.311886
   5 C :    0.877534
   6 H :    0.229563
   7 H :    0.382387
   8 S :   -0.258095
   9 C :   -0.798814
  10 H :    0.295584
  11 H :    0.297378
  12 H :    0.290943
  13 O :   -0.938206
  14 H :    0.246342
  15 H :    0.204182
  16 H :    0.323767
Sum of atomic charges:   -0.0000000

LOEWDIN ATOMIC CHARGES
----------------------
   0 O :    0.474154
   1 C :   -0.800620
   2 O :    0.841277
   3 C :    0.251351
   4 C :    0.172705
   5 C :   -0.940030
   6 H :   -0.180358
   7 H :   -0.152539
   8 S :    1.206361
   9 C :    0.220828
  10 H :   -0.242329
  11 H :   -0.243038
  12 H :   -0.256134
  13 O :    0.420512
  14 H :   -0.468112
  15 H :   -0.160051
  16 H :   -0.143977

  Mayer bond orders larger than 0.100000
B(  0-O ,  1-C ) :   1.4857 B(  1-C ,  2-O ) :   0.9265 B(  1-C ,  3-C ) :   0.5229
B(  2-O , 14-H ) :   0.9637 B(  3-C ,  4-C ) :   1.0194 B(  3-C , 15-H ) :   0.9649
B(  3-C , 16-H ) :   0.9229 B(  4-C ,  5-C ) :   0.6803 B(  4-C ,  6-H ) :   0.9742
B(  4-C ,  7-H ) :   0.8785 B(  5-C ,  8-S ) :   0.8795 B(  5-C , 13-O ) :   1.3100
B(  8-S ,  9-C ) :   0.9465 B(  9-C , 10-H ) :   0.9107 B(  9-C , 11-H ) :   0.9104
B(  9-C , 12-H ) :   0.9552

MP2 TOTAL ENERGY:     -818.059834459 Eh
FINAL SINGLE POINT ENERGY      -818.059834458571

DIPOLE MOMENT
-------------
                                X             Y             Z
Electronic contribution:      2.06334      -0.61839      -1.95603
Nuclear contribution   :     -1.95443       1.22313       2.06955
                        -----------------------------------------
Total Dipole Moment    :      0.10891       0.60474       0.11353
                        -----------------------------------------
Magnitude (a.u.)       :      0.62486
Magnitude (Debye)      :      1.58828

Rotational constants in cm-1:     0.105501     0.022512     0.022079
Rotational constants in MHz :  3162.829928   674.884641   661.919601

                             ****ORCA TERMINATED NORMALLY****
TOTAL RUN TIME: 0 days 0 hours 3 minutes 26 seconds 132 msec
