                         Program Version 4.2.1 -  RELEASE  -
|  1> %pal
|  2>  nprocs 32
|  3> end
|  4> !RI-MP2 aug-cc-pVTZ aug-cc-pVTZ/C TightSCF
|  5> %maxcore 4500
|  6> *xyzfile 0 1  09_11R1.xyz
|  7>
|  8>
|  9>                          ****END OF INPUT****

CARTESIAN COORDINATES (ANGSTROEM)
---------------------------------
  H      0.000002   -1.086726    1.239780
  P      0.000000   -0.655073   -0.112768
  C     -1.419741    0.527496    0.022163
  H     -1.504949    1.090139   -0.909165
  H     -2.347751   -0.030949    0.153732
  H     -1.311839    1.232248    0.848323
  C      1.419741    0.527496    0.022163
  H      2.347748   -0.030950    0.153749
  H      1.504961    1.090128   -0.909171
  H      1.311831    1.232258    0.848314

 Total Charge           Charge          ....    0
 Multiplicity           Mult            ....    1
 Number of Electrons    NEL             ....   34
 Basis Dimension        Dim             ....  303

ORBITAL ENERGIES
----------------

  NO   OCC          E(Eh)            E(eV)
   0   2.0000     -79.933520     -2175.1016
   1   2.0000     -11.222951      -305.3920
   2   2.0000     -11.222942      -305.3918
   3   2.0000      -7.474239      -203.3844
   4   2.0000      -5.368087      -146.0731
   5   2.0000      -5.367834      -146.0662
   6   2.0000      -5.366847      -146.0393
   7   2.0000      -1.000642       -27.2289
   8   2.0000      -0.936011       -25.4702
   9   2.0000      -0.750384       -20.4190
  10   2.0000      -0.591571       -16.0975
  11   2.0000      -0.583509       -15.8781
  12   2.0000      -0.555821       -15.1247
  13   2.0000      -0.552504       -15.0344
  14   2.0000      -0.472669       -12.8620
  15   2.0000      -0.461434       -12.5563
  16   2.0000      -0.342798        -9.3280
  17   0.0000       0.031067         0.8454
  18   0.0000       0.037284         1.0146
  19   0.0000       0.040692         1.1073
  20   0.0000       0.046011         1.2520
  21   0.0000       0.061997         1.6870

MULLIKEN ATOMIC CHARGES
-----------------------
   0 H :    0.076938
   1 P :   -0.098041
   2 C :   -0.867017
   3 H :    0.296692
   4 H :    0.303637
   5 H :    0.277239
   6 C :   -0.867016
   7 H :    0.303636
   8 H :    0.296692
   9 H :    0.277238
Sum of atomic charges:    0.0000000

LOEWDIN ATOMIC CHARGES
----------------------
   0 H :   -0.327738
   1 P :    1.094632
   2 C :    0.355627
   3 H :   -0.248076
   4 H :   -0.250853
   5 H :   -0.240145
   6 C :    0.355626
   7 H :   -0.250853
   8 H :   -0.248076
   9 H :   -0.240144

  Mayer bond orders larger than 0.100000
B(  0-H ,  1-P ) :   0.9700 B(  1-P ,  2-C ) :   1.0611 B(  1-P ,  6-C ) :   1.0611
B(  2-C ,  3-H ) :   0.9064 B(  2-C ,  4-H ) :   0.9196 B(  2-C ,  5-H ) :   0.8990
B(  6-C ,  7-H ) :   0.9196 B(  6-C ,  8-H ) :   0.9064 B(  6-C ,  9-H ) :   0.8990

MP2 TOTAL ENERGY:     -421.122050911 Eh
FINAL SINGLE POINT ENERGY      -421.122050911232

DIPOLE MOMENT
-------------
                                X             Y             Z
Electronic contribution:     -0.00000      -3.75419      -1.32838
Nuclear contribution   :      0.00000       4.23970       1.57749
                        -----------------------------------------
Total Dipole Moment    :     -0.00000       0.48551       0.24911
                        -----------------------------------------
Magnitude (a.u.)       :      0.54568
Magnitude (Debye)      :      1.38702

Rotational constants in cm-1:     0.536229     0.232258     0.179353
Rotational constants in MHz : 16075.748833  6962.916106  5376.879340

                             ****ORCA TERMINATED NORMALLY****
TOTAL RUN TIME: 0 days 0 hours 0 minutes 25 seconds 912 msec
