                         Program Version 4.2.1 -  RELEASE  -
|  1> %pal
|  2>  nprocs 32
|  3> end
|  4> !RI-MP2 aug-cc-pVTZ aug-cc-pVTZ/C TightSCF
|  5> %maxcore 4500
|  6> *xyzfile 0 2  04_61R.xyz
|  7>
|  8>
|  9>                          ****END OF INPUT****

CARTESIAN COORDINATES (ANGSTROEM)
---------------------------------
  C      0.358758   -0.662178    0.679647
  C      1.302101   -1.504554   -0.145657
  C      2.108684   -0.668887   -1.172913
  H      0.737997   -2.270401   -0.686687
  H      1.994823   -2.023521    0.521906
  C      2.941321    0.411914   -0.565056
  H      1.420520   -0.240967   -1.906847
  H      2.750555   -1.370044   -1.718842
  C      4.117600    0.036159    0.270140
  C      2.417057    1.803879   -0.468633
  N      0.555258   -0.348200    1.892492
  C     -0.892958   -0.177266   -0.017433
  H     -0.637442    0.028111   -1.065067
  C     -1.484747    1.090082    0.594176
  C     -1.967639   -1.277549   -0.016694
  H      1.724823    2.034413   -1.282215
  H      3.228220    2.538100   -0.494103
  H      1.874465    1.969155    0.474418
  H      4.542251   -0.924542   -0.032447
  H      3.856965   -0.047259    1.337151
  H      4.907244    0.791284    0.210171
  H     -1.619163   -2.174646   -0.536596
  C     -3.238161   -0.770916   -0.684191
  H     -2.188777   -1.556301    1.017361
  H     -0.774358    1.917639    0.519001
  H     -1.670481    0.923989    1.656225
  C     -2.781721    1.458500   -0.108928
  H     -2.584241    1.725239   -1.159332
  H     -3.261582    2.311945    0.370000
  O     -3.725365    0.402197   -0.066507
  H     -4.038653   -1.507997   -0.615788
  H     -3.047113   -0.572891   -1.750840
  H      1.418293   -0.766594    2.240391

 Total Charge           Charge          ....    0
 Multiplicity           Mult            ....    2
 Number of Electrons    NEL             ....  101
 Basis Dimension        Dim             .... 1058

ORBITAL ENERGIES
----------------
                 SPIN UP ORBITALS
  NO   OCC          E(Eh)            E(eV)
   0   1.0000     -20.548804      -559.1614
   1   1.0000     -15.538298      -422.8186
   2   1.0000     -11.279341      -306.9265
   3   1.0000     -11.271605      -306.7160
   4   1.0000     -11.266934      -306.5888
   5   1.0000     -11.239488      -305.8420
   6   1.0000     -11.234168      -305.6972
   7   1.0000     -11.233865      -305.6890
   8   1.0000     -11.231604      -305.6275
   9   1.0000     -11.225842      -305.4707
  10   1.0000     -11.219175      -305.2893
  11   1.0000     -11.215130      -305.1792
  12   1.0000     -11.212328      -305.1029
  13   1.0000      -1.372588       -37.3500
  14   1.0000      -1.218581       -33.1593
  15   1.0000      -1.110527       -30.2190
  16   1.0000      -1.084771       -29.5181
  17   1.0000      -1.027489       -27.9594
  18   1.0000      -1.020226       -27.7618
  19   1.0000      -0.942283       -25.6408
  20   1.0000      -0.915711       -24.9178
  21   1.0000      -0.880774       -23.9671
  22   1.0000      -0.860999       -23.4290
  23   1.0000      -0.788568       -21.4580
  24   1.0000      -0.754001       -20.5174
  25   1.0000      -0.735463       -20.0130
  26   1.0000      -0.673173       -18.3180
  27   1.0000      -0.656901       -17.8752
  28   1.0000      -0.639242       -17.3947
  29   1.0000      -0.637685       -17.3523
  30   1.0000      -0.627786       -17.0829
  31   1.0000      -0.617621       -16.8063
  32   1.0000      -0.605680       -16.4814
  33   1.0000      -0.592644       -16.1267
  34   1.0000      -0.580990       -15.8095
  35   1.0000      -0.573967       -15.6184
  36   1.0000      -0.551508       -15.0073
  37   1.0000      -0.541148       -14.7254
  38   1.0000      -0.537623       -14.6295
  39   1.0000      -0.531621       -14.4662
  40   1.0000      -0.509608       -13.8671
  41   1.0000      -0.497990       -13.5510
  42   1.0000      -0.492580       -13.4038
  43   1.0000      -0.488422       -13.2906
  44   1.0000      -0.474188       -12.9033
  45   1.0000      -0.465085       -12.6556
  46   1.0000      -0.451661       -12.2903
  47   1.0000      -0.416614       -11.3366
  48   1.0000      -0.411670       -11.2021
  49   1.0000      -0.396406       -10.7868
  50   1.0000      -0.315181        -8.5765
  51   0.0000       0.022778         0.6198
  52   0.0000       0.029940         0.8147
  53   0.0000       0.030430         0.8281
  54   0.0000       0.035527         0.9667
  55   0.0000       0.041916         1.1406

                 SPIN DOWN ORBITALS
  NO   OCC          E(Eh)            E(eV)
   0   1.0000     -20.548804      -559.1614
   1   1.0000     -15.538254      -422.8174
   2   1.0000     -11.279485      -306.9304
   3   1.0000     -11.271603      -306.7159
   4   1.0000     -11.266934      -306.5889
   5   1.0000     -11.237318      -305.7830
   6   1.0000     -11.236763      -305.7679
   7   1.0000     -11.234167      -305.6972
   8   1.0000     -11.225840      -305.4706
   9   1.0000     -11.222365      -305.3761
  10   1.0000     -11.218320      -305.2660
  11   1.0000     -11.212326      -305.1029
  12   1.0000     -11.207036      -304.9590
  13   1.0000      -1.372586       -37.3500
  14   1.0000      -1.218044       -33.1446
  15   1.0000      -1.086321       -29.5603
  16   1.0000      -1.078333       -29.3429
  17   1.0000      -1.026810       -27.9409
  18   1.0000      -1.008782       -27.4504
  19   1.0000      -0.942002       -25.6332
  20   1.0000      -0.915231       -24.9047
  21   1.0000      -0.877619       -23.8812
  22   1.0000      -0.860292       -23.4097
  23   1.0000      -0.787400       -21.4262
  24   1.0000      -0.743120       -20.2213
  25   1.0000      -0.709989       -19.3198
  26   1.0000      -0.672753       -18.3065
  27   1.0000      -0.653294       -17.7770
  28   1.0000      -0.637710       -17.3530
  29   1.0000      -0.627638       -17.0789
  30   1.0000      -0.626655       -17.0521
  31   1.0000      -0.604781       -16.4569
  32   1.0000      -0.591553       -16.0970
  33   1.0000      -0.584713       -15.9108
  34   1.0000      -0.574349       -15.6288
  35   1.0000      -0.568464       -15.4687
  36   1.0000      -0.545557       -14.8454
  37   1.0000      -0.534271       -14.5383
  38   1.0000      -0.532729       -14.4963
  39   1.0000      -0.528362       -14.3775
  40   1.0000      -0.507529       -13.8106
  41   1.0000      -0.497674       -13.5424
  42   1.0000      -0.490595       -13.3498
  43   1.0000      -0.482101       -13.1186
  44   1.0000      -0.469794       -12.7837
  45   1.0000      -0.464248       -12.6328
  46   1.0000      -0.451288       -12.2802
  47   1.0000      -0.414949       -11.2913
  48   1.0000      -0.410504       -11.1704
  49   1.0000      -0.395449       -10.7607
  50   0.0000       0.022879         0.6226
  51   0.0000       0.029974         0.8156
  52   0.0000       0.030500         0.8299
  53   0.0000       0.035545         0.9672
  54   0.0000       0.041938         1.1412

MULLIKEN ATOMIC CHARGES AND SPIN POPULATIONS
--------------------------------------------
   0 C :    0.999696   -0.016203
   1 C :   -0.420871    0.073563
   2 C :   -0.300888   -0.220272
   3 H :    0.316883    0.005328
   4 H :    0.074802   -0.013415
   5 C :    0.323525    1.327649
   6 H :    0.028571    0.002258
   7 H :    0.434718    0.039752
   8 C :   -1.048709   -0.212988
   9 C :   -0.936020   -0.204723
  10 N :   -1.265262    0.002627
  11 C :    0.943833    0.006282
  12 H :    0.365327   -0.000581
  13 C :   -0.949980   -0.001782
  14 C :   -0.913495   -0.000480
  15 H :    0.232401    0.008315
  16 H :    0.331579    0.029204
  17 H :    0.225410    0.068616
  18 H :    0.274522    0.010325
  19 H :    0.264538    0.070407
  20 H :    0.241164    0.028019
  21 H :    0.335688    0.000413
  22 C :   -0.364256   -0.000319
  23 H :    0.228524   -0.000249
  24 H :    0.424876   -0.000794
  25 H :    0.181606   -0.000270
  26 C :   -0.329916    0.000057
  27 H :    0.208168   -0.000003
  28 H :    0.346717    0.000047
  29 O :   -0.803994    0.000001
  30 H :    0.363307   -0.000004
  31 H :    0.216438   -0.000049
  32 H :   -0.028902   -0.000732
Sum of atomic charges         :   -0.0000000

LOEWDIN ATOMIC CHARGES AND SPIN POPULATIONS
-------------------------------------------
   0 C :   -0.272920    0.004236
   1 C :    0.313842    0.031560
   2 C :    0.280447    0.099496
   3 H :   -0.144806    0.005687
   4 H :   -0.150829    0.002079
   5 C :   -0.049216    0.539418
   6 H :   -0.163947    0.002809
   7 H :   -0.143861    0.013321
   8 C :    0.559928    0.106793
   9 C :    0.563715    0.109723
  10 N :    0.710727    0.000963
  11 C :   -0.029689    0.000118
  12 H :   -0.144047    0.000172
  13 C :    0.285235    0.000190
  14 C :    0.305752    0.000294
  15 H :   -0.172078    0.003874
  16 H :   -0.170470    0.010079
  17 H :   -0.167753    0.027312
  18 H :   -0.172124    0.003174
  19 H :   -0.161976    0.026742
  20 H :   -0.171570    0.010522
  21 H :   -0.141673    0.000331
  22 C :    0.041671    0.000042
  23 H :   -0.130545    0.000006
  24 H :   -0.138583    0.000528
  25 H :   -0.149664    0.000002
  26 C :    0.046561    0.000005
  27 H :   -0.145778    0.000004
  28 H :   -0.153108   -0.000004
  29 O :    0.578553    0.000015
  30 H :   -0.153113    0.000002
  31 H :   -0.144893    0.000003
  32 H :   -0.413786    0.000506

  Mayer bond orders larger than 0.100000
B(  0-C ,  1-C ) :   1.0136 B(  0-C ,  4-H ) :  -0.1019 B(  0-C ,  5-C ) :   0.1116
B(  0-C , 11-C ) :   1.2189 B(  1-C ,  2-C ) :   0.9138 B(  1-C ,  3-H ) :   0.9521
B(  1-C ,  4-H ) :   1.1684 B(  1-C ,  5-C ) :   0.1045 B(  1-C , 10-N ) :  -0.1950
B(  1-C , 11-C ) :  -0.2036 B(  2-C ,  5-C ) :   0.7935 B(  2-C ,  6-H ) :   1.1681
B(  2-C ,  7-H ) :   0.8752 B(  5-C ,  7-H ) :  -0.1229 B(  5-C ,  8-C ) :   0.6362
B(  5-C ,  9-C ) :   0.6753 B(  8-C , 18-H ) :   1.0075 B(  8-C , 19-H ) :   0.9847
B(  8-C , 20-H ) :   1.0486 B(  9-C , 15-H ) :   1.0470 B(  9-C , 16-H ) :   0.9268
B(  9-C , 17-H ) :   0.9760 B( 10-N , 11-C ) :   0.2786 B( 10-N , 32-H ) :   1.1727
B( 11-C , 12-H ) :   0.8266 B( 11-C , 13-C ) :   0.7853 B( 11-C , 14-C ) :   0.5196
B( 13-C , 14-C ) :   0.2615 B( 13-C , 24-H ) :   0.8011 B( 13-C , 25-H ) :   1.1322
B( 13-C , 26-C ) :   1.0280 B( 14-C , 21-H ) :   0.9358 B( 14-C , 22-C ) :   1.0547
B( 14-C , 23-H ) :   1.0838 B( 22-C , 29-O ) :   0.8353 B( 22-C , 30-H ) :   0.9347
B( 22-C , 31-H ) :   1.0613 B( 26-C , 27-H ) :   1.0752 B( 26-C , 28-H ) :   0.9661
B( 26-C , 29-O ) :   0.7874

MP2 TOTAL ENERGY:     -559.977548916 Eh
FINAL SINGLE POINT ENERGY      -559.977548915548

DIPOLE MOMENT
-------------
                                X             Y             Z
Electronic contribution:     -8.00914      -1.31623       2.13655
Nuclear contribution   :      8.92706       0.82103      -3.00946
                        -----------------------------------------
Total Dipole Moment    :      0.91792      -0.49520      -0.87291
                        -----------------------------------------
Magnitude (a.u.)       :      1.36006
Magnitude (Debye)      :      3.45700

Rotational constants in cm-1:     0.053067     0.013539     0.012681
Rotational constants in MHz :  1590.921820   405.886014   380.176906

                             ****ORCA TERMINATED NORMALLY****
TOTAL RUN TIME: 0 days 0 hours 36 minutes 46 seconds 371 msec
