                         Program Version 4.2.1 -  RELEASE  -
|  1> %pal
|  2>  nprocs 32
|  3> end
|  4> !RI-MP2 aug-cc-pVTZ aug-cc-pVTZ/C TightSCF
|  5> %maxcore 4500
|  6> *xyzfile -1 1  09_3TS.xyz
|  7>
|  8>
|  9>                          ****END OF INPUT****

CARTESIAN COORDINATES (ANGSTROEM)
---------------------------------
  C     -1.953310    1.364847   -0.110871
  C     -1.657545   -0.115343    0.103554
  C     -0.705976   -0.460505    1.079412
  O     -2.146666   -0.924962   -0.715406
  C      0.956871   -0.516545   -0.175098
  C      2.017106    0.037500    0.166696
  C      3.419487    0.272810   -0.232442
  H     -3.033673    1.529194   -0.064573
  H     -1.456416    2.005251    0.620144
  H     -1.620293    1.645659   -1.114788
  H     -0.644042   -1.501026    1.376909
  H     -0.378086    0.273287    1.802520
  H      4.111362   -0.145154    0.507065
  H      3.694398   -0.156956   -1.213053
  H      3.644851    1.343988   -0.275216
  H      0.395425   -1.091131   -0.903266

 Total Charge           Charge          ....   -1
 Multiplicity           Mult            ....    1
 Number of Electrons    NEL             ....   54
 Basis Dimension        Dim             ....  529

ORBITAL ENERGIES
----------------

  NO   OCC          E(Eh)            E(eV)
   0   2.0000     -20.327667      -553.1439
   1   2.0000     -11.128347      -302.8177
   2   2.0000     -11.093860      -301.8793
   3   2.0000     -11.069981      -301.2295
   4   2.0000     -11.069605      -301.2193
   5   2.0000     -11.021426      -299.9082
   6   2.0000     -11.013965      -299.7052
   7   2.0000      -1.160168       -31.5698
   8   2.0000      -0.879462       -23.9314
   9   2.0000      -0.852878       -23.2080
  10   2.0000      -0.786507       -21.4019
  11   2.0000      -0.750464       -20.4212
  12   2.0000      -0.547229       -14.8909
  13   2.0000      -0.533091       -14.5061
  14   2.0000      -0.451464       -12.2850
  15   2.0000      -0.449565       -12.2333
  16   2.0000      -0.436432       -11.8759
  17   2.0000      -0.425054       -11.5663
  18   2.0000      -0.423170       -11.5150
  19   2.0000      -0.417770       -11.3681
  20   2.0000      -0.378416       -10.2972
  21   2.0000      -0.346595        -9.4313
  22   2.0000      -0.314118        -8.5476
  23   2.0000      -0.226466        -6.1625
  24   2.0000      -0.222365        -6.0509
  25   2.0000      -0.193952        -5.2777
  26   2.0000      -0.071147        -1.9360
  27   0.0000       0.111949         3.0463
  28   0.0000       0.119858         3.2615
  29   0.0000       0.127834         3.4786
  30   0.0000       0.129132         3.5139
  31   0.0000       0.138670         3.7734

MULLIKEN ATOMIC CHARGES
-----------------------
   0 C :   -0.779863
   1 C :    0.744764
   2 C :   -0.696964
   3 O :   -1.131435
   4 C :   -0.747596
   5 C :    0.141203
   6 C :   -0.864084
   7 H :    0.270747
   8 H :    0.295462
   9 H :    0.256329
  10 H :    0.403598
  11 H :    0.175669
  12 H :    0.265298
  13 H :    0.282705
  14 H :    0.238931
  15 H :    0.145237
Sum of atomic charges:   -1.0000000

LOEWDIN ATOMIC CHARGES
----------------------
   0 C :    0.525171
   1 C :   -0.731108
   2 C :    0.299653
   3 O :    0.341260
   4 C :    0.201623
   5 C :    0.010636
   6 C :    0.390709
   7 H :   -0.196291
   8 H :   -0.202805
   9 H :   -0.188672
  10 H :   -0.242778
  11 H :   -0.264908
  12 H :   -0.221198
  13 H :   -0.209246
  14 H :   -0.221836
  15 H :   -0.290208

  Mayer bond orders larger than 0.100000
B(  0-C ,  1-C ) :   0.7560 B(  0-C ,  7-H ) :   1.0007 B(  0-C ,  8-H ) :   0.9379
B(  0-C ,  9-H ) :   0.9480 B(  1-C ,  2-C ) :   1.1327 B(  1-C ,  3-O ) :   0.9097
B(  2-C ,  4-C ) :   0.6511 B(  2-C ,  5-C ) :  -0.1326 B(  2-C , 10-H ) :   0.8465
B(  2-C , 11-H ) :   1.0084 B(  3-O ,  4-C ) :   0.1048 B(  4-C ,  5-C ) :   1.6043
B(  4-C , 15-H ) :   1.3529 B(  5-C ,  6-C ) :   0.8595 B(  5-C , 15-H ) :  -0.1457
B(  6-C , 12-H ) :   1.0002 B(  6-C , 13-H ) :   0.9242 B(  6-C , 14-H ) :   1.0194

MP2 TOTAL ENERGY:     -308.563199569 Eh
FINAL SINGLE POINT ENERGY      -308.563199568605

DIPOLE MOMENT
-------------
                                X             Y             Z
Electronic contribution:     -4.23548      -3.10622      -0.72937
Nuclear contribution   :      4.79535       3.98464       0.74237
                        -----------------------------------------
Total Dipole Moment    :      0.55987       0.87842       0.01300
                        -----------------------------------------
Magnitude (a.u.)       :      1.04175
Magnitude (Debye)      :      2.64793

Rotational constants in cm-1:     0.186433     0.037388     0.035489
Rotational constants in MHz :  5589.116935  1120.867807  1063.938857

                             ****ORCA TERMINATED NORMALLY****
TOTAL RUN TIME: 0 days 0 hours 2 minutes 25 seconds 890 msec
