                         Program Version 4.2.1 -  RELEASE  -
|  1> %pal
|  2>  nprocs 32
|  3> end
|  4> !RI-MP2 aug-cc-pVTZ aug-cc-pVTZ/C TightSCF
|  5> %maxcore 4500
|  6> *xyzfile 0 1  10_58P.xyz
|  7>
|  8>
|  9>                          ****END OF INPUT****

CARTESIAN COORDINATES (ANGSTROEM)
---------------------------------
  C     -1.174394   -0.637350    0.220763
  C     -0.462037    0.178453    1.275538
  C     -0.488548   -1.634153   -0.587228
  C      0.395739   -0.661199    2.189995
  C      0.801307   -1.983132   -0.544694
  C      1.450751   -1.342358    1.778473
  C      1.885477   -1.430569    0.335353
  H      0.133229   -0.654766    3.241985
  H      2.045982   -1.886595    2.503484
  C      1.054240    1.622015   -1.555342
  C      0.358336    1.336716    0.635280
  H     -1.223061    0.658225    1.889109
  C      1.343164    0.925892   -0.444120
  C     -0.504680    2.356440   -0.053974
  H      0.895957    1.818519    1.460466
  C     -0.085888    2.510346   -1.313487
  H      1.573678    1.555119   -2.500647
  H     -1.330823    2.860237    0.427554
  H     -0.505824    3.182113   -2.049738
  C      2.450445   -0.077739   -0.247766
  C      3.138445   -0.388888   -1.580637
  C      3.504717    0.478042    0.722339
  H      3.073208    0.738501    1.688236
  H      3.962446    1.374497    0.300536
  H      4.294141   -0.259589    0.892238
  H      2.434816   -0.772174   -2.321304
  H      3.924345   -1.133490   -1.434908
  H      3.605697    0.507336   -1.991724
  C     -2.499313   -0.416243   -0.000173
  C     -3.247013    0.546346    0.745077
  N     -3.847604    1.321190    1.344555
  C     -3.235193   -1.119696   -1.004004
  N     -3.826845   -1.684957   -1.810336
  H      2.723903   -2.128649    0.290803
  H      1.111895   -2.743653   -1.253546
  H     -1.111764   -2.146789   -1.310430

 Total Charge           Charge          ....    0
 Multiplicity           Mult            ....    1
 Number of Electrons    NEL             ....  138
 Basis Dimension        Dim             .... 1288

ORBITAL ENERGIES
----------------

  NO   OCC          E(Eh)            E(eV)
   0   2.0000     -15.580010      -423.9536
   1   2.0000     -15.578098      -423.9016
   2   2.0000     -11.322193      -308.0925
   3   2.0000     -11.312271      -307.8225
   4   2.0000     -11.287567      -307.1503
   5   2.0000     -11.284744      -307.0735
   6   2.0000     -11.277863      -306.8863
   7   2.0000     -11.277145      -306.8667
   8   2.0000     -11.271594      -306.7157
   9   2.0000     -11.267404      -306.6017
  10   2.0000     -11.261329      -306.4364
  11   2.0000     -11.258346      -306.3552
  12   2.0000     -11.253848      -306.2328
  13   2.0000     -11.251211      -306.1610
  14   2.0000     -11.245043      -305.9932
  15   2.0000     -11.239085      -305.8310
  16   2.0000     -11.237324      -305.7831
  17   2.0000     -11.232939      -305.6638
  18   2.0000     -11.232812      -305.6603
  19   2.0000     -11.232460      -305.6508
  20   2.0000      -1.247026       -33.9333
  21   2.0000      -1.228167       -33.4201
  22   2.0000      -1.208047       -32.8726
  23   2.0000      -1.162612       -31.6363
  24   2.0000      -1.144575       -31.1455
  25   2.0000      -1.099129       -29.9088
  26   2.0000      -1.074883       -29.2490
  27   2.0000      -1.029303       -28.0087
  28   2.0000      -0.982386       -26.7321
  29   2.0000      -0.966465       -26.2989
  30   2.0000      -0.956181       -26.0190
  31   2.0000      -0.918429       -24.9917
  32   2.0000      -0.895008       -24.3544
  33   2.0000      -0.832400       -22.6508
  34   2.0000      -0.805157       -21.9094
  35   2.0000      -0.770949       -20.9786
  36   2.0000      -0.750442       -20.4206
  37   2.0000      -0.743197       -20.2234
  38   2.0000      -0.729529       -19.8515
  39   2.0000      -0.709578       -19.3086
  40   2.0000      -0.680469       -18.5165
  41   2.0000      -0.660280       -17.9671
  42   2.0000      -0.648195       -17.6383
  43   2.0000      -0.638436       -17.3727
  44   2.0000      -0.616805       -16.7841
  45   2.0000      -0.610278       -16.6065
  46   2.0000      -0.596385       -16.2285
  47   2.0000      -0.580236       -15.7890
  48   2.0000      -0.573769       -15.6130
  49   2.0000      -0.570017       -15.5109
  50   2.0000      -0.564665       -15.3653
  51   2.0000      -0.557116       -15.1599
  52   2.0000      -0.554189       -15.0803
  53   2.0000      -0.546327       -14.8663
  54   2.0000      -0.542601       -14.7649
  55   2.0000      -0.524226       -14.2649
  56   2.0000      -0.515674       -14.0322
  57   2.0000      -0.510102       -13.8806
  58   2.0000      -0.495750       -13.4900
  59   2.0000      -0.492136       -13.3917
  60   2.0000      -0.487716       -13.2714
  61   2.0000      -0.482702       -13.1350
  62   2.0000      -0.475132       -12.9290
  63   2.0000      -0.462245       -12.5783
  64   2.0000      -0.439377       -11.9561
  65   2.0000      -0.430964       -11.7271
  66   2.0000      -0.377668       -10.2769
  67   2.0000      -0.347748        -9.4627
  68   2.0000      -0.316471        -8.6116
  69   0.0000       0.016417         0.4467
  70   0.0000       0.024249         0.6598
  71   0.0000       0.026112         0.7105
  72   0.0000       0.027949         0.7605
  73   0.0000       0.030979         0.8430

MULLIKEN ATOMIC CHARGES
-----------------------
   0 C :    0.402797
   1 C :    0.364975
   2 C :   -1.214024
   3 C :   -0.471683
   4 C :   -0.454368
   5 C :   -0.535488
   6 C :    1.099712
   7 H :    0.137104
   8 H :    0.102685
   9 C :   -1.157977
  10 C :   -0.119791
  11 H :   -0.392034
  12 C :    1.458670
  13 C :   -0.426707
  14 H :    0.421178
  15 C :   -1.215261
  16 H :    0.233729
  17 H :    0.437247
  18 H :    0.727878
  19 C :    1.357648
  20 C :   -1.502748
  21 C :   -1.485368
  22 H :    0.353236
  23 H :    0.220845
  24 H :    0.197414
  25 H :    0.313763
  26 H :    0.167948
  27 H :    0.225906
  28 C :    0.935288
  29 C :    1.188774
  30 N :   -1.078092
  31 C :    0.927098
  32 N :   -0.985920
  33 H :    0.161843
  34 H :    0.409351
  35 H :   -0.805626
Sum of atomic charges:   -0.0000000

LOEWDIN ATOMIC CHARGES
----------------------
   0 C :   -0.060801
   1 C :    0.023704
   2 C :    0.266127
   3 C :    0.275427
   4 C :    0.284761
   5 C :    0.253166
   6 C :    0.011955
   7 H :   -0.157842
   8 H :   -0.155090
   9 C :    0.259697
  10 C :    0.000429
  11 H :   -0.188276
  12 C :   -0.049921
  13 C :    0.247495
  14 H :   -0.114469
  15 C :    0.246088
  16 H :   -0.171966
  17 H :   -0.164744
  18 H :   -0.172469
  19 C :   -0.290247
  20 C :    0.580808
  21 C :    0.604624
  22 H :   -0.168015
  23 H :   -0.145756
  24 H :   -0.144605
  25 H :   -0.155702
  26 H :   -0.147953
  27 H :   -0.153977
  28 C :   -0.184141
  29 C :   -0.270249
  30 N :    0.313988
  31 C :   -0.265200
  32 N :    0.302033
  33 H :   -0.150102
  34 H :   -0.147748
  35 H :   -0.211029

  Mayer bond orders larger than 0.100000
B(  0-C ,  1-C ) :   0.8433 B(  0-C ,  3-C ) :   0.4231 B(  0-C ,  4-C ) :   0.9713
B(  0-C ,  6-C ) :  -0.1406 B(  0-C ,  9-C ) :  -0.2024 B(  0-C , 10-C ) :   0.3437
B(  0-C , 12-C ) :   0.2211 B(  0-C , 15-C ) :  -0.1572 B(  0-C , 28-C ) :   0.2972
B(  0-C , 29-C ) :  -0.1814 B(  0-C , 31-C ) :   0.7999 B(  0-C , 34-H ) :   0.1583
B(  0-C , 35-H ) :  -0.6229 B(  1-C ,  2-C ) :  -0.1828 B(  1-C ,  3-C ) :   0.5358
B(  1-C ,  4-C ) :  -0.1030 B(  1-C ,  5-C ) :   0.2882 B(  1-C ,  6-C ) :   0.2630
B(  1-C , 10-C ) :   0.8988 B(  1-C , 11-H ) :   1.1567 B(  1-C , 19-C ) :   0.1159
B(  1-C , 29-C ) :   0.2338 B(  1-C , 30-N ) :   0.1205 B(  1-C , 35-H ) :  -0.1941
B(  2-C ,  3-C ) :  -0.4020 B(  2-C ,  4-C ) :   0.8097 B(  2-C ,  5-C ) :  -0.3044
B(  2-C ,  8-H ) :   0.3224 B(  2-C , 11-H ) :   0.1318 B(  2-C , 12-C ) :  -0.3013
B(  2-C , 15-C ) :   0.2340 B(  2-C , 28-C ) :   0.3653 B(  2-C , 34-H ) :  -0.1385
B(  2-C , 35-H ) :   3.0623 B(  3-C ,  4-C ) :   0.2442 B(  3-C ,  5-C ) :   1.5271
B(  3-C ,  7-H ) :   1.2205 B(  3-C ,  8-H ) :  -0.2018 B(  3-C , 10-C ) :   0.2569
B(  3-C , 11-H ) :  -0.2939 B(  3-C , 13-C ) :  -0.1106 B(  3-C , 33-H ) :  -0.1044
B(  3-C , 35-H ) :   0.1296 B(  4-C ,  6-C ) :   0.6328 B(  4-C ,  8-H ) :  -0.1757
B(  4-C ,  9-C ) :   0.3730 B(  4-C , 12-C ) :  -0.2426 B(  4-C , 19-C ) :   0.5017
B(  4-C , 20-C ) :  -0.1053 B(  4-C , 28-C ) :  -0.3777 B(  4-C , 31-C ) :   0.1159
B(  4-C , 34-H ) :   0.8100 B(  4-C , 35-H ) :  -0.5593 B(  5-C ,  7-H ) :  -0.1413
B(  5-C ,  8-H ) :   1.3110 B(  5-C ,  9-C ) :   0.1003 B(  5-C , 19-C ) :   0.4109
B(  5-C , 28-C ) :   0.1888 B(  5-C , 33-H ) :  -0.2010 B(  5-C , 35-H ) :  -0.1732
B(  6-C ,  8-H ) :  -0.2942 B(  6-C , 19-C ) :   1.1086 B(  6-C , 20-C ) :   0.1697
B(  6-C , 33-H ) :   0.9483 B(  6-C , 34-H ) :  -0.1706 B(  6-C , 35-H ) :   0.1409
B(  7-H , 28-C ) :   0.1925 B(  7-H , 34-H ) :  -0.1217 B(  8-H , 34-H ) :   0.1145
B(  9-C , 10-C ) :   0.1806 B(  9-C , 12-C ) :   0.2728 B(  9-C , 13-C ) :   0.3023
B(  9-C , 15-C ) :   0.9611 B(  9-C , 16-H ) :   1.3403 B(  9-C , 17-H ) :   0.1578
B(  9-C , 34-H ) :   0.1253 B(  9-C , 35-H ) :  -0.1954 B( 10-C , 12-C ) :   0.8474
B( 10-C , 13-C ) :   0.5707 B( 10-C , 14-H ) :   1.0204 B( 10-C , 15-C ) :   0.4129
B( 10-C , 19-C ) :   0.2727 B( 11-H , 13-C ) :   0.1470 B( 11-H , 28-C ) :  -0.3420
B( 11-H , 29-C ) :   0.1155 B( 11-H , 31-C ) :   0.1047 B( 12-C , 13-C ) :  -0.2019
B( 12-C , 19-C ) :   0.9156 B( 12-C , 20-C ) :  -0.1094 B( 12-C , 21-C ) :  -0.1080
B( 12-C , 28-C ) :   0.1218 B( 13-C , 14-H ) :  -0.4622 B( 13-C , 15-C ) :   1.1682
B( 13-C , 17-H ) :   0.9587 B( 15-C , 18-H ) :   0.3053 B( 15-C , 19-C ) :   0.1024
B( 16-H , 20-C ) :  -0.1134 B( 19-C , 22-H ) :  -0.1637 B( 19-C , 23-H ) :  -0.1530
B( 19-C , 24-H ) :  -0.1613 B( 19-C , 25-H ) :  -0.1680 B( 19-C , 26-H ) :  -0.1256
B( 19-C , 27-H ) :  -0.2011 B( 19-C , 35-H ) :   0.1507 B( 20-C , 21-C ) :   0.1267
B( 20-C , 25-H ) :   1.1411 B( 20-C , 26-H ) :   1.1398 B( 20-C , 27-H ) :   1.2185
B( 21-C , 22-H ) :   1.0488 B( 21-C , 23-H ) :   1.1550 B( 21-C , 24-H ) :   1.1842
B( 28-C , 29-C ) :   1.0635 B( 28-C , 30-N ) :   0.4371 B( 28-C , 31-C ) :   0.3611
B( 28-C , 32-N ) :   0.3731 B( 28-C , 34-H ) :  -0.1023 B( 28-C , 35-H ) :  -0.2845
B( 29-C , 30-N ) :   1.2009 B( 29-C , 31-C ) :  -0.2127 B( 29-C , 35-H ) :   0.1562
B( 31-C , 32-N ) :   1.3152 B( 31-C , 34-H ) :   0.1746 B( 31-C , 35-H ) :  -0.2699
B( 34-H , 35-H ) :  -0.2427

MP2 TOTAL ENERGY:     -803.313535767 Eh
FINAL SINGLE POINT ENERGY      -803.313535766782

DIPOLE MOMENT
-------------
                                X             Y             Z
Electronic contribution:    -22.27044      -1.26550       0.54139
Nuclear contribution   :     25.44829       0.96238      -0.16986
                        -----------------------------------------
Total Dipole Moment    :      3.17785      -0.30312       0.37153
                        -----------------------------------------
Magnitude (a.u.)       :      3.21383
Magnitude (Debye)      :      8.16890

Rotational constants in cm-1:     0.020015     0.010063     0.009387
Rotational constants in MHz :   600.046877   301.687461   281.416280

                             ****ORCA TERMINATED NORMALLY****
TOTAL RUN TIME: 0 days 1 hours 0 minutes 22 seconds 844 msec
