                         Program Version 4.2.1 -  RELEASE  -
|  1> %pal
|  2>  nprocs 32
|  3> end
|  4> !RI-MP2 aug-cc-pVTZ aug-cc-pVTZ/C TightSCF
|  5> %maxcore 4500
|  6> *xyzfile 0 2  04_13R2.xyz
|  7>
|  8>
|  9>                          ****END OF INPUT****

CARTESIAN COORDINATES (ANGSTROEM)
---------------------------------
  O      1.093069   -0.139327    0.000000
  N      0.000000    0.318461    0.000000
  O     -1.093069   -0.139326    0.000000

 Total Charge           Charge          ....    0
 Multiplicity           Mult            ....    2
 Number of Electrons    NEL             ....   23
 Basis Dimension        Dim             ....  138

ORBITAL ENERGIES
----------------
                 SPIN UP ORBITALS
  NO   OCC          E(Eh)            E(eV)
   0   1.0000     -20.688763      -562.9699
   1   1.0000     -20.688713      -562.9685
   2   1.0000     -15.879634      -432.1068
   3   1.0000      -1.688880       -45.9568
   4   1.0000      -1.507088       -41.0099
   5   1.0000      -0.971033       -26.4231
   6   1.0000      -0.841592       -22.9009
   7   1.0000      -0.808421       -21.9982
   8   1.0000      -0.772198       -21.0126
   9   1.0000      -0.599578       -16.3154
  10   1.0000      -0.531848       -14.4723
  11   1.0000      -0.501268       -13.6402
  12   0.0000       0.073359         1.9962
  13   0.0000       0.075246         2.0475
  14   0.0000       0.094604         2.5743
  15   0.0000       0.108272         2.9462
  16   0.0000       0.116848         3.1796

                 SPIN DOWN ORBITALS
  NO   OCC          E(Eh)            E(eV)
   0   1.0000     -20.674519      -562.5822
   1   1.0000     -20.674446      -562.5803
   2   1.0000     -15.856474      -431.4766
   3   1.0000      -1.646253       -44.7968
   4   1.0000      -1.465887       -39.8888
   5   1.0000      -0.885640       -24.0995
   6   1.0000      -0.760754       -20.7012
   7   1.0000      -0.754488       -20.5307
   8   1.0000      -0.721363       -19.6293
   9   1.0000      -0.528823       -14.3900
  10   1.0000      -0.499528       -13.5928
  11   0.0000       0.017717         0.4821
  12   0.0000       0.093357         2.5404
  13   0.0000       0.095412         2.5963
  14   0.0000       0.101571         2.7639
  15   0.0000       0.114854         3.1253

MULLIKEN ATOMIC CHARGES AND SPIN POPULATIONS
--------------------------------------------
   0 O :   -0.324823    0.257652
   1 N :    0.649646    0.484697
   2 O :   -0.324823    0.257652
Sum of atomic charges         :    0.0000000

LOEWDIN ATOMIC CHARGES AND SPIN POPULATIONS
-------------------------------------------
   0 O :    0.275304    0.276696
   1 N :   -0.550608    0.446608
   2 O :    0.275304    0.276696

  Mayer bond orders larger than 0.100000
B(  0-O ,  1-N ) :   1.6445 B(  0-O ,  2-O ) :   0.1562 B(  1-N ,  2-O ) :   1.6445

MP2 TOTAL ENERGY:     -204.795090717 Eh
FINAL SINGLE POINT ENERGY      -204.795090717125

DIPOLE MOMENT
-------------
                                X             Y             Z
Electronic contribution:     -0.00000       0.25984       0.00000
Nuclear contribution   :      0.00000      -0.00237       0.00000
                        -----------------------------------------
Total Dipole Moment    :     -0.00000       0.25747       0.00000
                        -----------------------------------------
Magnitude (a.u.)       :      0.25747
Magnitude (Debye)      :      0.65444

Rotational constants in cm-1:     8.256693     0.440939     0.418585
Rotational constants in MHz : 247529.415491 13219.030802 12548.872350

                             ****ORCA TERMINATED NORMALLY****
TOTAL RUN TIME: 0 days 0 hours 0 minutes 11 seconds 109 msec
