                         Program Version 4.2.1 -  RELEASE  -
|  1> %pal
|  2>  nprocs 32
|  3> end
|  4> !RI-MP2 aug-cc-pVTZ aug-cc-pVTZ/C TightSCF
|  5> %maxcore 4500
|  6> *xyzfile 0 1  10_87R.xyz
|  7>
|  8>
|  9>                          ****END OF INPUT****

CARTESIAN COORDINATES (ANGSTROEM)
---------------------------------
  O     -1.029040    0.924826   -0.533149
  C     -1.638011    0.194659    0.449530
  C     -1.294972    0.112202    1.726008
  C     -2.822600   -0.559040   -0.095267
  O     -3.050756   -0.368531   -1.400259
  O     -3.506394   -1.272333    0.576667
  C     -0.015363    1.850430   -0.178612
  C      1.339475    1.246188   -0.026552
  C      1.645445   -0.024948   -0.240928
  C      3.039342   -0.482779   -0.068769
  O      3.969583    0.200237    0.272499
  O      3.163161   -1.794339   -0.343994
  H     -2.387871    0.247381   -1.746723
  H      4.091765   -2.032352   -0.213269
  H     -0.433739    0.612801    2.143004
  H     -1.904288   -0.504011    2.370459
  H      0.006034    2.586379   -0.985708
  H     -0.305003    2.380410    0.735389
  H      0.909695   -0.759705   -0.539427
  H      2.131064    1.929963    0.269701

 Total Charge           Charge          ....    0
 Multiplicity           Mult            ....    1
 Number of Electrons    NEL             ....   90
 Basis Dimension        Dim             ....  736

ORBITAL ENERGIES
----------------

  NO   OCC          E(Eh)            E(eV)
   0   2.0000     -20.630878      -561.3947
   1   2.0000     -20.623051      -561.1818
   2   2.0000     -20.614848      -560.9585
   3   2.0000     -20.555551      -559.3450
   4   2.0000     -20.548705      -559.1587
   5   2.0000     -11.398491      -310.1687
   6   2.0000     -11.394703      -310.0656
   7   2.0000     -11.334682      -308.4324
   8   2.0000     -11.332016      -308.3598
   9   2.0000     -11.285633      -307.0977
  10   2.0000     -11.262425      -306.4662
  11   2.0000     -11.255740      -306.2842
  12   2.0000      -1.481502       -40.3137
  13   2.0000      -1.478104       -40.2212
  14   2.0000      -1.447229       -39.3811
  15   2.0000      -1.373883       -37.3853
  16   2.0000      -1.372738       -37.3541
  17   2.0000      -1.128833       -30.7171
  18   2.0000      -1.081691       -29.4343
  19   2.0000      -1.008407       -27.4402
  20   2.0000      -0.912089       -24.8192
  21   2.0000      -0.876187       -23.8422
  22   2.0000      -0.820469       -22.3261
  23   2.0000      -0.787063       -21.4171
  24   2.0000      -0.756420       -20.5832
  25   2.0000      -0.742034       -20.1918
  26   2.0000      -0.717268       -19.5179
  27   2.0000      -0.701888       -19.0993
  28   2.0000      -0.675307       -18.3760
  29   2.0000      -0.662809       -18.0359
  30   2.0000      -0.651814       -17.7368
  31   2.0000      -0.644007       -17.5243
  32   2.0000      -0.635696       -17.2982
  33   2.0000      -0.616000       -16.7622
  34   2.0000      -0.607546       -16.5322
  35   2.0000      -0.586174       -15.9506
  36   2.0000      -0.566262       -15.4088
  37   2.0000      -0.556383       -15.1400
  38   2.0000      -0.539552       -14.6819
  39   2.0000      -0.500522       -13.6199
  40   2.0000      -0.490080       -13.3358
  41   2.0000      -0.468535       -12.7495
  42   2.0000      -0.462464       -12.5843
  43   2.0000      -0.411862       -11.2073
  44   2.0000      -0.381220       -10.3735
  45   0.0000       0.019378         0.5273
  46   0.0000       0.029081         0.7913
  47   0.0000       0.030360         0.8261
  48   0.0000       0.038303         1.0423
  49   0.0000       0.045816         1.2467

MULLIKEN ATOMIC CHARGES
-----------------------
   0 O :   -0.805194
   1 C :    1.097136
   2 C :   -1.197326
   3 C :    0.642990
   4 O :   -0.515673
   5 O :   -0.767301
   6 C :    0.035725
   7 C :   -0.260001
   8 C :   -0.117022
   9 C :    0.416985
  10 O :   -0.840522
  11 O :   -0.442676
  12 H :    0.321048
  13 H :    0.257860
  14 H :    0.464315
  15 H :    0.309169
  16 H :    0.483793
  17 H :    0.353249
  18 H :    0.304442
  19 H :    0.259003
Sum of atomic charges:   -0.0000000

LOEWDIN ATOMIC CHARGES
----------------------
   0 O :    0.596222
   1 C :   -0.388407
   2 C :    0.546565
   3 C :   -0.818422
   4 O :    0.847610
   5 O :    0.445672
   6 C :    0.055444
   7 C :    0.227813
   8 C :    0.197385
   9 C :   -0.842871
  10 O :    0.447778
  11 O :    0.829674
  12 H :   -0.570576
  13 H :   -0.468633
  14 H :   -0.212624
  15 H :   -0.218667
  16 H :   -0.145087
  17 H :   -0.159987
  18 H :   -0.200479
  19 H :   -0.168408

  Mayer bond orders larger than 0.100000
B(  0-O ,  1-C ) :   0.6315 B(  0-O ,  2-C ) :  -0.1477 B(  0-O ,  6-C ) :   0.7895
B(  1-C ,  2-C ) :   1.2352 B(  1-C ,  3-C ) :   0.7216 B(  1-C ,  5-O ) :  -0.1268
B(  2-C , 14-H ) :   0.8467 B(  2-C , 15-H ) :   1.0262 B(  3-C ,  4-O ) :   0.8237
B(  3-C ,  5-O ) :   1.4686 B(  4-O , 12-H ) :   0.8563 B(  6-C ,  7-C ) :   0.6008
B(  6-C , 16-H ) :   0.8788 B(  6-C , 17-H ) :   0.9498 B(  7-C ,  8-C ) :   1.1243
B(  7-C , 16-H ) :  -0.1611 B(  7-C , 19-H ) :   1.0438 B(  8-C ,  9-C ) :   0.4745
B(  8-C , 18-H ) :   1.1404 B(  9-C , 10-O ) :   1.3711 B(  9-C , 11-O ) :   0.9894
B(  9-C , 18-H ) :  -0.1052 B( 11-O , 13-H ) :   0.9541

MP2 TOTAL ENERGY:     -646.599609193 Eh
FINAL SINGLE POINT ENERGY      -646.599609192885

DIPOLE MOMENT
-------------
                                X             Y             Z
Electronic contribution:     -1.01740      -3.08251      -2.08395
Nuclear contribution   :      2.06257       4.34452       1.97459
                        -----------------------------------------
Total Dipole Moment    :      1.04517       1.26202      -0.10936
                        -----------------------------------------
Magnitude (a.u.)       :      1.64226
Magnitude (Debye)      :      4.17430

Rotational constants in cm-1:     0.059901     0.013831     0.012946
Rotational constants in MHz :  1795.797584   414.630642   388.105135

                             ****ORCA TERMINATED NORMALLY****
TOTAL RUN TIME: 0 days 0 hours 6 minutes 15 seconds 429 msec
