                         Program Version 4.2.1 -  RELEASE  -
|  1> %pal
|  2>  nprocs 32
|  3> end
|  4> !RI-MP2 aug-cc-pVTZ aug-cc-pVTZ/C TightSCF
|  5> %maxcore 4500
|  6> *xyzfile 0 1  10_36R.xyz
|  7>
|  8>
|  9>                          ****END OF INPUT****

CARTESIAN COORDINATES (ANGSTROEM)
---------------------------------
  C     -0.593269    1.991182   -0.422484
  H     -0.571381    3.068542   -0.253378
  H     -0.814900    1.825157   -1.494833
  C     -1.690006    1.366152    0.402345
  C     -0.258606   -0.658139    0.655313
  H      0.073049   -0.447459    1.677071
  H     -0.267999   -1.738887    0.520319
  C      0.752395   -0.001362   -0.295692
  H      0.431477   -0.224270   -1.333011
  N      0.708999    1.441058   -0.076264
  C     -2.690677   -0.919042    0.225120
  C     -2.572771    2.102352    1.069038
  C     -4.055021   -0.534485   -0.098614
  C     -5.058251   -1.406842   -0.201284
  C     -1.643676   -0.109577    0.434228
  C     -6.466079   -1.053754   -0.555924
  H     -7.158816   -1.347429    0.238593
  H     -6.576891    0.018803   -0.724701
  H     -6.787264   -1.576177   -1.462206
  C      2.152458   -0.564579   -0.126906
  C      1.794988    2.139050   -0.737793
  H      1.620060    3.213028   -0.649264
  H      1.832131    1.900915   -1.816676
  C      3.104333    1.764069   -0.071431
  H      3.113807    2.177742    0.941477
  C      3.265525    0.268413   -0.012805
  H      3.945821    2.205388   -0.611840
  C      4.531633   -0.295878    0.131149
  H      5.391060    0.360541    0.219022
  C      2.343560   -1.946449   -0.129527
  H      1.493039   -2.606090   -0.250735
  C      4.708555   -1.667866    0.151683
  H      5.700809   -2.088083    0.263190
  C      3.604805   -2.499066    0.011139
  H      3.726811   -3.575466    0.007961
  H     -3.340510    1.648093    1.682454
  H     -2.539837    3.185478    1.034325
  H     -2.508405   -1.990643    0.272794
  H     -4.855180   -2.459673   -0.013434
  H     -4.249245    0.518009   -0.278623

 Total Charge           Charge          ....    0
 Multiplicity           Mult            ....    1
 Number of Electrons    NEL             ....  136
 Basis Dimension        Dim             .... 1357

ORBITAL ENERGIES
----------------

  NO   OCC          E(Eh)            E(eV)
   0   2.0000     -15.549427      -423.1214
   1   2.0000     -11.262909      -306.4793
   2   2.0000     -11.254703      -306.2560
   3   2.0000     -11.250170      -306.1327
   4   2.0000     -11.238186      -305.8066
   5   2.0000     -11.235328      -305.7288
   6   2.0000     -11.234143      -305.6966
   7   2.0000     -11.234067      -305.6945
   8   2.0000     -11.228988      -305.5563
   9   2.0000     -11.228831      -305.5520
  10   2.0000     -11.228257      -305.5364
  11   2.0000     -11.226981      -305.5017
  12   2.0000     -11.226698      -305.4940
  13   2.0000     -11.226162      -305.4794
  14   2.0000     -11.224187      -305.4256
  15   2.0000     -11.223427      -305.4050
  16   2.0000     -11.221394      -305.3496
  17   2.0000     -11.220617      -305.3285
  18   2.0000     -11.218428      -305.2689
  19   2.0000      -1.254399       -34.1339
  20   2.0000      -1.156431       -31.4681
  21   2.0000      -1.125357       -30.6225
  22   2.0000      -1.079077       -29.3632
  23   2.0000      -1.063246       -28.9324
  24   2.0000      -1.053592       -28.6697
  25   2.0000      -1.015821       -27.6419
  26   2.0000      -0.996417       -27.1139
  27   2.0000      -0.965178       -26.2638
  28   2.0000      -0.930054       -25.3081
  29   2.0000      -0.901015       -24.5179
  30   2.0000      -0.857020       -23.3207
  31   2.0000      -0.834897       -22.7187
  32   2.0000      -0.814526       -22.1644
  33   2.0000      -0.803824       -21.8732
  34   2.0000      -0.757109       -20.6020
  35   2.0000      -0.752438       -20.4749
  36   2.0000      -0.702775       -19.1235
  37   2.0000      -0.692311       -18.8387
  38   2.0000      -0.662004       -18.0141
  39   2.0000      -0.654278       -17.8038
  40   2.0000      -0.640287       -17.4231
  41   2.0000      -0.634607       -17.2685
  42   2.0000      -0.618650       -16.8343
  43   2.0000      -0.609781       -16.5930
  44   2.0000      -0.599820       -16.3219
  45   2.0000      -0.591148       -16.0860
  46   2.0000      -0.586060       -15.9475
  47   2.0000      -0.570368       -15.5205
  48   2.0000      -0.566433       -15.4134
  49   2.0000      -0.561933       -15.2910
  50   2.0000      -0.551041       -14.9946
  51   2.0000      -0.543695       -14.7947
  52   2.0000      -0.533489       -14.5170
  53   2.0000      -0.525980       -14.3126
  54   2.0000      -0.519621       -14.1396
  55   2.0000      -0.512003       -13.9323
  56   2.0000      -0.507149       -13.8002
  57   2.0000      -0.493841       -13.4381
  58   2.0000      -0.478697       -13.0260
  59   2.0000      -0.464382       -12.6365
  60   2.0000      -0.456656       -12.4262
  61   2.0000      -0.452423       -12.3110
  62   2.0000      -0.424318       -11.5463
  63   2.0000      -0.370151       -10.0723
  64   2.0000      -0.360655        -9.8139
  65   2.0000      -0.327915        -8.9230
  66   2.0000      -0.321048        -8.7361
  67   2.0000      -0.293100        -7.9756
  68   0.0000       0.025512         0.6942
  69   0.0000       0.028034         0.7629
  70   0.0000       0.028987         0.7888
  71   0.0000       0.035365         0.9623
  72   0.0000       0.036322         0.9884

MULLIKEN ATOMIC CHARGES
-----------------------
   0 C :   -0.782979
   1 H :    0.381904
   2 H :    0.161688
   3 C :    0.727857
   4 C :   -0.784532
   5 H :    0.205242
   6 H :    0.264633
   7 C :    0.221114
   8 H :    0.272451
   9 N :   -0.271228
  10 C :   -0.686706
  11 C :   -1.766410
  12 C :    0.202278
  13 C :   -0.695588
  14 C :    1.590318
  15 C :   -0.818678
  16 H :    0.247339
  17 H :    0.303894
  18 H :    0.265612
  19 C :    1.336819
  20 C :   -0.735071
  21 H :    0.375852
  22 H :    0.219984
  23 C :   -0.618228
  24 H :    0.193283
  25 C :    1.094913
  26 H :    0.215613
  27 C :   -1.109204
  28 H :    0.103986
  29 C :   -1.148273
  30 H :    0.060799
  31 C :   -0.338481
  32 H :    0.580051
  33 C :   -0.648439
  34 H :    0.498885
  35 H :    0.451362
  36 H :    0.226737
  37 H :   -0.305878
  38 H :    0.320908
  39 H :    0.186170
Sum of atomic charges:    0.0000000

LOEWDIN ATOMIC CHARGES
----------------------
   0 C :    0.164479
   1 H :   -0.153800
   2 H :   -0.114689
   3 C :   -0.105994
   4 C :    0.304750
   5 H :   -0.118076
   6 H :   -0.173596
   7 C :   -0.110552
   8 H :   -0.107732
   9 N :    0.313660
  10 C :    0.224169
  11 C :    0.561054
  12 C :    0.187492
  13 C :    0.208156
  14 C :   -0.071106
  15 C :    0.550973
  16 H :   -0.176983
  17 H :   -0.181956
  18 H :   -0.176943
  19 C :   -0.037462
  20 C :    0.167820
  21 H :   -0.140187
  22 H :   -0.113465
  23 C :    0.300150
  24 H :   -0.131516
  25 C :   -0.068488
  26 H :   -0.142875
  27 C :    0.221817
  28 H :   -0.172695
  29 C :    0.226300
  30 H :   -0.183967
  31 C :    0.198904
  32 H :   -0.182896
  33 C :    0.204206
  34 H :   -0.182857
  35 H :   -0.205715
  36 H :   -0.205997
  37 H :   -0.184700
  38 H :   -0.183301
  39 H :   -0.206380

  Mayer bond orders larger than 0.100000
B(  0-C ,  1-H ) :   0.9163 B(  0-C ,  2-H ) :   1.0664 B(  0-C ,  3-C ) :   0.9037
B(  0-C ,  9-N ) :   0.8740 B(  0-C , 11-C ) :   0.2755 B(  1-H ,  9-N ) :  -0.1071
B(  3-C ,  4-C ) :   0.1544 B(  3-C , 11-C ) :   0.6803 B(  3-C , 12-C ) :  -0.1048
B(  3-C , 14-C ) :   0.6304 B(  4-C ,  5-H ) :   1.1056 B(  4-C ,  6-H ) :   0.9810
B(  4-C ,  7-C ) :   0.8260 B(  4-C , 10-C ) :   0.5057 B(  4-C , 14-C ) :   0.6399
B(  4-C , 29-C ) :   0.1044 B(  4-C , 37-H ) :   0.1701 B(  7-C ,  8-H ) :   0.9340
B(  7-C ,  9-N ) :   0.8548 B(  7-C , 14-C ) :   0.1299 B(  7-C , 19-C ) :   0.8253
B(  7-C , 23-C ) :  -0.1602 B(  7-C , 25-C ) :   0.2887 B(  7-C , 29-C ) :   0.5088
B(  8-H ,  9-N ) :  -0.1101 B(  9-N , 19-C ) :  -0.2258 B(  9-N , 20-C ) :   1.0036
B(  9-N , 25-C ) :  -0.1332 B( 10-C , 11-C ) :   0.2469 B( 10-C , 13-C ) :   0.1026
B( 10-C , 14-C ) :   0.2381 B( 10-C , 35-H ) :   0.1307 B( 10-C , 37-H ) :   2.1632
B( 10-C , 38-H ) :  -0.1181 B( 11-C , 14-C ) :  -0.3217 B( 11-C , 35-H ) :   0.8739
B( 11-C , 36-H ) :   1.1783 B( 12-C , 13-C ) :   0.4767 B( 12-C , 14-C ) :   0.3024
B( 12-C , 37-H ) :  -0.1131 B( 12-C , 38-H ) :  -0.1313 B( 12-C , 39-H ) :   1.2735
B( 13-C , 14-C ) :   0.1879 B( 13-C , 15-C ) :   0.6570 B( 13-C , 38-H ) :   1.0058
B( 14-C , 37-H ) :  -0.6353 B( 14-C , 38-H ) :   0.1082 B( 15-C , 16-H ) :   1.0247
B( 15-C , 17-H ) :   0.9355 B( 15-C , 18-H ) :   1.0019 B( 19-C , 23-C ) :   0.2635
B( 19-C , 25-C ) :   0.7551 B( 19-C , 27-C ) :   0.4654 B( 19-C , 30-H ) :  -0.1359
B( 19-C , 31-C ) :  -0.1158 B( 20-C , 21-H ) :   0.8465 B( 20-C , 22-H ) :   1.0647
B( 20-C , 23-C ) :   1.0590 B( 20-C , 25-C ) :   0.1477 B( 23-C , 24-H ) :   1.1267
B( 23-C , 26-H ) :   1.1336 B( 23-C , 27-C ) :   0.1122 B( 23-C , 29-C ) :  -0.1007
B( 24-H , 25-C ) :  -0.1146 B( 25-C , 27-C ) :   0.4036 B( 25-C , 29-C ) :  -0.3332
B( 25-C , 31-C ) :   0.1993 B( 25-C , 33-C ) :   0.1233 B( 27-C , 28-H ) :   1.4081
B( 27-C , 31-C ) :   0.8987 B( 28-H , 31-C ) :  -0.1081 B( 29-C , 30-H ) :   1.5773
B( 29-C , 33-C ) :   1.3264 B( 31-C , 32-H ) :   0.5903 B( 31-C , 33-C ) :   1.0564
B( 32-H , 33-C ) :  -0.1165 B( 33-C , 34-H ) :   0.7004 B( 37-H , 38-H ) :  -0.1321

MP2 TOTAL ENERGY:     -751.679525406 Eh
FINAL SINGLE POINT ENERGY      -751.679525405515

DIPOLE MOMENT
-------------
                                X             Y             Z
Electronic contribution:     12.45479      -1.98488       1.75121
Nuclear contribution   :    -12.53674       2.10938      -2.06464
                        -----------------------------------------
Total Dipole Moment    :     -0.08195       0.12450      -0.31343
                        -----------------------------------------
Magnitude (a.u.)       :      0.34707
Magnitude (Debye)      :      0.88217

Rotational constants in cm-1:     0.027639     0.006224     0.005264
Rotational constants in MHz :   828.588963   186.585501   157.806799

                             ****ORCA TERMINATED NORMALLY****
TOTAL RUN TIME: 0 days 0 hours 48 minutes 25 seconds 341 msec
