                         Program Version 4.2.1 -  RELEASE  -
|  1> %pal
|  2>  nprocs 32
|  3> end
|  4> !RI-MP2 aug-cc-pVTZ aug-cc-pVTZ/C TightSCF
|  5> %maxcore 4500
|  6> *xyzfile -1 1  09_14TS.xyz
|  7>
|  8>
|  9>                          ****END OF INPUT****

CARTESIAN COORDINATES (ANGSTROEM)
---------------------------------
  C      1.789790    0.299995    0.131170
  C      1.127165    1.659448    0.190986
  C     -0.016816    1.808114    0.986840
  O      1.590129    2.552687   -0.554992
  C     -1.461890    1.505101   -0.572950
  C     -2.468317    0.789156   -0.401043
  C     -3.053710   -0.069959    0.628009
  O     -4.303219   -0.688563    0.291479
  C     -4.206930   -1.505543   -0.844718
  H     -0.343197    2.820415    1.190471
  H     -0.268104    1.063991    1.731509
  H     -0.917590    2.145275   -1.245232
  H     -2.345099   -0.871213    0.899397
  H     -3.271035    0.504014    1.532818
  H     -5.203821   -1.899831   -1.049444
  H     -3.847147   -0.935908   -1.708732
  H     -3.517680   -2.347547   -0.674429
  C      3.099187    0.226939   -0.341103
  C      3.766605   -0.986989   -0.415047
  C      3.126464   -2.160723   -0.035100
  C      1.812874   -2.103664    0.415270
  C      1.153076   -0.885397    0.498704
  H      3.565545    1.152330   -0.656041
  H      4.788781   -1.020776   -0.777748
  H      3.642158   -3.112767   -0.099434
  H      1.295039   -3.015347    0.693793
  H      0.121879   -0.854498    0.825080

 Total Charge           Charge          ....   -1
 Multiplicity           Mult            ....    1
 Number of Electrons    NEL             ....  102
 Basis Dimension        Dim             ....  943

ORBITAL ENERGIES
----------------

  NO   OCC          E(Eh)            E(eV)
   0   2.0000     -20.434563      -556.0527
   1   2.0000     -20.342547      -553.5489
   2   2.0000     -11.160804      -303.7009
   3   2.0000     -11.153455      -303.5009
   4   2.0000     -11.149525      -303.3940
   5   2.0000     -11.128592      -302.8244
   6   2.0000     -11.125305      -302.7349
   7   2.0000     -11.124841      -302.7223
   8   2.0000     -11.117994      -302.5360
   9   2.0000     -11.113646      -302.4177
  10   2.0000     -11.112421      -302.3843
  11   2.0000     -11.097076      -301.9668
  12   2.0000     -11.044993      -300.5495
  13   2.0000     -11.040463      -300.4263
  14   2.0000      -1.250807       -34.0362
  15   2.0000      -1.178938       -32.0805
  16   2.0000      -1.040628       -28.3169
  17   2.0000      -0.916503       -24.9393
  18   2.0000      -0.904415       -24.6104
  19   2.0000      -0.902461       -24.5572
  20   2.0000      -0.837092       -22.7784
  21   2.0000      -0.815399       -22.1881
  22   2.0000      -0.747598       -20.3432
  23   2.0000      -0.720666       -19.6103
  24   2.0000      -0.707166       -19.2430
  25   2.0000      -0.615752       -16.7555
  26   2.0000      -0.579072       -15.7574
  27   2.0000      -0.568731       -15.4760
  28   2.0000      -0.538160       -14.6441
  29   2.0000      -0.536315       -14.5939
  30   2.0000      -0.514813       -14.0088
  31   2.0000      -0.507108       -13.7991
  32   2.0000      -0.503055       -13.6888
  33   2.0000      -0.485151       -13.2016
  34   2.0000      -0.474400       -12.9091
  35   2.0000      -0.442665       -12.0455
  36   2.0000      -0.433389       -11.7931
  37   2.0000      -0.418029       -11.3751
  38   2.0000      -0.405090       -11.0231
  39   2.0000      -0.403364       -10.9761
  40   2.0000      -0.376748       -10.2518
  41   2.0000      -0.367982       -10.0133
  42   2.0000      -0.365556        -9.9473
  43   2.0000      -0.354209        -9.6385
  44   2.0000      -0.310826        -8.4580
  45   2.0000      -0.264619        -7.2007
  46   2.0000      -0.248082        -6.7507
  47   2.0000      -0.228288        -6.2120
  48   2.0000      -0.219805        -5.9812
  49   2.0000      -0.215005        -5.8506
  50   2.0000      -0.101771        -2.7693
  51   0.0000       0.092741         2.5236
  52   0.0000       0.100700         2.7402
  53   0.0000       0.105751         2.8776
  54   0.0000       0.112767         3.0686
  55   0.0000       0.119324         3.2470

MULLIKEN ATOMIC CHARGES
-----------------------
   0 C :    1.403749
   1 C :    1.023082
   2 C :   -0.950390
   3 O :   -1.219250
   4 C :   -0.311819
   5 C :   -0.611412
   6 C :    0.004944
   7 O :   -0.685750
   8 C :   -0.883922
   9 H :    0.365701
  10 H :    0.186198
  11 H :    0.420689
  12 H :    0.273869
  13 H :    0.404570
  14 H :    0.360893
  15 H :    0.364720
  16 H :    0.306036
  17 C :   -0.967011
  18 C :   -0.570851
  19 C :   -0.160047
  20 C :   -1.129360
  21 C :   -0.584614
  22 H :    0.139917
  23 H :    0.477791
  24 H :    0.491147
  25 H :    0.365138
  26 H :    0.485978
Sum of atomic charges:   -1.0000000

LOEWDIN ATOMIC CHARGES
----------------------
   0 C :   -0.118708
   1 C :   -0.693011
   2 C :    0.329934
   3 O :    0.368074
   4 C :    0.257380
   5 C :    0.013384
   6 C :   -0.114480
   7 O :    0.516672
   8 C :    0.259169
   9 H :   -0.232456
  10 H :   -0.253385
  11 H :   -0.286372
  12 H :   -0.186819
  13 H :   -0.183774
  14 H :   -0.200909
  15 H :   -0.211659
  16 H :   -0.184997
  17 C :    0.194432
  18 C :    0.176218
  19 C :    0.165248
  20 C :    0.183250
  21 C :    0.202328
  22 H :   -0.201864
  23 H :   -0.195272
  24 H :   -0.197725
  25 H :   -0.193037
  26 H :   -0.211621

  Mayer bond orders larger than 0.100000
B(  0-C ,  1-C ) :   0.3503 B(  0-C , 17-C ) :   0.4998 B(  0-C , 18-C ) :   0.1601
B(  0-C , 20-C ) :   0.1209 B(  0-C , 21-C ) :   0.8302 B(  0-C , 22-H ) :  -0.1232
B(  0-C , 23-H ) :  -0.1099 B(  0-C , 24-H ) :   0.1650 B(  0-C , 25-H ) :  -0.1344
B(  1-C ,  2-C ) :   1.1381 B(  1-C ,  3-O ) :   0.6903 B(  1-C ,  9-H ) :  -0.1174
B(  1-C , 17-C ) :   0.3425 B(  1-C , 19-C ) :   0.1670 B(  1-C , 20-C ) :  -0.1417
B(  1-C , 22-H ) :  -0.2097 B(  1-C , 23-H ) :   0.1649 B(  2-C ,  4-C ) :   0.5203
B(  2-C ,  9-H ) :   0.8110 B(  2-C , 10-H ) :   1.1737 B(  3-O , 22-H ) :   0.1175
B(  4-C ,  5-C ) :   1.7961 B(  4-C , 11-H ) :   1.0012 B(  5-C ,  6-C ) :   1.1064
B(  5-C , 11-H ) :  -0.1588 B(  6-C ,  7-O ) :   0.5665 B(  6-C , 12-H ) :   0.9094
B(  6-C , 13-H ) :   0.8874 B(  7-O ,  8-C ) :   1.0133 B(  8-C , 14-H ) :   0.9237
B(  8-C , 15-H ) :   0.8511 B(  8-C , 16-H ) :   0.8969 B( 17-C , 18-C ) :   1.0110
B( 17-C , 19-C ) :  -0.1674 B( 17-C , 20-C ) :   0.1577 B( 17-C , 21-C ) :  -0.3510
B( 17-C , 22-H ) :   1.3778 B( 17-C , 23-H ) :  -0.1190 B( 17-C , 24-H ) :   0.1487
B( 18-C , 19-C ) :   1.0726 B( 18-C , 20-C ) :   0.1217 B( 18-C , 22-H ) :  -0.1042
B( 18-C , 23-H ) :   0.7564 B( 18-C , 24-H ) :  -0.1352 B( 19-C , 20-C ) :   1.1112
B( 19-C , 21-C ) :  -0.1846 B( 19-C , 24-H ) :   0.7683 B( 20-C , 21-C ) :   1.1203
B( 20-C , 24-H ) :  -0.2011 B( 20-C , 25-H ) :   0.9211 B( 20-C , 26-H ) :  -0.1261
B( 21-C , 22-H ) :   0.2358 B( 21-C , 24-H ) :  -0.1039 B( 21-C , 26-H ) :   0.8237

MP2 TOTAL ENERGY:     -614.267640730 Eh
FINAL SINGLE POINT ENERGY      -614.267640729974

DIPOLE MOMENT
-------------
                                X             Y             Z
Electronic contribution:      7.18518       3.69361      -0.16347
Nuclear contribution   :     -6.35817      -6.35760       0.65942
                        -----------------------------------------
Total Dipole Moment    :      0.82701      -2.66400       0.49595
                        -----------------------------------------
Magnitude (a.u.)       :      2.83316
Magnitude (Debye)      :      7.20132

Rotational constants in cm-1:     0.034600     0.011566     0.009261
Rotational constants in MHz :  1037.289943   346.726561   277.624117

                             ****ORCA TERMINATED NORMALLY****
TOTAL RUN TIME: 0 days 0 hours 15 minutes 6 seconds 583 msec
