                         Program Version 4.2.1 -  RELEASE  -
|  1> %pal
|  2>  nprocs 32
|  3> end
|  4> !RI-MP2 aug-cc-pVTZ aug-cc-pVTZ/C TightSCF
|  5> %maxcore 4500
|  6> *xyzfile 0 1  10_48TS.xyz
|  7>
|  8>
|  9>                          ****END OF INPUT****

CARTESIAN COORDINATES (ANGSTROEM)
---------------------------------
  C      2.912111    0.185060    0.192950
  C      1.927244    1.353843    0.341131
  C      0.519082    0.823287    0.314061
  C      0.259604   -0.533235    0.276224
  C      1.146730   -1.523131   -0.428923
  C      2.429022   -0.803479   -0.874446
  H      2.065542    2.064680   -0.480303
  H      2.118433    1.911443    1.264962
  H      3.905420    0.564123   -0.058281
  H      3.007433   -0.341912    1.148715
  H      1.404426   -2.352847    0.240016
  H      0.646296   -1.977311   -1.293395
  H      3.208111   -1.535018   -1.101281
  H      2.233347   -0.251206   -1.800472
  C     -2.009677    0.011538   -1.403474
  C     -1.805605    1.392901   -0.785081
  C     -1.109807   -0.679031    0.680202
  C     -2.166963   -1.049343   -0.289586
  H     -1.139160   -0.251569   -2.009489
  H     -2.742067    1.694881   -0.298537
  H     -1.659081    2.117944   -1.598467
  H     -3.146408   -0.999477    0.189837
  H     -2.035144   -2.058569   -0.689697
  H     -2.875800    0.017187   -2.069509
  O     -1.502870   -0.643624    1.974640
  H     -0.741579   -0.373112    2.504418
  C     -0.686714    1.551255    0.236100
  H     -0.716966    2.541778    0.699419

 Total Charge           Charge          ....    0
 Multiplicity           Mult            ....    1
 Number of Electrons    NEL             ....   90
 Basis Dimension        Dim             ....  920

ORBITAL ENERGIES
----------------

  NO   OCC          E(Eh)            E(eV)
   0   2.0000     -20.594597      -560.4075
   1   2.0000     -11.335759      -308.4617
   2   2.0000     -11.232573      -305.6539
   3   2.0000     -11.226325      -305.4838
   4   2.0000     -11.223359      -305.4031
   5   2.0000     -11.220318      -305.3204
   6   2.0000     -11.218735      -305.2773
   7   2.0000     -11.216545      -305.2177
   8   2.0000     -11.215434      -305.1875
   9   2.0000     -11.214554      -305.1635
  10   2.0000     -11.199149      -304.7443
  11   2.0000     -11.195136      -304.6351
  12   2.0000      -1.414319       -38.4856
  13   2.0000      -1.147914       -31.2363
  14   2.0000      -1.090100       -29.6631
  15   2.0000      -1.029582       -28.0163
  16   2.0000      -1.014256       -27.5993
  17   2.0000      -0.980544       -26.6820
  18   2.0000      -0.890252       -24.2250
  19   2.0000      -0.860212       -23.4076
  20   2.0000      -0.840256       -22.8645
  21   2.0000      -0.783893       -21.3308
  22   2.0000      -0.749264       -20.3885
  23   2.0000      -0.734571       -19.9887
  24   2.0000      -0.661367       -17.9967
  25   2.0000      -0.650066       -17.6892
  26   2.0000      -0.628443       -17.1008
  27   2.0000      -0.620848       -16.8941
  28   2.0000      -0.601044       -16.3552
  29   2.0000      -0.591253       -16.0888
  30   2.0000      -0.578869       -15.7518
  31   2.0000      -0.559450       -15.2234
  32   2.0000      -0.554281       -15.0828
  33   2.0000      -0.538128       -14.6432
  34   2.0000      -0.527365       -14.3503
  35   2.0000      -0.516636       -14.0584
  36   2.0000      -0.509377       -13.8608
  37   2.0000      -0.480231       -13.0677
  38   2.0000      -0.478734       -13.0270
  39   2.0000      -0.467706       -12.7269
  40   2.0000      -0.464317       -12.6347
  41   2.0000      -0.445402       -12.1200
  42   2.0000      -0.440756       -11.9936
  43   2.0000      -0.332173        -9.0389
  44   2.0000      -0.239048        -6.5048
  45   0.0000       0.027463         0.7473
  46   0.0000       0.031155         0.8478
  47   0.0000       0.033335         0.9071
  48   0.0000       0.034338         0.9344
  49   0.0000       0.044691         1.2161

MULLIKEN ATOMIC CHARGES
-----------------------
   0 C :   -0.556366
   1 C :   -0.519572
   2 C :    0.596346
   3 C :   -0.091633
   4 C :   -0.608866
   5 C :   -0.518670
   6 H :    0.105576
   7 H :    0.284477
   8 H :    0.307174
   9 H :    0.151361
  10 H :    0.198709
  11 H :    0.265931
  12 H :    0.316720
  13 H :    0.155212
  14 C :   -0.548442
  15 C :   -0.286570
  16 C :    0.812903
  17 C :   -0.415757
  18 H :    0.201617
  19 H :    0.110910
  20 H :    0.274013
  21 H :    0.313962
  22 H :    0.311903
  23 H :    0.379236
  24 O :   -0.975795
  25 H :    0.194772
  26 C :   -0.665082
  27 H :    0.205932
Sum of atomic charges:   -0.0000000

LOEWDIN ATOMIC CHARGES
----------------------
   0 C :    0.288954
   1 C :    0.309512
   2 C :   -0.131576
   3 C :   -0.087803
   4 C :    0.291881
   5 C :    0.292196
   6 H :   -0.144438
   7 H :   -0.138603
   8 H :   -0.142816
   9 H :   -0.139567
  10 H :   -0.148443
  11 H :   -0.146572
  12 H :   -0.141662
  13 H :   -0.137503
  14 C :    0.289498
  15 C :    0.254299
  16 C :   -0.323640
  17 C :    0.323045
  18 H :   -0.149357
  19 H :   -0.150517
  20 H :   -0.147756
  21 H :   -0.143009
  22 H :   -0.131168
  23 H :   -0.135699
  24 O :    0.875806
  25 H :   -0.457281
  26 C :    0.252308
  27 H :   -0.180091

  Mayer bond orders larger than 0.100000
B(  0-C ,  1-C ) :   0.9438 B(  0-C ,  4-C ) :   0.1217 B(  0-C ,  5-C ) :   0.8847
B(  0-C ,  8-H ) :   0.9366 B(  0-C ,  9-H ) :   1.0587 B(  1-C ,  2-C ) :   0.4007
B(  1-C ,  5-C ) :   0.1178 B(  1-C ,  6-H ) :   1.1635 B(  1-C ,  7-H ) :   1.0356
B(  1-C , 16-C ) :  -0.1091 B(  1-C , 26-C ) :  -0.1158 B(  2-C ,  3-C ) :   1.7478
B(  2-C , 15-C ) :   0.1402 B(  2-C , 26-C ) :   0.6299 B(  2-C , 27-H ) :  -0.1404
B(  3-C ,  4-C ) :   0.4356 B(  3-C , 10-H ) :  -0.1038 B(  3-C , 16-C ) :   0.7291
B(  3-C , 26-C ) :   0.1299 B(  4-C ,  5-C ) :   0.9496 B(  4-C , 10-H ) :   1.0966
B(  4-C , 11-H ) :   1.0438 B(  4-C , 26-C ) :  -0.1829 B(  5-C , 12-H ) :   0.9115
B(  5-C , 13-H ) :   1.0841 B( 14-C , 15-C ) :   0.8704 B( 14-C , 17-C ) :   0.8763
B( 14-C , 18-H ) :   1.0454 B( 14-C , 23-H ) :   0.8386 B( 14-C , 26-C ) :   0.1081
B( 15-C , 16-C ) :  -0.1104 B( 15-C , 17-C ) :   0.1365 B( 15-C , 19-H ) :   1.1489
B( 15-C , 20-H ) :   0.9357 B( 15-C , 26-C ) :   0.5206 B( 16-C , 17-C ) :   0.7235
B( 16-C , 26-C ) :   0.8881 B( 17-C , 21-H ) :   0.9071 B( 17-C , 22-H ) :   0.9411
B( 24-O , 25-H ) :   1.0426 B( 24-O , 26-C ) :   0.1319 B( 26-C , 27-H ) :   1.0569

MP2 TOTAL ENERGY:     -502.898275637 Eh
FINAL SINGLE POINT ENERGY      -502.898275637392

DIPOLE MOMENT
-------------
                                X             Y             Z
Electronic contribution:     -3.42010      -1.06150       5.30153
Nuclear contribution   :      3.61120       0.78300      -5.47574
                        -----------------------------------------
Total Dipole Moment    :      0.19110      -0.27850      -0.17421
                        -----------------------------------------
Magnitude (a.u.)       :      0.38004
Magnitude (Debye)      :      0.96598

Rotational constants in cm-1:     0.051008     0.025256     0.023692
Rotational constants in MHz :  1529.182986   757.149360   710.266669

                             ****ORCA TERMINATED NORMALLY****
TOTAL RUN TIME: 0 days 0 hours 17 minutes 59 seconds 360 msec
