                         Program Version 4.2.1 -  RELEASE  -
|  1> %pal
|  2>  nprocs 32
|  3> end
|  4> !RI-MP2 aug-cc-pVTZ aug-cc-pVTZ/C TightSCF
|  5> %maxcore 4500
|  6> *xyzfile 1 1  10_17R.xyz
|  7>
|  8>
|  9>                          ****END OF INPUT****

CARTESIAN COORDINATES (ANGSTROEM)
---------------------------------
  C      0.955350    1.985904    0.442910
  N     -0.153710    1.690217   -0.061252
  N     -1.165461    1.505865   -0.678135
  C     -2.056843    0.486666   -0.309587
  C     -3.240204    0.448730   -1.045314
  C     -1.785098   -0.442085    0.701082
  C     -4.178718   -0.525378   -0.753435
  H     -3.402328    1.182539   -1.824343
  C     -2.726631   -1.409960    0.974428
  H     -0.848305   -0.416424    1.244339
  C     -3.920965   -1.447877    0.251807
  H     -5.106024   -0.568560   -1.309001
  H     -2.539380   -2.143721    1.747436
  H     -4.654072   -2.212565    0.477066
  C      2.187770    1.246163    0.000151
  H      2.959538    1.996686   -0.198204
  H      2.525698    0.693618    0.882855
  C      1.029322    3.028130    1.517164
  H      0.047217    3.406521    1.791706
  H      1.520200    2.607004    2.396274
  H      1.645843    3.854491    1.156121
  C      1.769800   -2.367657    1.380391
  C      2.287751   -2.352301    0.159463
  H      2.213705   -1.799864    2.192940
  H      0.917451   -2.989445    1.627164
  C      3.486780   -1.556279   -0.259459
  H      3.884896   -1.011890    0.601830
  H      4.280660   -2.240566   -0.572617
  H      1.827267   -2.963244   -0.615180
  C      3.193144   -0.602582   -1.427460
  C      1.993759    0.314542   -1.189673
  H      1.112533   -0.310796   -1.019375
  H      1.797617    0.905014   -2.088197
  H      4.085838   -0.008448   -1.641876
  H      2.994527   -1.189030   -2.328043

 Total Charge           Charge          ....    1
 Multiplicity           Mult            ....    1
 Number of Electrons    NEL             ....  116
 Basis Dimension        Dim             .... 1173

ORBITAL ENERGIES
----------------

  NO   OCC          E(Eh)            E(eV)
   0   2.0000     -15.860372      -431.5827
   1   2.0000     -15.857605      -431.5074
   2   2.0000     -11.511441      -313.2422
   3   2.0000     -11.423425      -310.8472
   4   2.0000     -11.397258      -310.1352
   5   2.0000     -11.394222      -310.0525
   6   2.0000     -11.391795      -309.9865
   7   2.0000     -11.390124      -309.9410
   8   2.0000     -11.382487      -309.7332
   9   2.0000     -11.372787      -309.4693
  10   2.0000     -11.368676      -309.3574
  11   2.0000     -11.356632      -309.0297
  12   2.0000     -11.338258      -308.5297
  13   2.0000     -11.338161      -308.5270
  14   2.0000     -11.332460      -308.3719
  15   2.0000     -11.324229      -308.1479
  16   2.0000      -1.612645       -43.8823
  17   2.0000      -1.374080       -37.3906
  18   2.0000      -1.300186       -35.3799
  19   2.0000      -1.224854       -33.3300
  20   2.0000      -1.194135       -32.4941
  21   2.0000      -1.168320       -31.7916
  22   2.0000      -1.165924       -31.7264
  23   2.0000      -1.136660       -30.9301
  24   2.0000      -1.103567       -30.0296
  25   2.0000      -1.033199       -28.1148
  26   2.0000      -1.020574       -27.7712
  27   2.0000      -0.981772       -26.7154
  28   2.0000      -0.929203       -25.2849
  29   2.0000      -0.905962       -24.6525
  30   2.0000      -0.863964       -23.5097
  31   2.0000      -0.857045       -23.3214
  32   2.0000      -0.844622       -22.9833
  33   2.0000      -0.824404       -22.4332
  34   2.0000      -0.818410       -22.2701
  35   2.0000      -0.789961       -21.4959
  36   2.0000      -0.759599       -20.6697
  37   2.0000      -0.752314       -20.4715
  38   2.0000      -0.746450       -20.3119
  39   2.0000      -0.738060       -20.0836
  40   2.0000      -0.732580       -19.9345
  41   2.0000      -0.722130       -19.6502
  42   2.0000      -0.719506       -19.5788
  43   2.0000      -0.711901       -19.3718
  44   2.0000      -0.687087       -18.6966
  45   2.0000      -0.670205       -18.2372
  46   2.0000      -0.660339       -17.9687
  47   2.0000      -0.655165       -17.8279
  48   2.0000      -0.641859       -17.4659
  49   2.0000      -0.633140       -17.2286
  50   2.0000      -0.620809       -16.8931
  51   2.0000      -0.602621       -16.3982
  52   2.0000      -0.587196       -15.9784
  53   2.0000      -0.578514       -15.7422
  54   2.0000      -0.569640       -15.5007
  55   2.0000      -0.483207       -13.1487
  56   2.0000      -0.482413       -13.1271
  57   2.0000      -0.468696       -12.7539
  58   0.0000      -0.110008        -2.9935
  59   0.0000      -0.067300        -1.8313
  60   0.0000      -0.054515        -1.4834
  61   0.0000      -0.053301        -1.4504
  62   0.0000      -0.047554        -1.2940

MULLIKEN ATOMIC CHARGES
-----------------------
   0 C :    0.599725
   1 N :    0.464771
   2 N :   -1.330965
   3 C :    1.266823
   4 C :   -0.871078
   5 C :   -0.393537
   6 C :   -0.537897
   7 H :    0.702010
   8 C :   -1.036429
   9 H :    0.783005
  10 C :   -0.342318
  11 H :    0.361759
  12 H :    0.376516
  13 H :    0.591182
  14 C :   -0.253119
  15 H :    0.233198
  16 H :    0.364973
  17 C :   -1.095143
  18 H :    0.303551
  19 H :    0.314331
  20 H :    0.371738
  21 C :   -1.103715
  22 C :    0.082690
  23 H :    0.108759
  24 H :    0.647531
  25 C :   -0.241044
  26 H :    0.022173
  27 H :    0.436577
  28 H :    0.065156
  29 C :   -0.510028
  30 C :   -0.495778
  31 H :    0.320958
  32 H :    0.343946
  33 H :    0.227371
  34 H :    0.222309
Sum of atomic charges:    1.0000000

LOEWDIN ATOMIC CHARGES
----------------------
   0 C :   -0.138509
   1 N :    0.298222
   2 N :    0.367366
   3 C :   -0.269892
   4 C :    0.230411
   5 C :    0.224326
   6 C :    0.239543
   7 H :   -0.159218
   8 C :    0.235453
   9 H :   -0.176231
  10 C :    0.246680
  11 H :   -0.166587
  12 H :   -0.168096
  13 H :   -0.157634
  14 C :    0.323708
  15 H :   -0.114451
  16 H :   -0.150368
  17 C :    0.659024
  18 H :   -0.152175
  19 H :   -0.144039
  20 H :   -0.141425
  21 C :    0.527202
  22 C :    0.177683
  23 H :   -0.212245
  24 H :   -0.219469
  25 C :    0.266086
  26 H :   -0.162518
  27 H :   -0.135044
  28 H :   -0.165089
  29 C :    0.309860
  30 C :    0.286620
  31 H :   -0.168541
  32 H :   -0.125598
  33 H :   -0.131620
  34 H :   -0.133435

  Mayer bond orders larger than 0.100000
B(  0-C ,  1-N ) :   1.1779 B(  0-C ,  2-N ) :  -0.4823 B(  0-C , 14-C ) :   0.6489
B(  0-C , 17-C ) :   0.5567 B(  1-N ,  2-N ) :  -0.2497 B(  1-N ,  3-C ) :   0.3111
B(  1-N ,  9-H ) :  -0.2207 B(  1-N , 30-C ) :  -0.1212 B(  2-N ,  3-C ) :   0.2892
B(  2-N ,  4-C ) :   0.1946 B(  2-N ,  5-C ) :  -0.4876 B(  2-N ,  9-H ) :   0.1169
B(  3-C ,  4-C ) :   0.5905 B(  3-C ,  5-C ) :   0.7053 B(  3-C ,  6-C ) :  -0.2277
B(  3-C ,  7-H ) :   0.1157 B(  3-C ,  8-C ) :  -0.2450 B(  4-C ,  5-C ) :   0.3605
B(  4-C ,  6-C ) :   1.2117 B(  4-C ,  7-H ) :   0.2557 B(  4-C , 10-C ) :   0.2496
B(  5-C ,  8-C ) :   1.1695 B(  5-C ,  9-H ) :   0.3747 B(  5-C , 10-C ) :   0.1065
B(  6-C , 10-C ) :   1.1027 B(  6-C , 11-H ) :   0.9841 B(  8-C ,  9-H ) :  -0.1855
B(  8-C , 10-C ) :   1.2403 B(  8-C , 12-H ) :   0.9607 B( 10-C , 13-H ) :   0.5952
B( 14-C , 15-H ) :   0.9766 B( 14-C , 16-H ) :   0.8504 B( 14-C , 17-C ) :   0.1586
B( 14-C , 30-C ) :   0.8278 B( 17-C , 18-H ) :   0.9849 B( 17-C , 19-H ) :   0.9751
B( 17-C , 20-H ) :   0.9155 B( 21-C , 22-C ) :   1.2174 B( 21-C , 23-H ) :   1.4021
B( 21-C , 24-H ) :   0.3929 B( 21-C , 28-H ) :   0.1119 B( 22-C , 25-C ) :   0.7973
B( 22-C , 26-H ) :   0.1452 B( 22-C , 27-H ) :  -0.1462 B( 22-C , 28-H ) :   1.1941
B( 25-C , 26-H ) :   1.1047 B( 25-C , 27-H ) :   0.8613 B( 25-C , 29-C ) :   0.9296
B( 29-C , 30-C ) :   0.9044 B( 29-C , 33-H ) :   1.0048 B( 29-C , 34-H ) :   0.9871
B( 30-C , 31-H ) :   0.9177 B( 30-C , 32-H ) :   0.9114

MP2 TOTAL ENERGY:     -652.745071371 Eh
FINAL SINGLE POINT ENERGY      -652.745071370662

DIPOLE MOMENT
-------------
                                X             Y             Z
Electronic contribution:    -15.69832       4.64603      -2.07121
Nuclear contribution   :     15.56790      -3.25532       2.56815
                        -----------------------------------------
Total Dipole Moment    :     -0.13041       1.39071       0.49694
                        -----------------------------------------
Magnitude (a.u.)       :      1.48258
Magnitude (Debye)      :      3.76842

Rotational constants in cm-1:     0.022786     0.010806     0.008730
Rotational constants in MHz :   683.117488   323.955681   261.713081

                             ****ORCA TERMINATED NORMALLY****
TOTAL RUN TIME: 0 days 0 hours 34 minutes 14 seconds 446 msec
