                         Program Version 4.2.1 -  RELEASE  -
|  1> %pal
|  2>  nprocs 32
|  3> end
|  4> !RI-MP2 aug-cc-pVTZ aug-cc-pVTZ/C TightSCF
|  5> %maxcore 4500
|  6> *xyzfile 0 1  02_42P.xyz
|  7>
|  8>
|  9>                          ****END OF INPUT****

CARTESIAN COORDINATES (ANGSTROEM)
---------------------------------
  C      0.501536   -1.147049    0.407105
  C      0.222844   -0.517003    1.737293
  C      0.921261    1.198871    0.322218
  C      0.451546    0.798490    1.686007
  S      2.098734   -0.238463    0.024082
  O      2.408845   -0.347273   -1.434732
  C     -2.465033    0.672417    0.017792
  C     -0.437570   -0.576487   -0.680684
  C     -0.135614    0.934899   -0.769005
  H     -2.510155    0.758161    1.107418
  H     -3.486644    0.754818   -0.353407
  C     -1.482085    1.676613   -0.593884
  H     -1.374942    2.576135    0.014195
  H     -1.841777    1.999224   -1.572308
  C     -1.901954   -0.704330   -0.281833
  O     -2.501687   -1.742751   -0.196691
  H      0.342015    1.490932    2.509647
  H     -0.110705   -1.072761    2.602777
  H     -0.261358   -1.096845   -1.622349
  H      0.614136   -2.226790    0.391420
  H      0.321158    1.172953   -1.728368
  H      1.421692    2.161239    0.246993

 Total Charge           Charge          ....    0
 Multiplicity           Mult            ....    1
 Number of Electrons    NEL             ....   96
 Basis Dimension        Dim             ....  786

ORBITAL ENERGIES
----------------

  NO   OCC          E(Eh)            E(eV)
   0   2.0000     -92.075748     -2505.5085
   1   2.0000     -20.554977      -559.3294
   2   2.0000     -20.517622      -558.3129
   3   2.0000     -11.336150      -308.4723
   4   2.0000     -11.288229      -307.1683
   5   2.0000     -11.285023      -307.0811
   6   2.0000     -11.266642      -306.5809
   7   2.0000     -11.264911      -306.5338
   8   2.0000     -11.255710      -306.2834
   9   2.0000     -11.254795      -306.2585
  10   2.0000     -11.247412      -306.0576
  11   2.0000     -11.243738      -305.9577
  12   2.0000      -9.061796      -246.5840
  13   2.0000      -6.742787      -183.4806
  14   2.0000      -6.742449      -183.4714
  15   2.0000      -6.741441      -183.4439
  16   2.0000      -1.400592       -38.1120
  17   2.0000      -1.347129       -36.6572
  18   2.0000      -1.210981       -32.9525
  19   2.0000      -1.117067       -30.3969
  20   2.0000      -1.038608       -28.2620
  21   2.0000      -1.020485       -27.7688
  22   2.0000      -0.949703       -25.8427
  23   2.0000      -0.924929       -25.1686
  24   2.0000      -0.820962       -22.3395
  25   2.0000      -0.806473       -21.9453
  26   2.0000      -0.765721       -20.8363
  27   2.0000      -0.730253       -19.8712
  28   2.0000      -0.718664       -19.5558
  29   2.0000      -0.679459       -18.4890
  30   2.0000      -0.665847       -18.1186
  31   2.0000      -0.623883       -16.9767
  32   2.0000      -0.608923       -16.5696
  33   2.0000      -0.601350       -16.3636
  34   2.0000      -0.592317       -16.1178
  35   2.0000      -0.583445       -15.8763
  36   2.0000      -0.564016       -15.3476
  37   2.0000      -0.555369       -15.1124
  38   2.0000      -0.550045       -14.9675
  39   2.0000      -0.539814       -14.6891
  40   2.0000      -0.501079       -13.6351
  41   2.0000      -0.493548       -13.4301
  42   2.0000      -0.488647       -13.2968
  43   2.0000      -0.476277       -12.9602
  44   2.0000      -0.419780       -11.4228
  45   2.0000      -0.407903       -11.0996
  46   2.0000      -0.397419       -10.8143
  47   2.0000      -0.360072        -9.7980
  48   0.0000       0.019474         0.5299
  49   0.0000       0.028380         0.7723
  50   0.0000       0.032016         0.8712
  51   0.0000       0.035099         0.9551
  52   0.0000       0.045838         1.2473

MULLIKEN ATOMIC CHARGES
-----------------------
   0 C :   -0.047386
   1 C :   -0.683386
   2 C :   -0.026582
   3 C :   -0.717212
   4 S :    0.449548
   5 O :   -1.005080
   6 C :   -0.403287
   7 C :   -0.287686
   8 C :   -0.027366
   9 H :    0.241510
  10 H :    0.339996
  11 C :   -0.669786
  12 H :    0.303624
  13 H :    0.140010
  14 C :    0.778805
  15 O :   -1.085815
  16 H :    0.499190
  17 H :    0.530715
  18 H :    0.422856
  19 H :    0.445680
  20 H :    0.354839
  21 H :    0.446814
Sum of atomic charges:    0.0000000

LOEWDIN ATOMIC CHARGES
----------------------
   0 C :   -0.127888
   1 C :    0.166117
   2 C :   -0.128760
   3 C :    0.165840
   4 S :    0.964508
   5 O :   -0.159955
   6 C :    0.322109
   7 C :   -0.022256
   8 C :   -0.023875
   9 H :   -0.147293
  10 H :   -0.141911
  11 C :    0.333904
  12 H :   -0.138003
  13 H :   -0.140873
  14 C :   -0.487041
  15 O :    0.482331
  16 H :   -0.159085
  17 H :   -0.155709
  18 H :   -0.126876
  19 H :   -0.164119
  20 H :   -0.144876
  21 H :   -0.166289

  Mayer bond orders larger than 0.100000
B(  0-C ,  1-C ) :   0.9563 B(  0-C ,  4-S ) :   0.8830 B(  0-C ,  7-C ) :   1.0878
B(  0-C , 19-H ) :   0.8080 B(  1-C ,  3-C ) :   1.6272 B(  1-C ,  7-C ) :   0.1240
B(  1-C ,  8-C ) :   0.1616 B(  1-C , 17-H ) :   0.7054 B(  1-C , 19-H ) :  -0.1188
B(  2-C ,  3-C ) :   0.9095 B(  2-C ,  4-S ) :   0.9788 B(  2-C ,  8-C ) :   1.0304
B(  2-C , 21-H ) :   0.7932 B(  3-C ,  8-C ) :   0.2949 B(  3-C , 16-H ) :   0.7151
B(  3-C , 21-H ) :  -0.1090 B(  4-S ,  5-O ) :   1.3142 B(  4-S ,  7-C ) :   0.1137
B(  6-C ,  9-H ) :   0.9909 B(  6-C , 10-H ) :   0.8692 B(  6-C , 11-C ) :   1.0775
B(  6-C , 14-C ) :   0.7809 B(  7-C ,  8-C ) :   1.1456 B(  7-C , 14-C ) :   0.9118
B(  7-C , 15-O ) :   0.1351 B(  7-C , 18-H ) :   0.7946 B(  8-C , 11-C ) :   0.7558
B(  8-C , 20-H ) :   0.8550 B( 11-C , 12-H ) :   0.9643 B( 11-C , 13-H ) :   1.0863
B( 11-C , 14-C ) :   0.1160 B( 14-C , 15-O ) :   0.6157 B( 14-C , 18-H ) :  -0.1032

MP2 TOTAL ENERGY:     -896.165952066 Eh
FINAL SINGLE POINT ENERGY      -896.165952066256

DIPOLE MOMENT
-------------
                                X             Y             Z
Electronic contribution:      6.35740      -4.99120      -0.33993
Nuclear contribution   :     -6.87871       6.42230       1.55283
                        -----------------------------------------
Total Dipole Moment    :     -0.52131       1.43110       1.21291
                        -----------------------------------------
Magnitude (a.u.)       :      1.94704
Magnitude (Debye)      :      4.94897

Rotational constants in cm-1:     0.050931     0.025152     0.023892
Rotational constants in MHz :  1526.873368   754.040991   716.262382

                             ****ORCA TERMINATED NORMALLY****
TOTAL RUN TIME: 0 days 0 hours 11 minutes 28 seconds 521 msec
