                         Program Version 4.2.1 -  RELEASE  -
|  1> %pal
|  2>  nprocs 32
|  3> end
|  4> !RI-MP2 aug-cc-pVTZ aug-cc-pVTZ/C TightSCF
|  5> %maxcore 4500
|  6> *xyzfile 0 2  03_38R2.xyz
|  7>
|  8>
|  9>                          ****END OF INPUT****

CARTESIAN COORDINATES (ANGSTROEM)
---------------------------------
  O     -1.569981   -1.609179    0.074294
  C     -0.892660   -0.773506   -0.398183
  C     -0.219274    0.408377    0.286142
  C      1.214615    0.571721   -0.214245
  H     -0.217412    0.188278    1.361110
  C     -1.072742    1.649304    0.016877
  H      1.190604    0.753515   -1.292935
  C      2.103156   -0.627166    0.094953
  H      1.630312    1.472476    0.246851
  H      2.147690   -0.817978    1.170293
  H      3.122749   -0.461800   -0.257222
  H      1.729323   -1.533421   -0.388208
  H     -2.089446    1.526856    0.392923
  H     -1.125359    1.859694   -1.053346
  H     -0.627185    2.513436    0.512923

 Total Charge           Charge          ....    0
 Multiplicity           Mult            ....    2
 Number of Electrons    NEL             ....   47
 Basis Dimension        Dim             ....  483

ORBITAL ENERGIES
----------------
                 SPIN UP ORBITALS
  NO   OCC          E(Eh)            E(eV)
   0   1.0000     -20.592626      -560.3538
   1   1.0000     -11.330663      -308.3230
   2   1.0000     -11.264304      -306.5173
   3   1.0000     -11.237873      -305.7981
   4   1.0000     -11.235991      -305.7468
   5   1.0000     -11.224028      -305.4213
   6   1.0000      -1.441054       -39.2131
   7   1.0000      -1.116740       -30.3880
   8   1.0000      -1.009535       -27.4708
   9   1.0000      -0.902528       -24.5590
  10   1.0000      -0.850168       -23.1342
  11   1.0000      -0.757405       -20.6100
  12   1.0000      -0.682305       -18.5665
  13   1.0000      -0.656639       -17.8680
  14   1.0000      -0.616274       -16.7697
  15   1.0000      -0.596834       -16.2407
  16   1.0000      -0.595618       -16.2076
  17   1.0000      -0.561789       -15.2871
  18   1.0000      -0.541796       -14.7430
  19   1.0000      -0.530102       -14.4248
  20   1.0000      -0.501680       -13.6514
  21   1.0000      -0.490430       -13.3453
  22   1.0000      -0.481870       -13.1123
  23   1.0000      -0.350594        -9.5401
  24   0.0000       0.027235         0.7411
  25   0.0000       0.033264         0.9052
  26   0.0000       0.036758         1.0002
  27   0.0000       0.043545         1.1849
  28   0.0000       0.054496         1.4829

                 SPIN DOWN ORBITALS
  NO   OCC          E(Eh)            E(eV)
   0   1.0000     -20.581652      -560.0552
   1   1.0000     -11.312179      -307.8200
   2   1.0000     -11.258744      -306.3660
   3   1.0000     -11.238195      -305.8068
   4   1.0000     -11.236292      -305.7550
   5   1.0000     -11.223970      -305.4198
   6   1.0000      -1.413560       -38.4649
   7   1.0000      -1.105961       -30.0947
   8   1.0000      -1.006796       -27.3963
   9   1.0000      -0.890607       -24.2346
  10   1.0000      -0.835094       -22.7241
  11   1.0000      -0.719374       -19.5751
  12   1.0000      -0.667406       -18.1610
  13   1.0000      -0.619502       -16.8575
  14   1.0000      -0.605789       -16.4844
  15   1.0000      -0.593050       -16.1377
  16   1.0000      -0.562488       -15.3061
  17   1.0000      -0.537814       -14.6347
  18   1.0000      -0.529232       -14.4011
  19   1.0000      -0.520711       -14.1693
  20   1.0000      -0.495972       -13.4961
  21   1.0000      -0.485316       -13.2061
  22   1.0000      -0.469333       -12.7712
  23   0.0000       0.026377         0.7178
  24   0.0000       0.033296         0.9060
  25   0.0000       0.037053         1.0083
  26   0.0000       0.041670         1.1339
  27   0.0000       0.053802         1.4640

MULLIKEN ATOMIC CHARGES AND SPIN POPULATIONS
--------------------------------------------
   0 O :   -0.665869    0.159216
   1 C :    0.118382    0.730001
   2 C :    0.401840    0.063867
   3 C :   -0.401524   -0.007789
   4 H :    0.331158    0.052522
   5 C :   -1.027165    0.003264
   6 H :    0.294167   -0.001901
   7 C :   -0.977436    0.001572
   8 H :    0.276340    0.000890
   9 H :    0.268261   -0.002539
  10 H :    0.277194    0.000054
  11 H :    0.266207    0.000562
  12 H :    0.272344    0.001732
  13 H :    0.292767   -0.000222
  14 H :    0.273333   -0.001228
Sum of atomic charges         :    0.0000000

LOEWDIN ATOMIC CHARGES AND SPIN POPULATIONS
-------------------------------------------
   0 O :    0.369597    0.246822
   1 C :   -0.206054    0.521451
   2 C :   -0.116327    0.154353
   3 C :    0.233729    0.014430
   4 H :   -0.148123    0.025785
   5 C :    0.571160    0.014517
   6 H :   -0.145466    0.005004
   7 C :    0.579655    0.005173
   8 H :   -0.143958    0.000291
   9 H :   -0.164822    0.000885
  10 H :   -0.167268    0.000208
  11 H :   -0.174002    0.004315
  12 H :   -0.163646    0.001391
  13 H :   -0.162800    0.003741
  14 H :   -0.161675    0.001634

  Mayer bond orders larger than 0.100000
B(  0-O ,  1-C ) :   1.5202 B(  1-C ,  2-C ) :   0.4940 B(  1-C ,  5-C ) :   0.1435
B(  2-C ,  3-C ) :   0.8420 B(  2-C ,  4-H ) :   0.8149 B(  2-C ,  5-C ) :   0.7326
B(  3-C ,  6-H ) :   0.9427 B(  3-C ,  7-C ) :   0.8518 B(  3-C ,  8-H ) :   0.9312
B(  5-C , 12-H ) :   0.9856 B(  5-C , 13-H ) :   0.9585 B(  5-C , 14-H ) :   0.9602
B(  7-C ,  9-H ) :   0.9646 B(  7-C , 10-H ) :   0.9767 B(  7-C , 11-H ) :   0.9490

MP2 TOTAL ENERGY:     -270.582805524 Eh
FINAL SINGLE POINT ENERGY      -270.582805524132

DIPOLE MOMENT
-------------
                                X             Y             Z
Electronic contribution:     -5.24103      -4.66161      -0.62366
Nuclear contribution   :      5.94836       5.67789       0.71917
                        -----------------------------------------
Total Dipole Moment    :      0.70733       1.01627       0.09551
                        -----------------------------------------
Magnitude (a.u.)       :      1.24187
Magnitude (Debye)      :      3.15659

Rotational constants in cm-1:     0.141998     0.097165     0.062103
Rotational constants in MHz :  4257.005753  2912.944125  1861.788000

                             ****ORCA TERMINATED NORMALLY****
TOTAL RUN TIME: 0 days 0 hours 3 minutes 45 seconds 381 msec
