                         Program Version 4.2.1 -  RELEASE  -
|  1> %pal
|  2>  nprocs 32
|  3> end
|  4> !RI-MP2 aug-cc-pVTZ aug-cc-pVTZ/C TightSCF
|  5> %maxcore 4500
|  6> *xyzfile -1 1  08_9R2.xyz
|  7>
|  8>
|  9>                          ****END OF INPUT****

CARTESIAN COORDINATES (ANGSTROEM)
---------------------------------
  O      0.862725   -1.012782   -0.851613
  P      0.000000   -0.000001   -0.174272
  O     -0.862729    1.012772   -0.851622
  O      0.982838    0.827898    0.884438
  O     -0.982833   -0.827886    0.884454
  H      1.751640    0.274344    1.044416
  H     -1.751644   -0.274337    1.044410

 Total Charge           Charge          ....   -1
 Multiplicity           Mult            ....    1
 Number of Electrons    NEL             ....   50
 Basis Dimension        Dim             ....  280

ORBITAL ENERGIES
----------------

  NO   OCC          E(Eh)            E(eV)
   0   2.0000     -79.876248     -2173.5432
   1   2.0000     -20.397590      -555.0466
   2   2.0000     -20.397575      -555.0462
   3   2.0000     -20.305843      -552.5501
   4   2.0000     -20.305827      -552.5496
   5   2.0000      -7.392779      -201.1677
   6   2.0000      -5.291427      -143.9871
   7   2.0000      -5.290881      -143.9722
   8   2.0000      -5.289570      -143.9365
   9   2.0000      -1.223246       -33.2862
  10   2.0000      -1.170945       -31.8630
  11   2.0000      -1.099219       -29.9113
  12   2.0000      -1.068800       -29.0835
  13   2.0000      -0.605014       -16.4633
  14   2.0000      -0.537769       -14.6334
  15   2.0000      -0.459054       -12.4915
  16   2.0000      -0.442961       -12.0536
  17   2.0000      -0.421300       -11.4641
  18   2.0000      -0.363827        -9.9002
  19   2.0000      -0.355351        -9.6696
  20   2.0000      -0.330294        -8.9878
  21   2.0000      -0.288834        -7.8596
  22   2.0000      -0.266653        -7.2560
  23   2.0000      -0.257794        -7.0149
  24   2.0000      -0.242736        -6.6052
  25   0.0000       0.133535         3.6337
  26   0.0000       0.141876         3.8606
  27   0.0000       0.192213         5.2304
  28   0.0000       0.193544         5.2666
  29   0.0000       0.212867         5.7924

MULLIKEN ATOMIC CHARGES
-----------------------
   0 O :   -0.958788
   1 P :    1.687215
   2 O :   -0.958788
   3 O :   -0.539973
   4 O :   -0.539975
   5 H :    0.155154
   6 H :    0.155155
Sum of atomic charges:   -1.0000000

LOEWDIN ATOMIC CHARGES
----------------------
   0 O :   -0.110291
   1 P :   -0.598652
   2 O :   -0.110291
   3 O :    0.548621
   4 O :    0.548620
   5 H :   -0.639004
   6 H :   -0.639004

  Mayer bond orders larger than 0.100000
B(  0-O ,  1-P ) :   1.4432 B(  1-P ,  2-O ) :   1.4432 B(  1-P ,  3-O ) :   0.7553
B(  1-P ,  4-O ) :   0.7553 B(  3-O ,  5-H ) :   1.0131 B(  4-O ,  6-H ) :   1.0131

MP2 TOTAL ENERGY:     -642.824902566 Eh
FINAL SINGLE POINT ENERGY      -642.824902565815

DIPOLE MOMENT
-------------
                                X             Y             Z
Electronic contribution:      0.00000      -0.00000      -0.81498
Nuclear contribution   :     -0.00000       0.00001       2.14046
                        -----------------------------------------
Total Dipole Moment    :     -0.00000       0.00000       1.32548
                        -----------------------------------------
Magnitude (a.u.)       :      1.32548
Magnitude (Debye)      :      3.36910

Rotational constants in cm-1:     0.158912     0.150002     0.145557
Rotational constants in MHz :  4764.073515  4496.935181  4363.685470

                             ****ORCA TERMINATED NORMALLY****
TOTAL RUN TIME: 0 days 0 hours 0 minutes 24 seconds 586 msec
