                         Program Version 4.2.1 -  RELEASE  -
|  1> %pal
|  2>  nprocs 32
|  3> end
|  4> !RI-MP2 aug-cc-pVTZ aug-cc-pVTZ/C TightSCF
|  5> %maxcore 4500
|  6> *xyzfile 0 1  10_40R.xyz
|  7>
|  8>
|  9>                          ****END OF INPUT****

CARTESIAN COORDINATES (ANGSTROEM)
---------------------------------
  C     -0.157586   -2.546173   -0.467342
  H     -0.319940   -3.615974   -0.329647
  H      0.087816   -2.379383   -1.534393
  C      1.011870   -2.096197    0.372738
  C     -0.139043    0.069031    0.728400
  H     -0.479965   -0.191113    1.734766
  H     -0.026149    1.147740    0.682392
  C     -1.218611   -0.397323   -0.259193
  H     -0.854470   -0.172161   -1.280874
  N     -1.376575   -1.839762   -0.103839
  C      2.317671    0.021089    0.212016
  C      1.783659   -2.956183    1.027327
  C      3.580099   -0.616733   -0.170277
  C      4.779620   -0.036885   -0.166067
  C      1.164551   -0.627422    0.439812
  C      6.037696   -0.716200   -0.600158
  H      6.769080   -0.741030    0.213098
  H      5.849599   -1.741592   -0.923148
  H      6.507634   -0.178098   -1.428891
  C     -2.527191    0.348156   -0.075121
  C     -2.542471   -2.352400   -0.798170
  H     -2.519137   -3.443025   -0.753822
  H     -2.536656   -2.067371   -1.866100
  C     -3.792752   -1.825901   -0.119787
  H     -3.867587   -2.274866    0.875172
  C     -3.745941   -0.325596   -0.000562
  H     -4.682821   -2.123995   -0.679879
  C     -4.922321    0.404676    0.157996
  H     -5.866136   -0.127351    0.215491
  C     -2.522296    1.742305   -0.028300
  H     -1.585833    2.278507   -0.124772
  C     -4.905608    1.786230    0.230440
  H     -5.830533    2.336682    0.353108
  C     -3.695414    2.460076    0.126686
  H     -3.666862    3.542385    0.163090
  C      2.357141    1.514401    0.319246
  O      2.896203    2.130174    1.200368
  O      1.742785    2.109786   -0.715844
  C      1.754373    3.541108   -0.704393
  H      2.778391    3.913363   -0.718349
  H      1.252775    3.919236    0.186833
  H      1.223520    3.845016   -1.602573
  H      2.607789   -2.620699    1.644110
  H      1.600850   -4.023561    0.976769
  H      4.879903    0.984260    0.190118
  H      3.498168   -1.648682   -0.493554

 Total Charge           Charge          ....    0
 Multiplicity           Mult            ....    1
 Number of Electrons    NEL             ....  166
 Basis Dimension        Dim             .... 1587

ORBITAL ENERGIES
----------------

  NO   OCC          E(Eh)            E(eV)
   0   2.0000     -20.605001      -560.6906
   1   2.0000     -20.544664      -559.0487
   2   2.0000     -15.553307      -423.2270
   3   2.0000     -11.379884      -309.6624
   4   2.0000     -11.286750      -307.1281
   5   2.0000     -11.267101      -306.5934
   6   2.0000     -11.260168      -306.4048
   7   2.0000     -11.253487      -306.2229
   8   2.0000     -11.251387      -306.1658
   9   2.0000     -11.249167      -306.1054
  10   2.0000     -11.244853      -305.9880
  11   2.0000     -11.238097      -305.8042
  12   2.0000     -11.236829      -305.7697
  13   2.0000     -11.231434      -305.6229
  14   2.0000     -11.231339      -305.6203
  15   2.0000     -11.230822      -305.6062
  16   2.0000     -11.229529      -305.5710
  17   2.0000     -11.229515      -305.5706
  18   2.0000     -11.228803      -305.5513
  19   2.0000     -11.228623      -305.5464
  20   2.0000     -11.227011      -305.5025
  21   2.0000     -11.225534      -305.4623
  22   2.0000     -11.221606      -305.3554
  23   2.0000      -1.466109       -39.8949
  24   2.0000      -1.362255       -37.0689
  25   2.0000      -1.259032       -34.2600
  26   2.0000      -1.159718       -31.5575
  27   2.0000      -1.142121       -31.0787
  28   2.0000      -1.087017       -29.5792
  29   2.0000      -1.068858       -29.0851
  30   2.0000      -1.057921       -28.7875
  31   2.0000      -1.031751       -28.0754
  32   2.0000      -1.004130       -27.3238
  33   2.0000      -0.982190       -26.7267
  34   2.0000      -0.965913       -26.2838
  35   2.0000      -0.935437       -25.4545
  36   2.0000      -0.908479       -24.7210
  37   2.0000      -0.862461       -23.4688
  38   2.0000      -0.846756       -23.0414
  39   2.0000      -0.838253       -22.8100
  40   2.0000      -0.811512       -22.0824
  41   2.0000      -0.783909       -21.3312
  42   2.0000      -0.760040       -20.6817
  43   2.0000      -0.756248       -20.5786
  44   2.0000      -0.731895       -19.9159
  45   2.0000      -0.699289       -19.0286
  46   2.0000      -0.685939       -18.6654
  47   2.0000      -0.677953       -18.4480
  48   2.0000      -0.670591       -18.2477
  49   2.0000      -0.661102       -17.9895
  50   2.0000      -0.654234       -17.8026
  51   2.0000      -0.641385       -17.4530
  52   2.0000      -0.630136       -17.1469
  53   2.0000      -0.622946       -16.9512
  54   2.0000      -0.609689       -16.5905
  55   2.0000      -0.604045       -16.4369
  56   2.0000      -0.595710       -16.2101
  57   2.0000      -0.590140       -16.0585
  58   2.0000      -0.574592       -15.6355
  59   2.0000      -0.571348       -15.5472
  60   2.0000      -0.567685       -15.4475
  61   2.0000      -0.562629       -15.3099
  62   2.0000      -0.551264       -15.0006
  63   2.0000      -0.548426       -14.9234
  64   2.0000      -0.535256       -14.5651
  65   2.0000      -0.533888       -14.5278
  66   2.0000      -0.527085       -14.3427
  67   2.0000      -0.524168       -14.2633
  68   2.0000      -0.516712       -14.0604
  69   2.0000      -0.510238       -13.8843
  70   2.0000      -0.503256       -13.6943
  71   2.0000      -0.488162       -13.2836
  72   2.0000      -0.480049       -13.0628
  73   2.0000      -0.465373       -12.6634
  74   2.0000      -0.462223       -12.5777
  75   2.0000      -0.458751       -12.4833
  76   2.0000      -0.446545       -12.1511
  77   2.0000      -0.420353       -11.4384
  78   2.0000      -0.376066       -10.2333
  79   2.0000      -0.364853        -9.9281
  80   2.0000      -0.330579        -8.9955
  81   2.0000      -0.323860        -8.8127
  82   2.0000      -0.303884        -8.2691
  83   0.0000       0.023613         0.6425
  84   0.0000       0.027053         0.7362
  85   0.0000       0.027711         0.7540
  86   0.0000       0.033884         0.9220
  87   0.0000       0.035240         0.9589

MULLIKEN ATOMIC CHARGES
-----------------------
   0 C :   -0.731719
   1 H :    0.437522
   2 H :    0.187481
   3 C :    0.683398
   4 C :   -1.066642
   5 H :    0.089788
   6 H :    0.366735
   7 C :    0.313681
   8 H :    0.262241
   9 N :   -0.309477
  10 C :    1.538575
  11 C :   -1.706360
  12 C :    0.012837
  13 C :   -0.847986
  14 C :    0.085401
  15 C :   -0.944949
  16 H :    0.267801
  17 H :    0.306796
  18 H :    0.272299
  19 C :    1.234335
  20 C :   -0.764204
  21 H :    0.363965
  22 H :    0.213994
  23 C :   -0.625527
  24 H :    0.182528
  25 C :    1.184349
  26 H :    0.206519
  27 C :   -1.096905
  28 H :    0.090905
  29 C :   -1.357298
  30 H :    0.626734
  31 C :   -0.333454
  32 H :    0.602216
  33 C :   -0.908682
  34 H :    0.434271
  35 C :    1.255593
  36 O :   -1.199106
  37 O :   -0.440683
  38 C :   -1.049153
  39 H :    0.334377
  40 H :    0.395748
  41 H :    0.366894
  42 H :    0.499439
  43 H :    0.228818
  44 H :    0.222994
  45 H :    0.113910
Sum of atomic charges:   -0.0000000

LOEWDIN ATOMIC CHARGES
----------------------
   0 C :    0.169892
   1 H :   -0.151683
   2 H :   -0.113477
   3 C :   -0.100438
   4 C :    0.317481
   5 H :   -0.111041
   6 H :   -0.204770
   7 C :   -0.104220
   8 H :   -0.105000
   9 N :    0.315255
  10 C :   -0.084975
  11 C :    0.569711
  12 C :    0.203156
  13 C :    0.221208
  14 C :   -0.055651
  15 C :    0.561366
  16 H :   -0.173870
  17 H :   -0.180840
  18 H :   -0.174548
  19 C :   -0.034094
  20 C :    0.169925
  21 H :   -0.139339
  22 H :   -0.113274
  23 C :    0.301457
  24 H :   -0.131360
  25 C :   -0.067061
  26 H :   -0.142670
  27 C :    0.223056
  28 H :   -0.172281
  29 C :    0.228449
  30 H :   -0.183610
  31 C :    0.200244
  32 H :   -0.182428
  33 C :    0.206388
  34 H :   -0.182536
  35 C :   -0.861102
  36 O :    0.493178
  37 O :    0.579826
  38 C :    0.358572
  39 H :   -0.178095
  40 H :   -0.178004
  41 H :   -0.183294
  42 H :   -0.199402
  43 H :   -0.201605
  44 H :   -0.202445
  45 H :   -0.206051

  Mayer bond orders larger than 0.100000
B(  0-C ,  1-H ) :   0.9067 B(  0-C ,  2-H ) :   1.0588 B(  0-C ,  3-C ) :   0.8439
B(  0-C ,  9-N ) :   0.8137 B(  0-C , 11-C ) :   0.1456 B(  1-H ,  9-N ) :  -0.1569
B(  2-H ,  3-C ) :   0.1434 B(  3-C ,  4-C ) :   0.3785 B(  3-C ,  9-N ) :   0.1416
B(  3-C , 11-C ) :   0.5921 B(  3-C , 14-C ) :   0.7519 B(  3-C , 35-C ) :  -0.1380
B(  3-C , 45-H ) :  -0.1499 B(  4-C ,  5-H ) :   1.1658 B(  4-C ,  6-H ) :   0.9880
B(  4-C ,  7-C ) :   0.8379 B(  4-C , 10-C ) :   0.1504 B(  4-C , 14-C ) :   1.1200
B(  4-C , 25-C ) :  -0.1636 B(  4-C , 29-C ) :   0.1886 B(  5-H ,  9-N ) :  -0.1253
B(  6-H , 37-O ) :  -0.1585 B(  7-C ,  8-H ) :   0.9482 B(  7-C ,  9-N ) :   0.7793
B(  7-C , 10-C ) :  -0.1340 B(  7-C , 14-C ) :   0.1651 B(  7-C , 19-C ) :   0.9789
B(  7-C , 23-C ) :  -0.1913 B(  7-C , 25-C ) :   0.1769 B(  7-C , 29-C ) :   0.6004
B(  7-C , 33-C ) :   0.1304 B(  8-H ,  9-N ) :  -0.1806 B(  9-N , 14-C ) :  -0.1425
B(  9-N , 19-C ) :  -0.1600 B(  9-N , 20-C ) :   1.0501 B(  9-N , 23-C ) :  -0.1057
B( 10-C , 11-C ) :   0.5316 B( 10-C , 12-C ) :  -0.4775 B( 10-C , 13-C ) :   0.4735
B( 10-C , 14-C ) :   1.2377 B( 10-C , 35-C ) :   0.3443 B( 10-C , 36-O ) :  -0.1927
B( 10-C , 37-O ) :  -0.3716 B( 10-C , 42-H ) :   0.2299 B( 11-C , 14-C ) :  -0.3404
B( 11-C , 42-H ) :   0.7675 B( 11-C , 43-H ) :   1.1575 B( 12-C , 13-C ) :   0.2701
B( 12-C , 14-C ) :   0.5975 B( 12-C , 35-C ) :  -0.1371 B( 12-C , 44-H ) :  -0.1834
B( 12-C , 45-H ) :   1.2392 B( 13-C , 15-C ) :   0.6180 B( 13-C , 35-C ) :  -0.2082
B( 13-C , 44-H ) :   1.3959 B( 14-C , 35-C ) :   0.3228 B( 14-C , 36-O ) :   0.2520
B( 14-C , 37-O ) :   0.2469 B( 14-C , 43-H ) :  -0.1006 B( 15-C , 16-H ) :   1.0380
B( 15-C , 17-H ) :   0.9381 B( 15-C , 18-H ) :   0.9974 B( 19-C , 23-C ) :   0.2980
B( 19-C , 25-C ) :   0.9988 B( 19-C , 27-C ) :   0.5489 B( 19-C , 29-C ) :  -0.3218
B( 19-C , 30-H ) :   0.1633 B( 19-C , 32-H ) :   0.1012 B( 19-C , 33-C ) :  -0.1784
B( 20-C , 21-H ) :   0.8595 B( 20-C , 22-H ) :   1.0807 B( 20-C , 23-C ) :   1.0606
B( 20-C , 25-C ) :   0.1372 B( 23-C , 24-H ) :   1.1492 B( 23-C , 26-H ) :   1.1364
B( 23-C , 27-C ) :   0.1126 B( 23-C , 29-C ) :  -0.1134 B( 24-H , 25-C ) :  -0.1249
B( 25-C , 27-C ) :   0.3914 B( 25-C , 29-C ) :  -0.4341 B( 25-C , 31-C ) :   0.2222
B( 27-C , 28-H ) :   1.4367 B( 27-C , 31-C ) :   0.8799 B( 28-H , 31-C ) :  -0.1219
B( 29-C , 30-H ) :   0.6426 B( 29-C , 31-C ) :   0.1364 B( 29-C , 33-C ) :   1.4561
B( 30-H , 33-C ) :  -0.1755 B( 31-C , 32-H ) :   0.5380 B( 31-C , 33-C ) :   1.0541
B( 32-H , 33-C ) :  -0.1086 B( 33-C , 34-H ) :   0.7955 B( 35-C , 36-O ) :   0.6718
B( 35-C , 37-O ) :   1.1155 B( 35-C , 38-C ) :  -0.1496 B( 35-C , 44-H ) :  -0.1158
B( 36-O , 37-O ) :   0.1093 B( 36-O , 38-C ) :   0.1083 B( 37-O , 38-C ) :   1.0296
B( 38-C , 39-H ) :   0.9338 B( 38-C , 40-H ) :   0.8486 B( 38-C , 41-H ) :   0.8942

MP2 TOTAL ENERGY:     -979.199191692 Eh
FINAL SINGLE POINT ENERGY      -979.199191692128

DIPOLE MOMENT
-------------
                                X             Y             Z
Electronic contribution:     -5.30934       4.99812       3.61565
Nuclear contribution   :      4.92160      -5.36614      -4.52818
                        -----------------------------------------
Total Dipole Moment    :     -0.38774      -0.36802      -0.91253
                        -----------------------------------------
Magnitude (a.u.)       :      1.05758
Magnitude (Debye)      :      2.68817

Rotational constants in cm-1:     0.014919     0.005502     0.004227
Rotational constants in MHz :   447.272305   164.939219   126.713406

                             ****ORCA TERMINATED NORMALLY****
TOTAL RUN TIME: 0 days 1 hours 23 minutes 24 seconds 341 msec
