                         Program Version 4.2.1 -  RELEASE  -
|  1> %pal
|  2>  nprocs 32
|  3> end
|  4> !RI-MP2 aug-cc-pVTZ aug-cc-pVTZ/C TightSCF
|  5> %maxcore 4500
|  6> *xyzfile 0 2  04_24TS.xyz
|  7>
|  8>
|  9>                          ****END OF INPUT****

CARTESIAN COORDINATES (ANGSTROEM)
---------------------------------
  N      0.438813   -0.848048    1.337963
  H      1.113459   -0.641860    2.069599
  C      0.372635    0.127123    0.322777
  H     -0.794334    0.769090    0.361163
  C      0.375199   -0.371524   -1.107207
  C      1.337848    1.245191    0.664944
  H     -0.404013   -1.113195   -1.250498
  H      0.184200    0.450517   -1.793311
  S      1.992099   -1.062680   -1.613448
  O      2.109460    1.135884    1.598689
  H      1.937956   -2.155418   -0.833491
  N      1.261343    2.336915   -0.129804
  H      0.410009    2.519720   -0.639838
  H      1.826893    3.128216    0.136093
  C     -0.379210   -1.923630    1.458832
  H     -0.149976   -2.527757    2.350321
  O     -1.268957   -2.210725    0.686827
  O     -1.736774    1.507478    0.187174
  O     -2.427137    1.006331   -0.895791
  C     -3.423305    0.093136   -0.439701
  H     -3.975442   -0.187295   -1.336390
  H     -4.082329    0.590411    0.273311
  H     -2.952838   -0.785122    0.008029

 Total Charge           Charge          ....    0
 Multiplicity           Mult            ....    2
 Number of Electrons    NEL             ....  103
 Basis Dimension        Dim             ....  809

ORBITAL ENERGIES
----------------
                 SPIN UP ORBITALS
  NO   OCC          E(Eh)            E(eV)
   0   1.0000     -91.963669     -2502.4586
   1   1.0000     -20.662479      -562.2546
   2   1.0000     -20.639405      -561.6268
   3   1.0000     -20.552020      -559.2489
   4   1.0000     -20.549647      -559.1843
   5   1.0000     -15.616766      -424.9538
   6   1.0000     -15.600821      -424.5199
   7   1.0000     -11.377788      -309.6053
   8   1.0000     -11.373480      -309.4881
   9   1.0000     -11.327564      -308.2387
  10   1.0000     -11.280680      -306.9629
  11   1.0000     -11.277219      -306.8687
  12   1.0000      -8.964567      -243.9383
  13   1.0000      -6.646426      -180.8584
  14   1.0000      -6.645030      -180.8205
  15   1.0000      -6.643696      -180.7842
  16   1.0000      -1.527140       -41.5556
  17   1.0000      -1.421109       -38.6703
  18   1.0000      -1.411343       -38.4046
  19   1.0000      -1.278677       -34.7946
  20   1.0000      -1.239089       -33.7173
  21   1.0000      -1.224097       -33.3094
  22   1.0000      -1.095023       -29.7971
  23   1.0000      -0.997522       -27.1439
  24   1.0000      -0.926025       -25.1984
  25   1.0000      -0.889840       -24.2138
  26   1.0000      -0.857693       -23.3390
  27   1.0000      -0.798677       -21.7331
  28   1.0000      -0.784410       -21.3449
  29   1.0000      -0.762835       -20.7578
  30   1.0000      -0.732391       -19.9294
  31   1.0000      -0.684224       -18.6187
  32   1.0000      -0.679558       -18.4917
  33   1.0000      -0.676025       -18.3956
  34   1.0000      -0.662154       -18.0181
  35   1.0000      -0.653687       -17.7877
  36   1.0000      -0.646340       -17.5878
  37   1.0000      -0.617046       -16.7907
  38   1.0000      -0.606374       -16.5003
  39   1.0000      -0.585775       -15.9397
  40   1.0000      -0.581289       -15.8177
  41   1.0000      -0.552687       -15.0394
  42   1.0000      -0.545454       -14.8425
  43   1.0000      -0.511472       -13.9179
  44   1.0000      -0.501208       -13.6386
  45   1.0000      -0.473838       -12.8938
  46   1.0000      -0.468271       -12.7423
  47   1.0000      -0.460270       -12.5246
  48   1.0000      -0.453880       -12.3507
  49   1.0000      -0.440436       -11.9849
  50   1.0000      -0.386774       -10.5246
  51   1.0000      -0.362754        -9.8710
  52   0.0000       0.025526         0.6946
  53   0.0000       0.029826         0.8116
  54   0.0000       0.035763         0.9732
  55   0.0000       0.040151         1.0926
  56   0.0000       0.050268         1.3679

                 SPIN DOWN ORBITALS
  NO   OCC          E(Eh)            E(eV)
   0   1.0000     -91.963050     -2502.4418
   1   1.0000     -20.637743      -561.5815
   2   1.0000     -20.633988      -561.4794
   3   1.0000     -20.549841      -559.1896
   4   1.0000     -20.547615      -559.1290
   5   1.0000     -15.616323      -424.9417
   6   1.0000     -15.600729      -424.5174
   7   1.0000     -11.379295      -309.6464
   8   1.0000     -11.373889      -309.4993
   9   1.0000     -11.311583      -307.8038
  10   1.0000     -11.282124      -307.0022
  11   1.0000     -11.277357      -306.8725
  12   1.0000      -8.963881      -243.9196
  13   1.0000      -6.645106      -180.8225
  14   1.0000      -6.643762      -180.7860
  15   1.0000      -6.642941      -180.7636
  16   1.0000      -1.488303       -40.4988
  17   1.0000      -1.416502       -38.5450
  18   1.0000      -1.407370       -38.2965
  19   1.0000      -1.268332       -34.5131
  20   1.0000      -1.236688       -33.6520
  21   1.0000      -1.171391       -31.8752
  22   1.0000      -1.082196       -29.4480
  23   1.0000      -0.978905       -26.6374
  24   1.0000      -0.919585       -25.0232
  25   1.0000      -0.886357       -24.1190
  26   1.0000      -0.856232       -23.2993
  27   1.0000      -0.785553       -21.3760
  28   1.0000      -0.773683       -21.0530
  29   1.0000      -0.731616       -19.9083
  30   1.0000      -0.701609       -19.0918
  31   1.0000      -0.674502       -18.3541
  32   1.0000      -0.671982       -18.2856
  33   1.0000      -0.664830       -18.0910
  34   1.0000      -0.653228       -17.7752
  35   1.0000      -0.643895       -17.5213
  36   1.0000      -0.625248       -17.0139
  37   1.0000      -0.609800       -16.5935
  38   1.0000      -0.586017       -15.9463
  39   1.0000      -0.578309       -15.7366
  40   1.0000      -0.558895       -15.2083
  41   1.0000      -0.538907       -14.6644
  42   1.0000      -0.527553       -14.3555
  43   1.0000      -0.484684       -13.1889
  44   1.0000      -0.481185       -13.0937
  45   1.0000      -0.466109       -12.6835
  46   1.0000      -0.453963       -12.3530
  47   1.0000      -0.447091       -12.1660
  48   1.0000      -0.430497       -11.7144
  49   1.0000      -0.408184       -11.1073
  50   1.0000      -0.367159        -9.9909
  51   0.0000       0.021325         0.5803
  52   0.0000       0.026609         0.7241
  53   0.0000       0.029873         0.8129
  54   0.0000       0.035790         0.9739
  55   0.0000       0.040936         1.1139

MULLIKEN ATOMIC CHARGES AND SPIN POPULATIONS
--------------------------------------------
   0 N :   -0.462425    0.006575
   1 H :    0.096136    0.008049
   2 C :    1.484907    0.769335
   3 H :    0.500402   -0.416547
   4 C :   -0.273860   -0.102307
   5 C :    0.501711   -0.046494
   6 H :    0.356390    0.005327
   7 H :    0.278950    0.000281
   8 S :   -0.528093    0.067667
   9 O :   -0.997607    0.048368
  10 H :    0.108671   -0.003123
  11 N :   -0.414429    0.002222
  12 H :    0.152919    0.001422
  13 H :    0.141956   -0.001718
  14 C :   -0.382141   -0.030193
  15 H :    0.643445    0.002063
  16 O :   -0.770311    0.049518
  17 O :   -0.461651    0.663774
  18 O :   -0.377156   -0.020968
  19 C :   -0.776206   -0.004089
  20 H :    0.351518   -0.001566
  21 H :    0.320862   -0.000601
  22 H :    0.506012    0.003003
Sum of atomic charges         :    0.0000000

LOEWDIN ATOMIC CHARGES AND SPIN POPULATIONS
-------------------------------------------
   0 N :    0.524363    0.057325
   1 H :   -0.343325    0.004882
   2 C :   -0.252202    0.251591
   3 H :   -0.632802    0.048491
   4 C :   -0.096322    0.019476
   5 C :   -0.661332    0.020169
   6 H :   -0.246985   -0.000942
   7 H :   -0.233184   -0.002532
   8 S :    1.326539    0.035540
   9 O :    0.486334    0.031946
  10 H :   -0.563117    0.005813
  11 N :    0.870413   -0.001821
  12 H :   -0.312088   -0.002657
  13 H :   -0.274465   -0.000007
  14 C :   -0.328446    0.003277
  15 H :   -0.165367   -0.000416
  16 O :    0.456223    0.034797
  17 O :    0.482570    0.462246
  18 O :    0.277339    0.042061
  19 C :    0.317285   -0.006454
  20 H :   -0.189801   -0.001927
  21 H :   -0.189013   -0.000407
  22 H :   -0.252617   -0.000451

  Mayer bond orders larger than 0.100000
B(  0-N ,  1-H ) :   1.0571 B(  0-N ,  2-C ) :   0.4050 B(  0-N , 14-C ) :   1.4646
B(  2-C ,  3-H ) :   0.3474 B(  2-C ,  4-C ) :   0.8181 B(  2-C ,  5-C ) :   0.5877
B(  2-C ,  8-S ) :  -0.1385 B(  2-C ,  9-O ) :   0.1887 B(  2-C , 11-N ) :  -0.1086
B(  2-C , 14-C ) :  -0.3635 B(  2-C , 16-O ) :   0.1032 B(  2-C , 17-O ) :  -0.1103
B(  3-H ,  4-C ) :   0.1172 B(  3-H ,  5-C ) :  -0.1602 B(  3-H , 17-O ) :   0.1202
B(  4-C ,  6-H ) :   0.8881 B(  4-C ,  7-H ) :   0.9625 B(  4-C ,  8-S ) :   0.8471
B(  5-C ,  9-O ) :   0.9493 B(  5-C , 11-N ) :   1.0295 B(  8-S , 10-H ) :   1.0869
B( 11-N , 12-H ) :   1.0532 B( 11-N , 13-H ) :   1.0012 B( 14-C , 15-H ) :   0.5193
B( 14-C , 16-O ) :   1.6829 B( 17-O , 18-O ) :   0.8290 B( 18-O , 19-C ) :   0.8479
B( 19-C , 20-H ) :   0.9014 B( 19-C , 21-H ) :   0.9210 B( 19-C , 22-H ) :   0.7303

MP2 TOTAL ENERGY:    -1004.125997508 Eh
FINAL SINGLE POINT ENERGY     -1004.125997508112

DIPOLE MOMENT
-------------
                                X             Y             Z
Electronic contribution:      6.53694       0.11431       0.79441
Nuclear contribution   :     -6.92686       0.11051      -0.56807
                        -----------------------------------------
Total Dipole Moment    :     -0.38992       0.22482       0.22634
                        -----------------------------------------
Magnitude (a.u.)       :      0.50379
Magnitude (Debye)      :      1.28054

Rotational constants in cm-1:     0.027746     0.019899     0.017201
Rotational constants in MHz :   831.793966   596.566184   515.672173

                             ****ORCA TERMINATED NORMALLY****
TOTAL RUN TIME: 0 days 0 hours 20 minutes 0 seconds 14 msec
