                         Program Version 4.2.1 -  RELEASE  -
|  1> %pal
|  2>  nprocs 32
|  3> end
|  4> !RI-MP2 aug-cc-pVTZ aug-cc-pVTZ/C TightSCF
|  5> %maxcore 4500
|  6> *xyzfile 0 1  03_12R1.xyz
|  7>
|  8>
|  9>                          ****END OF INPUT****

CARTESIAN COORDINATES (ANGSTROEM)
---------------------------------
  C      2.528616    0.008368    0.000061
  C      3.089589   -0.616341   -1.265909
  C      1.012332    0.014220    0.000018
  C      3.089506   -0.616179    1.266150
  H      2.710059   -0.092247   -2.143495
  H      2.804114   -1.666476   -1.339432
  H      4.178251   -0.550253   -1.256446
  C      0.303515    1.210673   -0.000041
  C      0.312899   -1.192665    0.000044
  H      2.804004   -1.666297    1.339798
  H      2.709933   -0.091957    2.143641
  H      4.178170   -0.550113    1.256743
  C     -1.069468   -1.211024    0.000016
  C     -1.746706   -0.003336   -0.000045
  C     -1.082654    1.208663   -0.000075
  H      0.842474    2.147015   -0.000062
  H     -1.649142    2.128919   -0.000125
  H      0.847885   -2.134195    0.000088
  H     -1.625885   -2.137211    0.000040
  N     -3.219010   -0.012843   -0.000076
  O     -3.775874   -1.093837    0.000041
  O     -3.790718    1.059704   -0.000219
  F      2.960019    1.351279   -0.000012

 Total Charge           Charge          ....    0
 Multiplicity           Mult            ....    1
 Number of Electrons    NEL             ....   96
 Basis Dimension        Dim             ....  828

ORBITAL ENERGIES
----------------

  NO   OCC          E(Eh)            E(eV)
   0   2.0000     -26.287969      -715.3320
   1   2.0000     -20.601073      -560.5837
   2   2.0000     -20.600859      -560.5779
   3   2.0000     -15.853362      -431.3919
   4   2.0000     -11.344689      -308.7047
   5   2.0000     -11.307238      -307.6856
   6   2.0000     -11.278703      -306.9091
   7   2.0000     -11.275050      -306.8097
   8   2.0000     -11.273558      -306.7691
   9   2.0000     -11.265200      -306.5417
  10   2.0000     -11.259042      -306.3741
  11   2.0000     -11.241772      -305.9042
  12   2.0000     -11.241759      -305.9038
  13   2.0000      -1.613663       -43.9100
  14   2.0000      -1.599473       -43.5239
  15   2.0000      -1.404797       -38.2265
  16   2.0000      -1.207607       -32.8606
  17   2.0000      -1.128436       -30.7063
  18   2.0000      -1.066884       -29.0314
  19   2.0000      -1.054558       -28.6960
  20   2.0000      -0.972827       -26.4720
  21   2.0000      -0.962736       -26.1974
  22   2.0000      -0.872583       -23.7442
  23   2.0000      -0.854666       -23.2567
  24   2.0000      -0.805533       -21.9197
  25   2.0000      -0.784779       -21.3549
  26   2.0000      -0.732691       -19.9375
  27   2.0000      -0.731616       -19.9083
  28   2.0000      -0.724232       -19.7073
  29   2.0000      -0.691541       -18.8178
  30   2.0000      -0.690233       -18.7822
  31   2.0000      -0.658816       -17.9273
  32   2.0000      -0.643658       -17.5148
  33   2.0000      -0.628418       -17.1001
  34   2.0000      -0.614814       -16.7300
  35   2.0000      -0.599578       -16.3153
  36   2.0000      -0.587193       -15.9783
  37   2.0000      -0.570112       -15.5135
  38   2.0000      -0.558579       -15.1997
  39   2.0000      -0.536478       -14.5983
  40   2.0000      -0.529606       -14.4113
  41   2.0000      -0.507852       -13.8194
  42   2.0000      -0.502596       -13.6763
  43   2.0000      -0.494586       -13.4584
  44   2.0000      -0.493327       -13.4241
  45   2.0000      -0.456347       -12.4178
  46   2.0000      -0.372247       -10.1293
  47   2.0000      -0.371340       -10.1047
  48   0.0000       0.021095         0.5740
  49   0.0000       0.031972         0.8700
  50   0.0000       0.032185         0.8758
  51   0.0000       0.032590         0.8868
  52   0.0000       0.038734         1.0540

MULLIKEN ATOMIC CHARGES
-----------------------
   0 C :    1.457790
   1 C :   -1.060891
   2 C :    1.228732
   3 C :   -1.060886
   4 H :    0.331052
   5 H :    0.326770
   6 H :    0.243723
   7 C :   -0.935935
   8 C :   -0.627728
   9 H :    0.326766
  10 H :    0.331053
  11 H :    0.243731
  12 C :   -0.712371
  13 C :    0.717772
  14 C :   -0.346103
  15 H :   -0.023464
  16 H :    0.570942
  17 H :   -0.071269
  18 H :    0.527630
  19 N :    0.661392
  20 O :   -0.683137
  21 O :   -0.688066
  22 F :   -0.757504
Sum of atomic charges:    0.0000000

LOEWDIN ATOMIC CHARGES
----------------------
   0 C :   -0.686940
   1 C :    0.593756
   2 C :   -0.097464
   3 C :    0.593758
   4 H :   -0.152897
   5 H :   -0.163829
   6 H :   -0.157743
   7 C :    0.241790
   8 C :    0.231302
   9 H :   -0.163829
  10 H :   -0.152897
  11 H :   -0.157742
  12 C :    0.226109
  13 C :   -0.214655
  14 C :    0.226497
  15 H :   -0.194702
  16 H :   -0.187519
  17 H :   -0.174046
  18 H :   -0.188461
  19 N :   -0.720304
  20 O :    0.396713
  21 O :    0.398227
  22 F :    0.504875

  Mayer bond orders larger than 0.100000
B(  0-C ,  1-C ) :   0.6682 B(  0-C ,  2-C ) :   1.0069 B(  0-C ,  3-C ) :   0.6682
B(  0-C ,  7-C ) :   0.1620 B(  0-C ,  8-C ) :   0.1473 B(  0-C , 15-H ) :  -0.1418
B(  0-C , 22-F ) :  -0.2479 B(  1-C ,  2-C ) :   0.1022 B(  1-C ,  3-C ) :   0.1171
B(  1-C ,  4-H ) :   0.9550 B(  1-C ,  5-H ) :   0.9316 B(  1-C ,  6-H ) :   1.0312
B(  1-C , 22-F ) :   0.1389 B(  2-C ,  3-C ) :   0.1022 B(  2-C , 12-C ) :   0.2170
B(  2-C , 13-C ) :   0.1184 B(  2-C , 14-C ) :   0.4986 B(  2-C , 15-H ) :  -0.2895
B(  2-C , 17-H ) :  -0.3065 B(  2-C , 22-F ) :   0.4074 B(  3-C ,  9-H ) :   0.9316
B(  3-C , 10-H ) :   0.9550 B(  3-C , 11-H ) :   1.0312 B(  3-C , 22-F ) :   0.1389
B(  7-C ,  8-C ) :  -0.3600 B(  7-C , 13-C ) :  -0.3600 B(  7-C , 14-C ) :   1.4884
B(  7-C , 15-H ) :   1.6777 B(  7-C , 16-H ) :  -0.1125 B(  7-C , 17-H ) :   0.2373
B(  8-C , 12-C ) :   1.5719 B(  8-C , 13-C ) :  -0.1600 B(  8-C , 14-C ) :  -0.2583
B(  8-C , 15-H ) :   0.2483 B(  8-C , 17-H ) :   1.6695 B( 12-C , 13-C ) :   1.2146
B( 12-C , 18-H ) :   0.5882 B( 12-C , 19-N ) :  -0.2061 B( 13-C , 14-C ) :   0.9654
B( 13-C , 16-H ) :   0.1034 B( 13-C , 17-H ) :  -0.1494 B( 13-C , 18-H ) :   0.1299
B( 13-C , 19-N ) :   1.2580 B( 13-C , 20-O ) :   0.3565 B( 13-C , 21-O ) :   0.4425
B( 14-C , 16-H ) :   0.6456 B( 14-C , 17-H ) :  -0.1100 B( 14-C , 19-N ) :  -0.2177
B( 14-C , 21-O ) :  -0.1582 B( 15-H , 22-F ) :   0.1190 B( 19-N , 20-O ) :   1.0473
B( 19-N , 21-O ) :   1.0135 B( 20-O , 21-O ) :   0.1027

MP2 TOTAL ENERGY:     -652.810285129 Eh
FINAL SINGLE POINT ENERGY      -652.810285128569

DIPOLE MOMENT
-------------
                                X             Y             Z
Electronic contribution:    -12.52427       5.14089      -0.00065
Nuclear contribution   :     14.50612      -5.85420       0.00075
                        -----------------------------------------
Total Dipole Moment    :      1.98186      -0.71330       0.00009
                        -----------------------------------------
Magnitude (a.u.)       :      2.10631
Magnitude (Debye)      :      5.35383

Rotational constants in cm-1:     0.073468     0.013158     0.012028
Rotational constants in MHz :  2202.513270   394.466379   360.600786

                             ****ORCA TERMINATED NORMALLY****
TOTAL RUN TIME: 0 days 0 hours 10 minutes 18 seconds 478 msec
