                         Program Version 4.2.1 -  RELEASE  -
|  1> %pal
|  2>  nprocs 32
|  3> end
|  4> !RI-MP2 aug-cc-pVTZ aug-cc-pVTZ/C TightSCF
|  5> %maxcore 4500
|  6> *xyzfile -1 1  05_4P.xyz
|  7>
|  8>
|  9>                          ****END OF INPUT****

CARTESIAN COORDINATES (ANGSTROEM)
---------------------------------
  O      2.787313   -1.273171    0.198640
  C      2.448723   -0.011329   -0.359353
  C      1.182492    0.595658    0.232619
  H      2.327062   -0.083371   -1.449320
  H      3.279630    0.668976   -0.161787
  C     -0.074160   -0.171788   -0.176789
  O      0.065590   -1.537987    0.240595
  C     -1.330701    0.495958    0.418496
  H     -0.153945   -0.126614   -1.271320
  C     -2.575526   -0.259488   -0.006724
  O     -2.638308   -1.413476   -0.388465
  O     -1.445133    1.799350    0.059402
  O      1.086066    1.926799   -0.205102
  H      1.264557    0.538462    1.331400
  H      0.092633    2.134470   -0.142793
  H     -0.769008   -1.968856    0.007161
  H      1.956029   -1.766279    0.260131
  H     -3.482824    0.377666    0.010354
  H     -1.263324    0.319360    1.526124

 Total Charge           Charge          ....   -1
 Multiplicity           Mult            ....    1
 Number of Electrons    NEL             ....   80
 Basis Dimension        Dim             ....  667

ORBITAL ENERGIES
----------------

  NO   OCC          E(Eh)            E(eV)
   0   2.0000     -20.431783      -555.9771
   1   2.0000     -20.426643      -555.8372
   2   2.0000     -20.413809      -555.4880
   3   2.0000     -20.373290      -554.3854
   4   2.0000     -20.294777      -552.2490
   5   2.0000     -11.193317      -304.5856
   6   2.0000     -11.133301      -302.9525
   7   2.0000     -11.132565      -302.9325
   8   2.0000     -11.127282      -302.7887
   9   2.0000     -11.118861      -302.5596
  10   2.0000      -1.269650       -34.5489
  11   2.0000      -1.236256       -33.6402
  12   2.0000      -1.213335       -33.0165
  13   2.0000      -1.187575       -32.3155
  14   2.0000      -1.103064       -30.0159
  15   2.0000      -0.878979       -23.9182
  16   2.0000      -0.813739       -22.1430
  17   2.0000      -0.755642       -20.5621
  18   2.0000      -0.672160       -18.2904
  19   2.0000      -0.634039       -17.2531
  20   2.0000      -0.568788       -15.4775
  21   2.0000      -0.557123       -15.1601
  22   2.0000      -0.526589       -14.3292
  23   2.0000      -0.521268       -14.1844
  24   2.0000      -0.495770       -13.4906
  25   2.0000      -0.466199       -12.6859
  26   2.0000      -0.453194       -12.3320
  27   2.0000      -0.449752       -12.2384
  28   2.0000      -0.438275       -11.9261
  29   2.0000      -0.423525       -11.5247
  30   2.0000      -0.392592       -10.6830
  31   2.0000      -0.379395       -10.3239
  32   2.0000      -0.357638        -9.7318
  33   2.0000      -0.335058        -9.1174
  34   2.0000      -0.322263        -8.7692
  35   2.0000      -0.307864        -8.3774
  36   2.0000      -0.300021        -8.1640
  37   2.0000      -0.270403        -7.3581
  38   2.0000      -0.204931        -5.5764
  39   2.0000      -0.200735        -5.4623
  40   0.0000       0.119372         3.2483
  41   0.0000       0.121704         3.3117
  42   0.0000       0.127056         3.4574
  43   0.0000       0.130017         3.5379
  44   0.0000       0.140394         3.8203

MULLIKEN ATOMIC CHARGES
-----------------------
   0 O :   -0.768064
   1 C :   -0.281260
   2 C :    0.453547
   3 H :    0.199823
   4 H :    0.318556
   5 C :    0.634593
   6 O :   -0.793087
   7 C :    0.520181
   8 H :    0.285678
   9 C :   -0.319011
  10 O :   -0.852117
  11 O :   -1.113485
  12 O :   -0.982320
  13 H :    0.237500
  14 H :    0.273933
  15 H :    0.182150
  16 H :    0.250312
  17 H :    0.561495
  18 H :    0.191574
Sum of atomic charges:   -1.0000000

LOEWDIN ATOMIC CHARGES
----------------------
   0 O :    0.805356
   1 C :    0.020250
   2 C :   -0.309278
   3 H :   -0.161764
   4 H :   -0.174387
   5 C :   -0.262868
   6 O :    0.870665
   7 C :   -0.529570
   8 H :   -0.139554
   9 C :   -0.205841
  10 O :    0.444660
  11 O :    0.386992
  12 O :    0.801022
  13 H :   -0.139342
  14 H :   -0.791244
  15 H :   -0.607045
  16 H :   -0.655313
  17 H :   -0.191770
  18 H :   -0.160969

  Mayer bond orders larger than 0.100000
B(  0-O ,  1-C ) :   0.6446 B(  0-O , 16-H ) :   0.8912 B(  1-C ,  2-C ) :   0.7789
B(  1-C ,  3-H ) :   1.0560 B(  1-C ,  4-H ) :   0.9726 B(  1-C , 12-O ) :   0.1130
B(  2-C ,  5-C ) :   0.8532 B(  2-C , 12-O ) :   0.4177 B(  2-C , 13-H ) :   1.0268
B(  5-C ,  6-O ) :   0.3386 B(  5-C ,  7-C ) :   0.8663 B(  5-C ,  8-H ) :   0.9219
B(  6-O ,  7-C ) :   0.1320 B(  6-O , 15-H ) :   0.9843 B(  7-C ,  9-C ) :   0.5485
B(  7-C , 11-O ) :   0.7354 B(  7-C , 18-H ) :   1.0569 B(  9-C , 10-O ) :   1.5076
B(  9-C , 17-H ) :   0.6423 B( 10-O , 17-H ) :  -0.1036 B( 11-O , 12-O ) :  -0.1056
B( 11-O , 14-H ) :   0.2412 B( 12-O , 14-H ) :   0.7310

MP2 TOTAL ENERGY:     -571.192243702 Eh
FINAL SINGLE POINT ENERGY      -571.192243701846

DIPOLE MOMENT
-------------
                                X             Y             Z
Electronic contribution:     -3.26658      -1.32174      -0.02079
Nuclear contribution   :      3.23210       0.08552       0.10790
                        -----------------------------------------
Total Dipole Moment    :     -0.03448      -1.23622       0.08712
                        -----------------------------------------
Magnitude (a.u.)       :      1.23976
Magnitude (Debye)      :      3.15123

Rotational constants in cm-1:     0.068714     0.031724     0.022719
Rotational constants in MHz :  2060.004650   951.069948   681.100058

                             ****ORCA TERMINATED NORMALLY****
TOTAL RUN TIME: 0 days 0 hours 4 minutes 49 seconds 158 msec
