                         Program Version 4.2.1 -  RELEASE  -
|  1> %pal
|  2>  nprocs 32
|  3> end
|  4> !RI-MP2 aug-cc-pVTZ aug-cc-pVTZ/C TightSCF
|  5> %maxcore 4500
|  6> *xyzfile 1 1  10_15P.xyz
|  7>
|  8>
|  9>                          ****END OF INPUT****

CARTESIAN COORDINATES (ANGSTROEM)
---------------------------------
  C     -1.912584   -0.585062    0.393568
  N     -0.505815   -0.917388    0.154198
  N      0.212488    0.079824    0.254182
  C      1.628852    0.010038    0.053468
  C      2.411333    1.116864    0.364116
  C      2.185481   -1.166572   -0.441146
  C      3.781637    1.037187    0.177705
  H      1.978615    2.027036    0.754790
  C      3.553246   -1.225782   -0.624245
  H      1.552712   -2.010150   -0.677802
  C      4.350988   -0.128168   -0.315543
  H      4.403628    1.888854    0.419312
  H      4.001077   -2.131259   -1.012158
  H      5.422187   -0.183189   -0.462459
  C     -2.751615   -1.004741   -0.839508
  C     -2.328048   -1.288862    1.682350
  H     -1.772615   -0.914017    2.544756
  H     -3.389924   -1.106764    1.853028
  H     -2.170257   -2.364571    1.604463
  C     -1.951671    0.968443    0.444940
  C     -0.493745    1.356007    0.607895
  C     -2.615053    1.394998   -0.871108
  H     -3.106217    2.364808   -0.796897
  H     -1.864328    1.467540   -1.665952
  C     -3.573081    0.243125   -1.173592
  H     -2.088043   -1.250499   -1.672203
  H     -3.353137   -1.888330   -0.631223
  H     -4.450717    0.305385   -0.524622
  H     -3.928459    0.242892   -2.203257
  H     -0.204388    1.609650    1.628018
  H     -0.154872    2.136876   -0.070284
  H     -2.536404    1.303842    1.300437

 Total Charge           Charge          ....    1
 Multiplicity           Mult            ....    1
 Number of Electrons    NEL             ....  108
 Basis Dimension        Dim             .... 1081

ORBITAL ENERGIES
----------------

  NO   OCC          E(Eh)            E(eV)
   0   2.0000     -15.891747      -432.4364
   1   2.0000     -15.835350      -430.9018
   2   2.0000     -11.447877      -311.5126
   3   2.0000     -11.435535      -311.1767
   4   2.0000     -11.432698      -311.0995
   5   2.0000     -11.392372      -310.0022
   6   2.0000     -11.389830      -309.9330
   7   2.0000     -11.385164      -309.8061
   8   2.0000     -11.374999      -309.5295
   9   2.0000     -11.372122      -309.4512
  10   2.0000     -11.371257      -309.4276
  11   2.0000     -11.363892      -309.2272
  12   2.0000     -11.363346      -309.2124
  13   2.0000     -11.359583      -309.1100
  14   2.0000     -11.350279      -308.8568
  15   2.0000      -1.623070       -44.1660
  16   2.0000      -1.339339       -36.4453
  17   2.0000      -1.292504       -35.1708
  18   2.0000      -1.263288       -34.3758
  19   2.0000      -1.195666       -32.5357
  20   2.0000      -1.170370       -31.8474
  21   2.0000      -1.160294       -31.5732
  22   2.0000      -1.106686       -30.1144
  23   2.0000      -1.073905       -29.2224
  24   2.0000      -1.014679       -27.6108
  25   2.0000      -0.986908       -26.8551
  26   2.0000      -0.959380       -26.1061
  27   2.0000      -0.935682       -25.4612
  28   2.0000      -0.928155       -25.2564
  29   2.0000      -0.893061       -24.3014
  30   2.0000      -0.846195       -23.0261
  31   2.0000      -0.820744       -22.3336
  32   2.0000      -0.811406       -22.0795
  33   2.0000      -0.786860       -21.4116
  34   2.0000      -0.774551       -21.0766
  35   2.0000      -0.758408       -20.6373
  36   2.0000      -0.747690       -20.3457
  37   2.0000      -0.744816       -20.2675
  38   2.0000      -0.738769       -20.1029
  39   2.0000      -0.718873       -19.5615
  40   2.0000      -0.694619       -18.9016
  41   2.0000      -0.691334       -18.8121
  42   2.0000      -0.677119       -18.4254
  43   2.0000      -0.658631       -17.9223
  44   2.0000      -0.646372       -17.5887
  45   2.0000      -0.641305       -17.4508
  46   2.0000      -0.637302       -17.3419
  47   2.0000      -0.622627       -16.9425
  48   2.0000      -0.613392       -16.6913
  49   2.0000      -0.607992       -16.5443
  50   2.0000      -0.603342       -16.4178
  51   2.0000      -0.597773       -16.2662
  52   2.0000      -0.483535       -13.1577
  53   2.0000      -0.479779       -13.0554
  54   0.0000      -0.107138        -2.9154
  55   0.0000      -0.068323        -1.8592
  56   0.0000      -0.055243        -1.5032
  57   0.0000      -0.053787        -1.4636
  58   0.0000      -0.050685        -1.3792

MULLIKEN ATOMIC CHARGES
-----------------------
   0 C :    1.425641
   1 N :   -1.447153
   2 N :    1.171722
   3 C :    1.069342
   4 C :   -0.559640
   5 C :   -0.471738
   6 C :   -0.757060
   7 H :    0.506996
   8 C :   -0.789753
   9 H :    0.600736
  10 C :   -0.348132
  11 H :    0.420687
  12 H :    0.463341
  13 H :    0.498027
  14 C :   -0.841438
  15 C :   -1.123127
  16 H :    0.275603
  17 H :    0.279309
  18 H :    0.291599
  19 C :    0.075626
  20 C :   -0.925949
  21 C :   -0.576133
  22 H :    0.315973
  23 H :    0.160491
  24 C :   -0.631704
  25 H :    0.216104
  26 H :    0.321986
  27 H :    0.140183
  28 H :    0.373758
  29 H :    0.252766
  30 H :    0.309745
  31 H :    0.302191
Sum of atomic charges:    1.0000000

LOEWDIN ATOMIC CHARGES
----------------------
   0 C :   -0.386070
   1 N :    0.503572
   2 N :    0.169335
   3 C :   -0.167332
   4 C :    0.239222
   5 C :    0.242882
   6 C :    0.239872
   7 H :   -0.180847
   8 C :    0.239638
   9 H :   -0.177387
  10 C :    0.243351
  11 H :   -0.164600
  12 H :   -0.163984
  13 H :   -0.160158
  14 C :    0.349663
  15 C :    0.633967
  16 H :   -0.144485
  17 H :   -0.139049
  18 H :   -0.143842
  19 C :    0.059697
  20 C :    0.325323
  21 C :    0.342514
  22 H :   -0.120094
  23 H :   -0.129807
  24 C :    0.333276
  25 H :   -0.133069
  26 H :   -0.126745
  27 H :   -0.126603
  28 H :   -0.124754
  29 H :   -0.106178
  30 H :   -0.120008
  31 H :   -0.107298

  Mayer bond orders larger than 0.100000
B(  0-C ,  1-N ) :   0.6499 B(  0-C ,  3-C ) :  -0.1383 B(  0-C ,  4-C ) :   0.1221
B(  0-C ,  5-C ) :   0.1248 B(  0-C , 14-C ) :   0.4805 B(  0-C , 15-C ) :   0.1929
B(  0-C , 16-H ) :  -0.1410 B(  0-C , 17-H ) :  -0.1453 B(  0-C , 19-C ) :   1.0038
B(  1-N ,  2-N ) :  -0.1885 B(  1-N ,  3-C ) :  -0.4450 B(  1-N ,  4-C ) :   0.3079
B(  1-N ,  5-C ) :   0.2379 B(  1-N ,  9-H ) :  -0.3075 B(  1-N , 10-C ) :   0.1352
B(  1-N , 14-C ) :   0.1880 B(  2-N ,  3-C ) :   0.8547 B(  2-N ,  4-C ) :  -1.0803
B(  2-N ,  5-C ) :  -0.7723 B(  2-N ,  6-C ) :   0.1253 B(  2-N ,  7-H ) :   0.1880
B(  2-N ,  8-C ) :   0.1098 B(  2-N ,  9-H ) :   0.2099 B(  2-N , 10-C ) :  -0.2251
B(  2-N , 11-H ) :  -0.1152 B(  2-N , 20-C ) :   0.8998 B(  2-N , 29-H ) :   0.2089
B(  3-C ,  4-C ) :   0.7611 B(  3-C ,  5-C ) :   0.5179 B(  3-C ,  6-C ) :  -0.3433
B(  3-C ,  7-H ) :  -0.2737 B(  3-C ,  8-C ) :  -0.3743 B(  3-C ,  9-H ) :  -0.1364
B(  3-C , 11-H ) :   0.1283 B(  3-C , 12-H ) :   0.1137 B(  3-C , 20-C ) :  -0.1233
B(  4-C ,  6-C ) :   1.3615 B(  4-C ,  7-H ) :   0.6031 B(  4-C , 10-C ) :   0.2309
B(  5-C ,  8-C ) :   1.3465 B(  5-C ,  9-H ) :   0.6855 B(  5-C , 10-C ) :   0.1224
B(  6-C , 10-C ) :   1.0899 B(  6-C , 11-H ) :   0.8678 B(  8-C , 10-C ) :   1.1507
B(  8-C , 12-H ) :   0.8136 B( 10-C , 13-H ) :   0.7338 B( 14-C , 24-C ) :   1.0363
B( 14-C , 25-H ) :   1.0713 B( 14-C , 26-H ) :   0.9240 B( 15-C , 16-H ) :   1.0444
B( 15-C , 17-H ) :   1.0402 B( 15-C , 18-H ) :   1.0490 B( 19-C , 20-C ) :   0.8935
B( 19-C , 21-C ) :   0.9437 B( 19-C , 31-H ) :   0.8681 B( 20-C , 29-H ) :   0.9957
B( 20-C , 30-H ) :   1.0138 B( 21-C , 22-H ) :   0.8987 B( 21-C , 23-H ) :   1.0768
B( 21-C , 24-C ) :   1.0242 B( 24-C , 27-H ) :   1.0850 B( 24-C , 28-H ) :   0.8706

MP2 TOTAL ENERGY:     -613.598102955 Eh
FINAL SINGLE POINT ENERGY      -613.598102955179

DIPOLE MOMENT
-------------
                                X             Y             Z
Electronic contribution:     11.61679      -0.96986      -0.02510
Nuclear contribution   :    -11.86084       1.51853       0.39697
                        -----------------------------------------
Total Dipole Moment    :     -0.24406       0.54867       0.37187
                        -----------------------------------------
Magnitude (a.u.)       :      0.70632
Magnitude (Debye)      :      1.79533

Rotational constants in cm-1:     0.050520     0.011396     0.010710
Rotational constants in MHz :  1514.558241   341.637050   321.088954

                             ****ORCA TERMINATED NORMALLY****
TOTAL RUN TIME: 0 days 0 hours 28 minutes 0 seconds 747 msec
