                         Program Version 4.2.1 -  RELEASE  -
|  1> %pal
|  2>  nprocs 32
|  3> end
|  4> !RI-MP2 aug-cc-pVTZ aug-cc-pVTZ/C TightSCF
|  5> %maxcore 4500
|  6> *xyzfile 0 2  01_4R.xyz
|  7>
|  8>
|  9>                          ****END OF INPUT****

CARTESIAN COORDINATES (ANGSTROEM)
---------------------------------
  C     -1.634109   -0.134287   -0.149704
  C      2.044898   -0.735680   -0.569704
  C      1.308406   -0.302328    0.646250
  C      0.504672    0.985529    0.451869
  C     -0.632896    0.842118   -0.568434
  N     -2.409755   -0.904410    0.198810
  H      2.019747   -0.132598    1.469179
  H      0.647874   -1.102311    0.994391
  H      1.167532    1.782412    0.103386
  H      0.089972    1.310765    1.408504
  H     -0.236125    0.525195   -1.536070
  H     -1.135581    1.799556   -0.720673
  H      2.246090   -1.780955   -0.761275
  H      2.522945   -0.003308   -1.210769

 Total Charge           Charge          ....    0
 Multiplicity           Mult            ....    2
 Number of Electrons    NEL             ....   45
 Basis Dimension        Dim             ....  460

ORBITAL ENERGIES
----------------
                 SPIN UP ORBITALS
  NO   OCC          E(Eh)            E(eV)
   0   1.0000     -15.563367      -423.5008
   1   1.0000     -11.279694      -306.9361
   2   1.0000     -11.268179      -306.6227
   3   1.0000     -11.252685      -306.2011
   4   1.0000     -11.241785      -305.9045
   5   1.0000     -11.238056      -305.8031
   6   1.0000      -1.220956       -33.2239
   7   1.0000      -1.114318       -30.3221
   8   1.0000      -1.030273       -28.0352
   9   1.0000      -0.918948       -25.0058
  10   1.0000      -0.815684       -22.1959
  11   1.0000      -0.697414       -18.9776
  12   1.0000      -0.662618       -18.0308
  13   1.0000      -0.644519       -17.5383
  14   1.0000      -0.592521       -16.1233
  15   1.0000      -0.579461       -15.7679
  16   1.0000      -0.550374       -14.9764
  17   1.0000      -0.540998       -14.7213
  18   1.0000      -0.512446       -13.9444
  19   1.0000      -0.500962       -13.6319
  20   1.0000      -0.456451       -12.4207
  21   1.0000      -0.455452       -12.3935
  22   1.0000      -0.364233        -9.9113
  23   0.0000       0.023585         0.6418
  24   0.0000       0.033688         0.9167
  25   0.0000       0.033945         0.9237
  26   0.0000       0.041851         1.1388
  27   0.0000       0.054225         1.4755

                 SPIN DOWN ORBITALS
  NO   OCC          E(Eh)            E(eV)
   0   1.0000     -15.563372      -423.5009
   1   1.0000     -11.279611      -306.9338
   2   1.0000     -11.268176      -306.6226
   3   1.0000     -11.251759      -306.1759
   4   1.0000     -11.241216      -305.8890
   5   1.0000     -11.218367      -305.2673
   6   1.0000      -1.220909       -33.2226
   7   1.0000      -1.107317       -30.1316
   8   1.0000      -1.008631       -27.4462
   9   1.0000      -0.885845       -24.1051
  10   1.0000      -0.787627       -21.4324
  11   1.0000      -0.694879       -18.9086
  12   1.0000      -0.656143       -17.8546
  13   1.0000      -0.635629       -17.2963
  14   1.0000      -0.586263       -15.9530
  15   1.0000      -0.572958       -15.5910
  16   1.0000      -0.547248       -14.8914
  17   1.0000      -0.523424       -14.2431
  18   1.0000      -0.505354       -13.7514
  19   1.0000      -0.497964       -13.5503
  20   1.0000      -0.455747       -12.4015
  21   1.0000      -0.454577       -12.3697
  22   0.0000       0.023854         0.6491
  23   0.0000       0.033598         0.9143
  24   0.0000       0.034383         0.9356
  25   0.0000       0.041611         1.1323
  26   0.0000       0.053037         1.4432

MULLIKEN ATOMIC CHARGES AND SPIN POPULATIONS
--------------------------------------------
   0 C :    0.202306   -0.000227
   1 C :   -1.108989    1.234939
   2 C :   -0.175094   -0.206353
   3 C :   -0.435405    0.043426
   4 C :   -0.171474   -0.000856
   5 N :   -0.650885    0.000400
   6 H :    0.259653    0.083045
   7 H :    0.202947    0.003988
   8 H :    0.243458   -0.004125
   9 H :    0.268411   -0.005153
  10 H :    0.281036   -0.009719
  11 H :    0.301655    0.000622
  12 H :    0.410120   -0.070973
  13 H :    0.372261   -0.069014
Sum of atomic charges         :   -0.0000000

LOEWDIN ATOMIC CHARGES AND SPIN POPULATIONS
-------------------------------------------
   0 C :   -0.217798    0.001789
   1 C :    0.593850    0.561700
   2 C :    0.211325    0.125326
   3 C :    0.260186    0.012765
   4 C :    0.236170    0.010264
   5 N :    0.266762    0.000038
   6 H :   -0.149027    0.032298
   7 H :   -0.165762    0.005370
   8 H :   -0.143140   -0.000204
   9 H :   -0.140960    0.001126
  10 H :   -0.160670    0.009824
  11 H :   -0.153480    0.000818
  12 H :   -0.219974    0.120470
  13 H :   -0.217481    0.118415

  Mayer bond orders larger than 0.100000
B(  0-C ,  3-C ) :   0.1612 B(  0-C ,  4-C ) :   0.8489 B(  0-C ,  5-N ) :   2.1956
B(  1-C ,  2-C ) :   0.7812 B(  1-C , 12-H ) :   0.8132 B(  1-C , 13-H ) :   0.8869
B(  2-C ,  3-C ) :   0.8621 B(  2-C ,  6-H ) :   0.9392 B(  2-C ,  7-H ) :   0.9956
B(  3-C ,  4-C ) :   0.8690 B(  3-C ,  8-H ) :   0.9878 B(  3-C ,  9-H ) :   0.9466
B(  4-C , 10-H ) :   0.9241 B(  4-C , 11-H ) :   0.9435

MP2 TOTAL ENERGY:     -249.500684309 Eh
FINAL SINGLE POINT ENERGY      -249.500684309437

DIPOLE MOMENT
-------------
                                X             Y             Z
Electronic contribution:     -6.24530      -1.39753      -0.05449
Nuclear contribution   :      7.52075       2.46302      -0.25949
                        -----------------------------------------
Total Dipole Moment    :      1.27545       1.06549      -0.31398
                        -----------------------------------------
Magnitude (a.u.)       :      1.69134
Magnitude (Debye)      :      4.29905

Rotational constants in cm-1:     0.215077     0.071262     0.064219
Rotational constants in MHz :  6447.836347  2136.391764  1925.224443

                             ****ORCA TERMINATED NORMALLY****
TOTAL RUN TIME: 0 days 0 hours 1 minutes 57 seconds 534 msec
