                         Program Version 4.2.1 -  RELEASE  -
|  1> %pal
|  2>  nprocs 32
|  3> end
|  4> !RI-MP2 aug-cc-pVTZ aug-cc-pVTZ/C TightSCF
|  5> %maxcore 4500
|  6> *xyzfile 1 1  05_16P1.xyz
|  7>
|  8>
|  9>                          ****END OF INPUT****

CARTESIAN COORDINATES (ANGSTROEM)
---------------------------------
  C      2.236018    0.497916   -0.000013
  C      0.851815    0.287837   -0.000006
  C      0.293198   -1.011124    0.000011
  C      0.007448    1.419272   -0.000016
  C     -1.067000   -1.166191    0.000018
  H      0.943099   -1.876544    0.000018
  C     -1.356392    1.262567   -0.000009
  H      0.434620    2.415441   -0.000030
  C     -1.887763   -0.029119    0.000010
  H     -1.517508   -2.149312    0.000030
  H     -2.018626    2.117236   -0.000017
  O      3.065289   -0.466491   -0.000010
  C      4.500300   -0.224825   -0.000010
  H      4.697247    0.846512   -0.000076
  H      4.894221   -0.700014    0.894287
  H      4.894235   -0.700125   -0.894242
  Cl    -3.585331   -0.232533    0.000014
  H      2.635271    1.513797   -0.000026

 Total Charge           Charge          ....    1
 Multiplicity           Mult            ....    1
 Number of Electrons    NEL             ....   80
 Basis Dimension        Dim             ....  648

ORBITAL ENERGIES
----------------

  NO   OCC          E(Eh)            E(eV)
   0   2.0000    -104.987052     -2856.8429
   1   2.0000     -20.824664      -566.6679
   2   2.0000     -11.561135      -314.5945
   3   2.0000     -11.485560      -312.5380
   4   2.0000     -11.465009      -311.9788
   5   2.0000     -11.436425      -311.2009
   6   2.0000     -11.429696      -311.0178
   7   2.0000     -11.422216      -310.8143
   8   2.0000     -11.401740      -310.2571
   9   2.0000     -11.400920      -310.2348
  10   2.0000     -10.710730      -291.4538
  11   2.0000      -8.177590      -222.5235
  12   2.0000      -8.175516      -222.4671
  13   2.0000      -8.175319      -222.4617
  14   2.0000      -1.662865       -45.2489
  15   2.0000      -1.362234       -37.0683
  16   2.0000      -1.301410       -35.4132
  17   2.0000      -1.221673       -33.2434
  18   2.0000      -1.205853       -32.8129
  19   2.0000      -1.150226       -31.2992
  20   2.0000      -1.065889       -29.0043
  21   2.0000      -1.015046       -27.6208
  22   2.0000      -0.984219       -26.7820
  23   2.0000      -0.911971       -24.8160
  24   2.0000      -0.900868       -24.5139
  25   2.0000      -0.853651       -23.2290
  26   2.0000      -0.824866       -22.4457
  27   2.0000      -0.810982       -22.0679
  28   2.0000      -0.794313       -21.6144
  29   2.0000      -0.771627       -20.9970
  30   2.0000      -0.746636       -20.3170
  31   2.0000      -0.724053       -19.7025
  32   2.0000      -0.712530       -19.3889
  33   2.0000      -0.692459       -18.8428
  34   2.0000      -0.687393       -18.7049
  35   2.0000      -0.676045       -18.3961
  36   2.0000      -0.622558       -16.9407
  37   2.0000      -0.595357       -16.2005
  38   2.0000      -0.518851       -14.1187
  39   2.0000      -0.505580       -13.7575
  40   0.0000      -0.146760        -3.9936
  41   0.0000      -0.080672        -2.1952
  42   0.0000      -0.064113        -1.7446
  43   0.0000      -0.058220        -1.5842
  44   0.0000      -0.057583        -1.5669

MULLIKEN ATOMIC CHARGES
-----------------------
   0 C :   -0.635464
   1 C :    2.123312
   2 C :   -0.282429
   3 C :   -0.724875
   4 C :   -0.945284
   5 H :    0.324861
   6 C :   -0.863014
   7 H :    0.282321
   8 C :    0.782829
   9 H :    0.489166
  10 H :    0.474186
  11 O :   -0.523693
  12 C :   -0.724443
  13 H :    0.402903
  14 H :    0.350062
  15 H :    0.350054
  16 Cl:   -0.387475
  17 H :    0.506983
Sum of atomic charges:    1.0000000

LOEWDIN ATOMIC CHARGES
----------------------
   0 C :    0.054069
   1 C :   -0.108957
   2 C :    0.250980
   3 C :    0.237350
   4 C :    0.163305
   5 H :   -0.152142
   6 C :    0.161150
   7 H :   -0.148834
   8 C :   -0.743301
   9 H :   -0.183772
  10 H :   -0.184443
  11 O :    0.640052
  12 C :    0.494167
  13 H :   -0.169468
  14 H :   -0.153229
  15 H :   -0.153229
  16 Cl:    1.119677
  17 H :   -0.123373

  Mayer bond orders larger than 0.100000
B(  0-C ,  2-C ) :   0.2384 B(  0-C ,  3-C ) :   0.1794 B(  0-C ,  8-C ) :   0.1373
B(  0-C , 11-O ) :   1.5097 B(  0-C , 17-H ) :   0.7761 B(  1-C ,  2-C ) :   0.3502
B(  1-C ,  5-H ) :  -0.2023 B(  1-C ,  6-C ) :  -0.1543 B(  1-C ,  7-H ) :  -0.1021
B(  1-C , 11-O ) :  -0.3277 B(  2-C ,  3-C ) :  -0.2266 B(  2-C ,  4-C ) :   1.3622
B(  2-C ,  5-H ) :   1.0759 B(  3-C ,  5-H ) :   0.1161 B(  3-C ,  6-C ) :   1.3296
B(  3-C ,  7-H ) :   1.2518 B(  3-C , 11-O ) :   0.1190 B(  4-C ,  8-C ) :   1.1415
B(  4-C ,  9-H ) :   0.7748 B(  6-C ,  8-C ) :   1.2250 B(  6-C , 10-H ) :   0.8007
B(  8-C , 16-Cl) :   0.6935 B( 11-O , 12-C ) :   0.7588 B( 12-C , 13-H ) :   0.8290
B( 12-C , 14-H ) :   0.8920 B( 12-C , 15-H ) :   0.8920

MP2 TOTAL ENERGY:     -843.561980265 Eh
FINAL SINGLE POINT ENERGY      -843.561980265098

DIPOLE MOMENT
-------------
                                X             Y             Z
Electronic contribution:    -16.25348      -1.06320       0.00006
Nuclear contribution   :     19.68982       1.75223      -0.00008
                        -----------------------------------------
Total Dipole Moment    :      3.43634       0.68903      -0.00002
                        -----------------------------------------
Magnitude (a.u.)       :      3.50474
Magnitude (Debye)      :      8.90833

Rotational constants in cm-1:     0.158796     0.015583     0.014229
Rotational constants in MHz :  4760.580526   467.174711   426.583847

                             ****ORCA TERMINATED NORMALLY****
TOTAL RUN TIME: 0 days 0 hours 4 minutes 38 seconds 39 msec
