                         Program Version 4.2.1 -  RELEASE  -
|  1> %pal
|  2>  nprocs 32
|  3> end
|  4> !RI-MP2 aug-cc-pVTZ aug-cc-pVTZ/C TightSCF
|  5> %maxcore 4500
|  6> *xyzfile 0 1  05_18R1.xyz
|  7>
|  8>
|  9>                          ****END OF INPUT****

CARTESIAN COORDINATES (ANGSTROEM)
---------------------------------
  C      3.257011    1.113620    0.214722
  C      2.350555    2.286078    0.479917
  C      1.027476    2.212941    0.388724
  N      0.354429    1.040504    0.030167
  C      1.103803   -0.108428   -0.079759
  C      2.440409   -0.138776   -0.010246
  C      3.070509   -1.469832   -0.177898
  O      2.435621   -2.489889   -0.394241
  N      4.432930   -1.494227   -0.092530
  C     -1.077305    0.961378    0.142421
  C     -1.778565    0.289275   -1.040930
  C     -3.029177   -0.258896   -0.388514
  C     -2.487152   -0.740828    0.950234
  O     -1.479059    0.227522    1.291566
  H     -1.439003    1.990479    0.220052
  C     -3.500616   -0.837870    2.061934
  H     -2.008190   -1.714825    0.792296
  H     -3.023083   -1.164960    2.986223
  H     -4.272761   -1.561579    1.793689
  H     -3.968220    0.133241    2.237551
  O     -3.642845   -1.318059   -1.081081
  H     -3.735044    0.568139   -0.232076
  O     -2.101935    1.175675   -2.089160
  H     -1.188122   -0.553147   -1.415474
  H     -1.313575    1.361446   -2.606699
  H     -3.977141   -0.984284   -1.918587
  H      4.886183   -2.390227   -0.162000
  H      4.979162   -0.687741    0.150572
  H      0.387906    3.063826    0.581574
  H      2.796450    3.232593    0.756844
  H      0.568579   -1.037169   -0.223476
  H      3.938068    0.984472    1.067250
  H      3.901342    1.321835   -0.651503

 Total Charge           Charge          ....    0
 Multiplicity           Mult            ....    1
 Number of Electrons    NEL             ....  128
 Basis Dimension        Dim             .... 1150

ORBITAL ENERGIES
----------------

  NO   OCC          E(Eh)            E(eV)
   0   2.0000     -20.584055      -560.1206
   1   2.0000     -20.572805      -559.8145
   2   2.0000     -20.567089      -559.6590
   3   2.0000     -20.500872      -557.8571
   4   2.0000     -15.602602      -424.5684
   5   2.0000     -15.576661      -423.8625
   6   2.0000     -11.343307      -308.6671
   7   2.0000     -11.333444      -308.3987
   8   2.0000     -11.296190      -307.3850
   9   2.0000     -11.290688      -307.2352
  10   2.0000     -11.287753      -307.1554
  11   2.0000     -11.285728      -307.1003
  12   2.0000     -11.277894      -306.8871
  13   2.0000     -11.247089      -306.0489
  14   2.0000     -11.230071      -305.5858
  15   2.0000     -11.226426      -305.4866
  16   2.0000     -11.217946      -305.2558
  17   2.0000      -1.413595       -38.4659
  18   2.0000      -1.385801       -37.7096
  19   2.0000      -1.375491       -37.4290
  20   2.0000      -1.368829       -37.2477
  21   2.0000      -1.291253       -35.1368
  22   2.0000      -1.202951       -32.7340
  23   2.0000      -1.102465       -29.9996
  24   2.0000      -1.063273       -28.9331
  25   2.0000      -1.054120       -28.6841
  26   2.0000      -1.031949       -28.0808
  27   2.0000      -0.946309       -25.7504
  28   2.0000      -0.901955       -24.5435
  29   2.0000      -0.882280       -24.0081
  30   2.0000      -0.828127       -22.5345
  31   2.0000      -0.817410       -22.2428
  32   2.0000      -0.796180       -21.6652
  33   2.0000      -0.750838       -20.4313
  34   2.0000      -0.737449       -20.0670
  35   2.0000      -0.721961       -19.6456
  36   2.0000      -0.704423       -19.1683
  37   2.0000      -0.685122       -18.6431
  38   2.0000      -0.680581       -18.5195
  39   2.0000      -0.658575       -17.9207
  40   2.0000      -0.644651       -17.5419
  41   2.0000      -0.633746       -17.2451
  42   2.0000      -0.624531       -16.9944
  43   2.0000      -0.614764       -16.7286
  44   2.0000      -0.611992       -16.6531
  45   2.0000      -0.609036       -16.5727
  46   2.0000      -0.590606       -16.0712
  47   2.0000      -0.558869       -15.2076
  48   2.0000      -0.556715       -15.1490
  49   2.0000      -0.555765       -15.1231
  50   2.0000      -0.551686       -15.0121
  51   2.0000      -0.542269       -14.7559
  52   2.0000      -0.529999       -14.4220
  53   2.0000      -0.526815       -14.3354
  54   2.0000      -0.522739       -14.2245
  55   2.0000      -0.505539       -13.7564
  56   2.0000      -0.490888       -13.3577
  57   2.0000      -0.464334       -12.6352
  58   2.0000      -0.441876       -12.0240
  59   2.0000      -0.430834       -11.7236
  60   2.0000      -0.416545       -11.3348
  61   2.0000      -0.407817       -11.0973
  62   2.0000      -0.380977       -10.3669
  63   2.0000      -0.296453        -8.0669
  64   0.0000       0.021509         0.5853
  65   0.0000       0.027651         0.7524
  66   0.0000       0.031579         0.8593
  67   0.0000       0.033663         0.9160
  68   0.0000       0.040700         1.1075

MULLIKEN ATOMIC CHARGES
-----------------------
   0 C :    0.028081
   1 C :   -0.842989
   2 C :   -0.630621
   3 N :   -0.284703
   4 C :   -1.380315
   5 C :    1.640579
   6 C :    0.815613
   7 O :   -1.037386
   8 N :   -0.510314
   9 C :    0.463624
  10 C :    0.359969
  11 C :    0.640055
  12 C :    0.395431
  13 O :   -0.973149
  14 H :    0.461518
  15 C :   -1.121773
  16 H :    0.313695
  17 H :    0.261566
  18 H :    0.293619
  19 H :    0.263177
  20 O :   -0.854909
  21 H :    0.225761
  22 O :   -0.902320
  23 H :    0.261610
  24 H :    0.160912
  25 H :    0.146080
  26 H :    0.142467
  27 H :    0.175892
  28 H :    0.467678
  29 H :    0.349731
  30 H :    0.292331
  31 H :    0.177634
  32 H :    0.201457
Sum of atomic charges:   -0.0000000

LOEWDIN ATOMIC CHARGES
----------------------
   0 C :    0.235913
   1 C :    0.253236
   2 C :    0.137998
   3 N :    0.259324
   4 C :    0.133209
   5 C :   -0.062169
   6 C :   -0.700805
   7 O :    0.432118
   8 N :    0.858481
   9 C :   -0.327625
  10 C :   -0.232825
  11 C :   -0.258918
  12 C :   -0.260686
  13 O :    0.630131
  14 H :   -0.141247
  15 C :    0.604662
  16 H :   -0.125317
  17 H :   -0.163090
  18 H :   -0.160119
  19 H :   -0.163550
  20 O :    0.854804
  21 H :   -0.118613
  22 O :    0.853767
  23 H :   -0.136239
  24 H :   -0.466192
  25 H :   -0.468215
  26 H :   -0.288531
  27 H :   -0.331219
  28 H :   -0.170207
  29 H :   -0.187929
  30 H :   -0.181803
  31 H :   -0.159683
  32 H :   -0.148659

  Mayer bond orders larger than 0.100000
B(  0-C ,  1-C ) :   0.6940 B(  0-C ,  2-C ) :   0.1478 B(  0-C ,  4-C ) :  -0.1766
B(  0-C ,  5-C ) :   0.5532 B(  0-C , 30-H ) :  -0.1322 B(  0-C , 31-H ) :   1.0496
B(  0-C , 32-H ) :   1.0326 B(  1-C ,  2-C ) :   1.3501 B(  1-C ,  3-N ) :  -0.3204
B(  1-C ,  5-C ) :   0.2842 B(  1-C , 28-H ) :  -0.1700 B(  1-C , 29-H ) :   1.0597
B(  2-C ,  3-N ) :   1.2720 B(  2-C ,  5-C ) :  -0.2065 B(  2-C ,  9-C ) :  -0.3018
B(  2-C , 13-O ) :   0.1129 B(  2-C , 14-H ) :  -0.1416 B(  2-C , 28-H ) :   0.7568
B(  3-N ,  4-C ) :   1.0004 B(  3-N ,  5-C ) :  -0.4778 B(  3-N ,  9-C ) :   0.9481
B(  3-N , 14-H ) :  -0.1388 B(  4-C ,  5-C ) :   0.7275 B(  4-C ,  6-C ) :   0.4975
B(  4-C ,  8-N ) :   0.1626 B(  4-C ,  9-C ) :  -0.1328 B(  4-C , 30-H ) :   1.5888
B(  5-C ,  6-C ) :   0.3396 B(  5-C ,  7-O ) :   0.2832 B(  5-C ,  8-N ) :  -0.3462
B(  5-C , 30-H ) :  -0.4945 B(  6-C ,  7-O ) :   0.7138 B(  6-C ,  8-N ) :   0.9424
B(  6-C , 30-H ) :   0.1447 B(  8-N , 26-H ) :   1.0388 B(  8-N , 27-H ) :   1.0196
B(  9-C , 10-C ) :   0.9673 B(  9-C , 13-O ) :   0.4428 B(  9-C , 14-H ) :   0.6342
B(  9-C , 22-O ) :   0.1259 B( 10-C , 11-C ) :   0.9695 B( 10-C , 20-O ) :   0.1640
B( 10-C , 23-H ) :   1.0282 B( 11-C , 12-C ) :   0.9006 B( 11-C , 21-H ) :   1.0441
B( 12-C , 13-O ) :   0.6028 B( 12-C , 15-C ) :   0.5494 B( 12-C , 16-H ) :   0.9705
B( 12-C , 20-O ) :   0.1075 B( 14-H , 22-O ) :   0.1188 B( 15-C , 17-H ) :   1.0311
B( 15-C , 18-H ) :   1.0070 B( 15-C , 19-H ) :   1.0258 B( 20-O , 25-H ) :   1.0594
B( 22-O , 24-H ) :   1.0604

MP2 TOTAL ENERGY:     -837.704038083 Eh
FINAL SINGLE POINT ENERGY      -837.704038082834

DIPOLE MOMENT
-------------
                                X             Y             Z
Electronic contribution:      3.94002      -0.96674      -3.55292
Nuclear contribution   :     -3.51680       2.52294       3.34191
                        -----------------------------------------
Total Dipole Moment    :      0.42323       1.55619      -0.21101
                        -----------------------------------------
Magnitude (a.u.)       :      1.62646
Magnitude (Debye)      :      4.13414

Rotational constants in cm-1:     0.025360     0.008947     0.008097
Rotational constants in MHz :   760.279658   268.215111   242.727269

                             ****ORCA TERMINATED NORMALLY****
TOTAL RUN TIME: 0 days 0 hours 28 minutes 23 seconds 359 msec
