                         Program Version 4.2.1 -  RELEASE  -
|  1> %pal
|  2>  nprocs 32
|  3> end
|  4> !RI-MP2 aug-cc-pVTZ aug-cc-pVTZ/C TightSCF
|  5> %maxcore 4500
|  6> *xyzfile 0 1  10_44R.xyz
|  7>
|  8>
|  9>                          ****END OF INPUT****

CARTESIAN COORDINATES (ANGSTROEM)
---------------------------------
  C      0.431736   -2.604557    0.450379
  H      0.612882   -3.664990    0.269476
  H      0.211628   -2.483275    1.529527
  C     -0.768611   -2.149803   -0.340692
  C      0.306397    0.056249   -0.599609
  H      0.612701   -0.123263   -1.635216
  H      0.177542    1.125272   -0.482417
  C      1.446120   -0.430946    0.304499
  H      1.137551   -0.256740    1.355426
  N      1.627884   -1.861149    0.086747
  C     -2.163861   -0.088172   -0.064933
  C     -1.524407   -3.010043   -1.013731
  C     -3.345318   -0.925010    0.244314
  C     -4.580723   -0.748396   -0.214793
  C     -0.980739   -0.682029   -0.325095
  C     -5.742012   -1.630397    0.118455
  H     -6.162978   -2.088067   -0.782079
  H     -5.449041   -2.430568    0.800718
  H     -6.549592   -1.060948    0.588870
  C      2.732410    0.345580    0.078323
  C      2.814305   -2.372231    0.746387
  H      2.809733   -3.461462    0.672697
  H      2.819499   -2.116685    1.822000
  C      4.043619   -1.805191    0.063845
  H      4.118836   -2.236630   -0.938852
  C      3.961618   -0.304935   -0.036094
  H      4.946913   -2.090269    0.609493
  C      5.119482    0.446304   -0.227889
  H      6.069905   -0.069588   -0.316121
  C      2.703266    1.739612    0.028370
  H      1.763971    2.265543    0.144133
  C      5.077325    1.827474   -0.296802
  H      5.988525    2.394258   -0.445209
  C      3.858634    2.478572   -0.159695
  H      3.807810    3.560025   -0.196615
  Si    -2.315873    1.805070    0.093332
  C     -1.245249    2.384894    1.532221
  H     -0.197532    2.094347    1.454332
  H     -1.285332    3.474117    1.621978
  H     -1.628730    1.964114    2.465518
  C     -1.844955    2.685815   -1.502042
  H     -0.806707    2.535026   -1.799975
  H     -2.474843    2.336351   -2.324248
  H     -2.008403    3.762050   -1.396203
  C     -4.063883    2.346409    0.519841
  H     -4.474748    1.782398    1.358675
  H     -4.037843    3.402396    0.804716
  H     -4.756436    2.251893   -0.317914
  H     -2.384794   -2.683169   -1.582276
  H     -1.295349   -4.069970   -1.019206
  H     -4.784176    0.071943   -0.897011
  H     -3.164876   -1.782234    0.890359

 Total Charge           Charge          ....    0
 Multiplicity           Mult            ....    1
 Number of Electrons    NEL             ....  176
 Basis Dimension        Dim             .... 1729

ORBITAL ENERGIES
----------------

  NO   OCC          E(Eh)            E(eV)
   0   2.0000     -68.752669     -1870.8552
   1   2.0000     -15.550191      -423.1422
   2   2.0000     -11.264768      -306.5299
   3   2.0000     -11.255051      -306.2655
   4   2.0000     -11.250920      -306.1531
   5   2.0000     -11.240614      -305.8726
   6   2.0000     -11.236710      -305.7664
   7   2.0000     -11.235409      -305.7310
   8   2.0000     -11.235338      -305.7291
   9   2.0000     -11.229897      -305.5810
  10   2.0000     -11.229324      -305.5654
  11   2.0000     -11.227954      -305.5282
  12   2.0000     -11.227100      -305.5049
  13   2.0000     -11.225130      -305.4513
  14   2.0000     -11.224116      -305.4237
  15   2.0000     -11.219659      -305.3024
  16   2.0000     -11.217953      -305.2560
  17   2.0000     -11.217800      -305.2519
  18   2.0000     -11.216925      -305.2280
  19   2.0000     -11.212666      -305.1122
  20   2.0000     -11.193274      -304.5845
  21   2.0000     -11.193249      -304.5838
  22   2.0000     -11.190290      -304.5033
  23   2.0000      -6.099307      -165.9706
  24   2.0000      -4.205700      -114.4429
  25   2.0000      -4.205500      -114.4375
  26   2.0000      -4.205462      -114.4364
  27   2.0000      -1.256013       -34.1778
  28   2.0000      -1.157401       -31.4945
  29   2.0000      -1.123747       -30.5787
  30   2.0000      -1.074039       -29.2261
  31   2.0000      -1.064580       -28.9687
  32   2.0000      -1.052979       -28.6530
  33   2.0000      -1.014508       -27.6062
  34   2.0000      -0.996602       -27.1189
  35   2.0000      -0.966334       -26.2953
  36   2.0000      -0.958336       -26.0776
  37   2.0000      -0.929604       -25.2958
  38   2.0000      -0.921028       -25.0624
  39   2.0000      -0.916690       -24.9444
  40   2.0000      -0.898108       -24.4388
  41   2.0000      -0.858912       -23.3722
  42   2.0000      -0.835951       -22.7474
  43   2.0000      -0.812664       -22.1137
  44   2.0000      -0.800779       -21.7903
  45   2.0000      -0.756777       -20.5929
  46   2.0000      -0.746334       -20.3088
  47   2.0000      -0.699288       -19.0286
  48   2.0000      -0.691442       -18.8151
  49   2.0000      -0.663293       -18.0491
  50   2.0000      -0.652894       -17.7661
  51   2.0000      -0.644211       -17.5299
  52   2.0000      -0.639333       -17.3971
  53   2.0000      -0.620142       -16.8749
  54   2.0000      -0.617760       -16.8101
  55   2.0000      -0.600886       -16.3509
  56   2.0000      -0.597087       -16.2476
  57   2.0000      -0.590643       -16.0722
  58   2.0000      -0.582645       -15.8546
  59   2.0000      -0.576610       -15.6904
  60   2.0000      -0.567772       -15.4499
  61   2.0000      -0.562455       -15.3052
  62   2.0000      -0.560350       -15.2479
  63   2.0000      -0.558558       -15.1991
  64   2.0000      -0.549233       -14.9454
  65   2.0000      -0.546078       -14.8595
  66   2.0000      -0.538832       -14.6624
  67   2.0000      -0.534165       -14.5354
  68   2.0000      -0.530949       -14.4478
  69   2.0000      -0.528580       -14.3834
  70   2.0000      -0.526419       -14.3246
  71   2.0000      -0.521370       -14.1872
  72   2.0000      -0.510348       -13.8873
  73   2.0000      -0.506686       -13.7876
  74   2.0000      -0.500709       -13.6250
  75   2.0000      -0.487706       -13.2712
  76   2.0000      -0.478520       -13.0212
  77   2.0000      -0.458534       -12.4774
  78   2.0000      -0.456425       -12.4200
  79   2.0000      -0.434856       -11.8330
  80   2.0000      -0.424088       -11.5400
  81   2.0000      -0.418402       -11.3853
  82   2.0000      -0.384350       -10.4587
  83   2.0000      -0.367309        -9.9950
  84   2.0000      -0.361612        -9.8400
  85   2.0000      -0.329220        -8.9585
  86   2.0000      -0.322161        -8.7665
  87   2.0000      -0.298376        -8.1192
  88   0.0000       0.023455         0.6383
  89   0.0000       0.027381         0.7451
  90   0.0000       0.027802         0.7565
  91   0.0000       0.032025         0.8714
  92   0.0000       0.035383         0.9628

MULLIKEN ATOMIC CHARGES
-----------------------
   0 C :   -0.753115
   1 H :    0.457566
   2 H :    0.153852
   3 C :    0.503377
   4 C :   -0.701106
   5 H :    0.093267
   6 H :   -0.331222
   7 C :    0.777874
   8 H :    0.325864
   9 N :   -0.565248
  10 C :    0.821426
  11 C :   -1.648130
  12 C :   -0.053419
  13 C :   -0.344230
  14 C :    0.451611
  15 C :   -1.150233
  16 H :    0.264235
  17 H :    0.290536
  18 H :    0.275428
  19 C :    0.876907
  20 C :   -0.893962
  21 H :    0.343696
  22 H :    0.199773
  23 C :   -0.609276
  24 H :    0.167958
  25 C :    1.352285
  26 H :    0.209092
  27 C :   -1.097527
  28 H :    0.119701
  29 C :   -0.831073
  30 H :    0.268547
  31 C :   -0.270164
  32 H :    0.596237
  33 C :   -1.161393
  34 H :    0.464827
  35 Si:    2.984158
  36 C :   -1.462137
  37 H :    0.569096
  38 H :    0.146526
  39 H :    0.199517
  40 C :   -1.456564
  41 H :    0.374277
  42 H :    0.248337
  43 H :    0.185547
  44 C :   -1.896685
  45 H :    0.254539
  46 H :   -0.019665
  47 H :    0.183602
  48 H :    0.558721
  49 H :    0.157842
  50 H :    0.356742
  51 H :    0.012186
Sum of atomic charges:    0.0000000

LOEWDIN ATOMIC CHARGES
----------------------
   0 C :    0.166490
   1 H :   -0.152651
   2 H :   -0.113464
   3 C :   -0.105173
   4 C :    0.295844
   5 H :   -0.105642
   6 H :   -0.255544
   7 C :   -0.104378
   8 H :   -0.106969
   9 N :    0.316088
  10 C :   -0.032591
  11 C :    0.569113
  12 C :    0.121450
  13 C :    0.189137
  14 C :   -0.106617
  15 C :    0.558934
  16 H :   -0.175295
  17 H :   -0.180482
  18 H :   -0.174982
  19 C :   -0.027949
  20 C :    0.169250
  21 H :   -0.139159
  22 H :   -0.113622
  23 C :    0.301138
  24 H :   -0.131452
  25 C :   -0.066237
  26 H :   -0.142470
  27 C :    0.222641
  28 H :   -0.172129
  29 C :    0.231756
  30 H :   -0.196481
  31 C :    0.200511
  32 H :   -0.182395
  33 C :    0.209532
  34 H :   -0.181471
  35 Si:    0.504258
  36 C :    0.599536
  37 H :   -0.255090
  38 H :   -0.220283
  39 H :   -0.217687
  40 C :    0.594811
  41 H :   -0.238378
  42 H :   -0.222525
  43 H :   -0.224564
  44 C :    0.573469
  45 H :   -0.224750
  46 H :   -0.224228
  47 H :   -0.236850
  48 H :   -0.206469
  49 H :   -0.202199
  50 H :   -0.195228
  51 H :   -0.188555

  Mayer bond orders larger than 0.100000
B(  0-C ,  1-H ) :   0.8515 B(  0-C ,  2-H ) :   1.0848 B(  0-C ,  3-C ) :   0.8352
B(  0-C ,  4-C ) :   0.1526 B(  0-C ,  7-C ) :  -0.1633 B(  0-C ,  9-N ) :   0.8216
B(  0-C , 11-C ) :   0.1807 B(  0-C , 14-C ) :   0.1263 B(  1-H ,  9-N ) :  -0.1056
B(  2-H ,  3-C ) :   0.1753 B(  3-C ,  9-N ) :   0.2000 B(  3-C , 10-C ) :   0.3810
B(  3-C , 11-C ) :   0.4133 B(  3-C , 12-C ) :   0.1264 B(  3-C , 14-C ) :   0.3328
B(  4-C ,  5-H ) :   1.0882 B(  4-C ,  6-H ) :   1.5165 B(  4-C ,  7-C ) :   0.8323
B(  4-C ,  9-N ) :   0.1825 B(  4-C , 10-C ) :   0.2045 B(  4-C , 12-C ) :  -0.1015
B(  4-C , 13-C ) :  -0.2044 B(  4-C , 14-C ) :   1.1894 B(  4-C , 19-C ) :   0.4275
B(  4-C , 25-C ) :  -0.2196 B(  4-C , 29-C ) :   0.1515 B(  4-C , 35-Si) :   0.3097
B(  4-C , 37-H ) :  -0.1534 B(  4-C , 40-C ) :  -0.1370 B(  4-C , 48-H ) :  -0.1047
B(  5-H ,  6-H ) :  -0.1814 B(  5-H ,  9-N ) :  -0.1194 B(  6-H , 10-C ) :  -0.5031
B(  6-H , 14-C ) :   0.3141 B(  6-H , 29-C ) :  -0.2259 B(  6-H , 33-C ) :  -0.1002
B(  6-H , 35-Si) :   0.1368 B(  6-H , 37-H ) :  -0.1027 B(  6-H , 40-C ) :   0.1847
B(  7-C ,  8-H ) :   1.0579 B(  7-C ,  9-N ) :   0.2942 B(  7-C , 10-C ) :  -0.2222
B(  7-C , 14-C ) :   0.2134 B(  7-C , 19-C ) :   1.0080 B(  7-C , 20-C ) :  -0.1727
B(  7-C , 23-C ) :  -0.1593 B(  7-C , 25-C ) :   0.1820 B(  7-C , 29-C ) :   0.5147
B(  7-C , 33-C ) :   0.1475 B(  8-H ,  9-N ) :  -0.2376 B(  8-H , 19-C ) :  -0.1103
B(  9-N , 19-C ) :  -0.1218 B(  9-N , 20-C ) :   1.1944 B(  9-N , 23-C ) :  -0.1350
B( 10-C , 11-C ) :   0.5465 B( 10-C , 13-C ) :   0.5020 B( 10-C , 14-C ) :   2.3352
B( 10-C , 35-Si) :   1.3904 B( 10-C , 36-C ) :   0.5141 B( 10-C , 40-C ) :   0.2920
B( 10-C , 44-C ) :  -0.2233 B( 10-C , 48-H ) :   0.2471 B( 10-C , 51-H ) :   0.1920
B( 11-C , 12-C ) :   0.1832 B( 11-C , 13-C ) :   0.1118 B( 11-C , 14-C ) :  -0.4322
B( 11-C , 35-Si) :  -0.1262 B( 11-C , 48-H ) :   0.6156 B( 11-C , 49-H ) :   1.2581
B( 12-C , 13-C ) :   0.7364 B( 12-C , 14-C ) :   0.6091 B( 12-C , 35-Si) :  -0.4428
B( 12-C , 51-H ) :   1.1909 B( 13-C , 15-C ) :   0.7340 B( 13-C , 50-H ) :   0.9918
B( 14-C , 30-H ) :  -0.1249 B( 14-C , 35-Si) :   0.2679 B( 14-C , 44-C ) :   0.2842
B( 14-C , 49-H ) :  -0.1946 B( 14-C , 51-H ) :  -0.1527 B( 15-C , 16-H ) :   1.0361
B( 15-C , 17-H ) :   0.9596 B( 15-C , 18-H ) :   1.0051 B( 19-C , 23-C ) :   0.2568
B( 19-C , 25-C ) :   1.2562 B( 19-C , 27-C ) :   0.7941 B( 19-C , 32-H ) :   0.1112
B( 20-C , 21-H ) :   0.8958 B( 20-C , 22-H ) :   1.1062 B( 20-C , 23-C ) :   1.0444
B( 20-C , 25-C ) :   0.1861 B( 20-C , 27-C ) :  -0.1002 B( 23-C , 24-H ) :   1.1745
B( 23-C , 26-H ) :   1.1281 B( 23-C , 29-C ) :  -0.1216 B( 24-H , 25-C ) :  -0.1233
B( 25-C , 27-C ) :   0.2587 B( 25-C , 29-C ) :  -0.7285 B( 25-C , 31-C ) :   0.2193
B( 27-C , 28-H ) :   1.3767 B( 27-C , 31-C ) :   0.8591 B( 28-H , 31-C ) :  -0.1220
B( 29-C , 30-H ) :   1.1482 B( 29-C , 31-C ) :   0.1252 B( 29-C , 33-C ) :   1.0382
B( 31-C , 32-H ) :   0.5415 B( 31-C , 33-C ) :   0.9653 B( 32-H , 33-C ) :  -0.1209
B( 33-C , 34-H ) :   0.6996 B( 35-Si, 38-H ) :  -0.1081 B( 35-Si, 40-C ) :   0.1090
B( 35-Si, 43-H ) :  -0.1192 B( 35-Si, 44-C ) :  -1.2607 B( 35-Si, 46-H ) :  -0.2904
B( 36-C , 37-H ) :   0.7274 B( 36-C , 38-H ) :   1.1382 B( 36-C , 39-H ) :   1.1082
B( 36-C , 40-C ) :   0.2614 B( 36-C , 44-C ) :   0.1259 B( 40-C , 41-H ) :   0.8597
B( 40-C , 42-H ) :   1.0602 B( 40-C , 43-H ) :   1.0843 B( 44-C , 45-H ) :   1.1153
B( 44-C , 46-H ) :   1.4779 B( 44-C , 47-H ) :   1.1089

MP2 TOTAL ENERGY:    -1159.637374800 Eh
FINAL SINGLE POINT ENERGY     -1159.637374799778

DIPOLE MOMENT
-------------
                                X             Y             Z
Electronic contribution:     16.65715      -2.58234      -2.05262
Nuclear contribution   :    -16.58419       2.33062       2.29798
                        -----------------------------------------
Total Dipole Moment    :      0.07297      -0.25172       0.24536
                        -----------------------------------------
Magnitude (a.u.)       :      0.35901
Magnitude (Debye)      :      0.91253

Rotational constants in cm-1:     0.013621     0.005058     0.003921
Rotational constants in MHz :   408.358459   151.641685   117.559390

                             ****ORCA TERMINATED NORMALLY****
TOTAL RUN TIME: 0 days 1 hours 53 minutes 3 seconds 465 msec
