                         Program Version 4.2.1 -  RELEASE  -
|  1> %pal
|  2>  nprocs 32
|  3> end
|  4> !RI-MP2 aug-cc-pVTZ aug-cc-pVTZ/C TightSCF
|  5> %maxcore 4500
|  6> *xyzfile 0 1  03_19R1.xyz
|  7>
|  8>
|  9>                          ****END OF INPUT****

CARTESIAN COORDINATES (ANGSTROEM)
---------------------------------
  S     -3.083717   -0.455257    0.000040
  C     -1.335560   -0.253689    0.000009
  C     -0.727455    0.994096    0.000046
  C      0.657506    1.069186    0.000037
  C      1.440262   -0.080934    0.000002
  C      0.808505   -1.325824   -0.000032
  C     -0.566996   -1.419757   -0.000035
  H     -1.328426    1.892228    0.000076
  H      1.120715    2.047375    0.000062
  H      1.424365   -2.215832   -0.000065
  H     -1.041787   -2.394781   -0.000076
  C      2.934176   -0.042329   -0.000005
  O      3.573804   -1.070553   -0.000034
  C      3.625298    1.299084    0.000027
  H      3.344616    1.879777   -0.881627
  H      4.700585    1.137216    0.000019
  H      3.344621    1.879733    0.881711
  F     -3.536675    1.131537   -0.000084

 Total Charge           Charge          ....    0
 Multiplicity           Mult            ....    1
 Number of Electrons    NEL             ....   88
 Basis Dimension        Dim             ....  671

ORBITAL ENERGIES
----------------

  NO   OCC          E(Eh)            E(eV)
   0   2.0000     -92.057699     -2505.0174
   1   2.0000     -26.323913      -716.3101
   2   2.0000     -20.549059      -559.1683
   3   2.0000     -11.340008      -308.5773
   4   2.0000     -11.304094      -307.6000
   5   2.0000     -11.267830      -306.6132
   6   2.0000     -11.261863      -306.4509
   7   2.0000     -11.260447      -306.4123
   8   2.0000     -11.257729      -306.3384
   9   2.0000     -11.254690      -306.2557
  10   2.0000     -11.239923      -305.8539
  11   2.0000      -9.050415      -246.2743
  12   2.0000      -6.731661      -183.1778
  13   2.0000      -6.729622      -183.1223
  14   2.0000      -6.728274      -183.0857
  15   2.0000      -1.612838       -43.8875
  16   2.0000      -1.395199       -37.9653
  17   2.0000      -1.193338       -32.4724
  18   2.0000      -1.092058       -29.7164
  19   2.0000      -1.048249       -28.5243
  20   2.0000      -1.019721       -27.7480
  21   2.0000      -0.967018       -26.3139
  22   2.0000      -0.862163       -23.4606
  23   2.0000      -0.852233       -23.1904
  24   2.0000      -0.775316       -21.0974
  25   2.0000      -0.730110       -19.8673
  26   2.0000      -0.697204       -18.9719
  27   2.0000      -0.697198       -18.9717
  28   2.0000      -0.679688       -18.4952
  29   2.0000      -0.658520       -17.9192
  30   2.0000      -0.646986       -17.6054
  31   2.0000      -0.616185       -16.7672
  32   2.0000      -0.613323       -16.6894
  33   2.0000      -0.607964       -16.5436
  34   2.0000      -0.599710       -16.3189
  35   2.0000      -0.552560       -15.0359
  36   2.0000      -0.548402       -14.9228
  37   2.0000      -0.520356       -14.1596
  38   2.0000      -0.509841       -13.8735
  39   2.0000      -0.503095       -13.6899
  40   2.0000      -0.433609       -11.7991
  41   2.0000      -0.425557       -11.5800
  42   2.0000      -0.366530        -9.9738
  43   2.0000      -0.329611        -8.9692
  44   0.0000       0.025435         0.6921
  45   0.0000       0.030919         0.8413
  46   0.0000       0.035820         0.9747
  47   0.0000       0.040668         1.1066
  48   0.0000       0.048674         1.3245

MULLIKEN ATOMIC CHARGES
-----------------------
   0 S :    0.126248
   1 C :    0.936529
   2 C :   -0.947652
   3 C :   -0.472009
   4 C :    1.738061
   5 C :   -0.880004
   6 C :   -0.855925
   7 H :    0.373454
   8 H :    0.143914
   9 H :    0.304615
  10 H :    0.467744
  11 C :    0.515889
  12 O :   -0.990131
  13 C :   -0.812774
  14 H :    0.306734
  15 H :    0.319267
  16 H :    0.306735
  17 F :   -0.580695
Sum of atomic charges:   -0.0000000

LOEWDIN ATOMIC CHARGES
----------------------
   0 S :    0.865525
   1 C :   -0.561722
   2 C :    0.140202
   3 C :    0.204119
   4 C :   -0.117153
   5 C :    0.204688
   6 C :    0.120837
   7 H :   -0.221071
   8 H :   -0.185657
   9 H :   -0.181611
  10 H :   -0.192174
  11 C :   -0.525697
  12 O :    0.478916
  13 C :    0.578363
  14 H :   -0.169954
  15 H :   -0.179372
  16 H :   -0.169955
  17 F :   -0.088284

  Mayer bond orders larger than 0.100000
B(  0-S ,  1-C ) :   0.5073 B(  0-S ,  6-C ) :   0.2292 B(  0-S , 17-F ) :   0.5704
B(  1-C ,  2-C ) :   0.9720 B(  1-C ,  6-C ) :   1.3313 B(  2-C ,  3-C ) :   1.1462
B(  2-C ,  5-C ) :   0.1419 B(  2-C ,  7-H ) :   0.9053 B(  3-C ,  4-C ) :   0.4569
B(  3-C ,  5-C ) :  -0.2238 B(  3-C ,  8-H ) :   1.3977 B(  3-C , 11-C ) :   0.1567
B(  4-C ,  5-C ) :   0.2707 B(  4-C ,  8-H ) :  -0.1895 B(  4-C , 11-C ) :   0.3716
B(  5-C ,  6-C ) :   1.3065 B(  5-C ,  9-H ) :   1.0622 B(  5-C , 11-C ) :   0.1300
B(  6-C , 10-H ) :   0.7761 B( 11-C , 12-O ) :   1.0399 B( 11-C , 13-C ) :   0.8968
B( 13-C , 14-H ) :   0.9617 B( 13-C , 15-H ) :   0.9238 B( 13-C , 16-H ) :   0.9617

MP2 TOTAL ENERGY:     -880.966766414 Eh
FINAL SINGLE POINT ENERGY      -880.966766413547

DIPOLE MOMENT
-------------
                                X             Y             Z
Electronic contribution:    -14.94858      -2.41702      -0.00012
Nuclear contribution   :     14.76837       3.01543       0.00018
                        -----------------------------------------
Total Dipole Moment    :     -0.18021       0.59842       0.00006
                        -----------------------------------------
Magnitude (a.u.)       :      0.62496
Magnitude (Debye)      :      1.58852

Rotational constants in cm-1:     0.099505     0.014926     0.013011
Rotational constants in MHz :  2983.099834   447.477171   390.050453

                             ****ORCA TERMINATED NORMALLY****
TOTAL RUN TIME: 0 days 0 hours 5 minutes 47 seconds 876 msec
