                         Program Version 4.2.1 -  RELEASE  -
|  1> %pal
|  2>  nprocs 32
|  3> end
|  4> !RI-MP2 aug-cc-pVTZ aug-cc-pVTZ/C TightSCF
|  5> %maxcore 4500
|  6> *xyzfile 0 2  01_2P.xyz
|  7>
|  8>
|  9>                          ****END OF INPUT****

CARTESIAN COORDINATES (ANGSTROEM)
---------------------------------
  C      1.107538   -0.669471    0.117194
  C      0.946303    0.834360    0.194710
  C     -0.318160   -0.731434   -0.454705
  H      1.278198   -1.225096    1.044976
  H      1.867474   -0.970142   -0.610630
  C     -0.421843    0.806721   -0.351804
  H      1.681614    1.624795    0.221177
  C     -1.291978   -0.116268    0.483862
  H     -0.628204   -1.353100   -1.283452
  H     -1.129418   -0.171350    1.555344
  H     -2.330892   -0.159627    0.177663
  H     -0.869935    1.511080   -1.040623

 Total Charge           Charge          ....    0
 Multiplicity           Mult            ....    2
 Number of Electrons    NEL             ....   37
 Basis Dimension        Dim             ....  391

ORBITAL ENERGIES
----------------
                 SPIN UP ORBITALS
  NO   OCC          E(Eh)            E(eV)
   0   1.0000     -11.234933      -305.7181
   1   1.0000     -11.229979      -305.5833
   2   1.0000     -11.228613      -305.5461
   3   1.0000     -11.227979      -305.5288
   4   1.0000     -11.225485      -305.4610
   5   1.0000      -1.197763       -32.5928
   6   1.0000      -0.989115       -26.9152
   7   1.0000      -0.890171       -24.2228
   8   1.0000      -0.799659       -21.7598
   9   1.0000      -0.724475       -19.7140
  10   1.0000      -0.695125       -18.9153
  11   1.0000      -0.606166       -16.4946
  12   1.0000      -0.597260       -16.2523
  13   1.0000      -0.543593       -14.7919
  14   1.0000      -0.494685       -13.4611
  15   1.0000      -0.482812       -13.1380
  16   1.0000      -0.445449       -12.1213
  17   1.0000      -0.398876       -10.8540
  18   1.0000      -0.301205        -8.1962
  19   0.0000       0.030044         0.8175
  20   0.0000       0.036663         0.9977
  21   0.0000       0.038533         1.0485
  22   0.0000       0.040083         1.0907
  23   0.0000       0.053743         1.4624

                 SPIN DOWN ORBITALS
  NO   OCC          E(Eh)            E(eV)
   0   1.0000     -11.233949      -305.6913
   1   1.0000     -11.232286      -305.6460
   2   1.0000     -11.228351      -305.5390
   3   1.0000     -11.226195      -305.4803
   4   1.0000     -11.203936      -304.8746
   5   1.0000      -1.184308       -32.2266
   6   1.0000      -0.966097       -26.2888
   7   1.0000      -0.867179       -23.5972
   8   1.0000      -0.787106       -21.4182
   9   1.0000      -0.704494       -19.1702
  10   1.0000      -0.684661       -18.6306
  11   1.0000      -0.600334       -16.3359
  12   1.0000      -0.579979       -15.7820
  13   1.0000      -0.533930       -14.5290
  14   1.0000      -0.482332       -13.1249
  15   1.0000      -0.473729       -12.8908
  16   1.0000      -0.420715       -11.4482
  17   1.0000      -0.379981       -10.3398
  18   0.0000       0.030075         0.8184
  19   0.0000       0.036893         1.0039
  20   0.0000       0.038609         1.0506
  21   0.0000       0.039840         1.0841
  22   0.0000       0.053856         1.4655

MULLIKEN ATOMIC CHARGES AND SPIN POPULATIONS
--------------------------------------------
   0 C :   -0.455507   -0.180074
   1 C :   -0.816790    1.240306
   2 C :   -0.412977    0.140740
   3 H :    0.248832    0.010356
   4 H :    0.326773    0.038349
   5 C :   -0.229432   -0.258397
   6 H :    0.490172   -0.068925
   7 C :   -0.903497    0.065560
   8 H :    0.519509    0.000402
   9 H :    0.334503    0.000493
  10 H :    0.356505    0.005908
  11 H :    0.541909    0.005281
Sum of atomic charges         :    0.0000000

LOEWDIN ATOMIC CHARGES AND SPIN POPULATIONS
-------------------------------------------
   0 C :    0.291092    0.096876
   1 C :    0.321856    0.553545
   2 C :    0.071614    0.047121
   3 H :   -0.155043    0.008767
   4 H :   -0.156698    0.017047
   5 C :    0.065804    0.084681
   6 H :   -0.198496    0.121795
   7 C :    0.354326    0.046788
   8 H :   -0.138469    0.008941
   9 H :   -0.153051    0.008071
  10 H :   -0.155517    0.007548
  11 H :   -0.147418   -0.001181

  Mayer bond orders larger than 0.100000
B(  0-C ,  1-C ) :   0.9009 B(  0-C ,  2-C ) :   0.9504 B(  0-C ,  3-H ) :   0.9187
B(  0-C ,  4-H ) :   0.8816 B(  1-C ,  5-C ) :   0.7338 B(  1-C ,  6-H ) :   0.7122
B(  2-C ,  5-C ) :   0.6539 B(  2-C ,  7-C ) :   0.9697 B(  2-C ,  8-H ) :   0.5854
B(  5-C ,  7-C ) :   0.9328 B(  5-C , 11-H ) :   0.5778 B(  7-C ,  9-H ) :   0.8431
B(  7-C , 10-H ) :   0.8573

MP2 TOTAL ENERGY:     -194.176893894 Eh
FINAL SINGLE POINT ENERGY      -194.176893894313

DIPOLE MOMENT
-------------
                                X             Y             Z
Electronic contribution:      0.08813       0.70342      -0.25509
Nuclear contribution   :     -0.13581      -0.76978       0.06674
                        -----------------------------------------
Total Dipole Moment    :     -0.04768      -0.06636      -0.18836
                        -----------------------------------------
Magnitude (a.u.)       :      0.20532
Magnitude (Debye)      :      0.52187

Rotational constants in cm-1:     0.326659     0.213447     0.164783
Rotational constants in MHz :  9793.003403  6398.970543  4940.064589

                             ****ORCA TERMINATED NORMALLY****
TOTAL RUN TIME: 0 days 0 hours 1 minutes 18 seconds 468 msec
