                         Program Version 4.2.1 -  RELEASE  -
|  1> %pal
|  2>  nprocs 32
|  3> end
|  4> !RI-MP2 aug-cc-pVTZ aug-cc-pVTZ/C TightSCF
|  5> %maxcore 4500
|  6> *xyzfile 0 1  02_8P.xyz
|  7>
|  8>
|  9>                          ****END OF INPUT****

CARTESIAN COORDINATES (ANGSTROEM)
---------------------------------
  C     -2.734684    0.148360    1.950377
  C     -1.696221    0.913863    2.249899
  C     -1.116232    1.760790    1.156571
  C     -0.819311    0.861008   -0.119143
  C     -2.056952   -0.074983   -0.457738
  C     -3.228975    0.184669    0.535316
  C     -1.718448   -1.569625   -0.623815
  C     -2.985217   -2.401901   -0.850672
  C     -4.427060   -0.728390    0.281238
  C     -4.028533   -2.195928    0.236016
  C     -0.770797   -1.803924   -1.799963
  C      0.081448    2.588367    1.616350
  C     -0.692041    1.848745   -1.272288
  C      1.720705    0.438757   -0.462959
  C      1.686648    1.347014   -1.450183
  N      0.550843    2.016814   -1.839040
  O     -1.632823    2.491852   -1.682722
  C      0.468513    0.100241    0.238840
  O      0.453667   -0.714868    1.135834
  C      2.994565   -0.208416   -0.080287
  C      3.073661   -1.587636    0.117988
  C      4.151920    0.555297    0.068592
  C      4.284054   -2.183452    0.433534
  C      5.364625   -0.042510    0.381471
  C      5.434361   -1.415499    0.563543
  H     -2.424104    0.261504   -1.430700
  H     -3.555546    1.210951    0.331176
  H     -1.246909   -1.926003    0.294169
  H     -3.423147   -2.136089   -1.821769
  H     -2.700372   -3.455878   -0.918072
  H     -5.180839   -0.546657    1.052674
  H     -4.887318   -0.457554   -0.675192
  H     -4.904401   -2.823012    0.049642
  H     -3.618627   -2.505948    1.203659
  H     -1.227105   -1.454149   -2.731421
  H      0.190205   -1.299414   -1.696656
  H     -0.560763   -2.869891   -1.915497
  H      0.495222    3.196916    0.809142
  H     -0.234224    3.268809    2.409303
  H      0.878565    1.960116    2.017986
  H      2.576419    1.600749   -2.012412
  H      0.588384    2.675227   -2.603638
  H      2.181409   -2.191305    0.029103
  H      4.097315    1.632537   -0.040214
  H      4.329553   -3.255846    0.580729
  H      6.252037    0.568363    0.496010
  H      6.377856   -1.885085    0.814110
  H     -1.245561    0.935431    3.235112
  H     -3.205517   -0.499449    2.681858
  H     -1.891348    2.453037    0.813169

 Total Charge           Charge          ....    0
 Multiplicity           Mult            ....    1
 Number of Electrons    NEL             ....  180
 Basis Dimension        Dim             .... 1725

ORBITAL ENERGIES
----------------

  NO   OCC          E(Eh)            E(eV)
   0   2.0000     -20.541466      -558.9617
   1   2.0000     -20.538262      -558.8745
   2   2.0000     -15.625525      -425.1922
   3   2.0000     -11.370827      -309.4159
   4   2.0000     -11.336042      -308.4694
   5   2.0000     -11.318684      -307.9970
   6   2.0000     -11.267998      -306.6178
   7   2.0000     -11.248510      -306.0875
   8   2.0000     -11.247187      -306.0515
   9   2.0000     -11.245759      -306.0127
  10   2.0000     -11.237547      -305.7892
  11   2.0000     -11.236501      -305.7607
  12   2.0000     -11.234869      -305.7163
  13   2.0000     -11.233464      -305.6781
  14   2.0000     -11.232311      -305.6467
  15   2.0000     -11.230498      -305.5974
  16   2.0000     -11.222868      -305.3898
  17   2.0000     -11.221896      -305.3633
  18   2.0000     -11.216805      -305.2248
  19   2.0000     -11.214687      -305.1671
  20   2.0000     -11.213178      -305.1261
  21   2.0000     -11.211944      -305.0925
  22   2.0000     -11.211220      -305.0728
  23   2.0000     -11.210773      -305.0607
  24   2.0000     -11.210574      -305.0552
  25   2.0000      -1.413911       -38.4745
  26   2.0000      -1.391208       -37.8567
  27   2.0000      -1.286615       -35.0106
  28   2.0000      -1.163991       -31.6738
  29   2.0000      -1.157980       -31.5102
  30   2.0000      -1.103976       -30.0407
  31   2.0000      -1.092368       -29.7248
  32   2.0000      -1.062286       -28.9063
  33   2.0000      -1.020733       -27.7756
  34   2.0000      -1.017889       -27.6982
  35   2.0000      -1.015963       -27.6458
  36   2.0000      -1.002254       -27.2727
  37   2.0000      -0.956603       -26.0305
  38   2.0000      -0.925622       -25.1875
  39   2.0000      -0.895200       -24.3596
  40   2.0000      -0.850161       -23.1341
  41   2.0000      -0.841314       -22.8933
  42   2.0000      -0.831611       -22.6293
  43   2.0000      -0.825239       -22.4559
  44   2.0000      -0.814636       -22.1674
  45   2.0000      -0.797574       -21.7031
  46   2.0000      -0.766459       -20.8564
  47   2.0000      -0.749943       -20.4070
  48   2.0000      -0.733247       -19.9527
  49   2.0000      -0.698403       -19.0045
  50   2.0000      -0.688281       -18.7291
  51   2.0000      -0.674708       -18.3597
  52   2.0000      -0.658527       -17.9194
  53   2.0000      -0.649340       -17.6694
  54   2.0000      -0.645501       -17.5650
  55   2.0000      -0.635216       -17.2851
  56   2.0000      -0.630575       -17.1588
  57   2.0000      -0.621630       -16.9154
  58   2.0000      -0.615333       -16.7441
  59   2.0000      -0.611877       -16.6500
  60   2.0000      -0.602057       -16.3828
  61   2.0000      -0.592612       -16.1258
  62   2.0000      -0.589946       -16.0533
  63   2.0000      -0.587583       -15.9889
  64   2.0000      -0.574794       -15.6409
  65   2.0000      -0.567637       -15.4462
  66   2.0000      -0.556972       -15.1560
  67   2.0000      -0.541709       -14.7406
  68   2.0000      -0.533621       -14.5206
  69   2.0000      -0.527953       -14.3663
  70   2.0000      -0.517416       -14.0796
  71   2.0000      -0.513234       -13.9658
  72   2.0000      -0.507618       -13.8130
  73   2.0000      -0.503583       -13.7032
  74   2.0000      -0.501725       -13.6526
  75   2.0000      -0.495392       -13.4803
  76   2.0000      -0.492076       -13.3901
  77   2.0000      -0.490389       -13.3442
  78   2.0000      -0.480786       -13.0828
  79   2.0000      -0.471332       -12.8256
  80   2.0000      -0.461992       -12.5714
  81   2.0000      -0.446897       -12.1607
  82   2.0000      -0.443148       -12.0587
  83   2.0000      -0.423994       -11.5375
  84   2.0000      -0.414397       -11.2763
  85   2.0000      -0.403375       -10.9764
  86   2.0000      -0.377296       -10.2667
  87   2.0000      -0.338998        -9.2246
  88   2.0000      -0.335835        -9.1385
  89   2.0000      -0.310927        -8.4608
  90   0.0000       0.018322         0.4986
  91   0.0000       0.028100         0.7646
  92   0.0000       0.028592         0.7780
  93   0.0000       0.030510         0.8302
  94   0.0000       0.036113         0.9827

MULLIKEN ATOMIC CHARGES
-----------------------
   0 C :   -1.104039
   1 C :   -0.858508
   2 C :   -0.119884
   3 C :    1.269210
   4 C :    0.533103
   5 C :    0.313105
   6 C :    1.017529
   7 C :   -1.071065
   8 C :   -0.771377
   9 C :   -0.649636
  10 C :   -1.691176
  11 C :   -1.318620
  12 C :    0.216348
  13 C :    0.190840
  14 C :   -0.670635
  15 N :   -0.425660
  16 O :   -1.391163
  17 C :    2.250846
  18 O :   -1.929715
  19 C :    2.583916
  20 C :   -0.808331
  21 C :   -0.862094
  22 C :   -1.117350
  23 C :   -0.760576
  24 C :   -0.035680
  25 H :    0.532555
  26 H :    0.346303
  27 H :    0.390747
  28 H :    0.093085
  29 H :    0.363275
  30 H :    0.259011
  31 H :    0.120225
  32 H :    0.396847
  33 H :    0.062679
  34 H :    0.050174
  35 H :    0.537439
  36 H :    0.123601
  37 H :    0.250048
  38 H :    0.172961
  39 H :    0.334064
  40 H :    0.685972
  41 H :    0.053612
  42 H :    0.186658
  43 H :   -0.189227
  44 H :    0.361192
  45 H :    0.438079
  46 H :    0.596663
  47 H :    0.593659
  48 H :    0.359920
  49 H :    0.091073
Sum of atomic charges:   -0.0000000

LOEWDIN ATOMIC CHARGES
----------------------
   0 C :    0.263163
   1 C :    0.249861
   2 C :   -0.025331
   3 C :   -0.164529
   4 C :    0.093692
   5 C :    0.010509
   6 C :    0.001449
   7 C :    0.301975
   8 C :    0.309698
   9 C :    0.300409
  10 C :    0.612193
  11 C :    0.605594
  12 C :   -0.625196
  13 C :   -0.095458
  14 C :    0.164062
  15 N :    0.573238
  16 O :    0.520499
  17 C :   -0.537891
  18 O :    0.570345
  19 C :   -0.133554
  20 C :    0.219630
  21 C :    0.208729
  22 C :    0.207776
  23 C :    0.199113
  24 C :    0.194518
  25 H :   -0.167185
  26 H :   -0.133522
  27 H :   -0.175202
  28 H :   -0.129831
  29 H :   -0.131884
  30 H :   -0.131992
  31 H :   -0.129640
  32 H :   -0.134489
  33 H :   -0.137425
  34 H :   -0.145414
  35 H :   -0.203990
  36 H :   -0.146750
  37 H :   -0.158892
  38 H :   -0.148480
  39 H :   -0.162386
  40 H :   -0.137732
  41 H :   -0.257324
  42 H :   -0.187568
  43 H :   -0.180342
  44 H :   -0.180551
  45 H :   -0.183066
  46 H :   -0.183723
  47 H :   -0.157643
  48 H :   -0.160257
  49 H :   -0.159205

  Mayer bond orders larger than 0.100000
B(  0-C ,  1-C ) :   1.5163 B(  0-C ,  2-C ) :   0.3658 B(  0-C ,  3-C ) :   0.1306
B(  0-C ,  4-C ) :   0.2876 B(  0-C ,  5-C ) :   0.7984 B(  0-C , 12-C ) :  -0.1941
B(  0-C , 26-H ) :  -0.1856 B(  0-C , 48-H ) :   0.8454 B(  1-C ,  2-C ) :   0.9806
B(  1-C ,  3-C ) :   0.1253 B(  1-C ,  4-C ) :   0.3576 B(  1-C ,  5-C ) :  -0.3304
B(  1-C ,  6-C ) :  -0.1451 B(  1-C ,  8-C ) :   0.1649 B(  1-C , 12-C ) :   0.1218
B(  1-C , 17-C ) :  -0.2378 B(  1-C , 26-H ) :  -0.3259 B(  1-C , 47-H ) :   0.4692
B(  2-C ,  3-C ) :   0.3221 B(  2-C ,  4-C ) :   0.1673 B(  2-C , 11-C ) :   0.4740
B(  2-C , 12-C ) :   0.3320 B(  2-C , 16-O ) :   0.3571 B(  2-C , 17-C ) :   0.4470
B(  2-C , 18-O ) :   0.2243 B(  2-C , 38-H ) :  -0.1172 B(  2-C , 39-H ) :  -0.1147
B(  2-C , 49-H ) :   1.2286 B(  3-C ,  6-C ) :  -0.1193 B(  3-C ,  7-C ) :   0.1223
B(  3-C , 10-C ) :   0.3590 B(  3-C , 11-C ) :   0.1581 B(  3-C , 13-C ) :   0.2315
B(  3-C , 15-N ) :  -0.6898 B(  3-C , 16-O ) :  -0.3394 B(  3-C , 17-C ) :   1.2363
B(  3-C , 18-O ) :  -0.5255 B(  3-C , 19-C ) :   0.2636 B(  3-C , 20-C ) :   0.1227
B(  3-C , 23-C ) :  -0.1202 B(  3-C , 25-H ) :  -0.1291 B(  3-C , 27-H ) :  -0.1045
B(  3-C , 35-H ) :   0.1654 B(  3-C , 37-H ) :  -0.1688 B(  3-C , 40-H ) :   0.1368
B(  3-C , 47-H ) :  -0.2507 B(  3-C , 49-H ) :  -0.4927 B(  4-C ,  5-C ) :   1.1173
B(  4-C ,  6-C ) :   1.1159 B(  4-C ,  7-C ) :  -0.1290 B(  4-C , 10-C ) :  -0.1431
B(  4-C , 16-O ) :   0.1951 B(  4-C , 18-O ) :   0.1240 B(  4-C , 19-C ) :  -0.1998
B(  4-C , 25-H ) :   0.9479 B(  4-C , 49-H ) :   0.1479 B(  5-C ,  6-C ) :   0.1598
B(  5-C ,  8-C ) :   0.6046 B(  5-C ,  9-C ) :   0.1382 B(  5-C , 16-O ) :   0.1018
B(  5-C , 26-H ) :   1.1322 B(  5-C , 31-H ) :  -0.1195 B(  6-C ,  7-C ) :   0.3818
B(  6-C , 10-C ) :   0.2058 B(  6-C , 17-C ) :  -0.1403 B(  6-C , 25-H ) :  -0.1117
B(  6-C , 27-H ) :   0.7946 B(  6-C , 28-H ) :  -0.2109 B(  6-C , 34-H ) :  -0.2144
B(  6-C , 36-H ) :  -0.1238 B(  7-C ,  8-C ) :   0.1085 B(  7-C ,  9-C ) :   1.0244
B(  7-C , 10-C ) :   0.1117 B(  7-C , 28-H ) :   1.3383 B(  7-C , 29-H ) :   0.9009
B(  8-C ,  9-C ) :   0.8716 B(  8-C , 26-H ) :  -0.1235 B(  8-C , 30-H ) :   1.0300
B(  8-C , 31-H ) :   1.1751 B(  9-C , 32-H ) :   0.8302 B(  9-C , 33-H ) :   1.1674
B( 10-C , 17-C ) :  -0.1077 B( 10-C , 25-H ) :  -0.1632 B( 10-C , 34-H ) :   1.4399
B( 10-C , 35-H ) :   0.6649 B( 10-C , 36-H ) :   1.2894 B( 11-C , 12-C ) :   0.1044
B( 11-C , 17-C ) :  -0.4200 B( 11-C , 37-H ) :   1.0565 B( 11-C , 38-H ) :   1.1687
B( 11-C , 39-H ) :   1.0750 B( 12-C , 13-C ) :  -0.2157 B( 12-C , 15-N ) :   2.0359
B( 12-C , 16-O ) :   0.4170 B( 12-C , 17-C ) :  -0.2232 B( 12-C , 25-H ) :  -0.2790
B( 12-C , 35-H ) :  -0.1191 B( 12-C , 40-H ) :  -0.1010 B( 12-C , 47-H ) :   0.1169
B( 13-C , 14-C ) :   1.5385 B( 13-C , 15-N ) :  -0.1338 B( 13-C , 17-C ) :   0.5919
B( 13-C , 18-O ) :   0.1342 B( 13-C , 19-C ) :  -0.3749 B( 13-C , 20-C ) :   0.6480
B( 13-C , 21-C ) :   0.2646 B( 13-C , 24-C ) :   0.1411 B( 13-C , 42-H ) :  -0.1505
B( 13-C , 43-H ) :  -0.3191 B( 13-C , 45-H ) :   0.1063 B( 14-C , 15-N ) :   0.8996
B( 14-C , 17-C ) :   0.5432 B( 14-C , 19-C ) :  -0.8793 B( 14-C , 20-C ) :  -0.1976
B( 14-C , 40-H ) :   0.2977 B( 14-C , 45-H ) :  -0.1247 B( 14-C , 46-H ) :   0.1280
B( 15-N , 16-O ) :  -0.2708 B( 15-N , 40-H ) :  -0.2056 B( 15-N , 41-H ) :   1.1331
B( 17-C , 18-O ) :  -0.3053 B( 17-C , 19-C ) :   0.1759 B( 17-C , 21-C ) :  -0.1166
B( 17-C , 25-H ) :   0.1211 B( 17-C , 43-H ) :   0.1166 B( 18-O , 19-C ) :  -0.1089
B( 19-C , 20-C ) :   0.2260 B( 19-C , 21-C ) :   0.2877 B( 19-C , 22-C ) :  -0.2866
B( 19-C , 42-H ) :  -0.1763 B( 19-C , 43-H ) :  -0.5764 B( 20-C , 21-C ) :  -0.5921
B( 20-C , 22-C ) :   1.2627 B( 20-C , 42-H ) :   1.4455 B( 20-C , 43-H ) :   0.2407
B( 21-C , 23-C ) :   1.4456 B( 21-C , 24-C ) :  -0.1277 B( 21-C , 43-H ) :   2.0677
B( 22-C , 23-C ) :   0.1954 B( 22-C , 24-C ) :   1.1011 B( 22-C , 42-H ) :  -0.1574
B( 22-C , 43-H ) :  -0.1002 B( 22-C , 44-H ) :   0.9063 B( 22-C , 46-H ) :  -0.1858
B( 23-C , 24-C ) :   1.1778 B( 23-C , 42-H ) :  -0.1069 B( 23-C , 45-H ) :   0.8139
B( 23-C , 46-H ) :  -0.2146 B( 24-C , 46-H ) :   0.6091 B( 34-H , 36-H ) :   0.1104
B( 42-H , 43-H ) :   0.2224

MP2 TOTAL ENERGY:    -1056.511554854 Eh
FINAL SINGLE POINT ENERGY     -1056.511554854212

DIPOLE MOMENT
-------------
                                X             Y             Z
Electronic contribution:     13.31619       7.88300      -1.64240
Nuclear contribution   :    -12.45015      -7.56108       0.96026
                        -----------------------------------------
Total Dipole Moment    :      0.86604       0.32192      -0.68214
                        -----------------------------------------
Magnitude (a.u.)       :      1.14846
Magnitude (Debye)      :      2.91916

Rotational constants in cm-1:     0.013531     0.005433     0.004880
Rotational constants in MHz :   405.638754   162.891021   146.313672

                             ****ORCA TERMINATED NORMALLY****
TOTAL RUN TIME: 0 days 2 hours 16 minutes 31 seconds 855 msec
