                         Program Version 4.2.1 -  RELEASE  -
|  1> %pal
|  2>  nprocs 32
|  3> end
|  4> !RI-MP2 aug-cc-pVTZ aug-cc-pVTZ/C TightSCF
|  5> %maxcore 4500
|  6> *xyzfile 0 1  02_21R.xyz
|  7>
|  8>
|  9>                          ****END OF INPUT****

CARTESIAN COORDINATES (ANGSTROEM)
---------------------------------
  C     -1.245618   -0.530767    1.505374
  C      1.709822   -0.422656    0.665754
  C      1.709822   -0.422656   -0.665754
  C     -1.245618   -0.530767   -1.505374
  C     -1.882857    0.346268    0.730360
  C     -1.882857    0.346268   -0.730360
  C      1.270980    0.618188    1.658658
  C     -0.728784   -0.157893    2.851877
  O      0.696864    0.001927    2.810616
  H      0.604376    1.363893    1.217278
  H      2.150776    1.146552    2.036094
  H     -0.894315   -0.925445    3.608922
  H     -1.197596    0.773744    3.191129
  C      1.270980    0.618188   -1.658658
  O      0.696864    0.001927   -2.810616
  C     -0.728784   -0.157893   -2.851877
  H      0.604376    1.363893   -1.217278
  H      2.150776    1.146552   -2.036094
  H     -1.197596    0.773744   -3.191129
  H     -0.894315   -0.925445   -3.608922
  H     -2.232921    1.267418    1.190184
  H     -0.865021   -1.458809    1.092196
  H     -2.232921    1.267418   -1.190184
  H     -0.865021   -1.458809   -1.092196
  H      2.118533   -1.301605    1.158288
  H      2.118533   -1.301605   -1.158288

 Total Charge           Charge          ....    0
 Multiplicity           Mult            ....    1
 Number of Electrons    NEL             ....   90
 Basis Dimension        Dim             ....  874

ORBITAL ENERGIES
----------------

  NO   OCC          E(Eh)            E(eV)
   0   2.0000     -20.556211      -559.3629
   1   2.0000     -20.556211      -559.3629
   2   2.0000     -11.283283      -307.0337
   3   2.0000     -11.283282      -307.0337
   4   2.0000     -11.281259      -306.9787
   5   2.0000     -11.281254      -306.9785
   6   2.0000     -11.243498      -305.9511
   7   2.0000     -11.242693      -305.9292
   8   2.0000     -11.235237      -305.7263
   9   2.0000     -11.235235      -305.7263
  10   2.0000     -11.230957      -305.6099
  11   2.0000     -11.229224      -305.5627
  12   2.0000      -1.368921       -37.2502
  13   2.0000      -1.368286       -37.2330
  14   2.0000      -1.116446       -30.3800
  15   2.0000      -1.078539       -29.3485
  16   2.0000      -1.054303       -28.6890
  17   2.0000      -0.976766       -26.5792
  18   2.0000      -0.967110       -26.3164
  19   2.0000      -0.876938       -23.8627
  20   2.0000      -0.862731       -23.4761
  21   2.0000      -0.808831       -22.0094
  22   2.0000      -0.754864       -20.5409
  23   2.0000      -0.733193       -19.9512
  24   2.0000      -0.691742       -18.8232
  25   2.0000      -0.679141       -18.4804
  26   2.0000      -0.665945       -18.1213
  27   2.0000      -0.654574       -17.8119
  28   2.0000      -0.636290       -17.3143
  29   2.0000      -0.617461       -16.8020
  30   2.0000      -0.606330       -16.4991
  31   2.0000      -0.601995       -16.3811
  32   2.0000      -0.580832       -15.8053
  33   2.0000      -0.550747       -14.9866
  34   2.0000      -0.545465       -14.8429
  35   2.0000      -0.529062       -14.3965
  36   2.0000      -0.525134       -14.2896
  37   2.0000      -0.491862       -13.3843
  38   2.0000      -0.474592       -12.9143
  39   2.0000      -0.472755       -12.8643
  40   2.0000      -0.441388       -12.0108
  41   2.0000      -0.428073       -11.6485
  42   2.0000      -0.422519       -11.4973
  43   2.0000      -0.358392        -9.7523
  44   2.0000      -0.320638        -8.7250
  45   0.0000       0.028087         0.7643
  46   0.0000       0.032881         0.8947
  47   0.0000       0.032917         0.8957
  48   0.0000       0.036355         0.9893
  49   0.0000       0.045990         1.2514

MULLIKEN ATOMIC CHARGES
-----------------------
   0 C :   -0.459699
   1 C :   -0.365932
   2 C :   -0.365932
   3 C :   -0.459699
   4 C :   -0.047320
   5 C :   -0.047320
   6 C :   -0.042647
   7 C :   -0.271274
   8 O :   -0.755255
   9 H :    0.349445
  10 H :    0.349434
  11 H :    0.356457
  12 H :    0.260866
  13 C :   -0.042647
  14 O :   -0.755255
  15 C :   -0.271274
  16 H :    0.349445
  17 H :    0.349434
  18 H :    0.260866
  19 H :    0.356457
  20 H :    0.228284
  21 H :    0.313293
  22 H :    0.228284
  23 H :    0.313293
  24 H :    0.084348
  25 H :    0.084348
Sum of atomic charges:    0.0000000

LOEWDIN ATOMIC CHARGES
----------------------
   0 C :    0.190647
   1 C :    0.214360
   2 C :    0.214360
   3 C :    0.190647
   4 C :    0.197113
   5 C :    0.197113
   6 C :    0.013439
   7 C :    0.029958
   8 O :    0.570603
   9 H :   -0.176267
  10 H :   -0.160206
  11 H :   -0.164552
  12 H :   -0.163853
  13 C :    0.013439
  14 O :    0.570603
  15 C :    0.029958
  16 H :   -0.176267
  17 H :   -0.160206
  18 H :   -0.163853
  19 H :   -0.164552
  20 H :   -0.183685
  21 H :   -0.181650
  22 H :   -0.183685
  23 H :   -0.181650
  24 H :   -0.185907
  25 H :   -0.185907

  Mayer bond orders larger than 0.100000
B(  0-C ,  4-C ) :   1.3085 B(  0-C ,  7-C ) :   1.0581 B(  0-C , 21-H ) :   1.0043
B(  1-C ,  2-C ) :   1.3878 B(  1-C ,  6-C ) :   0.7727 B(  1-C , 24-H ) :   1.2600
B(  1-C , 25-H ) :  -0.2007 B(  2-C , 13-C ) :   0.7727 B(  2-C , 24-H ) :  -0.2007
B(  2-C , 25-H ) :   1.2600 B(  3-C ,  5-C ) :   1.3085 B(  3-C , 15-C ) :   1.0581
B(  3-C , 23-H ) :   1.0043 B(  4-C ,  5-C ) :   0.6073 B(  4-C ,  7-C ) :  -0.1383
B(  4-C , 20-H ) :   1.0847 B(  4-C , 22-H ) :  -0.1262 B(  5-C , 15-C ) :  -0.1383
B(  5-C , 20-H ) :  -0.1262 B(  5-C , 22-H ) :   1.0847 B(  6-C ,  8-O ) :   0.8106
B(  6-C ,  9-H ) :   0.9035 B(  6-C , 10-H ) :   0.9409 B(  7-C ,  8-O ) :   0.8607
B(  7-C , 11-H ) :   0.9273 B(  7-C , 12-H ) :   1.0057 B(  8-O ,  9-H ) :  -0.1025
B( 13-C , 14-O ) :   0.8106 B( 13-C , 16-H ) :   0.9035 B( 13-C , 17-H ) :   0.9409
B( 14-O , 15-C ) :   0.8607 B( 14-O , 16-H ) :  -0.1025 B( 15-C , 18-H ) :   1.0057
B( 15-C , 19-H ) :   0.9273

MP2 TOTAL ENERGY:     -538.774958626 Eh
FINAL SINGLE POINT ENERGY      -538.774958626180

DIPOLE MOMENT
-------------
                                X             Y             Z
Electronic contribution:      0.19304      -1.33629      -0.00000
Nuclear contribution   :     -0.62067       1.76079      -0.00000
                        -----------------------------------------
Total Dipole Moment    :     -0.42763       0.42451      -0.00000
                        -----------------------------------------
Magnitude (a.u.)       :      0.60255
Magnitude (Debye)      :      1.53157

Rotational constants in cm-1:     0.049740     0.024007     0.017686
Rotational constants in MHz :  1491.172844   719.721669   530.200426

                             ****ORCA TERMINATED NORMALLY****
TOTAL RUN TIME: 0 days 0 hours 12 minutes 0 seconds 190 msec
