                         Program Version 4.2.1 -  RELEASE  -
|  1> %pal
|  2>  nprocs 32
|  3> end
|  4> !RI-MP2 aug-cc-pVTZ aug-cc-pVTZ/C TightSCF
|  5> %maxcore 4500
|  6> *xyzfile 0 1  02_20TS.xyz
|  7>
|  8>
|  9>                          ****END OF INPUT****

CARTESIAN COORDINATES (ANGSTROEM)
---------------------------------
  C     -0.345850   -0.788419   -0.293527
  C      0.011345    1.420606    0.630455
  C     -1.708560   -1.092058   -0.166318
  H      0.019356   -0.431463   -1.246394
  C      0.649269   -1.367086    0.582305
  C     -1.101128    2.009709    0.036840
  C      1.419381    1.820550    0.461986
  H     -0.161124    0.858959    1.531541
  C     -2.369453    1.462676    0.232478
  C     -2.702379    0.321664    0.979070
  C     -4.149405   -0.151825    0.897117
  C     -2.122983    0.090751    2.371361
  C     -2.512293   -1.137110   -1.449710
  H     -1.943648   -1.861584    0.565178
  H     -2.912709   -0.290223    3.022334
  H     -1.309208   -0.633411    2.399858
  H     -1.769553    1.027626    2.806631
  C     -4.750199   -0.326558   -0.495926
  H     -4.764989    0.541432    1.484262
  H     -4.219384   -1.115834    1.413804
  C     -4.002156   -1.405701   -1.274011
  H     -2.357638   -0.201676   -1.996778
  H     -2.086292   -1.924595   -2.080404
  C     -6.235476   -0.661156   -0.391586
  H     -4.659955    0.614512   -1.049954
  H     -4.460951   -1.521386   -2.260729
  H     -4.136043   -2.365709   -0.758653
  C     -0.983780    3.127132   -0.972848
  H     -3.142070    1.852463   -0.423823
  H     -0.157981    3.798077   -0.736853
  H     -0.813626    2.746902   -1.984116
  H     -1.906844    3.708117   -0.994202
  H     -6.385196   -1.593179    0.161933
  H     -6.785142    0.126706    0.129190
  H     -6.682700   -0.786841   -1.380444
  C      2.186908    1.862973    1.758699
  H      1.755973    2.603443    2.438549
  H      2.123246    0.894364    2.262492
  H      3.239187    2.104731    1.622587
  C      1.950983    2.066549   -0.739096
  C      3.355110    2.457720   -1.066912
  H      3.365954    3.381057   -1.653912
  H      3.978440    2.616100   -0.188066
  H      3.824328    1.687614   -1.686213
  H      1.314163    1.927204   -1.605014
  C      2.064997   -1.392706    0.100328
  O      0.412075   -1.823723    1.697182
  C      3.094895   -1.724242    0.877802
  C      2.589450   -1.086015   -1.272441
  H      3.018700   -1.998502    1.921120
  C      4.394638   -1.653421    0.136568
  N      3.948221   -1.217900   -1.171118
  H      4.534853   -1.172642   -1.988185
  O      1.987952   -0.789136   -2.283900
  C      5.405826   -0.704129    0.773048
  H      6.313737   -0.647004    0.169557
  H      5.683214   -1.053946    1.769396
  H      4.981023    0.296799    0.857079
  H      4.830281   -2.659370    0.075702

 Total Charge           Charge          ....    0
 Multiplicity           Mult            ....    1
 Number of Electrons    NEL             ....  194
 Basis Dimension        Dim             .... 1955

ORBITAL ENERGIES
----------------

  NO   OCC          E(Eh)            E(eV)
   0   2.0000     -20.517253      -558.3028
   1   2.0000     -20.509878      -558.1021
   2   2.0000     -15.583045      -424.0362
   3   2.0000     -11.351385      -308.8869
   4   2.0000     -11.315514      -307.9108
   5   2.0000     -11.293832      -307.3208
   6   2.0000     -11.264561      -306.5243
   7   2.0000     -11.246654      -306.0370
   8   2.0000     -11.243465      -305.9502
   9   2.0000     -11.241520      -305.8973
  10   2.0000     -11.240120      -305.8592
  11   2.0000     -11.239387      -305.8393
  12   2.0000     -11.228870      -305.5531
  13   2.0000     -11.226195      -305.4803
  14   2.0000     -11.222736      -305.3862
  15   2.0000     -11.222279      -305.3737
  16   2.0000     -11.220925      -305.3369
  17   2.0000     -11.218779      -305.2785
  18   2.0000     -11.218209      -305.2630
  19   2.0000     -11.218006      -305.2575
  20   2.0000     -11.215592      -305.1918
  21   2.0000     -11.212512      -305.1080
  22   2.0000     -11.212329      -305.1030
  23   2.0000     -11.209617      -305.0292
  24   2.0000     -11.204492      -304.8897
  25   2.0000     -11.202159      -304.8262
  26   2.0000      -1.384274       -37.6680
  27   2.0000      -1.356428       -36.9103
  28   2.0000      -1.265876       -34.4462
  29   2.0000      -1.141755       -31.0687
  30   2.0000      -1.113909       -30.3110
  31   2.0000      -1.087408       -29.5899
  32   2.0000      -1.079062       -29.3628
  33   2.0000      -1.059061       -28.8185
  34   2.0000      -1.040056       -28.3013
  35   2.0000      -1.034330       -28.1456
  36   2.0000      -0.993341       -27.0302
  37   2.0000      -0.982106       -26.7245
  38   2.0000      -0.934315       -25.4240
  39   2.0000      -0.929213       -25.2852
  40   2.0000      -0.920659       -25.0524
  41   2.0000      -0.913497       -24.8575
  42   2.0000      -0.885080       -24.0843
  43   2.0000      -0.875685       -23.8286
  44   2.0000      -0.833545       -22.6819
  45   2.0000      -0.815528       -22.1916
  46   2.0000      -0.788482       -21.4557
  47   2.0000      -0.770913       -20.9776
  48   2.0000      -0.763224       -20.7684
  49   2.0000      -0.722230       -19.6529
  50   2.0000      -0.717747       -19.5309
  51   2.0000      -0.694500       -18.8983
  52   2.0000      -0.684576       -18.6283
  53   2.0000      -0.656317       -17.8593
  54   2.0000      -0.652936       -17.7673
  55   2.0000      -0.652142       -17.7457
  56   2.0000      -0.633602       -17.2412
  57   2.0000      -0.627489       -17.0749
  58   2.0000      -0.618627       -16.8337
  59   2.0000      -0.610784       -16.6203
  60   2.0000      -0.607167       -16.5219
  61   2.0000      -0.600990       -16.3538
  62   2.0000      -0.586237       -15.9523
  63   2.0000      -0.584178       -15.8963
  64   2.0000      -0.583150       -15.8683
  65   2.0000      -0.579589       -15.7714
  66   2.0000      -0.568099       -15.4588
  67   2.0000      -0.561541       -15.2803
  68   2.0000      -0.559578       -15.2269
  69   2.0000      -0.557146       -15.1607
  70   2.0000      -0.553432       -15.0597
  71   2.0000      -0.547632       -14.9018
  72   2.0000      -0.544304       -14.8113
  73   2.0000      -0.537153       -14.6167
  74   2.0000      -0.533992       -14.5307
  75   2.0000      -0.531317       -14.4579
  76   2.0000      -0.527022       -14.3410
  77   2.0000      -0.524954       -14.2847
  78   2.0000      -0.520384       -14.1604
  79   2.0000      -0.514431       -13.9984
  80   2.0000      -0.512721       -13.9518
  81   2.0000      -0.506114       -13.7721
  82   2.0000      -0.495091       -13.4721
  83   2.0000      -0.479695       -13.0532
  84   2.0000      -0.477518       -12.9939
  85   2.0000      -0.467889       -12.7319
  86   2.0000      -0.462859       -12.5950
  87   2.0000      -0.452737       -12.3196
  88   2.0000      -0.436340       -11.8734
  89   2.0000      -0.425091       -11.5673
  90   2.0000      -0.420474       -11.4417
  91   2.0000      -0.400567       -10.9000
  92   2.0000      -0.398577       -10.8458
  93   2.0000      -0.382103       -10.3976
  94   2.0000      -0.357273        -9.7219
  95   2.0000      -0.297849        -8.1049
  96   2.0000      -0.265966        -7.2373
  97   0.0000       0.020021         0.5448
  98   0.0000       0.026343         0.7168
  99   0.0000       0.028874         0.7857
 100   0.0000       0.031196         0.8489
 101   0.0000       0.035383         0.9628

MULLIKEN ATOMIC CHARGES
-----------------------
   0 C :   -0.200135
   1 C :   -0.192859
   2 C :   -0.168615
   3 H :    0.361856
   4 C :    1.778057
   5 C :    1.070689
   6 C :    1.053990
   7 H :    0.086830
   8 C :   -1.336385
   9 C :    2.113609
  10 C :   -0.747236
  11 C :   -1.471275
  12 C :   -0.728591
  13 H :    0.088870
  14 H :    0.059553
  15 H :    0.462828
  16 H :    0.252122
  17 C :    0.395789
  18 H :    0.517029
  19 H :    0.114644
  20 C :   -0.792830
  21 H :    0.060199
  22 H :    0.360724
  23 C :   -1.421828
  24 H :    0.403079
  25 H :    0.332325
  26 H :    0.043132
  27 C :   -1.221114
  28 H :   -0.377710
  29 H :    0.308944
  30 H :    0.254021
  31 H :    0.178270
  32 H :    0.235069
  33 H :    0.223092
  34 H :    0.238385
  35 C :   -1.006484
  36 H :    0.112725
  37 H :    0.249804
  38 H :    0.284134
  39 C :   -0.157367
  40 C :   -1.201351
  41 H :    0.197343
  42 H :    0.283884
  43 H :    0.283688
  44 H :    0.052807
  45 C :    1.164634
  46 O :   -1.666658
  47 C :   -0.940374
  48 C :    0.601467
  49 H :    0.343153
  50 C :    0.063597
  51 N :    0.166121
  52 H :   -0.040600
  53 O :   -1.310036
  54 C :   -1.090183
  55 H :    0.246692
  56 H :    0.252535
  57 H :    0.508031
  58 H :    0.267911
Sum of atomic charges:    0.0000000

LOEWDIN ATOMIC CHARGES
----------------------
   0 C :    0.177870
   1 C :    0.214703
   2 C :    0.160798
   3 H :   -0.242444
   4 C :   -0.554046
   5 C :   -0.071950
   6 C :   -0.091760
   7 H :   -0.268649
   8 C :    0.233793
   9 C :   -0.109493
  10 C :    0.289052
  11 C :    0.602787
  12 C :    0.301781
  13 H :   -0.155449
  14 H :   -0.157252
  15 H :   -0.242725
  16 H :   -0.153650
  17 C :   -0.028129
  18 H :   -0.121860
  19 H :   -0.140791
  20 C :    0.304209
  21 H :   -0.137208
  22 H :   -0.129667
  23 C :    0.596901
  24 H :   -0.141754
  25 H :   -0.133079
  26 H :   -0.128804
  27 C :    0.580117
  28 H :   -0.182416
  29 H :   -0.178068
  30 H :   -0.159555
  31 H :   -0.170094
  32 H :   -0.155986
  33 H :   -0.160770
  34 H :   -0.160636
  35 C :    0.589628
  36 H :   -0.151021
  37 H :   -0.165461
  38 H :   -0.197135
  39 C :    0.221245
  40 C :    0.580977
  41 H :   -0.163411
  42 H :   -0.197833
  43 H :   -0.175380
  44 H :   -0.189697
  45 C :   -0.066964
  46 O :    0.495202
  47 C :    0.273319
  48 C :   -0.668555
  49 H :   -0.135401
  50 C :   -0.134420
  51 N :    0.569912
  52 H :   -0.248376
  53 O :    0.473191
  54 C :    0.613634
  55 H :   -0.159181
  56 H :   -0.159123
  57 H :   -0.172985
  58 H :   -0.117942

  Mayer bond orders larger than 0.100000
B(  0-C ,  1-C ) :  -0.2889 B(  0-C ,  2-C ) :   1.2535 B(  0-C ,  3-H ) :   1.2020
B(  0-C ,  4-C ) :   1.1819 B(  0-C ,  5-C ) :   0.1937 B(  0-C ,  7-H ) :  -0.2497
B(  0-C ,  8-C ) :   0.1768 B(  0-C ,  9-C ) :   0.1478 B(  0-C , 22-H ) :  -0.2101
B(  0-C , 28-H ) :   0.1126 B(  0-C , 45-C ) :   0.3511 B(  0-C , 46-O ) :   0.2051
B(  0-C , 48-C ) :  -0.2359 B(  1-C ,  2-C ) :   0.4698 B(  1-C ,  3-H ) :  -0.1914
B(  1-C ,  4-C ) :  -0.1484 B(  1-C ,  5-C ) :   1.3259 B(  1-C ,  6-C ) :   0.8949
B(  1-C ,  7-H ) :   1.2302 B(  1-C ,  9-C ) :   0.2508 B(  1-C , 11-C ) :  -0.2871
B(  1-C , 16-H ) :  -0.1080 B(  1-C , 28-H ) :  -0.1296 B(  1-C , 35-C ) :   0.4625
B(  1-C , 37-H ) :   0.1406 B(  1-C , 39-C ) :   0.1715 B(  1-C , 40-C ) :  -0.1718
B(  1-C , 44-H ) :   0.1195 B(  1-C , 45-C ) :   0.3615 B(  1-C , 46-O ) :   0.2308
B(  2-C ,  4-C ) :   0.5764 B(  2-C ,  7-H ) :   0.1786 B(  2-C ,  9-C ) :   0.1517
B(  2-C , 11-C ) :   0.2085 B(  2-C , 12-C ) :   0.5316 B(  2-C , 13-H ) :   1.2277
B(  3-H , 44-H ) :  -0.1053 B(  3-H , 53-O ) :  -0.1931 B(  4-C ,  7-H ) :   0.3425
B(  4-C ,  8-C ) :   0.3127 B(  4-C , 15-H ) :  -0.1020 B(  4-C , 45-C ) :   0.1181
B(  4-C , 46-O ) :  -1.0046 B(  4-C , 47-C ) :   0.2244 B(  4-C , 48-C ) :   0.5525
B(  5-C ,  6-C ) :   0.3286 B(  5-C ,  7-H ) :   0.2836 B(  5-C ,  8-C ) :   0.6194
B(  5-C ,  9-C ) :   0.2066 B(  5-C , 10-C ) :   0.1009 B(  5-C , 27-C ) :   0.5223
B(  5-C , 28-H ) :  -0.4714 B(  5-C , 30-H ) :  -0.1027 B(  5-C , 39-C ) :   0.1169
B(  5-C , 48-C ) :   0.1496 B(  6-C ,  9-C ) :  -0.1096 B(  6-C , 35-C ) :   0.1420
B(  6-C , 37-H ) :  -0.1904 B(  6-C , 39-C ) :   1.1624 B(  6-C , 40-C ) :   0.2177
B(  6-C , 42-H ) :   0.1067 B(  6-C , 44-H ) :  -0.4269 B(  7-H ,  8-C ) :   0.3327
B(  7-H , 27-C ) :  -0.1304 B(  7-H , 45-C ) :  -0.1200 B(  8-C ,  9-C ) :   0.6884
B(  8-C , 10-C ) :  -0.1127 B(  8-C , 11-C ) :   0.2451 B(  8-C , 24-H ) :  -0.1258
B(  8-C , 27-C ) :  -0.1146 B(  8-C , 28-H ) :   2.1228 B(  9-C , 10-C ) :  -0.2030
B(  9-C , 11-C ) :   0.4536 B(  9-C , 12-C ) :   0.2153 B(  9-C , 17-C ) :   0.1325
B(  9-C , 19-H ) :  -0.3305 B(  9-C , 28-H ) :  -0.4153 B(  9-C , 39-C ) :  -0.1232
B( 10-C , 11-C ) :  -0.1577 B( 10-C , 17-C ) :   1.1047 B( 10-C , 18-H ) :   0.7969
B( 10-C , 19-H ) :   1.3705 B( 10-C , 20-C ) :   0.1773 B( 10-C , 24-H ) :   0.1001
B( 11-C , 14-H ) :   1.2601 B( 11-C , 15-H ) :   0.8308 B( 11-C , 16-H ) :   1.0563
B( 12-C , 20-C ) :   1.0066 B( 12-C , 21-H ) :   1.3895 B( 12-C , 22-H ) :   0.8407
B( 15-H , 46-O ) :   0.1249 B( 17-C , 20-C ) :   0.7383 B( 17-C , 23-C ) :   0.3648
B( 17-C , 24-H ) :   0.8484 B( 17-C , 32-H ) :  -0.1574 B( 20-C , 23-C ) :   0.1114
B( 20-C , 25-H ) :   0.9010 B( 20-C , 26-H ) :   1.2951 B( 23-C , 32-H ) :   1.1368
B( 23-C , 33-H ) :   1.0804 B( 23-C , 34-H ) :   1.0963 B( 27-C , 29-H ) :   0.9929
B( 27-C , 30-H ) :   1.1132 B( 27-C , 31-H ) :   1.1335 B( 35-C , 36-H ) :   1.1921
B( 35-C , 37-H ) :   1.1229 B( 35-C , 38-H ) :   0.9152 B( 35-C , 39-C ) :  -0.3627
B( 39-C , 40-C ) :   0.3238 B( 39-C , 41-H ) :  -0.1073 B( 39-C , 44-H ) :   1.6362
B( 40-C , 41-H ) :   1.1099 B( 40-C , 42-H ) :   0.9927 B( 40-C , 43-H ) :   1.0260
B( 45-C , 46-O ) :   0.3732 B( 45-C , 47-C ) :   0.7234 B( 45-C , 50-C ) :   0.1838
B( 45-C , 51-N ) :  -0.4188 B( 45-C , 53-O ) :   0.4488 B( 47-C , 48-C ) :   0.2047
B( 47-C , 49-H ) :   1.0305 B( 47-C , 50-C ) :   1.1602 B( 48-C , 49-H ) :   0.1257
B( 48-C , 51-N ) :   1.1396 B( 48-C , 52-H ) :   0.1867 B( 48-C , 53-O ) :   0.2806
B( 50-C , 51-N ) :   0.8907 B( 50-C , 54-C ) :   0.7422 B( 50-C , 58-H ) :   0.8764
B( 51-N , 52-H ) :   1.1492 B( 51-N , 53-O ) :  -0.2140 B( 54-C , 55-H ) :   1.0349
B( 54-C , 56-H ) :   1.0282 B( 54-C , 57-H ) :   0.7657

MP2 TOTAL ENERGY:    -1099.238838806 Eh
FINAL SINGLE POINT ENERGY     -1099.238838805733

DIPOLE MOMENT
-------------
                                X             Y             Z
Electronic contribution:     13.04925     -10.38231      -2.54190
Nuclear contribution   :    -11.89979      10.74053       2.64542
                        -----------------------------------------
Total Dipole Moment    :      1.14946       0.35822       0.10352
                        -----------------------------------------
Magnitude (a.u.)       :      1.20842
Magnitude (Debye)      :      3.07157

Rotational constants in cm-1:     0.012820     0.004382     0.004037
Rotational constants in MHz :   384.320789   131.354798   121.018522

                             ****ORCA TERMINATED NORMALLY****
TOTAL RUN TIME: 0 days 3 hours 14 minutes 44 seconds 657 msec
