                         Program Version 4.2.1 -  RELEASE  -
|  1> %pal
|  2>  nprocs 32
|  3> end
|  4> !RI-MP2 aug-cc-pVTZ aug-cc-pVTZ/C TightSCF
|  5> %maxcore 4500
|  6> *xyzfile 0 1  10_61P.xyz
|  7>
|  8>
|  9>                          ****END OF INPUT****

CARTESIAN COORDINATES (ANGSTROEM)
---------------------------------
  C      2.584852   -0.975395    0.050537
  C     -2.346185    1.720028   -0.199557
  C     -1.168388    1.119404   -0.208440
  C     -1.029091   -0.270573    0.356579
  C      0.155324   -1.021319   -0.269508
  C      1.457444   -0.285821   -0.064093
  C      0.106135    1.731792   -0.747120
  F     -2.158440   -1.000290    0.206832
  F      0.200649   -2.281964    0.212098
  C      1.336104    1.191193   -0.056983
  C      2.213233    1.983178    0.549657
  F     -0.112828   -1.125221   -1.612731
  F     -0.782711   -0.207142    1.703261
  H      2.094038    3.059382    0.537436
  H      3.065472    1.587746    1.087335
  H      0.063677    2.816137   -0.654216
  H      0.171046    1.495713   -1.815303
  H      3.541853   -0.475679    0.123766
  H      2.578424   -2.056714    0.070834
  H     -2.458485    2.733975   -0.564235
  H     -3.232632    1.216073    0.162807

 Total Charge           Charge          ....    0
 Multiplicity           Mult            ....    1
 Number of Electrons    NEL             ....   98
 Basis Dimension        Dim             ....  782

ORBITAL ENERGIES
----------------

  NO   OCC          E(Eh)            E(eV)
   0   2.0000     -26.324527      -716.3268
   1   2.0000     -26.321298      -716.2389
   2   2.0000     -26.320375      -716.2138
   3   2.0000     -26.317105      -716.1248
   4   2.0000     -11.432076      -311.0826
   5   2.0000     -11.429948      -311.0247
   6   2.0000     -11.269056      -306.6466
   7   2.0000     -11.267196      -306.5960
   8   2.0000     -11.266657      -306.5813
   9   2.0000     -11.258300      -306.3539
  10   2.0000     -11.256208      -306.2970
  11   2.0000     -11.249251      -306.1077
  12   2.0000     -11.241296      -305.8912
  13   2.0000      -1.685473       -45.8640
  14   2.0000      -1.663069       -45.2544
  15   2.0000      -1.612952       -43.8907
  16   2.0000      -1.607016       -43.7291
  17   2.0000      -1.176383       -32.0110
  18   2.0000      -1.108477       -30.1632
  19   2.0000      -1.065166       -28.9846
  20   2.0000      -1.016014       -27.6471
  21   2.0000      -0.959122       -26.0990
  22   2.0000      -0.913251       -24.8508
  23   2.0000      -0.857833       -23.3428
  24   2.0000      -0.821630       -22.3577
  25   2.0000      -0.807028       -21.9603
  26   2.0000      -0.791303       -21.5324
  27   2.0000      -0.765763       -20.8375
  28   2.0000      -0.755923       -20.5697
  29   2.0000      -0.728201       -19.8154
  30   2.0000      -0.700269       -19.0553
  31   2.0000      -0.690092       -18.7783
  32   2.0000      -0.679037       -18.4775
  33   2.0000      -0.674079       -18.3426
  34   2.0000      -0.662523       -18.0282
  35   2.0000      -0.653952       -17.7949
  36   2.0000      -0.642287       -17.4775
  37   2.0000      -0.637741       -17.3538
  38   2.0000      -0.623917       -16.9777
  39   2.0000      -0.611355       -16.6358
  40   2.0000      -0.599861       -16.3231
  41   2.0000      -0.593723       -16.1560
  42   2.0000      -0.574333       -15.6284
  43   2.0000      -0.524685       -14.2774
  44   2.0000      -0.508664       -13.8414
  45   2.0000      -0.499898       -13.6029
  46   2.0000      -0.447334       -12.1726
  47   2.0000      -0.392182       -10.6718
  48   2.0000      -0.349961        -9.5229
  49   0.0000       0.024500         0.6667
  50   0.0000       0.028131         0.7655
  51   0.0000       0.036306         0.9879
  52   0.0000       0.038750         1.0544
  53   0.0000       0.047737         1.2990

MULLIKEN ATOMIC CHARGES
-----------------------
   0 C :   -1.437797
   1 C :   -1.412872
   2 C :    0.485161
   3 C :    1.197456
   4 C :    1.175050
   5 C :    0.880136
   6 C :   -0.307229
   7 F :   -0.523719
   8 F :   -0.516921
   9 C :    0.813336
  10 C :   -1.642130
  11 F :   -0.550196
  12 F :   -0.545129
  13 H :    0.390533
  14 H :    0.251211
  15 H :    0.121874
  16 H :    0.203203
  17 H :    0.424357
  18 H :    0.287028
  19 H :    0.359418
  20 H :    0.347231
Sum of atomic charges:   -0.0000000

LOEWDIN ATOMIC CHARGES
----------------------
   0 C :    0.573237
   1 C :    0.570862
   2 C :   -0.121623
   3 C :   -1.096087
   4 C :   -1.097495
   5 C :   -0.138270
   6 C :    0.264730
   7 F :    0.538969
   8 F :    0.546717
   9 C :   -0.132026
  10 C :    0.569034
  11 F :    0.521747
  12 F :    0.522620
  13 H :   -0.204282
  14 H :   -0.210740
  15 H :   -0.154235
  16 H :   -0.138252
  17 H :   -0.200960
  18 H :   -0.208163
  19 H :   -0.196943
  20 H :   -0.208839

  Mayer bond orders larger than 0.100000
B(  0-C ,  5-C ) :   0.9452 B(  0-C ,  9-C ) :  -0.1153 B(  0-C , 10-C ) :   0.1248
B(  0-C , 17-H ) :   0.8887 B(  0-C , 18-H ) :   1.0274 B(  1-C ,  2-C ) :   0.9571
B(  1-C ,  6-C ) :  -0.2121 B(  1-C , 19-H ) :   0.9925 B(  1-C , 20-H ) :   0.9411
B(  2-C ,  3-C ) :   1.0049 B(  2-C ,  5-C ) :  -0.1192 B(  2-C ,  6-C ) :   0.8208
B(  2-C ,  7-F ) :   0.1685 B(  2-C ,  9-C ) :   0.1234 B(  2-C , 12-F ) :   0.1562
B(  3-C ,  4-C ) :   1.2634 B(  3-C ,  7-F ) :   0.4330 B(  3-C ,  8-F ) :   0.1004
B(  3-C , 11-F ) :   0.2069 B(  3-C , 12-F ) :   0.3320 B(  4-C ,  5-C ) :   1.0111
B(  4-C ,  7-F ) :   0.1020 B(  4-C ,  8-F ) :   0.3804 B(  4-C , 11-F ) :   0.3708
B(  4-C , 12-F ) :   0.1539 B(  5-C ,  8-F ) :   0.1830 B(  5-C ,  9-C ) :   0.5397
B(  5-C , 10-C ) :  -0.2297 B(  5-C , 11-F ) :   0.1098 B(  6-C ,  9-C ) :   0.9324
B(  6-C , 15-H ) :   1.0968 B(  6-C , 16-H ) :   1.0183 B(  9-C , 10-C ) :   0.8177
B( 10-C , 13-H ) :   0.8100 B( 10-C , 14-H ) :   1.2303

MP2 TOTAL ENERGY:     -745.923981747 Eh
FINAL SINGLE POINT ENERGY      -745.923981747466

DIPOLE MOMENT
-------------
                                X             Y             Z
Electronic contribution:     -7.54952     -13.05333       1.25681
Nuclear contribution   :      8.27688      14.30416      -1.48915
                        -----------------------------------------
Total Dipole Moment    :      0.72736       1.25084      -0.23234
                        -----------------------------------------
Magnitude (a.u.)       :      1.46548
Magnitude (Debye)      :      3.72496

Rotational constants in cm-1:     0.035197     0.030179     0.021428
Rotational constants in MHz :  1055.185696   904.755167   642.406132

                             ****ORCA TERMINATED NORMALLY****
TOTAL RUN TIME: 0 days 0 hours 8 minutes 10 seconds 822 msec
