                         Program Version 4.2.1 -  RELEASE  -
|  1> %pal
|  2>  nprocs 32
|  3> end
|  4> !RI-MP2 aug-cc-pVTZ aug-cc-pVTZ/C TightSCF
|  5> %maxcore 4500
|  6> *xyzfile 0 2  03_11R2.xyz
|  7>
|  8>
|  9>                          ****END OF INPUT****

CARTESIAN COORDINATES (ANGSTROEM)
---------------------------------
  C      0.000000   -0.000002   -0.161131
  C     -1.254472   -0.785052    0.016032
  C     -0.052642    1.478923    0.016030
  C      1.307114   -0.693874    0.016032
  H     -2.115112   -0.278605   -0.428642
  H     -1.492097   -0.933448    1.082924
  H     -1.175040   -1.780672   -0.428208
  H     -0.954459    1.907981   -0.428442
  H      0.816409    1.971006   -0.428406
  H     -0.062628    1.758910    1.082921
  H      1.298659   -1.692629   -0.428190
  H      1.554699   -0.824983    1.082924
  H      2.129567   -0.127531   -0.428661

 Total Charge           Charge          ....    0
 Multiplicity           Mult            ....    2
 Number of Electrons    NEL             ....   33
 Basis Dimension        Dim             ....  391

ORBITAL ENERGIES
----------------
                 SPIN UP ORBITALS
  NO   OCC          E(Eh)            E(eV)
   0   1.0000     -11.225392      -305.4585
   1   1.0000     -11.211159      -305.0711
   2   1.0000     -11.211158      -305.0711
   3   1.0000     -11.211111      -305.0698
   4   1.0000      -1.090534       -29.6749
   5   1.0000      -0.935122       -25.4460
   6   1.0000      -0.935122       -25.4460
   7   1.0000      -0.743217       -20.2240
   8   1.0000      -0.620258       -16.8781
   9   1.0000      -0.601124       -16.3574
  10   1.0000      -0.601118       -16.3573
  11   1.0000      -0.535921       -14.5831
  12   1.0000      -0.535914       -14.5830
  13   1.0000      -0.513643       -13.9769
  14   1.0000      -0.483459       -13.1556
  15   1.0000      -0.483459       -13.1556
  16   1.0000      -0.309825        -8.4308
  17   0.0000       0.030711         0.8357
  18   0.0000       0.038966         1.0603
  19   0.0000       0.038966         1.0603
  20   0.0000       0.044687         1.2160
  21   0.0000       0.059361         1.6153

                 SPIN DOWN ORBITALS
  NO   OCC          E(Eh)            E(eV)
   0   1.0000     -11.214194      -305.1537
   1   1.0000     -11.214185      -305.1535
   2   1.0000     -11.214184      -305.1535
   3   1.0000     -11.200880      -304.7914
   4   1.0000      -1.051735       -28.6192
   5   1.0000      -0.934779       -25.4366
   6   1.0000      -0.934779       -25.4366
   7   1.0000      -0.698991       -19.0205
   8   1.0000      -0.594737       -16.1836
   9   1.0000      -0.594734       -16.1835
  10   1.0000      -0.572440       -15.5769
  11   1.0000      -0.525589       -14.3020
  12   1.0000      -0.525583       -14.3018
  13   1.0000      -0.512325       -13.9411
  14   1.0000      -0.476550       -12.9676
  15   1.0000      -0.476547       -12.9675
  16   0.0000       0.030614         0.8330
  17   0.0000       0.039059         1.0628
  18   0.0000       0.039059         1.0628
  19   0.0000       0.044048         1.1986
  20   0.0000       0.059424         1.6170

MULLIKEN ATOMIC CHARGES AND SPIN POPULATIONS
--------------------------------------------
   0 C :    0.387967    1.256919
   1 C :   -0.947555   -0.184515
   2 C :   -0.947579   -0.184487
   3 C :   -0.947553   -0.184515
   4 H :    0.282120    0.015321
   5 H :    0.253993    0.068250
   6 H :    0.282128    0.015294
   7 H :    0.282125    0.015310
   8 H :    0.282126    0.015307
   9 H :    0.253986    0.068251
  10 H :    0.282130    0.015294
  11 H :    0.253994    0.068250
  12 H :    0.282117    0.015322
Sum of atomic charges         :    0.0000000

LOEWDIN ATOMIC CHARGES AND SPIN POPULATIONS
-------------------------------------------
   0 C :   -0.081052    0.545865
   1 C :    0.547570    0.109542
   2 C :    0.547567    0.109537
   3 C :    0.547571    0.109542
   4 H :   -0.180073    0.006443
   5 H :   -0.160397    0.028964
   6 H :   -0.180084    0.006432
   7 H :   -0.180076    0.006438
   8 H :   -0.180077    0.006437
   9 H :   -0.160397    0.028962
  10 H :   -0.180085    0.006432
  11 H :   -0.160396    0.028964
  12 H :   -0.180073    0.006443

  Mayer bond orders larger than 0.100000
B(  0-C ,  1-C ) :   0.7934 B(  0-C ,  2-C ) :   0.7935 B(  0-C ,  3-C ) :   0.7934
B(  1-C ,  4-H ) :   0.9851 B(  1-C ,  5-H ) :   0.9215 B(  1-C ,  6-H ) :   0.9851
B(  2-C ,  7-H ) :   0.9851 B(  2-C ,  8-H ) :   0.9851 B(  2-C ,  9-H ) :   0.9215
B(  3-C , 10-H ) :   0.9851 B(  3-C , 11-H ) :   0.9215 B(  3-C , 12-H ) :   0.9851

MP2 TOTAL ENERGY:     -157.422149359 Eh
FINAL SINGLE POINT ENERGY      -157.422149359421

DIPOLE MOMENT
-------------
                                X             Y             Z
Electronic contribution:      0.00000      -0.00004      -0.66746
Nuclear contribution   :     -0.00000       0.00003       0.73594
                        -----------------------------------------
Total Dipole Moment    :      0.00000      -0.00000       0.06847
                        -----------------------------------------
Magnitude (a.u.)       :      0.06847
Magnitude (Debye)      :      0.17405

Rotational constants in cm-1:     0.268124     0.268121     0.145567
Rotational constants in MHz :  8038.166177  8038.076141  4363.997204

                             ****ORCA TERMINATED NORMALLY****
TOTAL RUN TIME: 0 days 0 hours 1 minutes 1 seconds 307 msec
