                         Program Version 4.2.1 -  RELEASE  -
|  1> %pal
|  2>  nprocs 32
|  3> end
|  4> !RI-MP2 aug-cc-pVTZ aug-cc-pVTZ/C TightSCF
|  5> %maxcore 4500
|  6> *xyzfile -1 1  02_13P.xyz
|  7>
|  8>
|  9>                          ****END OF INPUT****

CARTESIAN COORDINATES (ANGSTROEM)
---------------------------------
  C      4.639485   -1.711255   -0.278448
  C      3.138557   -1.489059   -0.465383
  H      2.578319   -2.285959    0.020528
  H      2.890397   -1.518068   -1.534928
  H      4.940395   -2.666287   -0.721301
  H      4.850103   -1.786201    0.795253
  C      2.704981   -0.138062    0.107249
  C      1.208083    0.144211   -0.028402
  C      3.504908    0.976759   -0.581238
  C      3.027163    2.339496   -0.174120
  C      1.833184    2.557307    0.361781
  C      0.817719    1.485893    0.644259
  C      0.583987    1.387893    2.158520
  H      1.467047    0.999111    2.670000
  H     -0.250684    0.725494    2.389576
  H      0.362551    2.377662    2.569849
  C      0.326170   -0.968614    0.547868
  C     -1.025622   -1.052265    0.055185
  O      0.785052   -1.694841    1.424493
  C     -2.054894   -1.924840    0.619494
  C     -1.599034   -0.306406   -1.007331
  O     -1.146583    0.571525   -1.752442
  O     -2.053023   -2.639507    1.607851
  C     -3.071809   -0.728510   -1.144061
  H     -3.221433   -1.081952   -2.171653
  C     -4.015446    0.461545   -0.908230
  C     -3.840333    1.067100    0.487992
  H     -4.148305    0.336962    1.243653
  H     -2.776480    1.244807    0.659025
  C     -4.598659    2.374634    0.696531
  H     -4.317737    3.112462   -0.060907
  H     -4.372178    2.803202    1.675966
  H     -5.681720    2.238076    0.642789
  N     -3.186942   -1.811200   -0.195659
  H     -4.065914   -2.074977    0.219977
  C     -5.465137    0.070600   -1.195126
  H     -6.134270    0.933124   -1.161815
  H     -5.833096   -0.655387   -0.462077
  H     -5.556076   -0.381666   -2.186216
  H     -3.703432    1.212706   -1.642717
  C      5.005694    0.785945   -0.351373
  H      5.565460    1.591929   -0.839766
  H      5.213194    0.863475    0.723039
  C      5.469618   -0.573205   -0.872320
  H      6.533300   -0.722089   -0.657753
  H      5.364977   -0.585942   -1.964443
  H      3.700627    3.176166   -0.351702
  H      1.550239    3.571152    0.638555
  H     -0.123008    1.796515    0.179573
  H      0.963036    0.258634   -1.087264
  H      2.963788   -0.133860    1.173146
  H      3.334241    0.876915   -1.665070

 Total Charge           Charge          ....   -1
 Multiplicity           Mult            ....    1
 Number of Electrons    NEL             ....  180
 Basis Dimension        Dim             .... 1748

ORBITAL ENERGIES
----------------

  NO   OCC          E(Eh)            E(eV)
   0   2.0000     -20.373779      -554.3987
   1   2.0000     -20.369504      -554.2824
   2   2.0000     -20.363534      -554.1199
   3   2.0000     -15.433760      -419.9739
   4   2.0000     -11.196010      -304.6589
   5   2.0000     -11.176063      -304.1161
   6   2.0000     -11.171832      -304.0010
   7   2.0000     -11.141216      -303.1679
   8   2.0000     -11.126345      -302.7632
   9   2.0000     -11.126154      -302.7581
  10   2.0000     -11.125213      -302.7324
  11   2.0000     -11.124896      -302.7238
  12   2.0000     -11.124239      -302.7059
  13   2.0000     -11.119900      -302.5879
  14   2.0000     -11.118246      -302.5428
  15   2.0000     -11.117845      -302.5319
  16   2.0000     -11.116828      -302.5043
  17   2.0000     -11.115715      -302.4740
  18   2.0000     -11.113231      -302.4064
  19   2.0000     -11.104085      -302.1575
  20   2.0000     -11.098419      -302.0033
  21   2.0000     -11.097501      -301.9784
  22   2.0000     -11.093328      -301.8648
  23   2.0000     -11.054611      -300.8113
  24   2.0000      -1.231220       -33.5032
  25   2.0000      -1.214194       -33.0399
  26   2.0000      -1.212673       -32.9985
  27   2.0000      -1.105841       -30.0915
  28   2.0000      -1.041624       -28.3440
  29   2.0000      -0.987600       -26.8740
  30   2.0000      -0.985962       -26.8294
  31   2.0000      -0.934400       -25.4263
  32   2.0000      -0.908255       -24.7149
  33   2.0000      -0.902996       -24.5718
  34   2.0000      -0.896682       -24.3999
  35   2.0000      -0.874287       -23.7906
  36   2.0000      -0.833076       -22.6692
  37   2.0000      -0.815453       -22.1896
  38   2.0000      -0.767313       -20.8796
  39   2.0000      -0.742875       -20.2146
  40   2.0000      -0.728531       -19.8243
  41   2.0000      -0.714094       -19.4315
  42   2.0000      -0.678237       -18.4558
  43   2.0000      -0.667501       -18.1636
  44   2.0000      -0.658087       -17.9075
  45   2.0000      -0.620648       -16.8887
  46   2.0000      -0.594835       -16.1863
  47   2.0000      -0.571882       -15.5617
  48   2.0000      -0.552060       -15.0223
  49   2.0000      -0.540653       -14.7119
  50   2.0000      -0.535214       -14.5639
  51   2.0000      -0.532745       -14.4967
  52   2.0000      -0.522792       -14.2259
  53   2.0000      -0.517422       -14.0798
  54   2.0000      -0.510920       -13.9028
  55   2.0000      -0.498722       -13.5709
  56   2.0000      -0.486822       -13.2471
  57   2.0000      -0.482064       -13.1176
  58   2.0000      -0.476592       -12.9687
  59   2.0000      -0.474858       -12.9215
  60   2.0000      -0.464788       -12.6475
  61   2.0000      -0.462310       -12.5801
  62   2.0000      -0.453131       -12.3303
  63   2.0000      -0.447570       -12.1790
  64   2.0000      -0.435797       -11.8586
  65   2.0000      -0.423765       -11.5312
  66   2.0000      -0.420804       -11.4507
  67   2.0000      -0.419570       -11.4171
  68   2.0000      -0.411609       -11.2004
  69   2.0000      -0.410211       -11.1624
  70   2.0000      -0.406273       -11.0553
  71   2.0000      -0.398974       -10.8566
  72   2.0000      -0.388016       -10.5584
  73   2.0000      -0.379842       -10.3360
  74   2.0000      -0.376573       -10.2471
  75   2.0000      -0.374171       -10.1817
  76   2.0000      -0.366745        -9.9796
  77   2.0000      -0.365682        -9.9507
  78   2.0000      -0.363169        -9.8823
  79   2.0000      -0.355165        -9.6645
  80   2.0000      -0.343050        -9.3349
  81   2.0000      -0.336760        -9.1637
  82   2.0000      -0.317150        -8.6301
  83   2.0000      -0.304779        -8.2934
  84   2.0000      -0.291442        -7.9305
  85   2.0000      -0.258162        -7.0249
  86   2.0000      -0.246861        -6.7174
  87   2.0000      -0.240408        -6.5418
  88   2.0000      -0.237981        -6.4758
  89   2.0000      -0.175045        -4.7632
  90   0.0000       0.087196         2.3727
  91   0.0000       0.087621         2.3843
  92   0.0000       0.094463         2.5705
  93   0.0000       0.098070         2.6686
  94   0.0000       0.102830         2.7981

MULLIKEN ATOMIC CHARGES
-----------------------
   0 C :   -0.660139
   1 C :   -1.151003
   2 H :    0.384290
   3 H :    0.149193
   4 H :    0.352233
   5 H :    0.072450
   6 C :    0.922485
   7 C :    0.109761
   8 C :    0.378080
   9 C :   -1.267330
  10 C :   -1.123330
  11 C :    0.477742
  12 C :   -1.258073
  13 H :    0.271373
  14 H :    0.345320
  15 H :    0.187147
  16 C :    2.518771
  17 C :   -0.230647
  18 O :   -1.789773
  19 C :   -0.049374
  20 C :    1.918125
  21 O :   -1.666838
  22 O :   -1.224989
  23 C :    0.041015
  24 H :    0.266786
  25 C :    0.572259
  26 C :   -0.483533
  27 H :    0.213119
  28 H :    0.642777
  29 C :   -1.291854
  30 H :    0.246398
  31 H :    0.246618
  32 H :    0.260994
  33 N :   -0.324268
  34 H :   -0.022957
  35 C :   -1.288205
  36 H :    0.264645
  37 H :    0.251643
  38 H :    0.221384
  39 H :    0.269866
  40 C :   -0.780923
  41 H :    0.263834
  42 H :    0.181070
  43 C :   -0.586587
  44 H :    0.331328
  45 H :    0.069887
  46 H :    0.425890
  47 H :    0.018638
  48 H :    0.406574
  49 H :   -0.056097
  50 H :    0.646693
  51 H :    0.327530
Sum of atomic charges:   -1.0000000

LOEWDIN ATOMIC CHARGES
----------------------
   0 C :    0.296951
   1 C :    0.311614
   2 H :   -0.176635
   3 H :   -0.125659
   4 H :   -0.143318
   5 H :   -0.137954
   6 C :    0.005235
   7 C :    0.023439
   8 C :   -0.022605
   9 C :    0.258470
  10 C :    0.252605
  11 C :   -0.017729
  12 C :    0.590167
  13 H :   -0.158471
  14 H :   -0.172661
  15 H :   -0.166531
  16 C :   -0.556357
  17 C :   -0.102751
  18 O :    0.480779
  19 C :   -0.728243
  20 C :   -0.590473
  21 O :    0.452879
  22 O :    0.400924
  23 C :   -0.122434
  24 H :   -0.130603
  25 C :   -0.017849
  26 C :    0.275477
  27 H :   -0.137457
  28 H :   -0.158643
  29 C :    0.582958
  30 H :   -0.164129
  31 H :   -0.171466
  32 H :   -0.184214
  33 N :    0.553199
  34 H :   -0.297035
  35 C :    0.586400
  36 H :   -0.178270
  37 H :   -0.162804
  38 H :   -0.163926
  39 H :   -0.138565
  40 C :    0.290669
  41 H :   -0.141973
  42 H :   -0.131915
  43 C :    0.286622
  44 H :   -0.145942
  45 H :   -0.142352
  46 H :   -0.179296
  47 H :   -0.173234
  48 H :   -0.165005
  49 H :   -0.195548
  50 H :   -0.125371
  51 H :   -0.120970

  Mayer bond orders larger than 0.100000
B(  0-C ,  1-C ) :   1.0849 B(  0-C ,  4-H ) :   0.8762 B(  0-C ,  5-H ) :   1.1953
B(  0-C ,  6-C ) :  -0.2132 B(  0-C , 43-C ) :   0.8672 B(  1-C ,  2-H ) :   0.8572
B(  1-C ,  3-H ) :   1.2029 B(  1-C ,  6-C ) :   0.4334 B(  1-C ,  8-C ) :   0.2448
B(  1-C , 16-C ) :  -0.1990 B(  1-C , 18-O ) :   0.1101 B(  3-H ,  6-C ) :  -0.1148
B(  5-H ,  6-C ) :  -0.1272 B(  6-C ,  7-C ) :   1.1639 B(  6-C ,  8-C ) :   1.1808
B(  6-C , 10-C ) :   0.1505 B(  6-C , 20-C ) :   0.1464 B(  6-C , 21-O ) :  -0.1124
B(  6-C , 23-C ) :  -0.1237 B(  6-C , 40-C ) :  -0.1095 B(  6-C , 49-H ) :  -0.1436
B(  6-C , 50-H ) :   0.4223 B(  7-C ,  8-C ) :  -0.2119 B(  7-C ,  9-C ) :   0.1385
B(  7-C , 11-C ) :   0.9816 B(  7-C , 16-C ) :   0.7195 B(  7-C , 17-C ) :   0.6310
B(  7-C , 18-O ) :   0.4386 B(  7-C , 19-C ) :   0.2393 B(  7-C , 20-C ) :  -0.3212
B(  7-C , 21-O ) :  -0.1972 B(  7-C , 23-C ) :   0.2391 B(  7-C , 48-H ) :  -0.1290
B(  7-C , 49-H ) :   0.7169 B(  8-C ,  9-C ) :   0.1943 B(  8-C , 10-C ) :   0.1258
B(  8-C , 40-C ) :   0.7206 B(  8-C , 47-H ) :   0.1799 B(  8-C , 49-H ) :  -0.1109
B(  8-C , 50-H ) :  -0.1463 B(  8-C , 51-H ) :   1.2115 B(  9-C , 10-C ) :   1.7945
B(  9-C , 11-C ) :   0.1072 B(  9-C , 46-H ) :   0.6050 B(  9-C , 47-H ) :  -0.1967
B(  9-C , 48-H ) :  -0.1220 B(  9-C , 49-H ) :   0.1551 B(  9-C , 51-H ) :  -0.5855
B( 10-C , 16-C ) :   0.1046 B( 10-C , 47-H ) :   1.6023 B( 10-C , 48-H ) :  -0.4062
B( 10-C , 49-H ) :  -0.1047 B( 11-C , 12-C ) :   0.6480 B( 11-C , 17-C ) :  -0.1110
B( 11-C , 20-C ) :   0.1246 B( 11-C , 21-O ) :   0.1460 B( 11-C , 47-H ) :  -0.1091
B( 11-C , 48-H ) :   0.9646 B( 11-C , 49-H ) :   0.2921 B( 12-C , 13-H ) :   1.0306
B( 12-C , 14-H ) :   0.9100 B( 12-C , 15-H ) :   1.1214 B( 12-C , 18-O ) :   0.1171
B( 16-C , 17-C ) :  -0.3760 B( 16-C , 18-O ) :  -1.1409 B( 16-C , 19-C ) :  -0.3290
B( 16-C , 20-C ) :   0.9691 B( 16-C , 21-O ) :   0.2220 B( 16-C , 23-C ) :  -0.4206
B( 16-C , 33-N ) :   0.1777 B( 17-C , 18-O ) :   0.6818 B( 17-C , 19-C ) :   0.2264
B( 17-C , 20-C ) :   0.6169 B( 17-C , 21-O ) :   0.2423 B( 17-C , 22-O ) :   0.7500
B( 17-C , 23-C ) :   0.4117 B( 17-C , 33-N ) :  -0.5848 B( 17-C , 49-H ) :   0.1624
B( 18-O , 20-C ) :  -0.1529 B( 19-C , 20-C ) :  -1.1697 B( 19-C , 23-C ) :   0.4010
B( 19-C , 33-N ) :   1.2015 B( 20-C , 23-C ) :   0.8217 B( 20-C , 49-H ) :  -0.1106
B( 22-O , 33-N ) :  -0.1060 B( 23-C , 24-H ) :   0.9118 B( 23-C , 25-C ) :   0.9059
B( 23-C , 33-N ) :   0.8120 B( 23-C , 35-C ) :  -0.1157 B( 25-C , 26-C ) :   0.8113
B( 25-C , 35-C ) :   0.5634 B( 25-C , 37-H ) :  -0.1109 B( 25-C , 39-H ) :   0.8296
B( 26-C , 27-H ) :   1.0763 B( 26-C , 28-H ) :   0.5836 B( 26-C , 29-C ) :   0.5311
B( 26-C , 35-C ) :   0.1237 B( 28-H , 29-C ) :  -0.1390 B( 29-C , 30-H ) :   1.0858
B( 29-C , 31-H ) :   1.0777 B( 29-C , 32-H ) :   1.0237 B( 33-N , 34-H ) :   1.0843
B( 35-C , 36-H ) :   1.0471 B( 35-C , 37-H ) :   1.0617 B( 35-C , 38-H ) :   1.0688
B( 40-C , 41-H ) :   1.0027 B( 40-C , 42-H ) :   1.1352 B( 40-C , 43-C ) :   0.9405
B( 43-C , 44-H ) :   0.8961 B( 43-C , 45-H ) :   1.1744

MP2 TOTAL ENERGY:    -1057.470278274 Eh
FINAL SINGLE POINT ENERGY     -1057.470278273530

DIPOLE MOMENT
-------------
                                X             Y             Z
Electronic contribution:     -1.64256     -12.36177      -0.10277
Nuclear contribution   :      2.07187      14.40139      -0.90304
                        -----------------------------------------
Total Dipole Moment    :      0.42930       2.03962      -1.00581
                        -----------------------------------------
Magnitude (a.u.)       :      2.31431
Magnitude (Debye)      :      5.88250

Rotational constants in cm-1:     0.015801     0.004569     0.004114
Rotational constants in MHz :   473.695167   136.989890   123.345704

                             ****ORCA TERMINATED NORMALLY****
TOTAL RUN TIME: 0 days 1 hours 49 minutes 47 seconds 510 msec
