                         Program Version 4.2.1 -  RELEASE  -
|  1> %pal
|  2>  nprocs 32
|  3> end
|  4> !RI-MP2 aug-cc-pVTZ aug-cc-pVTZ/C TightSCF
|  5> %maxcore 4500
|  6> *xyzfile 0 2  04_41P.xyz
|  7>
|  8>
|  9>                          ****END OF INPUT****

CARTESIAN COORDINATES (ANGSTROEM)
---------------------------------
  N     -0.932927   -0.200224    0.742575
  S     -0.000908   -1.272426   -0.096452
  O      1.334627   -0.430338   -0.379956
  C      2.149793   -0.049525    0.750258
  C      3.348162    0.696479    0.198080
  H      2.449275   -0.952539    1.283540
  H      1.550356    0.583354    1.408555
  C      2.996844    1.932106   -0.548259
  H      3.904786    0.003193   -0.450203
  H      4.013345    0.925706    1.036036
  H      3.685087    2.765460   -0.589162
  C     -1.847658    0.788089    0.109495
  C     -3.045091    0.097772   -0.547003
  C     -1.076440    1.626614   -0.906413
  C     -2.317818    1.674647    1.261468
  H     -2.846764    1.089029    2.018542
  H     -3.007296    2.433879    0.889057
  H     -1.472259    2.173585    1.737250
  H     -2.724355   -0.548043   -1.362900
  H     -3.736248    0.844955   -0.942891
  H     -3.586651   -0.509221    0.183049
  H     -0.718102    1.020116   -1.737957
  H     -0.223571    2.117409   -0.435374
  H     -1.737234    2.395812   -1.309527
  O     -0.518798   -1.542702   -1.411732
  O      0.300621   -2.332870    0.837923
  H      2.140100    1.938236   -1.208315
  H     -1.323813   -0.670359    1.549885

 Total Charge           Charge          ....    0
 Multiplicity           Mult            ....    2
 Number of Electrons    NEL             ....  105
 Basis Dimension        Dim             ....  924

ORBITAL ENERGIES
----------------
                 SPIN UP ORBITALS
  NO   OCC          E(Eh)            E(eV)
   0   1.0000     -92.234574     -2509.8304
   1   1.0000     -20.614219      -560.9414
   2   1.0000     -20.555161      -559.3344
   3   1.0000     -20.552786      -559.2697
   4   1.0000     -15.600515      -424.5116
   5   1.0000     -11.301656      -307.5337
   6   1.0000     -11.295045      -307.3538
   7   1.0000     -11.241788      -305.9046
   8   1.0000     -11.239075      -305.8308
   9   1.0000     -11.233202      -305.6710
  10   1.0000     -11.223454      -305.4057
  11   1.0000     -11.219194      -305.2898
  12   1.0000      -9.194310      -250.1899
  13   1.0000      -6.880142      -187.2182
  14   1.0000      -6.879563      -187.2024
  15   1.0000      -6.879052      -187.1885
  16   1.0000      -1.506925       -41.0055
  17   1.0000      -1.387115       -37.7453
  18   1.0000      -1.354404       -36.8552
  19   1.0000      -1.248092       -33.9623
  20   1.0000      -1.088732       -29.6259
  21   1.0000      -1.077648       -29.3243
  22   1.0000      -0.961512       -26.1641
  23   1.0000      -0.953727       -25.9522
  24   1.0000      -0.948600       -25.8127
  25   1.0000      -0.868070       -23.6214
  26   1.0000      -0.824835       -22.4449
  27   1.0000      -0.786375       -21.3983
  28   1.0000      -0.742183       -20.1958
  29   1.0000      -0.719349       -19.5745
  30   1.0000      -0.683554       -18.6005
  31   1.0000      -0.670218       -18.2376
  32   1.0000      -0.653809       -17.7910
  33   1.0000      -0.630819       -17.1655
  34   1.0000      -0.624122       -16.9832
  35   1.0000      -0.611431       -16.6379
  36   1.0000      -0.597945       -16.2709
  37   1.0000      -0.575761       -15.6672
  38   1.0000      -0.572076       -15.5670
  39   1.0000      -0.560707       -15.2576
  40   1.0000      -0.547300       -14.8928
  41   1.0000      -0.541470       -14.7341
  42   1.0000      -0.535480       -14.5712
  43   1.0000      -0.527162       -14.3448
  44   1.0000      -0.517402       -14.0792
  45   1.0000      -0.504512       -13.7285
  46   1.0000      -0.502945       -13.6858
  47   1.0000      -0.493468       -13.4279
  48   1.0000      -0.486629       -13.2419
  49   1.0000      -0.478194       -13.0123
  50   1.0000      -0.477175       -12.9846
  51   1.0000      -0.423914       -11.5353
  52   1.0000      -0.363846        -9.9008
  53   0.0000       0.022483         0.6118
  54   0.0000       0.029561         0.8044
  55   0.0000       0.032030         0.8716
  56   0.0000       0.038012         1.0344
  57   0.0000       0.042685         1.1615

                 SPIN DOWN ORBITALS
  NO   OCC          E(Eh)            E(eV)
   0   1.0000     -92.234568     -2509.8302
   1   1.0000     -20.614315      -560.9440
   2   1.0000     -20.555164      -559.3344
   3   1.0000     -20.552789      -559.2698
   4   1.0000     -15.600515      -424.5116
   5   1.0000     -11.300729      -307.5085
   6   1.0000     -11.295048      -307.3539
   7   1.0000     -11.244784      -305.9861
   8   1.0000     -11.233201      -305.6709
   9   1.0000     -11.223427      -305.4050
  10   1.0000     -11.219192      -305.2897
  11   1.0000     -11.215803      -305.1975
  12   1.0000      -9.194302      -250.1897
  13   1.0000      -6.880126      -187.2177
  14   1.0000      -6.879559      -187.2023
  15   1.0000      -6.879047      -187.1884
  16   1.0000      -1.506953       -41.0063
  17   1.0000      -1.387158       -37.7465
  18   1.0000      -1.354415       -36.8555
  19   1.0000      -1.248088       -33.9622
  20   1.0000      -1.084146       -29.5011
  21   1.0000      -1.065398       -28.9910
  22   1.0000      -0.956823       -26.0365
  23   1.0000      -0.949533       -25.8381
  24   1.0000      -0.924479       -25.1563
  25   1.0000      -0.859801       -23.3964
  26   1.0000      -0.801313       -21.8048
  27   1.0000      -0.778860       -21.1939
  28   1.0000      -0.741183       -20.1686
  29   1.0000      -0.718964       -19.5640
  30   1.0000      -0.680971       -18.5302
  31   1.0000      -0.668008       -18.1774
  32   1.0000      -0.653124       -17.7724
  33   1.0000      -0.627968       -17.0879
  34   1.0000      -0.618884       -16.8407
  35   1.0000      -0.608065       -16.5463
  36   1.0000      -0.595364       -16.2007
  37   1.0000      -0.572622       -15.5818
  38   1.0000      -0.566255       -15.4086
  39   1.0000      -0.554361       -15.0849
  40   1.0000      -0.546384       -14.8679
  41   1.0000      -0.536067       -14.5871
  42   1.0000      -0.528523       -14.3819
  43   1.0000      -0.525357       -14.2957
  44   1.0000      -0.516756       -14.0616
  45   1.0000      -0.503664       -13.7054
  46   1.0000      -0.501152       -13.6370
  47   1.0000      -0.492145       -13.3919
  48   1.0000      -0.483969       -13.1695
  49   1.0000      -0.477995       -13.0069
  50   1.0000      -0.477026       -12.9805
  51   1.0000      -0.423727       -11.5302
  52   0.0000       0.022411         0.6098
  53   0.0000       0.029719         0.8087
  54   0.0000       0.032146         0.8747
  55   0.0000       0.037858         1.0302
  56   0.0000       0.042596         1.1591

MULLIKEN ATOMIC CHARGES AND SPIN POPULATIONS
--------------------------------------------
   0 N :   -0.376228    0.001434
   1 S :    2.262387    0.000330
   2 O :   -0.654314   -0.006167
   3 C :   -0.348862    0.022648
   4 C :   -0.153152   -0.190189
   5 H :    0.393953    0.000990
   6 H :    0.342717   -0.002816
   7 C :   -1.228242    1.226169
   8 H :    0.203577    0.065915
   9 H :    0.245403    0.013536
  10 H :    0.319659   -0.099574
  11 C :    1.891537   -0.005852
  12 C :   -1.381050    0.000259
  13 C :   -1.077054    0.007743
  14 C :   -1.416627    0.001795
  15 H :    0.258529   -0.000007
  16 H :    0.255432    0.000071
  17 H :    0.286104    0.001039
  18 H :    0.346195   -0.000009
  19 H :    0.252838   -0.000067
  20 H :    0.243144    0.000012
  21 H :    0.347907    0.000940
  22 H :    0.334737   -0.009744
  23 H :    0.174300    0.000636
  24 O :   -1.018064   -0.000204
  25 O :   -1.037224    0.000049
  26 H :    0.560425   -0.028980
  27 H :   -0.028030    0.000041
Sum of atomic charges         :   -0.0000000

LOEWDIN ATOMIC CHARGES AND SPIN POPULATIONS
-------------------------------------------
   0 N :    0.428240    0.000171
   1 S :   -0.038762    0.000356
   2 O :    0.361483   -0.000251
   3 C :   -0.018402    0.014977
   4 C :    0.208687    0.129864
   5 H :   -0.169210    0.001564
   6 H :   -0.166586    0.004825
   7 C :    0.597906    0.564128
   8 H :   -0.151986    0.030889
   9 H :   -0.159655    0.006010
  10 H :   -0.223803    0.121924
  11 C :   -0.503882    0.000161
  12 C :    0.585995    0.000029
  13 C :    0.572340    0.000861
  14 C :    0.583277    0.000102
  15 H :   -0.155968    0.000007
  16 H :   -0.152961    0.000011
  17 H :   -0.154752    0.000076
  18 H :   -0.198630    0.000004
  19 H :   -0.156212    0.000004
  20 H :   -0.156613    0.000011
  21 H :   -0.180295   -0.000040
  22 H :   -0.171816    0.002369
  23 H :   -0.151011    0.000086
  24 O :    0.088516   -0.000048
  25 O :    0.073244    0.000039
  26 H :   -0.237056    0.121841
  27 H :   -0.352086    0.000029

  Mayer bond orders larger than 0.100000
B(  0-N ,  1-S ) :   1.0557 B(  0-N , 11-C ) :   0.4565 B(  0-N , 27-H ) :   1.0745
B(  1-S ,  2-O ) :   0.7923 B(  1-S , 24-O ) :   1.2078 B(  1-S , 25-O ) :   1.1050
B(  2-O ,  3-C ) :   0.8074 B(  3-C ,  4-C ) :   0.9265 B(  3-C ,  5-H ) :   0.8791
B(  3-C ,  6-H ) :   0.8643 B(  3-C ,  7-C ) :   0.1658 B(  4-C ,  7-C ) :   0.6158
B(  4-C ,  8-H ) :   0.9664 B(  4-C ,  9-H ) :   1.0053 B(  7-C , 10-H ) :   0.9641
B(  7-C , 26-H ) :   0.6357 B( 11-C , 12-C ) :   0.3743 B( 11-C , 13-C ) :   0.5655
B( 11-C , 15-H ) :  -0.1143 B( 11-C , 16-H ) :  -0.1113 B( 11-C , 17-H ) :  -0.1129
B( 11-C , 19-H ) :  -0.1022 B( 11-C , 20-H ) :  -0.1018 B( 11-C , 23-H ) :  -0.1005
B( 11-C , 24-O ) :   0.1028 B( 12-C , 13-C ) :   0.1148 B( 12-C , 14-C ) :   0.1223
B( 12-C , 18-H ) :   0.9601 B( 12-C , 19-H ) :   1.0477 B( 12-C , 20-H ) :   1.0860
B( 13-C , 21-H ) :   0.9247 B( 13-C , 22-H ) :   0.9874 B( 13-C , 23-H ) :   1.0841
B( 14-C , 15-H ) :   1.0552 B( 14-C , 16-H ) :   1.0878 B( 14-C , 17-H ) :   1.0290

MP2 TOTAL ENERGY:     -953.450138580 Eh
FINAL SINGLE POINT ENERGY      -953.450138579751

DIPOLE MOMENT
-------------
                                X             Y             Z
Electronic contribution:      3.56308     -14.13703      -1.15746
Nuclear contribution   :     -3.67578      15.81567       2.09297
                        -----------------------------------------
Total Dipole Moment    :     -0.11270       1.67864       0.93551
                        -----------------------------------------
Magnitude (a.u.)       :      1.92502
Magnitude (Debye)      :      4.89302

Rotational constants in cm-1:     0.036363     0.020688     0.016292
Rotational constants in MHz :  1090.121224   620.211326   488.428729

                             ****ORCA TERMINATED NORMALLY****
TOTAL RUN TIME: 0 days 0 hours 21 minutes 2 seconds 833 msec
