                         Program Version 4.2.1 -  RELEASE  -
|  1> %pal
|  2>  nprocs 32
|  3> end
|  4> !RI-MP2 aug-cc-pVTZ aug-cc-pVTZ/C TightSCF
|  5> %maxcore 4500
|  6> *xyzfile 1 1  05_39TS.xyz
|  7>
|  8>
|  9>                          ****END OF INPUT****

CARTESIAN COORDINATES (ANGSTROEM)
---------------------------------
  C     -1.160364    0.613105   -0.967050
  C     -1.385779   -0.695601    1.323210
  C     -2.905505   -0.616977    1.135290
  C     -3.376642    0.579042    0.312324
  C     -2.690882    0.557691   -1.051124
  H     -3.251262   -1.521604    0.634865
  H     -3.363425   -0.593579    2.126294
  H     -3.121790    1.505065    0.832774
  H     -2.995874   -0.349819   -1.572507
  H     -3.022072    1.408816   -1.649113
  N     -0.719525   -0.416108    0.018918
  O      0.404851   -0.970490   -0.175131
  C     -0.562760    0.257107   -2.325253
  H     -0.987800    0.926168   -3.073884
  H      0.519952    0.375483   -2.338602
  H     -0.806477   -0.768185   -2.604293
  C     -0.674305    2.009608   -0.547505
  H      0.406905    2.030692   -0.428459
  H     -0.938263    2.712312   -1.339084
  H     -1.131079    2.361800    0.374726
  C     -1.014697   -2.111883    1.758111
  H     -1.231479   -2.831885    0.968790
  H      0.036183   -2.196544    2.031042
  H     -1.614212   -2.371688    2.631019
  C     -0.879674    0.308652    2.370966
  H     -1.229892   -0.006933    3.354526
  H      0.211186    0.328464    2.399253
  H     -1.236084    1.321093    2.193921
  C      2.715500   -0.203016    0.409390
  H      2.802945   -0.597298    1.424296
  H      1.382666   -0.411008    0.261659
  C      2.797347    1.248743    0.267611
  C      2.538794    2.055177    1.380508
  C      3.105630    1.835888   -0.963345
  C      2.594326    3.433238    1.265127
  H      2.314894    1.600583    2.339022
  C      3.159722    3.213294   -1.070371
  H      3.314544    1.203506   -1.816093
  C      2.901953    4.012415    0.039935
  H      2.408870    4.057029    2.130151
  H      3.409496    3.670915   -2.019185
  O      3.232002   -0.933694   -0.564367
  C      3.715798   -2.313954   -0.312131
  H      2.949844    5.090554   -0.049433
  C      2.656787   -3.128841    0.412640
  H      1.715725   -3.123124   -0.136672
  H      3.003841   -4.159663    0.492138
  H      2.478844   -2.774028    1.429619
  C      5.003396   -2.198084    0.489280
  H      5.731538   -1.581542   -0.038556
  H      4.828232   -1.766405    1.477210
  H      5.433902   -3.189647    0.635320
  C      3.964757   -2.847103   -1.709409
  H      3.035425   -2.879805   -2.279151
  H      4.678579   -2.215241   -2.238635
  H      4.373010   -3.856876   -1.654104
  N     -4.828575    0.599136    0.185412
  C     -5.553508   -0.388112   -0.419601
  C     -7.046079   -0.182750   -0.454549
  H     -7.371904   -0.188475   -1.495028
  H     -7.523623   -1.028116    0.041425
  H     -7.373587    0.742916    0.018819
  O     -5.024289   -1.373303   -0.900652
  H     -5.324478    1.388947    0.562476

 Total Charge           Charge          ....    1
 Multiplicity           Mult            ....    1
 Number of Electrons    NEL             ....  206
 Basis Dimension        Dim             .... 2093

ORBITAL ENERGIES
----------------

  NO   OCC          E(Eh)            E(eV)
   0   2.0000     -20.804478      -566.1186
   1   2.0000     -20.720811      -563.8419
   2   2.0000     -20.598206      -560.5057
   3   2.0000     -15.799530      -429.9271
   4   2.0000     -15.675448      -426.5506
   5   2.0000     -11.478183      -312.3372
   6   2.0000     -11.433677      -311.1262
   7   2.0000     -11.416751      -310.6656
   8   2.0000     -11.403150      -310.2955
   9   2.0000     -11.399750      -310.2030
  10   2.0000     -11.377306      -309.5922
  11   2.0000     -11.373742      -309.4953
  12   2.0000     -11.368574      -309.3546
  13   2.0000     -11.361439      -309.1605
  14   2.0000     -11.359926      -309.1193
  15   2.0000     -11.353085      -308.9332
  16   2.0000     -11.351750      -308.8968
  17   2.0000     -11.338994      -308.5497
  18   2.0000     -11.329340      -308.2870
  19   2.0000     -11.329182      -308.2827
  20   2.0000     -11.328344      -308.2599
  21   2.0000     -11.327841      -308.2462
  22   2.0000     -11.326751      -308.2166
  23   2.0000     -11.325721      -308.1885
  24   2.0000     -11.323298      -308.1226
  25   2.0000     -11.317997      -307.9783
  26   2.0000     -11.310438      -307.7727
  27   2.0000      -1.639904       -44.6241
  28   2.0000      -1.553134       -42.2629
  29   2.0000      -1.468577       -39.9620
  30   2.0000      -1.331914       -36.2432
  31   2.0000      -1.298886       -35.3445
  32   2.0000      -1.289143       -35.0794
  33   2.0000      -1.223942       -33.3052
  34   2.0000      -1.217465       -33.1289
  35   2.0000      -1.168043       -31.7841
  36   2.0000      -1.156151       -31.4605
  37   2.0000      -1.143391       -31.1133
  38   2.0000      -1.113131       -30.2898
  39   2.0000      -1.073771       -29.2188
  40   2.0000      -1.066563       -29.0226
  41   2.0000      -1.063054       -28.9272
  42   2.0000      -1.056786       -28.7566
  43   2.0000      -1.051413       -28.6104
  44   2.0000      -1.042521       -28.3685
  45   2.0000      -1.038978       -28.2720
  46   2.0000      -0.960759       -26.1436
  47   2.0000      -0.959328       -26.1046
  48   2.0000      -0.942340       -25.6424
  49   2.0000      -0.935513       -25.4566
  50   2.0000      -0.910580       -24.7781
  51   2.0000      -0.890165       -24.2226
  52   2.0000      -0.865436       -23.5497
  53   2.0000      -0.839725       -22.8501
  54   2.0000      -0.813909       -22.1476
  55   2.0000      -0.808438       -21.9987
  56   2.0000      -0.803253       -21.8576
  57   2.0000      -0.797775       -21.7086
  58   2.0000      -0.788203       -21.4481
  59   2.0000      -0.782382       -21.2897
  60   2.0000      -0.760138       -20.6844
  61   2.0000      -0.745120       -20.2757
  62   2.0000      -0.741421       -20.1751
  63   2.0000      -0.735952       -20.0263
  64   2.0000      -0.727687       -19.8014
  65   2.0000      -0.725875       -19.7521
  66   2.0000      -0.713070       -19.4036
  67   2.0000      -0.706486       -19.2244
  68   2.0000      -0.705821       -19.2064
  69   2.0000      -0.703457       -19.1420
  70   2.0000      -0.697091       -18.9688
  71   2.0000      -0.691481       -18.8162
  72   2.0000      -0.685798       -18.6615
  73   2.0000      -0.684520       -18.6267
  74   2.0000      -0.682370       -18.5682
  75   2.0000      -0.674796       -18.3621
  76   2.0000      -0.668296       -18.1853
  77   2.0000      -0.653782       -17.7903
  78   2.0000      -0.648177       -17.6378
  79   2.0000      -0.645870       -17.5750
  80   2.0000      -0.643802       -17.5187
  81   2.0000      -0.638857       -17.3842
  82   2.0000      -0.636124       -17.3098
  83   2.0000      -0.633779       -17.2460
  84   2.0000      -0.629231       -17.1222
  85   2.0000      -0.627543       -17.0763
  86   2.0000      -0.625053       -17.0086
  87   2.0000      -0.622955       -16.9515
  88   2.0000      -0.617526       -16.8037
  89   2.0000      -0.615195       -16.7403
  90   2.0000      -0.605677       -16.4813
  91   2.0000      -0.595854       -16.2140
  92   2.0000      -0.594671       -16.1818
  93   2.0000      -0.584919       -15.9164
  94   2.0000      -0.583261       -15.8714
  95   2.0000      -0.582931       -15.8624
  96   2.0000      -0.571378       -15.5480
  97   2.0000      -0.565258       -15.3815
  98   2.0000      -0.503117       -13.6905
  99   2.0000      -0.493712       -13.4346
 100   2.0000      -0.482044       -13.1171
 101   2.0000      -0.462403       -12.5826
 102   2.0000      -0.426231       -11.5983
 103   0.0000      -0.137372        -3.7381
 104   0.0000      -0.056004        -1.5239
 105   0.0000      -0.048398        -1.3170
 106   0.0000      -0.044764        -1.2181
 107   0.0000      -0.041186        -1.1207

MULLIKEN ATOMIC CHARGES
-----------------------
   0 C :    1.904003
   1 C :    2.166345
   2 C :   -0.994283
   3 C :    0.772544
   4 C :   -1.050962
   5 H :    0.319220
   6 H :    0.358027
   7 H :    0.135679
   8 H :    0.275290
   9 H :    0.357376
  10 N :    1.081102
  11 O :   -1.155861
  12 C :   -2.051497
  13 H :   -0.022806
  14 H :    0.593138
  15 H :    0.169525
  16 C :   -1.840368
  17 H :    1.143961
  18 H :   -0.019789
  19 H :    0.338777
  20 C :   -1.952075
  21 H :    0.187365
  22 H :    0.504372
  23 H :   -0.018030
  24 C :   -1.596656
  25 H :   -0.006391
  26 H :    0.627975
  27 H :    0.323342
  28 C :    0.807814
  29 H :    0.517365
  30 H :    0.575630
  31 C :    0.823894
  32 C :   -0.384704
  33 C :   -0.304473
  34 C :   -0.796669
  35 H :    0.131108
  36 C :   -0.940881
  37 H :    0.382927
  38 C :   -0.220193
  39 H :    0.448738
  40 H :    0.499063
  41 O :   -0.687689
  42 C :    1.732467
  43 H :    0.596895
  44 C :   -1.261454
  45 H :    0.448139
  46 H :    0.227551
  47 H :    0.250067
  48 C :   -1.504835
  49 H :    0.263702
  50 H :    0.300559
  51 H :    0.207966
  52 C :   -1.527035
  53 H :    0.280455
  54 H :    0.215216
  55 H :    0.219187
  56 N :   -0.551819
  57 C :    0.826762
  58 C :   -0.945617
  59 H :    0.327813
  60 H :    0.326615
  61 H :    0.277826
  62 O :   -1.050816
  63 H :   -0.060901
Sum of atomic charges:    1.0000000

LOEWDIN ATOMIC CHARGES
----------------------
   0 C :   -0.360438
   1 C :   -0.365363
   2 C :    0.335000
   3 C :   -0.064529
   4 C :    0.333691
   5 H :   -0.169485
   6 H :   -0.113814
   7 H :   -0.136414
   8 H :   -0.163518
   9 H :   -0.114990
  10 N :    0.117705
  11 O :    0.747610
  12 C :    0.606786
  13 H :   -0.142373
  14 H :   -0.162566
  15 H :   -0.143988
  16 C :    0.634000
  17 H :   -0.205260
  18 H :   -0.132396
  19 H :   -0.177315
  20 C :    0.602886
  21 H :   -0.142382
  22 H :   -0.170463
  23 H :   -0.141440
  24 C :    0.627316
  25 H :   -0.138351
  26 H :   -0.168485
  27 H :   -0.175924
  28 C :   -0.042746
  29 H :   -0.131804
  30 H :   -0.516996
  31 C :   -0.110569
  32 C :    0.224502
  33 C :    0.235821
  34 C :    0.231796
  35 H :   -0.163762
  36 C :    0.234543
  37 H :   -0.164942
  38 C :    0.234933
  39 H :   -0.168138
  40 H :   -0.166904
  41 O :    0.681419
  42 C :   -0.522006
  43 H :   -0.162500
  44 C :    0.598460
  45 H :   -0.168643
  46 H :   -0.139739
  47 H :   -0.168105
  48 C :    0.609665
  49 H :   -0.147157
  50 H :   -0.159077
  51 H :   -0.144444
  52 C :    0.601244
  53 H :   -0.151657
  54 H :   -0.151858
  55 H :   -0.147387
  56 N :    0.600448
  57 C :   -0.653772
  58 C :    0.613320
  59 H :   -0.164532
  60 H :   -0.164684
  61 H :   -0.179007
  62 O :    0.486737
  63 H :   -0.277957

  Mayer bond orders larger than 0.100000
B(  0-C ,  1-C ) :  -0.1042 B(  0-C ,  8-H ) :  -0.1372 B(  0-C , 10-N ) :   0.6601
B(  0-C , 11-O ) :   0.3622 B(  0-C , 12-C ) :   0.1048 B(  0-C , 13-H ) :  -0.2966
B(  0-C , 15-H ) :  -0.1656 B(  0-C , 16-C ) :   0.2761 B(  0-C , 18-H ) :  -0.1313
B(  0-C , 62-O ) :  -0.1253 B(  1-C , 10-N ) :   0.7585 B(  1-C , 11-O ) :   0.1390
B(  1-C , 12-C ) :  -0.1012 B(  1-C , 21-H ) :  -0.1799 B(  1-C , 23-H ) :  -0.2839
B(  1-C , 25-H ) :  -0.2550 B(  1-C , 30-H ) :   0.1179 B(  2-C ,  3-C ) :   0.8185
B(  2-C ,  4-C ) :   0.1101 B(  2-C ,  5-H ) :   1.2126 B(  2-C ,  6-H ) :   0.8492
B(  2-C ,  7-H ) :   0.1460 B(  2-C , 56-N ) :   0.1188 B(  3-C ,  4-C ) :   0.8898
B(  3-C ,  7-H ) :   0.8154 B(  3-C , 10-N ) :  -0.1660 B(  3-C , 56-N ) :  -0.2378
B(  3-C , 57-C ) :  -0.4690 B(  3-C , 58-C ) :   0.1664 B(  3-C , 62-O ) :   0.1379
B(  4-C ,  7-H ) :   0.1528 B(  4-C ,  8-H ) :   1.2670 B(  4-C ,  9-H ) :   0.8163
B(  4-C , 10-N ) :  -0.1004 B(  4-C , 56-N ) :   0.1095 B(  5-H , 62-O ) :  -0.1263
B(  7-H , 56-N ) :  -0.1088 B(  7-H , 57-C ) :   0.1272 B( 10-N , 11-O ) :   0.5974
B( 10-N , 12-C ) :  -0.4792 B( 10-N , 13-H ) :  -0.1097 B( 10-N , 15-H ) :  -0.2393
B( 10-N , 16-C ) :   0.3793 B( 10-N , 17-H ) :  -0.1340 B( 10-N , 20-C ) :  -0.3228
B( 10-N , 21-H ) :  -0.2140 B( 10-N , 24-C ) :   0.3443 B( 10-N , 30-H ) :   0.1874
B( 10-N , 31-C ) :   0.3396 B( 10-N , 37-H ) :  -0.1484 B( 10-N , 41-O ) :   0.1621
B( 11-O , 12-C ) :   0.2574 B( 11-O , 21-H ) :   0.1142 B( 11-O , 30-H ) :  -0.2045
B( 11-O , 37-H ) :   0.1331 B( 11-O , 44-C ) :  -0.1263 B( 12-C , 13-H ) :   1.6456
B( 12-C , 14-H ) :   0.6101 B( 12-C , 15-H ) :   1.3964 B( 12-C , 16-C ) :   0.1308
B( 12-C , 17-H ) :  -0.1264 B( 16-C , 18-H ) :   1.4684 B( 16-C , 19-H ) :   1.0682
B( 17-H , 18-H ) :  -0.1125 B( 17-H , 33-C ) :   0.1235 B( 17-H , 36-C ) :  -0.1375
B( 17-H , 38-C ) :  -0.1142 B( 20-C , 21-H ) :   1.3521 B( 20-C , 22-H ) :   0.6490
B( 20-C , 23-H ) :   1.6263 B( 20-C , 24-C ) :   0.1521 B( 24-C , 25-H ) :   1.4836
B( 24-C , 26-H ) :   0.5771 B( 24-C , 27-H ) :   1.0719 B( 24-C , 30-H ) :  -0.1154
B( 28-C , 29-H ) :   0.9288 B( 28-C , 30-H ) :   0.4435 B( 28-C , 31-C ) :   0.1221
B( 28-C , 32-C ) :   0.2536 B( 28-C , 33-C ) :   0.1528 B( 28-C , 37-H ) :  -0.1528
B( 28-C , 41-O ) :   0.3916 B( 28-C , 44-C ) :  -0.1892 B( 28-C , 48-C ) :  -0.2711
B( 29-H , 30-H ) :  -0.1992 B( 29-H , 31-C ) :  -0.1500 B( 30-H , 31-C ) :   0.4260
B( 30-H , 41-O ) :  -0.1314 B( 31-C , 32-C ) :   0.5967 B( 31-C , 33-C ) :   0.7740
B( 31-C , 34-C ) :   0.1145 B( 31-C , 36-C ) :   0.1996 B( 31-C , 39-H ) :  -0.1768
B( 31-C , 40-H ) :  -0.1207 B( 31-C , 43-H ) :   0.1819 B( 31-C , 48-C ) :   0.1398
B( 32-C , 34-C ) :   1.2525 B( 32-C , 35-H ) :   1.2903 B( 32-C , 38-C ) :   0.1853
B( 33-C , 34-C ) :   0.1189 B( 33-C , 36-C ) :   1.3074 B( 33-C , 37-H ) :   0.9679
B( 33-C , 38-C ) :   0.1137 B( 34-C , 35-H ) :  -0.1598 B( 34-C , 38-C ) :   1.1764
B( 34-C , 39-H ) :   0.8342 B( 36-C , 37-H ) :  -0.1557 B( 36-C , 38-C ) :   1.1840
B( 36-C , 40-H ) :   0.7150 B( 38-C , 43-H ) :   0.5840 B( 41-O , 42-C ) :   0.5696
B( 41-O , 52-C ) :  -0.2534 B( 42-C , 44-C ) :   0.7028 B( 42-C , 48-C ) :   0.3155
B( 42-C , 51-H ) :  -0.1302 B( 42-C , 52-C ) :   0.1736 B( 42-C , 55-H ) :  -0.1323
B( 44-C , 45-H ) :   0.8392 B( 44-C , 46-H ) :   1.0751 B( 44-C , 47-H ) :   1.0686
B( 44-C , 48-C ) :   0.1100 B( 48-C , 49-H ) :   1.0741 B( 48-C , 50-H ) :   0.9964
B( 48-C , 51-H ) :   1.1572 B( 48-C , 52-C ) :   0.1426 B( 52-C , 53-H ) :   1.0872
B( 52-C , 54-H ) :   1.1591 B( 52-C , 55-H ) :   1.1735 B( 56-N , 57-C ) :   1.2769
B( 56-N , 58-C ) :   0.1038 B( 56-N , 63-H ) :   1.1818 B( 57-C , 58-C ) :   0.3490
B( 57-C , 62-O ) :   1.5134 B( 57-C , 63-H ) :  -0.1686 B( 58-C , 59-H ) :   0.9926
B( 58-C , 60-H ) :   0.9938 B( 58-C , 61-H ) :   0.9955 B( 58-C , 62-O ) :  -0.1208

MP2 TOTAL ENERGY:    -1193.178026319 Eh
FINAL SINGLE POINT ENERGY     -1193.178026319173

DIPOLE MOMENT
-------------
                                X             Y             Z
Electronic contribution:     -1.40343       9.24884      -2.47889
Nuclear contribution   :      2.53187      -7.96750       3.70886
                        -----------------------------------------
Total Dipole Moment    :      1.12844       1.28134       1.22997
                        -----------------------------------------
Magnitude (a.u.)       :      2.10429
Magnitude (Debye)      :      5.34868

Rotational constants in cm-1:     0.009522     0.003639     0.003096
Rotational constants in MHz :   285.476408   109.092703    92.823367

                             ****ORCA TERMINATED NORMALLY****
TOTAL RUN TIME: 0 days 4 hours 53 minutes 15 seconds 890 msec
