                         Program Version 4.2.1 -  RELEASE  -
|  1> %pal
|  2>  nprocs 32
|  3> end
|  4> !RI-MP2 aug-cc-pVTZ aug-cc-pVTZ/C TightSCF
|  5> %maxcore 4500
|  6> *xyzfile -1 1  08_4P.xyz
|  7>
|  8>
|  9>                          ****END OF INPUT****

CARTESIAN COORDINATES (ANGSTROEM)
---------------------------------
  C     -1.079662    1.410849   -0.676999
  S     -1.821360    1.202703    0.977643
  S     -1.929649   -1.902803   -1.163788
  C     -3.134912   -0.022225    0.616118
  C     -2.707857   -1.477757    0.439678
  H     -3.681156    0.319086   -0.265626
  H     -3.801638    0.076047    1.480111
  H     -3.614694   -2.082244    0.554186
  H     -2.052446   -1.749917    1.275123
  S      0.480943    2.318760   -0.663222
  C      1.619915    1.239585    0.257605
  C      1.697426   -0.224188   -0.174866
  H      1.391928    1.292038    1.324689
  H      2.591910    1.706463    0.098773
  C      3.122684   -0.755301    0.099026
  O      4.126986   -0.193750   -0.262145
  O      3.111223   -1.896629    0.764916
  H      2.122676   -2.036915    0.915545
  N      0.750043   -1.109336    0.494846
  H      1.563921   -0.286528   -1.259634
  H      0.224531   -0.611038    1.205368
  H      0.040141   -1.500482   -0.153737
  H     -1.740718    2.013158   -1.300962
  H     -0.984932    0.424372   -1.133414

 Total Charge           Charge          ....   -1
 Multiplicity           Mult            ....    1
 Number of Electrons    NEL             ....  120
 Basis Dimension        Dim             ....  840

ORBITAL ENERGIES
----------------

  NO   OCC          E(Eh)            E(eV)
   0   2.0000     -91.851975     -2499.4193
   1   2.0000     -91.837878     -2499.0357
   2   2.0000     -91.714451     -2495.6771
   3   2.0000     -20.481821      -557.3387
   4   2.0000     -20.427716      -555.8664
   5   2.0000     -15.436213      -420.0407
   6   2.0000     -11.262895      -306.4789
   7   2.0000     -11.175427      -304.0988
   8   2.0000     -11.165862      -303.8386
   9   2.0000     -11.162830      -303.7561
  10   2.0000     -11.140860      -303.1582
  11   2.0000     -11.110190      -302.3236
  12   2.0000      -8.852168      -240.8797
  13   2.0000      -8.838269      -240.5015
  14   2.0000      -8.715587      -237.1632
  15   2.0000      -6.533548      -177.7869
  16   2.0000      -6.532454      -177.7571
  17   2.0000      -6.531644      -177.7351
  18   2.0000      -6.519569      -177.4065
  19   2.0000      -6.518629      -177.3809
  20   2.0000      -6.517786      -177.3580
  21   2.0000      -6.397215      -174.0771
  22   2.0000      -6.395504      -174.0305
  23   2.0000      -6.395495      -174.0303
  24   2.0000      -1.344625       -36.5891
  25   2.0000      -1.246991       -33.9323
  26   2.0000      -1.092818       -29.7371
  27   2.0000      -0.983107       -26.7517
  28   2.0000      -0.947558       -25.7844
  29   2.0000      -0.894649       -24.3446
  30   2.0000      -0.832385       -22.6503
  31   2.0000      -0.785538       -21.3756
  32   2.0000      -0.725969       -19.7546
  33   2.0000      -0.688382       -18.7318
  34   2.0000      -0.665299       -18.1037
  35   2.0000      -0.629710       -17.1353
  36   2.0000      -0.619827       -16.8663
  37   2.0000      -0.572458       -15.5774
  38   2.0000      -0.554880       -15.0991
  39   2.0000      -0.517413       -14.0795
  40   2.0000      -0.511259       -13.9121
  41   2.0000      -0.504255       -13.7215
  42   2.0000      -0.490753       -13.3541
  43   2.0000      -0.473067       -12.8728
  44   2.0000      -0.461274       -12.5519
  45   2.0000      -0.452592       -12.3157
  46   2.0000      -0.422830       -11.5058
  47   2.0000      -0.412915       -11.2360
  48   2.0000      -0.395249       -10.7553
  49   2.0000      -0.383804       -10.4438
  50   2.0000      -0.359597        -9.7851
  51   2.0000      -0.351934        -9.5766
  52   2.0000      -0.340322        -9.2606
  53   2.0000      -0.318501        -8.6669
  54   2.0000      -0.292824        -7.9681
  55   2.0000      -0.281640        -7.6638
  56   2.0000      -0.240519        -6.5448
  57   2.0000      -0.233979        -6.3669
  58   2.0000      -0.147409        -4.0112
  59   2.0000      -0.143889        -3.9154
  60   0.0000       0.105006         2.8574
  61   0.0000       0.112801         3.0695
  62   0.0000       0.113283         3.0826
  63   0.0000       0.122600         3.3361
  64   0.0000       0.124727         3.3940

MULLIKEN ATOMIC CHARGES
-----------------------
   0 C :   -0.155734
   1 S :   -0.405967
   2 S :   -0.955171
   3 C :   -0.412941
   4 C :   -0.356257
   5 H :    0.247333
   6 H :    0.286876
   7 H :    0.302172
   8 H :    0.170064
   9 S :   -0.541880
  10 C :   -0.218565
  11 C :    0.403241
  12 H :    0.181548
  13 H :    0.294429
  14 C :    0.480286
  15 O :   -0.863703
  16 O :   -0.632131
  17 H :    0.304420
  18 N :   -0.458570
  19 H :    0.383836
  20 H :    0.097670
  21 H :    0.250826
  22 H :    0.393941
  23 H :    0.204276
Sum of atomic charges:   -1.0000000

LOEWDIN ATOMIC CHARGES
----------------------
   0 C :   -0.476383
   1 S :    1.132130
   2 S :    0.673182
   3 C :   -0.168581
   4 C :   -0.380506
   5 H :   -0.245611
   6 H :   -0.253169
   7 H :   -0.274580
   8 H :   -0.274649
   9 S :    1.152130
  10 C :   -0.076577
  11 C :   -0.169655
  12 H :   -0.222978
  13 H :   -0.260446
  14 C :   -0.808009
  15 O :    0.411212
  16 O :    0.820392
  17 H :   -0.627690
  18 N :    0.834761
  19 H :   -0.146101
  20 H :   -0.367267
  21 H :   -0.526769
  22 H :   -0.306571
  23 H :   -0.438267

  Mayer bond orders larger than 0.100000
B(  0-C ,  1-S ) :   0.9265 B(  0-C ,  9-S ) :   0.9123 B(  0-C , 22-H ) :   0.8235
B(  0-C , 23-H ) :   0.9962 B(  1-S ,  3-C ) :   0.8407 B(  1-S , 22-H ) :  -0.1068
B(  1-S , 23-H ) :   0.1915 B(  2-S ,  3-C ) :   0.1472 B(  2-S ,  4-C ) :   0.9253
B(  2-S , 21-H ) :   0.1567 B(  3-C ,  4-C ) :   0.9991 B(  3-C ,  5-H ) :   0.9550
B(  3-C ,  6-H ) :   0.9190 B(  4-C ,  7-H ) :   0.9183 B(  4-C ,  8-H ) :   0.9999
B(  9-S , 10-C ) :   0.8071 B(  9-S , 11-C ) :   0.1206 B( 10-C , 11-C ) :   0.9568
B( 10-C , 12-H ) :   1.0520 B( 10-C , 13-H ) :   0.9000 B( 11-C , 14-C ) :   0.5298
B( 11-C , 18-N ) :   0.6812 B( 11-C , 19-H ) :   0.9095 B( 14-C , 15-O ) :   1.2964
B( 14-C , 16-O ) :   0.8113 B( 14-C , 18-N ) :   0.1196 B( 14-C , 19-H ) :  -0.1153
B( 16-O , 17-H ) :   0.7008 B( 17-H , 18-N ) :   0.2645 B( 18-N , 20-H ) :   0.9908
B( 18-N , 21-H ) :   0.8000

MP2 TOTAL ENERGY:    -1633.520467533 Eh
FINAL SINGLE POINT ENERGY     -1633.520467533478

DIPOLE MOMENT
-------------
                                X             Y             Z
Electronic contribution:      7.41029       4.33381      -1.32861
Nuclear contribution   :     -7.62363      -2.49350       2.74241
                        -----------------------------------------
Total Dipole Moment    :     -0.21334       1.84030       1.41380
                        -----------------------------------------
Magnitude (a.u.)       :      2.33046
Magnitude (Debye)      :      5.92356

Rotational constants in cm-1:     0.026416     0.013321     0.010237
Rotational constants in MHz :   791.943778   399.340703   306.907815

                             ****ORCA TERMINATED NORMALLY****
TOTAL RUN TIME: 0 days 0 hours 11 minutes 51 seconds 694 msec
