                         Program Version 4.2.1 -  RELEASE  -
|  1> %pal
|  2>  nprocs 32
|  3> end
|  4> !RI-MP2 aug-cc-pVTZ aug-cc-pVTZ/C TightSCF
|  5> %maxcore 4500
|  6> *xyzfile 1 1  03_29P2.xyz
|  7>
|  8>
|  9>                          ****END OF INPUT****

CARTESIAN COORDINATES (ANGSTROEM)
---------------------------------
  C     -0.929434    0.282921   -0.000001
  C     -0.040676    1.379010   -0.000035
  C      1.302991    1.161922   -0.000038
  N      1.736506   -0.111756   -0.000007
  C      0.955057   -1.196085    0.000027
  C     -0.402758   -1.022902    0.000031
  F      3.070203   -0.309615   -0.000010
  O     -2.202490    0.573467   -0.000001
  H     -0.432456    2.386647   -0.000060
  H      2.064341    1.930138   -0.000063
  H      1.459434   -2.153228    0.000050
  H     -1.034200   -1.898260    0.000059
  C     -3.196646   -0.468406    0.000026
  H     -4.149955    0.049372    0.000009
  H     -3.102912   -1.076149    0.900638
  H     -3.102908   -1.076200   -0.900551

 Total Charge           Charge          ....    1
 Multiplicity           Mult            ....    1
 Number of Electrons    NEL             ....   66
 Basis Dimension        Dim             ....  575

ORBITAL ENERGIES
----------------

  NO   OCC          E(Eh)            E(eV)
   0   2.0000     -26.550660      -722.4802
   1   2.0000     -20.782058      -565.5086
   2   2.0000     -15.931811      -433.5266
   3   2.0000     -11.536361      -313.9203
   4   2.0000     -11.516762      -313.3870
   5   2.0000     -11.509314      -313.1844
   6   2.0000     -11.442330      -311.3616
   7   2.0000     -11.441571      -311.3410
   8   2.0000     -11.436885      -311.2134
   9   2.0000      -1.871983       -50.9392
  10   2.0000      -1.620774       -44.1035
  11   2.0000      -1.504365       -40.9359
  12   2.0000      -1.287936       -35.0465
  13   2.0000      -1.282786       -34.9064
  14   2.0000      -1.150900       -31.3176
  15   2.0000      -1.111145       -30.2358
  16   2.0000      -1.047477       -28.5033
  17   2.0000      -0.985329       -26.8122
  18   2.0000      -0.944915       -25.7124
  19   2.0000      -0.942674       -25.6515
  20   2.0000      -0.911292       -24.7975
  21   2.0000      -0.858502       -23.3610
  22   2.0000      -0.852091       -23.1866
  23   2.0000      -0.836613       -22.7654
  24   2.0000      -0.835572       -22.7371
  25   2.0000      -0.795606       -21.6495
  26   2.0000      -0.776029       -21.1168
  27   2.0000      -0.769299       -20.9337
  28   2.0000      -0.731023       -19.8922
  29   2.0000      -0.689468       -18.7614
  30   2.0000      -0.677083       -18.4244
  31   2.0000      -0.575124       -15.6499
  32   2.0000      -0.556835       -15.1523
  33   0.0000      -0.105674        -2.8755
  34   0.0000      -0.081080        -2.2063
  35   0.0000      -0.080970        -2.2033
  36   0.0000      -0.067156        -1.8274
  37   0.0000      -0.060260        -1.6398

MULLIKEN ATOMIC CHARGES
-----------------------
   0 C :    0.986829
   1 C :   -0.430474
   2 C :   -0.454762
   3 N :    0.219394
   4 C :   -0.320926
   5 C :   -0.327807
   6 F :   -0.371686
   7 O :   -0.623341
   8 H :    0.328317
   9 H :    0.773221
  10 H :    0.790398
  11 H :    0.063278
  12 C :   -0.798419
  13 H :    0.397279
  14 H :    0.384350
  15 H :    0.384350
Sum of atomic charges:    1.0000000

LOEWDIN ATOMIC CHARGES
----------------------
   0 C :   -0.351812
   1 C :    0.285467
   2 C :    0.188851
   3 N :   -0.129963
   4 C :    0.190456
   5 C :    0.280883
   6 F :    0.529907
   7 O :    0.623135
   8 H :   -0.152164
   9 H :   -0.124185
  10 H :   -0.121020
  11 H :   -0.177293
  12 C :    0.434113
  13 H :   -0.158663
  14 H :   -0.158856
  15 H :   -0.158856

  Mayer bond orders larger than 0.100000
B(  0-C ,  1-C ) :   1.0706 B(  0-C ,  4-C ) :   0.1212 B(  0-C ,  5-C ) :   1.0295
B(  0-C ,  7-O ) :   0.7631 B(  1-C ,  2-C ) :   1.0971 B(  1-C ,  3-N ) :  -0.2242
B(  1-C ,  4-C ) :  -0.1036 B(  1-C ,  7-O ) :   0.1317 B(  1-C ,  8-H ) :   1.0281
B(  2-C ,  3-N ) :   1.4162 B(  2-C ,  9-H ) :   0.2874 B(  3-N ,  4-C ) :   1.4421
B(  3-N ,  5-C ) :  -0.1864 B(  3-N ,  6-F ) :   0.5210 B(  3-N ,  9-H ) :  -0.1233
B(  3-N , 10-H ) :  -0.1224 B(  4-C ,  5-C ) :   0.9583 B(  4-C , 10-H ) :   0.2898
B(  4-C , 11-H ) :  -0.1286 B(  5-C ,  7-O ) :  -0.1888 B(  5-C , 11-H ) :   1.5317
B(  7-O , 12-C ) :   0.8502 B( 12-C , 13-H ) :   0.8993 B( 12-C , 14-H ) :   0.8593
B( 12-C , 15-H ) :   0.8593

MP2 TOTAL ENERGY:     -461.532288158 Eh
FINAL SINGLE POINT ENERGY      -461.532288157798

DIPOLE MOMENT
-------------
                                X             Y             Z
Electronic contribution:     10.81840       1.04310      -0.00008
Nuclear contribution   :    -11.15188      -1.49623       0.00009
                        -----------------------------------------
Total Dipole Moment    :     -0.33348      -0.45313       0.00001
                        -----------------------------------------
Magnitude (a.u.)       :      0.56262
Magnitude (Debye)      :      1.43006

Rotational constants in cm-1:     0.166561     0.033010     0.027698
Rotational constants in MHz :  4993.380329   989.617589   830.367798

                             ****ORCA TERMINATED NORMALLY****
TOTAL RUN TIME: 0 days 0 hours 3 minutes 9 seconds 426 msec
