                         Program Version 4.2.1 -  RELEASE  -
|  1> %pal
|  2>  nprocs 32
|  3> end
|  4> !RI-MP2 aug-cc-pVTZ aug-cc-pVTZ/C TightSCF
|  5> %maxcore 4500
|  6> *xyzfile 0 2  03_43P1.xyz
|  7>
|  8>
|  9>                          ****END OF INPUT****

CARTESIAN COORDINATES (ANGSTROEM)
---------------------------------
  C      3.406649   -0.905323   -0.335455
  C      2.934094    0.315842    0.368355
  C      1.443832    0.293385    0.706555
  C      0.576951    0.300937   -0.546240
  N     -0.854054    0.245391   -0.225380
  C     -1.531765    1.436166   -0.053266
  O     -1.017948    2.520413   -0.157957
  C     -1.440812   -1.011424   -0.038838
  O     -0.771156   -2.010220   -0.147379
  C     -2.911638   -1.079133    0.295332
  H      3.167767    1.208423   -0.224966
  H      3.498460    0.445009    1.305026
  H      1.190156    1.162227    1.318915
  H      1.216707   -0.602409    1.291570
  H      0.802744   -0.556760   -1.175604
  H      0.739397    1.215249   -1.115015
  H     -2.594786    1.316818    0.187789
  H     -3.524477   -0.612605   -0.477336
  H     -3.129086   -0.590269    1.246460
  H     -3.172447   -2.131432    0.370684
  H      4.344070   -0.907388   -0.876092
  H      2.888831   -1.848842   -0.209735

 Total Charge           Charge          ....    0
 Multiplicity           Mult            ....    2
 Number of Electrons    NEL             ....   77
 Basis Dimension        Dim             ....  736

ORBITAL ENERGIES
----------------
                 SPIN UP ORBITALS
  NO   OCC          E(Eh)            E(eV)
   0   1.0000     -20.554914      -559.3277
   1   1.0000     -20.551808      -559.2431
   2   1.0000     -15.621831      -425.0916
   3   1.0000     -11.379717      -309.6579
   4   1.0000     -11.372383      -309.4583
   5   1.0000     -11.263185      -306.4868
   6   1.0000     -11.258842      -306.3687
   7   1.0000     -11.226884      -305.4991
   8   1.0000     -11.225322      -305.4565
   9   1.0000     -11.223861      -305.4168
  10   1.0000      -1.427217       -38.8366
  11   1.0000      -1.408094       -38.3162
  12   1.0000      -1.267303       -34.4851
  13   1.0000      -1.088531       -29.6204
  14   1.0000      -1.038689       -28.2642
  15   1.0000      -0.984604       -26.7924
  16   1.0000      -0.903111       -24.5749
  17   1.0000      -0.879939       -23.9444
  18   1.0000      -0.801906       -21.8210
  19   1.0000      -0.771053       -20.9814
  20   1.0000      -0.722223       -19.6527
  21   1.0000      -0.683426       -18.5970
  22   1.0000      -0.658872       -17.9288
  23   1.0000      -0.640846       -17.4383
  24   1.0000      -0.632970       -17.2240
  25   1.0000      -0.621012       -16.8986
  26   1.0000      -0.604770       -16.4566
  27   1.0000      -0.589553       -16.0425
  28   1.0000      -0.579538       -15.7700
  29   1.0000      -0.568895       -15.4804
  30   1.0000      -0.544106       -14.8059
  31   1.0000      -0.532814       -14.4986
  32   1.0000      -0.510012       -13.8781
  33   1.0000      -0.492413       -13.3992
  34   1.0000      -0.481382       -13.0991
  35   1.0000      -0.459978       -12.5166
  36   1.0000      -0.446390       -12.1469
  37   1.0000      -0.411230       -11.1901
  38   1.0000      -0.347374        -9.4525
  39   0.0000       0.022879         0.6226
  40   0.0000       0.033294         0.9060
  41   0.0000       0.034569         0.9407
  42   0.0000       0.039139         1.0650
  43   0.0000       0.046160         1.2561

                 SPIN DOWN ORBITALS
  NO   OCC          E(Eh)            E(eV)
   0   1.0000     -20.554906      -559.3274
   1   1.0000     -20.551811      -559.2432
   2   1.0000     -15.621849      -425.0921
   3   1.0000     -11.379713      -309.6577
   4   1.0000     -11.372378      -309.4581
   5   1.0000     -11.263099      -306.4845
   6   1.0000     -11.258842      -306.3687
   7   1.0000     -11.228503      -305.5431
   8   1.0000     -11.223397      -305.4042
   9   1.0000     -11.203392      -304.8598
  10   1.0000      -1.427205       -38.8362
  11   1.0000      -1.408084       -38.3159
  12   1.0000      -1.267253       -34.4837
  13   1.0000      -1.080058       -29.3899
  14   1.0000      -1.033887       -28.1335
  15   1.0000      -0.966004       -26.2863
  16   1.0000      -0.892310       -24.2810
  17   1.0000      -0.861011       -23.4293
  18   1.0000      -0.781325       -21.2609
  19   1.0000      -0.763066       -20.7641
  20   1.0000      -0.721925       -19.6446
  21   1.0000      -0.682739       -18.5783
  22   1.0000      -0.657986       -17.9047
  23   1.0000      -0.638598       -17.3771
  24   1.0000      -0.629860       -17.1394
  25   1.0000      -0.618950       -16.8425
  26   1.0000      -0.600372       -16.3369
  27   1.0000      -0.585742       -15.9389
  28   1.0000      -0.572391       -15.5755
  29   1.0000      -0.560279       -15.2460
  30   1.0000      -0.539155       -14.6711
  31   1.0000      -0.528197       -14.3730
  32   1.0000      -0.501374       -13.6431
  33   1.0000      -0.486912       -13.2495
  34   1.0000      -0.477639       -12.9972
  35   1.0000      -0.459582       -12.5059
  36   1.0000      -0.446376       -12.1465
  37   1.0000      -0.408804       -11.1241
  38   0.0000       0.022883         0.6227
  39   0.0000       0.033683         0.9166
  40   0.0000       0.034601         0.9415
  41   0.0000       0.039150         1.0653
  42   0.0000       0.046324         1.2605

MULLIKEN ATOMIC CHARGES AND SPIN POPULATIONS
--------------------------------------------
   0 C :   -1.165116    1.230400
   1 C :   -0.249624   -0.211294
   2 C :   -0.307150    0.040243
   3 C :   -0.372704    0.008283
   4 N :    0.377931   -0.002310
   5 C :   -0.223984   -0.000873
   6 O :   -0.839015    0.000144
   7 C :    0.209970    0.001254
   8 O :   -0.884524    0.000137
   9 C :   -0.612100    0.000004
  10 H :    0.196838    0.021499
  11 H :    0.238592    0.082620
  12 H :    0.279829   -0.006401
  13 H :    0.248118   -0.003401
  14 H :    0.386170   -0.020525
  15 H :    0.346500    0.004858
  16 H :    0.677937   -0.000052
  17 H :    0.276122    0.000031
  18 H :    0.269561   -0.000012
  19 H :    0.357936   -0.000024
  20 H :    0.377796   -0.087794
  21 H :    0.410919   -0.056787
Sum of atomic charges         :    0.0000000

LOEWDIN ATOMIC CHARGES AND SPIN POPULATIONS
-------------------------------------------
   0 C :    0.595554    0.562808
   1 C :    0.217131    0.128325
   2 C :    0.274007    0.007663
   3 C :    0.171105    0.008553
   4 N :    0.246824    0.000643
   5 C :   -0.333920    0.000134
   6 O :    0.463596    0.000153
   7 C :   -0.637461    0.000124
   8 O :    0.497777   -0.000045
   9 C :    0.589319    0.000017
  10 H :   -0.155146    0.010806
  11 H :   -0.151905    0.032138
  12 H :   -0.141356    0.000165
  13 H :   -0.147089   -0.000396
  14 H :   -0.170747    0.008212
  15 H :   -0.159933    0.000215
  16 H :   -0.203512    0.000023
  17 H :   -0.168689    0.000004
  18 H :   -0.168019    0.000006
  19 H :   -0.177213   -0.000000
  20 H :   -0.223619    0.120172
  21 H :   -0.216703    0.120280

  Mayer bond orders larger than 0.100000
B(  0-C ,  1-C ) :   0.7000 B(  0-C , 20-H ) :   0.8620 B(  0-C , 21-H ) :   0.8452
B(  1-C ,  2-C ) :   0.8931 B(  1-C , 10-H ) :   1.0171 B(  1-C , 11-H ) :   0.9841
B(  2-C ,  3-C ) :   0.8885 B(  2-C , 12-H ) :   0.9460 B(  2-C , 13-H ) :   0.9647
B(  3-C ,  4-N ) :   0.9021 B(  3-C , 14-H ) :   0.9137 B(  3-C , 15-H ) :   0.9009
B(  4-N ,  5-C ) :   1.1771 B(  4-N ,  7-C ) :   0.9014 B(  4-N ,  8-O ) :  -0.1378
B(  5-C ,  6-O ) :   1.7273 B(  5-C ,  7-C ) :  -0.1111 B(  5-C , 16-H ) :   0.4738
B(  6-O , 16-H ) :  -0.1459 B(  7-C ,  8-O ) :   1.4943 B(  7-C ,  9-C ) :   0.6280
B(  9-C , 17-H ) :   0.9634 B(  9-C , 18-H ) :   0.9671 B(  9-C , 19-H ) :   0.9290

MP2 TOTAL ENERGY:     -478.237069195 Eh
FINAL SINGLE POINT ENERGY      -478.237069195047

DIPOLE MOMENT
-------------
                                X             Y             Z
Electronic contribution:     -6.31794       1.71821      -1.40242
Nuclear contribution   :      5.48645      -1.92489       1.66355
                        -----------------------------------------
Total Dipole Moment    :     -0.83149      -0.20668       0.26114
                        -----------------------------------------
Magnitude (a.u.)       :      0.89570
Magnitude (Debye)      :      2.27670

Rotational constants in cm-1:     0.061636     0.028965     0.020965
Rotational constants in MHz :  1847.792069   868.339486   628.525053

                             ****ORCA TERMINATED NORMALLY****
TOTAL RUN TIME: 0 days 0 hours 8 minutes 58 seconds 490 msec
