                         Program Version 4.2.1 -  RELEASE  -
|  1> %pal
|  2>  nprocs 32
|  3> end
|  4> !RI-MP2 aug-cc-pVTZ aug-cc-pVTZ/C TightSCF
|  5> %maxcore 4500
|  6> *xyzfile 0 1  10_41R.xyz
|  7>
|  8>
|  9>                          ****END OF INPUT****

CARTESIAN COORDINATES (ANGSTROEM)
---------------------------------
  C      0.477891    2.108012    0.321320
  H      0.154522    2.801560    1.116717
  C      1.507726    1.154611    0.885937
  C      0.063758   -0.813583    0.367812
  H     -0.160562   -1.299802   -0.583182
  H     -0.003290   -1.577500    1.148649
  C     -1.011524    0.258647    0.598133
  H     -0.994471    0.563735    1.660740
  N     -0.653249    1.393012   -0.247111
  C      2.529696   -0.887206   -0.131288
  C      2.331703    1.532106    1.859216
  C      3.844702   -0.252434   -0.264274
  C      4.981451   -0.871431   -0.584802
  C      1.459249   -0.219353    0.341077
  C      6.297282   -0.179091   -0.749282
  H      7.044124   -0.578872   -0.056443
  H      6.696113   -0.322336   -1.758284
  H      6.207521    0.893865   -0.569957
  C     -1.749435    2.279818   -0.574163
  H     -2.211437    2.708650    0.334330
  H     -1.348911    3.113822   -1.155585
  C     -2.393592   -0.288162    0.311811
  C     -3.232276    0.290565   -0.639177
  C     -2.789944    1.524757   -1.378682
  H     -2.355743    1.247539   -2.344127
  H     -3.652188    2.165261   -1.580163
  H      0.934832    2.709031   -0.472098
  C     -4.487666   -0.268570   -0.872350
  H     -5.137652    0.189712   -1.610316
  C     -2.841643   -1.399307    1.026138
  H     -2.203692   -1.838184    1.784937
  C     -4.917041   -1.383611   -0.174518
  H     -5.896618   -1.803527   -0.368645
  C     -4.088895   -1.949130    0.787509
  H     -4.417507   -2.812726    1.352992
  C      2.426829   -2.317104   -0.588806
  H      2.752974   -2.417499   -1.627318
  H      1.417761   -2.712392   -0.508849
  H      3.077665   -2.957290    0.013937
  H      3.063254    0.851203    2.274337
  H      2.291776    2.534490    2.272021
  H      3.876872    0.819582   -0.104647
  H      4.987778   -1.946619   -0.738928

 Total Charge           Charge          ....    0
 Multiplicity           Mult            ....    1
 Number of Electrons    NEL             ....  144
 Basis Dimension        Dim             .... 1449

ORBITAL ENERGIES
----------------

  NO   OCC          E(Eh)            E(eV)
   0   2.0000     -15.546618      -423.0450
   1   2.0000     -11.260579      -306.4159
   2   2.0000     -11.253605      -306.2262
   3   2.0000     -11.249861      -306.1243
   4   2.0000     -11.238104      -305.8043
   5   2.0000     -11.235351      -305.7294
   6   2.0000     -11.234125      -305.6961
   7   2.0000     -11.230797      -305.6055
   8   2.0000     -11.229413      -305.5679
   9   2.0000     -11.229186      -305.5617
  10   2.0000     -11.228686      -305.5481
  11   2.0000     -11.227726      -305.5219
  12   2.0000     -11.226957      -305.5010
  13   2.0000     -11.224473      -305.4334
  14   2.0000     -11.222765      -305.3870
  15   2.0000     -11.221521      -305.3531
  16   2.0000     -11.216394      -305.2136
  17   2.0000     -11.215582      -305.1915
  18   2.0000     -11.215132      -305.1793
  19   2.0000     -11.212884      -305.1181
  20   2.0000      -1.254193       -34.1283
  21   2.0000      -1.157151       -31.4877
  22   2.0000      -1.129056       -30.7232
  23   2.0000      -1.079562       -29.3764
  24   2.0000      -1.062136       -28.9022
  25   2.0000      -1.052551       -28.6414
  26   2.0000      -1.025875       -27.9155
  27   2.0000      -0.999597       -27.2004
  28   2.0000      -0.971831       -26.4449
  29   2.0000      -0.929942       -25.3050
  30   2.0000      -0.923739       -25.1362
  31   2.0000      -0.894872       -24.3507
  32   2.0000      -0.857446       -23.3323
  33   2.0000      -0.833657       -22.6850
  34   2.0000      -0.810951       -22.0671
  35   2.0000      -0.791570       -21.5397
  36   2.0000      -0.753836       -20.5129
  37   2.0000      -0.736359       -20.0373
  38   2.0000      -0.693264       -18.8647
  39   2.0000      -0.684772       -18.6336
  40   2.0000      -0.668952       -18.2031
  41   2.0000      -0.657106       -17.8808
  42   2.0000      -0.645415       -17.5626
  43   2.0000      -0.628858       -17.1121
  44   2.0000      -0.619018       -16.8443
  45   2.0000      -0.606578       -16.5058
  46   2.0000      -0.595978       -16.2174
  47   2.0000      -0.592051       -16.1105
  48   2.0000      -0.581488       -15.8231
  49   2.0000      -0.570749       -15.5309
  50   2.0000      -0.564866       -15.3708
  51   2.0000      -0.558888       -15.2081
  52   2.0000      -0.553062       -15.0496
  53   2.0000      -0.551093       -14.9960
  54   2.0000      -0.547604       -14.9011
  55   2.0000      -0.533142       -14.5075
  56   2.0000      -0.524144       -14.2627
  57   2.0000      -0.522483       -14.2175
  58   2.0000      -0.517161       -14.0727
  59   2.0000      -0.514765       -14.0075
  60   2.0000      -0.498772       -13.5723
  61   2.0000      -0.487966       -13.2782
  62   2.0000      -0.476977       -12.9792
  63   2.0000      -0.463447       -12.6110
  64   2.0000      -0.456239       -12.4149
  65   2.0000      -0.446532       -12.1508
  66   2.0000      -0.402826       -10.9615
  67   2.0000      -0.370861       -10.0917
  68   2.0000      -0.355226        -9.6662
  69   2.0000      -0.328084        -8.9276
  70   2.0000      -0.320364        -8.7176
  71   2.0000      -0.285874        -7.7790
  72   0.0000       0.025415         0.6916
  73   0.0000       0.028215         0.7678
  74   0.0000       0.029301         0.7973
  75   0.0000       0.032322         0.8795
  76   0.0000       0.036851         1.0028

MULLIKEN ATOMIC CHARGES
-----------------------
   0 C :   -0.743055
   1 H :    0.197122
   2 C :    0.893531
   3 C :   -0.982180
   4 H :    0.173312
   5 H :    0.127877
   6 C :    0.118258
   7 H :    0.277833
   8 N :   -0.426054
   9 C :    1.339969
  10 C :   -2.049942
  11 C :   -0.129741
  12 C :   -0.630104
  13 C :    0.784869
  14 C :   -0.894327
  15 H :    0.249252
  16 H :    0.257786
  17 H :    0.321769
  18 C :   -0.672980
  19 H :    0.267234
  20 H :    0.327683
  21 C :    1.301528
  22 C :    1.012977
  23 C :   -0.521590
  24 H :    0.231886
  25 H :    0.222892
  26 H :    0.402825
  27 C :   -1.037799
  28 H :   -0.021675
  29 C :   -1.178111
  30 H :   -0.003328
  31 C :   -0.275445
  32 H :    0.670306
  33 C :   -0.511989
  34 H :    0.454681
  35 C :   -1.168969
  36 H :    0.212736
  37 H :    0.306434
  38 H :    0.202179
  39 H :    0.382001
  40 H :    0.194141
  41 H :    0.091171
  42 H :    0.225034
Sum of atomic charges:    0.0000000

LOEWDIN ATOMIC CHARGES
----------------------
   0 C :    0.164945
   1 H :   -0.132019
   2 C :   -0.119332
   3 C :    0.303540
   4 H :   -0.144350
   5 H :   -0.136050
   6 C :   -0.112147
   7 H :   -0.107685
   8 N :    0.311529
   9 C :   -0.076550
  10 C :    0.559737
  11 C :    0.204464
  12 C :    0.216826
  13 C :   -0.037773
  14 C :    0.555521
  15 H :   -0.176586
  16 H :   -0.176132
  17 H :   -0.182041
  18 C :    0.165979
  19 H :   -0.115220
  20 H :   -0.134313
  21 C :   -0.047440
  22 C :   -0.067750
  23 C :    0.301256
  24 H :   -0.131023
  25 H :   -0.143542
  26 H :   -0.128253
  27 C :    0.223044
  28 H :   -0.173209
  29 C :    0.226340
  30 H :   -0.174135
  31 C :    0.198846
  32 H :   -0.183271
  33 C :    0.203454
  34 H :   -0.182949
  35 C :    0.572541
  36 H :   -0.156006
  37 H :   -0.194857
  38 H :   -0.161736
  39 H :   -0.202724
  40 H :   -0.200957
  41 H :   -0.213480
  42 H :   -0.196495

  Mayer bond orders larger than 0.100000
B(  0-C ,  1-H ) :   1.1641 B(  0-C ,  2-C ) :   0.8383 B(  0-C ,  3-C ) :   0.1036
B(  0-C ,  6-C ) :   0.1088 B(  0-C ,  8-N ) :   0.7739 B(  0-C , 26-H ) :   0.8970
B(  2-C ,  3-C ) :   0.2193 B(  2-C ,  4-H ) :   0.1278 B(  2-C ,  8-N ) :   0.1453
B(  2-C ,  9-C ) :   0.1736 B(  2-C , 10-C ) :   0.4839 B(  2-C , 13-C ) :   0.7844
B(  2-C , 39-H ) :  -0.1499 B(  2-C , 41-H ) :  -0.1232 B(  3-C ,  4-H ) :   1.0944
B(  3-C ,  5-H ) :   1.0531 B(  3-C ,  6-C ) :   0.6560 B(  3-C ,  8-N ) :   0.4553
B(  3-C ,  9-C ) :   0.1068 B(  3-C , 10-C ) :   0.1349 B(  3-C , 13-C ) :   0.7819
B(  3-C , 21-C ) :   0.3158 B(  3-C , 22-C ) :  -0.1305 B(  3-C , 30-H ) :  -0.1213
B(  6-C ,  7-H ) :   0.9843 B(  6-C ,  8-N ) :   0.4183 B(  6-C ,  9-C ) :  -0.1445
B(  6-C , 13-C ) :   0.2042 B(  6-C , 21-C ) :   0.7891 B(  6-C , 22-C ) :   0.3463
B(  6-C , 23-C ) :  -0.1215 B(  6-C , 29-C ) :   0.7014 B(  7-H , 13-C ) :   0.1009
B(  8-N , 13-C ) :  -0.2263 B(  8-N , 18-C ) :   0.8796 B(  8-N , 21-C ) :  -0.1364
B(  9-C , 10-C ) :   0.5824 B(  9-C , 11-C ) :  -0.4936 B(  9-C , 12-C ) :   0.4380
B(  9-C , 13-C ) :   1.5601 B(  9-C , 21-C ) :   0.1161 B(  9-C , 35-C ) :   0.2673
B(  9-C , 36-H ) :  -0.1220 B(  9-C , 38-H ) :  -0.1145 B(  9-C , 39-H ) :   0.1199
B(  9-C , 41-H ) :  -0.1210 B(  9-C , 42-H ) :  -0.1586 B( 10-C , 13-C ) :  -0.9656
B( 10-C , 39-H ) :   1.0282 B( 10-C , 40-H ) :   1.2115 B( 10-C , 41-H ) :  -0.1409
B( 11-C , 12-C ) :   0.4512 B( 11-C , 13-C ) :   0.8665 B( 11-C , 41-H ) :   1.3581
B( 11-C , 42-H ) :  -0.2220 B( 12-C , 14-C ) :   0.5579 B( 12-C , 42-H ) :   1.2726
B( 13-C , 21-C ) :  -0.2288 B( 13-C , 37-H ) :   0.1116 B( 13-C , 40-H ) :  -0.1528
B( 13-C , 42-H ) :   0.2018 B( 14-C , 15-H ) :   1.0554 B( 14-C , 16-H ) :   1.0131
B( 14-C , 17-H ) :   0.9183 B( 18-C , 19-H ) :   1.0084 B( 18-C , 20-H ) :   0.9206
B( 18-C , 22-C ) :   0.1075 B( 18-C , 23-C ) :   1.0809 B( 21-C , 22-C ) :   0.7193
B( 21-C , 23-C ) :   0.2134 B( 21-C , 27-C ) :   0.4024 B( 21-C , 29-C ) :  -0.1363
B( 21-C , 31-C ) :  -0.1681 B( 21-C , 34-H ) :  -0.1078 B( 22-C , 23-C ) :   0.1158
B( 22-C , 24-H ) :  -0.1350 B( 22-C , 27-C ) :   0.4958 B( 22-C , 29-C ) :  -0.2889
B( 22-C , 31-C ) :   0.3193 B( 22-C , 32-H ) :  -0.1097 B( 22-C , 34-H ) :   0.1275
B( 23-C , 24-H ) :   1.0881 B( 23-C , 25-H ) :   1.0653 B( 23-C , 27-C ) :   0.2005
B( 27-C , 28-H ) :   1.6855 B( 27-C , 29-C ) :   0.1135 B( 27-C , 31-C ) :   0.9339
B( 27-C , 33-C ) :  -0.1500 B( 28-H , 31-C ) :  -0.1511 B( 29-C , 30-H ) :   1.6077
B( 29-C , 31-C ) :   0.1686 B( 29-C , 33-C ) :   1.3154 B( 29-C , 34-H ) :  -0.1052
B( 31-C , 32-H ) :   0.4327 B( 31-C , 33-C ) :   1.0583 B( 33-C , 34-H ) :   0.7853
B( 35-C , 36-H ) :   1.1583 B( 35-C , 37-H ) :   0.9282 B( 35-C , 38-H ) :   1.1653

MP2 TOTAL ENERGY:     -790.904031576 Eh
FINAL SINGLE POINT ENERGY      -790.904031575663

DIPOLE MOMENT
-------------
                                X             Y             Z
Electronic contribution:    -14.46237      -0.17866       1.59494
Nuclear contribution   :     14.38755       0.34634      -1.55024
                        -----------------------------------------
Total Dipole Moment    :     -0.07482       0.16768       0.04470
                        -----------------------------------------
Magnitude (a.u.)       :      0.18897
Magnitude (Debye)      :      0.48033

Rotational constants in cm-1:     0.024930     0.005824     0.005249
Rotational constants in MHz :   747.393639   174.607210   157.361222

                             ****ORCA TERMINATED NORMALLY****
TOTAL RUN TIME: 0 days 1 hours 2 minutes 27 seconds 523 msec
