                         Program Version 4.2.1 -  RELEASE  -
|  1> %pal
|  2>  nprocs 32
|  3> end
|  4> !RI-MP2 aug-cc-pVTZ aug-cc-pVTZ/C TightSCF
|  5> %maxcore 4500
|  6> *xyzfile -1 1  08_5R2.xyz
|  7>
|  8>
|  9>                          ****END OF INPUT****

CARTESIAN COORDINATES (ANGSTROEM)
---------------------------------
  O     -2.943995   -0.974048   -0.397166
  C     -2.068427   -0.193757    0.013785
  O     -2.202626    0.861064    0.681250
  C     -0.610205   -0.600319   -0.359238
  C      0.448006    0.336690    0.222912
  H     -0.528929   -0.605461   -1.449699
  H     -0.452700   -1.621601   -0.011215
  N      0.313283    1.662132   -0.355613
  C      1.856078   -0.159858    0.039979
  H      0.293480    0.337354    1.315620
  O      2.804958    0.485730   -0.331612
  O      2.013973   -1.455711    0.410350
  H      2.953133   -1.648408    0.293205
  H     -0.611786    1.981234   -0.070226
  H      1.022634    2.289141    0.004398

 Total Charge           Charge          ....   -1
 Multiplicity           Mult            ....    1
 Number of Electrons    NEL             ....   70
 Basis Dimension        Dim             ....  552

ORBITAL ENERGIES
----------------

  NO   OCC          E(Eh)            E(eV)
   0   2.0000     -20.502741      -557.9079
   1   2.0000     -20.437313      -556.1276
   2   2.0000     -20.311940      -552.7160
   3   2.0000     -20.306969      -552.5807
   4   2.0000     -15.401194      -419.0878
   5   2.0000     -11.267300      -306.5988
   6   2.0000     -11.153686      -303.5072
   7   2.0000     -11.138440      -303.0924
   8   2.0000     -11.074345      -301.3483
   9   2.0000      -1.356838       -36.9214
  10   2.0000      -1.249178       -33.9919
  11   2.0000      -1.192240       -32.4425
  12   2.0000      -1.092422       -29.7263
  13   2.0000      -1.054853       -28.7040
  14   2.0000      -0.881635       -23.9905
  15   2.0000      -0.781753       -21.2726
  16   2.0000      -0.669819       -18.2267
  17   2.0000      -0.596328       -16.2269
  18   2.0000      -0.577611       -15.7176
  19   2.0000      -0.553742       -15.0681
  20   2.0000      -0.520759       -14.1706
  21   2.0000      -0.507610       -13.8128
  22   2.0000      -0.492311       -13.3965
  23   2.0000      -0.443550       -12.0696
  24   2.0000      -0.440733       -11.9929
  25   2.0000      -0.423754       -11.5309
  26   2.0000      -0.409709       -11.1487
  27   2.0000      -0.383417       -10.4333
  28   2.0000      -0.362199        -9.8559
  29   2.0000      -0.342513        -9.3203
  30   2.0000      -0.338525        -9.2117
  31   2.0000      -0.263300        -7.1648
  32   2.0000      -0.228891        -6.2284
  33   2.0000      -0.215006        -5.8506
  34   2.0000      -0.213606        -5.8125
  35   0.0000       0.102712         2.7949
  36   0.0000       0.123236         3.3534
  37   0.0000       0.132454         3.6042
  38   0.0000       0.143342         3.9005
  39   0.0000       0.147568         4.0155

MULLIKEN ATOMIC CHARGES
-----------------------
   0 O :   -0.856231
   1 C :    0.448470
   2 O :   -0.837758
   3 C :   -0.336515
   4 C :    1.076528
   5 H :    0.223981
   6 H :    0.191391
   7 N :   -0.734509
   8 C :    0.337674
   9 H :    0.333459
  10 O :   -0.862020
  11 O :   -0.449452
  12 H :    0.221758
  13 H :    0.198353
  14 H :    0.044871
Sum of atomic charges:   -1.0000000

LOEWDIN ATOMIC CHARGES
----------------------
   0 O :    0.268748
   1 C :   -1.145536
   2 O :    0.318017
   3 C :    0.216464
   4 C :   -0.222528
   5 H :   -0.167098
   6 H :   -0.191960
   7 N :    0.835195
   8 C :   -0.785781
   9 H :   -0.143923
  10 O :    0.443579
  11 O :    0.832079
  12 H :   -0.494350
  13 H :   -0.424573
  14 H :   -0.338334

  Mayer bond orders larger than 0.100000
B(  0-O ,  1-C ) :   1.3735 B(  1-C ,  2-O ) :   1.3722 B(  1-C ,  3-C ) :   0.8081
B(  3-C ,  4-C ) :   0.8454 B(  3-C ,  5-H ) :   0.9902 B(  3-C ,  6-H ) :   0.9954
B(  4-C ,  7-N ) :   0.4252 B(  4-C ,  8-C ) :   0.3194 B(  4-C ,  9-H ) :   0.8849
B(  7-N ,  8-C ) :   0.1742 B(  7-N , 13-H ) :   0.9010 B(  7-N , 14-H ) :   1.0339
B(  8-C , 10-O ) :   1.2883 B(  8-C , 11-O ) :   0.9876 B( 11-O , 12-H ) :   0.9589

MP2 TOTAL ENERGY:     -510.976195251 Eh
FINAL SINGLE POINT ENERGY      -510.976195250891

DIPOLE MOMENT
-------------
                                X             Y             Z
Electronic contribution:      1.03833      -1.10578       0.36988
Nuclear contribution   :      2.62176       0.71118       0.08409
                        -----------------------------------------
Total Dipole Moment    :      3.66009      -0.39460       0.45397
                        -----------------------------------------
Magnitude (a.u.)       :      3.70919
Magnitude (Debye)      :      9.42801

Rotational constants in cm-1:     0.114487     0.031153     0.026184
Rotational constants in MHz :  3432.240362   933.930680   784.982616

                             ****ORCA TERMINATED NORMALLY****
TOTAL RUN TIME: 0 days 0 hours 2 minutes 18 seconds 918 msec
