                         Program Version 4.2.1 -  RELEASE  -
|  1> %pal
|  2>  nprocs 32
|  3> end
|  4> !RI-MP2 aug-cc-pVTZ aug-cc-pVTZ/C TightSCF
|  5> %maxcore 4500
|  6> *xyzfile 0 1  10_39R.xyz
|  7>
|  8>
|  9>                          ****END OF INPUT****

CARTESIAN COORDINATES (ANGSTROEM)
---------------------------------
  C     -0.222163   -2.609910    0.138800
  H     -0.690425   -3.406971   -0.464867
  C      0.915078   -1.997668   -0.648414
  C     -0.234463    0.220544   -0.710299
  H     -0.328244    1.022128    0.023989
  H     -0.217929    0.696733   -1.692699
  C     -1.458502   -0.697913   -0.578331
  H     -1.572548   -1.280648   -1.511346
  N     -1.193898   -1.605534    0.534446
  C      2.225854    0.067556   -0.203581
  C      1.668442   -2.724965   -1.467282
  C      3.472206   -0.646865    0.082743
  C      4.693367   -0.117189    0.094719
  C      1.060124   -0.534977   -0.503243
  C      5.939253   -0.884790    0.397509
  H      6.648622   -0.828467   -0.433645
  H      6.448866   -0.475538    1.275159
  H      5.722531   -1.936883    0.590807
  C     -2.375968   -2.200140    1.123493
  H     -2.953643   -2.777045    0.377936
  H     -2.053732   -2.903019    1.895544
  C     -2.723817    0.114117   -0.401217
  C     -3.564253   -0.062746    0.696195
  C     -3.245290   -1.113511    1.725615
  H     -2.712455   -0.662119    2.568131
  H     -4.170790   -1.542849    2.117207
  H      0.175338   -3.076568    1.045907
  C     -4.708131    0.725113    0.813424
  H     -5.361132    0.579123    1.667469
  C     -3.057539    1.062605   -1.367934
  H     -2.416071    1.193236   -2.231887
  C     -5.024168    1.676071   -0.140646
  H     -5.917880    2.278846   -0.033215
  C     -4.194180    1.841668   -1.242871
  H     -4.434533    2.574231   -2.003772
  C      2.236091    1.561805   -0.140998
  O      1.824289    2.292876   -1.005523
  O      2.744095    2.021021    1.011630
  C      2.782069    3.443133    1.150273
  H      3.223867    3.630106    2.125409
  H      1.775763    3.858584    1.098583
  H      3.388620    3.887821    0.361025
  H      2.475767   -2.281416   -2.035145
  H      1.486777   -3.785780   -1.602126
  H      4.823653    0.939936   -0.119320
  H      3.365737   -1.707505    0.283130

 Total Charge           Charge          ....    0
 Multiplicity           Mult            ....    1
 Number of Electrons    NEL             ....  166
 Basis Dimension        Dim             .... 1587

ORBITAL ENERGIES
----------------

  NO   OCC          E(Eh)            E(eV)
   0   2.0000     -20.597034      -560.4738
   1   2.0000     -20.537864      -558.8637
   2   2.0000     -15.551396      -423.1750
   3   2.0000     -11.373329      -309.4840
   4   2.0000     -11.280594      -306.9606
   5   2.0000     -11.263569      -306.4973
   6   2.0000     -11.260255      -306.4071
   7   2.0000     -11.254543      -306.2517
   8   2.0000     -11.252698      -306.2015
   9   2.0000     -11.247300      -306.0546
  10   2.0000     -11.242099      -305.9131
  11   2.0000     -11.235885      -305.7440
  12   2.0000     -11.234656      -305.7105
  13   2.0000     -11.229031      -305.5575
  14   2.0000     -11.228612      -305.5461
  15   2.0000     -11.228358      -305.5392
  16   2.0000     -11.227295      -305.5102
  17   2.0000     -11.226840      -305.4978
  18   2.0000     -11.226825      -305.4974
  19   2.0000     -11.226096      -305.4776
  20   2.0000     -11.225466      -305.4605
  21   2.0000     -11.225248      -305.4545
  22   2.0000     -11.220672      -305.3300
  23   2.0000      -1.459724       -39.7211
  24   2.0000      -1.355006       -36.8716
  25   2.0000      -1.258901       -34.2564
  26   2.0000      -1.158188       -31.5159
  27   2.0000      -1.138597       -30.9828
  28   2.0000      -1.085324       -29.5332
  29   2.0000      -1.066034       -29.0083
  30   2.0000      -1.056333       -28.7443
  31   2.0000      -1.029934       -28.0259
  32   2.0000      -1.001951       -27.2645
  33   2.0000      -0.981291       -26.7023
  34   2.0000      -0.959041       -26.0968
  35   2.0000      -0.934329       -25.4244
  36   2.0000      -0.906630       -24.6707
  37   2.0000      -0.861359       -23.4388
  38   2.0000      -0.845160       -22.9980
  39   2.0000      -0.834060       -22.6959
  40   2.0000      -0.811292       -22.0764
  41   2.0000      -0.782148       -21.2833
  42   2.0000      -0.759452       -20.6657
  43   2.0000      -0.751204       -20.4413
  44   2.0000      -0.714853       -19.4521
  45   2.0000      -0.695513       -18.9259
  46   2.0000      -0.686026       -18.6677
  47   2.0000      -0.672195       -18.2914
  48   2.0000      -0.668291       -18.1851
  49   2.0000      -0.663937       -18.0666
  50   2.0000      -0.651856       -17.7379
  51   2.0000      -0.643935       -17.5224
  52   2.0000      -0.628887       -17.1129
  53   2.0000      -0.616175       -16.7670
  54   2.0000      -0.608514       -16.5585
  55   2.0000      -0.597998       -16.2724
  56   2.0000      -0.596455       -16.2304
  57   2.0000      -0.586172       -15.9505
  58   2.0000      -0.569362       -15.4931
  59   2.0000      -0.566526       -15.4160
  60   2.0000      -0.565668       -15.3926
  61   2.0000      -0.558405       -15.1950
  62   2.0000      -0.551517       -15.0075
  63   2.0000      -0.546407       -14.8685
  64   2.0000      -0.528824       -14.3900
  65   2.0000      -0.527636       -14.3577
  66   2.0000      -0.527202       -14.3459
  67   2.0000      -0.524580       -14.2746
  68   2.0000      -0.520761       -14.1706
  69   2.0000      -0.511685       -13.9236
  70   2.0000      -0.497211       -13.5298
  71   2.0000      -0.483697       -13.1621
  72   2.0000      -0.478318       -13.0157
  73   2.0000      -0.466018       -12.6810
  74   2.0000      -0.458042       -12.4639
  75   2.0000      -0.456898       -12.4328
  76   2.0000      -0.438773       -11.9396
  77   2.0000      -0.418528       -11.3887
  78   2.0000      -0.379111       -10.3161
  79   2.0000      -0.360980        -9.8228
  80   2.0000      -0.328145        -8.9293
  81   2.0000      -0.321206        -8.7405
  82   2.0000      -0.298474        -8.1219
  83   0.0000       0.024558         0.6682
  84   0.0000       0.027602         0.7511
  85   0.0000       0.029379         0.7994
  86   0.0000       0.032204         0.8763
  87   0.0000       0.036950         1.0055

MULLIKEN ATOMIC CHARGES
-----------------------
   0 C :   -0.669633
   1 H :    0.197544
   2 C :    0.858385
   3 C :   -0.843378
   4 H :    0.076787
   5 H :    0.142547
   6 C :    0.160876
   7 H :    0.250717
   8 N :   -0.418399
   9 C :    1.846112
  10 C :   -1.940226
  11 C :   -0.131020
  12 C :   -0.665866
  13 C :    0.439410
  14 C :   -0.975611
  15 H :    0.257621
  16 H :    0.265923
  17 H :    0.313451
  18 C :   -0.673171
  19 H :    0.267839
  20 H :    0.322154
  21 C :    1.210412
  22 C :    0.957391
  23 C :   -0.520243
  24 H :    0.236086
  25 H :    0.226488
  26 H :    0.419708
  27 C :   -1.055430
  28 H :   -0.023075
  29 C :   -1.121896
  30 H :    0.070671
  31 C :   -0.262327
  32 H :    0.685344
  33 C :   -0.557891
  34 H :    0.428554
  35 C :    0.785188
  36 O :   -1.158512
  37 O :   -0.462754
  38 C :   -1.050816
  39 H :    0.356873
  40 H :    0.398778
  41 H :    0.378377
  42 H :    0.395057
  43 H :    0.200917
  44 H :    0.300080
  45 H :    0.080959
Sum of atomic charges:   -0.0000000

LOEWDIN ATOMIC CHARGES
----------------------
   0 C :    0.164597
   1 H :   -0.129075
   2 C :   -0.106253
   3 C :    0.306076
   4 H :   -0.142444
   5 H :   -0.143200
   6 C :   -0.109049
   7 H :   -0.107216
   8 N :    0.311289
   9 C :   -0.086454
  10 C :    0.568600
  11 C :    0.192496
  12 C :    0.213667
  13 C :   -0.050095
  14 C :    0.559215
  15 H :   -0.175296
  16 H :   -0.174427
  17 H :   -0.180799
  18 C :    0.166972
  19 H :   -0.114907
  20 H :   -0.134489
  21 C :   -0.047285
  22 C :   -0.068291
  23 C :    0.301497
  24 H :   -0.130910
  25 H :   -0.143180
  26 H :   -0.128990
  27 C :    0.222949
  28 H :   -0.173262
  29 C :    0.229400
  30 H :   -0.171809
  31 C :    0.199590
  32 H :   -0.182969
  33 C :    0.205614
  34 H :   -0.182068
  35 C :   -0.853213
  36 O :    0.494474
  37 O :    0.574055
  38 C :    0.356414
  39 H :   -0.184052
  40 H :   -0.178658
  41 H :   -0.179472
  42 H :   -0.199723
  43 H :   -0.196030
  44 H :   -0.187698
  45 H :   -0.205592

  Mayer bond orders larger than 0.100000
B(  0-C ,  1-H ) :   1.1580 B(  0-C ,  2-C ) :   0.7821 B(  0-C ,  6-C ) :   0.1003
B(  0-C ,  8-N ) :   0.7917 B(  0-C , 10-C ) :  -0.1376 B(  0-C , 26-H ) :   0.8872
B(  2-C ,  3-C ) :   0.2662 B(  2-C ,  4-H ) :   0.1241 B(  2-C ,  8-N ) :   0.1905
B(  2-C ,  9-C ) :   0.2518 B(  2-C , 10-C ) :   0.6945 B(  2-C , 13-C ) :   0.8133
B(  2-C , 42-H ) :  -0.1688 B(  2-C , 45-H ) :  -0.1232 B(  3-C ,  4-H ) :   1.1810
B(  3-C ,  5-H ) :   0.9615 B(  3-C ,  6-C ) :   0.6865 B(  3-C ,  8-N ) :   0.3677
B(  3-C , 10-C ) :   0.1375 B(  3-C , 13-C ) :   0.8209 B(  3-C , 21-C ) :   0.3431
B(  3-C , 36-O ) :  -0.1777 B(  4-H ,  9-C ) :  -0.1084 B(  5-H ,  9-C ) :  -0.1341
B(  5-H , 35-C ) :   0.1319 B(  6-C ,  7-H ) :   1.0017 B(  6-C ,  8-N ) :   0.4606
B(  6-C ,  9-C ) :  -0.1182 B(  6-C , 13-C ) :   0.1968 B(  6-C , 21-C ) :   0.7902
B(  6-C , 22-C ) :   0.3642 B(  6-C , 23-C ) :  -0.1242 B(  6-C , 27-C ) :  -0.1075
B(  6-C , 29-C ) :   0.6765 B(  7-H ,  8-N ) :  -0.1080 B(  8-N , 13-C ) :  -0.3118
B(  8-N , 18-C ) :   0.8589 B(  8-N , 26-H ) :  -0.1178 B(  9-C , 10-C ) :   0.4258
B(  9-C , 11-C ) :  -0.4296 B(  9-C , 12-C ) :   0.2311 B(  9-C , 13-C ) :   1.7488
B(  9-C , 35-C ) :  -0.1733 B(  9-C , 36-O ) :  -0.5880 B(  9-C , 37-O ) :  -0.1997
B(  9-C , 42-H ) :   0.1209 B( 10-C , 13-C ) :  -0.8267 B( 10-C , 42-H ) :   1.0427
B( 10-C , 43-H ) :   1.1694 B( 11-C , 12-C ) :   0.6475 B( 11-C , 13-C ) :   0.5619
B( 11-C , 35-C ) :  -0.4651 B( 11-C , 44-H ) :  -0.1089 B( 11-C , 45-H ) :   1.2836
B( 12-C , 14-C ) :   0.5933 B( 12-C , 15-H ) :  -0.1012 B( 12-C , 35-C ) :  -0.1085
B( 12-C , 44-H ) :   1.2743 B( 13-C , 21-C ) :  -0.2160 B( 13-C , 35-C ) :   0.5326
B( 13-C , 36-O ) :   0.3695 B( 13-C , 43-H ) :  -0.1260 B( 14-C , 15-H ) :   1.0496
B( 14-C , 16-H ) :   1.0064 B( 14-C , 17-H ) :   0.9403 B( 18-C , 19-H ) :   1.0010
B( 18-C , 20-H ) :   0.9329 B( 18-C , 22-C ) :   0.1159 B( 18-C , 23-C ) :   1.0742
B( 21-C , 22-C ) :   0.6362 B( 21-C , 23-C ) :   0.2206 B( 21-C , 27-C ) :   0.4199
B( 21-C , 28-H ) :   0.1039 B( 21-C , 29-C ) :  -0.1217 B( 21-C , 31-C ) :  -0.1525
B( 21-C , 32-H ) :   0.1068 B( 21-C , 34-H ) :  -0.1156 B( 22-C , 23-C ) :   0.1053
B( 22-C , 24-H ) :  -0.1297 B( 22-C , 27-C ) :   0.4742 B( 22-C , 28-H ) :  -0.1102
B( 22-C , 29-C ) :  -0.2388 B( 22-C , 31-C ) :   0.3315 B( 22-C , 32-H ) :  -0.1016
B( 22-C , 34-H ) :   0.1224 B( 23-C , 24-H ) :   1.0846 B( 23-C , 25-H ) :   1.0659
B( 23-C , 27-C ) :   0.1992 B( 27-C , 28-H ) :   1.6941 B( 27-C , 29-C ) :   0.1008
B( 27-C , 31-C ) :   0.9263 B( 27-C , 33-C ) :  -0.1610 B( 28-H , 31-C ) :  -0.1541
B( 29-C , 30-H ) :   1.4428 B( 29-C , 31-C ) :   0.1733 B( 29-C , 33-C ) :   1.3289
B( 29-C , 34-H ) :  -0.1015 B( 31-C , 32-H ) :   0.3994 B( 31-C , 33-C ) :   1.0686
B( 33-C , 34-H ) :   0.8346 B( 35-C , 36-O ) :   1.1317 B( 35-C , 37-O ) :   1.1259
B( 35-C , 44-H ) :  -0.1355 B( 37-O , 38-C ) :   1.0158 B( 38-C , 39-H ) :   0.9065
B( 38-C , 40-H ) :   0.8597 B( 38-C , 41-H ) :   0.8815

MP2 TOTAL ENERGY:     -979.194898459 Eh
FINAL SINGLE POINT ENERGY      -979.194898459123

DIPOLE MOMENT
-------------
                                X             Y             Z
Electronic contribution:     -6.78928       5.39695      -2.79518
Nuclear contribution   :      6.82262      -5.99066       3.33063
                        -----------------------------------------
Total Dipole Moment    :      0.03334      -0.59372       0.53545
                        -----------------------------------------
Magnitude (a.u.)       :      0.80020
Magnitude (Debye)      :      2.03394

Rotational constants in cm-1:     0.014623     0.005224     0.004358
Rotational constants in MHz :   438.391621   156.623950   130.648141

                             ****ORCA TERMINATED NORMALLY****
TOTAL RUN TIME: 0 days 1 hours 24 minutes 2 seconds 252 msec
