                         Program Version 4.2.1 -  RELEASE  -
|  1> %pal
|  2>  nprocs 32
|  3> end
|  4> !RI-MP2 aug-cc-pVTZ aug-cc-pVTZ/C TightSCF
|  5> %maxcore 4500
|  6> *xyzfile -1 1  09_16P.xyz
|  7>
|  8>
|  9>                          ****END OF INPUT****

CARTESIAN COORDINATES (ANGSTROEM)
---------------------------------
  C     -1.883456    0.304779   -0.111006
  C     -0.921220    1.464239   -0.208050
  O     -1.344878    2.595151   -0.021272
  C      0.507137    1.166188   -0.468195
  C      1.242919    0.724575    0.858274
  C      2.616714    0.137235    0.739952
  C      3.138002   -0.041642   -0.459108
  O      4.411310   -0.592527   -0.728525
  C      5.145538   -0.967543    0.405040
  H      2.712816    0.196907   -1.441869
  H      6.096584   -1.367666    0.039577
  H      5.319068   -0.114831    1.071225
  H      4.614446   -1.722688    0.996062
  C     -1.469539   -1.024721   -0.187591
  C     -2.396781   -2.054157   -0.097762
  C     -3.745627   -1.768777    0.064612
  C     -4.165839   -0.445708    0.142936
  C     -3.239120    0.580628    0.059285
  H     -0.419539   -1.261183   -0.301320
  H     -2.060837   -3.083225   -0.150428
  H     -4.467700   -2.574796    0.133310
  H     -5.217874   -0.217144    0.272525
  H     -3.538148    1.619346    0.124533
  H      0.990825    2.060773   -0.859798
  H      0.608462    0.366376   -1.204105
  H      1.262924    1.611854    1.501889
  H      0.595139    0.014691    1.386444

 Total Charge           Charge          ....   -1
 Multiplicity           Mult            ....    1
 Number of Electrons    NEL             ....  102
 Basis Dimension        Dim             ....  943

ORBITAL ENERGIES
----------------

  NO   OCC          E(Eh)            E(eV)
   0   2.0000     -20.423961      -555.7642
   1   2.0000     -20.388808      -554.8077
   2   2.0000     -11.211874      -305.0906
   3   2.0000     -11.158247      -303.6313
   4   2.0000     -11.151230      -303.4404
   5   2.0000     -11.149740      -303.3998
   6   2.0000     -11.148398      -303.3633
   7   2.0000     -11.147664      -303.3434
   8   2.0000     -11.144154      -303.2479
   9   2.0000     -11.107604      -302.2533
  10   2.0000     -11.087212      -301.6984
  11   2.0000     -11.073570      -301.3272
  12   2.0000     -11.066534      -301.1357
  13   2.0000     -10.977394      -298.7101
  14   2.0000      -1.264689       -34.4139
  15   2.0000      -1.201762       -32.7016
  16   2.0000      -1.071539       -29.1581
  17   2.0000      -0.953843       -25.9554
  18   2.0000      -0.932897       -25.3854
  19   2.0000      -0.910079       -24.7645
  20   2.0000      -0.825172       -22.4541
  21   2.0000      -0.777769       -21.1642
  22   2.0000      -0.753095       -20.4927
  23   2.0000      -0.738342       -20.0913
  24   2.0000      -0.700465       -19.0606
  25   2.0000      -0.651880       -17.7386
  26   2.0000      -0.604969       -16.4620
  27   2.0000      -0.549389       -14.9496
  28   2.0000      -0.545296       -14.8383
  29   2.0000      -0.544087       -14.8053
  30   2.0000      -0.528776       -14.3887
  31   2.0000      -0.504357       -13.7242
  32   2.0000      -0.498882       -13.5753
  33   2.0000      -0.473712       -12.8904
  34   2.0000      -0.465234       -12.6597
  35   2.0000      -0.453945       -12.3525
  36   2.0000      -0.448015       -12.1911
  37   2.0000      -0.427828       -11.6418
  38   2.0000      -0.412483       -11.2242
  39   2.0000      -0.404284       -11.0011
  40   2.0000      -0.387203       -10.5363
  41   2.0000      -0.370968       -10.0946
  42   2.0000      -0.355742        -9.6802
  43   2.0000      -0.347870        -9.4660
  44   2.0000      -0.312030        -8.4908
  45   2.0000      -0.304079        -8.2744
  46   2.0000      -0.292801        -7.9675
  47   2.0000      -0.253358        -6.8942
  48   2.0000      -0.250627        -6.8199
  49   2.0000      -0.127008        -3.4561
  50   2.0000      -0.103309        -2.8112
  51   0.0000       0.084128         2.2892
  52   0.0000       0.094851         2.5810
  53   0.0000       0.107099         2.9143
  54   0.0000       0.114421         3.1136
  55   0.0000       0.117673         3.2021

MULLIKEN ATOMIC CHARGES
-----------------------
   0 C :    1.639419
   1 C :    0.839363
   2 O :   -1.242055
   3 C :   -0.106531
   4 C :   -0.451580
   5 C :   -0.625158
   6 C :   -0.113869
   7 O :   -0.650863
   8 C :   -0.869853
   9 H :    0.451035
  10 H :    0.353209
  11 H :    0.309086
  12 H :    0.325964
  13 C :   -0.254538
  14 C :   -1.421783
  15 C :   -0.021428
  16 C :   -0.648306
  17 C :   -1.058073
  18 H :    0.246777
  19 H :    0.397858
  20 H :    0.474463
  21 H :    0.558756
  22 H :   -0.042862
  23 H :    0.295012
  24 H :    0.173748
  25 H :    0.226942
  26 H :    0.215265
Sum of atomic charges:   -1.0000000

LOEWDIN ATOMIC CHARGES
----------------------
   0 C :   -0.097825
   1 C :   -0.520701
   2 O :    0.460183
   3 C :    0.224063
   4 C :    0.105335
   5 C :    0.047403
   6 C :   -0.241160
   7 O :    0.467242
   8 C :    0.197961
   9 H :   -0.268304
  10 H :   -0.216508
  11 H :   -0.214998
  12 H :   -0.214849
  13 C :    0.217285
  14 C :    0.204382
  15 C :    0.182098
  16 C :    0.189101
  17 C :    0.198343
  18 H :   -0.189106
  19 H :   -0.185758
  20 H :   -0.188570
  21 H :   -0.191525
  22 H :   -0.196872
  23 H :   -0.155868
  24 H :   -0.207177
  25 H :   -0.190310
  26 H :   -0.213865

  Mayer bond orders larger than 0.100000
B(  0-C ,  1-C ) :   0.5339 B(  0-C ,  3-C ) :   0.1548 B(  0-C , 13-C ) :   0.6048
B(  0-C , 16-C ) :   0.1749 B(  0-C , 17-C ) :   0.2632 B(  0-C , 18-H ) :  -0.1009
B(  0-C , 19-H ) :  -0.1184 B(  0-C , 20-H ) :   0.1453 B(  0-C , 21-H ) :  -0.1024
B(  0-C , 22-H ) :  -0.3310 B(  1-C ,  2-O ) :   0.2745 B(  1-C ,  3-C ) :   0.5839
B(  1-C ,  4-C ) :   0.1515 B(  1-C , 13-C ) :   0.1619 B(  1-C , 14-C ) :  -0.1204
B(  1-C , 15-C ) :   0.2036 B(  1-C , 17-C ) :   0.3281 B(  1-C , 18-H ) :  -0.1657
B(  1-C , 21-H ) :   0.1829 B(  1-C , 22-H ) :  -0.2945 B(  1-C , 23-H ) :  -0.1309
B(  2-O , 22-H ) :   0.2239 B(  3-C ,  4-C ) :   0.8213 B(  3-C ,  5-C ) :   0.2188
B(  3-C , 23-H ) :   0.8818 B(  3-C , 24-H ) :   1.0643 B(  4-C ,  5-C ) :   0.8049
B(  4-C ,  6-C ) :   0.1925 B(  4-C , 25-H ) :   1.0003 B(  4-C , 26-H ) :   0.9953
B(  5-C ,  6-C ) :   1.0210 B(  5-C ,  7-O ) :  -0.1150 B(  6-C ,  7-O ) :   0.6448
B(  6-C ,  9-H ) :   0.8982 B(  7-O ,  8-C ) :   1.0409 B(  7-O ,  9-H ) :  -0.1447
B(  8-C , 10-H ) :   0.8897 B(  8-C , 11-H ) :   0.9075 B(  8-C , 12-H ) :   0.8997
B( 13-C , 14-C ) :   0.9101 B( 13-C , 15-C ) :  -0.2474 B( 13-C , 17-C ) :  -0.6102
B( 13-C , 18-H ) :   1.4499 B( 13-C , 20-H ) :  -0.1081 B( 13-C , 22-H ) :   0.2005
B( 14-C , 15-C ) :   1.0956 B( 14-C , 16-C ) :   0.3414 B( 14-C , 17-C ) :   0.1867
B( 14-C , 19-H ) :   0.7573 B( 14-C , 20-H ) :  -0.2107 B( 15-C , 16-C ) :   1.0145
B( 15-C , 17-C ) :  -0.3117 B( 15-C , 20-H ) :   0.7785 B( 16-C , 17-C ) :   1.2200
B( 16-C , 20-H ) :  -0.1817 B( 16-C , 21-H ) :   0.6112 B( 17-C , 18-H ) :   0.1086
B( 17-C , 20-H ) :   0.1917 B( 17-C , 21-H ) :  -0.1661 B( 17-C , 22-H ) :   1.7629
B( 18-H , 22-H ) :   0.1222

MP2 TOTAL ENERGY:     -614.289106311 Eh
FINAL SINGLE POINT ENERGY      -614.289106310659

DIPOLE MOMENT
-------------
                                X             Y             Z
Electronic contribution:    -10.87551       3.28642      -2.26516
Nuclear contribution   :      6.56012      -4.45060       1.55994
                        -----------------------------------------
Total Dipole Moment    :     -4.31540      -1.16418      -0.70522
                        -----------------------------------------
Magnitude (a.u.)       :      4.52496
Magnitude (Debye)      :     11.50154

Rotational constants in cm-1:     0.047147     0.009704     0.008396
Rotational constants in MHz :  1413.433885   290.909673   251.698135

                             ****ORCA TERMINATED NORMALLY****
TOTAL RUN TIME: 0 days 0 hours 14 minutes 38 seconds 213 msec
