                         Program Version 4.2.1 -  RELEASE  -
|  1> %pal
|  2>  nprocs 32
|  3> end
|  4> !RI-MP2 aug-cc-pVTZ aug-cc-pVTZ/C TightSCF
|  5> %maxcore 4500
|  6> *xyzfile 1 1  05_40R2.xyz
|  7>
|  8>
|  9>                          ****END OF INPUT****

CARTESIAN COORDINATES (ANGSTROEM)
---------------------------------
  N     -0.430743   -0.379633   -0.096559
  C      0.993289   -0.230471    0.010921
  C      1.554422    0.379848    1.130227
  C      2.922189    0.491522    1.227223
  C      3.746601   -0.014473    0.214573
  C      3.176205   -0.641135   -0.894851
  C      1.797668   -0.749121   -0.989072
  O      5.060678    0.143156    0.403595
  C      5.970810   -0.355074   -0.570806
  C     -1.335938    0.556872   -0.072035
  C     -2.739978    0.156123   -0.035612
  C     -3.114253   -1.021489    0.627055
  C     -4.438415   -1.416934    0.650809
  C     -5.402414   -0.650206    0.007398
  C     -5.043106    0.521118   -0.646350
  C     -3.722451    0.932800   -0.659353
  C     -0.938368    1.986803   -0.059569
  H      5.814416    0.132633   -1.535892
  H     -5.795253    1.116567   -1.147241
  H     -0.770470   -1.331402   -0.200044
  H      5.875115   -1.438361   -0.675431
  H      6.961783   -0.112769   -0.198402
  H     -4.722885   -2.315439    1.182794
  H     -6.439133   -0.962254    0.024533
  H     -1.041760    2.378421    0.956405
  H     -1.614117    2.567591   -0.684487
  H      0.088086    2.129439   -0.388026
  H     -2.382196   -1.600892    1.178057
  H     -3.460239    1.840243   -1.185775
  H      0.924003    0.749646    1.929519
  H      1.355059   -1.230209   -1.853440
  H      3.792187   -1.043954   -1.685118
  H      3.387616    0.955831    2.086357

 Total Charge           Charge          ....    1
 Multiplicity           Mult            ....    1
 Number of Electrons    NEL             ....  120
 Basis Dimension        Dim             .... 1150

ORBITAL ENERGIES
----------------

  NO   OCC          E(Eh)            E(eV)
   0   2.0000     -20.693475      -563.0981
   1   2.0000     -15.799934      -429.9380
   2   2.0000     -11.510014      -313.2034
   3   2.0000     -11.425441      -310.9020
   4   2.0000     -11.408206      -310.4331
   5   2.0000     -11.399061      -310.1842
   6   2.0000     -11.390599      -309.9540
   7   2.0000     -11.389291      -309.9184
   8   2.0000     -11.389160      -309.9148
   9   2.0000     -11.378139      -309.6149
  10   2.0000     -11.377962      -309.6101
  11   2.0000     -11.376138      -309.5605
  12   2.0000     -11.374702      -309.5214
  13   2.0000     -11.370368      -309.4034
  14   2.0000     -11.369042      -309.3674
  15   2.0000     -11.353870      -308.9545
  16   2.0000     -11.351151      -308.8805
  17   2.0000      -1.526680       -41.5431
  18   2.0000      -1.475991       -40.1637
  19   2.0000      -1.311672       -35.6924
  20   2.0000      -1.282413       -34.8962
  21   2.0000      -1.216646       -33.1066
  22   2.0000      -1.167877       -31.7796
  23   2.0000      -1.158292       -31.5187
  24   2.0000      -1.151354       -31.3299
  25   2.0000      -1.142744       -31.0957
  26   2.0000      -1.063544       -28.9405
  27   2.0000      -1.018200       -27.7066
  28   2.0000      -0.979379       -26.6503
  29   2.0000      -0.974977       -26.5305
  30   2.0000      -0.961119       -26.1534
  31   2.0000      -0.934414       -25.4267
  32   2.0000      -0.890593       -24.2343
  33   2.0000      -0.857522       -23.3344
  34   2.0000      -0.825490       -22.4627
  35   2.0000      -0.819416       -22.2974
  36   2.0000      -0.804619       -21.8948
  37   2.0000      -0.778868       -21.1941
  38   2.0000      -0.765143       -20.8206
  39   2.0000      -0.759802       -20.6753
  40   2.0000      -0.754331       -20.5264
  41   2.0000      -0.743897       -20.2425
  42   2.0000      -0.738290       -20.0899
  43   2.0000      -0.725435       -19.7401
  44   2.0000      -0.723748       -19.6942
  45   2.0000      -0.707952       -19.2644
  46   2.0000      -0.699835       -19.0435
  47   2.0000      -0.681950       -18.5568
  48   2.0000      -0.669233       -18.2108
  49   2.0000      -0.651352       -17.7242
  50   2.0000      -0.645038       -17.5524
  51   2.0000      -0.642324       -17.4785
  52   2.0000      -0.636951       -17.3323
  53   2.0000      -0.625521       -17.0213
  54   2.0000      -0.596915       -16.2429
  55   2.0000      -0.586389       -15.9564
  56   2.0000      -0.488392       -13.2898
  57   2.0000      -0.481052       -13.0901
  58   2.0000      -0.474172       -12.9029
  59   2.0000      -0.435162       -11.8414
  60   0.0000      -0.092672        -2.5217
  61   0.0000      -0.067660        -1.8411
  62   0.0000      -0.055426        -1.5082
  63   0.0000      -0.052528        -1.4293
  64   0.0000      -0.047307        -1.2873

MULLIKEN ATOMIC CHARGES
-----------------------
   0 N :   -0.492901
   1 C :    1.512912
   2 C :   -0.393651
   3 C :   -0.975104
   4 C :    1.324890
   5 C :   -0.350319
   6 C :   -1.184854
   7 O :   -0.842767
   8 C :   -0.916247
   9 C :    0.528031
  10 C :    2.439764
  11 C :   -0.876122
  12 C :   -1.014122
  13 C :   -0.045949
  14 C :   -0.810847
  15 C :   -1.156657
  16 C :   -0.946395
  17 H :    0.373893
  18 H :    0.397463
  19 H :   -0.026024
  20 H :    0.374707
  21 H :    0.382015
  22 H :    0.503855
  23 H :    0.581653
  24 H :    0.356751
  25 H :    0.286794
  26 H :    0.446747
  27 H :    0.001752
  28 H :    0.068168
  29 H :    0.269747
  30 H :    0.378707
  31 H :    0.272095
  32 H :    0.532016
Sum of atomic charges:    1.0000000

LOEWDIN ATOMIC CHARGES
----------------------
   0 N :    0.613134
   1 C :   -0.195456
   2 C :    0.220058
   3 C :    0.247046
   4 C :   -0.371877
   5 C :    0.239821
   6 C :    0.240185
   7 O :    0.591395
   8 C :    0.376664
   9 C :   -0.082294
  10 C :   -0.070679
  11 C :    0.238283
  12 C :    0.244271
  13 C :    0.246896
  14 C :    0.247155
  15 C :    0.247095
  16 C :    0.667883
  17 H :   -0.167426
  18 H :   -0.164510
  19 H :   -0.245146
  20 H :   -0.167003
  21 H :   -0.170012
  22 H :   -0.165203
  23 H :   -0.157432
  24 H :   -0.121622
  25 H :   -0.167929
  26 H :   -0.157032
  27 H :   -0.166418
  28 H :   -0.178484
  29 H :   -0.158436
  30 H :   -0.156211
  31 H :   -0.192059
  32 H :   -0.164657

  Mayer bond orders larger than 0.100000
B(  0-N ,  1-C ) :   0.4458 B(  0-N ,  2-C ) :  -0.3076 B(  0-N ,  6-C ) :  -0.1545
B(  0-N ,  9-C ) :   1.2794 B(  0-N , 19-H ) :   1.4997 B(  1-C ,  2-C ) :   0.7424
B(  1-C ,  3-C ) :   0.1358 B(  1-C ,  6-C ) :   0.2782 B(  1-C ,  9-C ) :  -0.3880
B(  1-C , 10-C ) :   0.1308 B(  1-C , 19-H ) :  -0.2590 B(  1-C , 29-H ) :  -0.1666
B(  1-C , 30-H ) :  -0.1654 B(  2-C ,  3-C ) :   1.4721 B(  2-C ,  4-C ) :  -0.2178
B(  2-C ,  6-C ) :  -0.1126 B(  2-C ,  9-C ) :   0.1137 B(  2-C , 29-H ) :   1.1052
B(  2-C , 30-H ) :   0.1329 B(  3-C ,  4-C ) :   0.7677 B(  3-C ,  5-C ) :   0.2679
B(  3-C ,  7-O ) :   0.3015 B(  3-C , 32-H ) :   0.6311 B(  4-C ,  5-C ) :   1.2160
B(  4-C ,  7-O ) :   0.3217 B(  5-C ,  6-C ) :   1.2643 B(  5-C ,  7-O ) :  -0.3822
B(  5-C , 30-H ) :  -0.1637 B(  5-C , 31-H ) :   1.0845 B(  6-C ,  9-C ) :   0.2215
B(  6-C , 30-H ) :   0.9662 B(  7-O ,  8-C ) :   0.9900 B(  8-C , 17-H ) :   0.8678
B(  8-C , 20-H ) :   0.8738 B(  8-C , 21-H ) :   0.9203 B(  8-C , 31-H ) :  -0.1229
B(  9-C , 10-C ) :   0.2896 B(  9-C , 11-C ) :   0.2730 B(  9-C , 12-C ) :   0.1188
B(  9-C , 13-C ) :   0.2514 B(  9-C , 15-C ) :   0.4087 B(  9-C , 16-C ) :   0.7031
B(  9-C , 19-H ) :  -0.1742 B(  9-C , 22-H ) :   0.2131 B(  9-C , 27-H ) :  -0.2714
B(  9-C , 28-H ) :  -0.3045 B( 10-C , 11-C ) :   0.1280 B( 10-C , 12-C ) :  -0.1896
B( 10-C , 14-C ) :  -0.2359 B( 10-C , 15-C ) :  -0.3296 B( 10-C , 27-H ) :  -0.1807
B( 10-C , 28-H ) :  -0.2869 B( 11-C , 12-C ) :   1.3144 B( 11-C , 13-C ) :  -0.1654
B( 11-C , 14-C ) :   0.1765 B( 11-C , 15-C ) :  -0.4954 B( 11-C , 27-H ) :   1.8373
B( 11-C , 28-H ) :   0.1968 B( 12-C , 13-C ) :   1.1345 B( 12-C , 14-C ) :   0.1942
B( 12-C , 15-C ) :   0.2012 B( 12-C , 22-H ) :   0.6238 B( 12-C , 23-H ) :  -0.2279
B( 13-C , 14-C ) :   1.0790 B( 13-C , 15-C ) :  -0.1359 B( 13-C , 23-H ) :   0.6372
B( 14-C , 15-C ) :   1.3858 B( 14-C , 18-H ) :   0.9285 B( 14-C , 23-H ) :  -0.1988
B( 14-C , 28-H ) :  -0.1749 B( 15-C , 27-H ) :   0.1837 B( 15-C , 28-H ) :   1.8822
B( 16-C , 24-H ) :   0.9080 B( 16-C , 25-H ) :   1.0143 B( 16-C , 26-H ) :   0.9077
B( 27-H , 28-H ) :   0.1265

MP2 TOTAL ENERGY:     -709.540672716 Eh
FINAL SINGLE POINT ENERGY      -709.540672716149

DIPOLE MOMENT
-------------
                                X             Y             Z
Electronic contribution:     -3.55243      -1.83718       1.67825
Nuclear contribution   :      2.05804       1.84280      -2.19957
                        -----------------------------------------
Total Dipole Moment    :     -1.49438       0.00562      -0.52132
                        -----------------------------------------
Magnitude (a.u.)       :      1.58272
Magnitude (Debye)      :      4.02294

Rotational constants in cm-1:     0.061805     0.005650     0.005539
Rotational constants in MHz :  1852.857453   169.380574   166.064321

                             ****ORCA TERMINATED NORMALLY****
TOTAL RUN TIME: 0 days 0 hours 25 minutes 15 seconds 223 msec
