                         Program Version 4.2.1 -  RELEASE  -
|  1> %pal
|  2>  nprocs 32
|  3> end
|  4> !RI-MP2 aug-cc-pVTZ aug-cc-pVTZ/C TightSCF
|  5> %maxcore 4500
|  6> *xyzfile 0 2  01_35P.xyz
|  7>
|  8>
|  9>                          ****END OF INPUT****

CARTESIAN COORDINATES (ANGSTROEM)
---------------------------------
  C      1.478759   -1.472452   -0.250173
  C      2.878084   -0.851835   -0.166933
  C      2.906860    0.399981    0.716243
  C      1.868540    1.441040    0.283718
  C      0.491111    0.800189    0.223537
  C      0.482839   -0.416510   -0.700825
  C     -0.676178    1.637781   -0.299642
  C     -1.728370    0.621118   -0.823521
  C     -1.013526   -0.768623   -0.792141
  C     -1.583574   -1.440902    0.416573
  C     -2.968242    0.456650    0.068583
  H     -2.026666    0.891678   -1.837317
  C     -2.566895   -0.578675    1.131475
  H     -3.793820    0.056088   -0.526049
  H     -3.304273    1.404046    0.495296
  H     -1.267801   -2.415001    0.767022
  H     -3.420717   -1.133483    1.531811
  H     -2.098530   -0.080726    1.995862
  H     -1.091322    2.304092    0.460567
  H     -0.327274    2.271009   -1.121226
  H      1.483268   -2.327124   -0.933879
  H      1.187340   -1.853512    0.734742
  H      3.207313   -0.583144   -1.177711
  H      3.595987   -1.586687    0.207495
  H      1.876795    2.292741    0.970789
  H      2.127455    1.832411   -0.708136
  H      2.704054    0.109117    1.753754
  H      3.908800    0.837704    0.707556
  H      0.242459    0.442875    1.232152
  H      0.790723   -0.068870   -1.698355
  H     -1.210240   -1.359781   -1.695725

 Total Charge           Charge          ....    0
 Multiplicity           Mult            ....    2
 Number of Electrons    NEL             ....   91
 Basis Dimension        Dim             ....  989

ORBITAL ENERGIES
----------------
                 SPIN UP ORBITALS
  NO   OCC          E(Eh)            E(eV)
   0   1.0000     -11.215933      -305.2011
   1   1.0000     -11.215616      -305.1924
   2   1.0000     -11.213572      -305.1368
   3   1.0000     -11.213433      -305.1330
   4   1.0000     -11.212345      -305.1034
   5   1.0000     -11.211754      -305.0873
   6   1.0000     -11.211329      -305.0758
   7   1.0000     -11.211249      -305.0736
   8   1.0000     -11.210150      -305.0437
   9   1.0000     -11.209445      -305.0245
  10   1.0000     -11.208914      -305.0101
  11   1.0000     -11.207991      -304.9849
  12   1.0000      -1.161091       -31.5949
  13   1.0000      -1.101877       -29.9836
  14   1.0000      -1.037310       -28.2266
  15   1.0000      -1.014730       -27.6122
  16   1.0000      -0.973398       -26.4875
  17   1.0000      -0.935765       -25.4635
  18   1.0000      -0.896446       -24.3935
  19   1.0000      -0.828019       -22.5315
  20   1.0000      -0.793388       -21.5892
  21   1.0000      -0.769137       -20.9293
  22   1.0000      -0.743212       -20.2238
  23   1.0000      -0.723673       -19.6921
  24   1.0000      -0.660254       -17.9664
  25   1.0000      -0.640263       -17.4225
  26   1.0000      -0.626969       -17.0607
  27   1.0000      -0.611633       -16.6434
  28   1.0000      -0.596006       -16.2181
  29   1.0000      -0.579656       -15.7732
  30   1.0000      -0.564941       -15.3728
  31   1.0000      -0.551650       -15.0112
  32   1.0000      -0.520347       -14.1594
  33   1.0000      -0.516977       -14.0677
  34   1.0000      -0.502159       -13.6644
  35   1.0000      -0.497948       -13.5499
  36   1.0000      -0.486560       -13.2400
  37   1.0000      -0.474386       -12.9087
  38   1.0000      -0.461941       -12.5701
  39   1.0000      -0.452902       -12.3241
  40   1.0000      -0.445737       -12.1291
  41   1.0000      -0.436509       -11.8780
  42   1.0000      -0.433598       -11.7988
  43   1.0000      -0.419530       -11.4160
  44   1.0000      -0.412775       -11.2322
  45   1.0000      -0.317091        -8.6285
  46   0.0000       0.027800         0.7565
  47   0.0000       0.031344         0.8529
  48   0.0000       0.032663         0.8888
  49   0.0000       0.032754         0.8913
  50   0.0000       0.044840         1.2202

                 SPIN DOWN ORBITALS
  NO   OCC          E(Eh)            E(eV)
   0   1.0000     -11.216924      -305.2280
   1   1.0000     -11.216814      -305.2250
   2   1.0000     -11.215356      -305.1854
   3   1.0000     -11.212347      -305.1035
   4   1.0000     -11.211755      -305.0874
   5   1.0000     -11.210856      -305.0629
   6   1.0000     -11.210190      -305.0448
   7   1.0000     -11.209808      -305.0344
   8   1.0000     -11.209273      -305.0198
   9   1.0000     -11.208795      -305.0068
  10   1.0000     -11.208014      -304.9856
  11   1.0000     -11.191907      -304.5473
  12   1.0000      -1.154092       -31.4044
  13   1.0000      -1.095084       -29.7988
  14   1.0000      -1.030986       -28.0546
  15   1.0000      -1.012941       -27.5635
  16   1.0000      -0.957497       -26.0548
  17   1.0000      -0.934397       -25.4262
  18   1.0000      -0.882299       -24.0086
  19   1.0000      -0.820848       -22.3364
  20   1.0000      -0.791941       -21.5498
  21   1.0000      -0.761106       -20.7107
  22   1.0000      -0.740873       -20.1602
  23   1.0000      -0.702307       -19.1107
  24   1.0000      -0.652463       -17.7544
  25   1.0000      -0.629734       -17.1359
  26   1.0000      -0.624483       -16.9930
  27   1.0000      -0.609544       -16.5865
  28   1.0000      -0.594980       -16.1902
  29   1.0000      -0.575842       -15.6695
  30   1.0000      -0.562024       -15.2934
  31   1.0000      -0.545542       -14.8449
  32   1.0000      -0.516539       -14.0557
  33   1.0000      -0.504560       -13.7298
  34   1.0000      -0.496694       -13.5157
  35   1.0000      -0.495338       -13.4788
  36   1.0000      -0.479963       -13.0605
  37   1.0000      -0.473286       -12.8788
  38   1.0000      -0.459171       -12.4947
  39   1.0000      -0.450604       -12.2616
  40   1.0000      -0.440710       -11.9923
  41   1.0000      -0.435239       -11.8435
  42   1.0000      -0.432503       -11.7690
  43   1.0000      -0.417031       -11.3480
  44   1.0000      -0.409777       -11.1506
  45   0.0000       0.027895         0.7591
  46   0.0000       0.031385         0.8540
  47   0.0000       0.032648         0.8884
  48   0.0000       0.032809         0.8928
  49   0.0000       0.044863         1.2208

MULLIKEN ATOMIC CHARGES AND SPIN POPULATIONS
--------------------------------------------
   0 C :   -0.795493   -0.010805
   1 C :   -0.578255    0.002361
   2 C :   -0.538416    0.000229
   3 C :   -1.045026    0.000311
   4 C :    0.932158   -0.011548
   5 C :    0.192302    0.061709
   6 C :   -0.994114    0.000185
   7 C :   -0.138591    0.025908
   8 C :   -0.276182   -0.300897
   9 C :   -0.874306    1.457494
  10 C :   -0.693100    0.033822
  11 H :    0.320768   -0.004715
  12 C :   -0.343976   -0.272115
  13 H :    0.148112   -0.006298
  14 H :    0.310604    0.000172
  15 H :    0.329763   -0.130323
  16 H :    0.400772    0.036479
  17 H :    0.155778    0.082785
  18 H :    0.267559    0.002247
  19 H :    0.071438   -0.000875
  20 H :    0.263142    0.001018
  21 H :    0.196634   -0.010297
  22 H :    0.059625    0.000323
  23 H :    0.358556    0.000697
  24 H :    0.299569    0.000661
  25 H :    0.140639    0.000374
  26 H :    0.076165    0.000582
  27 H :    0.364316   -0.000108
  28 H :    0.471434   -0.017797
  29 H :    0.490489   -0.007314
  30 H :    0.427635    0.065735
Sum of atomic charges         :    0.0000000

LOEWDIN ATOMIC CHARGES AND SPIN POPULATIONS
-------------------------------------------
   0 C :    0.312745    0.003716
   1 C :    0.301434    0.000601
   2 C :    0.301244    0.000102
   3 C :    0.316350    0.000750
   4 C :   -0.007591    0.006129
   5 C :    0.006519    0.026004
   6 C :    0.353552    0.000601
   7 C :    0.058204    0.003630
   8 C :    0.031622    0.103405
   9 C :    0.325710    0.540525
  10 C :    0.312123    0.009334
  11 H :   -0.124510    0.000122
  12 C :    0.273498    0.116804
  13 H :   -0.140403    0.001222
  14 H :   -0.142853    0.000564
  15 H :   -0.170000    0.109322
  16 H :   -0.149572    0.012587
  17 H :   -0.145319    0.029588
  18 H :   -0.134912    0.000075
  19 H :   -0.134610   -0.000064
  20 H :   -0.128367    0.000296
  21 H :   -0.143393    0.003772
  22 H :   -0.139010    0.000227
  23 H :   -0.141052    0.000137
  24 H :   -0.130711    0.000205
  25 H :   -0.133944    0.000276
  26 H :   -0.138679    0.000007
  27 H :   -0.141369   -0.000003
  28 H :   -0.120904    0.004326
  29 H :   -0.107856    0.003329
  30 H :   -0.117947    0.022412

  Mayer bond orders larger than 0.100000
B(  0-C ,  1-C ) :   0.9643 B(  0-C ,  5-C ) :   0.5293 B(  0-C , 20-H ) :   0.9952
B(  0-C , 21-H ) :   1.1211 B(  1-C ,  2-C ) :   0.8631 B(  1-C ,  3-C ) :   0.1180
B(  1-C , 22-H ) :   1.1652 B(  1-C , 23-H ) :   0.8739 B(  2-C ,  3-C ) :   1.0520
B(  2-C , 26-H ) :   1.1358 B(  2-C , 27-H ) :   0.8659 B(  3-C ,  4-C ) :   0.1689
B(  3-C ,  5-C ) :   0.2481 B(  3-C , 24-H ) :   0.9656 B(  3-C , 25-H ) :   1.2135
B(  3-C , 28-H ) :  -0.1104 B(  4-C ,  5-C ) :   0.9131 B(  4-C ,  6-C ) :   0.6061
B(  4-C , 25-H ) :  -0.1276 B(  4-C , 28-H ) :   0.9061 B(  5-C ,  8-C ) :   1.0323
B(  5-C ,  9-C ) :   0.4388 B(  5-C , 28-H ) :  -0.1639 B(  5-C , 29-H ) :   0.7980
B(  6-C ,  7-C ) :   0.9766 B(  6-C , 18-H ) :   0.9885 B(  6-C , 19-H ) :   1.2288
B(  7-C ,  8-C ) :   1.1665 B(  7-C , 10-C ) :   0.8824 B(  7-C , 11-H ) :   0.8621
B(  8-C ,  9-C ) :   0.6571 B(  8-C , 30-H ) :   0.8579 B(  9-C , 10-C ) :   0.1396
B(  9-C , 12-C ) :   0.6473 B(  9-C , 15-H ) :   0.8662 B(  9-C , 30-H ) :  -0.2364
B( 10-C , 12-C ) :   1.0094 B( 10-C , 13-H ) :   1.0804 B( 10-C , 14-H ) :   0.9287
B( 12-C , 16-H ) :   0.8538 B( 12-C , 17-H ) :   1.0327

MP2 TOTAL ENERGY:     -467.649567714 Eh
FINAL SINGLE POINT ENERGY      -467.649567714067

DIPOLE MOMENT
-------------
                                X             Y             Z
Electronic contribution:     -2.67809      -1.06154      -1.22865
Nuclear contribution   :      2.70413       1.08166       1.21272
                        -----------------------------------------
Total Dipole Moment    :      0.02604       0.02013      -0.01593
                        -----------------------------------------
Magnitude (a.u.)       :      0.03656
Magnitude (Debye)      :      0.09293

Rotational constants in cm-1:     0.063088     0.023119     0.019994
Rotational constants in MHz :  1891.345605   693.075596   599.403771

                             ****ORCA TERMINATED NORMALLY****
TOTAL RUN TIME: 0 days 0 hours 28 minutes 32 seconds 118 msec
