                         Program Version 4.2.1 -  RELEASE  -
|  1> %pal
|  2>  nprocs 32
|  3> end
|  4> !RI-MP2 aug-cc-pVTZ aug-cc-pVTZ/C TightSCF
|  5> %maxcore 4500
|  6> *xyzfile 0 2  03_28P1.xyz
|  7>
|  8>
|  9>                          ****END OF INPUT****

CARTESIAN COORDINATES (ANGSTROEM)
---------------------------------
  C     -2.205232    0.000002   -0.405600
  C     -0.819624    0.000000   -0.956668
  C      0.259439   -0.000003    0.112825
  O      1.482613    0.000000   -0.436752
  O      0.069190   -0.000006    1.300300
  C      2.595474   -0.000001    0.476275
  C      3.858759    0.000002   -0.348536
  C     -2.776312   -1.283942    0.087327
  C     -2.776306    1.283947    0.087333
  H     -0.636470   -0.875043   -1.588424
  H      2.521907   -0.881202    1.115908
  H      2.521905    0.881197    1.115912
  H      3.907912   -0.885111   -0.984563
  H      4.730222    0.000003    0.309236
  H      3.907909    0.885118   -0.984561
  H     -2.492635   -2.126198   -0.549676
  H     -3.867433   -1.244694    0.137584
  H     -2.414206   -1.510661    1.101484
  H     -2.492624    2.126204   -0.549667
  H     -2.414199    1.510659    1.101490
  H     -3.867426    1.244705    0.137589
  H     -0.636466    0.875042   -1.588424

 Total Charge           Charge          ....    0
 Multiplicity           Mult            ....    2
 Number of Electrons    NEL             ....   71
 Basis Dimension        Dim             ....  713

ORBITAL ENERGIES
----------------
                 SPIN UP ORBITALS
  NO   OCC          E(Eh)            E(eV)
   0   1.0000     -20.598091      -560.5025
   1   1.0000     -20.540014      -558.9222
   2   1.0000     -11.374866      -309.5258
   3   1.0000     -11.287546      -307.1497
   4   1.0000     -11.239492      -305.8421
   5   1.0000     -11.232685      -305.6569
   6   1.0000     -11.224689      -305.4393
   7   1.0000     -11.210927      -305.0648
   8   1.0000     -11.210901      -305.0641
   9   1.0000      -1.460506       -39.7424
  10   1.0000      -1.358112       -36.9561
  11   1.0000      -1.108129       -30.1537
  12   1.0000      -1.046923       -28.4882
  13   1.0000      -0.977895       -26.6099
  14   1.0000      -0.937155       -25.5013
  15   1.0000      -0.869150       -23.6508
  16   1.0000      -0.791072       -21.5262
  17   1.0000      -0.745892       -20.2968
  18   1.0000      -0.698530       -19.0080
  19   1.0000      -0.686704       -18.6862
  20   1.0000      -0.664192       -18.0736
  21   1.0000      -0.626411       -17.0455
  22   1.0000      -0.612435       -16.6652
  23   1.0000      -0.591155       -16.0861
  24   1.0000      -0.575958       -15.6726
  25   1.0000      -0.560150       -15.2425
  26   1.0000      -0.549371       -14.9491
  27   1.0000      -0.537044       -14.6137
  28   1.0000      -0.524361       -14.2686
  29   1.0000      -0.511531       -13.9195
  30   1.0000      -0.502767       -13.6810
  31   1.0000      -0.490015       -13.3340
  32   1.0000      -0.486580       -13.2405
  33   1.0000      -0.457155       -12.4398
  34   1.0000      -0.448997       -12.2178
  35   1.0000      -0.320265        -8.7148
  36   0.0000       0.027681         0.7532
  37   0.0000       0.033324         0.9068
  38   0.0000       0.036075         0.9816
  39   0.0000       0.038082         1.0363
  40   0.0000       0.047338         1.2881

                 SPIN DOWN ORBITALS
  NO   OCC          E(Eh)            E(eV)
   0   1.0000     -20.597848      -560.4960
   1   1.0000     -20.540581      -558.9376
   2   1.0000     -11.372129      -309.4514
   3   1.0000     -11.287476      -307.1478
   4   1.0000     -11.242456      -305.9228
   5   1.0000     -11.224682      -305.4391
   6   1.0000     -11.213966      -305.1475
   7   1.0000     -11.213934      -305.1467
   8   1.0000     -11.208058      -304.9868
   9   1.0000      -1.459486       -39.7146
  10   1.0000      -1.358456       -36.9655
  11   1.0000      -1.076861       -29.3029
  12   1.0000      -1.040468       -28.3126
  13   1.0000      -0.974067       -26.5057
  14   1.0000      -0.936601       -25.4862
  15   1.0000      -0.866865       -23.5886
  16   1.0000      -0.782680       -21.2978
  17   1.0000      -0.711723       -19.3670
  18   1.0000      -0.690453       -18.7882
  19   1.0000      -0.686050       -18.6684
  20   1.0000      -0.656565       -17.8660
  21   1.0000      -0.623146       -16.9567
  22   1.0000      -0.597992       -16.2722
  23   1.0000      -0.572676       -15.5833
  24   1.0000      -0.572006       -15.5651
  25   1.0000      -0.553752       -15.0684
  26   1.0000      -0.544434       -14.8148
  27   1.0000      -0.527082       -14.3426
  28   1.0000      -0.522634       -14.2216
  29   1.0000      -0.511122       -13.9083
  30   1.0000      -0.502022       -13.6607
  31   1.0000      -0.483573       -13.1587
  32   1.0000      -0.480538       -13.0761
  33   1.0000      -0.458308       -12.4712
  34   1.0000      -0.444817       -12.1041
  35   0.0000       0.027753         0.7552
  36   0.0000       0.033519         0.9121
  37   0.0000       0.036114         0.9827
  38   0.0000       0.038017         1.0345
  39   0.0000       0.047321         1.2877

MULLIKEN ATOMIC CHARGES AND SPIN POPULATIONS
--------------------------------------------
   0 C :    0.293868    1.289684
   1 C :    0.050448   -0.149961
   2 C :    0.372150    0.036835
   3 O :   -0.277233   -0.002862
   4 O :   -0.829957   -0.013481
   5 C :   -0.215511    0.001030
   6 C :   -0.955081   -0.000162
   7 C :   -0.988874   -0.195737
   8 C :   -0.988881   -0.195735
   9 H :    0.219254    0.015688
  10 H :    0.324597   -0.000145
  11 H :    0.324591   -0.000146
  12 H :    0.255389   -0.000003
  13 H :    0.323320    0.000213
  14 H :    0.255390   -0.000003
  15 H :    0.263849    0.013623
  16 H :    0.288369    0.019352
  17 H :    0.256422    0.066572
  18 H :    0.263842    0.013621
  19 H :    0.256424    0.066574
  20 H :    0.288372    0.019352
  21 H :    0.219254    0.015690
Sum of atomic charges         :   -0.0000000

LOEWDIN ATOMIC CHARGES AND SPIN POPULATIONS
-------------------------------------------
   0 C :   -0.074292    0.546176
   1 C :    0.258738    0.103998
   2 C :   -0.811271    0.031328
   3 O :    0.587580    0.006821
   4 O :    0.481594   -0.004735
   5 C :    0.027774    0.001282
   6 C :    0.578418    0.000367
   7 C :    0.560062    0.109360
   8 C :    0.560063    0.109360
   9 H :   -0.156716    0.007198
  10 H :   -0.157711    0.000070
  11 H :   -0.157711    0.000070
  12 H :   -0.172053    0.000007
  13 H :   -0.172317    0.000135
  14 H :   -0.172052    0.000007
  15 H :   -0.175286    0.005848
  16 H :   -0.175730    0.006613
  17 H :   -0.160679    0.028218
  18 H :   -0.175285    0.005848
  19 H :   -0.160680    0.028218
  20 H :   -0.175731    0.006613
  21 H :   -0.156716    0.007198

  Mayer bond orders larger than 0.100000
B(  0-C ,  1-C ) :   0.7263 B(  0-C ,  2-C ) :   0.1648 B(  0-C ,  7-C ) :   0.7609
B(  0-C ,  8-C ) :   0.7609 B(  1-C ,  2-C ) :   0.5477 B(  1-C ,  3-O ) :  -0.1443
B(  1-C ,  9-H ) :   1.0266 B(  1-C , 21-H ) :   1.0266 B(  2-C ,  3-O ) :   1.0633
B(  2-C ,  4-O ) :   1.4665 B(  3-O ,  4-O ) :  -0.1016 B(  3-O ,  5-C ) :   0.8063
B(  5-C ,  6-C ) :   0.8757 B(  5-C , 10-H ) :   0.9056 B(  5-C , 11-H ) :   0.9056
B(  6-C , 12-H ) :   0.9790 B(  6-C , 13-H ) :   0.9303 B(  6-C , 14-H ) :   0.9790
B(  7-C ,  8-C ) :   0.1067 B(  7-C , 15-H ) :   0.9991 B(  7-C , 16-H ) :   0.9914
B(  7-C , 17-H ) :   0.9412 B(  8-C , 18-H ) :   0.9991 B(  8-C , 19-H ) :   0.9412
B(  8-C , 20-H ) :   0.9914

MP2 TOTAL ENERGY:     -424.171349738 Eh
FINAL SINGLE POINT ENERGY      -424.171349737609

DIPOLE MOMENT
-------------
                                X             Y             Z
Electronic contribution:      1.66171      -0.00002       0.67808
Nuclear contribution   :     -1.24606       0.00002      -1.25159
                        -----------------------------------------
Total Dipole Moment    :      0.41565       0.00000      -0.57351
                        -----------------------------------------
Magnitude (a.u.)       :      0.70829
Magnitude (Debye)      :      1.80034

Rotational constants in cm-1:     0.138815     0.023119     0.023093
Rotational constants in MHz :  4161.576360   693.092717   692.319472

                             ****ORCA TERMINATED NORMALLY****
TOTAL RUN TIME: 0 days 0 hours 7 minutes 38 seconds 87 msec
