                         Program Version 4.2.1 -  RELEASE  -
|  1> %pal
|  2>  nprocs 32
|  3> end
|  4> !RI-MP2 aug-cc-pVTZ aug-cc-pVTZ/C TightSCF
|  5> %maxcore 4500
|  6> *xyzfile -1 1  08_15R2.xyz
|  7>
|  8>
|  9>                          ****END OF INPUT****

CARTESIAN COORDINATES (ANGSTROEM)
---------------------------------
  O      3.003817    0.038747    0.130507
  C      1.801224   -0.189401   -0.091659
  O      1.259311   -1.217110   -0.561586
  C      0.815550    0.958020    0.263753
  C     -0.548275    0.740973   -0.360347
  H      1.237978    1.906417   -0.082763
  H      0.720380    1.015977    1.350974
  C     -1.202096   -0.498783    0.219699
  O     -1.211057   -0.834755    1.372212
  O     -1.941130   -1.158185   -0.710603
  H     -2.295841   -1.934547   -0.258535
  N     -1.452132    1.876150   -0.093931
  H     -0.418099    0.557186   -1.429616
  H     -0.942602    2.744312   -0.203360
  H     -2.222845    1.883173   -0.752096

 Total Charge           Charge          ....   -1
 Multiplicity           Mult            ....    1
 Number of Electrons    NEL             ....   70
 Basis Dimension        Dim             ....  552

ORBITAL ENERGIES
----------------

  NO   OCC          E(Eh)            E(eV)
   0   2.0000     -20.477812      -557.2296
   1   2.0000     -20.406176      -555.2803
   2   2.0000     -20.306008      -552.5546
   3   2.0000     -20.302754      -552.4660
   4   2.0000     -15.436467      -420.0476
   5   2.0000     -11.244737      -305.9848
   6   2.0000     -11.147869      -303.3489
   7   2.0000     -11.136141      -303.0298
   8   2.0000     -11.070920      -301.2550
   9   2.0000      -1.329162       -36.1683
  10   2.0000      -1.223118       -33.2827
  11   2.0000      -1.186711       -32.2920
  12   2.0000      -1.087014       -29.5792
  13   2.0000      -1.072973       -29.1971
  14   2.0000      -0.881558       -23.9884
  15   2.0000      -0.775836       -21.1116
  16   2.0000      -0.652478       -17.7548
  17   2.0000      -0.574184       -15.6243
  18   2.0000      -0.566652       -15.4194
  19   2.0000      -0.548351       -14.9214
  20   2.0000      -0.522669       -14.2225
  21   2.0000      -0.509528       -13.8650
  22   2.0000      -0.476606       -12.9691
  23   2.0000      -0.452031       -12.3004
  24   2.0000      -0.426685       -11.6107
  25   2.0000      -0.418251       -11.3812
  26   2.0000      -0.408011       -11.1025
  27   2.0000      -0.372466       -10.1353
  28   2.0000      -0.347758        -9.4630
  29   2.0000      -0.336603        -9.1594
  30   2.0000      -0.320234        -8.7140
  31   2.0000      -0.280034        -7.6201
  32   2.0000      -0.225914        -6.1474
  33   2.0000      -0.210794        -5.7360
  34   2.0000      -0.208098        -5.6626
  35   0.0000       0.104738         2.8501
  36   0.0000       0.114892         3.1264
  37   0.0000       0.127897         3.4803
  38   0.0000       0.135641         3.6910
  39   0.0000       0.149652         4.0722

MULLIKEN ATOMIC CHARGES
-----------------------
   0 O :   -0.891265
   1 C :    0.398812
   2 O :   -0.841198
   3 C :   -0.181540
   4 C :    0.781949
   5 H :    0.188986
   6 H :    0.197090
   7 C :    0.964075
   8 O :   -0.953382
   9 O :   -0.562321
  10 H :    0.214141
  11 N :   -0.747680
  12 H :    0.275040
  13 H :    0.090580
  14 H :    0.066712
Sum of atomic charges:   -1.0000000

LOEWDIN ATOMIC CHARGES
----------------------
   0 O :    0.262991
   1 C :   -1.164130
   2 O :    0.305038
   3 C :    0.196810
   4 C :   -0.211329
   5 H :   -0.175949
   6 H :   -0.167931
   7 C :   -0.841542
   8 O :    0.456145
   9 O :    0.827087
  10 H :   -0.494477
  11 N :    0.842260
  12 H :   -0.166025
  13 H :   -0.339023
  14 H :   -0.329923

  Mayer bond orders larger than 0.100000
B(  0-O ,  1-C ) :   1.3473 B(  1-C ,  2-O ) :   1.4542 B(  1-C ,  3-C ) :   0.6734
B(  3-C ,  4-C ) :   0.8686 B(  3-C ,  5-H ) :   0.9818 B(  3-C ,  6-H ) :   0.9777
B(  3-C ,  7-C ) :   0.1105 B(  4-C ,  7-C ) :   0.5498 B(  4-C , 11-N ) :   0.3855
B(  4-C , 12-H ) :   0.9276 B(  7-C ,  8-O ) :   1.1249 B(  7-C ,  9-O ) :   0.7921
B(  7-C , 11-N ) :   0.1720 B(  9-O , 10-H ) :   0.9789 B( 11-N , 13-H ) :   0.9880
B( 11-N , 14-H ) :   1.0573

MP2 TOTAL ENERGY:     -510.967602756 Eh
FINAL SINGLE POINT ENERGY      -510.967602755647

DIPOLE MOMENT
-------------
                                X             Y             Z
Electronic contribution:      0.58738      -4.69376       0.64693
Nuclear contribution   :     -3.83776       6.01709      -1.34626
                        -----------------------------------------
Total Dipole Moment    :     -3.25038       1.32333      -0.69932
                        -----------------------------------------
Magnitude (a.u.)       :      3.57844
Magnitude (Debye)      :      9.09567

Rotational constants in cm-1:     0.085315     0.040568     0.033011
Rotational constants in MHz :  2557.682253  1216.198311   989.640839

                             ****ORCA TERMINATED NORMALLY****
TOTAL RUN TIME: 0 days 0 hours 2 minutes 31 seconds 853 msec
