                         Program Version 4.2.1 -  RELEASE  -
|  1> %pal
|  2>  nprocs 32
|  3> end
|  4> !RI-MP2 aug-cc-pVTZ aug-cc-pVTZ/C TightSCF
|  5> %maxcore 4500
|  6> *xyzfile 0 2  04_26TS.xyz
|  7>
|  8>
|  9>                          ****END OF INPUT****

CARTESIAN COORDINATES (ANGSTROEM)
---------------------------------
  N      2.581719    0.645655   -0.993468
  H      3.188550    0.003068   -1.490533
  C      1.614037    0.046548   -0.138935
  H      0.506599    0.608669   -0.442239
  C      1.382519   -1.407938   -0.472642
  C      1.774105    0.303281    1.369405
  H      0.923109   -1.485740   -1.458324
  H      0.712314   -1.846511    0.259311
  S      2.910139   -2.409342   -0.561542
  O      1.898950   -0.649321    2.116162
  H      3.217124   -2.280758    0.741330
  N      1.755821    1.583170    1.762416
  H      1.651085    2.333173    1.087221
  H      1.869551    1.778461    2.744369
  C      2.705811    1.973360   -1.248128
  H      3.480513    2.189672   -1.997988
  O      2.046154    2.844506   -0.723119
  O     -0.553297    1.065272   -0.967463
  O     -1.377828   -0.033193   -1.137633
  C     -2.335023   -0.108660   -0.131634
  Cl    -3.288987   -1.526551   -0.576222
  Cl    -1.568357   -0.352122    1.463214
  Cl    -3.344679    1.348673   -0.087760

 Total Charge           Charge          ....    0
 Multiplicity           Mult            ....    2
 Number of Electrons    NEL             ....  151
 Basis Dimension        Dim             ....  890

ORBITAL ENERGIES
----------------
                 SPIN UP ORBITALS
  NO   OCC          E(Eh)            E(eV)
   0   1.0000    -104.879792     -2853.9242
   1   1.0000    -104.874099     -2853.7693
   2   1.0000    -104.873748     -2853.7598
   3   1.0000     -91.967372     -2502.5594
   4   1.0000     -20.711589      -563.5910
   5   1.0000     -20.700364      -563.2855
   6   1.0000     -20.560666      -559.4842
   7   1.0000     -20.536547      -558.8279
   8   1.0000     -15.626807      -425.2270
   9   1.0000     -15.587448      -424.1560
  10   1.0000     -11.503912      -313.0374
  11   1.0000     -11.383343      -309.7565
  12   1.0000     -11.368990      -309.3659
  13   1.0000     -11.332306      -308.3677
  14   1.0000     -11.283291      -307.0339
  15   1.0000     -10.604131      -288.5531
  16   1.0000     -10.598436      -288.3981
  17   1.0000     -10.598126      -288.3897
  18   1.0000      -8.968587      -244.0477
  19   1.0000      -8.070841      -219.6187
  20   1.0000      -8.068677      -219.5599
  21   1.0000      -8.068645      -219.5590
  22   1.0000      -8.065196      -219.4651
  23   1.0000      -8.064941      -219.4582
  24   1.0000      -8.062988      -219.4051
  25   1.0000      -8.062962      -219.4044
  26   1.0000      -8.062690      -219.3969
  27   1.0000      -8.062670      -219.3964
  28   1.0000      -6.650326      -180.9646
  29   1.0000      -6.649121      -180.9318
  30   1.0000      -6.647916      -180.8990
  31   1.0000      -1.587711       -43.2038
  32   1.0000      -1.426035       -38.8044
  33   1.0000      -1.404163       -38.2092
  34   1.0000      -1.321949       -35.9721
  35   1.0000      -1.285701       -34.9857
  36   1.0000      -1.224742       -33.3269
  37   1.0000      -1.197016       -32.5725
  38   1.0000      -1.128480       -30.7075
  39   1.0000      -1.125311       -30.6213
  40   1.0000      -1.098702       -29.8972
  41   1.0000      -0.996618       -27.1194
  42   1.0000      -0.882161       -24.0048
  43   1.0000      -0.874196       -23.7881
  44   1.0000      -0.866459       -23.5775
  45   1.0000      -0.821156       -22.3448
  46   1.0000      -0.786680       -21.4067
  47   1.0000      -0.762657       -20.7530
  48   1.0000      -0.751704       -20.4549
  49   1.0000      -0.733857       -19.9693
  50   1.0000      -0.729660       -19.8551
  51   1.0000      -0.698402       -19.0045
  52   1.0000      -0.683057       -18.5869
  53   1.0000      -0.649537       -17.6748
  54   1.0000      -0.640555       -17.4304
  55   1.0000      -0.632613       -17.2143
  56   1.0000      -0.610892       -16.6232
  57   1.0000      -0.598120       -16.2757
  58   1.0000      -0.592204       -16.1147
  59   1.0000      -0.584997       -15.9186
  60   1.0000      -0.566702       -15.4207
  61   1.0000      -0.561847       -15.2886
  62   1.0000      -0.545610       -14.8468
  63   1.0000      -0.513116       -13.9626
  64   1.0000      -0.510849       -13.9009
  65   1.0000      -0.506843       -13.7919
  66   1.0000      -0.499575       -13.5941
  67   1.0000      -0.478714       -13.0265
  68   1.0000      -0.474874       -12.9220
  69   1.0000      -0.472397       -12.8546
  70   1.0000      -0.468735       -12.7549
  71   1.0000      -0.460180       -12.5221
  72   1.0000      -0.453544       -12.3416
  73   1.0000      -0.426274       -11.5995
  74   1.0000      -0.395724       -10.7682
  75   1.0000      -0.377473       -10.2716
  76   0.0000       0.023259         0.6329
  77   0.0000       0.034172         0.9299
  78   0.0000       0.039179         1.0661
  79   0.0000       0.045075         1.2266
  80   0.0000       0.053267         1.4495

                 SPIN DOWN ORBITALS
  NO   OCC          E(Eh)            E(eV)
   0   1.0000    -104.879873     -2853.9264
   1   1.0000    -104.874082     -2853.7689
   2   1.0000    -104.873723     -2853.7591
   3   1.0000     -91.966955     -2502.5481
   4   1.0000     -20.699833      -563.2711
   5   1.0000     -20.678290      -562.6849
   6   1.0000     -20.559551      -559.4538
   7   1.0000     -20.534659      -558.7765
   8   1.0000     -15.627047      -425.2336
   9   1.0000     -15.587492      -424.1572
  10   1.0000     -11.504014      -313.0401
  11   1.0000     -11.383432      -309.7589
  12   1.0000     -11.369674      -309.3845
  13   1.0000     -11.318422      -307.9899
  14   1.0000     -11.284791      -307.0748
  15   1.0000     -10.604217      -288.5554
  16   1.0000     -10.598421      -288.3977
  17   1.0000     -10.598105      -288.3891
  18   1.0000      -8.968135      -244.0354
  19   1.0000      -8.071097      -219.6257
  20   1.0000      -8.068782      -219.5627
  21   1.0000      -8.068704      -219.5606
  22   1.0000      -8.065089      -219.4622
  23   1.0000      -8.064840      -219.4554
  24   1.0000      -8.063006      -219.4055
  25   1.0000      -8.062955      -219.4042
  26   1.0000      -8.062679      -219.3966
  27   1.0000      -8.062633      -219.3954
  28   1.0000      -6.649355      -180.9381
  29   1.0000      -6.648102      -180.9040
  30   1.0000      -6.647613      -180.8907
  31   1.0000      -1.552221       -42.2381
  32   1.0000      -1.423447       -38.7340
  33   1.0000      -1.400258       -38.1030
  34   1.0000      -1.282116       -34.8882
  35   1.0000      -1.271498       -34.5992
  36   1.0000      -1.224089       -33.3092
  37   1.0000      -1.171669       -31.8827
  38   1.0000      -1.126904       -30.6646
  39   1.0000      -1.124841       -30.6085
  40   1.0000      -1.088236       -29.6124
  41   1.0000      -0.978728       -26.6326
  42   1.0000      -0.880017       -23.9465
  43   1.0000      -0.869901       -23.6712
  44   1.0000      -0.859189       -23.3797
  45   1.0000      -0.792802       -21.5732
  46   1.0000      -0.759519       -20.6676
  47   1.0000      -0.750524       -20.4228
  48   1.0000      -0.734848       -19.9962
  49   1.0000      -0.727068       -19.7845
  50   1.0000      -0.710252       -19.3269
  51   1.0000      -0.695392       -18.9226
  52   1.0000      -0.657314       -17.8864
  53   1.0000      -0.638955       -17.3868
  54   1.0000      -0.635461       -17.2918
  55   1.0000      -0.606407       -16.5012
  56   1.0000      -0.599011       -16.2999
  57   1.0000      -0.595005       -16.1909
  58   1.0000      -0.585066       -15.9204
  59   1.0000      -0.575044       -15.6477
  60   1.0000      -0.549282       -14.9467
  61   1.0000      -0.538297       -14.6478
  62   1.0000      -0.516996       -14.0682
  63   1.0000      -0.509302       -13.8588
  64   1.0000      -0.503423       -13.6988
  65   1.0000      -0.501209       -13.6386
  66   1.0000      -0.474509       -12.9120
  67   1.0000      -0.473830       -12.8936
  68   1.0000      -0.471438       -12.8285
  69   1.0000      -0.468116       -12.7381
  70   1.0000      -0.461539       -12.5591
  71   1.0000      -0.455507       -12.3950
  72   1.0000      -0.419344       -11.4109
  73   1.0000      -0.410404       -11.1677
  74   1.0000      -0.375634       -10.2215
  75   0.0000       0.009951         0.2708
  76   0.0000       0.023484         0.6390
  77   0.0000       0.034213         0.9310
  78   0.0000       0.039678         1.0797
  79   0.0000       0.045167         1.2291

MULLIKEN ATOMIC CHARGES AND SPIN POPULATIONS
--------------------------------------------
   0 N :   -0.281999   -0.007693
   1 H :    0.107331    0.007009
   2 C :    1.035131    0.662119
   3 H :    0.703665   -0.380042
   4 C :   -0.338532   -0.074358
   5 C :    0.842672   -0.061781
   6 H :    0.328631    0.006968
   7 H :    0.263618    0.006980
   8 S :   -0.590050    0.047014
   9 O :   -1.056356    0.039614
  10 H :    0.177930   -0.001237
  11 N :   -0.596575    0.001441
  12 H :    0.222636    0.002474
  13 H :    0.121157   -0.002272
  14 C :   -0.343570   -0.011953
  15 H :    0.639316    0.000580
  16 O :   -0.775090    0.023746
  17 O :   -0.344641    0.787632
  18 O :   -0.288526   -0.045109
  19 C :    0.935387   -0.002172
  20 Cl:   -0.282655   -0.005076
  21 Cl:   -0.221488    0.003563
  22 Cl:   -0.257991    0.002554
Sum of atomic charges         :    0.0000000

LOEWDIN ATOMIC CHARGES AND SPIN POPULATIONS
-------------------------------------------
   0 N :    0.533077    0.038734
   1 H :   -0.345337    0.005529
   2 C :   -0.253643    0.209802
   3 H :   -0.632227    0.047181
   4 C :   -0.109764    0.012811
   5 C :   -0.699564    0.022393
   6 H :   -0.222715    0.000001
   7 H :   -0.253598   -0.001687
   8 S :    1.336410    0.023183
   9 O :    0.448822    0.029546
  10 H :   -0.566252    0.002972
  11 N :    0.865240   -0.002895
  12 H :   -0.445398   -0.000188
  13 H :   -0.270947   -0.000441
  14 C :   -0.303583    0.002502
  15 H :   -0.161668   -0.000021
  16 O :    0.487150    0.017940
  17 O :    0.459428    0.568436
  18 O :    0.087562    0.032806
  19 C :   -2.505343   -0.004704
  20 Cl:    0.840976   -0.005096
  21 Cl:    0.887450   -0.000873
  22 Cl:    0.823925    0.002067

  Mayer bond orders larger than 0.100000
B(  0-N ,  1-H ) :   1.0567 B(  0-N ,  2-C ) :   0.7142 B(  0-N ,  3-H ) :  -0.2412
B(  0-N ,  5-C ) :   0.2123 B(  0-N , 14-C ) :   1.2959 B(  0-N , 16-O ) :  -0.1180
B(  2-C ,  3-H ) :   0.5541 B(  2-C ,  4-C ) :   0.8097 B(  2-C ,  5-C ) :   0.5250
B(  2-C ,  8-S ) :   0.2710 B(  2-C , 17-O ) :   0.1839 B(  2-C , 21-Cl) :  -0.2358
B(  3-H ,  5-C ) :   0.1329 B(  3-H , 14-C ) :  -0.1726 B(  3-H , 16-O ) :  -0.1035
B(  3-H , 17-O ) :  -0.1259 B(  3-H , 18-O ) :  -0.1146 B(  4-C ,  6-H ) :   0.9780
B(  4-C ,  7-H ) :   0.9845 B(  4-C ,  8-S ) :   0.7317 B(  5-C ,  9-O ) :   1.0967
B(  5-C , 11-N ) :   0.8352 B(  6-H ,  8-S ) :  -0.1182 B(  8-S , 10-H ) :   1.0761
B( 11-N , 12-H ) :   0.9911 B( 11-N , 13-H ) :   1.0440 B( 14-C , 15-H ) :   0.5225
B( 14-C , 16-O ) :   1.6860 B( 17-O , 18-O ) :   0.8881 B( 18-O , 19-C ) :   0.9202
B( 19-C , 20-Cl) :   0.8204 B( 19-C , 21-Cl) :   0.9626 B( 19-C , 22-Cl) :   0.8547

MP2 TOTAL ENERGY:    -2381.476596235 Eh
FINAL SINGLE POINT ENERGY     -2381.476596234712

DIPOLE MOMENT
-------------
                                X             Y             Z
Electronic contribution:    -25.32578      -1.82131       1.01678
Nuclear contribution   :     25.88511       2.08652      -1.60500
                        -----------------------------------------
Total Dipole Moment    :      0.55933       0.26521      -0.58823
                        -----------------------------------------
Magnitude (a.u.)       :      0.85393
Magnitude (Debye)      :      2.17052

Rotational constants in cm-1:     0.017506     0.008213     0.007177
Rotational constants in MHz :   524.815912   246.216982   215.172758

                             ****ORCA TERMINATED NORMALLY****
TOTAL RUN TIME: 0 days 0 hours 31 minutes 11 seconds 948 msec
