                         Program Version 4.2.1 -  RELEASE  -
|  1> %pal
|  2>  nprocs 32
|  3> end
|  4> !RI-MP2 aug-cc-pVTZ aug-cc-pVTZ/C TightSCF
|  5> %maxcore 4500
|  6> *xyzfile 0 1  02_38R.xyz
|  7>
|  8>
|  9>                          ****END OF INPUT****

CARTESIAN COORDINATES (ANGSTROEM)
---------------------------------
  C     -6.283972   -0.011287   -1.169419
  C     -6.138396   -0.539964    0.105168
  C     -4.876881   -0.731146    0.643691
  C     -3.730445   -0.393082   -0.082354
  C     -3.882817    0.139050   -1.365588
  C     -5.150621    0.323274   -1.895914
  H     -7.270265    0.137181   -1.591158
  H     -7.011451   -0.809439    0.687089
  H     -4.794490   -1.151496    1.638970
  H     -3.007716    0.402238   -1.939684
  H     -5.248438    0.736815   -2.892525
  C     -2.392889   -0.592413    0.500891
  C     -1.106305   -0.410590   -0.160241
  O     -0.940826   -0.029095   -1.287048
  O     -0.083279   -0.748171    0.673225
  N     -2.324433   -0.975862    1.755183
  N     -2.298444   -1.302321    2.827319
  C      1.218212   -0.414113    0.257229
  C      2.039969   -1.429449    0.005838
  C      1.482610    1.038855    0.247980
  C      1.870575    1.685741   -0.921060
  C      1.303429    1.782576    1.413413
  C      2.109620    3.051627   -0.917798
  H      1.958867    1.112989   -1.835131
  C      1.543492    3.147687    1.416258
  H      0.986667    1.282003    2.320805
  C      1.951845    3.783856    0.250796
  H      2.407596    3.547948   -1.833435
  H      1.413387    3.716439    2.329010
  H      2.136992    4.851272    0.251977
  C      3.472097   -1.403263   -0.248643
  C      4.393856   -0.206814   -0.122327
  C      4.162178   -2.486950   -0.619985
  C      5.794323   -0.844729   -0.101609
  H      4.187585    0.394326    0.764465
  C      5.625133   -2.203547   -0.807362
  H      6.553004   -0.213179   -0.565329
  H      6.097320   -1.015663    0.934042
  H      5.868144   -2.139835   -1.875452
  H      6.267858   -2.981430   -0.388096
  H      4.271238    0.459109   -0.981269
  H      1.589188   -2.416597    0.033920
  H      3.717408   -3.459186   -0.798913

 Total Charge           Charge          ....    0
 Multiplicity           Mult            ....    1
 Number of Electrons    NEL             ....  174
 Basis Dimension        Dim             .... 1564

ORBITAL ENERGIES
----------------

  NO   OCC          E(Eh)            E(eV)
   0   2.0000     -20.613536      -560.9228
   1   2.0000     -20.546028      -559.0858
   2   2.0000     -15.767223      -429.0479
   3   2.0000     -15.703964      -427.3266
   4   2.0000     -11.397170      -310.1328
   5   2.0000     -11.303271      -307.5777
   6   2.0000     -11.298503      -307.4479
   7   2.0000     -11.265831      -306.5589
   8   2.0000     -11.246035      -306.0202
   9   2.0000     -11.239920      -305.8538
  10   2.0000     -11.239097      -305.8314
  11   2.0000     -11.238838      -305.8243
  12   2.0000     -11.237663      -305.7924
  13   2.0000     -11.237067      -305.7761
  14   2.0000     -11.236853      -305.7703
  15   2.0000     -11.236693      -305.7660
  16   2.0000     -11.235070      -305.7218
  17   2.0000     -11.234621      -305.7096
  18   2.0000     -11.233478      -305.6785
  19   2.0000     -11.231176      -305.6158
  20   2.0000     -11.228327      -305.5383
  21   2.0000     -11.224149      -305.4246
  22   2.0000     -11.222760      -305.3868
  23   2.0000     -11.219782      -305.3058
  24   2.0000     -11.218493      -305.2707
  25   2.0000      -1.508672       -41.0530
  26   2.0000      -1.472707       -40.0744
  27   2.0000      -1.374273       -37.3959
  28   2.0000      -1.195400       -32.5285
  29   2.0000      -1.166544       -31.7433
  30   2.0000      -1.146197       -31.1896
  31   2.0000      -1.143594       -31.1188
  32   2.0000      -1.078575       -29.3495
  33   2.0000      -1.022536       -27.8246
  34   2.0000      -1.022339       -27.8193
  35   2.0000      -1.019967       -27.7547
  36   2.0000      -1.018904       -27.7258
  37   2.0000      -0.967545       -26.3282
  38   2.0000      -0.957877       -26.0651
  39   2.0000      -0.898837       -24.4586
  40   2.0000      -0.858666       -23.3655
  41   2.0000      -0.846585       -23.0367
  42   2.0000      -0.834379       -22.7046
  43   2.0000      -0.828855       -22.5543
  44   2.0000      -0.796227       -21.6664
  45   2.0000      -0.778811       -21.1925
  46   2.0000      -0.746836       -20.3225
  47   2.0000      -0.734960       -19.9993
  48   2.0000      -0.726823       -19.7779
  49   2.0000      -0.706233       -19.2176
  50   2.0000      -0.703774       -19.1507
  51   2.0000      -0.700803       -19.0698
  52   2.0000      -0.684381       -18.6229
  53   2.0000      -0.674781       -18.3617
  54   2.0000      -0.658976       -17.9316
  55   2.0000      -0.644373       -17.5343
  56   2.0000      -0.638977       -17.3875
  57   2.0000      -0.632328       -17.2065
  58   2.0000      -0.628389       -17.0993
  59   2.0000      -0.625908       -17.0318
  60   2.0000      -0.620765       -16.8919
  61   2.0000      -0.605883       -16.4869
  62   2.0000      -0.591351       -16.0915
  63   2.0000      -0.588152       -16.0044
  64   2.0000      -0.580409       -15.7937
  65   2.0000      -0.572053       -15.5664
  66   2.0000      -0.552432       -15.0324
  67   2.0000      -0.537538       -14.6272
  68   2.0000      -0.521625       -14.1941
  69   2.0000      -0.515328       -14.0228
  70   2.0000      -0.514332       -13.9957
  71   2.0000      -0.508225       -13.8295
  72   2.0000      -0.500890       -13.6299
  73   2.0000      -0.499142       -13.5824
  74   2.0000      -0.494081       -13.4446
  75   2.0000      -0.490215       -13.3394
  76   2.0000      -0.484017       -13.1708
  77   2.0000      -0.476819       -12.9749
  78   2.0000      -0.474064       -12.8999
  79   2.0000      -0.455586       -12.3971
  80   2.0000      -0.417388       -11.3577
  81   2.0000      -0.402188       -10.9441
  82   2.0000      -0.348480        -9.4826
  83   2.0000      -0.341439        -9.2910
  84   2.0000      -0.340086        -9.2542
  85   2.0000      -0.302276        -8.2253
  86   2.0000      -0.294718        -8.0197
  87   0.0000       0.025397         0.6911
  88   0.0000       0.027560         0.7499
  89   0.0000       0.029638         0.8065
  90   0.0000       0.032497         0.8843
  91   0.0000       0.036580         0.9954

MULLIKEN ATOMIC CHARGES
-----------------------
   0 C :   -0.196597
   1 C :   -0.709587
   2 C :   -1.130124
   3 C :    2.029868
   4 C :   -0.524552
   5 C :   -0.912106
   6 H :    0.472557
   7 H :    0.476339
   8 H :    0.079068
   9 H :    0.304536
  10 H :    0.372408
  11 C :    0.746134
  12 C :    0.830838
  13 O :   -1.272781
  14 O :   -0.512651
  15 N :    0.309110
  16 N :   -1.075094
  17 C :    0.495831
  18 C :   -1.544440
  19 C :    2.342560
  20 C :   -0.966553
  21 C :   -1.000063
  22 C :   -0.647306
  23 H :   -0.015463
  24 C :   -0.667244
  25 H :    0.014635
  26 C :   -0.032875
  27 H :    0.370682
  28 H :    0.377485
  29 H :    0.644786
  30 C :    2.465498
  31 C :   -0.439094
  32 C :   -1.388433
  33 C :   -0.839168
  34 H :    0.394385
  35 C :   -0.325370
  36 H :    0.287370
  37 H :    0.192546
  38 H :    0.241377
  39 H :    0.325124
  40 H :    0.297383
  41 H :   -0.262547
  42 H :    0.391527
Sum of atomic charges:    0.0000000

LOEWDIN ATOMIC CHARGES
----------------------
   0 C :    0.193728
   1 C :    0.194607
   2 C :    0.194581
   3 C :   -0.139791
   4 C :    0.219679
   5 C :    0.202776
   6 H :   -0.185316
   7 H :   -0.180638
   8 H :   -0.204058
   9 H :   -0.244154
  10 H :   -0.179169
  11 C :   -0.243216
  12 C :   -0.830373
  13 O :    0.510130
  14 O :    0.571806
  15 N :    0.003159
  16 N :    0.398204
  17 C :   -0.346269
  18 C :    0.240547
  19 C :   -0.158042
  20 C :    0.198807
  21 C :    0.218767
  22 C :    0.213290
  23 H :   -0.158506
  24 C :    0.204823
  25 H :   -0.167630
  26 C :    0.200638
  27 H :   -0.178526
  28 H :   -0.181611
  29 H :   -0.180748
  30 C :   -0.092702
  31 C :    0.289765
  32 C :    0.262581
  33 C :    0.309322
  34 H :   -0.144560
  35 C :    0.280335
  36 H :   -0.144050
  37 H :   -0.145620
  38 H :   -0.146837
  39 H :   -0.151748
  40 H :   -0.156997
  41 H :   -0.182635
  42 H :   -0.164346

  Mayer bond orders larger than 0.100000
B(  0-C ,  1-C ) :   1.1012 B(  0-C ,  2-C ) :  -0.1440 B(  0-C ,  5-C ) :   1.0829
B(  0-C ,  6-H ) :   0.7881 B(  0-C , 11-C ) :   0.1058 B(  1-C ,  2-C ) :   1.2875
B(  1-C ,  5-C ) :   0.1137 B(  1-C ,  6-H ) :  -0.1560 B(  1-C ,  7-H ) :   0.7318
B(  1-C , 11-C ) :   0.1198 B(  2-C ,  4-C ) :  -0.5718 B(  2-C ,  5-C ) :   0.2211
B(  2-C ,  6-H ) :   0.1326 B(  2-C ,  7-H ) :  -0.1452 B(  2-C ,  8-H ) :   1.5733
B(  2-C ,  9-H ) :   0.1738 B(  2-C , 11-C ) :   0.4521 B(  3-C ,  4-C ) :   0.6161
B(  3-C ,  7-H ) :  -0.1105 B(  3-C , 11-C ) :   0.4419 B(  3-C , 12-C ) :   0.2877
B(  3-C , 13-O ) :  -0.1749 B(  3-C , 15-N ) :  -0.3930 B(  3-C , 16-N ) :  -0.2059
B(  3-C , 19-C ) :   0.2019 B(  4-C ,  5-C ) :   1.0537 B(  4-C ,  9-H ) :   1.1588
B(  4-C , 11-C ) :  -0.1383 B(  4-C , 12-C ) :   0.2980 B(  5-C ,  6-H ) :  -0.1507
B(  5-C ,  9-H ) :  -0.1481 B(  5-C , 10-H ) :   0.9377 B(  6-H , 11-C ) :  -0.1239
B(  7-H , 11-C ) :   0.2866 B(  8-H , 11-C ) :  -0.2725 B(  9-H , 11-C ) :  -0.2760
B(  9-H , 12-C ) :   0.2173 B( 10-H , 11-C ) :   0.1344 B( 10-H , 12-C ) :  -0.1213
B( 11-C , 12-C ) :   0.8363 B( 11-C , 14-O ) :  -0.1714 B( 11-C , 15-N ) :   1.5760
B( 11-C , 16-N ) :  -0.3392 B( 11-C , 17-C ) :   0.1062 B( 11-C , 18-C ) :  -0.2225
B( 11-C , 19-C ) :  -0.1957 B( 11-C , 21-C ) :   0.1208 B( 12-C , 13-O ) :   1.1713
B( 12-C , 14-O ) :   0.9886 B( 12-C , 15-N ) :  -0.3112 B( 12-C , 17-C ) :  -0.2874
B( 12-C , 18-C ) :   0.1351 B( 14-O , 18-C ) :  -0.2634 B( 14-O , 19-C ) :  -0.1000
B( 14-O , 21-C ) :   0.1137 B( 14-O , 23-H ) :  -0.1232 B( 14-O , 25-H ) :   0.1553
B( 15-N , 16-N ) :   1.1600 B( 17-C , 18-C ) :   1.1479 B( 17-C , 19-C ) :   0.8398
B( 17-C , 20-C ) :   0.6891 B( 17-C , 21-C ) :   0.5050 B( 17-C , 23-H ) :   0.1458
B( 17-C , 27-H ) :  -0.2195 B( 17-C , 29-H ) :   0.1437 B( 17-C , 30-C ) :   0.2024
B( 17-C , 32-C ) :   0.2069 B( 17-C , 41-H ) :   0.1546 B( 18-C , 19-C ) :   0.1778
B( 18-C , 28-H ) :  -0.1506 B( 18-C , 30-C ) :  -0.9294 B( 18-C , 32-C ) :   0.6406
B( 18-C , 41-H ) :   2.3253 B( 19-C , 23-H ) :  -0.5130 B( 19-C , 25-H ) :  -0.5554
B( 19-C , 26-C ) :   0.1691 B( 19-C , 27-H ) :   0.1443 B( 20-C , 22-C ) :   1.5524
B( 20-C , 23-H ) :   1.6340 B( 20-C , 25-H ) :   0.2677 B( 20-C , 28-H ) :   0.1120
B( 21-C , 22-C ) :   0.1457 B( 21-C , 23-H ) :   0.2586 B( 21-C , 24-C ) :   1.2076
B( 21-C , 25-H ) :   1.5475 B( 22-C , 23-H ) :  -0.1199 B( 22-C , 26-C ) :   1.2699
B( 22-C , 27-H ) :   1.0070 B( 22-C , 29-H ) :  -0.1971 B( 23-H , 25-H ) :   0.1941
B( 24-C , 25-H ) :  -0.1964 B( 24-C , 26-C ) :   1.1779 B( 24-C , 28-H ) :   0.9312
B( 24-C , 29-H ) :  -0.1441 B( 26-C , 29-H ) :   0.5735 B( 30-C , 31-C ) :   0.5867
B( 30-C , 32-C ) :   0.2781 B( 30-C , 33-C ) :  -0.1734 B( 30-C , 41-H ) :  -0.6998
B( 31-C , 32-C ) :  -0.1390 B( 31-C , 33-C ) :   0.9055 B( 31-C , 34-H ) :   0.8910
B( 31-C , 40-H ) :   0.9643 B( 32-C , 33-C ) :   0.4102 B( 32-C , 35-C ) :   0.7226
B( 32-C , 41-H ) :  -0.1404 B( 32-C , 42-H ) :   0.8723 B( 33-C , 35-C ) :   1.0213
B( 33-C , 36-H ) :   0.9394 B( 33-C , 37-H ) :   1.0730 B( 35-C , 38-H ) :   0.9699
B( 35-C , 39-H ) :   0.9308

MP2 TOTAL ENERGY:    -1068.876895541 Eh
FINAL SINGLE POINT ENERGY     -1068.876895540678

DIPOLE MOMENT
-------------
                                X             Y             Z
Electronic contribution:    -19.64999      -2.30224       6.07906
Nuclear contribution   :     19.86068       2.40140      -5.66109
                        -----------------------------------------
Total Dipole Moment    :      0.21069       0.09916       0.41797
                        -----------------------------------------
Magnitude (a.u.)       :      0.47846
Magnitude (Debye)      :      1.21615

Rotational constants in cm-1:     0.013587     0.003687     0.003371
Rotational constants in MHz :   407.337665   110.531194   101.064282

                             ****ORCA TERMINATED NORMALLY****
TOTAL RUN TIME: 0 days 1 hours 23 minutes 53 seconds 918 msec
