                         Program Version 4.2.1 -  RELEASE  -
|  1> %pal
|  2>  nprocs 32
|  3> end
|  4> !RI-MP2 aug-cc-pVTZ aug-cc-pVTZ/C TightSCF
|  5> %maxcore 4500
|  6> *xyzfile 0 1  10_65P.xyz
|  7>
|  8>
|  9>                          ****END OF INPUT****

CARTESIAN COORDINATES (ANGSTROEM)
---------------------------------
  C     -0.649929   -0.305438    0.569209
  C      0.285011    0.682477    1.242351
  C     -0.146668   -1.567977    0.041945
  C      1.163610    0.052446    2.295102
  C      1.106871   -2.036099    0.076080
  C      2.098532   -0.841866    2.028068
  C      2.342992   -1.406047    0.650422
  H      1.026658    0.403742    3.311918
  H      2.724990   -1.214012    2.831489
  C      1.610996    1.027639   -2.017608
  C      1.127025    1.477849    0.202415
  H     -0.328163    1.426799    1.744457
  C      1.947893    0.655097   -0.772467
  C      0.291201    2.346091   -0.696732
  C      0.588737    2.076548   -1.971298
  H     -0.430927    3.060796   -0.328576
  H      0.158120    2.551088   -2.842734
  C      2.969916   -0.373947   -0.363346
  C      3.468676   -1.153279   -1.584274
  C      4.176545    0.308434    0.299788
  H      3.884089    0.901418    1.165736
  H      4.670132    0.969168   -0.415153
  H      4.903378   -0.438771    0.631261
  H      2.651132   -1.648983   -2.109927
  H      4.191579   -1.912744   -1.277448
  H      3.969054   -0.487371   -2.289266
  C     -1.967163    0.031866    0.446792
  C     -2.426798    1.285656    0.965552
  N     -2.768462    2.297474    1.390904
  C     -3.021616   -0.788469   -0.214975
  O     -2.897988   -1.887642   -0.694244
  O     -4.186167   -0.130659   -0.216001
  C     -5.290316   -0.807482   -0.821435
  H     -5.078025   -1.015530   -1.869798
  H     -5.489774   -1.745208   -0.303440
  H     -6.132572   -0.128140   -0.726342
  H      1.797668    2.118270    0.788311
  H      2.020876    0.627131   -2.933929
  H     -0.888531   -2.189778   -0.433402
  H      1.258153   -2.999525   -0.400781
  H      3.091550   -2.195251    0.749721

 Total Charge           Charge          ....    0
 Multiplicity           Mult            ....    1
 Number of Electrons    NEL             ....  156
 Basis Dimension        Dim             .... 1449

ORBITAL ENERGIES
----------------

  NO   OCC          E(Eh)            E(eV)
   0   2.0000     -20.607987      -560.7718
   1   2.0000     -20.547635      -559.1296
   2   2.0000     -15.558062      -423.3564
   3   2.0000     -11.394381      -310.0569
   4   2.0000     -11.307025      -307.6798
   5   2.0000     -11.286721      -307.1273
   6   2.0000     -11.279273      -306.9246
   7   2.0000     -11.268254      -306.6248
   8   2.0000     -11.263070      -306.4837
   9   2.0000     -11.261880      -306.4513
  10   2.0000     -11.261404      -306.4384
  11   2.0000     -11.255703      -306.2832
  12   2.0000     -11.250662      -306.1461
  13   2.0000     -11.242764      -305.9312
  14   2.0000     -11.240020      -305.8565
  15   2.0000     -11.236131      -305.7507
  16   2.0000     -11.235544      -305.7347
  17   2.0000     -11.229863      -305.5801
  18   2.0000     -11.227689      -305.5209
  19   2.0000     -11.224712      -305.4400
  20   2.0000     -11.224426      -305.4322
  21   2.0000     -11.223536      -305.4079
  22   2.0000      -1.473509       -40.0962
  23   2.0000      -1.368134       -37.2288
  24   2.0000      -1.220835       -33.2206
  25   2.0000      -1.195226       -32.5238
  26   2.0000      -1.148504       -31.2524
  27   2.0000      -1.132464       -30.8159
  28   2.0000      -1.086493       -29.5650
  29   2.0000      -1.061108       -28.8742
  30   2.0000      -1.025609       -27.9082
  31   2.0000      -0.979353       -26.6495
  32   2.0000      -0.970640       -26.4125
  33   2.0000      -0.951101       -25.8808
  34   2.0000      -0.947192       -25.7744
  35   2.0000      -0.899508       -24.4768
  36   2.0000      -0.875692       -23.8288
  37   2.0000      -0.823042       -22.3961
  38   2.0000      -0.805833       -21.9278
  39   2.0000      -0.764848       -20.8126
  40   2.0000      -0.756088       -20.5742
  41   2.0000      -0.739903       -20.1338
  42   2.0000      -0.723770       -19.6948
  43   2.0000      -0.717146       -19.5145
  44   2.0000      -0.698380       -19.0039
  45   2.0000      -0.680353       -18.5134
  46   2.0000      -0.676444       -18.4070
  47   2.0000      -0.669082       -18.2066
  48   2.0000      -0.646550       -17.5935
  49   2.0000      -0.634142       -17.2559
  50   2.0000      -0.624798       -17.0016
  51   2.0000      -0.609249       -16.5785
  52   2.0000      -0.600659       -16.3448
  53   2.0000      -0.593303       -16.1446
  54   2.0000      -0.585126       -15.9221
  55   2.0000      -0.568342       -15.4654
  56   2.0000      -0.565444       -15.3865
  57   2.0000      -0.556784       -15.1509
  58   2.0000      -0.551202       -14.9990
  59   2.0000      -0.544552       -14.8180
  60   2.0000      -0.538407       -14.6508
  61   2.0000      -0.537321       -14.6213
  62   2.0000      -0.533200       -14.5091
  63   2.0000      -0.514476       -13.9996
  64   2.0000      -0.506624       -13.7859
  65   2.0000      -0.503781       -13.7086
  66   2.0000      -0.496512       -13.5108
  67   2.0000      -0.486288       -13.2326
  68   2.0000      -0.478700       -13.0261
  69   2.0000      -0.472201       -12.8492
  70   2.0000      -0.470261       -12.7965
  71   2.0000      -0.457865       -12.4591
  72   2.0000      -0.436685       -11.8828
  73   2.0000      -0.427691       -11.6381
  74   2.0000      -0.419810       -11.4236
  75   2.0000      -0.366047        -9.9607
  76   2.0000      -0.337930        -9.1956
  77   2.0000      -0.306372        -8.3368
  78   0.0000       0.020878         0.5681
  79   0.0000       0.027199         0.7401
  80   0.0000       0.030375         0.8265
  81   0.0000       0.031199         0.8490
  82   0.0000       0.036867         1.0032

MULLIKEN ATOMIC CHARGES
-----------------------
   0 C :    0.072306
   1 C :    0.308248
   2 C :   -1.039597
   3 C :   -0.479886
   4 C :   -0.541070
   5 C :   -0.564939
   6 C :    1.099778
   7 H :    0.134432
   8 H :    0.098891
   9 C :   -1.150616
  10 C :   -0.104994
  11 H :   -0.477605
  12 C :    1.526179
  13 C :   -0.466049
  14 C :   -1.185030
  15 H :    0.438860
  16 H :    0.700636
  17 C :    1.309036
  18 C :   -1.512325
  19 C :   -1.497083
  20 H :    0.357651
  21 H :    0.215818
  22 H :    0.197752
  23 H :    0.316171
  24 H :    0.162135
  25 H :    0.227507
  26 C :    1.195065
  27 C :    1.910559
  28 N :   -1.214460
  29 C :    0.629011
  30 O :   -1.037170
  31 O :   -0.476904
  32 C :   -0.955732
  33 H :    0.401810
  34 H :    0.419327
  35 H :    0.340726
  36 H :    0.436048
  37 H :    0.245427
  38 H :   -0.433271
  39 H :    0.203037
  40 H :    0.190321
Sum of atomic charges:   -0.0000000

LOEWDIN ATOMIC CHARGES
----------------------
   0 C :   -0.034971
   1 C :    0.022323
   2 C :    0.275094
   3 C :    0.274969
   4 C :    0.283115
   5 C :    0.250461
   6 C :    0.008435
   7 H :   -0.158163
   8 H :   -0.155971
   9 C :    0.257261
  10 C :    0.001780
  11 H :   -0.210671
  12 C :   -0.050584
  13 C :    0.248113
  14 C :    0.242995
  15 H :   -0.167944
  16 H :   -0.175106
  17 C :   -0.291439
  18 C :    0.579681
  19 C :    0.603331
  20 H :   -0.168366
  21 H :   -0.146725
  22 H :   -0.145179
  23 H :   -0.155909
  24 H :   -0.148715
  25 H :   -0.155354
  26 C :   -0.106564
  27 C :   -0.304024
  28 N :    0.321326
  29 C :   -0.821728
  30 O :    0.509939
  31 O :    0.568148
  32 C :    0.369275
  33 H :   -0.178084
  34 H :   -0.177887
  35 H :   -0.181468
  36 H :   -0.114595
  37 H :   -0.173632
  38 H :   -0.291749
  39 H :   -0.151015
  40 H :   -0.150402

  Mayer bond orders larger than 0.100000
B(  0-C ,  1-C ) :   1.1878 B(  0-C ,  2-C ) :  -0.2052 B(  0-C ,  3-C ) :   0.4125
B(  0-C ,  4-C ) :   0.8217 B(  0-C ,  6-C ) :  -0.1898 B(  0-C ,  9-C ) :  -0.1101
B(  0-C , 10-C ) :   0.4628 B(  0-C , 11-H ) :   0.4652 B(  0-C , 12-C ) :   0.1772
B(  0-C , 14-C ) :  -0.1668 B(  0-C , 26-C ) :   0.3667 B(  0-C , 27-C ) :  -0.5116
B(  0-C , 28-N ) :   0.1796 B(  0-C , 29-C ) :   0.8604 B(  0-C , 30-O ) :   0.1107
B(  0-C , 31-O ) :   0.1278 B(  0-C , 38-H ) :  -0.3532 B(  0-C , 39-H ) :   0.1122
B(  1-C ,  2-C ) :  -0.1030 B(  1-C ,  3-C ) :   0.5882 B(  1-C ,  5-C ) :   0.3188
B(  1-C ,  6-C ) :   0.3221 B(  1-C , 10-C ) :   0.8714 B(  1-C , 11-H ) :   1.0899
B(  1-C , 27-C ) :   0.2610 B(  1-C , 29-C ) :  -0.1199 B(  1-C , 38-H ) :  -0.1323
B(  2-C ,  3-C ) :  -0.4123 B(  2-C ,  4-C ) :   0.4152 B(  2-C ,  5-C ) :  -0.3210
B(  2-C ,  8-H ) :   0.3222 B(  2-C ,  9-C ) :  -0.1208 B(  2-C , 12-C ) :  -0.2677
B(  2-C , 14-C ) :   0.2054 B(  2-C , 26-C ) :   0.6636 B(  2-C , 27-C ) :  -0.2849
B(  2-C , 38-H ) :   2.9913 B(  2-C , 39-H ) :  -0.2148 B(  3-C ,  4-C ) :   0.2554
B(  3-C ,  5-C ) :   1.5322 B(  3-C ,  6-C ) :  -0.1337 B(  3-C ,  7-H ) :   1.2140
B(  3-C ,  8-H ) :  -0.1902 B(  3-C , 10-C ) :   0.2526 B(  3-C , 11-H ) :  -0.2783
B(  3-C , 13-C ) :  -0.1230 B(  3-C , 38-H ) :   0.1238 B(  3-C , 40-H ) :  -0.1089
B(  4-C ,  6-C ) :   0.6532 B(  4-C ,  8-H ) :  -0.2246 B(  4-C ,  9-C ) :   0.3955
B(  4-C , 12-C ) :  -0.2164 B(  4-C , 17-C ) :   0.4819 B(  4-C , 26-C ) :  -0.2267
B(  4-C , 29-C ) :   0.1641 B(  4-C , 38-H ) :  -0.5131 B(  4-C , 39-H ) :   1.0915
B(  5-C ,  7-H ) :  -0.1416 B(  5-C ,  8-H ) :   1.2992 B(  5-C ,  9-C ) :   0.1124
B(  5-C , 17-C ) :   0.3761 B(  5-C , 26-C ) :   0.2070 B(  5-C , 38-H ) :  -0.1791
B(  5-C , 40-H ) :  -0.1885 B(  6-C ,  8-H ) :  -0.2579 B(  6-C , 12-C ) :   0.1097
B(  6-C , 17-C ) :   1.1304 B(  6-C , 18-C ) :   0.1531 B(  6-C , 38-H ) :   0.1575
B(  6-C , 39-H ) :  -0.2269 B(  6-C , 40-H ) :   0.9309 B(  7-H , 26-C ) :   0.1489
B(  9-C , 10-C ) :   0.1029 B(  9-C , 12-C ) :   0.3231 B(  9-C , 13-C ) :   0.3178
B(  9-C , 14-C ) :   0.9157 B(  9-C , 15-H ) :   0.1504 B(  9-C , 37-H ) :   1.3113
B(  9-C , 38-H ) :  -0.2368 B(  9-C , 39-H ) :   0.1463 B( 10-C , 12-C ) :   0.8843
B( 10-C , 13-C ) :   0.6018 B( 10-C , 14-C ) :   0.4174 B( 10-C , 17-C ) :   0.2982
B( 10-C , 26-C ) :  -0.1413 B( 10-C , 36-H ) :   1.0455 B( 11-H , 13-C ) :   0.2130
B( 11-H , 26-C ) :  -0.8144 B( 11-H , 27-C ) :   0.1648 B( 11-H , 29-C ) :   0.1292
B( 12-C , 13-C ) :  -0.1902 B( 12-C , 16-H ) :  -0.1158 B( 12-C , 17-C ) :   0.9660
B( 12-C , 18-C ) :  -0.1388 B( 12-C , 19-C ) :  -0.1507 B( 13-C , 14-C ) :   1.1687
B( 13-C , 15-H ) :   0.9353 B( 13-C , 26-C ) :   0.1147 B( 13-C , 27-C ) :  -0.1487
B( 13-C , 36-H ) :  -0.5107 B( 14-C , 16-H ) :   0.3571 B( 17-C , 18-C ) :   0.1115
B( 17-C , 20-H ) :  -0.1671 B( 17-C , 21-H ) :  -0.1486 B( 17-C , 22-H ) :  -0.1671
B( 17-C , 23-H ) :  -0.1593 B( 17-C , 24-H ) :  -0.1210 B( 17-C , 25-H ) :  -0.1971
B( 18-C , 19-C ) :   0.1309 B( 18-C , 23-H ) :   1.1369 B( 18-C , 24-H ) :   1.1476
B( 18-C , 25-H ) :   1.2216 B( 18-C , 37-H ) :  -0.1095 B( 19-C , 20-H ) :   1.0472
B( 19-C , 21-H ) :   1.1659 B( 19-C , 22-H ) :   1.1899 B( 26-C , 27-C ) :   1.5084
B( 26-C , 28-N ) :   0.4755 B( 26-C , 29-C ) :  -0.6470 B( 26-C , 30-O ) :   0.1806
B( 26-C , 31-O ) :  -0.1765 B( 26-C , 38-H ) :  -0.3565 B( 27-C , 28-N ) :   0.9268
B( 27-C , 29-C ) :  -0.3014 B( 27-C , 30-O ) :  -0.1317 B( 27-C , 31-O ) :  -0.1678
B( 27-C , 38-H ) :  -0.1947 B( 29-C , 30-O ) :   0.8722 B( 29-C , 31-O ) :   0.9966
B( 29-C , 32-C ) :  -0.1965 B( 29-C , 38-H ) :   0.1091 B( 30-O , 38-H ) :  -0.2477
B( 31-O , 32-C ) :   0.9424 B( 32-C , 33-H ) :   0.8615 B( 32-C , 34-H ) :   0.8539
B( 32-C , 35-H ) :   0.9212

MP2 TOTAL ENERGY:     -938.747039766 Eh
FINAL SINGLE POINT ENERGY      -938.747039766191

DIPOLE MOMENT
-------------
                                X             Y             Z
Electronic contribution:    -16.42149       2.97954       4.31540
Nuclear contribution   :     17.84791      -3.93005      -4.70788
                        -----------------------------------------
Total Dipole Moment    :      1.42642      -0.95050      -0.39247
                        -----------------------------------------
Magnitude (a.u.)       :      1.75845
Magnitude (Debye)      :      4.46963

Rotational constants in cm-1:     0.018332     0.006966     0.006627
Rotational constants in MHz :   549.573175   208.835951   198.684372

                             ****ORCA TERMINATED NORMALLY****
TOTAL RUN TIME: 0 days 1 hours 28 minutes 20 seconds 642 msec
