                         Program Version 4.2.1 -  RELEASE  -
|  1> %pal
|  2>  nprocs 32
|  3> end
|  4> !RI-MP2 aug-cc-pVTZ aug-cc-pVTZ/C TightSCF
|  5> %maxcore 4500
|  6> *xyzfile 0 1  07_9TS.xyz
|  7>
|  8>
|  9>                          ****END OF INPUT****

CARTESIAN COORDINATES (ANGSTROEM)
---------------------------------
  C     -0.263747    0.671655   -0.001449
  C      0.997542    1.306885    0.009377
  C      2.130157    0.538183    0.010701
  C      2.046464   -0.865107    0.002736
  C      0.801051   -1.430688   -0.005809
  N     -0.313788   -0.682447   -0.005285
  H      3.102222    1.017359    0.016862
  H      1.026091    2.387335    0.013088
  H      2.931443   -1.484825    0.001163
  H      0.651010   -2.503205   -0.014505
  O     -1.377404    1.319459   -0.007291
  H     -2.222693    0.510212   -0.022766
  O     -2.716810   -0.644037   -0.078669
  H     -1.501438   -0.995185   -0.003252
  H     -3.305209   -0.883509    0.640757

 Total Charge           Charge          ....    0
 Multiplicity           Mult            ....    1
 Number of Electrons    NEL             ....   60
 Basis Dimension        Dim             ....  529

ORBITAL ENERGIES
----------------

  NO   OCC          E(Eh)            E(eV)
   0   2.0000     -20.548352      -559.1491
   1   2.0000     -20.522402      -558.4430
   2   2.0000     -15.600228      -424.5038
   3   2.0000     -11.359300      -309.1023
   4   2.0000     -11.306636      -307.6692
   5   2.0000     -11.278272      -306.8974
   6   2.0000     -11.243690      -305.9564
   7   2.0000     -11.243160      -305.9419
   8   2.0000      -1.409837       -38.3636
   9   2.0000      -1.296225       -35.2721
  10   2.0000      -1.274474       -34.6802
  11   2.0000      -1.111013       -30.2322
  12   2.0000      -1.039620       -28.2895
  13   2.0000      -0.896686       -24.4001
  14   2.0000      -0.864181       -23.5156
  15   2.0000      -0.757879       -20.6229
  16   2.0000      -0.745998       -20.2996
  17   2.0000      -0.691323       -18.8118
  18   2.0000      -0.662248       -18.0207
  19   2.0000      -0.642882       -17.4937
  20   2.0000      -0.619455       -16.8562
  21   2.0000      -0.609944       -16.5974
  22   2.0000      -0.578420       -15.7396
  23   2.0000      -0.555211       -15.1081
  24   2.0000      -0.521523       -14.1914
  25   2.0000      -0.506808       -13.7910
  26   2.0000      -0.458514       -12.4768
  27   2.0000      -0.436924       -11.8893
  28   2.0000      -0.417554       -11.3622
  29   2.0000      -0.331572        -9.0225
  30   0.0000       0.022798         0.6204
  31   0.0000       0.030521         0.8305
  32   0.0000       0.036443         0.9917
  33   0.0000       0.048898         1.3306
  34   0.0000       0.051099         1.3905

MULLIKEN ATOMIC CHARGES
-----------------------
   0 C :    0.584604
   1 C :   -0.278304
   2 C :   -0.669603
   3 C :   -0.188820
   4 C :   -0.665931
   5 N :   -0.159848
   6 H :    0.573507
   7 H :    0.295258
   8 H :    0.286268
   9 H :    0.587695
  10 O :   -0.779821
  11 H :    0.328853
  12 O :   -0.496049
  13 H :    0.479662
  14 H :    0.102530
Sum of atomic charges:   -0.0000000

LOEWDIN ATOMIC CHARGES
----------------------
   0 C :   -0.510018
   1 C :    0.240576
   2 C :    0.193613
   3 C :    0.203555
   4 C :    0.117392
   5 N :    0.509090
   6 H :   -0.165295
   7 H :   -0.184743
   8 H :   -0.195930
   9 H :   -0.159749
  10 O :    0.741801
  11 H :   -0.766860
  12 O :    1.030410
  13 H :   -0.588237
  14 H :   -0.465606

  Mayer bond orders larger than 0.100000
B(  0-C ,  1-C ) :   0.7424 B(  0-C ,  2-C ) :   0.1441 B(  0-C ,  3-C ) :  -0.1137
B(  0-C ,  4-C ) :   0.2235 B(  0-C ,  5-N ) :   1.3027 B(  0-C , 10-O ) :   0.9297
B(  1-C ,  2-C ) :   1.4536 B(  1-C ,  7-H ) :   1.0064 B(  2-C ,  3-C ) :   1.1074
B(  2-C ,  4-C ) :   0.2434 B(  2-C ,  6-H ) :   0.6171 B(  2-C ,  8-H ) :  -0.1206
B(  3-C ,  4-C ) :   0.8181 B(  3-C ,  5-N ) :  -0.2431 B(  3-C ,  8-H ) :   1.1002
B(  4-C ,  5-N ) :   1.3648 B(  4-C ,  7-H ) :   0.1271 B(  4-C ,  9-H ) :   0.5328
B(  5-N , 13-H ) :   0.4806 B( 10-O , 11-H ) :   0.5466 B( 11-H , 12-O ) :   0.4445
B( 12-O , 13-H ) :   0.3383 B( 12-O , 14-H ) :   1.0813

MP2 TOTAL ENERGY:     -399.247369926 Eh
FINAL SINGLE POINT ENERGY      -399.247369926139

DIPOLE MOMENT
-------------
                                X             Y             Z
Electronic contribution:      0.73009       1.26023      -0.12122
Nuclear contribution   :      0.61270      -1.93775       0.62756
                        -----------------------------------------
Total Dipole Moment    :      1.34279      -0.67753       0.50634
                        -----------------------------------------
Magnitude (a.u.)       :      1.58698
Magnitude (Debye)      :      4.03378

Rotational constants in cm-1:     0.138405     0.053723     0.038790
Rotational constants in MHz :  4149.272795  1610.575549  1162.894314

                             ****ORCA TERMINATED NORMALLY****
TOTAL RUN TIME: 0 days 0 hours 2 minutes 21 seconds 609 msec
