                         Program Version 4.2.1 -  RELEASE  -
|  1> %pal
|  2>  nprocs 32
|  3> end
|  4> !RI-MP2 aug-cc-pVTZ aug-cc-pVTZ/C TightSCF
|  5> %maxcore 4500
|  6> *xyzfile 0 1  05_18TS.xyz
|  7>
|  8>
|  9>                          ****END OF INPUT****

CARTESIAN COORDINATES (ANGSTROEM)
---------------------------------
  C      1.290956   -3.097931   -0.357344
  C      1.621286   -2.751874   -1.692983
  C      2.173558   -1.538190   -1.940145
  N      2.635907   -0.742598   -0.935603
  C      2.582653   -1.183779    0.351835
  C      1.992997   -2.362008    0.670270
  C      1.870758   -2.838574    2.072957
  O      0.954431   -3.567736    2.399423
  N      2.799374   -2.383342    2.963750
  C      2.817785    0.686593   -1.201241
  C      1.554933    1.498075   -0.885924
  C      2.158700    2.858834   -0.610966
  C      3.423347    2.493946    0.158552
  O      3.827371    1.206287   -0.380467
  H      3.073983    0.774826   -2.261313
  C      4.565492    3.470147    0.040944
  H      3.148425    2.354000    1.209481
  H      4.257809    4.438946    0.439556
  H      4.856065    3.595190   -1.003999
  H      5.432851    3.122380    0.603590
  O      1.347858    3.702654    0.167999
  H      2.413704    3.335900   -1.567092
  O      0.594222    1.515029   -1.882494
  H      1.140173    1.125912    0.061040
  H      0.085625    0.665082   -1.813137
  H      0.495741    3.790822   -0.272227
  H      3.698564   -2.057925    2.651437
  H      2.738087   -2.753702    3.899548
  H      2.294232   -1.148423   -2.940806
  H      1.291448   -3.356962   -2.524576
  H      3.027996   -0.517933    1.077369
  H     -0.083849   -2.522425   -0.311722
  H      0.973378   -4.104269   -0.112295
  C     -4.355977    0.735828   -0.042480
  C     -4.267062    1.919824    0.683776
  C     -3.122125    2.183661    1.411072
  C     -2.054995    1.281544    1.442311
  C     -2.139166    0.103707    0.735777
  C     -3.288399   -0.190496   -0.029589
  C     -3.372745   -1.393723   -0.847677
  C     -2.190492   -2.335543   -0.879567
  C     -0.892069   -1.585253   -0.581758
  H     -2.158889   -2.801032   -1.864002
  H     -2.374043   -3.113645   -0.130017
  C     -1.008264   -0.889462    0.776456
  H     -1.197350   -1.634175    1.556425
  H     -0.078014   -0.383229    1.033007
  H     -5.098327    2.614227    0.652420
  H     -1.177339    1.530422    2.024514
  O     -4.377576   -1.660251   -1.507677
  O     -0.390301   -0.911327   -1.563547
  O     -2.972857    3.326447    2.124748
  H     -3.758776    3.874246    2.038904
  O     -5.466226    0.515836   -0.743857
  H     -5.350869   -0.354144   -1.201808

 Total Charge           Charge          ....    0
 Multiplicity           Mult            ....    1
 Number of Electrons    NEL             ....  228
 Basis Dimension        Dim             .... 1978

ORBITAL ENERGIES
----------------

  NO   OCC          E(Eh)            E(eV)
   0   2.0000     -20.600695      -560.5734
   1   2.0000     -20.593669      -560.3822
   2   2.0000     -20.572464      -559.8052
   3   2.0000     -20.566932      -559.6547
   4   2.0000     -20.545097      -559.0605
   5   2.0000     -20.542400      -558.9871
   6   2.0000     -20.534838      -558.7814
   7   2.0000     -20.478958      -557.2608
   8   2.0000     -15.660551      -426.1452
   9   2.0000     -15.607197      -424.6934
  10   2.0000     -11.381069      -309.6946
  11   2.0000     -11.353268      -308.9381
  12   2.0000     -11.336755      -308.4888
  13   2.0000     -11.332338      -308.3686
  14   2.0000     -11.329994      -308.3048
  15   2.0000     -11.318473      -307.9913
  16   2.0000     -11.318330      -307.9874
  17   2.0000     -11.315645      -307.9144
  18   2.0000     -11.304294      -307.6055
  19   2.0000     -11.297067      -307.4088
  20   2.0000     -11.293484      -307.3113
  21   2.0000     -11.291041      -307.2448
  22   2.0000     -11.277354      -306.8724
  23   2.0000     -11.262362      -306.4645
  24   2.0000     -11.260734      -306.4201
  25   2.0000     -11.231807      -305.6330
  26   2.0000     -11.229949      -305.5825
  27   2.0000     -11.224617      -305.4374
  28   2.0000     -11.219817      -305.3067
  29   2.0000     -11.216697      -305.2218
  30   2.0000     -11.214180      -305.1533
  31   2.0000      -1.435508       -39.0621
  32   2.0000      -1.419660       -38.6309
  33   2.0000      -1.411456       -38.4077
  34   2.0000      -1.407696       -38.3054
  35   2.0000      -1.383028       -37.6341
  36   2.0000      -1.370245       -37.2863
  37   2.0000      -1.359128       -36.9837
  38   2.0000      -1.343989       -36.5718
  39   2.0000      -1.309434       -35.6315
  40   2.0000      -1.237499       -33.6741
  41   2.0000      -1.159579       -31.5537
  42   2.0000      -1.153365       -31.3847
  43   2.0000      -1.098313       -29.8866
  44   2.0000      -1.075573       -29.2678
  45   2.0000      -1.072014       -29.1710
  46   2.0000      -1.046305       -28.4714
  47   2.0000      -1.028645       -27.9908
  48   2.0000      -1.001685       -27.2572
  49   2.0000      -0.967203       -26.3189
  50   2.0000      -0.963379       -26.2149
  51   2.0000      -0.943205       -25.6659
  52   2.0000      -0.906137       -24.6573
  53   2.0000      -0.861846       -23.4520
  54   2.0000      -0.847036       -23.0490
  55   2.0000      -0.836129       -22.7522
  56   2.0000      -0.832900       -22.6644
  57   2.0000      -0.819639       -22.3035
  58   2.0000      -0.805935       -21.9306
  59   2.0000      -0.780535       -21.2394
  60   2.0000      -0.754199       -20.5228
  61   2.0000      -0.751483       -20.4489
  62   2.0000      -0.745568       -20.2879
  63   2.0000      -0.736042       -20.0287
  64   2.0000      -0.727796       -19.8043
  65   2.0000      -0.717453       -19.5229
  66   2.0000      -0.697666       -18.9845
  67   2.0000      -0.689962       -18.7748
  68   2.0000      -0.683735       -18.6054
  69   2.0000      -0.679264       -18.4837
  70   2.0000      -0.678636       -18.4666
  71   2.0000      -0.667845       -18.1730
  72   2.0000      -0.658575       -17.9207
  73   2.0000      -0.651108       -17.7175
  74   2.0000      -0.649995       -17.6873
  75   2.0000      -0.635424       -17.2908
  76   2.0000      -0.630525       -17.1575
  77   2.0000      -0.625494       -17.0206
  78   2.0000      -0.620180       -16.8759
  79   2.0000      -0.613229       -16.6868
  80   2.0000      -0.604562       -16.4510
  81   2.0000      -0.600552       -16.3419
  82   2.0000      -0.595116       -16.1939
  83   2.0000      -0.590527       -16.0691
  84   2.0000      -0.582934       -15.8624
  85   2.0000      -0.578832       -15.7508
  86   2.0000      -0.576490       -15.6871
  87   2.0000      -0.573691       -15.6109
  88   2.0000      -0.570127       -15.5139
  89   2.0000      -0.559117       -15.2144
  90   2.0000      -0.558440       -15.1959
  91   2.0000      -0.556888       -15.1537
  92   2.0000      -0.551289       -15.0013
  93   2.0000      -0.545592       -14.8463
  94   2.0000      -0.544119       -14.8062
  95   2.0000      -0.538166       -14.6442
  96   2.0000      -0.525471       -14.2988
  97   2.0000      -0.512806       -13.9542
  98   2.0000      -0.496812       -13.5190
  99   2.0000      -0.493426       -13.4268
 100   2.0000      -0.487124       -13.2553
 101   2.0000      -0.464700       -12.6451
 102   2.0000      -0.458136       -12.4665
 103   2.0000      -0.456412       -12.4196
 104   2.0000      -0.451136       -12.2760
 105   2.0000      -0.447337       -12.1727
 106   2.0000      -0.436461       -11.8767
 107   2.0000      -0.422021       -11.4838
 108   2.0000      -0.412508       -11.2249
 109   2.0000      -0.385314       -10.4849
 110   2.0000      -0.377667       -10.2768
 111   2.0000      -0.329515        -8.9666
 112   2.0000      -0.321254        -8.7418
 113   2.0000      -0.310588        -8.4515
 114   0.0000       0.013158         0.3580
 115   0.0000       0.022561         0.6139
 116   0.0000       0.025076         0.6824
 117   0.0000       0.029178         0.7940
 118   0.0000       0.034402         0.9361

MULLIKEN ATOMIC CHARGES
-----------------------
   0 C :    0.024561
   1 C :   -1.033429
   2 C :   -0.040331
   3 N :   -0.398729
   4 C :   -0.403803
   5 C :    0.539263
   6 C :    1.341784
   7 O :   -1.133624
   8 N :   -0.621300
   9 C :    0.042113
  10 C :    1.169701
  11 C :    0.281154
  12 C :    0.533407
  13 O :   -1.040260
  14 H :    0.426902
  15 C :   -1.269335
  16 H :    0.354895
  17 H :    0.287060
  18 H :    0.278379
  19 H :    0.268968
  20 O :   -0.950368
  21 H :    0.247123
  22 O :   -1.410084
  23 H :    0.356673
  24 H :    0.434144
  25 H :    0.182551
  26 H :    0.107066
  27 H :    0.166384
  28 H :    0.370834
  29 H :    0.302315
  30 H :    0.476489
  31 H :    0.101167
  32 H :    0.743117
  33 C :    0.502250
  34 C :   -0.949077
  35 C :    0.767023
  36 C :   -0.927191
  37 C :    1.196396
  38 C :    0.281479
  39 C :    0.726691
  40 C :   -0.493829
  41 C :    1.563646
  42 H :    0.147124
  43 H :    0.280279
  44 C :   -0.736036
  45 H :    0.362440
  46 H :    0.500135
  47 H :    0.440201
  48 H :    0.096571
  49 O :   -1.338278
  50 O :   -1.481121
  51 O :   -0.818943
  52 H :    0.140040
  53 O :   -1.177918
  54 H :    0.183332
Sum of atomic charges:   -0.0000000

LOEWDIN ATOMIC CHARGES
----------------------
   0 C :    0.214849
   1 C :    0.252725
   2 C :    0.158855
   3 N :    0.293950
   4 C :    0.166309
   5 C :   -0.072974
   6 C :   -0.681863
   7 O :    0.467565
   8 N :    0.860829
   9 C :   -0.307457
  10 C :   -0.261101
  11 C :   -0.250508
  12 C :   -0.234666
  13 O :    0.634558
  14 H :   -0.122444
  15 C :    0.606525
  16 H :   -0.129971
  17 H :   -0.157235
  18 H :   -0.161847
  19 H :   -0.163741
  20 O :    0.857164
  21 H :   -0.116103
  22 O :    0.872787
  23 H :   -0.148817
  24 H :   -0.732067
  25 H :   -0.463962
  26 H :   -0.304311
  27 H :   -0.284231
  28 H :   -0.124876
  29 H :   -0.152196
  30 H :   -0.155299
  31 H :   -0.306917
  32 H :   -0.120512
  33 C :   -0.357479
  34 C :    0.243720
  35 C :   -0.376534
  36 C :    0.241461
  37 C :   -0.091210
  38 C :   -0.047293
  39 C :   -0.433541
  40 C :    0.332263
  41 C :   -0.515901
  42 H :   -0.144009
  43 H :   -0.131286
  44 C :    0.310229
  45 H :   -0.122875
  46 H :   -0.177197
  47 H :   -0.182990
  48 H :   -0.178695
  49 O :    0.570168
  50 O :    0.574568
  51 O :    0.858111
  52 H :   -0.470990
  53 O :    0.874732
  54 H :   -0.708273

  Mayer bond orders larger than 0.100000
B(  0-C ,  1-C ) :   0.9844 B(  0-C ,  2-C ) :   0.2458 B(  0-C ,  3-N ) :  -0.1221
B(  0-C ,  4-C ) :   0.2421 B(  0-C ,  5-C ) :   1.1016 B(  0-C ,  6-C ) :  -0.1080
B(  0-C , 31-H ) :   0.2193 B(  0-C , 32-H ) :   0.5675 B(  0-C , 41-C ) :   0.2605
B(  1-C ,  2-C ) :   1.0269 B(  1-C ,  3-N ) :  -0.2077 B(  1-C ,  4-C ) :  -0.2310
B(  1-C ,  5-C ) :   0.5020 B(  1-C , 28-H ) :  -0.1590 B(  1-C , 29-H ) :   0.9815
B(  1-C , 31-H ) :   0.4477 B(  1-C , 32-H ) :  -0.2538 B(  2-C ,  3-N ) :   1.4345
B(  2-C ,  4-C ) :  -0.2714 B(  2-C ,  5-C ) :  -0.1974 B(  2-C ,  9-C ) :   0.1029
B(  2-C , 28-H ) :   1.0001 B(  2-C , 29-H ) :  -0.1465 B(  2-C , 30-H ) :   0.1564
B(  2-C , 31-H ) :  -0.1729 B(  3-N ,  4-C ) :   0.6460 B(  3-N ,  5-C ) :  -0.2999
B(  3-N ,  9-C ) :   1.1381 B(  3-N , 13-O ) :  -0.1656 B(  3-N , 30-H ) :  -0.1809
B(  3-N , 31-H ) :   0.1644 B(  3-N , 50-O ) :   0.1161 B(  4-C ,  5-C ) :   0.9727
B(  4-C ,  6-C ) :   0.3015 B(  4-C , 30-H ) :   0.9201 B(  4-C , 31-H ) :   0.2224
B(  4-C , 32-H ) :  -0.1100 B(  4-C , 41-C ) :   0.1198 B(  5-C ,  6-C ) :   0.8079
B(  5-C , 32-H ) :  -0.1145 B(  6-C ,  7-O ) :   0.9901 B(  6-C ,  8-N ) :   0.6098
B(  6-C , 30-H ) :  -0.1124 B(  8-N , 26-H ) :   1.1253 B(  8-N , 27-H ) :   0.9877
B(  9-C , 10-C ) :   0.9033 B(  9-C , 13-O ) :   0.5344 B(  9-C , 14-H ) :   0.7679
B(  9-C , 22-O ) :   0.3208 B( 10-C , 11-C ) :   0.8411 B( 10-C , 13-O ) :   0.1053
B( 10-C , 20-O ) :  -0.1643 B( 10-C , 22-O ) :  -0.5437 B( 10-C , 23-H ) :   0.8983
B( 11-C , 12-C ) :   1.0103 B( 11-C , 20-O ) :   0.2862 B( 11-C , 21-H ) :   1.0764
B( 12-C , 13-O ) :   0.5437 B( 12-C , 15-C ) :   0.4008 B( 12-C , 16-H ) :   0.9311
B( 12-C , 18-H ) :  -0.1624 B( 12-C , 20-O ) :   0.1552 B( 15-C , 17-H ) :   1.0372
B( 15-C , 18-H ) :   1.0629 B( 15-C , 19-H ) :   1.0414 B( 20-O , 25-H ) :   1.0068
B( 22-O , 24-H ) :   0.4807 B( 22-O , 41-C ) :   0.1036 B( 22-O , 50-O ) :  -0.1555
B( 24-H , 50-O ) :   0.2594 B( 30-H , 31-H ) :   0.1655 B( 31-H , 40-C ) :  -0.2216
B( 31-H , 41-C ) :   0.4668 B( 33-C , 34-C ) :   0.6971 B( 33-C , 36-C ) :  -0.1063
B( 33-C , 37-C ) :   0.3709 B( 33-C , 38-C ) :  -0.5695 B( 33-C , 39-C ) :   0.4078
B( 33-C , 49-O ) :   0.1820 B( 33-C , 53-O ) :  -0.1496 B( 33-C , 54-H ) :   0.1113
B( 34-C , 35-C ) :   1.0552 B( 34-C , 37-C ) :  -0.7397 B( 34-C , 38-C ) :   0.8849
B( 34-C , 44-C ) :   0.1995 B( 34-C , 47-H ) :   0.6677 B( 34-C , 51-O ) :  -0.1783
B( 34-C , 53-O ) :   0.2912 B( 35-C , 36-C ) :   0.7533 B( 35-C , 45-H ) :   0.1252
B( 35-C , 48-H ) :  -0.2352 B( 35-C , 51-O ) :   0.2230 B( 36-C , 37-C ) :  -0.3716
B( 36-C , 38-C ) :   0.5349 B( 36-C , 44-C ) :   0.3971 B( 36-C , 48-H ) :   1.2806
B( 37-C , 38-C ) :   0.6681 B( 37-C , 39-C ) :  -0.3246 B( 37-C , 41-C ) :   0.2079
B( 37-C , 44-C ) :   0.2674 B( 37-C , 45-H ) :  -0.3268 B( 38-C , 39-C ) :   1.0382
B( 38-C , 40-C ) :   0.2986 B( 38-C , 41-C ) :  -0.1372 B( 38-C , 42-H ) :   0.1387
B( 38-C , 44-C ) :   0.1545 B( 39-C , 40-C ) :   0.6818 B( 39-C , 41-C ) :   0.2389
B( 39-C , 42-H ) :  -0.1192 B( 39-C , 43-H ) :  -0.1028 B( 39-C , 44-C ) :   0.2235
B( 40-C , 41-C ) :   0.5697 B( 40-C , 42-H ) :   1.0789 B( 40-C , 43-H ) :   1.1567
B( 41-C , 42-H ) :  -0.1030 B( 41-C , 43-H ) :  -0.1234 B( 41-C , 44-C ) :   0.9849
B( 41-C , 49-O ) :   0.2099 B( 41-C , 50-O ) :  -0.3064 B( 42-H , 49-O ) :   0.1023
B( 44-C , 45-H ) :   0.9793 B( 44-C , 46-H ) :   0.7544 B( 44-C , 50-O ) :   0.3184
B( 48-H , 51-O ) :   0.1210 B( 49-O , 54-H ) :   0.2585 B( 51-O , 52-H ) :   1.0888
B( 53-O , 54-H ) :   0.8225

MP2 TOTAL ENERGY:    -1523.296383070 Eh
FINAL SINGLE POINT ENERGY     -1523.296383070393

DIPOLE MOMENT
-------------
                                X             Y             Z
Electronic contribution:    -13.92487      -6.44201      -0.44612
Nuclear contribution   :     17.40842       6.45704       1.22228
                        -----------------------------------------
Total Dipole Moment    :      3.48356       0.01503       0.77617
                        -----------------------------------------
Magnitude (a.u.)       :      3.56901
Magnitude (Debye)      :      9.07170

Rotational constants in cm-1:     0.006075     0.003939     0.003063
Rotational constants in MHz :   182.115638   118.103022    91.819355

                             ****ORCA TERMINATED NORMALLY****
TOTAL RUN TIME: 0 days 3 hours 2 minutes 31 seconds 646 msec
