                         Program Version 4.2.1 -  RELEASE  -
|  1> %pal
|  2>  nprocs 32
|  3> end
|  4> !RI-MP2 aug-cc-pVTZ aug-cc-pVTZ/C TightSCF
|  5> %maxcore 4500
|  6> *xyzfile 0 1  04_22P2.xyz
|  7>
|  8>
|  9>                          ****END OF INPUT****

CARTESIAN COORDINATES (ANGSTROEM)
---------------------------------
  S      0.662250   -0.086964   -0.000048
  C     -1.155222    0.019920    0.000076
  H     -1.523850    0.521240    0.892856
  H     -1.523965    0.521343   -0.892599
  H     -1.522838   -1.004838    0.000041
  H      0.905992    1.234161    0.000013

 Total Charge           Charge          ....    0
 Multiplicity           Mult            ....    1
 Number of Electrons    NEL             ....   26
 Basis Dimension        Dim             ....  188

ORBITAL ENERGIES
----------------

  NO   OCC          E(Eh)            E(eV)
   0   2.0000     -91.954178     -2502.2004
   1   2.0000     -11.258824      -306.3682
   2   2.0000      -8.955106      -243.6808
   3   2.0000      -6.636485      -180.5879
   4   2.0000      -6.635486      -180.5608
   5   2.0000      -6.634428      -180.5320
   6   2.0000      -1.036485       -28.2042
   7   2.0000      -0.867091       -23.5947
   8   2.0000      -0.607426       -16.5289
   9   2.0000      -0.592147       -16.1132
  10   2.0000      -0.528086       -14.3700
  11   2.0000      -0.459267       -12.4973
  12   2.0000      -0.357570        -9.7300
  13   0.0000       0.029375         0.7993
  14   0.0000       0.040809         1.1105
  15   0.0000       0.046934         1.2771
  16   0.0000       0.051052         1.3892
  17   0.0000       0.085006         2.3131

MULLIKEN ATOMIC CHARGES
-----------------------
   0 S :   -0.234781
   1 C :   -0.787949
   2 H :    0.285109
   3 H :    0.285109
   4 H :    0.307910
   5 H :    0.144602
Sum of atomic charges:    0.0000000

LOEWDIN ATOMIC CHARGES
----------------------
   0 S :    1.208970
   1 C :    0.167137
   2 H :   -0.254581
   3 H :   -0.254581
   4 H :   -0.267592
   5 H :   -0.599353

  Mayer bond orders larger than 0.100000
B(  0-S ,  1-C ) :   1.0233 B(  0-S ,  5-H ) :   1.0124 B(  1-C ,  2-H ) :   0.9081
B(  1-C ,  3-H ) :   0.9081 B(  1-C ,  4-H ) :   0.9096

MP2 TOTAL ENERGY:     -438.128134540 Eh
FINAL SINGLE POINT ENERGY      -438.128134539507

DIPOLE MOMENT
-------------
                                X             Y             Z
Electronic contribution:      3.17190      -0.96141      -0.00026
Nuclear contribution   :     -3.74078       1.29385       0.00032
                        -----------------------------------------
Total Dipole Moment    :     -0.56888       0.33244       0.00006
                        -----------------------------------------
Magnitude (a.u.)       :      0.65890
Magnitude (Debye)      :      1.67478

Rotational constants in cm-1:     3.444006     0.429045     0.411437
Rotational constants in MHz : 103248.697617 12862.432275 12334.585604

                             ****ORCA TERMINATED NORMALLY****
TOTAL RUN TIME: 0 days 0 hours 0 minutes 13 seconds 44 msec
