                         Program Version 4.2.1 -  RELEASE  -
|  1> %pal
|  2>  nprocs 32
|  3> end
|  4> !RI-MP2 aug-cc-pVTZ aug-cc-pVTZ/C TightSCF
|  5> %maxcore 4500
|  6> *xyzfile 0 2  04_54R2.xyz
|  7>
|  8>
|  9>                          ****END OF INPUT****

CARTESIAN COORDINATES (ANGSTROEM)
---------------------------------
  H      1.754428   -1.525484    0.231671
  N      1.702114   -0.559609   -0.045878
  C      0.494796    0.103766   -0.008643
  C     -0.696661   -0.701510   -0.017434
  O      0.433931    1.332431   -0.005224
  N     -1.882236   -0.045639    0.060461
  H     -0.695838   -1.780851   -0.059026
  H     -1.829735    0.961753   -0.019248
  H     -2.743487   -0.500897   -0.185473
  H      2.515224    0.009229    0.128252

 Total Charge           Charge          ....    0
 Multiplicity           Mult            ....    2
 Number of Electrons    NEL             ....   39
 Basis Dimension        Dim             ....  345

ORBITAL ENERGIES
----------------
                 SPIN UP ORBITALS
  NO   OCC          E(Eh)            E(eV)
   0   1.0000     -20.515870      -558.2652
   1   1.0000     -15.582788      -424.0292
   2   1.0000     -15.575714      -423.8367
   3   1.0000     -11.341392      -308.6150
   4   1.0000     -11.273807      -306.7759
   5   1.0000      -1.379336       -37.5336
   6   1.0000      -1.234876       -33.6027
   7   1.0000      -1.203273       -32.7427
   8   1.0000      -0.970017       -26.3955
   9   1.0000      -0.786596       -21.4044
  10   1.0000      -0.747986       -20.3537
  11   1.0000      -0.714353       -19.4385
  12   1.0000      -0.640508       -17.4291
  13   1.0000      -0.633028       -17.2256
  14   1.0000      -0.606647       -16.5077
  15   1.0000      -0.575570       -15.6620
  16   1.0000      -0.519463       -14.1353
  17   1.0000      -0.441717       -12.0197
  18   1.0000      -0.429544       -11.6885
  19   1.0000      -0.300559        -8.1786
  20   0.0000       0.023088         0.6283
  21   0.0000       0.031072         0.8455
  22   0.0000       0.042390         1.1535
  23   0.0000       0.059275         1.6129
  24   0.0000       0.062546         1.7020

                 SPIN DOWN ORBITALS
  NO   OCC          E(Eh)            E(eV)
   0   1.0000     -20.508261      -558.0581
   1   1.0000     -15.574298      -423.7982
   2   1.0000     -15.574158      -423.7944
   3   1.0000     -11.344373      -308.6961
   4   1.0000     -11.257034      -306.3195
   5   1.0000      -1.365201       -37.1490
   6   1.0000      -1.206935       -32.8424
   7   1.0000      -1.196868       -32.5684
   8   1.0000      -0.922313       -25.0974
   9   1.0000      -0.775775       -21.1099
  10   1.0000      -0.742284       -20.1986
  11   1.0000      -0.710208       -19.3258
  12   1.0000      -0.634525       -17.2663
  13   1.0000      -0.622039       -16.9266
  14   1.0000      -0.569404       -15.4943
  15   1.0000      -0.554709       -15.0944
  16   1.0000      -0.436208       -11.8698
  17   1.0000      -0.425305       -11.5731
  18   1.0000      -0.390133       -10.6161
  19   0.0000       0.023379         0.6362
  20   0.0000       0.031255         0.8505
  21   0.0000       0.042564         1.1582
  22   0.0000       0.059286         1.6133
  23   0.0000       0.062580         1.7029

MULLIKEN ATOMIC CHARGES AND SPIN POPULATIONS
--------------------------------------------
   0 H :    0.125329   -0.004701
   1 N :   -0.375360    0.028594
   2 C :    0.774070   -0.098180
   3 C :   -0.272295    0.787037
   4 O :   -0.766512    0.167978
   5 N :   -0.412333    0.184478
   6 H :    0.479889   -0.049845
   7 H :    0.182374   -0.006940
   8 H :    0.104034   -0.004927
   9 H :    0.160804   -0.003495
Sum of atomic charges         :   -0.0000000

LOEWDIN ATOMIC CHARGES AND SPIN POPULATIONS
-------------------------------------------
   0 H :   -0.314318    0.000186
   1 N :    0.829060    0.027690
   2 C :   -0.736384    0.098539
   3 C :    0.115629    0.407119
   4 O :    0.424001    0.125874
   5 N :    0.810227    0.226000
   6 H :   -0.194438    0.080473
   7 H :   -0.330068    0.014192
   8 H :   -0.297804    0.017059
   9 H :   -0.305906    0.002868

  Mayer bond orders larger than 0.100000
B(  0-H ,  1-N ) :   1.0496 B(  1-N ,  2-C ) :   0.9855 B(  1-N ,  9-H ) :   1.0290
B(  2-C ,  3-C ) :   0.9180 B(  2-C ,  4-O ) :   1.3147 B(  3-C ,  5-N ) :   0.9288
B(  3-C ,  6-H ) :   0.7138 B(  5-N ,  7-H ) :   1.0031 B(  5-N ,  8-H ) :   1.0947

MP2 TOTAL ENERGY:     -263.474348280 Eh
FINAL SINGLE POINT ENERGY      -263.474348280295

DIPOLE MOMENT
-------------
                                X             Y             Z
Electronic contribution:      0.68805       1.39014      -0.02807
Nuclear contribution   :     -0.99593      -2.82535       0.09640
                        -----------------------------------------
Total Dipole Moment    :     -0.30788      -1.43521       0.06833
                        -----------------------------------------
Magnitude (a.u.)       :      1.46945
Magnitude (Debye)      :      3.73504

Rotational constants in cm-1:     0.369506     0.136902     0.100106
Rotational constants in MHz : 11077.515688  4104.209838  3001.088434

                             ****ORCA TERMINATED NORMALLY****
TOTAL RUN TIME: 0 days 0 hours 1 minutes 1 seconds 460 msec
