                         Program Version 4.2.1 -  RELEASE  -
|  1> %pal
|  2>  nprocs 32
|  3> end
|  4> !RI-MP2 aug-cc-pVTZ aug-cc-pVTZ/C TightSCF
|  5> %maxcore 4500
|  6> *xyzfile 0 1  10_53R.xyz
|  7>
|  8>
|  9>                          ****END OF INPUT****

CARTESIAN COORDINATES (ANGSTROEM)
---------------------------------
  C     -0.621931   -0.684736    1.345464
  N      0.096314    0.372397    0.637558
  C     -0.210669    1.738728    1.072873
  C     -1.194476    2.511507    0.164373
  C     -2.461675    1.731120    0.043898
  C     -2.988006   -1.629732   -0.664721
  C     -1.522449   -1.964366   -0.758707
  C     -0.787387   -2.010840    0.592526
  C     -2.572080    0.753477   -0.846788
  C     -3.481032   -0.392444   -0.720173
  C      1.416577    0.141480    0.220307
  C      1.988752    0.986657   -0.739759
  C      3.290877    0.801024   -1.169221
  C      4.060430   -0.241805   -0.667516
  C      3.504991   -1.083991    0.282534
  C      2.204131   -0.895006    0.729842
  H     -0.152042   -0.897268    2.319759
  H     -1.614102   -0.292754    1.565214
  H     -0.626456    1.695716    2.086118
  H      0.720917    2.302378    1.146875
  H     -0.740574    2.646003   -0.820215
  H     -1.351433    3.504026    0.596370
  H     -1.414829   -2.948168   -1.222882
  H     -1.004540   -1.258180   -1.409694
  H     -1.322233   -2.685218    1.269839
  H      0.188372   -2.466103    0.419223
  H      1.394125    1.786666   -1.162206
  H      3.703998    1.470005   -1.915147
  H      5.075599   -0.392738   -1.012202
  H      4.092243   -1.895458    0.696677
  H      1.813313   -1.548856    1.496351
  H     -4.543909   -0.220360   -0.580532
  H     -3.670263   -2.458999   -0.498787
  H     -1.795743    0.676165   -1.602594
  H     -3.182955    1.809929    0.855325

 Total Charge           Charge          ....    0
 Multiplicity           Mult            ....    1
 Number of Electrons    NEL             ....  116
 Basis Dimension        Dim             .... 1173

ORBITAL ENERGIES
----------------

  NO   OCC          E(Eh)            E(eV)
   0   2.0000     -15.556249      -423.3071
   1   2.0000     -11.269919      -306.6701
   2   2.0000     -11.258723      -306.3654
   3   2.0000     -11.252148      -306.1865
   4   2.0000     -11.231323      -305.6198
   5   2.0000     -11.231268      -305.6183
   6   2.0000     -11.226743      -305.4952
   7   2.0000     -11.225979      -305.4744
   8   2.0000     -11.223841      -305.4162
   9   2.0000     -11.222602      -305.3825
  10   2.0000     -11.221620      -305.3558
  11   2.0000     -11.221226      -305.3451
  12   2.0000     -11.221209      -305.3446
  13   2.0000     -11.220726      -305.3315
  14   2.0000     -11.220372      -305.3218
  15   2.0000     -11.219390      -305.2951
  16   2.0000      -1.249975       -34.0135
  17   2.0000      -1.139500       -31.0074
  18   2.0000      -1.107587       -30.1390
  19   2.0000      -1.080267       -29.3956
  20   2.0000      -1.026653       -27.9367
  21   2.0000      -1.013261       -27.5722
  22   2.0000      -0.990219       -26.9452
  23   2.0000      -0.983645       -26.7663
  24   2.0000      -0.902408       -24.5558
  25   2.0000      -0.859059       -23.3762
  26   2.0000      -0.832763       -22.6606
  27   2.0000      -0.821772       -22.3615
  28   2.0000      -0.773740       -21.0545
  29   2.0000      -0.769960       -20.9517
  30   2.0000      -0.724305       -19.7093
  31   2.0000      -0.699810       -19.0428
  32   2.0000      -0.656891       -17.8749
  33   2.0000      -0.654637       -17.8136
  34   2.0000      -0.652491       -17.7552
  35   2.0000      -0.623256       -16.9597
  36   2.0000      -0.619345       -16.8532
  37   2.0000      -0.616330       -16.7712
  38   2.0000      -0.606242       -16.4967
  39   2.0000      -0.581076       -15.8119
  40   2.0000      -0.574857       -15.6427
  41   2.0000      -0.571255       -15.5447
  42   2.0000      -0.554717       -15.0946
  43   2.0000      -0.538875       -14.6635
  44   2.0000      -0.523310       -14.2400
  45   2.0000      -0.517672       -14.0866
  46   2.0000      -0.508292       -13.8313
  47   2.0000      -0.497646       -13.5416
  48   2.0000      -0.493756       -13.4358
  49   2.0000      -0.490360       -13.3434
  50   2.0000      -0.479869       -13.0579
  51   2.0000      -0.464013       -12.6264
  52   2.0000      -0.454881       -12.3780
  53   2.0000      -0.394194       -10.7266
  54   2.0000      -0.392446       -10.6790
  55   2.0000      -0.335392        -9.1265
  56   2.0000      -0.313807        -8.5391
  57   2.0000      -0.291477        -7.9315
  58   0.0000       0.026324         0.7163
  59   0.0000       0.029874         0.8129
  60   0.0000       0.030262         0.8235
  61   0.0000       0.033694         0.9169
  62   0.0000       0.040327         1.0973

MULLIKEN ATOMIC CHARGES
-----------------------
   0 C :   -0.829715
   1 N :    0.596672
   2 C :   -0.677477
   3 C :   -0.315607
   4 C :   -0.612303
   5 C :   -0.714411
   6 C :   -0.215901
   7 C :   -0.593648
   8 C :   -0.062182
   9 C :   -0.635261
  10 C :    2.104594
  11 C :   -0.749844
  12 C :   -1.006586
  13 C :   -0.541540
  14 C :   -0.871715
  15 C :   -0.837111
  16 H :    0.028421
  17 H :    0.393602
  18 H :    0.196393
  19 H :    0.300928
  20 H :    0.113477
  21 H :    0.339756
  22 H :    0.425425
  23 H :    0.130505
  24 H :    0.278288
  25 H :    0.263890
  26 H :    0.369475
  27 H :    0.485858
  28 H :    0.531201
  29 H :    0.416277
  30 H :    0.113193
  31 H :    0.607074
  32 H :    0.114502
  33 H :    0.463812
  34 H :    0.389959
Sum of atomic charges:    0.0000000

LOEWDIN ATOMIC CHARGES
----------------------
   0 C :    0.181298
   1 N :    0.297049
   2 C :    0.198735
   3 C :    0.282306
   4 C :    0.210087
   5 C :    0.228481
   6 C :    0.282414
   7 C :    0.315512
   8 C :    0.174324
   9 C :    0.204589
  10 C :   -0.221056
  11 C :    0.220962
  12 C :    0.194294
  13 C :    0.187211
  14 C :    0.196754
  15 C :    0.222055
  16 H :   -0.128856
  17 H :   -0.171388
  18 H :   -0.135100
  19 H :   -0.151417
  20 H :   -0.163148
  21 H :   -0.146283
  22 H :   -0.147933
  23 H :   -0.171923
  24 H :   -0.134727
  25 H :   -0.177146
  26 H :   -0.188333
  27 H :   -0.179968
  28 H :   -0.190685
  29 H :   -0.179211
  30 H :   -0.202897
  31 H :   -0.183144
  32 H :   -0.179881
  33 H :   -0.182820
  34 H :   -0.160153

  Mayer bond orders larger than 0.100000
B(  0-C ,  1-N ) :   1.0867 B(  0-C ,  7-C ) :   0.8617 B(  0-C , 10-C ) :  -0.1393
B(  0-C , 16-H ) :   1.1908 B(  0-C , 17-H ) :   0.8679 B(  1-N ,  2-C ) :   0.6975
B(  1-N , 10-C ) :   0.6792 B(  1-N , 11-C ) :  -0.2069 B(  1-N , 15-C ) :  -0.2571
B(  1-N , 26-H ) :  -0.1707 B(  2-C ,  3-C ) :   0.8446 B(  2-C ,  4-C ) :   0.1579
B(  2-C , 10-C ) :  -0.2851 B(  2-C , 18-H ) :   1.1052 B(  2-C , 19-H ) :   1.0142
B(  3-C ,  4-C ) :   0.9519 B(  3-C , 20-H ) :   1.1487 B(  3-C , 21-H ) :   0.8791
B(  4-C ,  8-C ) :   1.5247 B(  4-C , 34-H ) :   0.8197 B(  5-C ,  6-C ) :   0.5888
B(  5-C ,  7-C ) :   0.1419 B(  5-C ,  9-C ) :   1.7733 B(  5-C , 22-H ) :  -0.1218
B(  5-C , 32-H ) :   1.2224 B(  6-C ,  7-C ) :   0.8598 B(  6-C ,  9-C ) :   0.2080
B(  6-C , 22-H ) :   0.8724 B(  6-C , 23-H ) :   1.0992 B(  6-C , 32-H ) :  -0.1083
B(  7-C , 23-H ) :   0.1022 B(  7-C , 24-H ) :   0.9817 B(  7-C , 25-H ) :   1.0343
B(  8-C ,  9-C ) :   0.6449 B(  8-C , 33-H ) :   0.7483 B(  9-C , 31-H ) :   0.5176
B(  9-C , 33-H ) :  -0.1195 B( 10-C , 11-C ) :   0.2104 B( 10-C , 12-C ) :  -0.3325
B( 10-C , 13-C ) :  -0.1613 B( 10-C , 14-C ) :  -0.2187 B( 10-C , 30-H ) :  -0.2686
B( 11-C , 12-C ) :   1.2877 B( 11-C , 13-C ) :   0.1440 B( 11-C , 26-H ) :   0.9847
B( 12-C , 13-C ) :   1.2715 B( 12-C , 14-C ) :   0.1285 B( 12-C , 26-H ) :  -0.1594
B( 12-C , 27-H ) :   0.6976 B( 12-C , 28-H ) :  -0.1461 B( 13-C , 14-C ) :   1.2202
B( 13-C , 28-H ) :   0.6361 B( 14-C , 15-C ) :   1.0608 B( 14-C , 28-H ) :  -0.1241
B( 14-C , 29-H ) :   0.8088 B( 15-C , 26-H ) :   0.1316 B( 15-C , 28-H ) :   0.1185
B( 15-C , 29-H ) :  -0.1298 B( 15-C , 30-H ) :   1.6708 B( 23-H , 32-H ) :   0.1024

MP2 TOTAL ENERGY:     -636.385064351 Eh
FINAL SINGLE POINT ENERGY      -636.385064351494

DIPOLE MOMENT
-------------
                                X             Y             Z
Electronic contribution:      4.46487       1.16755      -1.81484
Nuclear contribution   :     -4.52407      -1.19591       2.27864
                        -----------------------------------------
Total Dipole Moment    :     -0.05920      -0.02836       0.46381
                        -----------------------------------------
Magnitude (a.u.)       :      0.46843
Magnitude (Debye)      :      1.19065

Rotational constants in cm-1:     0.030603     0.012668     0.010550
Rotational constants in MHz :   917.454199   379.774172   316.267336

                             ****ORCA TERMINATED NORMALLY****
TOTAL RUN TIME: 0 days 0 hours 33 minutes 10 seconds 551 msec
