                         Program Version 4.2.1 -  RELEASE  -
|  1> %pal
|  2>  nprocs 32
|  3> end
|  4> !RI-MP2 aug-cc-pVTZ aug-cc-pVTZ/C TightSCF
|  5> %maxcore 4500
|  6> *xyzfile 0 1  03_15R1.xyz
|  7>
|  8>
|  9>                          ****END OF INPUT****

CARTESIAN COORDINATES (ANGSTROEM)
---------------------------------
  C      1.898213    0.008896    0.001424
  C      2.466225   -0.610714   -1.263819
  C      0.382268    0.013958   -0.000143
  C      2.463479   -0.617115    1.264734
  H      2.089958   -0.081191   -2.139554
  H      2.174433   -1.658841   -1.343225
  H      3.555663   -0.550250   -1.251559
  C     -0.323327   -1.188229   -0.002833
  C     -0.335905    1.200895   -0.001829
  H      2.171320   -1.665559    1.338400
  H      2.085581   -0.091806    2.142300
  H      3.552951   -0.556861    1.254972
  C     -1.725798    1.184854   -0.005030
  C     -2.435492   -0.008934   -0.005523
  C     -1.707332   -1.197870   -0.006029
  H      0.208880   -2.132808   -0.004349
  H     -2.233321   -2.146678   -0.010164
  H      0.195661    2.142410   -0.002323
  H     -2.265627    2.125503   -0.008359
  C     -3.939722   -0.028650    0.007891
  H     -4.349742    0.965724   -0.172190
  H     -4.333938   -0.700150   -0.757913
  H     -4.318884   -0.375314    0.972967
  F      2.334601    1.353699    0.005327

 Total Charge           Charge          ....    0
 Multiplicity           Mult            ....    1
 Number of Electrons    NEL             ....   82
 Basis Dimension        Dim             ....  805

ORBITAL ENERGIES
----------------

  NO   OCC          E(Eh)            E(eV)
   0   2.0000     -26.265883      -714.7310
   1   2.0000     -11.320831      -308.0555
   2   2.0000     -11.238867      -305.8251
   3   2.0000     -11.236740      -305.7672
   4   2.0000     -11.234745      -305.7129
   5   2.0000     -11.230210      -305.5896
   6   2.0000     -11.228534      -305.5440
   7   2.0000     -11.227270      -305.5096
   8   2.0000     -11.224052      -305.4220
   9   2.0000     -11.222184      -305.3711
  10   2.0000     -11.222166      -305.3707
  11   2.0000      -1.576377       -42.8954
  12   2.0000      -1.164002       -31.6741
  13   2.0000      -1.092332       -29.7239
  14   2.0000      -1.030245       -28.0344
  15   2.0000      -1.014455       -27.6047
  16   2.0000      -0.952701       -25.9243
  17   2.0000      -0.936827       -25.4924
  18   2.0000      -0.838751       -22.8236
  19   2.0000      -0.826941       -22.5022
  20   2.0000      -0.775237       -21.0953
  21   2.0000      -0.715732       -19.4761
  22   2.0000      -0.669574       -18.2200
  23   2.0000      -0.668477       -18.1902
  24   2.0000      -0.637140       -17.3375
  25   2.0000      -0.624869       -17.0035
  26   2.0000      -0.620098       -16.8737
  27   2.0000      -0.587466       -15.9858
  28   2.0000      -0.579395       -15.7661
  29   2.0000      -0.578245       -15.7349
  30   2.0000      -0.564341       -15.3565
  31   2.0000      -0.548708       -14.9311
  32   2.0000      -0.539173       -14.6717
  33   2.0000      -0.538878       -14.6636
  34   2.0000      -0.520207       -14.1555
  35   2.0000      -0.499844       -13.6014
  36   2.0000      -0.485364       -13.2074
  37   2.0000      -0.476611       -12.9692
  38   2.0000      -0.468086       -12.7373
  39   2.0000      -0.337694        -9.1891
  40   2.0000      -0.321584        -8.7508
  41   0.0000       0.026497         0.7210
  42   0.0000       0.030220         0.8223
  43   0.0000       0.035956         0.9784
  44   0.0000       0.038589         1.0501
  45   0.0000       0.043134         1.1737

MULLIKEN ATOMIC CHARGES
-----------------------
   0 C :    1.470683
   1 C :   -1.080636
   2 C :    1.687125
   3 C :   -1.075661
   4 H :    0.322283
   5 H :    0.322734
   6 H :    0.237290
   7 C :   -0.923799
   8 C :   -1.146868
   9 H :    0.322118
  10 H :    0.324399
  11 H :    0.236846
  12 C :   -0.516645
  13 C :    1.561451
  14 C :   -1.265408
  15 H :    0.045356
  16 H :    0.160865
  17 H :    0.027162
  18 H :    0.141310
  19 C :   -0.921523
  20 H :    0.246524
  21 H :    0.281001
  22 H :    0.302494
  23 F :   -0.759100
Sum of atomic charges:    0.0000000

LOEWDIN ATOMIC CHARGES
----------------------
   0 C :   -0.692444
   1 C :    0.587345
   2 C :   -0.115009
   3 C :    0.587284
   4 H :   -0.155371
   5 H :   -0.165900
   6 H :   -0.161025
   7 C :    0.213375
   8 C :    0.224310
   9 H :   -0.165973
  10 H :   -0.155391
  11 H :   -0.161026
  12 C :    0.224441
  13 C :   -0.124957
  14 C :    0.223750
  15 H :   -0.177463
  16 H :   -0.171737
  17 H :   -0.196999
  18 H :   -0.177455
  19 C :    0.577426
  20 H :   -0.178937
  21 H :   -0.169322
  22 H :   -0.164535
  23 F :    0.495611

  Mayer bond orders larger than 0.100000
B(  0-C ,  1-C ) :   0.6770 B(  0-C ,  2-C ) :   1.0340 B(  0-C ,  3-C ) :   0.6733
B(  0-C ,  7-C ) :   0.1167 B(  0-C , 14-C ) :  -0.1045 B(  0-C , 17-H ) :  -0.1603
B(  0-C , 23-F ) :  -0.2197 B(  1-C ,  3-C ) :   0.1211 B(  1-C ,  4-H ) :   0.9665
B(  1-C ,  5-H ) :   0.9359 B(  1-C ,  6-H ) :   1.0376 B(  1-C , 23-F ) :   0.1414
B(  2-C ,  8-C ) :  -0.1429 B(  2-C , 12-C ) :   0.1416 B(  2-C , 13-C ) :   0.1446
B(  2-C , 14-C ) :  -0.1084 B(  2-C , 15-H ) :  -0.2376 B(  2-C , 17-H ) :  -0.3256
B(  2-C , 23-F ) :   0.3578 B(  3-C ,  9-H ) :   0.9382 B(  3-C , 10-H ) :   0.9658
B(  3-C , 11-H ) :   1.0362 B(  3-C , 23-F ) :   0.1422 B(  7-C ,  8-C ) :  -0.1332
B(  7-C , 14-C ) :   1.6428 B(  7-C , 15-H ) :   1.4453 B(  7-C , 17-H ) :   0.2056
B(  8-C , 12-C ) :   1.2529 B(  8-C , 15-H ) :   0.1769 B(  8-C , 17-H ) :   1.6638
B(  8-C , 18-H ) :  -0.1016 B( 12-C , 13-C ) :   0.7974 B( 12-C , 14-C ) :  -0.1003
B( 12-C , 17-H ) :  -0.1319 B( 12-C , 18-H ) :   1.3830 B( 13-C , 14-C ) :   0.7983
B( 13-C , 16-H ) :  -0.1147 B( 13-C , 18-H ) :  -0.1507 B( 13-C , 19-C ) :   0.3264
B( 13-C , 21-H ) :  -0.1171 B( 13-C , 22-H ) :  -0.1074 B( 14-C , 15-H ) :  -0.1544
B( 14-C , 16-H ) :   1.3137 B( 14-C , 19-C ) :   0.1497 B( 17-H , 23-F ) :   0.1115
B( 19-C , 20-H ) :   1.0307 B( 19-C , 21-H ) :   1.0265 B( 19-C , 22-H ) :   0.9915

MP2 TOTAL ENERGY:     -487.802859600 Eh
FINAL SINGLE POINT ENERGY      -487.802859600350

DIPOLE MOMENT
-------------
                                X             Y             Z
Electronic contribution:      3.47917       5.40275      -0.00949
Nuclear contribution   :     -3.81706      -6.13402       0.01390
                        -----------------------------------------
Total Dipole Moment    :     -0.33789      -0.73127       0.00441
                        -----------------------------------------
Magnitude (a.u.)       :      0.80557
Magnitude (Debye)      :      2.04760

Rotational constants in cm-1:     0.086951     0.021266     0.019275
Rotational constants in MHz :  2606.712472   637.552111   577.856626

                             ****ORCA TERMINATED NORMALLY****
TOTAL RUN TIME: 0 days 0 hours 9 minutes 2 seconds 633 msec
