                         Program Version 4.2.1 -  RELEASE  -
|  1> %pal
|  2>  nprocs 32
|  3> end
|  4> !RI-MP2 aug-cc-pVTZ aug-cc-pVTZ/C TightSCF
|  5> %maxcore 4500
|  6> *xyzfile 0 1  10_2P2.xyz
|  7>
|  8>
|  9>                          ****END OF INPUT****

CARTESIAN COORDINATES (ANGSTROEM)
---------------------------------
  O      0.000000    0.000000    0.116267
  H      0.000000    0.764465   -0.465070
  H      0.000000   -0.764465   -0.465070

 Total Charge           Charge          ....    0
 Multiplicity           Mult            ....    1
 Number of Electrons    NEL             ....   10
 Basis Dimension        Dim             ....   92

ORBITAL ENERGIES
----------------

  NO   OCC          E(Eh)            E(eV)
   0   2.0000     -20.567316      -559.6651
   1   2.0000      -1.351273       -36.7700
   2   2.0000      -0.718005       -19.5379
   3   2.0000      -0.582421       -15.8485
   4   2.0000      -0.509810       -13.8726
   5   0.0000       0.029466         0.8018
   6   0.0000       0.047611         1.2956
   7   0.0000       0.136091         3.7032
   8   0.0000       0.158505         4.3131
   9   0.0000       0.174882         4.7588

MULLIKEN ATOMIC CHARGES
-----------------------
   0 O :   -0.443227
   1 H :    0.221613
   2 H :    0.221613
Sum of atomic charges:    0.0000000

LOEWDIN ATOMIC CHARGES
----------------------
   0 O :    1.025841
   1 H :   -0.512921
   2 H :   -0.512921

  Mayer bond orders larger than 0.100000
B(  0-O ,  1-H ) :   0.9977 B(  0-O ,  2-H ) :   0.9977

MP2 TOTAL ENERGY:      -76.328924476 Eh
FINAL SINGLE POINT ENERGY       -76.328924475596

DIPOLE MOMENT
-------------
                                X             Y             Z
Electronic contribution:      0.00000      -0.00000       0.19317
Nuclear contribution   :      0.00000       0.00000      -0.96776
                        -----------------------------------------
Total Dipole Moment    :      0.00000      -0.00000      -0.77460
                        -----------------------------------------
Magnitude (a.u.)       :      0.77460
Magnitude (Debye)      :      1.96887

Rotational constants in cm-1:    27.860690    14.308403     9.453416
Rotational constants in MHz : 835242.479611 428955.126934 283406.282378

                             ****ORCA TERMINATED NORMALLY****
TOTAL RUN TIME: 0 days 0 hours 0 minutes 8 seconds 682 msec
