                         Program Version 4.2.1 -  RELEASE  -
|  1> %pal
|  2>  nprocs 32
|  3> end
|  4> !RI-MP2 aug-cc-pVTZ aug-cc-pVTZ/C TightSCF
|  5> %maxcore 4500
|  6> *xyzfile 1 1  05_5P1.xyz
|  7>
|  8>
|  9>                          ****END OF INPUT****

CARTESIAN COORDINATES (ANGSTROEM)
---------------------------------
  C     -0.712446   -1.205197    0.000029
  C     -1.406019    0.000010    0.000056
  H     -1.229865    2.154512    0.000051
  H      1.278721    2.071148   -0.000050
  H     -1.229898   -2.154493    0.000051
  H     -2.489144    0.000020    0.000099
  C      0.662121   -1.182781   -0.000027
  C     -0.712425    1.205209    0.000029
  N      1.301968   -0.000011   -0.000052
  C      0.662139    1.182772   -0.000027
  H      1.278686   -2.071169   -0.000050
  H      2.317506   -0.000018   -0.000096

 Total Charge           Charge          ....    1
 Multiplicity           Mult            ....    1
 Number of Electrons    NEL             ....   42
 Basis Dimension        Dim             ....  414

ORBITAL ENERGIES
----------------

  NO   OCC          E(Eh)            E(eV)
   0   2.0000     -15.862191      -431.6322
   1   2.0000     -11.505982      -313.0937
   2   2.0000     -11.505954      -313.0929
   3   2.0000     -11.465107      -311.9814
   4   2.0000     -11.439358      -311.2808
   5   2.0000     -11.439320      -311.2797
   6   2.0000      -1.533897       -41.7395
   7   2.0000      -1.309752       -35.6402
   8   2.0000      -1.263649       -34.3856
   9   2.0000      -1.093918       -29.7670
  10   2.0000      -1.084839       -29.5200
  11   2.0000      -0.985342       -26.8125
  12   2.0000      -0.887394       -24.1472
  13   2.0000      -0.885203       -24.0876
  14   2.0000      -0.838610       -22.8198
  15   2.0000      -0.820570       -22.3288
  16   2.0000      -0.796568       -21.6757
  17   2.0000      -0.730134       -19.8680
  18   2.0000      -0.729148       -19.8411
  19   2.0000      -0.607026       -16.5180
  20   2.0000      -0.559434       -15.2230
  21   0.0000      -0.123799        -3.3688
  22   0.0000      -0.095167        -2.5896
  23   0.0000      -0.079470        -2.1625
  24   0.0000      -0.071247        -1.9387
  25   0.0000      -0.069509        -1.8914

MULLIKEN ATOMIC CHARGES
-----------------------
   0 C :   -0.122496
   1 C :   -0.591735
   2 H :    0.320445
   3 H :    0.694486
   4 H :    0.320446
   5 H :    0.618966
   6 C :   -0.453155
   7 C :   -0.122501
   8 N :   -0.013037
   9 C :   -0.453149
  10 H :    0.694486
  11 H :    0.107246
Sum of atomic charges:    1.0000000

LOEWDIN ATOMIC CHARGES
----------------------
   0 C :    0.282524
   1 C :    0.282067
   2 H :   -0.155212
   3 H :   -0.120747
   4 H :   -0.155212
   5 H :   -0.133982
   6 C :    0.229048
   7 C :    0.282524
   8 N :    0.578520
   9 C :    0.229048
  10 H :   -0.120746
  11 H :   -0.197831

  Mayer bond orders larger than 0.100000
B(  0-C ,  1-C ) :   1.2240 B(  0-C ,  4-H ) :   1.0351 B(  0-C ,  6-C ) :   0.8340
B(  0-C ,  8-N ) :  -0.1831 B(  0-C ,  9-C ) :  -0.1019 B(  1-C ,  5-H ) :   0.5802
B(  1-C ,  6-C ) :   0.1896 B(  1-C ,  7-C ) :   1.2240 B(  1-C ,  9-C ) :   0.1896
B(  2-H ,  6-C ) :   0.1021 B(  2-H ,  7-C ) :   1.0351 B(  3-H ,  9-C ) :   0.3970
B(  4-H ,  9-C ) :   0.1021 B(  6-C ,  7-C ) :  -0.1019 B(  6-C ,  8-N ) :   1.2672
B(  6-C ,  9-C ) :   0.2399 B(  6-C , 10-H ) :   0.3970 B(  7-C ,  8-N ) :  -0.1831
B(  7-C ,  9-C ) :   0.8340 B(  8-N ,  9-C ) :   1.2672 B(  8-N , 11-H ) :   1.1023

MP2 TOTAL ENERGY:     -248.139649176 Eh
FINAL SINGLE POINT ENERGY      -248.139649175591

DIPOLE MOMENT
-------------
                                X             Y             Z
Electronic contribution:      0.80177      -0.00001      -0.00003
Nuclear contribution   :     -0.06689      -0.00000       0.00000
                        -----------------------------------------
Total Dipole Moment    :      0.73488      -0.00001      -0.00003
                        -----------------------------------------
Magnitude (a.u.)       :      0.73488
Magnitude (Debye)      :      1.86791

Rotational constants in cm-1:     0.194877     0.191092     0.096483
Rotational constants in MHz :  5842.254796  5728.807998  2892.487630

                             ****ORCA TERMINATED NORMALLY****
TOTAL RUN TIME: 0 days 0 hours 1 minutes 6 seconds 57 msec
