                         Program Version 4.2.1 -  RELEASE  -
|  1> %pal
|  2>  nprocs 32
|  3> end
|  4> !RI-MP2 aug-cc-pVTZ aug-cc-pVTZ/C TightSCF
|  5> %maxcore 4500
|  6> *xyzfile 0 1  02_11P.xyz
|  7>
|  8>
|  9>                          ****END OF INPUT****

CARTESIAN COORDINATES (ANGSTROEM)
---------------------------------
  C      3.307533    0.979735    0.702652
  C      1.966735    1.337536    0.040672
  C      0.939724    0.230645    0.351266
  C      1.446685   -1.162347   -0.070854
  C      3.853755   -0.423966    0.398847
  H      1.613216    2.249204    0.535503
  H      3.166295    1.049750    1.787171
  H      4.057524    1.733170    0.443441
  H      4.650489   -0.609589    1.127303
  H      3.123175   -2.462323    0.336258
  H      2.558050   -1.535482    1.716041
  C      2.764613   -1.473745    0.640820
  C      4.495216   -0.568397   -0.983069
  H      5.017297   -1.525651   -1.057958
  H      5.226356    0.223904   -1.160674
  H      3.768084   -0.530535   -1.793921
  C     -0.476207    0.566134   -0.172374
  C      0.396155   -2.192070    0.230448
  C     -1.270908   -0.671630   -0.716152
  C     -0.881574   -1.950956   -0.031477
  C     -1.260591    1.311910    0.896298
  O     -1.645512    2.441867    0.699509
  C     -2.756533   -0.365949   -0.804228
  C     -3.639102   -0.898056    0.039091
  H     -3.270001   -1.586894    0.793052
  C     -3.105630    0.626744   -1.879141
  H     -2.706947    1.615506   -1.635019
  H     -4.178198    0.731516   -2.025608
  H     -2.664098    0.324108   -2.833297
  C     -5.113882   -0.649460    0.109738
  H     -5.379132   -0.205236    1.074092
  H     -5.668190   -1.589446    0.034069
  H     -5.476013    0.018190   -0.669786
  C     -1.517606    0.638302    2.225485
  H     -1.382335   -0.441059    2.186276
  H     -2.527081    0.884311    2.551725
  H     -0.821618    1.047581    2.962611
  C      2.090174    1.677073   -1.449647
  H      1.234650    2.257702   -1.796961
  H      2.981595    2.281992   -1.628082
  H      2.163594    0.792943   -2.083498
  H     -1.639240   -2.699520    0.164395
  H      0.706483   -3.137095    0.666132
  H     -0.399974    1.272557   -0.995969
  H     -0.920297   -0.774893   -1.751908
  H      0.881420    0.171943    1.444065
  H      1.617652   -1.160619   -1.155769

 Total Charge           Charge          ....    0
 Multiplicity           Mult            ....    1
 Number of Electrons    NEL             ....  144
 Basis Dimension        Dim             .... 1518

ORBITAL ENERGIES
----------------

  NO   OCC          E(Eh)            E(eV)
   0   2.0000     -20.533975      -558.7579
   1   2.0000     -11.319092      -308.0081
   2   2.0000     -11.243246      -305.9443
   3   2.0000     -11.233865      -305.6890
   4   2.0000     -11.232917      -305.6632
   5   2.0000     -11.232266      -305.6455
   6   2.0000     -11.230661      -305.6018
   7   2.0000     -11.226828      -305.4975
   8   2.0000     -11.226133      -305.4786
   9   2.0000     -11.225135      -305.4515
  10   2.0000     -11.223150      -305.3974
  11   2.0000     -11.222162      -305.3705
  12   2.0000     -11.221173      -305.3436
  13   2.0000     -11.220352      -305.3213
  14   2.0000     -11.218335      -305.2664
  15   2.0000     -11.216847      -305.2259
  16   2.0000     -11.213190      -305.1264
  17   2.0000     -11.212050      -305.0954
  18   2.0000     -11.211426      -305.0784
  19   2.0000      -1.379864       -37.5480
  20   2.0000      -1.163375       -31.6570
  21   2.0000      -1.120707       -30.4960
  22   2.0000      -1.078645       -29.3514
  23   2.0000      -1.063288       -28.9335
  24   2.0000      -1.023805       -27.8592
  25   2.0000      -1.011610       -27.5273
  26   2.0000      -0.989060       -26.9137
  27   2.0000      -0.969213       -26.3736
  28   2.0000      -0.936571       -25.4854
  29   2.0000      -0.923890       -25.1403
  30   2.0000      -0.896405       -24.3924
  31   2.0000      -0.856170       -23.2976
  32   2.0000      -0.838269       -22.8105
  33   2.0000      -0.801283       -21.8040
  34   2.0000      -0.744710       -20.2646
  35   2.0000      -0.727966       -19.8090
  36   2.0000      -0.723285       -19.6816
  37   2.0000      -0.688648       -18.7391
  38   2.0000      -0.673455       -18.3256
  39   2.0000      -0.657612       -17.8945
  40   2.0000      -0.647466       -17.6184
  41   2.0000      -0.626185       -17.0394
  42   2.0000      -0.619298       -16.8519
  43   2.0000      -0.614596       -16.7240
  44   2.0000      -0.605509       -16.4767
  45   2.0000      -0.592839       -16.1320
  46   2.0000      -0.589000       -16.0275
  47   2.0000      -0.581235       -15.8162
  48   2.0000      -0.572396       -15.5757
  49   2.0000      -0.571096       -15.5403
  50   2.0000      -0.556327       -15.1384
  51   2.0000      -0.551490       -15.0068
  52   2.0000      -0.547994       -14.9117
  53   2.0000      -0.543125       -14.7792
  54   2.0000      -0.537940       -14.6381
  55   2.0000      -0.530407       -14.4331
  56   2.0000      -0.525619       -14.3028
  57   2.0000      -0.522673       -14.2227
  58   2.0000      -0.508881       -13.8473
  59   2.0000      -0.498672       -13.5695
  60   2.0000      -0.490545       -13.3484
  61   2.0000      -0.483267       -13.1504
  62   2.0000      -0.481674       -13.1070
  63   2.0000      -0.473302       -12.8792
  64   2.0000      -0.465158       -12.6576
  65   2.0000      -0.456605       -12.4248
  66   2.0000      -0.443447       -12.0668
  67   2.0000      -0.422552       -11.4982
  68   2.0000      -0.418788       -11.3958
  69   2.0000      -0.391505       -10.6534
  70   2.0000      -0.352277        -9.5859
  71   2.0000      -0.336656        -9.1609
  72   0.0000       0.023107         0.6288
  73   0.0000       0.027698         0.7537
  74   0.0000       0.028990         0.7889
  75   0.0000       0.031917         0.8685
  76   0.0000       0.037287         1.0146

MULLIKEN ATOMIC CHARGES
-----------------------
   0 C :   -1.004975
   1 C :    0.032097
   2 C :    0.630740
   3 C :    1.115330
   4 C :    0.121237
   5 H :    0.212214
   6 H :    0.023389
   7 H :    0.338738
   8 H :    0.487100
   9 H :    0.386672
  10 H :    0.041802
  11 C :   -0.993718
  12 C :   -1.082104
  13 H :    0.127962
  14 H :    0.220852
  15 H :    0.367234
  16 C :    0.153977
  17 C :   -1.645299
  18 C :    0.486596
  19 C :   -0.653057
  20 C :    1.763793
  21 O :   -1.508636
  22 C :    0.880011
  23 C :   -0.175121
  24 H :    0.154267
  25 C :   -1.206027
  26 H :    0.303029
  27 H :    0.321209
  28 H :    0.216599
  29 C :   -1.298829
  30 H :    0.204545
  31 H :    0.232320
  32 H :    0.391598
  33 C :   -0.883233
  34 H :    0.355709
  35 H :    0.125729
  36 H :    0.227245
  37 C :   -1.072441
  38 H :    0.335022
  39 H :    0.089210
  40 H :    0.206568
  41 H :    0.005096
  42 H :    0.261278
  43 H :   -0.514618
  44 H :    0.309319
  45 H :    0.542730
  46 H :    0.366841
Sum of atomic charges:   -0.0000000

LOEWDIN ATOMIC CHARGES
----------------------
   0 C :    0.327900
   1 C :    0.037773
   2 C :    0.055082
   3 C :    0.003992
   4 C :    0.005257
   5 H :   -0.118334
   6 H :   -0.131373
   7 H :   -0.136520
   8 H :   -0.127172
   9 H :   -0.129056
  10 H :   -0.126218
  11 C :    0.314554
  12 C :    0.604355
  13 H :   -0.156104
  14 H :   -0.154034
  15 H :   -0.191530
  16 C :    0.057522
  17 C :    0.272541
  18 C :    0.004156
  19 C :    0.252646
  20 C :   -0.507811
  21 O :    0.502678
  22 C :   -0.075227
  23 C :    0.234264
  24 H :   -0.205238
  25 C :    0.597688
  26 H :   -0.169190
  27 H :   -0.189913
  28 H :   -0.156557
  29 C :    0.578981
  30 H :   -0.167980
  31 H :   -0.169752
  32 H :   -0.199196
  33 C :    0.601501
  34 H :   -0.185394
  35 H :   -0.164327
  36 H :   -0.157056
  37 C :    0.618126
  38 H :   -0.163286
  39 H :   -0.150406
  40 H :   -0.183050
  41 H :   -0.183161
  42 H :   -0.162592
  43 H :   -0.190272
  44 H :   -0.135357
  45 H :   -0.151619
  46 H :   -0.131288

  Mayer bond orders larger than 0.100000
B(  0-C ,  1-C ) :   1.0116 B(  0-C ,  4-C ) :   0.9162 B(  0-C ,  5-H ) :  -0.1100
B(  0-C ,  6-H ) :   1.2715 B(  0-C ,  7-H ) :   0.9278 B(  0-C ,  8-H ) :  -0.1135
B(  0-C , 11-C ) :   0.2048 B(  0-C , 45-H ) :  -0.1321 B(  1-C ,  2-C ) :   0.8971
B(  1-C ,  3-C ) :   0.2070 B(  1-C ,  5-H ) :   1.0354 B(  1-C , 37-C ) :   0.6432
B(  1-C , 45-H ) :  -0.1325 B(  2-C ,  3-C ) :   1.0397 B(  2-C ,  5-H ) :  -0.1594
B(  2-C ,  6-H ) :  -0.1010 B(  2-C , 12-C ) :  -0.1041 B(  2-C , 16-C ) :   1.1953
B(  2-C , 17-C ) :   0.5938 B(  2-C , 20-C ) :   0.1884 B(  2-C , 22-C ) :  -0.1052
B(  2-C , 33-C ) :  -0.1349 B(  2-C , 45-H ) :   0.6581 B(  2-C , 46-H ) :  -0.1857
B(  3-C , 10-H ) :  -0.1306 B(  3-C , 11-C ) :   0.5405 B(  3-C , 17-C ) :  -0.5935
B(  3-C , 18-C ) :   0.1186 B(  3-C , 20-C ) :  -0.1181 B(  3-C , 46-H ) :   1.0210
B(  4-C ,  8-H ) :   0.8639 B(  4-C ,  9-H ) :  -0.1051 B(  4-C , 11-C ) :   1.0394
B(  4-C , 12-C ) :   0.6622 B(  8-H , 12-C ) :  -0.1060 B(  9-H , 11-C ) :   0.8753
B( 10-H , 11-C ) :   1.4002 B( 11-C , 12-C ) :   0.1250 B( 11-C , 17-C ) :  -0.2899
B( 11-C , 45-H ) :  -0.1076 B( 12-C , 13-H ) :   1.1694 B( 12-C , 14-H ) :   1.0626
B( 12-C , 15-H ) :   0.9463 B( 16-C , 18-C ) :   0.8437 B( 16-C , 19-C ) :   0.3142
B( 16-C , 20-C ) :   0.2398 B( 16-C , 22-C ) :   0.5838 B( 16-C , 33-C ) :   0.1223
B( 16-C , 37-C ) :  -0.1048 B( 16-C , 41-H ) :  -0.1114 B( 16-C , 42-H ) :   0.1421
B( 16-C , 43-H ) :   0.7850 B( 16-C , 44-H ) :  -0.1197 B( 16-C , 45-H ) :  -0.2318
B( 17-C , 18-C ) :   0.5165 B( 17-C , 19-C ) :   0.9628 B( 17-C , 41-H ) :  -0.2709
B( 17-C , 42-H ) :   1.0383 B( 17-C , 44-H ) :  -0.3571 B( 17-C , 46-H ) :  -0.4719
B( 18-C , 19-C ) :   0.6584 B( 18-C , 20-C ) :   0.2165 B( 18-C , 22-C ) :   0.8071
B( 18-C , 24-H ) :  -0.1296 B( 18-C , 25-C ) :   0.1630 B( 18-C , 41-H ) :  -0.1383
B( 18-C , 43-H ) :  -0.1437 B( 18-C , 44-H ) :   1.2389 B( 18-C , 46-H ) :  -0.1112
B( 19-C , 22-C ) :   0.1527 B( 19-C , 23-C ) :  -0.1331 B( 19-C , 24-H ) :  -0.1257
B( 19-C , 41-H ) :   1.6181 B( 19-C , 42-H ) :  -0.1118 B( 19-C , 44-H ) :  -0.2260
B( 20-C , 33-C ) :   0.6149 B( 20-C , 43-H ) :   0.4743 B( 20-C , 45-H ) :   0.3173
B( 21-O , 43-H ) :   0.4490 B( 22-C , 23-C ) :   0.9944 B( 22-C , 24-H ) :  -0.2949
B( 22-C , 25-C ) :   0.5389 B( 22-C , 26-H ) :  -0.1586 B( 22-C , 29-C ) :   0.2513
B( 22-C , 41-H ) :   0.1066 B( 22-C , 43-H ) :   0.1954 B( 23-C , 24-H ) :   1.6854
B( 23-C , 25-C ) :  -0.2809 B( 23-C , 29-C ) :   0.3707 B( 23-C , 30-H ) :  -0.1288
B( 23-C , 31-H ) :  -0.1277 B( 23-C , 41-H ) :  -0.2378 B( 23-C , 44-H ) :  -0.1166
B( 24-H , 29-C ) :  -0.3135 B( 25-C , 26-H ) :   1.0552 B( 25-C , 27-H ) :   0.8914
B( 25-C , 28-H ) :   1.1534 B( 29-C , 30-H ) :   1.1811 B( 29-C , 31-H ) :   1.1419
B( 29-C , 32-H ) :   0.8300 B( 33-C , 34-H ) :   0.9580 B( 33-C , 35-H ) :   1.1291
B( 33-C , 36-H ) :   1.0257 B( 37-C , 38-H ) :   0.9540 B( 37-C , 39-H ) :   1.2220
B( 37-C , 40-H ) :   1.1254 B( 42-H , 44-H ) :  -0.1053

MP2 TOTAL ENERGY:     -776.355398723 Eh
FINAL SINGLE POINT ENERGY      -776.355398722751

DIPOLE MOMENT
-------------
                                X             Y             Z
Electronic contribution:     -5.39763       0.62998       2.93847
Nuclear contribution   :      5.92642      -1.62571      -2.86132
                        -----------------------------------------
Total Dipole Moment    :      0.52880      -0.99573       0.07715
                        -----------------------------------------
Magnitude (a.u.)       :      1.13007
Magnitude (Debye)      :      2.87241

Rotational constants in cm-1:     0.024474     0.007883     0.007272
Rotational constants in MHz :   733.700636   236.324646   218.001232

                             ****ORCA TERMINATED NORMALLY****
TOTAL RUN TIME: 0 days 1 hours 22 minutes 44 seconds 628 msec
