                         Program Version 4.2.1 -  RELEASE  -
|  1> %pal
|  2>  nprocs 32
|  3> end
|  4> !RI-MP2 aug-cc-pVTZ aug-cc-pVTZ/C TightSCF
|  5> %maxcore 4500
|  6> *xyzfile 0 2  04_38R2.xyz
|  7>
|  8>
|  9>                          ****END OF INPUT****

CARTESIAN COORDINATES (ANGSTROEM)
---------------------------------
  C     -1.183296   -0.194692    0.000000
  C      0.178077    0.478178    0.000001
  H     -1.297485   -0.823896   -0.884191
  H     -1.983410    0.549625    0.000022
  H     -1.297466   -0.823927    0.884172
  H      0.303353    1.154930    0.865620
  H      0.303361    1.154908   -0.865635
  O      1.250370   -0.364069    0.000001

 Total Charge           Charge          ....    0
 Multiplicity           Mult            ....    2
 Number of Electrons    NEL             ....   25
 Basis Dimension        Dim             ....  253

ORBITAL ENERGIES
----------------
                 SPIN UP ORBITALS
  NO   OCC          E(Eh)            E(eV)
   0   1.0000     -20.616618      -561.0067
   1   1.0000     -11.283547      -307.0409
   2   1.0000     -11.222420      -305.3776
   3   1.0000      -1.408994       -38.3407
   4   1.0000      -1.013919       -27.5901
   5   1.0000      -0.845475       -23.0065
   6   1.0000      -0.712754       -19.3950
   7   1.0000      -0.653966       -17.7953
   8   1.0000      -0.609501       -16.5854
   9   1.0000      -0.575491       -15.6599
  10   1.0000      -0.541293       -14.7293
  11   1.0000      -0.484227       -13.1765
  12   1.0000      -0.467542       -12.7225
  13   0.0000       0.029719         0.8087
  14   0.0000       0.040467         1.1012
  15   0.0000       0.041030         1.1165
  16   0.0000       0.048644         1.3237
  17   0.0000       0.065249         1.7755

                 SPIN DOWN ORBITALS
  NO   OCC          E(Eh)            E(eV)
   0   1.0000     -20.577214      -559.9345
   1   1.0000     -11.286480      -307.1207
   2   1.0000     -11.222476      -305.3791
   3   1.0000      -1.281159       -34.8621
   4   1.0000      -0.998628       -27.1740
   5   1.0000      -0.825199       -22.4548
   6   1.0000      -0.630931       -17.1685
   7   1.0000      -0.624660       -16.9979
   8   1.0000      -0.587349       -15.9826
   9   1.0000      -0.533227       -14.5098
  10   1.0000      -0.509723       -13.8703
  11   1.0000      -0.437979       -11.9180
  12   0.0000       0.029815         0.8113
  13   0.0000       0.040515         1.1025
  14   0.0000       0.041037         1.1167
  15   0.0000       0.048753         1.3266
  16   0.0000       0.063380         1.7247

MULLIKEN ATOMIC CHARGES AND SPIN POPULATIONS
--------------------------------------------
   0 C :   -0.903273    0.013547
   1 C :   -0.062497   -0.193181
   2 H :    0.279375   -0.003883
   3 H :    0.310726   -0.003778
   4 H :    0.279373   -0.003883
   5 H :    0.299744    0.081242
   6 H :    0.299743    0.081248
   7 O :   -0.503192    1.028688
Sum of atomic charges         :   -0.0000000

LOEWDIN ATOMIC CHARGES AND SPIN POPULATIONS
-------------------------------------------
   0 C :    0.554631   -0.003436
   1 C :   -0.147093    0.125559
   2 H :   -0.183256   -0.000670
   3 H :   -0.180630   -0.000896
   4 H :   -0.183256   -0.000670
   5 H :   -0.175751    0.023639
   6 H :   -0.175752    0.023641
   7 O :    0.491107    0.832833

  Mayer bond orders larger than 0.100000
B(  0-C ,  1-C ) :   0.9167 B(  0-C ,  2-H ) :   0.9249 B(  0-C ,  3-H ) :   0.9067
B(  0-C ,  4-H ) :   0.9249 B(  1-C ,  5-H ) :   0.8948 B(  1-C ,  6-H ) :   0.8948
B(  1-C ,  7-O ) :   0.7300

MP2 TOTAL ENERGY:     -154.072208450 Eh
FINAL SINGLE POINT ENERGY      -154.072208450136

DIPOLE MOMENT
-------------
                                X             Y             Z
Electronic contribution:      3.51311      -0.79810       0.00001
Nuclear contribution   :     -4.11776       1.25650      -0.00001
                        -----------------------------------------
Total Dipole Moment    :     -0.60466       0.45840      -0.00000
                        -----------------------------------------
Magnitude (a.u.)       :      0.75877
Magnitude (Debye)      :      1.92865

Rotational constants in cm-1:     1.330234     0.320687     0.285401
Rotational constants in MHz : 39879.409320  9613.956793  8556.093106

                             ****ORCA TERMINATED NORMALLY****
TOTAL RUN TIME: 0 days 0 hours 0 minutes 21 seconds 670 msec
