                         Program Version 4.2.1 -  RELEASE  -
|  1> %pal
|  2>  nprocs 32
|  3> end
|  4> !RI-MP2 aug-cc-pVTZ aug-cc-pVTZ/C TightSCF
|  5> %maxcore 4500
|  6> *xyzfile 0 1  06_10R2.xyz
|  7>
|  8>
|  9>                          ****END OF INPUT****

CARTESIAN COORDINATES (ANGSTROEM)
---------------------------------
  C     -0.004175    1.297467    0.706683
  C     -0.004185   -1.297467    0.706683
  C     -1.287618    1.287234   -0.174055
  H     -2.150528    1.445120    0.483636
  H     -1.266469    2.148245   -0.851023
  H     -0.031724   -2.215011    1.300830
  H     -0.031707    2.215011    1.300831
  H     -0.444351    0.000001    2.721408
  C     -1.287635   -1.287220   -0.174047
  H     -2.150544   -1.445087    0.483650
  H     -1.266504   -2.148236   -0.851009
  B     -0.136935    0.000000    1.565978
  C      1.316343   -1.287602   -0.093432
  H      2.135029   -1.450854    0.617181
  H      1.341783   -2.143176   -0.777862
  C      1.316359    1.287588   -0.093423
  H      2.135044    1.450821    0.617196
  H      1.341816    2.143167   -0.777846
  C     -1.515361    0.000006   -0.980270
  H     -0.879740   -0.000001   -1.864476
  H     -2.541732    0.000012   -1.359190
  C      1.601385   -0.000006   -0.878454
  H      2.651891   -0.000011   -1.184187
  H      1.031732    0.000001   -1.807138

 Total Charge           Charge          ....    0
 Multiplicity           Mult            ....    1
 Number of Electrons    NEL             ....   68
 Basis Dimension        Dim             ....  759

ORBITAL ENERGIES
----------------

  NO   OCC          E(Eh)            E(eV)
   0   2.0000     -11.220728      -305.3315
   1   2.0000     -11.220713      -305.3311
   2   2.0000     -11.215755      -305.1962
   3   2.0000     -11.215726      -305.1954
   4   2.0000     -11.214177      -305.1533
   5   2.0000     -11.211319      -305.0755
   6   2.0000     -11.192793      -304.5714
   7   2.0000     -11.192786      -304.5712
   8   2.0000      -7.573197      -206.0772
   9   2.0000      -1.113624       -30.3033
  10   2.0000      -1.041093       -28.3296
  11   2.0000      -1.024243       -27.8711
  12   2.0000      -0.931374       -25.3440
  13   2.0000      -0.912689       -24.8355
  14   2.0000      -0.791246       -21.5309
  15   2.0000      -0.779608       -21.2142
  16   2.0000      -0.750873       -20.4323
  17   2.0000      -0.672169       -18.2907
  18   2.0000      -0.644125       -17.5275
  19   2.0000      -0.595068       -16.1926
  20   2.0000      -0.583103       -15.8670
  21   2.0000      -0.576425       -15.6853
  22   2.0000      -0.570780       -15.5317
  23   2.0000      -0.559195       -15.2165
  24   2.0000      -0.540064       -14.6959
  25   2.0000      -0.502306       -13.6684
  26   2.0000      -0.481257       -13.0957
  27   2.0000      -0.476840       -12.9755
  28   2.0000      -0.473136       -12.8747
  29   2.0000      -0.470780       -12.8106
  30   2.0000      -0.455445       -12.3933
  31   2.0000      -0.420362       -11.4386
  32   2.0000      -0.394794       -10.7429
  33   2.0000      -0.387500       -10.5444
  34   0.0000       0.024023         0.6537
  35   0.0000       0.033170         0.9026
  36   0.0000       0.034957         0.9512
  37   0.0000       0.035184         0.9574
  38   0.0000       0.048415         1.3174

MULLIKEN ATOMIC CHARGES
-----------------------
   0 C :    0.160194
   1 C :    0.160197
   2 C :   -0.640579
   3 H :    0.162675
   4 H :    0.265154
   5 H :    0.415194
   6 H :    0.415197
   7 H :   -0.131278
   8 C :   -0.640582
   9 H :    0.162678
  10 H :    0.265158
  11 B :   -0.309312
  12 C :   -0.623417
  13 H :    0.142093
  14 H :    0.223694
  15 C :   -0.623419
  16 H :    0.142098
  17 H :    0.223694
  18 C :   -0.464510
  19 H :    0.230437
  20 H :    0.322130
  21 C :   -0.408559
  22 H :    0.310816
  23 H :    0.240246
Sum of atomic charges:   -0.0000000

LOEWDIN ATOMIC CHARGES
----------------------
   0 C :    0.099127
   1 C :    0.099127
   2 C :    0.318010
   3 H :   -0.132480
   4 H :   -0.131312
   5 H :   -0.145748
   6 H :   -0.145748
   7 H :   -0.047643
   8 C :    0.318011
   9 H :   -0.132479
  10 H :   -0.131312
  11 B :   -0.057728
  12 C :    0.314508
  13 H :   -0.135946
  14 H :   -0.134043
  15 C :    0.314508
  16 H :   -0.135945
  17 H :   -0.134043
  18 C :    0.317862
  19 H :   -0.179355
  20 H :   -0.134870
  21 C :    0.313635
  22 H :   -0.136281
  23 H :   -0.179856

  Mayer bond orders larger than 0.100000
B(  0-C ,  1-C ) :   0.2303 B(  0-C ,  2-C ) :   0.8884 B(  0-C ,  6-H ) :   0.7997
B(  0-C , 11-B ) :   1.0897 B(  0-C , 15-C ) :   0.7599 B(  1-C ,  5-H ) :   0.7997
B(  1-C ,  8-C ) :   0.8884 B(  1-C , 11-B ) :   1.0897 B(  1-C , 12-C ) :   0.7599
B(  2-C ,  3-H ) :   1.0368 B(  2-C ,  4-H ) :   0.9434 B(  2-C , 11-B ) :   0.1927
B(  2-C , 18-C ) :   0.8924 B(  7-H , 11-B ) :   0.8882 B(  8-C ,  9-H ) :   1.0368
B(  8-C , 10-H ) :   0.9434 B(  8-C , 11-B ) :   0.1927 B(  8-C , 18-C ) :   0.8924
B( 12-C , 13-H ) :   1.0799 B( 12-C , 14-H ) :   0.9755 B( 12-C , 15-C ) :   0.1224
B( 12-C , 21-C ) :   0.8857 B( 15-C , 16-H ) :   1.0799 B( 15-C , 17-H ) :   0.9755
B( 15-C , 21-C ) :   0.8857 B( 18-C , 19-H ) :   1.0358 B( 18-C , 20-H ) :   0.9166
B( 21-C , 22-H ) :   0.9357 B( 21-C , 23-H ) :   1.0167

MP2 TOTAL ENERGY:     -337.954227115 Eh
FINAL SINGLE POINT ENERGY      -337.954227114953

DIPOLE MOMENT
-------------
                                X             Y             Z
Electronic contribution:      0.02629      -0.00000       3.17179
Nuclear contribution   :     -0.01639       0.00000      -3.35958
                        -----------------------------------------
Total Dipole Moment    :      0.00990      -0.00000      -0.18778
                        -----------------------------------------
Magnitude (a.u.)       :      0.18804
Magnitude (Debye)      :      0.47797

Rotational constants in cm-1:     0.069656     0.063349     0.049868
Rotational constants in MHz :  2088.232802  1899.151347  1494.990520

                             ****ORCA TERMINATED NORMALLY****
TOTAL RUN TIME: 0 days 0 hours 7 minutes 54 seconds 549 msec
