                         Program Version 4.2.1 -  RELEASE  -
|  1> %pal
|  2>  nprocs 32
|  3> end
|  4> !RI-MP2 aug-cc-pVTZ aug-cc-pVTZ/C TightSCF
|  5> %maxcore 4500
|  6> *xyzfile 1 1  05_31TS.xyz
|  7>
|  8>
|  9>                          ****END OF INPUT****

CARTESIAN COORDINATES (ANGSTROEM)
---------------------------------
  C     -1.311997   -0.251047   -0.887417
  C     -1.780696   -1.117702    1.576842
  C     -3.237657   -1.324383    1.143524
  C     -3.678605   -0.367264    0.051566
  C     -2.785659   -0.555813   -1.169604
  H     -3.353812   -2.353665    0.787683
  H     -3.866658   -1.213440    2.029208
  H     -3.599016    0.665333    0.394581
  H     -2.882782   -1.586849   -1.523446
  H     -3.120177    0.104997   -1.969349
  N     -0.926442   -0.970557    0.361842
  O      0.302591   -1.265431    0.506133
  C     -0.443967   -0.779014   -2.026687
  H     -0.813307   -0.360659   -2.963287
  H      0.599170   -0.486626   -1.914004
  H     -0.499336   -1.866544   -2.091540
  C     -1.082519    1.261371   -0.728990
  H     -0.046598    1.475465   -0.472081
  H     -1.299215    1.738839   -1.685172
  H     -1.732971    1.715796    0.014361
  C     -1.301234   -2.344677    2.350356
  H     -0.310163   -2.200051    2.777313
  H     -1.998857   -2.534855    3.166691
  H     -1.274745   -3.225584    1.708082
  C     -1.630648    0.136024    2.454231
  H     -2.122326   -0.046707    3.410471
  H     -0.580703    0.345555    2.662885
  H     -2.077969    1.020725    2.006918
  C      2.145280    0.104021    1.499821
  H      1.794386    0.162285    2.529011
  H      1.005349   -0.414412    0.963008
  C      2.237249    1.395472    0.817611
  C      2.713668    1.596391   -0.487265
  C      1.726305    2.490222    1.532525
  C      2.707575    2.866110   -1.033179
  H      3.080230    0.770093   -1.076240
  C      1.724008    3.756451    0.977486
  H      1.348905    2.345698    2.538257
  C      2.217506    3.946546   -0.306608
  H      3.083337    3.015913   -2.037234
  H      1.342521    4.594899    1.545764
  O      2.993689   -0.925117    1.403819
  H      2.216638    4.936607   -0.745248
  C      3.794352   -1.144436    0.272436
  C      3.284073   -1.880309   -0.780795
  C      5.090328   -0.667050    0.286988
  C      4.100430   -2.110425   -1.879931
  H      2.272221   -2.260160   -0.733284
  C      5.894811   -0.907377   -0.818412
  H      5.455610   -0.116695    1.144282
  C      5.399971   -1.620494   -1.902419
  H      3.721692   -2.684102   -2.716419
  H      6.912942   -0.539711   -0.827914
  H      6.032822   -1.806993   -2.760564
  N     -5.075795   -0.565191   -0.272606
  C     -5.781388    0.431601   -0.886485
  C     -7.223685    0.136845   -1.200640
  H     -7.541781   -0.858539   -0.890000
  H     -7.845770    0.882694   -0.705263
  H     -7.376878    0.244910   -2.274709
  O     -5.254226    1.495556   -1.151805
  H     -5.508529   -1.460422   -0.112310

 Total Charge           Charge          ....    1
 Multiplicity           Mult            ....    1
 Number of Electrons    NEL             ....  214
 Basis Dimension        Dim             .... 2093

ORBITAL ENERGIES
----------------

  NO   OCC          E(Eh)            E(eV)
   0   2.0000     -20.808703      -566.2336
   1   2.0000     -20.747824      -564.5770
   2   2.0000     -20.597903      -560.4974
   3   2.0000     -15.799963      -429.9388
   4   2.0000     -15.673589      -426.5000
   5   2.0000     -11.495696      -312.8138
   6   2.0000     -11.431391      -311.0640
   7   2.0000     -11.412002      -310.5364
   8   2.0000     -11.409606      -310.4712
   9   2.0000     -11.402047      -310.2655
  10   2.0000     -11.385851      -309.8248
  11   2.0000     -11.376830      -309.5793
  12   2.0000     -11.371164      -309.4251
  13   2.0000     -11.370473      -309.4063
  14   2.0000     -11.367798      -309.3335
  15   2.0000     -11.357390      -309.0503
  16   2.0000     -11.356761      -309.0332
  17   2.0000     -11.345020      -308.7137
  18   2.0000     -11.344891      -308.7102
  19   2.0000     -11.344312      -308.6944
  20   2.0000     -11.343583      -308.6746
  21   2.0000     -11.342346      -308.6409
  22   2.0000     -11.341730      -308.6242
  23   2.0000     -11.336916      -308.4932
  24   2.0000     -11.331741      -308.3524
  25   2.0000     -11.330739      -308.3251
  26   2.0000     -11.329032      -308.2786
  27   2.0000     -11.327788      -308.2448
  28   2.0000     -11.310094      -307.7633
  29   2.0000      -1.642829       -44.7036
  30   2.0000      -1.578808       -42.9616
  31   2.0000      -1.467853       -39.9423
  32   2.0000      -1.334301       -36.3082
  33   2.0000      -1.302048       -35.4305
  34   2.0000      -1.295776       -35.2599
  35   2.0000      -1.269675       -34.5496
  36   2.0000      -1.228120       -33.4188
  37   2.0000      -1.194106       -32.4933
  38   2.0000      -1.159954       -31.5640
  39   2.0000      -1.150516       -31.3071
  40   2.0000      -1.137125       -30.9427
  41   2.0000      -1.132493       -30.8167
  42   2.0000      -1.115067       -30.3425
  43   2.0000      -1.075477       -29.2652
  44   2.0000      -1.067191       -29.0397
  45   2.0000      -1.056604       -28.7516
  46   2.0000      -1.053356       -28.6633
  47   2.0000      -1.049327       -28.5536
  48   2.0000      -0.969263       -26.3750
  49   2.0000      -0.963290       -26.2125
  50   2.0000      -0.957885       -26.0654
  51   2.0000      -0.949400       -25.8345
  52   2.0000      -0.945862       -25.7382
  53   2.0000      -0.917847       -24.9759
  54   2.0000      -0.898941       -24.4614
  55   2.0000      -0.882472       -24.0133
  56   2.0000      -0.856740       -23.3131
  57   2.0000      -0.831131       -22.6162
  58   2.0000      -0.818407       -22.2700
  59   2.0000      -0.810008       -22.0414
  60   2.0000      -0.807980       -21.9863
  61   2.0000      -0.806397       -21.9432
  62   2.0000      -0.789135       -21.4735
  63   2.0000      -0.779089       -21.2001
  64   2.0000      -0.771886       -21.0041
  65   2.0000      -0.758473       -20.6391
  66   2.0000      -0.752367       -20.4729
  67   2.0000      -0.744569       -20.2608
  68   2.0000      -0.734006       -19.9733
  69   2.0000      -0.723497       -19.6873
  70   2.0000      -0.722346       -19.6560
  71   2.0000      -0.719323       -19.5738
  72   2.0000      -0.711654       -19.3651
  73   2.0000      -0.707702       -19.2576
  74   2.0000      -0.703643       -19.1471
  75   2.0000      -0.698559       -19.0088
  76   2.0000      -0.694228       -18.8909
  77   2.0000      -0.686188       -18.6721
  78   2.0000      -0.683196       -18.5907
  79   2.0000      -0.682685       -18.5768
  80   2.0000      -0.673660       -18.3312
  81   2.0000      -0.662640       -18.0314
  82   2.0000      -0.656195       -17.8560
  83   2.0000      -0.649606       -17.6767
  84   2.0000      -0.644458       -17.5366
  85   2.0000      -0.640474       -17.4282
  86   2.0000      -0.638250       -17.3677
  87   2.0000      -0.634062       -17.2537
  88   2.0000      -0.630597       -17.1594
  89   2.0000      -0.627882       -17.0855
  90   2.0000      -0.622605       -16.9419
  91   2.0000      -0.618934       -16.8421
  92   2.0000      -0.609174       -16.5765
  93   2.0000      -0.604178       -16.4405
  94   2.0000      -0.601111       -16.3571
  95   2.0000      -0.598183       -16.2774
  96   2.0000      -0.597175       -16.2500
  97   2.0000      -0.588217       -16.0062
  98   2.0000      -0.574214       -15.6252
  99   2.0000      -0.568213       -15.4619
 100   2.0000      -0.508076       -13.8255
 101   2.0000      -0.505033       -13.7427
 102   2.0000      -0.481257       -13.0957
 103   2.0000      -0.470030       -12.7902
 104   2.0000      -0.449223       -12.2240
 105   2.0000      -0.444978       -12.1085
 106   2.0000      -0.433717       -11.8020
 107   0.0000      -0.146304        -3.9811
 108   0.0000      -0.054039        -1.4705
 109   0.0000      -0.047405        -1.2900
 110   0.0000      -0.045253        -1.2314
 111   0.0000      -0.040357        -1.0982

MULLIKEN ATOMIC CHARGES
-----------------------
   0 C :    2.046864
   1 C :    1.755763
   2 C :   -1.300442
   3 C :    1.189194
   4 C :   -1.269788
   5 H :    0.202608
   6 H :    0.339725
   7 H :    0.579532
   8 H :    0.171791
   9 H :    0.411787
  10 N :    1.101613
  11 O :   -1.101254
  12 C :   -2.090018
  13 H :    0.002642
  14 H :    0.714018
  15 H :    0.138492
  16 C :   -1.826381
  17 H :    1.203580
  18 H :   -0.022449
  19 H :    0.316377
  20 C :   -1.851000
  21 H :    0.330742
  22 H :    0.091997
  23 H :    0.211480
  24 C :   -1.494344
  25 H :    0.033700
  26 H :    0.668280
  27 H :    0.321648
  28 C :    0.407416
  29 H :    0.563698
  30 H :    0.483634
  31 C :    0.733880
  32 C :   -0.525167
  33 C :   -0.723206
  34 C :   -0.999903
  35 H :    0.671905
  36 C :   -0.415379
  37 H :    0.154388
  38 C :   -0.209895
  39 H :    0.315429
  40 H :    0.508407
  41 O :   -1.247561
  42 H :    0.712272
  43 C :    1.199093
  44 C :   -0.764796
  45 C :   -0.694475
  46 C :   -0.762728
  47 H :    0.738203
  48 C :   -0.536784
  49 H :    0.570401
  50 C :   -0.358859
  51 H :    0.278635
  52 H :    0.358231
  53 H :    0.683573
  54 N :   -0.625354
  55 C :    0.730134
  56 C :   -0.902801
  57 H :    0.274627
  58 H :    0.326401
  59 H :    0.321833
  60 O :   -1.051519
  61 H :   -0.089889
Sum of atomic charges:    1.0000000

LOEWDIN ATOMIC CHARGES
----------------------
   0 C :   -0.362855
   1 C :   -0.367563
   2 C :    0.335139
   3 C :   -0.102953
   4 C :    0.335417
   5 H :   -0.122725
   6 H :   -0.114356
   7 H :   -0.164517
   8 H :   -0.119217
   9 H :   -0.130283
  10 N :    0.115203
  11 O :    0.749541
  12 C :    0.603943
  13 H :   -0.140440
  14 H :   -0.170849
  15 H :   -0.145035
  16 C :    0.640454
  17 H :   -0.200554
  18 H :   -0.128893
  19 H :   -0.170665
  20 C :    0.604537
  21 H :   -0.158642
  22 H :   -0.143950
  23 H :   -0.145238
  24 C :    0.631954
  25 H :   -0.136404
  26 H :   -0.170959
  27 H :   -0.172782
  28 C :    0.018301
  29 H :   -0.136499
  30 H :   -0.535375
  31 C :   -0.088342
  32 C :    0.236862
  33 C :    0.229181
  34 C :    0.246628
  35 H :   -0.206690
  36 C :    0.240753
  37 H :   -0.160548
  38 C :    0.244278
  39 H :   -0.163709
  40 H :   -0.165809
  41 O :    0.665825
  42 H :   -0.157956
  43 C :   -0.373841
  44 C :    0.210450
  45 C :    0.222527
  46 C :    0.217343
  47 H :   -0.189148
  48 C :    0.219091
  49 H :   -0.158953
  50 C :    0.218510
  51 H :   -0.169352
  52 H :   -0.167847
  53 H :   -0.171838
  54 N :    0.592209
  55 C :   -0.661998
  56 C :    0.611803
  57 H :   -0.179023
  58 H :   -0.165101
  59 H :   -0.165460
  60 O :    0.469400
  61 H :   -0.272979

  Mayer bond orders larger than 0.100000
B(  0-C ,  2-C ) :  -0.1177 B(  0-C ,  8-H ) :  -0.1013 B(  0-C , 10-N ) :   0.9218
B(  0-C , 11-O ) :   0.2876 B(  0-C , 13-H ) :  -0.3074 B(  0-C , 15-H ) :  -0.1961
B(  0-C , 16-C ) :   0.4089 B(  1-C ,  2-C ) :   0.2347 B(  1-C ,  3-C ) :   0.1056
B(  1-C , 10-N ) :   0.6149 B(  1-C , 11-O ) :   0.2647 B(  1-C , 20-C ) :   0.1820
B(  1-C , 22-H ) :  -0.2286 B(  1-C , 23-H ) :  -0.1463 B(  1-C , 24-C ) :   0.3412
B(  1-C , 25-H ) :  -0.1328 B(  1-C , 26-H ) :   0.1151 B(  1-C , 27-H ) :  -0.1013
B(  2-C ,  3-C ) :   0.5073 B(  2-C ,  4-C ) :   0.3022 B(  2-C ,  5-H ) :   1.2695
B(  2-C ,  6-H ) :   0.8460 B(  2-C , 10-N ) :   0.1370 B(  2-C , 20-C ) :  -0.1837
B(  2-C , 54-N ) :   0.2104 B(  3-C ,  4-C ) :   0.8127 B(  3-C ,  7-H ) :   0.8137
B(  3-C , 10-N ) :  -0.1982 B(  3-C , 60-O ) :   0.1324 B(  4-C ,  7-H ) :   0.2491
B(  4-C ,  8-H ) :   1.2506 B(  4-C ,  9-H ) :   0.9283 B(  4-C , 54-N ) :   0.1575
B(  7-H , 54-N ) :  -0.4464 B(  7-H , 55-C ) :  -0.1536 B(  7-H , 60-O ) :  -0.2752
B( 10-N , 11-O ) :   0.1397 B( 10-N , 12-C ) :  -0.2921 B( 10-N , 15-H ) :  -0.1342
B( 10-N , 16-C ) :   0.1829 B( 10-N , 20-C ) :  -0.5649 B( 10-N , 23-H ) :  -0.2985
B( 10-N , 24-C ) :   0.2525 B( 10-N , 30-H ) :   0.2697 B( 11-O , 20-C ) :   0.2517
B( 11-O , 23-H ) :   0.1370 B( 11-O , 30-H ) :  -0.1933 B( 11-O , 31-C ) :   0.1856
B( 11-O , 44-C ) :  -0.1000 B( 12-C , 13-H ) :   1.6273 B( 12-C , 14-H ) :   0.4397
B( 12-C , 15-H ) :   1.4468 B( 12-C , 16-C ) :   0.1169 B( 12-C , 17-H ) :  -0.1182
B( 16-C , 18-H ) :   1.4900 B( 16-C , 19-H ) :   1.0994 B( 17-H , 18-H ) :  -0.1366
B( 17-H , 34-C ) :  -0.1282 B( 17-H , 38-C ) :  -0.1427 B( 20-C , 21-H ) :   0.9726
B( 20-C , 22-H ) :   1.4157 B( 20-C , 23-H ) :   1.3015 B( 20-C , 24-C ) :   0.1177
B( 24-C , 25-H ) :   1.3657 B( 24-C , 26-H ) :   0.5408 B( 24-C , 27-H ) :   1.0774
B( 24-C , 30-H ) :  -0.1079 B( 28-C , 29-H ) :   0.9736 B( 28-C , 30-H ) :   0.3884
B( 28-C , 31-C ) :   0.6105 B( 28-C , 32-C ) :   0.1052 B( 28-C , 33-C ) :   0.3716
B( 28-C , 37-H ) :  -0.1200 B( 28-C , 41-O ) :   0.2783 B( 28-C , 43-C ) :   0.2565
B( 29-H , 30-H ) :  -0.1170 B( 29-H , 31-C ) :  -0.1550 B( 29-H , 41-O ) :  -0.1337
B( 30-H , 31-C ) :   0.5245 B( 30-H , 36-C ) :   0.1306 B( 31-C , 32-C ) :   0.9316
B( 31-C , 33-C ) :   0.3228 B( 31-C , 34-C ) :   0.2879 B( 31-C , 35-H ) :  -0.1237
B( 31-C , 36-C ) :   0.3460 B( 31-C , 40-H ) :  -0.1897 B( 31-C , 42-H ) :   0.1759
B( 31-C , 43-C ) :  -0.1263 B( 31-C , 45-C ) :  -0.1155 B( 32-C , 33-C ) :  -0.1063
B( 32-C , 34-C ) :   1.4264 B( 32-C , 35-H ) :   0.3793 B( 32-C , 38-C ) :   0.2590
B( 32-C , 43-C ) :   0.1054 B( 32-C , 45-C ) :   0.1496 B( 33-C , 34-C ) :   0.1312
B( 33-C , 36-C ) :   1.2369 B( 33-C , 37-H ) :   1.2848 B( 33-C , 38-C ) :   0.1755
B( 34-C , 35-H ) :  -0.1979 B( 34-C , 38-C ) :   1.0700 B( 34-C , 39-H ) :   1.0171
B( 36-C , 38-C ) :   1.0754 B( 36-C , 40-H ) :   0.7419 B( 36-C , 42-H ) :  -0.1198
B( 38-C , 42-H ) :   0.3842 B( 41-O , 43-C ) :   0.5868 B( 41-O , 44-C ) :   0.1109
B( 43-C , 44-C ) :   1.2235 B( 43-C , 45-C ) :   0.9885 B( 43-C , 46-C ) :  -0.1005
B( 43-C , 47-H ) :  -0.1309 B( 43-C , 51-H ) :   0.2526 B( 43-C , 52-H ) :   0.1126
B( 44-C , 46-C ) :   1.2965 B( 44-C , 47-H ) :   0.2724 B( 44-C , 50-C ) :   0.2345
B( 44-C , 51-H ) :  -0.1881 B( 45-C , 48-C ) :   1.1805 B( 45-C , 49-H ) :   0.5281
B( 45-C , 50-C ) :   0.2090 B( 46-C , 47-H ) :  -0.1779 B( 46-C , 48-C ) :  -0.1639
B( 46-C , 50-C ) :   1.2296 B( 46-C , 51-H ) :   1.2028 B( 48-C , 50-C ) :   1.2636
B( 48-C , 52-H ) :   0.9617 B( 50-C , 51-H ) :  -0.1279 B( 50-C , 52-H ) :  -0.1649
B( 50-C , 53-H ) :   0.4563 B( 54-N , 55-C ) :   1.1738 B( 54-N , 61-H ) :   1.3104
B( 55-C , 56-C ) :   0.4300 B( 55-C , 60-O ) :   1.4842 B( 55-C , 61-H ) :  -0.1013
B( 56-C , 57-H ) :   1.0014 B( 56-C , 58-H ) :   0.9938 B( 56-C , 59-H ) :   0.9846
B( 56-C , 60-O ) :  -0.1393

MP2 TOTAL ENERGY:    -1266.821985853 Eh
FINAL SINGLE POINT ENERGY     -1266.821985852639

DIPOLE MOMENT
-------------
                                X             Y             Z
Electronic contribution:     19.88927       1.73007       0.46250
Nuclear contribution   :    -19.35123      -2.04786       0.19596
                        -----------------------------------------
Total Dipole Moment    :      0.53803      -0.31779       0.65846
                        -----------------------------------------
Magnitude (a.u.)       :      0.90777
Magnitude (Debye)      :      2.30736

Rotational constants in cm-1:     0.009541     0.003000     0.002786
Rotational constants in MHz :   286.034538    89.930012    83.537121

                             ****ORCA TERMINATED NORMALLY****
TOTAL RUN TIME: 0 days 4 hours 53 minutes 38 seconds 307 msec
