                         Program Version 4.2.1 -  RELEASE  -
|  1> %pal
|  2>  nprocs 32
|  3> end
|  4> !RI-MP2 aug-cc-pVTZ aug-cc-pVTZ/C TightSCF
|  5> %maxcore 4500
|  6> *xyzfile 1 1  05_15TS.xyz
|  7>
|  8>
|  9>                          ****END OF INPUT****

CARTESIAN COORDINATES (ANGSTROEM)
---------------------------------
  C      1.382881    1.281310    0.655214
  C      0.408797   -0.923641   -0.421549
  C      1.892145   -1.303454   -0.480792
  C      2.752059   -0.196439   -1.080822
  C      2.444702    1.189897   -0.462307
  H      2.244370   -1.546552    0.520793
  H      1.986877   -2.205136   -1.088699
  H      2.504146   -0.133680   -2.140308
  H      3.361695    1.605866   -0.048150
  H      2.142149    1.858517   -1.271107
  N      0.309067    0.271023    0.446548
  O     -0.737056    0.395490    1.174296
  C      1.969650    1.045315    2.053313
  H      2.505857    0.102410    2.111674
  H      2.685475    1.837996    2.277434
  H      1.174468    1.075833    2.799122
  C      0.749398    2.672046    0.597196
  H      0.043641    2.825367    1.413968
  H      1.536207    3.420366    0.695500
  H      0.250241    2.832993   -0.360279
  C     -0.385509   -2.070087    0.196794
  H     -0.033876   -2.288150    1.205684
  H     -1.451876   -1.856177    0.239353
  H     -0.244138   -2.959541   -0.417842
  C     -0.156320   -0.576753   -1.808915
  H     -0.015025   -1.424628   -2.481847
  H     -1.223531   -0.370849   -1.742419
  H      0.328177    0.295850   -2.247165
  C     -2.866184    1.378320    0.170640
  H     -3.037952    2.058040    1.009134
  H     -1.624077    0.907616    0.675121
  C     -3.558657    0.107201    0.167167
  C     -3.874748   -0.548375   -1.029870
  C     -3.863214   -0.493981    1.397127
  C     -4.491265   -1.784023   -0.989590
  H     -3.655466   -0.069838   -1.975037
  C     -4.474844   -1.732208    1.425964
  H     -3.615536    0.012411    2.323115
  C     -4.785667   -2.378858    0.234225
  H     -4.752330   -2.287146   -1.911822
  H     -4.714116   -2.195607    2.374264
  H     -5.268811   -3.347713    0.258607
  O     -2.581309    1.940847   -0.998622
  C     -2.478639    3.374280   -1.037317
  H     -1.951410    3.620542   -1.954296
  H     -1.925336    3.742624   -0.173259
  H     -3.481821    3.801097   -1.057205
  N      4.169312   -0.535827   -1.072721
  C      4.897103   -0.746046    0.058897
  H      4.637690   -0.611204   -1.959953
  O      4.394158   -0.661237    1.165408
  C      6.351711   -1.083899   -0.137177
  H      6.656539   -1.118298   -1.183080
  H      6.954176   -0.342475    0.388330
  H      6.548213   -2.051329    0.325739

 Total Charge           Charge          ....    1
 Multiplicity           Mult            ....    1
 Number of Electrons    NEL             ....  182
 Basis Dimension        Dim             .... 1817

ORBITAL ENERGIES
----------------

  NO   OCC          E(Eh)            E(eV)
   0   2.0000     -20.785806      -565.6105
   1   2.0000     -20.761978      -564.9621
   2   2.0000     -20.598945      -560.5258
   3   2.0000     -15.766536      -429.0293
   4   2.0000     -15.674189      -426.5164
   5   2.0000     -11.505465      -313.0796
   6   2.0000     -11.433480      -311.1208
   7   2.0000     -11.424759      -310.8835
   8   2.0000     -11.391749      -309.9853
   9   2.0000     -11.389254      -309.9174
  10   2.0000     -11.385926      -309.8268
  11   2.0000     -11.379487      -309.6516
  12   2.0000     -11.375663      -309.5475
  13   2.0000     -11.375215      -309.5353
  14   2.0000     -11.372028      -309.4486
  15   2.0000     -11.359661      -309.1121
  16   2.0000     -11.359218      -309.1000
  17   2.0000     -11.330315      -308.3136
  18   2.0000     -11.328374      -308.2607
  19   2.0000     -11.328353      -308.2602
  20   2.0000     -11.323972      -308.1410
  21   2.0000     -11.318584      -307.9943
  22   2.0000     -11.310937      -307.7862
  23   2.0000     -11.297738      -307.4271
  24   2.0000      -1.620116       -44.0856
  25   2.0000      -1.589211       -43.2446
  26   2.0000      -1.469473       -39.9864
  27   2.0000      -1.329015       -36.1643
  28   2.0000      -1.301817       -35.4243
  29   2.0000      -1.290202       -35.1082
  30   2.0000      -1.212814       -33.0024
  31   2.0000      -1.202973       -32.7346
  32   2.0000      -1.154347       -31.4114
  33   2.0000      -1.150900       -31.3176
  34   2.0000      -1.115680       -30.3592
  35   2.0000      -1.101958       -29.9858
  36   2.0000      -1.072255       -29.1775
  37   2.0000      -1.054642       -28.6983
  38   2.0000      -1.042663       -28.3723
  39   2.0000      -1.038687       -28.2641
  40   2.0000      -1.037824       -28.2406
  41   2.0000      -0.966024       -26.2868
  42   2.0000      -0.957696       -26.0602
  43   2.0000      -0.943533       -25.6749
  44   2.0000      -0.928873       -25.2759
  45   2.0000      -0.898180       -24.4407
  46   2.0000      -0.862002       -23.4563
  47   2.0000      -0.860197       -23.4072
  48   2.0000      -0.843270       -22.9465
  49   2.0000      -0.822678       -22.3862
  50   2.0000      -0.807956       -21.9856
  51   2.0000      -0.802417       -21.8349
  52   2.0000      -0.790139       -21.5008
  53   2.0000      -0.785940       -21.3865
  54   2.0000      -0.778790       -21.1920
  55   2.0000      -0.756071       -20.5737
  56   2.0000      -0.750459       -20.4210
  57   2.0000      -0.741477       -20.1766
  58   2.0000      -0.723756       -19.6944
  59   2.0000      -0.722146       -19.6506
  60   2.0000      -0.713167       -19.4063
  61   2.0000      -0.708261       -19.2727
  62   2.0000      -0.703707       -19.1488
  63   2.0000      -0.696029       -18.9399
  64   2.0000      -0.690014       -18.7762
  65   2.0000      -0.685224       -18.6459
  66   2.0000      -0.671273       -18.2663
  67   2.0000      -0.669766       -18.2253
  68   2.0000      -0.666896       -18.1472
  69   2.0000      -0.660038       -17.9605
  70   2.0000      -0.656775       -17.8718
  71   2.0000      -0.646674       -17.5969
  72   2.0000      -0.640640       -17.4327
  73   2.0000      -0.639299       -17.3962
  74   2.0000      -0.633554       -17.2399
  75   2.0000      -0.632952       -17.2235
  76   2.0000      -0.626186       -17.0394
  77   2.0000      -0.624327       -16.9888
  78   2.0000      -0.622467       -16.9382
  79   2.0000      -0.610711       -16.6183
  80   2.0000      -0.598382       -16.2828
  81   2.0000      -0.589647       -16.0451
  82   2.0000      -0.586582       -15.9617
  83   2.0000      -0.575780       -15.6678
  84   2.0000      -0.567015       -15.4293
  85   2.0000      -0.554477       -15.0881
  86   2.0000      -0.504739       -13.7346
  87   2.0000      -0.498288       -13.5591
  88   2.0000      -0.481680       -13.1072
  89   2.0000      -0.470442       -12.8014
  90   2.0000      -0.422180       -11.4881
  91   0.0000      -0.145856        -3.9689
  92   0.0000      -0.059240        -1.6120
  93   0.0000      -0.052114        -1.4181
  94   0.0000      -0.046868        -1.2753
  95   0.0000      -0.044002        -1.1974

MULLIKEN ATOMIC CHARGES
-----------------------
   0 C :    1.954176
   1 C :    1.591702
   2 C :   -0.943310
   3 C :    0.769194
   4 C :   -0.636350
   5 H :    0.111021
   6 H :    0.373216
   7 H :    0.147278
   8 H :    0.268881
   9 H :    0.301222
  10 N :    1.756523
  11 O :   -1.273479
  12 C :   -1.677847
  13 H :    0.382802
  14 H :    0.164480
  15 H :    0.206790
  16 C :   -1.733170
  17 H :    0.185227
  18 H :    0.061588
  19 H :    0.293637
  20 C :   -2.181518
  21 H :    0.151706
  22 H :    0.922948
  23 H :    0.108406
  24 C :   -1.475331
  25 H :    0.067039
  26 H :    0.634920
  27 H :    0.286577
  28 C :    0.341140
  29 H :    0.691899
  30 H :    0.381127
  31 C :    0.797407
  32 C :   -0.566395
  33 C :   -0.514283
  34 C :   -0.792645
  35 H :    0.365769
  36 C :   -0.559129
  37 H :    0.134734
  38 C :   -0.213329
  39 H :    0.517331
  40 H :    0.496845
  41 H :    0.487965
  42 O :   -0.626829
  43 C :   -1.003903
  44 H :    0.352404
  45 H :    0.497006
  46 H :    0.297205
  47 N :   -0.536529
  48 C :    0.840205
  49 H :   -0.133552
  50 O :   -1.034216
  51 C :   -0.983445
  52 H :    0.277681
  53 H :    0.330828
  54 H :    0.336381
Sum of atomic charges:    1.0000000

LOEWDIN ATOMIC CHARGES
----------------------
   0 C :   -0.369517
   1 C :   -0.377627
   2 C :    0.326894
   3 C :   -0.042925
   4 C :    0.365239
   5 H :   -0.165727
   6 H :   -0.115859
   7 H :   -0.144307
   8 H :   -0.142253
   9 H :   -0.143644
  10 N :    0.104244
  11 O :    0.766755
  12 C :    0.616227
  13 H :   -0.227815
  14 H :   -0.142996
  15 H :   -0.157078
  16 C :    0.589846
  17 H :   -0.158918
  18 H :   -0.137325
  19 H :   -0.175129
  20 C :    0.610709
  21 H :   -0.137949
  22 H :   -0.189935
  23 H :   -0.141828
  24 C :    0.629771
  25 H :   -0.133908
  26 H :   -0.191337
  27 H :   -0.160473
  28 C :   -0.014979
  29 H :   -0.100376
  30 H :   -0.573068
  31 C :   -0.114706
  32 C :    0.231055
  33 C :    0.238576
  34 C :    0.240708
  35 H :   -0.168494
  36 C :    0.240479
  37 H :   -0.149139
  38 C :    0.244385
  39 H :   -0.166278
  40 H :   -0.166206
  41 H :   -0.157654
  42 O :    0.637025
  43 C :    0.431816
  44 H :   -0.158441
  45 H :   -0.180905
  46 H :   -0.151874
  47 N :    0.596317
  48 C :   -0.651363
  49 H :   -0.276440
  50 O :    0.507295
  51 C :    0.615637
  52 H :   -0.178227
  53 H :   -0.164238
  54 H :   -0.164043

  Mayer bond orders larger than 0.100000
B(  0-C ,  2-C ) :   0.1484 B(  0-C ,  3-C ) :   0.1905 B(  0-C ,  4-C ) :   0.5137
B(  0-C ,  8-H ) :  -0.1113 B(  0-C , 10-N ) :   0.4251 B(  0-C , 11-O ) :  -0.1166
B(  0-C , 12-C ) :  -0.1244 B(  0-C , 13-H ) :  -0.1474 B(  0-C , 14-H ) :  -0.1109
B(  0-C , 15-H ) :  -0.1386 B(  0-C , 18-H ) :  -0.1205 B(  0-C , 19-H ) :  -0.1534
B(  1-C ,  2-C ) :   0.1615 B(  1-C ,  3-C ) :  -0.1580 B(  1-C , 10-N ) :   0.8547
B(  1-C , 11-O ) :   0.5005 B(  1-C , 21-H ) :  -0.1009 B(  1-C , 23-H ) :  -0.1770
B(  1-C , 24-C ) :   0.2483 B(  1-C , 25-H ) :  -0.1308 B(  2-C ,  3-C ) :   0.9871
B(  2-C ,  4-C ) :   0.1079 B(  2-C ,  5-H ) :   1.3765 B(  2-C ,  6-H ) :   0.7891
B(  2-C ,  7-H ) :   0.1019 B(  2-C , 10-N ) :  -0.1738 B(  2-C , 50-O ) :   0.1230
B(  3-C ,  4-C ) :   0.8925 B(  3-C ,  7-H ) :   1.0173 B(  3-C ,  9-H ) :  -0.1298
B(  3-C , 48-C ) :  -0.3092 B(  3-C , 51-C ) :   0.1003 B(  4-C ,  8-H ) :   0.9665
B(  4-C ,  9-H ) :   1.0398 B(  4-C , 47-N ) :   0.2622 B(  5-H , 50-O ) :  -0.1040
B(  7-H , 47-N ) :  -0.2436 B(  7-H , 48-C ) :   0.1149 B(  8-H ,  9-H ) :   0.1029
B(  8-H , 10-N ) :   0.1091 B( 10-N , 11-O ) :   0.2679 B( 10-N , 13-H ) :   0.1007
B( 10-N , 16-C ) :  -0.5601 B( 10-N , 17-H ) :  -0.2425 B( 10-N , 20-C ) :  -0.2378
B( 10-N , 28-C ) :   0.2170 B( 10-N , 30-H ) :   0.2124 B( 11-O , 16-C ) :   0.1219
B( 11-O , 17-H ) :   0.1179 B( 11-O , 20-C ) :   0.1417 B( 11-O , 22-H ) :  -0.1068
B( 11-O , 30-H ) :   0.1386 B( 11-O , 31-C ) :   0.1837 B( 12-C , 13-H ) :   1.0109
B( 12-C , 14-H ) :   1.2456 B( 12-C , 15-H ) :   1.1930 B( 12-C , 16-C ) :   0.1945
B( 16-C , 17-H ) :   1.1849 B( 16-C , 18-H ) :   1.3865 B( 16-C , 19-H ) :   1.1780
B( 20-C , 21-H ) :   1.3529 B( 20-C , 22-H ) :   0.2920 B( 20-C , 23-H ) :   1.3816
B( 20-C , 26-H ) :  -0.1066 B( 22-H , 36-C ) :  -0.1086 B( 24-C , 25-H ) :   1.3519
B( 24-C , 26-H ) :   0.6351 B( 24-C , 27-H ) :   1.0690 B( 28-C , 29-H ) :   0.5732
B( 28-C , 30-H ) :   0.3256 B( 28-C , 31-C ) :   0.5809 B( 28-C , 37-H ) :  -0.2085
B( 28-C , 42-O ) :   0.9321 B( 29-H , 30-H ) :  -0.1338 B( 29-H , 31-C ) :  -0.3146
B( 29-H , 33-C ) :  -0.1080 B( 30-H , 31-C ) :   0.4262 B( 30-H , 42-O ) :  -0.1078
B( 31-C , 32-C ) :   0.7418 B( 31-C , 33-C ) :   0.9108 B( 31-C , 36-C ) :   0.1936
B( 32-C , 34-C ) :   1.4209 B( 32-C , 35-H ) :   0.9508 B( 33-C , 36-C ) :   1.3169
B( 33-C , 37-H ) :   1.2886 B( 34-C , 38-C ) :   1.1211 B( 34-C , 39-H ) :   0.7194
B( 34-C , 41-H ) :  -0.1050 B( 36-C , 37-H ) :  -0.1158 B( 36-C , 38-C ) :   1.1288
B( 36-C , 40-H ) :   0.7607 B( 38-C , 41-H ) :   0.7691 B( 42-O , 43-C ) :   0.8800
B( 43-C , 44-H ) :   0.9477 B( 43-C , 45-H ) :   0.7425 B( 43-C , 46-H ) :   1.0061
B( 47-N , 48-C ) :   1.0344 B( 47-N , 49-H ) :   1.3110 B( 48-C , 49-H ) :  -0.1570
B( 48-C , 50-O ) :   1.6139 B( 48-C , 51-C ) :   0.3750 B( 50-O , 51-C ) :  -0.1350
B( 51-C , 52-H ) :   0.9987 B( 51-C , 53-H ) :   1.0058 B( 51-C , 54-H ) :   1.0009

MP2 TOTAL ENERGY:    -1075.470958603 Eh
FINAL SINGLE POINT ENERGY     -1075.470958602878

DIPOLE MOMENT
-------------
                                X             Y             Z
Electronic contribution:    -10.99185      -4.28727       2.02771
Nuclear contribution   :      8.81876       5.34181      -3.45991
                        -----------------------------------------
Total Dipole Moment    :     -2.17308       1.05453      -1.43220
                        -----------------------------------------
Magnitude (a.u.)       :      2.80812
Magnitude (Debye)      :      7.13768

Rotational constants in cm-1:     0.014943     0.004352     0.003940
Rotational constants in MHz :   447.971450   130.460117   118.118090

                             ****ORCA TERMINATED NORMALLY****
TOTAL RUN TIME: 0 days 3 hours 0 minutes 40 seconds 359 msec
