                         Program Version 4.2.1 -  RELEASE  -
|  1> %pal
|  2>  nprocs 32
|  3> end
|  4> !RI-MP2 aug-cc-pVTZ aug-cc-pVTZ/C TightSCF
|  5> %maxcore 4500
|  6> *xyzfile 1 1  10_29TS.xyz
|  7>
|  8>
|  9>                          ****END OF INPUT****

CARTESIAN COORDINATES (ANGSTROEM)
---------------------------------
  C      0.338483    3.556363    0.706999
  C      0.973427    2.163155    0.891644
  C      0.155652    2.045517   -1.158196
  C     -0.196022    3.491202   -0.755463
  H     -0.448628    3.744611    1.438665
  H      1.091480    4.334560    0.831358
  H     -1.264878    3.684167   -0.831017
  H      0.321859    4.196261   -1.406314
  C      1.525802    1.870094   -0.503038
  H      1.956068    0.881425   -0.614628
  H      2.234890    2.628186   -0.830634
  H      1.643092    2.040085    1.738436
  H      0.036455    1.786047   -2.206321
  N     -0.698289    1.196152   -0.301579
  N     -0.111998    1.150296    0.954867
  C      0.137201   -1.357458    0.720959
  C      1.518205   -1.405484    0.292655
  C      1.887981   -1.631333   -1.040061
  C      2.528366   -1.225883    1.247489
  C      3.222320   -1.658073   -1.404210
  H      1.133036   -1.798237   -1.797265
  C      3.861636   -1.251931    0.882431
  H      2.254069   -1.061572    2.283497
  C      4.211367   -1.464005   -0.446485
  H      3.496247   -1.840036   -2.435721
  H      4.631538   -1.114160    1.631013
  H      5.255046   -1.490072   -0.733993
  H     -0.016097   -1.368134    1.794247
  C     -1.610300    0.269249   -0.654509
  H     -1.713211    0.244222   -1.737332
  C     -0.981653   -1.514542   -0.097613
  H     -0.790783   -1.916956   -1.088082
  H     -0.786363    1.331002    1.694986
  C     -2.957608    0.152274    0.070188
  C     -2.281843   -1.960226    0.571336
  C     -2.777918   -0.716781    1.314772
  H     -2.069560   -0.334532    2.050509
  H     -3.727685   -0.887514    1.823653
  C     -3.874434   -0.732755   -0.791524
  C     -3.376728   -2.171736   -0.486635
  H     -3.825922   -0.476601   -1.850899
  H     -4.910439   -0.600362   -0.479868
  H     -2.994061   -2.683854   -1.370674
  H     -4.180238   -2.788461   -0.084514
  H     -3.354975    1.154102    0.242569
  H     -2.122520   -2.835200    1.200885

 Total Charge           Charge          ....    1
 Multiplicity           Mult            ....    1
 Number of Electrons    NEL             ....  152
 Basis Dimension        Dim             .... 1541

ORBITAL ENERGIES
----------------

  NO   OCC          E(Eh)            E(eV)
   0   2.0000     -15.742024      -428.3623
   1   2.0000     -15.738887      -428.2769
   2   2.0000     -11.445874      -311.4581
   3   2.0000     -11.426157      -310.9216
   4   2.0000     -11.399660      -310.2005
   5   2.0000     -11.391776      -309.9860
   6   2.0000     -11.370113      -309.3965
   7   2.0000     -11.367420      -309.3232
   8   2.0000     -11.367145      -309.3157
   9   2.0000     -11.363046      -309.2042
  10   2.0000     -11.361566      -309.1639
  11   2.0000     -11.360946      -309.1471
  12   2.0000     -11.353465      -308.9435
  13   2.0000     -11.353088      -308.9332
  14   2.0000     -11.351436      -308.8883
  15   2.0000     -11.343210      -308.6644
  16   2.0000     -11.343185      -308.6638
  17   2.0000     -11.342236      -308.6379
  18   2.0000     -11.341353      -308.6139
  19   2.0000     -11.335471      -308.4538
  20   2.0000     -11.331204      -308.3377
  21   2.0000      -1.496359       -40.7180
  22   2.0000      -1.307579       -35.5810
  23   2.0000      -1.291269       -35.1372
  24   2.0000      -1.258483       -34.2451
  25   2.0000      -1.237476       -33.6734
  26   2.0000      -1.208346       -32.8808
  27   2.0000      -1.145767       -31.1779
  28   2.0000      -1.136642       -30.9296
  29   2.0000      -1.116689       -30.3867
  30   2.0000      -1.092435       -29.7267
  31   2.0000      -1.080183       -29.3933
  32   2.0000      -1.058461       -28.8022
  33   2.0000      -1.000744       -27.2316
  34   2.0000      -0.968502       -26.3543
  35   2.0000      -0.953265       -25.9396
  36   2.0000      -0.941954       -25.6319
  37   2.0000      -0.916550       -24.9406
  38   2.0000      -0.892735       -24.2926
  39   2.0000      -0.892608       -24.2891
  40   2.0000      -0.874571       -23.7983
  41   2.0000      -0.842042       -22.9131
  42   2.0000      -0.829527       -22.5726
  43   2.0000      -0.812728       -22.1155
  44   2.0000      -0.802249       -21.8303
  45   2.0000      -0.784925       -21.3589
  46   2.0000      -0.778194       -21.1757
  47   2.0000      -0.762308       -20.7435
  48   2.0000      -0.761106       -20.7107
  49   2.0000      -0.738813       -20.1041
  50   2.0000      -0.722490       -19.6600
  51   2.0000      -0.720266       -19.5994
  52   2.0000      -0.712612       -19.3912
  53   2.0000      -0.700476       -19.0609
  54   2.0000      -0.688786       -18.7428
  55   2.0000      -0.680806       -18.5257
  56   2.0000      -0.665657       -18.1135
  57   2.0000      -0.650606       -17.7039
  58   2.0000      -0.645278       -17.5589
  59   2.0000      -0.641416       -17.4538
  60   2.0000      -0.633434       -17.2366
  61   2.0000      -0.627563       -17.0768
  62   2.0000      -0.618519       -16.8308
  63   2.0000      -0.616805       -16.7841
  64   2.0000      -0.612601       -16.6697
  65   2.0000      -0.609528       -16.5861
  66   2.0000      -0.597952       -16.2711
  67   2.0000      -0.591054       -16.0834
  68   2.0000      -0.587695       -15.9920
  69   2.0000      -0.578510       -15.7421
  70   2.0000      -0.576861       -15.6972
  71   2.0000      -0.572568       -15.5804
  72   2.0000      -0.520381       -14.1603
  73   2.0000      -0.495736       -13.4897
  74   2.0000      -0.463738       -12.6190
  75   2.0000      -0.418205       -11.3799
  76   0.0000      -0.098354        -2.6764
  77   0.0000      -0.060640        -1.6501
  78   0.0000      -0.055467        -1.5093
  79   0.0000      -0.048631        -1.3233
  80   0.0000      -0.046950        -1.2776

MULLIKEN ATOMIC CHARGES
-----------------------
   0 C :   -0.726494
   1 C :   -0.305178
   2 C :   -0.409727
   3 C :   -0.725189
   4 H :    0.180350
   5 H :    0.279856
   6 H :    0.262468
   7 H :    0.258171
   8 C :   -0.863008
   9 H :    0.442112
  10 H :    0.450162
  11 H :    0.565261
  12 H :    0.354061
  13 N :    0.438355
  14 N :   -0.366501
  15 C :   -0.300086
  16 C :    1.670724
  17 C :   -0.550141
  18 C :   -0.662550
  19 C :   -0.686680
  20 H :   -0.033836
  21 C :   -0.667488
  22 H :    0.131856
  23 C :   -0.137589
  24 H :    0.424746
  25 H :    0.569722
  26 H :    0.583387
  27 H :   -0.104185
  28 C :    0.876402
  29 H :    0.453741
  30 C :    0.264341
  31 H :    0.606394
  32 H :   -0.304217
  33 C :   -0.518106
  34 C :   -0.738411
  35 C :   -0.761123
  36 H :    0.169846
  37 H :    0.564083
  38 C :   -0.774038
  39 C :   -0.769295
  40 H :    0.249273
  41 H :    0.249235
  42 H :    0.190256
  43 H :    0.315864
  44 H :    0.368900
  45 H :    0.484275
Sum of atomic charges:    1.0000000

LOEWDIN ATOMIC CHARGES
----------------------
   0 C :    0.366658
   1 C :   -0.030005
   2 C :   -0.009600
   3 C :    0.362803
   4 H :   -0.136598
   5 H :   -0.131921
   6 H :   -0.135483
   7 H :   -0.132378
   8 C :    0.361707
   9 H :   -0.194861
  10 H :   -0.109566
  11 H :   -0.101906
  12 H :   -0.099957
  13 N :    0.203371
  14 N :    0.543185
  15 C :    0.280121
  16 C :   -0.112684
  17 C :    0.233321
  18 C :    0.232189
  19 C :    0.238230
  20 H :   -0.172146
  21 C :    0.237012
  22 H :   -0.155825
  23 C :    0.238637
  24 H :   -0.167192
  25 H :   -0.168086
  26 H :   -0.160738
  27 H :   -0.139105
  28 C :    0.129282
  29 H :   -0.123520
  30 C :    0.180525
  31 H :   -0.171436
  32 H :   -0.264364
  33 C :    0.046453
  34 C :    0.021592
  35 C :    0.338662
  36 H :   -0.154775
  37 H :   -0.108380
  38 C :    0.349550
  39 C :    0.357272
  40 H :   -0.137375
  41 H :   -0.127550
  42 H :   -0.135295
  43 H :   -0.128563
  44 H :   -0.103869
  45 H :   -0.107396

  Mayer bond orders larger than 0.100000
B(  0-C ,  1-C ) :   0.9381 B(  0-C ,  3-C ) :   1.2017 B(  0-C ,  4-H ) :   1.0737
B(  0-C ,  5-H ) :   0.9471 B(  0-C , 13-N ) :  -0.1254 B(  1-C ,  8-C ) :   1.0057
B(  1-C , 11-H ) :   0.6448 B(  1-C , 13-N ) :  -0.1573 B(  1-C , 14-N ) :   1.2388
B(  2-C ,  3-C ) :   0.9355 B(  2-C ,  6-H ) :   0.1015 B(  2-C ,  8-C ) :   1.0197
B(  2-C , 12-H ) :   0.8534 B(  2-C , 13-N ) :   1.1280 B(  2-C , 28-C ) :  -0.1840
B(  3-C ,  6-H ) :   0.9900 B(  3-C ,  7-H ) :   0.9840 B(  3-C , 13-N ) :  -0.1728
B(  3-C , 14-N ) :   0.1006 B(  3-C , 28-C ) :  -0.1167 B(  8-C ,  9-H ) :   0.9032
B(  8-C , 10-H ) :   0.8049 B(  9-H , 19-C ) :  -0.1088 B( 13-N , 16-C ) :  -0.1007
B( 13-N , 28-C ) :   0.6583 B( 13-N , 29-H ) :  -0.1064 B( 13-N , 35-C ) :   0.1157
B( 13-N , 38-C ) :   0.1729 B( 14-N , 16-C ) :   0.2343 B( 14-N , 27-H ) :  -0.1328
B( 14-N , 32-H ) :   1.2129 B( 15-C , 17-C ) :   0.2609 B( 15-C , 18-C ) :   0.5515
B( 15-C , 21-C ) :   0.1276 B( 15-C , 22-H ) :  -0.2758 B( 15-C , 27-H ) :   1.6825
B( 15-C , 30-C ) :   1.3113 B( 15-C , 34-C ) :  -0.4841 B( 15-C , 35-C ) :  -0.1920
B( 15-C , 45-H ) :  -0.1076 B( 16-C , 17-C ) :   0.5843 B( 16-C , 18-C ) :   0.3613
B( 16-C , 19-C ) :   0.2167 B( 16-C , 20-H ) :  -0.2573 B( 16-C , 21-C ) :   0.2334
B( 16-C , 25-H ) :  -0.1262 B( 16-C , 27-H ) :  -0.2750 B( 16-C , 30-C ) :   0.3583
B( 17-C , 18-C ) :  -0.3283 B( 17-C , 19-C ) :   1.3405 B( 17-C , 20-H ) :   1.6660
B( 17-C , 22-H ) :   0.1976 B( 17-C , 23-C ) :   0.1438 B( 17-C , 27-H ) :   0.1000
B( 17-C , 30-C ) :  -0.2656 B( 18-C , 21-C ) :   1.3068 B( 18-C , 22-H ) :   1.3464
B( 18-C , 23-C ) :   0.1079 B( 19-C , 20-H ) :  -0.1659 B( 19-C , 21-C ) :   0.1422
B( 19-C , 23-C ) :   1.0633 B( 19-C , 24-H ) :   0.8379 B( 20-H , 21-C ) :  -0.1357
B( 20-H , 22-H ) :   0.1696 B( 20-H , 30-C ) :  -0.1885 B( 21-C , 22-H ) :  -0.1174
B( 21-C , 23-C ) :   1.0718 B( 21-C , 25-H ) :   0.6188 B( 21-C , 26-H ) :  -0.1445
B( 22-H , 27-H ) :  -0.1318 B( 23-C , 26-H ) :   0.6114 B( 27-H , 30-C ) :  -0.1219
B( 28-C , 29-H ) :   0.7117 B( 28-C , 30-C ) :   0.6141 B( 28-C , 33-C ) :   1.1572
B( 28-C , 35-C ) :  -0.1607 B( 28-C , 38-C ) :  -0.3152 B( 30-C , 31-H ) :   0.6896
B( 30-C , 34-C ) :   1.4327 B( 30-C , 39-C ) :  -0.2588 B( 30-C , 42-H ) :  -0.1377
B( 31-H , 34-C ) :  -0.4280 B( 33-C , 35-C ) :   0.9716 B( 33-C , 38-C ) :   0.9988
B( 33-C , 44-H ) :   0.8365 B( 34-C , 35-C ) :   1.1501 B( 34-C , 39-C ) :   1.0306
B( 34-C , 42-H ) :   0.1009 B( 34-C , 45-H ) :   0.7342 B( 35-C , 36-H ) :   1.2152
B( 35-C , 37-H ) :   0.6444 B( 35-C , 39-C ) :   0.1011 B( 38-C , 39-C ) :   1.1377
B( 38-C , 40-H ) :   1.0249 B( 38-C , 41-H ) :   1.0033 B( 39-C , 42-H ) :   1.1007
B( 39-C , 43-H ) :   0.9110

MP2 TOTAL ENERGY:     -846.523371503 Eh
FINAL SINGLE POINT ENERGY      -846.523371503045

DIPOLE MOMENT
-------------
                                X             Y             Z
Electronic contribution:      8.35889      -4.49404       0.81937
Nuclear contribution   :     -8.32798       4.94466      -0.74905
                        -----------------------------------------
Total Dipole Moment    :      0.03091       0.45062       0.07032
                        -----------------------------------------
Magnitude (a.u.)       :      0.45712
Magnitude (Debye)      :      1.16191

Rotational constants in cm-1:     0.014603     0.009644     0.006888
Rotational constants in MHz :   437.776061   289.107161   206.511449

                             ****ORCA TERMINATED NORMALLY****
TOTAL RUN TIME: 0 days 2 hours 3 minutes 32 seconds 110 msec
