                         Program Version 4.2.1 -  RELEASE  -
|  1> %pal
|  2>  nprocs 32
|  3> end
|  4> !RI-MP2 aug-cc-pVTZ aug-cc-pVTZ/C TightSCF
|  5> %maxcore 4500
|  6> *xyzfile -1 1  07_7TS.xyz
|  7>
|  8>
|  9>                          ****END OF INPUT****

CARTESIAN COORDINATES (ANGSTROEM)
---------------------------------
  C     -1.135946    0.929262    0.299092
  C     -2.471279    0.185214    0.232725
  C     -2.191636   -1.238412    0.722038
  H     -3.160607    0.668733    0.927694
  C     -1.022685   -1.890133   -0.027472
  C      0.087685   -1.054690   -0.332315
  O     -0.207697    0.353973   -0.565767
  C     -1.246893    2.402360   -0.119373
  C      1.128728   -1.479783   -1.309273
  H      0.950771   -0.851869    0.825036
  O      2.495166   -1.218626   -0.885764
  H      0.995254   -0.971806   -2.269768
  H      1.062175   -2.556688   -1.447817
  P      2.904092   -0.090802    0.195536
  O      4.323481   -0.170104    0.558456
  O      1.818014   -0.271356    1.328121
  O      2.567192    1.323448   -0.510588
  H      1.615255    1.469781   -0.627455
  O     -1.082923   -3.111491   -0.208076
  O     -3.327959   -2.062769    0.609425
  H     -1.878460   -1.179681    1.770239
  H     -2.961986   -2.922715    0.339163
  O     -2.242766    3.069935   -0.074476
  O     -0.050811    2.905977   -0.471013
  H     -0.164535    3.852929   -0.626705
  O     -0.686996    0.955141    1.636130
  H      0.280904    0.825471    1.651491
  C     -3.063550    0.192223   -1.172364
  H     -3.957756   -0.429516   -1.188108
  H     -3.332255    1.202977   -1.479904
  H     -2.354304   -0.214853   -1.896848

 Total Charge           Charge          ....   -1
 Multiplicity           Mult            ....    1
 Number of Electrons    NEL             ....  156
 Basis Dimension        Dim             .... 1154

ORBITAL ENERGIES
----------------

  NO   OCC          E(Eh)            E(eV)
   0   2.0000     -79.956055     -2175.7149
   1   2.0000     -20.535483      -558.7989
   2   2.0000     -20.478950      -557.2606
   3   2.0000     -20.472407      -557.0825
   4   2.0000     -20.468011      -556.9629
   5   2.0000     -20.453427      -556.5661
   6   2.0000     -20.450793      -556.4944
   7   2.0000     -20.450779      -556.4940
   8   2.0000     -20.424248      -555.7720
   9   2.0000     -20.418426      -555.6136
  10   2.0000     -20.366849      -554.2101
  11   2.0000     -11.302942      -307.5687
  12   2.0000     -11.267645      -306.6082
  13   2.0000     -11.212080      -305.0962
  14   2.0000     -11.181008      -304.2507
  15   2.0000     -11.180968      -304.2496
  16   2.0000     -11.141952      -303.1879
  17   2.0000     -11.137102      -303.0560
  18   2.0000     -11.120920      -302.6156
  19   2.0000      -7.471808      -203.3182
  20   2.0000      -5.370339      -146.1343
  21   2.0000      -5.369981      -146.1246
  22   2.0000      -5.369059      -146.0995
  23   2.0000      -1.396252       -37.9940
  24   2.0000      -1.334710       -36.3193
  25   2.0000      -1.299258       -35.3546
  26   2.0000      -1.288575       -35.0639
  27   2.0000      -1.281713       -34.8772
  28   2.0000      -1.249845       -34.0100
  29   2.0000      -1.237677       -33.6789
  30   2.0000      -1.236043       -33.6344
  31   2.0000      -1.203326       -32.7442
  32   2.0000      -1.152928       -31.3728
  33   2.0000      -0.992795       -27.0153
  34   2.0000      -0.946518       -25.7561
  35   2.0000      -0.860188       -23.4069
  36   2.0000      -0.855444       -23.2778
  37   2.0000      -0.783341       -21.3158
  38   2.0000      -0.752266       -20.4702
  39   2.0000      -0.709415       -19.3042
  40   2.0000      -0.671737       -18.2789
  41   2.0000      -0.652931       -17.7672
  42   2.0000      -0.637162       -17.3381
  43   2.0000      -0.626202       -17.0398
  44   2.0000      -0.621499       -16.9118
  45   2.0000      -0.604522       -16.4499
  46   2.0000      -0.583530       -15.8786
  47   2.0000      -0.572977       -15.5915
  48   2.0000      -0.559604       -15.2276
  49   2.0000      -0.552536       -15.0353
  50   2.0000      -0.544876       -14.8268
  51   2.0000      -0.538824       -14.6622
  52   2.0000      -0.528037       -14.3686
  53   2.0000      -0.517514       -14.0823
  54   2.0000      -0.507617       -13.8130
  55   2.0000      -0.482173       -13.1206
  56   2.0000      -0.479370       -13.0443
  57   2.0000      -0.465121       -12.6566
  58   2.0000      -0.452977       -12.3261
  59   2.0000      -0.441908       -12.0249
  60   2.0000      -0.438228       -11.9248
  61   2.0000      -0.430661       -11.7189
  62   2.0000      -0.428644       -11.6640
  63   2.0000      -0.420619       -11.4456
  64   2.0000      -0.414798       -11.2872
  65   2.0000      -0.408040       -11.1033
  66   2.0000      -0.402660       -10.9569
  67   2.0000      -0.398990       -10.8571
  68   2.0000      -0.390679       -10.6309
  69   2.0000      -0.381534       -10.3821
  70   2.0000      -0.375543       -10.2190
  71   2.0000      -0.353100        -9.6083
  72   2.0000      -0.350854        -9.5472
  73   2.0000      -0.331883        -9.0310
  74   2.0000      -0.328863        -8.9488
  75   2.0000      -0.328380        -8.9357
  76   2.0000      -0.294574        -8.0158
  77   2.0000      -0.209735        -5.7072
  78   0.0000       0.096677         2.6307
  79   0.0000       0.105188         2.8623
  80   0.0000       0.110408         3.0043
  81   0.0000       0.114940         3.1277
  82   0.0000       0.119945         3.2639

MULLIKEN ATOMIC CHARGES
-----------------------
   0 C :    2.247593
   1 C :   -0.002353
   2 C :    0.747154
   3 H :    0.403808
   4 C :    0.425609
   5 C :    0.765819
   6 O :   -0.965834
   7 C :    0.175722
   8 C :   -0.598768
   9 H :    0.707372
  10 O :   -0.724917
  11 H :    0.213450
  12 H :    0.315326
  13 P :    1.802552
  14 O :   -1.191051
  15 O :   -0.877438
  16 O :   -0.669028
  17 H :    0.451031
  18 O :   -1.323851
  19 O :   -0.962370
  20 H :    0.207589
  21 H :    0.175176
  22 O :   -1.040516
  23 O :   -0.413976
  24 H :    0.185427
  25 O :   -1.031204
  26 H :    0.184260
  27 C :   -1.067966
  28 H :    0.243618
  29 H :    0.282659
  30 H :    0.335109
Sum of atomic charges:   -1.0000000

LOEWDIN ATOMIC CHARGES
----------------------
   0 C :   -0.818557
   1 C :   -0.023901
   2 C :   -0.255901
   3 H :   -0.126541
   4 C :   -0.511353
   5 C :   -0.345232
   6 O :    0.607979
   7 C :   -0.771004
   8 C :    0.004197
   9 H :   -0.660609
  10 O :    0.364979
  11 H :   -0.162559
  12 H :   -0.181137
  13 P :   -0.288140
  14 O :   -0.042972
  15 O :    0.505007
  16 O :    0.636828
  17 H :   -0.719449
  18 O :    0.468537
  19 O :    0.836364
  20 H :   -0.146801
  21 H :   -0.599656
  22 O :    0.474714
  23 O :    0.863001
  24 H :   -0.452537
  25 O :    0.877884
  26 H :   -0.607139
  27 C :    0.591005
  28 H :   -0.172035
  29 H :   -0.182521
  30 H :   -0.162451

  Mayer bond orders larger than 0.100000
B(  0-C ,  1-C ) :   0.9700 B(  0-C ,  6-O ) :   0.6706 B(  0-C ,  7-C ) :  -0.4419
B(  0-C , 22-O ) :   0.2632 B(  0-C , 23-O ) :  -0.1955 B(  0-C , 27-C ) :   0.1060
B(  1-C ,  2-C ) :   1.0070 B(  1-C ,  3-H ) :   0.7604 B(  1-C ,  4-C ) :   0.3071
B(  1-C ,  7-C ) :  -0.1256 B(  1-C , 19-O ) :   0.1347 B(  1-C , 27-C ) :   0.7009
B(  2-C ,  4-C ) :   0.8194 B(  2-C , 20-H ) :   1.1852 B(  4-C ,  5-C ) :   1.1008
B(  4-C , 19-O ) :   0.2122 B(  5-C ,  6-O ) :   0.7477 B(  5-C ,  8-C ) :   0.5953
B(  5-C , 13-P ) :   0.1020 B(  5-C , 18-O ) :   0.2995 B(  6-O ,  7-C ) :   0.1092
B(  6-O , 25-O ) :   0.1238 B(  7-C , 22-O ) :   1.0008 B(  7-C , 23-O ) :   1.0416
B(  7-C , 25-O ) :   0.2590 B(  8-C , 10-O ) :   0.5064 B(  8-C , 11-H ) :   1.0671
B(  8-C , 12-H ) :   0.9779 B(  9-H , 13-P ) :   0.1047 B(  9-H , 15-O ) :   0.3154
B( 10-O , 13-P ) :   0.9816 B( 10-O , 15-O ) :   0.1195 B( 10-O , 16-O ) :   0.1827
B( 13-P , 14-O ) :   0.9814 B( 13-P , 15-O ) :   1.1618 B( 13-P , 16-O ) :   0.8348
B( 15-O , 16-O ) :   0.1611 B( 16-O , 17-H ) :   0.6043 B( 19-O , 21-H ) :   1.0420
B( 23-O , 24-H ) :   1.0099 B( 25-O , 26-H ) :   0.9339 B( 27-C , 28-H ) :   1.0596
B( 27-C , 29-H ) :   0.9884 B( 27-C , 30-H ) :   0.9147

MP2 TOTAL ENERGY:    -1403.817165452 Eh
FINAL SINGLE POINT ENERGY     -1403.817165451576

DIPOLE MOMENT
-------------
                                X             Y             Z
Electronic contribution:     12.87042       2.41794       2.97052
Nuclear contribution   :    -15.19449      -0.96609      -4.07425
                        -----------------------------------------
Total Dipole Moment    :     -2.32406       1.45185      -1.10373
                        -----------------------------------------
Magnitude (a.u.)       :      2.95421
Magnitude (Debye)      :      7.50901

Rotational constants in cm-1:     0.017242     0.010231     0.007434
Rotational constants in MHz :   516.908639   306.719971   222.851464

                             ****ORCA TERMINATED NORMALLY****
TOTAL RUN TIME: 0 days 0 hours 32 minutes 11 seconds 168 msec
