                         Program Version 4.2.1 -  RELEASE  -
|  1> %pal
|  2>  nprocs 32
|  3> end
|  4> !RI-MP2 aug-cc-pVTZ aug-cc-pVTZ/C TightSCF
|  5> %maxcore 4500
|  6> *xyzfile 0 1  02_27TS.xyz
|  7>
|  8>
|  9>                          ****END OF INPUT****

CARTESIAN COORDINATES (ANGSTROEM)
---------------------------------
  C      1.600495    1.011618   -0.099264
  C     -0.771235   -0.211075   -0.997171
  C     -0.933872    2.055089   -0.741668
  C     -0.350327    2.305893    0.482601
  C      0.914347    1.813103    0.800105
  C      2.902816    0.317548    0.178259
  C      2.843433   -1.118102   -0.405877
  C      1.499433   -1.311688   -1.117870
  H     -0.721884   -0.109248   -2.076331
  H     -1.980448    2.277152   -0.907264
  H     -0.968291    2.692993    1.286161
  H      1.254714    1.864538    1.830234
  H      3.722246    0.880894   -0.276075
  H      2.943055   -1.848999    0.398836
  H      1.527355   -0.873541   -2.118811
  H     -0.333760    2.020331   -1.638855
  H      1.444875    1.233085   -1.148963
  H      3.098623    0.295517    1.252796
  H      3.668720   -1.307390   -1.094013
  H      1.289641   -2.378273   -1.249845
  C      0.188677   -1.255315    1.067245
  H      1.067669   -1.062655    1.685521
  H      0.132437   -2.347461    0.957713
  C     -2.302857   -0.949258    0.909417
  C      0.373756   -0.670945   -0.325267
  C     -2.137474   -0.448291   -0.511646
  O     -3.105600   -0.317340   -1.237405
  C     -1.065763   -0.758377    1.776864
  H     -3.186561   -0.470450    1.334586
  H     -2.544928   -2.014836    0.819687
  H     -0.949421    0.296109    2.026002
  H     -1.187810   -1.290240    2.723494

 Total Charge           Charge          ....    0
 Multiplicity           Mult            ....    1
 Number of Electrons    NEL             ....  104
 Basis Dimension        Dim             .... 1058

ORBITAL ENERGIES
----------------

  NO   OCC          E(Eh)            E(eV)
   0   2.0000     -20.512178      -558.1647
   1   2.0000     -11.310632      -307.7779
   2   2.0000     -11.262949      -306.4804
   3   2.0000     -11.249253      -306.1077
   4   2.0000     -11.247705      -306.0656
   5   2.0000     -11.236547      -305.7620
   6   2.0000     -11.236233      -305.7534
   7   2.0000     -11.235205      -305.7255
   8   2.0000     -11.233182      -305.6704
   9   2.0000     -11.231733      -305.6310
  10   2.0000     -11.229917      -305.5816
  11   2.0000     -11.227903      -305.5268
  12   2.0000     -11.225593      -305.4639
  13   2.0000     -11.223790      -305.4148
  14   2.0000      -1.358944       -36.9788
  15   2.0000      -1.155700       -31.4482
  16   2.0000      -1.102928       -30.0122
  17   2.0000      -1.083493       -29.4833
  18   2.0000      -1.030868       -28.0513
  19   2.0000      -0.985343       -26.8125
  20   2.0000      -0.981113       -26.6975
  21   2.0000      -0.933087       -25.3906
  22   2.0000      -0.868813       -23.6416
  23   2.0000      -0.841267       -22.8920
  24   2.0000      -0.807276       -21.9671
  25   2.0000      -0.769350       -20.9351
  26   2.0000      -0.735003       -20.0004
  27   2.0000      -0.700676       -19.0664
  28   2.0000      -0.671227       -18.2650
  29   2.0000      -0.655940       -17.8490
  30   2.0000      -0.651775       -17.7357
  31   2.0000      -0.631912       -17.1952
  32   2.0000      -0.620911       -16.8958
  33   2.0000      -0.611456       -16.6386
  34   2.0000      -0.598075       -16.2744
  35   2.0000      -0.571073       -15.5397
  36   2.0000      -0.564547       -15.3621
  37   2.0000      -0.562470       -15.3056
  38   2.0000      -0.550259       -14.9733
  39   2.0000      -0.536936       -14.6108
  40   2.0000      -0.525504       -14.2997
  41   2.0000      -0.511738       -13.9251
  42   2.0000      -0.494221       -13.4484
  43   2.0000      -0.489831       -13.3290
  44   2.0000      -0.485427       -13.2091
  45   2.0000      -0.480965       -13.0877
  46   2.0000      -0.473259       -12.8780
  47   2.0000      -0.464476       -12.6390
  48   2.0000      -0.449286       -12.2257
  49   2.0000      -0.389534       -10.5998
  50   2.0000      -0.312504        -8.5037
  51   2.0000      -0.304746        -8.2925
  52   0.0000       0.022139         0.6024
  53   0.0000       0.027223         0.7408
  54   0.0000       0.031299         0.8517
  55   0.0000       0.033938         0.9235
  56   0.0000       0.041946         1.1414

MULLIKEN ATOMIC CHARGES
-----------------------
   0 C :    0.667453
   1 C :   -0.922712
   2 C :   -0.550279
   3 C :   -0.433089
   4 C :   -0.816562
   5 C :   -0.849745
   6 C :   -0.569629
   7 C :   -1.231917
   8 H :    0.082850
   9 H :    0.308186
  10 H :    0.426352
  11 H :    0.108393
  12 H :    0.318229
  13 H :    0.082841
  14 H :    0.124418
  15 H :    0.322889
  16 H :    0.388739
  17 H :    0.114867
  18 H :    0.391904
  19 H :    0.424420
  20 C :   -0.697414
  21 H :    0.266126
  22 H :    0.277211
  23 C :   -0.366276
  24 C :    1.759544
  25 C :    1.268487
  26 O :   -1.334745
  27 C :   -0.570134
  28 H :    0.299774
  29 H :    0.190726
  30 H :    0.230581
  31 H :    0.288513
Sum of atomic charges:    0.0000000

LOEWDIN ATOMIC CHARGES
----------------------
   0 C :    0.130931
   1 C :    0.178489
   2 C :    0.490363
   3 C :    0.168803
   4 C :    0.207042
   5 C :    0.314147
   6 C :    0.323821
   7 C :    0.293885
   8 H :   -0.170491
   9 H :   -0.173466
  10 H :   -0.177848
  11 H :   -0.159682
  12 H :   -0.138933
  13 H :   -0.149003
  14 H :   -0.140339
  15 H :   -0.210010
  16 H :   -0.186676
  17 H :   -0.147742
  18 H :   -0.141222
  19 H :   -0.125906
  20 C :    0.298483
  21 H :   -0.151162
  22 H :   -0.123095
  23 C :    0.304930
  24 C :   -0.130647
  25 C :   -0.550198
  26 O :    0.456496
  27 C :    0.300017
  28 H :   -0.144887
  29 H :   -0.138472
  30 H :   -0.177440
  31 H :   -0.130185

  Mayer bond orders larger than 0.100000
B(  0-C ,  4-C ) :   0.8306 B(  0-C ,  5-C ) :   0.6970 B(  0-C , 16-H ) :   0.8475
B(  0-C , 24-C ) :   0.3755 B(  1-C ,  2-C ) :   0.3695 B(  1-C ,  4-C ) :   0.2057
B(  1-C ,  8-H ) :   1.1009 B(  1-C , 16-H ) :   0.1324 B(  1-C , 23-C ) :   0.2233
B(  1-C , 24-C ) :   0.6449 B(  1-C , 25-C ) :   0.8252 B(  2-C ,  3-C ) :   1.1987
B(  2-C ,  8-H ) :   0.1784 B(  2-C ,  9-H ) :   0.9865 B(  2-C , 15-H ) :   0.9834
B(  2-C , 24-C ) :  -0.1502 B(  2-C , 25-C ) :  -0.1146 B(  3-C ,  4-C ) :   1.0307
B(  3-C , 10-H ) :   0.8407 B(  3-C , 11-H ) :  -0.1779 B(  3-C , 24-C ) :   0.2335
B(  4-C , 11-H ) :   1.2916 B(  5-C ,  6-C ) :   1.0698 B(  5-C ,  7-C ) :   0.2978
B(  5-C , 12-H ) :   0.8809 B(  5-C , 17-H ) :   1.2814 B(  5-C , 24-C ) :  -0.1346
B(  6-C ,  7-C ) :   1.2133 B(  6-C , 13-H ) :   1.1832 B(  6-C , 18-H ) :   0.8090
B(  6-C , 24-C ) :  -0.2279 B(  7-C , 13-H ) :   0.1148 B(  7-C , 14-H ) :   1.3054
B(  7-C , 19-H ) :   0.8583 B(  8-H , 26-O ) :   0.1714 B( 14-H , 24-C ) :  -0.1912
B( 20-C , 21-H ) :   1.0301 B( 20-C , 22-H ) :   1.0183 B( 20-C , 23-C ) :   0.1390
B( 20-C , 24-C ) :   0.7528 B( 20-C , 27-C ) :   0.9338 B( 22-H , 24-C ) :  -0.1027
B( 23-C , 24-C ) :  -0.1458 B( 23-C , 25-C ) :   0.6451 B( 23-C , 27-C ) :   0.9256
B( 23-C , 28-H ) :   0.9036 B( 23-C , 29-H ) :   1.0458 B( 24-C , 25-C ) :   0.4011
B( 25-C , 26-O ) :   0.2959 B( 27-C , 30-H ) :   1.0232 B( 27-C , 31-H ) :   0.9481

MP2 TOTAL ENERGY:     -580.179577276 Eh
FINAL SINGLE POINT ENERGY      -580.179577275883

DIPOLE MOMENT
-------------
                                X             Y             Z
Electronic contribution:     -6.76949       1.97453      -3.06013
Nuclear contribution   :      8.44491      -2.20428       3.88550
                        -----------------------------------------
Total Dipole Moment    :      1.67542      -0.22976       0.82537
                        -----------------------------------------
Magnitude (a.u.)       :      1.88177
Magnitude (Debye)      :      4.78307

Rotational constants in cm-1:     0.035521     0.020281     0.017742
Rotational constants in MHz :  1064.885023   608.011404   531.902204

                             ****ORCA TERMINATED NORMALLY****
TOTAL RUN TIME: 0 days 0 hours 29 minutes 57 seconds 781 msec
