                         Program Version 4.2.1 -  RELEASE  -
|  1> %pal
|  2>  nprocs 32
|  3> end
|  4> !RI-MP2 aug-cc-pVTZ aug-cc-pVTZ/C TightSCF
|  5> %maxcore 4500
|  6> *xyzfile 0 1  09_13P.xyz
|  7>
|  8>
|  9>                          ****END OF INPUT****

CARTESIAN COORDINATES (ANGSTROEM)
---------------------------------
  N     -0.639524    0.925629    0.173344
  C     -1.998350    0.641576   -0.038168
  C     -2.236238   -0.684882   -0.114106
  S     -0.762178   -1.582332    0.096992
  C      0.135332   -0.147299    0.268000
  C     -2.979810    1.757142   -0.162538
  H     -2.921658    2.438719    0.687852
  H     -3.991179    1.359876   -0.203360
  H     -2.814459    2.337965   -1.072766
  C     -3.523643   -1.402910   -0.354770
  H     -4.367559   -0.715806   -0.327423
  H     -3.693877   -2.170250    0.402566
  H     -3.522239   -1.892347   -1.331067
  C     -0.153876    2.311987    0.268036
  H     -0.293605    2.679568    1.284931
  H     -0.725161    2.922825   -0.424956
  H      0.888571    2.324813   -0.047905
  C      1.608626   -0.278984    0.486439
  C      2.116637    0.464962    1.717934
  H      2.008545    1.542966    1.625900
  H      3.177264    0.238748    1.823963
  H      1.600176    0.114839    2.614370
  O      1.844734   -1.656137    0.625396
  C      2.380664    0.211051   -0.844587
  O      2.257760    1.406102   -1.124684
  O      2.995668   -0.718745   -1.377411
  H      2.445363   -1.829632   -0.141235

 Total Charge           Charge          ....    0
 Multiplicity           Mult            ....    1
 Number of Electrons    NEL             ....  114
 Basis Dimension        Dim             ....  947

ORBITAL ENERGIES
----------------

  NO   OCC          E(Eh)            E(eV)
   0   2.0000     -92.037065     -2504.4559
   1   2.0000     -20.547167      -559.1168
   2   2.0000     -20.480116      -557.2923
   3   2.0000     -20.474089      -557.1283
   4   2.0000     -15.690839      -426.9694
   5   2.0000     -11.380073      -309.6675
   6   2.0000     -11.328363      -308.2604
   7   2.0000     -11.320596      -308.0491
   8   2.0000     -11.307759      -307.6998
   9   2.0000     -11.307172      -307.6838
  10   2.0000     -11.289083      -307.1916
  11   2.0000     -11.277168      -306.8673
  12   2.0000     -11.272969      -306.7531
  13   2.0000     -11.228069      -305.5313
  14   2.0000      -9.037098      -245.9119
  15   2.0000      -6.717760      -182.7995
  16   2.0000      -6.716900      -182.7761
  17   2.0000      -6.716285      -182.7594
  18   2.0000      -1.396403       -37.9981
  19   2.0000      -1.374885       -37.4125
  20   2.0000      -1.346970       -36.6529
  21   2.0000      -1.270012       -34.5588
  22   2.0000      -1.162028       -31.6204
  23   2.0000      -1.120418       -30.4881
  24   2.0000      -1.038309       -28.2538
  25   2.0000      -1.032858       -28.1055
  26   2.0000      -0.987171       -26.8623
  27   2.0000      -0.960673       -26.1412
  28   2.0000      -0.881929       -23.9985
  29   2.0000      -0.835718       -22.7411
  30   2.0000      -0.783718       -21.3261
  31   2.0000      -0.741872       -20.1874
  32   2.0000      -0.706852       -19.2344
  33   2.0000      -0.694163       -18.8891
  34   2.0000      -0.672986       -18.3129
  35   2.0000      -0.658272       -17.9125
  36   2.0000      -0.632465       -17.2102
  37   2.0000      -0.626926       -17.0595
  38   2.0000      -0.619985       -16.8707
  39   2.0000      -0.613612       -16.6972
  40   2.0000      -0.607524       -16.5316
  41   2.0000      -0.591299       -16.0901
  42   2.0000      -0.587096       -15.9757
  43   2.0000      -0.582467       -15.8497
  44   2.0000      -0.572484       -15.5781
  45   2.0000      -0.560175       -15.2431
  46   2.0000      -0.552927       -15.0459
  47   2.0000      -0.543464       -14.7884
  48   2.0000      -0.533130       -14.5072
  49   2.0000      -0.525349       -14.2955
  50   2.0000      -0.513487       -13.9727
  51   2.0000      -0.457787       -12.4570
  52   2.0000      -0.437730       -11.9112
  53   2.0000      -0.404117       -10.9966
  54   2.0000      -0.389233       -10.5916
  55   2.0000      -0.381074       -10.3695
  56   2.0000      -0.352868        -9.6020
  57   0.0000       0.008553         0.2327
  58   0.0000       0.019675         0.5354
  59   0.0000       0.025722         0.6999
  60   0.0000       0.032785         0.8921
  61   0.0000       0.040023         1.0891

MULLIKEN ATOMIC CHARGES
-----------------------
   0 N :    0.314070
   1 C :   -0.518028
   2 C :    1.055683
   3 S :   -0.419366
   4 C :   -0.247798
   5 C :   -0.864263
   6 H :    0.215511
   7 H :    0.331010
   8 H :    0.242317
   9 C :   -0.967812
  10 H :    0.383042
  11 H :    0.244773
  12 H :    0.255826
  13 C :   -1.162705
  14 H :    0.384334
  15 H :    0.325274
  16 H :    0.543985
  17 C :    1.871154
  18 C :   -1.054810
  19 H :    0.329025
  20 H :    0.271891
  21 H :    0.275059
  22 O :   -1.074533
  23 C :    0.914073
  24 O :   -0.846744
  25 O :   -0.955938
  26 H :    0.154973
Sum of atomic charges:   -0.0000000

LOEWDIN ATOMIC CHARGES
----------------------
   0 N :    0.233165
   1 C :   -0.238249
   2 C :   -0.425608
   3 S :    1.461503
   4 C :   -0.493957
   5 C :    0.607649
   6 H :   -0.154136
   7 H :   -0.181105
   8 H :   -0.152539
   9 C :    0.533462
  10 H :   -0.190374
  11 H :   -0.173063
  12 H :   -0.166829
  13 C :    0.561310
  14 H :   -0.131026
  15 H :   -0.161555
  16 H :   -0.310786
  17 C :   -0.647785
  18 C :    0.591374
  19 H :   -0.193878
  20 H :   -0.151184
  21 H :   -0.157512
  22 O :    0.789993
  23 C :   -1.023661
  24 O :    0.409561
  25 O :    0.428635
  26 H :   -0.663404

  Mayer bond orders larger than 0.100000
B(  0-N ,  1-C ) :   0.3544 B(  0-N ,  2-C ) :  -0.5271 B(  0-N ,  4-C ) :   1.3652
B(  0-N ,  5-C ) :  -0.2351 B(  0-N , 13-C ) :   1.0459 B(  1-C ,  2-C ) :   0.9868
B(  1-C ,  3-S ) :   0.2336 B(  1-C ,  5-C ) :   0.8546 B(  1-C , 13-C ) :  -0.1262
B(  2-C ,  3-S ) :   0.5241 B(  2-C ,  5-C ) :  -0.1838 B(  2-C ,  9-C ) :   0.5909
B(  2-C , 12-H ) :  -0.1004 B(  3-S ,  4-C ) :   1.3867 B(  3-S ,  9-C ) :  -0.1057
B(  3-S , 17-C ) :  -0.2986 B(  4-C , 17-C ) :   0.6066 B(  4-C , 23-C ) :   0.2018
B(  4-C , 25-O ) :   0.1244 B(  5-C ,  6-H ) :   1.1146 B(  5-C ,  7-H ) :   0.8865
B(  5-C ,  8-H ) :   1.0845 B(  9-C , 10-H ) :   0.8179 B(  9-C , 11-H ) :   1.0846
B(  9-C , 12-H ) :   1.0662 B( 13-C , 14-H ) :   0.8979 B( 13-C , 15-H ) :   0.9633
B( 13-C , 16-H ) :   0.7265 B( 17-C , 18-C ) :   0.4880 B( 17-C , 23-C ) :   0.7465
B( 17-C , 24-O ) :  -0.1971 B( 17-C , 25-O ) :  -0.2276 B( 17-C , 26-H ) :  -0.1082
B( 18-C , 19-H ) :   0.9395 B( 18-C , 20-H ) :   1.0391 B( 18-C , 21-H ) :   0.9900
B( 22-O , 26-H ) :   1.0201 B( 23-C , 24-O ) :   1.3148 B( 23-C , 25-O ) :   1.1496
B( 25-O , 26-H ) :   0.1505

MP2 TOTAL ENERGY:    -1027.805802520 Eh
FINAL SINGLE POINT ENERGY     -1027.805802519631

DIPOLE MOMENT
-------------
                                X             Y             Z
Electronic contribution:      7.56553      -8.67383      -3.20894
Nuclear contribution   :    -12.01270       9.34037       4.83297
                        -----------------------------------------
Total Dipole Moment    :     -4.44717       0.66654       1.62404
                        -----------------------------------------
Magnitude (a.u.)       :      4.78112
Magnitude (Debye)      :     12.15264

Rotational constants in cm-1:     0.034336     0.016065     0.013084
Rotational constants in MHz :  1029.365690   481.616197   392.250657

                             ****ORCA TERMINATED NORMALLY****
TOTAL RUN TIME: 0 days 0 hours 17 minutes 44 seconds 681 msec
