                         Program Version 4.2.1 -  RELEASE  -
|  1> %pal
|  2>  nprocs 32
|  3> end
|  4> !RI-MP2 aug-cc-pVTZ aug-cc-pVTZ/C TightSCF
|  5> %maxcore 4500
|  6> *xyzfile 0 2  04_79TS.xyz
|  7>
|  8>
|  9>                          ****END OF INPUT****

CARTESIAN COORDINATES (ANGSTROEM)
---------------------------------
  C      2.063096    2.378413   -0.171236
  C      1.166413    2.519306   -1.375004
  H      0.580740    3.444797   -1.323821
  H      0.473114    1.681916   -1.452472
  H      1.752348    2.554680   -2.298099
  C      3.163048    3.403055   -0.044529
  H      2.671543    1.230601   -0.306404
  H      1.510866    2.231911    0.756385
  H      2.751374    4.411886    0.075410
  H      3.794486    3.416378   -0.937965
  H      3.801936    3.203291    0.818576
  O      1.383267   -0.931771   -1.227311
  C      2.614119   -1.126540   -0.504076
  C      2.175582   -1.600356    0.877770
  C      0.978920   -2.507506    0.523094
  C      0.450831   -1.904436   -0.822832
  C      3.450048    0.109266   -0.571267
  H      3.150859   -1.965463   -0.979211
  H      3.830434    0.327592   -1.567037
  H      4.223101    0.155621    0.192111
  O      1.801261   -0.587610    1.772306
  H      2.970580   -2.164843    1.365813
  H      1.055442   -0.059334    1.404129
  O      0.023931   -2.600393    1.534985
  H      1.338230   -3.516542    0.307713
  H      0.186232   -1.866057    2.144816
  N     -0.858715   -1.302659   -0.758034
  H      0.372185   -2.691501   -1.579839
  C     -1.943854   -1.655850   -1.531585
  N     -2.998542   -0.926958   -1.323290
  C     -2.597921   -0.027243   -0.357511
  C     -1.278385   -0.243192    0.007457
  N     -0.603064    0.467260    0.916784
  C     -1.335023    1.434038    1.458511
  N     -2.600782    1.748144    1.195589
  C     -3.264118    1.027529    0.284028
  N     -4.543276    1.336492    0.010730
  H     -4.979955    2.095792    0.504686
  H     -5.059253    0.799036   -0.664708
  H     -0.841551    2.045250    2.206894
  H     -1.876268   -2.471688   -2.236181

 Total Charge           Charge          ....    0
 Multiplicity           Mult            ....    2
 Number of Electrons    NEL             ....  157
 Basis Dimension        Dim             .... 1426

ORBITAL ENERGIES
----------------
                 SPIN UP ORBITALS
  NO   OCC          E(Eh)            E(eV)
   0   1.0000     -20.575234      -559.8806
   1   1.0000     -20.563281      -559.5553
   2   1.0000     -20.547842      -559.1352
   3   1.0000     -15.631564      -425.3565
   4   1.0000     -15.591130      -424.2562
   5   1.0000     -15.568524      -423.6411
   6   1.0000     -15.568097      -423.6295
   7   1.0000     -15.557304      -423.3358
   8   1.0000     -11.344567      -308.7014
   9   1.0000     -11.344554      -308.7010
  10   1.0000     -11.322206      -308.0929
  11   1.0000     -11.321377      -308.0703
  12   1.0000     -11.321285      -308.0678
  13   1.0000     -11.296498      -307.3933
  14   1.0000     -11.292251      -307.2778
  15   1.0000     -11.287212      -307.1407
  16   1.0000     -11.254850      -306.2600
  17   1.0000     -11.230451      -305.5961
  18   1.0000     -11.221830      -305.3615
  19   1.0000     -11.207067      -304.9598
  20   1.0000     -11.200770      -304.7884
  21   1.0000      -1.424740       -38.7692
  22   1.0000      -1.382043       -37.6073
  23   1.0000      -1.372372       -37.3441
  24   1.0000      -1.350284       -36.7431
  25   1.0000      -1.313505       -35.7423
  26   1.0000      -1.259907       -34.2838
  27   1.0000      -1.204171       -32.7672
  28   1.0000      -1.168022       -31.7835
  29   1.0000      -1.067918       -29.0595
  30   1.0000      -1.054541       -28.6955
  31   1.0000      -1.047261       -28.4974
  32   1.0000      -1.028940       -27.9989
  33   1.0000      -0.947631       -25.7864
  34   1.0000      -0.923684       -25.1347
  35   1.0000      -0.902815       -24.5668
  36   1.0000      -0.887474       -24.1494
  37   1.0000      -0.850246       -23.1364
  38   1.0000      -0.820479       -22.3264
  39   1.0000      -0.812936       -22.1211
  40   1.0000      -0.790930       -21.5223
  41   1.0000      -0.771904       -21.0046
  42   1.0000      -0.745958       -20.2986
  43   1.0000      -0.730881       -19.8883
  44   1.0000      -0.714876       -19.4528
  45   1.0000      -0.695257       -18.9189
  46   1.0000      -0.691760       -18.8238
  47   1.0000      -0.681877       -18.5548
  48   1.0000      -0.650609       -17.7040
  49   1.0000      -0.644721       -17.5438
  50   1.0000      -0.636657       -17.3243
  51   1.0000      -0.631254       -17.1773
  52   1.0000      -0.622889       -16.9497
  53   1.0000      -0.613893       -16.7049
  54   1.0000      -0.601248       -16.3608
  55   1.0000      -0.596650       -16.2357
  56   1.0000      -0.585005       -15.9188
  57   1.0000      -0.581189       -15.8150
  58   1.0000      -0.566890       -15.4259
  59   1.0000      -0.557833       -15.1794
  60   1.0000      -0.550047       -14.9675
  61   1.0000      -0.545464       -14.8428
  62   1.0000      -0.527292       -14.3484
  63   1.0000      -0.522225       -14.2105
  64   1.0000      -0.512204       -13.9378
  65   1.0000      -0.507320       -13.8049
  66   1.0000      -0.499974       -13.6050
  67   1.0000      -0.482551       -13.1309
  68   1.0000      -0.477885       -13.0039
  69   1.0000      -0.474985       -12.9250
  70   1.0000      -0.466238       -12.6870
  71   1.0000      -0.458610       -12.4794
  72   1.0000      -0.451917       -12.2973
  73   1.0000      -0.428606       -11.6630
  74   1.0000      -0.418565       -11.3897
  75   1.0000      -0.410220       -11.1626
  76   1.0000      -0.379252       -10.3200
  77   1.0000      -0.317166        -8.6305
  78   1.0000      -0.303610        -8.2616
  79   0.0000       0.021386         0.5819
  80   0.0000       0.027457         0.7471
  81   0.0000       0.028771         0.7829
  82   0.0000       0.034253         0.9321
  83   0.0000       0.037849         1.0299

                 SPIN DOWN ORBITALS
  NO   OCC          E(Eh)            E(eV)
   0   1.0000     -20.574741      -559.8672
   1   1.0000     -20.563288      -559.5555
   2   1.0000     -20.547887      -559.1364
   3   1.0000     -15.631564      -425.3565
   4   1.0000     -15.591130      -424.2562
   5   1.0000     -15.568536      -423.6414
   6   1.0000     -15.568099      -423.6295
   7   1.0000     -15.557302      -423.3357
   8   1.0000     -11.344602      -308.7023
   9   1.0000     -11.344555      -308.7010
  10   1.0000     -11.322203      -308.0928
  11   1.0000     -11.321374      -308.0703
  12   1.0000     -11.321286      -308.0679
  13   1.0000     -11.296528      -307.3942
  14   1.0000     -11.293964      -307.3244
  15   1.0000     -11.287020      -307.1354
  16   1.0000     -11.254850      -306.2600
  17   1.0000     -11.210379      -305.0499
  18   1.0000     -11.208523      -304.9994
  19   1.0000     -11.204302      -304.8846
  20   1.0000     -11.202114      -304.8250
  21   1.0000      -1.423946       -38.7475
  22   1.0000      -1.381919       -37.6039
  23   1.0000      -1.372100       -37.3367
  24   1.0000      -1.350313       -36.7439
  25   1.0000      -1.313484       -35.7417
  26   1.0000      -1.259910       -34.2839
  27   1.0000      -1.204020       -32.7631
  28   1.0000      -1.167996       -31.7828
  29   1.0000      -1.052218       -28.6323
  30   1.0000      -1.047127       -28.4938
  31   1.0000      -1.036134       -28.1946
  32   1.0000      -1.021339       -27.7920
  33   1.0000      -0.928061       -25.2538
  34   1.0000      -0.923490       -25.1294
  35   1.0000      -0.900455       -24.5026
  36   1.0000      -0.884433       -24.0666
  37   1.0000      -0.847949       -23.0739
  38   1.0000      -0.817047       -22.2330
  39   1.0000      -0.801441       -21.8083
  40   1.0000      -0.771699       -20.9990
  41   1.0000      -0.762803       -20.7569
  42   1.0000      -0.743338       -20.2273
  43   1.0000      -0.728913       -19.8347
  44   1.0000      -0.714294       -19.4369
  45   1.0000      -0.694100       -18.8874
  46   1.0000      -0.690584       -18.7918
  47   1.0000      -0.679540       -18.4912
  48   1.0000      -0.649461       -17.6727
  49   1.0000      -0.638992       -17.3879
  50   1.0000      -0.633293       -17.2328
  51   1.0000      -0.630131       -17.1467
  52   1.0000      -0.613947       -16.7063
  53   1.0000      -0.604152       -16.4398
  54   1.0000      -0.596836       -16.2407
  55   1.0000      -0.588783       -16.0216
  56   1.0000      -0.580078       -15.7847
  57   1.0000      -0.574254       -15.6262
  58   1.0000      -0.560965       -15.2646
  59   1.0000      -0.554799       -15.0969
  60   1.0000      -0.545600       -14.8465
  61   1.0000      -0.540468       -14.7069
  62   1.0000      -0.523866       -14.2551
  63   1.0000      -0.519754       -14.1432
  64   1.0000      -0.510925       -13.9030
  65   1.0000      -0.505918       -13.7667
  66   1.0000      -0.481351       -13.0982
  67   1.0000      -0.474449       -12.9104
  68   1.0000      -0.472988       -12.8707
  69   1.0000      -0.465278       -12.6609
  70   1.0000      -0.459161       -12.4944
  71   1.0000      -0.453868       -12.3504
  72   1.0000      -0.436450       -11.8764
  73   1.0000      -0.428251       -11.6533
  74   1.0000      -0.418468       -11.3871
  75   1.0000      -0.409641       -11.1469
  76   1.0000      -0.379186       -10.3182
  77   1.0000      -0.317097        -8.6286
  78   0.0000       0.021473         0.5843
  79   0.0000       0.027473         0.7476
  80   0.0000       0.028765         0.7827
  81   0.0000       0.034280         0.9328
  82   0.0000       0.037899         1.0313

MULLIKEN ATOMIC CHARGES AND SPIN POPULATIONS
--------------------------------------------
   0 C :    0.105428    0.803040
   1 C :   -1.187997   -0.066419
   2 H :    0.234548    0.028793
   3 H :    0.564812    0.013039
   4 H :    0.171888    0.005522
   5 C :   -1.283383   -0.064219
   6 H :    0.512181   -0.515563
   7 H :    0.376006   -0.003992
   8 H :    0.242584    0.028114
   9 H :    0.285167    0.009344
  10 H :    0.277906    0.006258
  11 O :   -0.972938    0.019076
  12 C :    0.225149   -0.195408
  13 C :    0.221838    0.020449
  14 C :    0.097218   -0.006584
  15 C :    0.569737    0.011746
  16 C :   -1.049999    0.924861
  17 H :    0.445692    0.040460
  18 H :    0.277622   -0.023083
  19 H :    0.270470   -0.047421
  20 O :   -1.181005   -0.001098
  21 H :    0.449483    0.000256
  22 H :    0.751932    0.003841
  23 O :   -1.006193   -0.000221
  24 H :    0.417844   -0.000927
  25 H :    0.268561    0.000089
  26 N :    0.031829    0.000730
  27 H :    0.516765    0.001813
  28 C :   -0.433888    0.000799
  29 N :   -1.252130   -0.000320
  30 C :    2.348333   -0.000218
  31 C :   -0.500188    0.003665
  32 N :   -0.364013    0.002897
  33 C :   -0.549070    0.001138
  34 N :   -0.474310   -0.000148
  35 C :   -0.184342   -0.000237
  36 N :   -0.583497   -0.000006
  37 H :    0.056089   -0.000003
  38 H :    0.098597    0.000000
  39 H :    0.504315   -0.000096
  40 H :    0.700955    0.000032
Sum of atomic charges         :   -0.0000000

LOEWDIN ATOMIC CHARGES AND SPIN POPULATIONS
-------------------------------------------
   0 C :    0.201416    0.275759
   1 C :    0.577497    0.037042
   2 H :   -0.160812    0.013340
   3 H :   -0.190396    0.000002
   4 H :   -0.160820    0.000284
   5 C :    0.578405    0.035560
   6 H :   -0.367688    0.097928
   7 H :   -0.163358    0.037862
   8 H :   -0.166138    0.012790
   9 H :   -0.166227    0.000454
  10 H :   -0.166777   -0.000382
  11 O :    0.622046    0.004225
  12 C :   -0.249059    0.053200
  13 C :   -0.215159    0.002253
  14 C :   -0.198682    0.000652
  15 C :   -0.288224    0.000493
  16 C :    0.574248    0.323117
  17 H :   -0.124305    0.017901
  18 H :   -0.154293    0.042953
  19 H :   -0.151682    0.045601
  20 O :    0.878140   -0.000732
  21 H :   -0.128651    0.000359
  22 H :   -0.676853   -0.000899
  23 O :    0.859459   -0.000148
  24 H :   -0.138086    0.000400
  25 H :   -0.540150   -0.000019
  26 N :    0.284515    0.000144
  27 H :   -0.137838    0.000099
  28 C :   -0.029514    0.000073
  29 N :    0.408880   -0.000019
  30 C :   -0.296917   -0.000006
  31 C :   -0.403668    0.000042
  32 N :    0.440833   -0.000478
  33 C :   -0.126700   -0.000044
  34 N :    0.407344    0.000025
  35 C :   -0.405204   -0.000022
  36 N :    0.877764   -0.000017
  37 H :   -0.282396   -0.000002
  38 H :   -0.282642   -0.000001
  39 H :   -0.182427    0.000195
  40 H :   -0.155884    0.000014

  Mayer bond orders larger than 0.100000
B(  0-C ,  1-C ) :   0.7759 B(  0-C ,  5-C ) :   0.4014 B(  0-C ,  6-H ) :   0.3646
B(  0-C ,  7-H ) :   0.8756 B(  0-C ,  9-H ) :  -0.1041 B(  1-C ,  2-H ) :   1.0233
B(  1-C ,  3-H ) :   0.6619 B(  1-C ,  4-H ) :   1.1144 B(  1-C ,  5-C ) :   0.1274
B(  5-C ,  8-H ) :   1.0812 B(  5-C ,  9-H ) :   1.0483 B(  5-C , 10-H ) :   1.0446
B(  6-H , 16-C ) :   0.1586 B( 11-O , 12-C ) :   0.8430 B( 11-O , 14-C ) :   0.1268
B( 11-O , 15-C ) :   0.5202 B( 11-O , 16-C ) :   0.1500 B( 11-O , 26-N ) :   0.1752
B( 12-C , 13-C ) :   0.9797 B( 12-C , 16-C ) :   0.8654 B( 12-C , 17-H ) :   0.7385
B( 12-C , 20-O ) :   0.2028 B( 13-C , 14-C ) :   1.2119 B( 13-C , 20-O ) :   0.4606
B( 13-C , 21-H ) :   0.8001 B( 13-C , 23-O ) :   0.1539 B( 14-C , 15-C ) :   1.0676
B( 14-C , 20-O ) :   0.1643 B( 14-C , 23-O ) :   0.2164 B( 14-C , 24-H ) :   0.8595
B( 14-C , 26-N ) :   0.1449 B( 15-C , 23-O ) :   0.1344 B( 15-C , 26-N ) :   0.7630
B( 15-C , 27-H ) :   0.5865 B( 15-C , 30-C ) :   0.1298 B( 15-C , 31-C ) :  -0.4440
B( 15-C , 32-N ) :  -0.1519 B( 16-C , 18-H ) :   0.9631 B( 16-C , 19-H ) :   1.0163
B( 20-O , 21-H ) :  -0.1337 B( 23-O , 24-H ) :  -0.1227 B( 23-O , 25-H ) :   0.8998
B( 26-N , 28-C ) :   1.3994 B( 26-N , 29-N ) :  -0.1300 B( 26-N , 30-C ) :  -0.2326
B( 26-N , 31-C ) :   0.7220 B( 26-N , 32-N ) :  -0.3645 B( 27-H , 31-C ) :   0.1673
B( 28-C , 29-N ) :   1.2694 B( 28-C , 31-C ) :  -0.6698 B( 28-C , 32-N ) :  -0.1447
B( 28-C , 40-H ) :   0.3890 B( 29-N , 30-C ) :  -1.0146 B( 29-N , 31-C ) :   1.0651
B( 29-N , 35-C ) :   0.1842 B( 29-N , 40-H ) :  -0.1723 B( 30-C , 31-C ) :   0.3030
B( 30-C , 32-N ) :  -0.3750 B( 30-C , 33-C ) :   0.1674 B( 30-C , 34-N ) :   0.1488
B( 30-C , 35-C ) :  -1.8950 B( 30-C , 36-N ) :  -0.2579 B( 30-C , 40-H ) :   0.1791
B( 31-C , 32-N ) :   1.2993 B( 31-C , 33-C ) :  -0.7791 B( 31-C , 34-N ) :   0.1486
B( 31-C , 35-C ) :   1.9241 B( 31-C , 40-H ) :  -0.1196 B( 32-N , 33-C ) :   1.6437
B( 32-N , 35-C ) :   0.4315 B( 33-C , 34-N ) :   0.8006 B( 33-C , 35-C ) :  -0.4703
B( 33-C , 39-H ) :   0.6454 B( 34-N , 35-C ) :   0.2955 B( 34-N , 36-N ) :  -0.2613
B( 35-C , 36-N ) :   0.9632 B( 36-N , 37-H ) :   1.1825 B( 36-N , 38-H ) :   1.1183

MP2 TOTAL ENERGY:    -1004.974527978 Eh
FINAL SINGLE POINT ENERGY     -1004.974527978203

DIPOLE MOMENT
-------------
                                X             Y             Z
Electronic contribution:    -21.63465     -13.22698       2.82361
Nuclear contribution   :     21.72741      12.82887      -3.54245
                        -----------------------------------------
Total Dipole Moment    :      0.09275      -0.39811      -0.71884
                        -----------------------------------------
Magnitude (a.u.)       :      0.82694
Magnitude (Debye)      :      2.10191

Rotational constants in cm-1:     0.014171     0.009036     0.006980
Rotational constants in MHz :   424.822945   270.885884   209.241774

                             ****ORCA TERMINATED NORMALLY****
TOTAL RUN TIME: 0 days 1 hours 45 minutes 11 seconds 996 msec
