                         Program Version 4.2.1 -  RELEASE  -
|  1> %pal
|  2>  nprocs 32
|  3> end
|  4> !RI-MP2 aug-cc-pVTZ aug-cc-pVTZ/C TightSCF
|  5> %maxcore 4500
|  6> *xyzfile 1 1  04_58R1.xyz
|  7>
|  8>
|  9>                          ****END OF INPUT****

CARTESIAN COORDINATES (ANGSTROEM)
---------------------------------
  N      2.333651    1.385551    0.000037
  H      3.221988    1.879655   -0.000010
  C      2.405319    0.127493   -0.000046
  C      1.142575   -0.694433    0.000019
  O      3.476525   -0.673472   -0.000188
  N      0.018463    0.223262    0.000160
  H      1.122041   -1.339727    0.880668
  H      1.121880   -1.339644   -0.880685
  C     -1.234257   -0.176680    0.000033
  C     -2.327108    0.909806    0.000152
  O     -1.621334   -1.343978   -0.000151
  N     -3.598234    0.126685    0.000004
  H     -2.272325    1.537202   -0.887330
  H     -2.272379    1.536959    0.887809
  H     -4.172765    0.280876   -0.828340
  H     -4.172798    0.280619    0.828374
  H     -3.213902   -0.873826   -0.000140
  H      0.298028    1.205470    0.000243
  H      4.302378   -0.173590   -0.000230

 Total Charge           Charge          ....    1
 Multiplicity           Mult            ....    1
 Number of Electrons    NEL             ....   70
 Basis Dimension        Dim             ....  644

ORBITAL ENERGIES
----------------

  NO   OCC          E(Eh)            E(eV)
   0   2.0000     -20.729037      -564.0658
   1   2.0000     -20.701227      -563.3090
   2   2.0000     -15.860699      -431.5915
   3   2.0000     -15.746315      -428.4790
   4   2.0000     -15.667642      -426.3382
   5   2.0000     -11.529281      -313.7277
   6   2.0000     -11.484100      -312.4982
   7   2.0000     -11.478858      -312.3556
   8   2.0000     -11.412820      -310.5586
   9   2.0000      -1.574705       -42.8499
  10   2.0000      -1.559802       -42.4444
  11   2.0000      -1.477958       -40.2173
  12   2.0000      -1.411116       -38.3984
  13   2.0000      -1.326341       -36.0916
  14   2.0000      -1.190752       -32.4020
  15   2.0000      -1.124611       -30.6022
  16   2.0000      -0.977649       -26.6032
  17   2.0000      -0.967863       -26.3369
  18   2.0000      -0.953562       -25.9478
  19   2.0000      -0.943388       -25.6709
  20   2.0000      -0.866115       -23.5682
  21   2.0000      -0.853649       -23.2290
  22   2.0000      -0.834866       -22.7179
  23   2.0000      -0.812317       -22.1043
  24   2.0000      -0.789520       -21.4839
  25   2.0000      -0.775931       -21.1142
  26   2.0000      -0.769115       -20.9287
  27   2.0000      -0.723151       -19.6779
  28   2.0000      -0.721514       -19.6334
  29   2.0000      -0.682131       -18.5617
  30   2.0000      -0.681447       -18.5431
  31   2.0000      -0.620769       -16.8920
  32   2.0000      -0.574977       -15.6459
  33   2.0000      -0.559236       -15.2176
  34   2.0000      -0.543848       -14.7988
  35   0.0000      -0.100779        -2.7423
  36   0.0000      -0.072700        -1.9783
  37   0.0000      -0.069967        -1.9039
  38   0.0000      -0.058364        -1.5882
  39   0.0000      -0.047808        -1.3009

MULLIKEN ATOMIC CHARGES
-----------------------
   0 N :   -0.676967
   1 H :    0.160277
   2 C :    0.326514
   3 C :    0.166550
   4 O :   -0.486831
   5 N :    0.014414
   6 H :    0.304045
   7 H :    0.304042
   8 C :    0.077279
   9 C :   -0.081710
  10 O :   -0.766555
  11 N :    0.006305
  12 H :    0.350801
  13 H :    0.350807
  14 H :    0.121289
  15 H :    0.121296
  16 H :    0.227183
  17 H :    0.249204
  18 H :    0.232056
Sum of atomic charges:    1.0000000

LOEWDIN ATOMIC CHARGES
----------------------
   0 N :    0.690440
   1 H :   -0.390818
   2 C :   -0.523571
   3 C :    0.218394
   4 O :    0.876415
   5 N :    0.558804
   6 H :   -0.127772
   7 H :   -0.127779
   8 C :   -0.552551
   9 C :    0.385824
  10 O :    0.572888
  11 N :    1.075419
  12 H :   -0.114125
  13 H :   -0.114125
  14 H :   -0.134363
  15 H :   -0.134362
  16 H :   -0.374600
  17 H :   -0.351262
  18 H :   -0.432857

  Mayer bond orders larger than 0.100000
B(  0-N ,  1-H ) :   0.9526 B(  0-N ,  2-C ) :   1.2511 B(  0-N ,  3-C ) :   0.1455
B(  0-N ,  5-N ) :  -0.1316 B(  2-C ,  3-C ) :   0.6454 B(  2-C ,  4-O ) :   0.9760
B(  3-C ,  5-N ) :   0.6788 B(  3-C ,  6-H ) :   0.9111 B(  3-C ,  7-H ) :   0.9111
B(  3-C ,  8-C ) :  -0.2565 B(  4-O , 18-H ) :   0.9650 B(  5-N ,  8-C ) :   1.2490
B(  5-N , 10-O ) :  -0.2041 B(  5-N , 17-H ) :   0.8944 B(  8-C ,  9-C ) :   0.5910
B(  8-C , 10-O ) :   1.3724 B(  9-C , 11-N ) :   0.9330 B(  9-C , 12-H ) :   0.9071
B(  9-C , 13-H ) :   0.9070 B( 10-O , 16-H ) :   0.2323 B( 11-N , 14-H ) :   1.0356
B( 11-N , 15-H ) :   1.0356 B( 11-N , 16-H ) :   0.8393

MP2 TOTAL ENERGY:     -472.125115064 Eh
FINAL SINGLE POINT ENERGY      -472.125115063552

DIPOLE MOMENT
-------------
                                X             Y             Z
Electronic contribution:      2.69283      -1.52706      -0.00023
Nuclear contribution   :     -6.07056       2.99937       0.00036
                        -----------------------------------------
Total Dipole Moment    :     -3.37773       1.47232       0.00013
                        -----------------------------------------
Magnitude (a.u.)       :      3.68467
Magnitude (Debye)      :      9.36569

Rotational constants in cm-1:     0.170135     0.022371     0.019984
Rotational constants in MHz :  5100.511884   670.675002   599.108532

                             ****ORCA TERMINATED NORMALLY****
TOTAL RUN TIME: 0 days 0 hours 3 minutes 41 seconds 34 msec
