                         Program Version 4.2.1 -  RELEASE  -
|  1> %pal
|  2>  nprocs 32
|  3> end
|  4> !RI-MP2 aug-cc-pVTZ aug-cc-pVTZ/C TightSCF
|  5> %maxcore 4500
|  6> *xyzfile 0 1  09_12TS.xyz
|  7>
|  8>
|  9>                          ****END OF INPUT****

CARTESIAN COORDINATES (ANGSTROEM)
---------------------------------
  C     -0.053862   -1.860226   -0.340594
  C      1.015339   -1.083373   -0.842176
  H      0.042934   -2.156729    0.699898
  H      1.115722   -0.847203   -1.892980
  H     -0.378413   -2.674573   -0.983090
  S      1.715767    0.058522    0.204015
  O      1.439640    1.446226   -0.238750
  O      1.346793   -0.284622    1.589136
  C      3.479400   -0.145122    0.077029
  C      4.255215    0.808984   -0.401513
  H      3.819636   -1.110539    0.429781
  H      5.328149    0.674990   -0.470540
  H      3.824300    1.747644   -0.729148
  C     -2.785416   -1.442789    0.079547
  C     -1.557760    0.317937   -0.291642
  C     -3.598092   -0.358567    0.185645
  H     -3.008639   -2.489838    0.196849
  H     -0.700209    0.954224   -0.480028
  H     -4.648989   -0.272341    0.403722
  N     -1.524876   -0.996257   -0.222678
  N     -2.805815    0.744900   -0.050625
  C     -3.228928    2.136416   -0.017075
  H     -3.648496    2.374256    0.959787
  H     -2.359537    2.766595   -0.190793
  H     -3.970727    2.324276   -0.792972

 Total Charge           Charge          ....    0
 Multiplicity           Mult            ....    1
 Number of Electrons    NEL             ....  106
 Basis Dimension        Dim             ....  878

ORBITAL ENERGIES
----------------

  NO   OCC          E(Eh)            E(eV)
   0   2.0000     -92.130010     -2506.9850
   1   2.0000     -20.493767      -557.6637
   2   2.0000     -20.493340      -557.6521
   3   2.0000     -15.664285      -426.2469
   4   2.0000     -15.624411      -425.1618
   5   2.0000     -11.337316      -308.5041
   6   2.0000     -11.306282      -307.6596
   7   2.0000     -11.298096      -307.4368
   8   2.0000     -11.292946      -307.2967
   9   2.0000     -11.285301      -307.0887
  10   2.0000     -11.237302      -305.7825
  11   2.0000     -11.229401      -305.5675
  12   2.0000     -11.166745      -303.8626
  13   2.0000      -9.098883      -247.5932
  14   2.0000      -6.783636      -184.5921
  15   2.0000      -6.783325      -184.5837
  16   2.0000      -6.782885      -184.5717
  17   2.0000      -1.403121       -38.1809
  18   2.0000      -1.387950       -37.7680
  19   2.0000      -1.276070       -34.7236
  20   2.0000      -1.246818       -33.9276
  21   2.0000      -1.074960       -29.2511
  22   2.0000      -1.055808       -28.7300
  23   2.0000      -1.032171       -28.0868
  24   2.0000      -1.003355       -27.3027
  25   2.0000      -0.910995       -24.7894
  26   2.0000      -0.856479       -23.3060
  27   2.0000      -0.839090       -22.8328
  28   2.0000      -0.800910       -21.7939
  29   2.0000      -0.760183       -20.6856
  30   2.0000      -0.720224       -19.5983
  31   2.0000      -0.690764       -18.7966
  32   2.0000      -0.667979       -18.1766
  33   2.0000      -0.655268       -17.8308
  34   2.0000      -0.641766       -17.4633
  35   2.0000      -0.635986       -17.3061
  36   2.0000      -0.629372       -17.1261
  37   2.0000      -0.619915       -16.8687
  38   2.0000      -0.602045       -16.3825
  39   2.0000      -0.596393       -16.2287
  40   2.0000      -0.595261       -16.1979
  41   2.0000      -0.561969       -15.2920
  42   2.0000      -0.559916       -15.2361
  43   2.0000      -0.532030       -14.4773
  44   2.0000      -0.524225       -14.2649
  45   2.0000      -0.455466       -12.3939
  46   2.0000      -0.449014       -12.2183
  47   2.0000      -0.437259       -11.8984
  48   2.0000      -0.423044       -11.5116
  49   2.0000      -0.402934       -10.9644
  50   2.0000      -0.382375       -10.4049
  51   2.0000      -0.365820        -9.9545
  52   2.0000      -0.283770        -7.7218
  53   0.0000       0.014890         0.4052
  54   0.0000       0.026233         0.7138
  55   0.0000       0.032291         0.8787
  56   0.0000       0.037185         1.0119
  57   0.0000       0.040764         1.1093

MULLIKEN ATOMIC CHARGES
-----------------------
   0 C :   -0.011915
   1 C :   -1.244935
   2 H :    0.341798
   3 H :    0.262393
   4 H :    0.352521
   5 S :    2.601601
   6 O :   -1.121242
   7 O :   -1.136392
   8 C :   -0.536723
   9 C :   -1.101163
  10 H :    0.390946
  11 H :    0.468622
  12 H :    0.366250
  13 C :   -0.643540
  14 C :   -0.647026
  15 C :   -0.567256
  16 H :    0.586940
  17 H :    1.057825
  18 H :    0.624182
  19 N :    0.200441
  20 N :   -0.194528
  21 C :   -1.099569
  22 H :    0.323767
  23 H :    0.409355
  24 H :    0.317650
Sum of atomic charges:   -0.0000000

LOEWDIN ATOMIC CHARGES
----------------------
   0 C :    0.179623
   1 C :   -0.010740
   2 H :   -0.203078
   3 H :   -0.272296
   4 H :   -0.173034
   5 S :    0.152490
   6 O :    0.034726
   7 O :    0.024351
   8 C :    0.055343
   9 C :    0.466409
  10 H :   -0.233866
  11 H :   -0.223162
  12 H :   -0.249757
  13 C :    0.135981
  14 C :    0.056635
  15 C :    0.163218
  16 H :   -0.163346
  17 H :   -0.219784
  18 H :   -0.161218
  19 N :    0.314458
  20 N :    0.221546
  21 C :    0.560069
  22 H :   -0.149494
  23 H :   -0.154315
  24 H :   -0.150760

  Mayer bond orders larger than 0.100000
B(  0-C ,  1-C ) :   1.0360 B(  0-C ,  2-H ) :   0.8855 B(  0-C ,  4-H ) :   0.9022
B(  0-C ,  5-S ) :   0.1428 B(  0-C , 19-N ) :   0.4468 B(  1-C ,  3-H ) :   0.9583
B(  1-C ,  5-S ) :   1.1709 B(  1-C ,  6-O ) :   0.1215 B(  1-C ,  7-O ) :   0.1522
B(  5-S ,  6-O ) :   0.9532 B(  5-S ,  7-O ) :   0.8897 B(  5-S ,  8-C ) :   0.7302
B(  7-O ,  8-C ) :   0.1432 B(  8-C ,  9-C ) :   1.3903 B(  8-C , 10-H ) :   0.8890
B(  9-C , 11-H ) :   0.7500 B(  9-C , 12-H ) :   0.9108 B( 13-C , 14-C ) :  -0.1287
B( 13-C , 15-C ) :   1.3877 B( 13-C , 16-H ) :   0.7484 B( 13-C , 19-N ) :   1.1094
B( 13-C , 20-N ) :  -0.1657 B( 14-C , 15-C ) :  -0.2041 B( 14-C , 19-N ) :   1.2229
B( 14-C , 20-N ) :   1.1377 B( 15-C , 18-H ) :   0.6432 B( 15-C , 19-N ) :  -0.2601
B( 15-C , 20-N ) :   1.3378 B( 17-H , 20-N ) :  -0.1701 B( 19-N , 20-N ) :  -0.2932
B( 20-N , 21-C ) :   1.0804 B( 21-C , 22-H ) :   0.9392 B( 21-C , 23-H ) :   0.8409
B( 21-C , 24-H ) :   0.9437

MP2 TOTAL ENERGY:     -968.578712376 Eh
FINAL SINGLE POINT ENERGY      -968.578712375681

DIPOLE MOMENT
-------------
                                X             Y             Z
Electronic contribution:      1.68637      -1.35415       2.01507
Nuclear contribution   :     -4.59149       1.29810      -2.81941
                        -----------------------------------------
Total Dipole Moment    :     -2.90512      -0.05606      -0.80434
                        -----------------------------------------
Magnitude (a.u.)       :      3.01493
Magnitude (Debye)      :      7.66335

Rotational constants in cm-1:     0.054194     0.013291     0.011627
Rotational constants in MHz :  1624.708312   398.439667   348.566448

                             ****ORCA TERMINATED NORMALLY****
TOTAL RUN TIME: 0 days 0 hours 12 minutes 2 seconds 400 msec
