                         Program Version 4.2.1 -  RELEASE  -
|  1> %pal
|  2>  nprocs 32
|  3> end
|  4> !RI-MP2 aug-cc-pVTZ aug-cc-pVTZ/C TightSCF
|  5> %maxcore 4500
|  6> *xyzfile 1 1  05_40P1.xyz
|  7>
|  8>
|  9>                          ****END OF INPUT****

CARTESIAN COORDINATES (ANGSTROEM)
---------------------------------
  O      3.588744    0.018354    0.000139
  C      2.512988   -0.515072    0.000035
  O      2.309189   -1.822136   -0.000064
  C      3.491335   -2.652923   -0.000041
  C      1.216951    0.240228    0.000008
  C     -0.000000   -0.431264   -0.000001
  C     -1.216952    0.240229   -0.000004
  C     -1.212506    1.629482   -0.000009
  N      0.000000    2.229772   -0.000009
  C      1.212506    1.629482    0.000001
  C     -2.399044    2.529317   -0.000014
  C     -2.512988   -0.515072   -0.000001
  O     -2.309189   -1.822136   -0.000028
  C     -3.491335   -2.652923   -0.000027
  C      2.399044    2.529317    0.000007
  O     -3.588744    0.018354    0.000023
  H     -4.082878   -2.450273   -0.890794
  H     -4.082835   -2.450331    0.890781
  H     -3.123599   -3.673747   -0.000069
  H     -3.025207    2.332396    0.870135
  H     -3.025242    2.332344   -0.870125
  H     -2.096415    3.577081   -0.000051
  H      3.025301    2.332284   -0.870047
  H      3.025148    2.332456    0.870213
  H      2.096415    3.577080   -0.000120
  H      4.082786   -2.450376    0.890810
  H      4.082926   -2.450228   -0.890765
  H      3.123599   -3.673747   -0.000155
  H     -0.000000   -1.512462   -0.000003
  H      0.000000    3.244802   -0.000019

 Total Charge           Charge          ....    1
 Multiplicity           Mult            ....    1
 Number of Electrons    NEL             ....  118
 Basis Dimension        Dim             .... 1058

ORBITAL ENERGIES
----------------

  NO   OCC          E(Eh)            E(eV)
   0   2.0000     -20.735423      -564.2395
   1   2.0000     -20.735423      -564.2395
   2   2.0000     -20.679037      -562.7052
   3   2.0000     -20.679037      -562.7052
   4   2.0000     -15.835507      -430.9060
   5   2.0000     -11.524014      -313.5844
   6   2.0000     -11.524014      -313.5844
   7   2.0000     -11.507670      -313.1396
   8   2.0000     -11.507644      -313.1389
   9   2.0000     -11.450385      -311.5808
  10   2.0000     -11.423516      -310.8497
  11   2.0000     -11.423475      -310.8486
  12   2.0000     -11.397208      -310.1338
  13   2.0000     -11.397208      -310.1338
  14   2.0000     -11.388699      -309.9023
  15   2.0000     -11.388699      -309.9023
  16   2.0000      -1.602674       -43.6110
  17   2.0000      -1.602185       -43.5977
  18   2.0000      -1.519802       -41.3559
  19   2.0000      -1.500275       -40.8246
  20   2.0000      -1.499910       -40.8146
  21   2.0000      -1.303541       -35.4712
  22   2.0000      -1.289207       -35.0811
  23   2.0000      -1.164557       -31.6892
  24   2.0000      -1.164474       -31.6870
  25   2.0000      -1.108284       -30.1579
  26   2.0000      -1.087286       -29.5865
  27   2.0000      -1.060869       -28.8677
  28   2.0000      -1.031896       -28.0793
  29   2.0000      -0.981010       -26.6946
  30   2.0000      -0.918017       -24.9805
  31   2.0000      -0.895199       -24.3596
  32   2.0000      -0.876852       -23.8604
  33   2.0000      -0.859267       -23.3818
  34   2.0000      -0.841458       -22.8972
  35   2.0000      -0.818026       -22.2596
  36   2.0000      -0.816751       -22.2249
  37   2.0000      -0.804397       -21.8888
  38   2.0000      -0.802767       -21.8444
  39   2.0000      -0.797568       -21.7029
  40   2.0000      -0.790426       -21.5086
  41   2.0000      -0.736488       -20.0408
  42   2.0000      -0.735894       -20.0247
  43   2.0000      -0.729131       -19.8407
  44   2.0000      -0.712964       -19.4007
  45   2.0000      -0.711244       -19.3539
  46   2.0000      -0.708179       -19.2705
  47   2.0000      -0.702922       -19.1275
  48   2.0000      -0.693990       -18.8844
  49   2.0000      -0.683277       -18.5929
  50   2.0000      -0.679178       -18.4814
  51   2.0000      -0.652807       -17.7638
  52   2.0000      -0.651541       -17.7293
  53   2.0000      -0.597372       -16.2553
  54   2.0000      -0.592275       -16.1166
  55   2.0000      -0.591973       -16.1084
  56   2.0000      -0.589306       -16.0358
  57   2.0000      -0.584933       -15.9168
  58   2.0000      -0.524779       -14.2800
  59   0.0000      -0.099687        -2.7126
  60   0.0000      -0.086215        -2.3460
  61   0.0000      -0.078230        -2.1288
  62   0.0000      -0.058694        -1.5972
  63   0.0000      -0.052145        -1.4189

MULLIKEN ATOMIC CHARGES
-----------------------
   0 O :   -1.061268
   1 C :    0.557884
   2 O :   -0.381002
   3 C :   -0.913626
   4 C :    1.737071
   5 C :   -0.713262
   6 C :    1.736903
   7 C :   -0.045552
   8 N :   -0.225074
   9 C :   -0.045602
  10 C :   -0.960466
  11 C :    0.557951
  12 O :   -0.380983
  13 C :   -0.913637
  14 C :   -0.960409
  15 O :   -1.061260
  16 H :    0.403130
  17 H :    0.403131
  18 H :    0.356421
  19 H :    0.300272
  20 H :    0.300272
  21 H :    0.302422
  22 H :    0.300259
  23 H :    0.300263
  24 H :    0.302445
  25 H :    0.403128
  26 H :    0.403120
  27 H :    0.356443
  28 H :   -0.076684
  29 H :    0.017710
Sum of atomic charges:    1.0000000

LOEWDIN ATOMIC CHARGES
----------------------
   0 O :    0.514404
   1 C :   -0.815466
   2 O :    0.580718
   3 C :    0.412543
   4 C :   -0.031111
   5 C :    0.275936
   6 C :   -0.031111
   7 C :   -0.089504
   8 N :    0.635350
   9 C :   -0.089503
  10 C :    0.649339
  11 C :   -0.815466
  12 O :    0.580718
  13 C :    0.412543
  14 C :    0.649339
  15 O :    0.514404
  16 H :   -0.169227
  17 H :   -0.169226
  18 H :   -0.173893
  19 H :   -0.151028
  20 H :   -0.151033
  21 H :   -0.155076
  22 H :   -0.151040
  23 H :   -0.151021
  24 H :   -0.155077
  25 H :   -0.169226
  26 H :   -0.169228
  27 H :   -0.173893
  28 H :   -0.178389
  29 H :   -0.235775

  Mayer bond orders larger than 0.100000
B(  0-O ,  1-C ) :   1.2413 B(  0-O ,  4-C ) :  -0.2551 B(  1-C ,  2-O ) :   1.0074
B(  1-C ,  3-C ) :  -0.1404 B(  1-C ,  5-C ) :  -0.1791 B(  1-C ,  9-C ) :   0.1994
B(  1-C , 11-C ) :   0.2940 B(  1-C , 28-H ) :  -0.1123 B(  2-O ,  3-C ) :   0.8682
B(  2-O ,  4-C ) :   0.1374 B(  2-O ,  5-C ) :  -0.3255 B(  3-C , 25-H ) :   0.8551
B(  3-C , 26-H ) :   0.8551 B(  3-C , 27-H ) :   0.9202 B(  4-C ,  5-C ) :   0.6043
B(  4-C ,  6-C ) :   0.3057 B(  4-C ,  7-C ) :  -0.1973 B(  4-C ,  8-N ) :  -0.6348
B(  4-C ,  9-C ) :   0.3113 B(  4-C , 14-C ) :   0.1091 B(  4-C , 28-H ) :  -0.3596
B(  5-C ,  6-C ) :   0.6042 B(  5-C ,  7-C ) :   0.1480 B(  5-C ,  9-C ) :   0.1480
B(  5-C , 11-C ) :  -0.1792 B(  5-C , 12-O ) :  -0.3256 B(  5-C , 28-H ) :   2.2632
B(  6-C ,  7-C ) :   0.3119 B(  6-C ,  8-N ) :  -0.6349 B(  6-C ,  9-C ) :  -0.1972
B(  6-C , 10-C ) :   0.1090 B(  6-C , 12-O ) :   0.1374 B(  6-C , 15-O ) :  -0.2550
B(  6-C , 28-H ) :  -0.3597 B(  7-C ,  8-N ) :   1.1387 B(  7-C ,  9-C ) :  -0.1672
B(  7-C , 10-C ) :   0.4025 B(  7-C , 11-C ) :   0.1991 B(  7-C , 28-H ) :   0.1866
B(  8-N ,  9-C ) :   1.1384 B(  8-N , 29-H ) :   1.3913 B(  9-C , 14-C ) :   0.4024
B(  9-C , 28-H ) :   0.1867 B( 10-C , 19-H ) :   1.0320 B( 10-C , 20-H ) :   1.0320
B( 10-C , 21-H ) :   0.9282 B( 11-C , 12-O ) :   1.0074 B( 11-C , 13-C ) :  -0.1404
B( 11-C , 15-O ) :   1.2412 B( 11-C , 28-H ) :  -0.1123 B( 12-O , 13-C ) :   0.8682
B( 13-C , 16-H ) :   0.8551 B( 13-C , 17-H ) :   0.8551 B( 13-C , 18-H ) :   0.9203
B( 14-C , 22-H ) :   1.0320 B( 14-C , 23-H ) :   1.0320 B( 14-C , 24-H ) :   0.9282

MP2 TOTAL ENERGY:     -781.655991094 Eh
FINAL SINGLE POINT ENERGY      -781.655991094337

DIPOLE MOMENT
-------------
                                X             Y             Z
Electronic contribution:      0.00000       0.36924       0.00012
Nuclear contribution   :     -0.00000       1.02010      -0.00021
                        -----------------------------------------
Total Dipole Moment    :      0.00000       1.38934      -0.00008
                        -----------------------------------------
Magnitude (a.u.)       :      1.38934
Magnitude (Debye)      :      3.53141

Rotational constants in cm-1:     0.024406     0.012258     0.008209
Rotational constants in MHz :   731.663338   367.471342   246.104951

                             ****ORCA TERMINATED NORMALLY****
TOTAL RUN TIME: 0 days 0 hours 22 minutes 7 seconds 313 msec
