                         Program Version 4.2.1 -  RELEASE  -
|  1> %pal
|  2>  nprocs 32
|  3> end
|  4> !RI-MP2 aug-cc-pVTZ aug-cc-pVTZ/C TightSCF
|  5> %maxcore 4500
|  6> *xyzfile 0 1  10_89P.xyz
|  7>
|  8>
|  9>                          ****END OF INPUT****

CARTESIAN COORDINATES (ANGSTROEM)
---------------------------------
  O      1.956427    0.594696   -1.197937
  C      1.995461   -0.147897   -0.247219
  C      0.846861   -0.483122    0.646748
  C     -0.480392    0.196441    0.270078
  C     -0.973892   -0.274859   -1.073985
  C     -2.101996   -0.946984   -1.246244
  C     -1.478722   -0.093026    1.370908
  C     -2.612083   -0.751096    1.183485
  C     -3.069581   -1.263333   -0.148008
  H     -1.204377    0.264600    2.358458
  H     -3.282353   -0.931279    2.017029
  H     -3.217439   -2.345794   -0.087391
  O     -4.369924   -0.761217   -0.461676
  H     -4.302784    0.194088   -0.563136
  C      3.347486   -0.814011    0.088765
  O      4.323244   -0.425444   -0.721441
  O      3.478023   -1.597624    0.980716
  C     -0.261531    1.711617    0.304358
  O      0.526851    2.258805    1.026408
  O     -1.092920    2.377679   -0.505412
  H      3.943885    0.210080   -1.353938
  H     -0.912742    3.321854   -0.390769
  H      1.146631   -0.208682    1.661958
  H      0.724533   -1.569226    0.660302
  H     -2.396685   -1.269921   -2.238987
  H     -0.341936   -0.043258   -1.922102

 Total Charge           Charge          ....    0
 Multiplicity           Mult            ....    1
 Number of Electrons    NEL             ....  118
 Basis Dimension        Dim             ....  966

ORBITAL ENERGIES
----------------

  NO   OCC          E(Eh)            E(eV)
   0   2.0000     -20.630186      -561.3759
   1   2.0000     -20.629722      -561.3633
   2   2.0000     -20.610698      -560.8456
   3   2.0000     -20.577802      -559.9505
   4   2.0000     -20.572058      -559.7941
   5   2.0000     -20.564633      -559.5921
   6   2.0000     -11.408920      -310.4525
   7   2.0000     -11.403774      -310.3125
   8   2.0000     -11.383916      -309.7721
   9   2.0000     -11.305782      -307.6460
  10   2.0000     -11.294009      -307.3256
  11   2.0000     -11.273372      -306.7641
  12   2.0000     -11.260831      -306.4228
  13   2.0000     -11.253765      -306.2305
  14   2.0000     -11.253406      -306.2207
  15   2.0000     -11.247821      -306.0688
  16   2.0000      -1.497342       -40.7448
  17   2.0000      -1.488465       -40.5032
  18   2.0000      -1.447268       -39.3822
  19   2.0000      -1.396688       -38.0058
  20   2.0000      -1.383098       -37.6360
  21   2.0000      -1.377398       -37.4809
  22   2.0000      -1.177697       -32.0468
  23   2.0000      -1.087780       -29.6000
  24   2.0000      -1.048931       -28.5429
  25   2.0000      -1.013855       -27.5884
  26   2.0000      -0.922804       -25.1108
  27   2.0000      -0.908190       -24.7131
  28   2.0000      -0.844319       -22.9751
  29   2.0000      -0.836717       -22.7682
  30   2.0000      -0.817507       -22.2455
  31   2.0000      -0.756555       -20.5869
  32   2.0000      -0.739729       -20.1291
  33   2.0000      -0.736859       -20.0509
  34   2.0000      -0.723041       -19.6749
  35   2.0000      -0.704775       -19.1779
  36   2.0000      -0.681351       -18.5405
  37   2.0000      -0.673140       -18.3171
  38   2.0000      -0.667374       -18.1602
  39   2.0000      -0.644247       -17.5308
  40   2.0000      -0.640711       -17.4346
  41   2.0000      -0.634268       -17.2593
  42   2.0000      -0.630748       -17.1635
  43   2.0000      -0.615777       -16.7561
  44   2.0000      -0.613271       -16.6879
  45   2.0000      -0.603716       -16.4279
  46   2.0000      -0.577140       -15.7048
  47   2.0000      -0.555695       -15.1212
  48   2.0000      -0.546985       -14.8842
  49   2.0000      -0.541950       -14.7472
  50   2.0000      -0.518804       -14.1174
  51   2.0000      -0.510990       -13.9048
  52   2.0000      -0.502773       -13.6812
  53   2.0000      -0.498388       -13.5618
  54   2.0000      -0.476983       -12.9794
  55   2.0000      -0.458957       -12.4889
  56   2.0000      -0.444405       -12.0929
  57   2.0000      -0.390898       -10.6369
  58   2.0000      -0.384351       -10.4587
  59   0.0000       0.022483         0.6118
  60   0.0000       0.029380         0.7995
  61   0.0000       0.030251         0.8232
  62   0.0000       0.035974         0.9789
  63   0.0000       0.042874         1.1667

MULLIKEN ATOMIC CHARGES
-----------------------
   0 O :   -1.045731
   1 C :    0.935556
   2 C :   -0.400261
   3 C :    1.979649
   4 C :   -0.567883
   5 C :   -0.946579
   6 C :   -0.800664
   7 C :   -0.965345
   8 C :    1.075023
   9 H :    0.248618
  10 H :    0.510668
  11 H :    0.360037
  12 O :   -0.786888
  13 H :    0.200780
  14 C :    0.577519
  15 O :   -0.461393
  16 O :   -0.721569
  17 C :    0.783893
  18 O :   -1.096448
  19 O :   -0.577545
  20 H :    0.283427
  21 H :    0.213444
  22 H :    0.224030
  23 H :    0.352679
  24 H :    0.485143
  25 H :    0.139840
Sum of atomic charges:   -0.0000000

LOEWDIN ATOMIC CHARGES
----------------------
   0 O :    0.552085
   1 C :   -0.461954
   2 C :    0.263927
   3 C :   -0.354339
   4 C :    0.222343
   5 C :    0.259873
   6 C :    0.237666
   7 C :    0.263733
   8 C :   -0.286142
   9 H :   -0.159712
  10 H :   -0.165519
  11 H :   -0.147813
  12 O :    0.823304
  13 H :   -0.484487
  14 C :   -0.779550
  15 O :    0.841703
  16 O :    0.456825
  17 C :   -0.810101
  18 O :    0.494030
  19 O :    0.864872
  20 H :   -0.552936
  21 H :   -0.450197
  22 H :   -0.144412
  23 H :   -0.129021
  24 H :   -0.166888
  25 H :   -0.187290

  Mayer bond orders larger than 0.100000
B(  0-O ,  1-C ) :   1.1468 B(  1-C ,  2-C ) :   0.7261 B(  1-C ,  3-C ) :  -0.1664
B(  1-C , 14-C ) :   0.6708 B(  2-C ,  3-C ) :   1.0928 B(  2-C ,  4-C ) :   0.2071
B(  2-C , 17-C ) :   0.1808 B(  2-C , 22-H ) :   0.9407 B(  2-C , 23-H ) :   0.8693
B(  3-C ,  5-C ) :   0.2742 B(  3-C ,  7-C ) :   0.4765 B(  3-C ,  8-C ) :  -0.1366
B(  3-C , 17-C ) :   0.3873 B(  3-C , 18-O ) :  -0.3357 B(  3-C , 19-O ) :  -0.2320
B(  3-C , 24-H ) :  -0.1605 B(  3-C , 25-H ) :  -0.1228 B(  4-C ,  5-C ) :   1.6027
B(  4-C ,  7-C ) :  -0.2109 B(  4-C ,  8-C ) :   0.1161 B(  4-C , 25-H ) :   1.2876
B(  5-C ,  7-C ) :   0.3223 B(  5-C ,  8-C ) :   0.6501 B(  5-C , 12-O ) :   0.1386
B(  5-C , 24-H ) :   0.6328 B(  5-C , 25-H ) :  -0.1209 B(  6-C ,  7-C ) :   1.8637
B(  6-C ,  9-H ) :   1.0972 B(  6-C , 17-C ) :   0.2087 B(  6-C , 18-O ) :   0.1418
B(  7-C ,  8-C ) :   0.4993 B(  7-C , 10-H ) :   0.5519 B(  7-C , 12-O ) :   0.1475
B(  7-C , 17-C ) :  -0.1194 B(  8-C , 11-H ) :   0.8979 B(  8-C , 12-O ) :   0.2925
B( 12-O , 13-H ) :   0.9593 B( 14-C , 15-O ) :   0.8325 B( 14-C , 16-O ) :   1.5761
B( 15-O , 20-H ) :   0.8718 B( 17-C , 18-O ) :   1.0894 B( 17-C , 19-O ) :   0.8444
B( 19-O , 21-H ) :   0.9961

MP2 TOTAL ENERGY:     -837.027609075 Eh
FINAL SINGLE POINT ENERGY      -837.027609075446

DIPOLE MOMENT
-------------
                                X             Y             Z
Electronic contribution:      8.67132       2.78771      -0.61314
Nuclear contribution   :     -9.56985      -2.29169       0.12498
                        -----------------------------------------
Total Dipole Moment    :     -0.89854       0.49601      -0.48816
                        -----------------------------------------
Magnitude (a.u.)       :      1.13653
Magnitude (Debye)      :      2.88883

Rotational constants in cm-1:     0.032928     0.010511     0.009548
Rotational constants in MHz :   987.142117   315.120772   286.234235

                             ****ORCA TERMINATED NORMALLY****
TOTAL RUN TIME: 0 days 0 hours 15 minutes 22 seconds 795 msec
