                         Program Version 4.2.1 -  RELEASE  -
|  1> %pal
|  2>  nprocs 32
|  3> end
|  4> !RI-MP2 aug-cc-pVTZ aug-cc-pVTZ/C TightSCF
|  5> %maxcore 4500
|  6> *xyzfile 0 1  04_55P2.xyz
|  7>
|  8>
|  9>                          ****END OF INPUT****

CARTESIAN COORDINATES (ANGSTROEM)
---------------------------------
  C      0.043124   -1.210067   -0.003995
  C     -1.340816   -1.198961   -0.010162
  C     -2.052742    0.000000   -0.010247
  C     -1.340817    1.198961   -0.010154
  C      0.043124    1.210067   -0.003988
  C      0.714884    0.000000   -0.000037
  H      0.604753   -2.133289   -0.005262
  H      0.604753    2.133289   -0.005250
  H     -1.878688    2.139620   -0.017112
  H     -1.878689   -2.139619   -0.017126
  C     -3.554866   -0.000000    0.014359
  N      2.185685    0.000000    0.003283
  O      2.751072    1.076743    0.004933
  O      2.751072   -1.076743    0.004952
  H     -3.960114    0.884345   -0.478537
  H     -3.920203   -0.000006    1.045115
  H     -3.960113   -0.884340   -0.478547

 Total Charge           Charge          ....    0
 Multiplicity           Mult            ....    1
 Number of Electrons    NEL             ....   72
 Basis Dimension        Dim             ....  621

ORBITAL ENERGIES
----------------

  NO   OCC          E(Eh)            E(eV)
   0   2.0000     -20.597423      -560.4844
   1   2.0000     -20.597370      -560.4829
   2   2.0000     -15.849961      -431.2994
   3   2.0000     -11.302172      -307.5477
   4   2.0000     -11.276940      -306.8611
   5   2.0000     -11.270936      -306.6978
   6   2.0000     -11.270893      -306.6966
   7   2.0000     -11.256616      -306.3081
   8   2.0000     -11.256572      -306.3069
   9   2.0000     -11.246267      -306.0265
  10   2.0000      -1.609915       -43.8080
  11   2.0000      -1.400943       -38.1216
  12   2.0000      -1.201570       -32.6964
  13   2.0000      -1.107760       -30.1437
  14   2.0000      -1.050534       -28.5865
  15   2.0000      -1.007524       -27.4161
  16   2.0000      -0.915196       -24.9038
  17   2.0000      -0.866185       -23.5701
  18   2.0000      -0.815092       -22.1798
  19   2.0000      -0.780030       -21.2257
  20   2.0000      -0.727920       -19.8077
  21   2.0000      -0.720704       -19.6113
  22   2.0000      -0.674407       -18.3516
  23   2.0000      -0.668728       -18.1970
  24   2.0000      -0.643065       -17.4987
  25   2.0000      -0.621109       -16.9012
  26   2.0000      -0.600906       -16.3515
  27   2.0000      -0.565832       -15.3971
  28   2.0000      -0.538543       -14.6545
  29   2.0000      -0.524425       -14.2703
  30   2.0000      -0.520797       -14.1716
  31   2.0000      -0.491632       -13.3780
  32   2.0000      -0.490678       -13.3520
  33   2.0000      -0.453250       -12.3336
  34   2.0000      -0.367954       -10.0125
  35   2.0000      -0.364235        -9.9113
  36   0.0000       0.021688         0.5902
  37   0.0000       0.029591         0.8052
  38   0.0000       0.034399         0.9360
  39   0.0000       0.035714         0.9718
  40   0.0000       0.046780         1.2729

MULLIKEN ATOMIC CHARGES
-----------------------
   0 C :   -0.595280
   1 C :   -0.802918
   2 C :    1.278279
   3 C :   -0.802909
   4 C :   -0.595259
   5 C :    0.654950
   6 H :    0.611079
   7 H :    0.611078
   8 H :    0.193313
   9 H :    0.193312
  10 C :   -0.952754
  11 N :    0.706962
  12 O :   -0.689804
  13 O :   -0.689803
  14 H :    0.281200
  15 H :    0.317356
  16 H :    0.281197
Sum of atomic charges:    0.0000000

LOEWDIN ATOMIC CHARGES
----------------------
   0 C :    0.216139
   1 C :    0.232409
   2 C :   -0.111762
   3 C :    0.232409
   4 C :    0.216139
   5 C :   -0.221217
   6 H :   -0.189772
   7 H :   -0.189772
   8 H :   -0.172492
   9 H :   -0.172491
  10 C :    0.590606
  11 N :   -0.722599
  12 O :    0.395269
  13 O :    0.395269
  14 H :   -0.170467
  15 H :   -0.157200
  16 H :   -0.170467

  Mayer bond orders larger than 0.100000
B(  0-C ,  1-C ) :   1.3866 B(  0-C ,  2-C ) :   0.2316 B(  0-C ,  4-C ) :   0.1247
B(  0-C ,  5-C ) :   0.9195 B(  0-C ,  6-H ) :   0.5084 B(  0-C , 11-N ) :  -0.1952
B(  0-C , 13-O ) :  -0.1195 B(  1-C ,  2-C ) :   0.5651 B(  1-C ,  5-C ) :  -0.2521
B(  1-C ,  9-H ) :   1.2420 B(  1-C , 10-C ) :   0.1198 B(  2-C ,  3-C ) :   0.5651
B(  2-C ,  4-C ) :   0.2316 B(  2-C ,  8-H ) :  -0.1400 B(  2-C ,  9-H ) :  -0.1400
B(  2-C , 10-C ) :   0.4565 B(  3-C ,  4-C ) :   1.3865 B(  3-C ,  5-C ) :  -0.2521
B(  3-C ,  8-H ) :   1.2420 B(  3-C , 10-C ) :   0.1198 B(  4-C ,  5-C ) :   0.9195
B(  4-C ,  7-H ) :   0.5084 B(  4-C , 11-N ) :  -0.1952 B(  4-C , 12-O ) :  -0.1194
B(  5-C , 11-N ) :   1.2636 B(  5-C , 12-O ) :   0.3615 B(  5-C , 13-O ) :   0.3615
B( 10-C , 14-H ) :   0.9899 B( 10-C , 15-H ) :   0.9487 B( 10-C , 16-H ) :   0.9899
B( 11-N , 12-O ) :   1.0342 B( 11-N , 13-O ) :   1.0342

MP2 TOTAL ENERGY:     -475.211797164 Eh
FINAL SINGLE POINT ENERGY      -475.211797164402

DIPOLE MOMENT
-------------
                                X             Y             Z
Electronic contribution:     11.82072       0.00000      -0.03276
Nuclear contribution   :    -14.08902      -0.00000       0.04285
                        -----------------------------------------
Total Dipole Moment    :     -2.26831       0.00000       0.01008
                        -----------------------------------------
Magnitude (a.u.)       :      2.26833
Magnitude (Debye)      :      5.76564

Rotational constants in cm-1:     0.131336     0.027370     0.022746
Rotational constants in MHz :  3937.350228   820.537485   681.907191

                             ****ORCA TERMINATED NORMALLY****
TOTAL RUN TIME: 0 days 0 hours 4 minutes 17 seconds 644 msec
