                         Program Version 4.2.1 -  RELEASE  -
|  1> %pal
|  2>  nprocs 32
|  3> end
|  4> !RI-MP2 aug-cc-pVTZ aug-cc-pVTZ/C TightSCF
|  5> %maxcore 4500
|  6> *xyzfile 0 1  05_7P2.xyz
|  7>
|  8>
|  9>                          ****END OF INPUT****

CARTESIAN COORDINATES (ANGSTROEM)
---------------------------------
  H      2.772564    0.191067   -0.308839
  C     -0.251885   -1.185822   -0.026677
  C     -0.966199   -0.056800    0.038207
  H      1.617649    2.178368   -0.049264
  H      1.466206   -1.296120    1.268611
  H     -0.730715   -2.145322   -0.184218
  C     -2.459042   -0.029468   -0.104780
  C      1.237487   -1.159898    0.195247
  C     -0.266890    1.215308    0.198197
  N      1.770170    0.107407   -0.291362
  C      1.059846    1.250035   -0.015452
  H      1.725896   -1.973124   -0.344600
  H     -0.817266    2.130593    0.365570
  H     -2.920267    0.421214    0.778979
  H     -2.867335   -1.032985   -0.229009
  H     -2.757824    0.574333   -0.966158

 Total Charge           Charge          ....    0
 Multiplicity           Mult            ....    1
 Number of Electrons    NEL             ....   52
 Basis Dimension        Dim             ....  529

ORBITAL ENERGIES
----------------

  NO   OCC          E(Eh)            E(eV)
   0   2.0000     -15.566596      -423.5886
   1   2.0000     -11.268434      -306.6297
   2   2.0000     -11.259583      -306.3888
   3   2.0000     -11.228307      -305.5378
   4   2.0000     -11.214098      -305.1511
   5   2.0000     -11.206833      -304.9534
   6   2.0000     -11.199884      -304.7643
   7   2.0000      -1.245914       -33.9030
   8   2.0000      -1.086552       -29.5666
   9   2.0000      -1.018632       -27.7184
  10   2.0000      -0.955430       -25.9986
  11   2.0000      -0.858601       -23.3637
  12   2.0000      -0.808572       -22.0024
  13   2.0000      -0.722138       -19.6504
  14   2.0000      -0.661317       -17.9954
  15   2.0000      -0.633578       -17.2405
  16   2.0000      -0.609880       -16.5957
  17   2.0000      -0.584406       -15.9025
  18   2.0000      -0.576976       -15.7003
  19   2.0000      -0.560891       -15.2626
  20   2.0000      -0.537103       -14.6153
  21   2.0000      -0.492336       -13.3971
  22   2.0000      -0.480876       -13.0853
  23   2.0000      -0.454059       -12.3556
  24   2.0000      -0.377903       -10.2833
  25   2.0000      -0.269160        -7.3242
  26   0.0000       0.027363         0.7446
  27   0.0000       0.034457         0.9376
  28   0.0000       0.035177         0.9572
  29   0.0000       0.044095         1.1999
  30   0.0000       0.048076         1.3082

MULLIKEN ATOMIC CHARGES
-----------------------
   0 H :    0.028023
   1 C :   -1.054426
   2 C :    1.166771
   3 H :    0.658369
   4 H :    0.266403
   5 H :    0.224769
   6 C :   -0.967972
   7 C :   -0.032218
   8 C :   -0.633010
   9 N :   -0.328417
  10 C :   -0.661739
  11 H :    0.323805
  12 H :    0.227155
  13 H :    0.257498
  14 H :    0.245129
  15 H :    0.279859
Sum of atomic charges:   -0.0000000

LOEWDIN ATOMIC CHARGES
----------------------
   0 H :   -0.288338
   1 C :    0.244057
   2 C :   -0.160307
   3 H :   -0.164994
   4 H :   -0.139636
   5 H :   -0.184724
   6 C :    0.564717
   7 C :    0.164449
   8 C :    0.200520
   9 N :    0.539467
  10 C :    0.097908
  11 H :   -0.157097
  12 H :   -0.202866
  13 H :   -0.167725
  14 H :   -0.179053
  15 H :   -0.166376

  Mayer bond orders larger than 0.100000
B(  0-H ,  9-N ) :   1.1001 B(  1-C ,  2-C ) :   1.1722 B(  1-C ,  5-H ) :   1.0985
B(  1-C ,  7-C ) :   0.7814 B(  1-C , 10-C ) :   0.1863 B(  2-C ,  6-C ) :   0.6189
B(  2-C ,  8-C ) :   0.7475 B(  2-C , 12-H ) :  -0.1121 B(  3-H , 10-C ) :   0.4198
B(  4-H ,  7-C ) :   0.9493 B(  6-C , 13-H ) :   1.0352 B(  6-C , 14-H ) :   0.9919
B(  6-C , 15-H ) :   1.0104 B(  7-C ,  9-N ) :   0.8031 B(  7-C , 11-H ) :   0.9467
B(  8-C ,  9-N ) :  -0.1142 B(  8-C , 10-C ) :   1.2914 B(  8-C , 12-H ) :   1.1319
B(  9-N , 10-C ) :   1.0524

MP2 TOTAL ENERGY:     -288.168752190 Eh
FINAL SINGLE POINT ENERGY      -288.168752190140

DIPOLE MOMENT
-------------
                                X             Y             Z
Electronic contribution:      3.08585       0.96453      -0.25268
Nuclear contribution   :     -2.56680      -0.97649       0.33807
                        -----------------------------------------
Total Dipole Moment    :      0.51905      -0.01196       0.08539
                        -----------------------------------------
Magnitude (a.u.)       :      0.52616
Magnitude (Debye)      :      1.33740

Rotational constants in cm-1:     0.174023     0.080893     0.057438
Rotational constants in MHz :  5217.079652  2425.102512  1721.947056

                             ****ORCA TERMINATED NORMALLY****
TOTAL RUN TIME: 0 days 0 hours 2 minutes 25 seconds 762 msec
