                         Program Version 4.2.1 -  RELEASE  -
|  1> %pal
|  2>  nprocs 32
|  3> end
|  4> !RI-MP2 aug-cc-pVTZ aug-cc-pVTZ/C TightSCF
|  5> %maxcore 4500
|  6> *xyzfile 0 1  02_42TS.xyz
|  7>
|  8>
|  9>                          ****END OF INPUT****

CARTESIAN COORDINATES (ANGSTROEM)
---------------------------------
  C      0.773503   -1.008950    0.923619
  C      0.349631   -0.070851    1.850594
  C      1.176430    1.282179    0.161913
  C      0.591144    1.236821    1.423440
  H      1.592003    2.177306   -0.283062
  H      0.273343    2.115534    1.968823
  H     -0.198625   -0.323759    2.748024
  H      0.767226   -2.081447    1.060637
  S      2.093966   -0.253086   -0.019862
  O      2.183341   -0.730831   -1.431658
  C     -2.434213    0.652327    0.089191
  C     -0.630172   -0.668305   -0.830129
  C     -0.390597    0.651203   -1.189534
  H     -2.285504    0.908100    1.142329
  H     -0.176230   -1.517337   -1.320486
  H      0.247811    0.885409   -2.031594
  H     -3.505209    0.699744   -0.105654
  C     -1.580849    1.528536   -0.836443
  H     -1.298892    2.480550   -0.384988
  H     -2.124866    1.763467   -1.755523
  C     -1.921325   -0.768113   -0.118511
  O     -2.482821   -1.777579    0.235963

 Total Charge           Charge          ....    0
 Multiplicity           Mult            ....    1
 Number of Electrons    NEL             ....   96
 Basis Dimension        Dim             ....  786

ORBITAL ENERGIES
----------------

  NO   OCC          E(Eh)            E(eV)
   0   2.0000     -92.092952     -2505.9766
   1   2.0000     -20.534482      -558.7717
   2   2.0000     -20.528235      -558.6017
   3   2.0000     -11.324429      -308.1534
   4   2.0000     -11.300619      -307.5055
   5   2.0000     -11.293275      -307.3056
   6   2.0000     -11.276937      -306.8610
   7   2.0000     -11.270965      -306.6986
   8   2.0000     -11.268872      -306.6416
   9   2.0000     -11.248273      -306.0811
  10   2.0000     -11.243003      -305.9377
  11   2.0000     -11.239010      -305.8290
  12   2.0000      -9.078410      -247.0361
  13   2.0000      -6.759985      -183.9485
  14   2.0000      -6.759787      -183.9432
  15   2.0000      -6.758659      -183.9125
  16   2.0000      -1.379402       -37.5354
  17   2.0000      -1.359154       -36.9845
  18   2.0000      -1.194594       -32.5065
  19   2.0000      -1.141010       -31.0485
  20   2.0000      -1.017689       -27.6927
  21   2.0000      -1.001336       -27.2477
  22   2.0000      -0.975472       -26.5439
  23   2.0000      -0.935232       -25.4489
  24   2.0000      -0.803383       -21.8612
  25   2.0000      -0.800095       -21.7717
  26   2.0000      -0.772123       -21.0105
  27   2.0000      -0.729855       -19.8604
  28   2.0000      -0.727545       -19.7975
  29   2.0000      -0.679255       -18.4835
  30   2.0000      -0.659888       -17.9565
  31   2.0000      -0.612106       -16.6562
  32   2.0000      -0.602216       -16.3871
  33   2.0000      -0.599696       -16.3185
  34   2.0000      -0.592370       -16.1192
  35   2.0000      -0.585891       -15.9429
  36   2.0000      -0.579510       -15.7693
  37   2.0000      -0.574920       -15.6444
  38   2.0000      -0.550428       -14.9779
  39   2.0000      -0.541324       -14.7302
  40   2.0000      -0.518061       -14.0972
  41   2.0000      -0.503643       -13.7048
  42   2.0000      -0.483085       -13.1454
  43   2.0000      -0.440863       -11.9965
  44   2.0000      -0.402982       -10.9657
  45   2.0000      -0.391733       -10.6596
  46   2.0000      -0.358381        -9.7520
  47   2.0000      -0.337936        -9.1957
  48   0.0000       0.019109         0.5200
  49   0.0000       0.028540         0.7766
  50   0.0000       0.032808         0.8928
  51   0.0000       0.035954         0.9783
  52   0.0000       0.045450         1.2367

MULLIKEN ATOMIC CHARGES
-----------------------
   0 C :   -0.079475
   1 C :   -0.543523
   2 C :   -0.053617
   3 C :   -0.558965
   4 H :    0.584814
   5 H :    0.308302
   6 H :    0.372823
   7 H :    0.566193
   8 S :    0.385189
   9 O :   -0.972823
  10 C :   -0.333303
  11 C :   -0.570150
  12 C :   -0.481222
  13 H :    0.169515
  14 H :    0.417073
  15 H :    0.519813
  16 H :    0.374932
  17 C :   -0.518421
  18 H :    0.279410
  19 H :    0.202358
  20 C :    1.062807
  21 O :   -1.131731
Sum of atomic charges:   -0.0000000

LOEWDIN ATOMIC CHARGES
----------------------
   0 C :   -0.015841
   1 C :    0.107137
   2 C :   -0.046024
   3 C :    0.102537
   4 H :   -0.198377
   5 H :   -0.158896
   6 H :   -0.159925
   7 H :   -0.191419
   8 S :    0.889365
   9 O :   -0.122262
  10 C :    0.305949
  11 C :    0.123443
  12 C :    0.119959
  13 H :   -0.154220
  14 H :   -0.187607
  15 H :   -0.167100
  16 H :   -0.141299
  17 C :    0.289462
  18 H :   -0.152859
  19 H :   -0.141109
  20 C :   -0.552064
  21 O :    0.451148

  Mayer bond orders larger than 0.100000
B(  0-C ,  1-C ) :   1.2971 B(  0-C ,  7-H ) :   0.6718 B(  0-C ,  8-S ) :   1.0298
B(  0-C , 11-C ) :   0.3186 B(  1-C ,  3-C ) :   1.2819 B(  1-C ,  6-H ) :   0.9620
B(  2-C ,  3-C ) :   1.2614 B(  2-C ,  4-H ) :   0.6422 B(  2-C ,  8-S ) :   1.0300
B(  2-C , 12-C ) :   0.4071 B(  3-C ,  5-H ) :   1.0391 B(  3-C , 11-C ) :   0.1118
B(  4-H ,  8-S ) :  -0.1050 B(  8-S ,  9-O ) :   1.3234 B( 10-C , 13-H ) :   0.9922
B( 10-C , 16-H ) :   0.8598 B( 10-C , 17-C ) :   1.0437 B( 10-C , 20-C ) :   0.7604
B( 11-C , 12-C ) :   1.5725 B( 11-C , 14-H ) :   0.8279 B( 11-C , 17-C ) :   0.2024
B( 11-C , 20-C ) :   0.9044 B( 11-C , 21-O ) :   0.1622 B( 12-C , 15-H ) :   0.6624
B( 12-C , 17-C ) :   0.8400 B( 12-C , 20-C ) :   0.1436 B( 13-H , 20-C ) :   0.1486
B( 17-C , 18-H ) :   0.9769 B( 17-C , 19-H ) :   0.9576 B( 17-C , 20-C ) :   0.1222
B( 20-C , 21-O ) :   0.4576

MP2 TOTAL ENERGY:     -896.102183554 Eh
FINAL SINGLE POINT ENERGY      -896.102183553756

DIPOLE MOMENT
-------------
                                X             Y             Z
Electronic contribution:      6.71001      -5.09975      -0.06733
Nuclear contribution   :     -6.70604       7.00043       1.00940
                        -----------------------------------------
Total Dipole Moment    :      0.00397       1.90068       0.94207
                        -----------------------------------------
Magnitude (a.u.)       :      2.12134
Magnitude (Debye)      :      5.39202

Rotational constants in cm-1:     0.047326     0.024398     0.023614
Rotational constants in MHz :  1418.792160   731.440060   707.928919

                             ****ORCA TERMINATED NORMALLY****
TOTAL RUN TIME: 0 days 0 hours 11 minutes 32 seconds 695 msec
