                         Program Version 4.2.1 -  RELEASE  -
|  1> %pal
|  2>  nprocs 32
|  3> end
|  4> !RI-MP2 aug-cc-pVTZ aug-cc-pVTZ/C TightSCF
|  5> %maxcore 4500
|  6> *xyzfile 0 1  04_65P1.xyz
|  7>
|  8>
|  9>                          ****END OF INPUT****

CARTESIAN COORDINATES (ANGSTROEM)
---------------------------------
  H     -3.454557    0.000014    0.704154
  C      0.502614   -0.694569    0.007792
  C      0.502614    0.694570    0.007792
  C      1.677678    1.415592    0.001876
  C      2.870631    0.696064   -0.008607
  C      2.870631   -0.696062   -0.008606
  C      1.677679   -1.415591    0.001877
  C     -0.907376   -1.176798    0.017296
  C     -0.907377    1.176797    0.017298
  H      1.665212    2.498041    0.001505
  H      3.814686    1.226652   -0.018148
  H      3.814687   -1.226650   -0.018147
  H      1.665214   -2.498040    0.001507
  O     -1.341973    2.291007   -0.028383
  O     -1.341970   -2.291008   -0.028382
  N     -1.669751   -0.000001    0.111162
  O     -3.008500   -0.000001   -0.151899

 Total Charge           Charge          ....    0
 Multiplicity           Mult            ....    1
 Number of Electrons    NEL             ....   84
 Basis Dimension        Dim             ....  667

ORBITAL ENERGIES
----------------

  NO   OCC          E(Eh)            E(eV)
   0   2.0000     -20.639417      -561.6271
   1   2.0000     -20.566452      -559.6416
   2   2.0000     -20.566452      -559.6416
   3   2.0000     -15.671674      -426.4479
   4   2.0000     -11.388095      -309.8858
   5   2.0000     -11.388076      -309.8853
   6   2.0000     -11.278649      -306.9076
   7   2.0000     -11.277515      -306.8768
   8   2.0000     -11.276007      -306.8358
   9   2.0000     -11.275801      -306.8301
  10   2.0000     -11.274106      -306.7840
  11   2.0000     -11.272951      -306.7526
  12   2.0000      -1.493022       -40.6272
  13   2.0000      -1.419967       -38.6393
  14   2.0000      -1.411668       -38.4135
  15   2.0000      -1.249874       -34.0108
  16   2.0000      -1.180520       -32.1236
  17   2.0000      -1.064434       -28.9647
  18   2.0000      -1.059062       -28.8185
  19   2.0000      -0.933208       -25.3939
  20   2.0000      -0.895965       -24.3805
  21   2.0000      -0.851505       -23.1706
  22   2.0000      -0.807552       -21.9746
  23   2.0000      -0.755804       -20.5665
  24   2.0000      -0.732416       -19.9301
  25   2.0000      -0.705615       -19.2008
  26   2.0000      -0.697898       -18.9908
  27   2.0000      -0.659625       -17.9493
  28   2.0000      -0.650767       -17.7083
  29   2.0000      -0.640530       -17.4297
  30   2.0000      -0.637945       -17.3594
  31   2.0000      -0.616702       -16.7813
  32   2.0000      -0.566405       -15.4127
  33   2.0000      -0.563238       -15.3265
  34   2.0000      -0.547297       -14.8927
  35   2.0000      -0.546987       -14.8843
  36   2.0000      -0.531177       -14.4541
  37   2.0000      -0.478625       -13.0240
  38   2.0000      -0.444671       -12.1001
  39   2.0000      -0.431149       -11.7322
  40   2.0000      -0.376700       -10.2505
  41   2.0000      -0.375356       -10.2140
  42   0.0000       0.020485         0.5574
  43   0.0000       0.031219         0.8495
  44   0.0000       0.032774         0.8918
  45   0.0000       0.037863         1.0303
  46   0.0000       0.044060         1.1989

MULLIKEN ATOMIC CHARGES
-----------------------
   0 H :    0.202130
   1 C :    1.214690
   2 C :    1.214687
   3 C :   -1.246246
   4 C :   -0.288359
   5 C :   -0.288348
   6 C :   -1.246210
   7 C :    0.184047
   8 C :    0.184051
   9 H :    0.189768
  10 H :    0.568154
  11 H :    0.568156
  12 H :    0.189748
  13 O :   -0.839040
  14 O :   -0.839042
  15 N :    0.749423
  16 O :   -0.517608
Sum of atomic charges:   -0.0000000

LOEWDIN ATOMIC CHARGES
----------------------
   0 H :   -0.456660
   1 C :   -0.126837
   2 C :   -0.126837
   3 C :    0.253278
   4 C :    0.225621
   5 C :    0.225620
   6 C :    0.253278
   7 C :   -0.638310
   8 C :   -0.638309
   9 H :   -0.160373
  10 H :   -0.175892
  11 H :   -0.175891
  12 H :   -0.160374
  13 O :    0.469006
  14 O :    0.469007
  15 N :   -0.010023
  16 O :    0.773696

  Mayer bond orders larger than 0.100000
B(  0-H , 16-O ) :   1.0242 B(  1-C ,  2-C ) :   0.9472 B(  1-C ,  6-C ) :   0.2565
B(  1-C ,  7-C ) :   0.3890 B(  1-C , 13-O ) :   0.1031 B(  1-C , 15-N ) :  -0.1687
B(  2-C ,  3-C ) :   0.2565 B(  2-C ,  8-C ) :   0.3890 B(  2-C , 14-O ) :   0.1031
B(  2-C , 15-N ) :  -0.1687 B(  3-C ,  4-C ) :   1.2398 B(  3-C ,  6-C ) :   0.2460
B(  3-C ,  9-H ) :   1.2910 B(  3-C , 10-H ) :  -0.1730 B(  4-C ,  5-C ) :   1.0473
B(  4-C , 10-H ) :   0.6568 B(  5-C ,  6-C ) :   1.2398 B(  5-C , 11-H ) :   0.6568
B(  6-C , 11-H ) :  -0.1730 B(  6-C , 12-H ) :   1.2910 B(  7-C , 14-O ) :   1.0977
B(  7-C , 15-N ) :   0.9849 B(  8-C , 13-O ) :   1.0977 B(  8-C , 15-N ) :   0.9849
B(  9-H , 13-O ) :   0.1211 B( 12-H , 14-O ) :   0.1211 B( 13-O , 15-N ) :  -0.1140
B( 14-O , 15-N ) :  -0.1140 B( 15-N , 16-O ) :   0.4977

MP2 TOTAL ENERGY:     -587.230785814 Eh
FINAL SINGLE POINT ENERGY      -587.230785813904

DIPOLE MOMENT
-------------
                                X             Y             Z
Electronic contribution:     -5.56037      -0.00001      -0.06272
Nuclear contribution   :      7.16175       0.00002       0.64622
                        -----------------------------------------
Total Dipole Moment    :      1.60138       0.00001       0.58350
                        -----------------------------------------
Magnitude (a.u.)       :      1.70437
Magnitude (Debye)      :      4.33216

Rotational constants in cm-1:     0.058279     0.029035     0.019427
Rotational constants in MHz :  1747.148303   870.445600   582.417281

                             ****ORCA TERMINATED NORMALLY****
TOTAL RUN TIME: 0 days 0 hours 6 minutes 7 seconds 456 msec
