                         Program Version 4.2.1 -  RELEASE  -
|  1> %pal
|  2>  nprocs 32
|  3> end
|  4> !RI-MP2 aug-cc-pVTZ aug-cc-pVTZ/C TightSCF
|  5> %maxcore 4500
|  6> *xyzfile 0 1  03_40P2.xyz
|  7>
|  8>
|  9>                          ****END OF INPUT****

CARTESIAN COORDINATES (ANGSTROEM)
---------------------------------
  C      0.220867    0.028630   -0.016066
  C     -1.202930   -0.524757   -0.018620
  C     -2.007949    0.680427   -0.548871
  C     -1.294186    1.911104    0.013154
  C      0.193912    1.537900   -0.062208
  C      1.303884   -0.726606    0.003549
  C     -1.622428   -0.853486    1.423080
  C     -1.380319   -1.759515   -0.897984
  H     -3.062760    0.623526   -0.271217
  H     -1.955612    0.692164   -1.642438
  H     -1.591279    2.081307    1.050542
  H     -1.525280    2.822407   -0.539398
  H      0.795728    1.983367    0.732017
  H      0.634495    1.873069   -1.006655
  H     -1.509460    0.006392    2.085814
  H     -1.008688   -1.661820    1.825396
  H     -2.668979   -1.168876    1.450899
  H     -1.039141   -1.567320   -1.917051
  H     -2.434237   -2.046929   -0.937374
  H     -0.823223   -2.614908   -0.508964
  Cl     2.918815   -0.057551    0.017296
  H      1.303475   -1.806197    0.008187

 Total Charge           Charge          ....    0
 Multiplicity           Mult            ....    1
 Number of Electrons    NEL             ....   78
 Basis Dimension        Dim             ....  717

ORBITAL ENERGIES
----------------

  NO   OCC          E(Eh)            E(eV)
   0   2.0000    -104.828707     -2852.5341
   1   2.0000     -11.274027      -306.7819
   2   2.0000     -11.245741      -306.0122
   3   2.0000     -11.243022      -305.9382
   4   2.0000     -11.228407      -305.5405
   5   2.0000     -11.224301      -305.4288
   6   2.0000     -11.223248      -305.4001
   7   2.0000     -11.219814      -305.3067
   8   2.0000     -11.219016      -305.2850
   9   2.0000     -10.552382      -287.1449
  10   2.0000      -8.019259      -218.2151
  11   2.0000      -8.017481      -218.1668
  12   2.0000      -8.017472      -218.1665
  13   2.0000      -1.169467       -31.8228
  14   2.0000      -1.122784       -30.5525
  15   2.0000      -1.039933       -28.2980
  16   2.0000      -1.000417       -27.2227
  17   2.0000      -0.939587       -25.5675
  18   2.0000      -0.912096       -24.8194
  19   2.0000      -0.847012       -23.0484
  20   2.0000      -0.777148       -21.1473
  21   2.0000      -0.705480       -19.1971
  22   2.0000      -0.661531       -18.0012
  23   2.0000      -0.651104       -17.7174
  24   2.0000      -0.610606       -16.6154
  25   2.0000      -0.595448       -16.2030
  26   2.0000      -0.573215       -15.5980
  27   2.0000      -0.561254       -15.2725
  28   2.0000      -0.551681       -15.0120
  29   2.0000      -0.531779       -14.4704
  30   2.0000      -0.522524       -14.2186
  31   2.0000      -0.508861       -13.8468
  32   2.0000      -0.483786       -13.1645
  33   2.0000      -0.481978       -13.1153
  34   2.0000      -0.461661       -12.5624
  35   2.0000      -0.460763       -12.5380
  36   2.0000      -0.449816       -12.2401
  37   2.0000      -0.437925       -11.9165
  38   2.0000      -0.341775        -9.3002
  39   0.0000       0.027953         0.7606
  40   0.0000       0.032034         0.8717
  41   0.0000       0.035313         0.9609
  42   0.0000       0.036939         1.0052
  43   0.0000       0.049627         1.3504

MULLIKEN ATOMIC CHARGES
-----------------------
   0 C :    0.620018
   1 C :    1.440940
   2 C :   -0.838233
   3 C :   -0.644228
   4 C :   -0.691072
   5 C :   -0.396917
   6 C :   -1.182680
   7 C :   -1.281725
   8 H :    0.293834
   9 H :    0.221630
  10 H :    0.178879
  11 H :    0.321686
  12 H :    0.326045
  13 H :    0.181266
  14 H :    0.309245
  15 H :    0.257436
  16 H :    0.226813
  17 H :    0.287243
  18 H :    0.224475
  19 H :    0.262616
  20 Cl:   -0.453703
  21 H :    0.336432
Sum of atomic charges:    0.0000000

LOEWDIN ATOMIC CHARGES
----------------------
   0 C :   -0.196049
   1 C :   -0.345341
   2 C :    0.305717
   3 C :    0.309763
   4 C :    0.273782
   5 C :   -0.387958
   6 C :    0.598080
   7 C :    0.585397
   8 H :   -0.128041
   9 H :   -0.133026
  10 H :   -0.150044
  11 H :   -0.138527
  12 H :   -0.151292
  13 H :   -0.143675
  14 H :   -0.158903
  15 H :   -0.154753
  16 H :   -0.151407
  17 H :   -0.153345
  18 H :   -0.150264
  19 H :   -0.166749
  20 Cl:    0.920379
  21 H :   -0.283745

  Mayer bond orders larger than 0.100000
B(  0-C ,  1-C ) :   0.9167 B(  0-C ,  2-C ) :   0.1215 B(  0-C ,  4-C ) :   0.6955
B(  0-C ,  5-C ) :   1.0744 B(  0-C , 20-Cl) :   0.5555 B(  1-C ,  2-C ) :   0.5176
B(  1-C ,  5-C ) :   0.2956 B(  1-C ,  6-C ) :   0.3592 B(  1-C ,  7-C ) :   0.1855
B(  1-C , 15-H ) :  -0.1036 B(  1-C , 18-H ) :  -0.1017 B(  1-C , 19-H ) :  -0.1490
B(  2-C ,  3-C ) :   1.0894 B(  2-C ,  4-C ) :   0.1390 B(  2-C ,  8-H ) :   0.9663
B(  2-C ,  9-H ) :   1.0211 B(  3-C ,  4-C ) :   1.0979 B(  3-C , 10-H ) :   1.0489
B(  3-C , 11-H ) :   0.9237 B(  4-C ,  5-C ) :  -0.1997 B(  4-C , 12-H ) :   0.9311
B(  4-C , 13-H ) :   1.0702 B(  5-C , 21-H ) :   0.9437 B(  6-C ,  7-C ) :   0.1074
B(  6-C , 14-H ) :   0.9786 B(  6-C , 15-H ) :   1.0351 B(  6-C , 16-H ) :   1.0641
B(  7-C , 17-H ) :   1.0245 B(  7-C , 18-H ) :   1.0937 B(  7-C , 19-H ) :   1.0605

MP2 TOTAL ENERGY:     -771.701216285 Eh
FINAL SINGLE POINT ENERGY      -771.701216285260

DIPOLE MOMENT
-------------
                                X             Y             Z
Electronic contribution:     18.32067       0.69690      -0.32601
Nuclear contribution   :    -19.30387      -0.71043       0.30890
                        -----------------------------------------
Total Dipole Moment    :     -0.98320      -0.01352      -0.01711
                        -----------------------------------------
Magnitude (a.u.)       :      0.98344
Magnitude (Debye)      :      2.49971

Rotational constants in cm-1:     0.072198     0.030164     0.024937
Rotational constants in MHz :  2164.448396   904.303014   747.584214

                             ****ORCA TERMINATED NORMALLY****
TOTAL RUN TIME: 0 days 0 hours 7 minutes 21 seconds 604 msec
