                         Program Version 4.2.1 -  RELEASE  -
|  1> %pal
|  2>  nprocs 32
|  3> end
|  4> !RI-MP2 aug-cc-pVTZ aug-cc-pVTZ/C TightSCF
|  5> %maxcore 4500
|  6> *xyzfile 0 1  10_60R.xyz
|  7>
|  8>
|  9>                          ****END OF INPUT****

CARTESIAN COORDINATES (ANGSTROEM)
---------------------------------
  C      0.617010    1.558571    0.963941
  C     -0.639698    2.054220    0.225935
  C     -1.454502    0.926887   -0.372678
  C     -1.152686   -0.426735    0.199021
  C      0.335546   -0.797355   -0.009672
  C      1.240841    0.384531    0.247618
  C     -2.336978    1.065373   -1.348098
  F     -1.925919   -1.403571   -0.319750
  F      0.641206   -1.846903    0.800573
  C      2.473727    0.341662   -0.165339
  C      3.700828    0.297622   -0.579986
  F      0.469654   -1.247309   -1.285631
  F     -1.388635   -0.413681    1.550317
  H      3.969034    0.642037   -1.572503
  H      4.490174   -0.094474    0.051610
  H     -2.881869    0.216965   -1.739143
  H     -2.536262    2.037694   -1.782994
  H     -1.260789    2.625244    0.920521
  H     -0.350386    2.732575   -0.578729
  H      1.346844    2.361857    1.048916
  H      0.351960    1.252608    1.978278

 Total Charge           Charge          ....    0
 Multiplicity           Mult            ....    1
 Number of Electrons    NEL             ....   98
 Basis Dimension        Dim             ....  782

ORBITAL ENERGIES
----------------

  NO   OCC          E(Eh)            E(eV)
   0   2.0000     -26.321726      -716.2506
   1   2.0000     -26.318809      -716.1712
   2   2.0000     -26.315983      -716.0943
   3   2.0000     -26.313433      -716.0249
   4   2.0000     -11.431650      -311.0710
   5   2.0000     -11.429421      -311.0103
   6   2.0000     -11.275835      -306.8311
   7   2.0000     -11.265925      -306.5614
   8   2.0000     -11.264243      -306.5156
   9   2.0000     -11.255507      -306.2779
  10   2.0000     -11.255443      -306.2762
  11   2.0000     -11.254146      -306.2409
  12   2.0000     -11.248371      -306.0837
  13   2.0000      -1.683185       -45.8018
  14   2.0000      -1.659545       -45.1585
  15   2.0000      -1.612812       -43.8868
  16   2.0000      -1.601425       -43.5770
  17   2.0000      -1.168548       -31.7978
  18   2.0000      -1.110626       -30.2217
  19   2.0000      -1.043762       -28.4022
  20   2.0000      -1.038464       -28.2580
  21   2.0000      -0.970199       -26.4005
  22   2.0000      -0.901250       -24.5243
  23   2.0000      -0.874787       -23.8042
  24   2.0000      -0.823598       -22.4112
  25   2.0000      -0.802789       -21.8450
  26   2.0000      -0.792025       -21.5521
  27   2.0000      -0.765504       -20.8304
  28   2.0000      -0.749826       -20.4038
  29   2.0000      -0.717221       -19.5166
  30   2.0000      -0.692916       -18.8552
  31   2.0000      -0.689384       -18.7591
  32   2.0000      -0.680686       -18.5224
  33   2.0000      -0.665793       -18.1171
  34   2.0000      -0.662088       -18.0163
  35   2.0000      -0.651326       -17.7235
  36   2.0000      -0.634832       -17.2747
  37   2.0000      -0.631378       -17.1807
  38   2.0000      -0.625908       -17.0318
  39   2.0000      -0.621708       -16.9175
  40   2.0000      -0.604944       -16.4614
  41   2.0000      -0.587856       -15.9964
  42   2.0000      -0.553276       -15.0554
  43   2.0000      -0.534980       -14.5575
  44   2.0000      -0.513493       -13.9729
  45   2.0000      -0.497098       -13.5267
  46   2.0000      -0.399341       -10.8666
  47   2.0000      -0.390083       -10.6147
  48   2.0000      -0.385706       -10.4956
  49   0.0000       0.023900         0.6503
  50   0.0000       0.029468         0.8019
  51   0.0000       0.033729         0.9178
  52   0.0000       0.039960         1.0874
  53   0.0000       0.048344         1.3155

MULLIKEN ATOMIC CHARGES
-----------------------
   0 C :   -0.558708
   1 C :   -0.400096
   2 C :    0.518084
   3 C :    1.092724
   4 C :    0.859696
   5 C :    0.483231
   6 C :   -1.319568
   7 F :   -0.503159
   8 F :   -0.517934
   9 C :    0.751554
  10 C :   -1.530429
  11 F :   -0.550454
  12 F :   -0.566508
  13 H :    0.354263
  14 H :    0.293603
  15 H :    0.411936
  16 H :    0.315195
  17 H :    0.255430
  18 H :    0.152795
  19 H :    0.266906
  20 H :    0.191439
Sum of atomic charges:   -0.0000000

LOEWDIN ATOMIC CHARGES
----------------------
   0 C :    0.273442
   1 C :    0.294245
   2 C :   -0.127568
   3 C :   -1.094771
   4 C :   -1.096903
   5 C :   -0.145185
   6 C :    0.569940
   7 F :    0.547531
   8 F :    0.517630
   9 C :    0.149821
  10 C :    0.512197
  11 F :    0.526419
  12 F :    0.527470
  13 H :   -0.228710
  14 H :   -0.229054
  15 H :   -0.217506
  16 H :   -0.195591
  17 H :   -0.136489
  18 H :   -0.144713
  19 H :   -0.145402
  20 H :   -0.156803

  Mayer bond orders larger than 0.100000
B(  0-C ,  1-C ) :   1.0064 B(  0-C ,  2-C ) :   0.1079 B(  0-C ,  5-C ) :   0.7301
B(  0-C , 19-H ) :   0.9410 B(  0-C , 20-H ) :   1.0980 B(  1-C ,  2-C ) :   0.6379
B(  1-C ,  5-C ) :   0.1179 B(  1-C ,  6-C ) :  -0.1451 B(  1-C , 17-H ) :   0.9827
B(  1-C , 18-H ) :   1.0697 B(  2-C ,  3-C ) :   1.0140 B(  2-C ,  4-C ) :   0.1563
B(  2-C ,  5-C ) :  -0.1930 B(  2-C ,  6-C ) :   0.9107 B(  2-C ,  7-F ) :   0.2066
B(  2-C , 12-F ) :   0.1788 B(  3-C ,  4-C ) :   1.2613 B(  3-C ,  6-C ) :   0.1175
B(  3-C ,  7-F ) :   0.4139 B(  3-C ,  8-F ) :   0.1652 B(  3-C ,  9-C ) :  -0.1140
B(  3-C , 11-F ) :   0.1088 B(  3-C , 12-F ) :   0.3774 B(  4-C ,  5-C ) :   1.2964
B(  4-C ,  7-F ) :   0.1006 B(  4-C ,  8-F ) :   0.2709 B(  4-C ,  9-C ) :   0.1442
B(  4-C , 11-F ) :   0.5791 B(  4-C , 12-F ) :   0.1247 B(  5-C ,  8-F ) :   0.2398
B(  5-C ,  9-C ) :   0.8112 B(  5-C , 10-C ) :  -0.1298 B(  5-C , 11-F ) :   0.1246
B(  6-C , 15-H ) :   0.8305 B(  6-C , 16-H ) :   1.0345 B(  7-F , 12-F ) :  -0.1100
B(  9-C , 10-C ) :   1.0144 B(  9-C , 14-H ) :  -0.1033 B( 10-C , 13-H ) :   0.9808
B( 10-C , 14-H ) :   1.1109

MP2 TOTAL ENERGY:     -745.901345471 Eh
FINAL SINGLE POINT ENERGY      -745.901345470902

DIPOLE MOMENT
-------------
                                X             Y             Z
Electronic contribution:     -4.58548     -14.28589       2.01756
Nuclear contribution   :      5.08132      15.92388      -2.30865
                        -----------------------------------------
Total Dipole Moment    :      0.49584       1.63799      -0.29109
                        -----------------------------------------
Magnitude (a.u.)       :      1.73598
Magnitude (Debye)      :      4.41250

Rotational constants in cm-1:     0.039700     0.024252     0.020411
Rotational constants in MHz :  1190.172087   727.062471   611.894721

                             ****ORCA TERMINATED NORMALLY****
TOTAL RUN TIME: 0 days 0 hours 7 minutes 48 seconds 639 msec
