                         Program Version 4.2.1 -  RELEASE  -
|  1> %pal
|  2>  nprocs 32
|  3> end
|  4> !RI-MP2 aug-cc-pVTZ aug-cc-pVTZ/C TightSCF
|  5> %maxcore 4500
|  6> *xyzfile 0 2  04_80P1.xyz
|  7>
|  8>
|  9>                          ****END OF INPUT****

CARTESIAN COORDINATES (ANGSTROEM)
---------------------------------
  P     -0.000886   -0.046919   -0.471136
  O      0.033531   -0.338291   -1.924860
  N      1.166564   -0.997003    0.323744
  N     -1.524314   -0.298798    0.159390
  N      0.369497    1.485115    0.083625
  C      1.749232    1.947532   -0.032524
  H      1.961694    2.337892   -1.034691
  H      1.918312    2.746103    0.693788
  H      2.442030    1.137807    0.183380
  C     -0.594476    2.556146   -0.150947
  H     -0.448481    3.338629    0.597972
  H     -0.470544    3.000174   -1.145614
  H     -1.610027    2.176657   -0.066633
  C      1.757756   -2.129255   -0.383555
  H      1.538881   -2.041953   -1.444480
  H      2.841066   -2.123335   -0.238584
  H      1.357896   -3.075773   -0.007294
  C      1.413210   -0.903351    1.682369
  H      1.104776   -0.011703    2.203670
  H      2.165553   -1.556620    2.097827
  C     -1.825418   -0.117613    1.569698
  H     -2.873783    0.175429    1.677715
  H     -1.660534   -1.034983    2.146894
  H     -1.206651    0.671680    1.992008
  C     -2.410167   -1.230120   -0.525842
  H     -2.367845   -2.232656   -0.081407
  H     -3.439870   -0.868344   -0.456355
  H     -2.130478   -1.294115   -1.574791

 Total Charge           Charge          ....    0
 Multiplicity           Mult            ....    2
 Number of Electrons    NEL             ....   97
 Basis Dimension        Dim             ....  901

ORBITAL ENERGIES
----------------
                 SPIN UP ORBITALS
  NO   OCC          E(Eh)            E(eV)
   0   1.0000     -80.049206     -2178.2496
   1   1.0000     -20.480105      -557.2920
   2   1.0000     -15.571506      -423.7222
   3   1.0000     -15.563398      -423.5016
   4   1.0000     -15.557819      -423.3498
   5   1.0000     -11.257442      -306.3306
   6   1.0000     -11.255704      -306.2833
   7   1.0000     -11.254741      -306.2571
   8   1.0000     -11.251981      -306.1820
   9   1.0000     -11.248279      -306.0812
  10   1.0000     -11.247517      -306.0605
  11   1.0000      -7.570462      -206.0027
  12   1.0000      -5.468017      -148.7923
  13   1.0000      -5.468006      -148.7920
  14   1.0000      -5.467474      -148.7775
  15   1.0000      -1.311002       -35.6742
  16   1.0000      -1.234307       -33.5872
  17   1.0000      -1.221225       -33.2312
  18   1.0000      -1.208735       -32.8914
  19   1.0000      -0.967007       -26.3136
  20   1.0000      -0.966285       -26.2939
  21   1.0000      -0.957343       -26.0506
  22   1.0000      -0.932944       -25.3867
  23   1.0000      -0.862107       -23.4591
  24   1.0000      -0.856988       -23.3198
  25   1.0000      -0.733596       -19.9622
  26   1.0000      -0.685152       -18.6439
  27   1.0000      -0.680934       -18.5292
  28   1.0000      -0.651433       -17.7264
  29   1.0000      -0.636560       -17.3217
  30   1.0000      -0.624650       -16.9976
  31   1.0000      -0.620943       -16.8967
  32   1.0000      -0.607138       -16.5211
  33   1.0000      -0.599209       -16.3053
  34   1.0000      -0.586256       -15.9528
  35   1.0000      -0.554462       -15.0877
  36   1.0000      -0.551400       -15.0044
  37   1.0000      -0.545176       -14.8350
  38   1.0000      -0.529794       -14.4164
  39   1.0000      -0.527590       -14.3564
  40   1.0000      -0.523578       -14.2473
  41   1.0000      -0.521769       -14.1981
  42   1.0000      -0.516724       -14.0608
  43   1.0000      -0.478693       -13.0259
  44   1.0000      -0.453084       -12.3290
  45   1.0000      -0.439576       -11.9615
  46   1.0000      -0.383256       -10.4289
  47   1.0000      -0.379041       -10.3142
  48   1.0000      -0.288764        -7.8577
  49   0.0000       0.025616         0.6970
  50   0.0000       0.032216         0.8766
  51   0.0000       0.033855         0.9212
  52   0.0000       0.038039         1.0351
  53   0.0000       0.046577         1.2674

                 SPIN DOWN ORBITALS
  NO   OCC          E(Eh)            E(eV)
   0   1.0000     -80.049264     -2178.2512
   1   1.0000     -20.480028      -557.2899
   2   1.0000     -15.566829      -423.5950
   3   1.0000     -15.563414      -423.5020
   4   1.0000     -15.557594      -423.3437
   5   1.0000     -11.257415      -306.3298
   6   1.0000     -11.255695      -306.2830
   7   1.0000     -11.254826      -306.2594
   8   1.0000     -11.248867      -306.0972
   9   1.0000     -11.247531      -306.0609
  10   1.0000     -11.230467      -305.5965
  11   1.0000      -7.570531      -206.0046
  12   1.0000      -5.468247      -148.7986
  13   1.0000      -5.467916      -148.7896
  14   1.0000      -5.467500      -148.7782
  15   1.0000      -1.308401       -35.6034
  16   1.0000      -1.229348       -33.4523
  17   1.0000      -1.210165       -32.9303
  18   1.0000      -1.207016       -32.8446
  19   1.0000      -0.966697       -26.3052
  20   1.0000      -0.962066       -26.1791
  21   1.0000      -0.946919       -25.7670
  22   1.0000      -0.917790       -24.9743
  23   1.0000      -0.861665       -23.4471
  24   1.0000      -0.826115       -22.4797
  25   1.0000      -0.727901       -19.8072
  26   1.0000      -0.679982       -18.5032
  27   1.0000      -0.676082       -18.3971
  28   1.0000      -0.648706       -17.6522
  29   1.0000      -0.630776       -17.1643
  30   1.0000      -0.619946       -16.8696
  31   1.0000      -0.614959       -16.7339
  32   1.0000      -0.600711       -16.3462
  33   1.0000      -0.593252       -16.1432
  34   1.0000      -0.584795       -15.9131
  35   1.0000      -0.554074       -15.0771
  36   1.0000      -0.550674       -14.9846
  37   1.0000      -0.541753       -14.7419
  38   1.0000      -0.527992       -14.3674
  39   1.0000      -0.526611       -14.3298
  40   1.0000      -0.522348       -14.2138
  41   1.0000      -0.520026       -14.1506
  42   1.0000      -0.515826       -14.0363
  43   1.0000      -0.452966       -12.3258
  44   1.0000      -0.438738       -11.9387
  45   1.0000      -0.414513       -11.2795
  46   1.0000      -0.380556       -10.3555
  47   1.0000      -0.368979       -10.0404
  48   0.0000       0.025930         0.7056
  49   0.0000       0.032380         0.8811
  50   0.0000       0.033366         0.9079
  51   0.0000       0.038052         1.0354
  52   0.0000       0.046601         1.2681

MULLIKEN ATOMIC CHARGES AND SPIN POPULATIONS
--------------------------------------------
   0 P :    1.467972   -0.014837
   1 O :   -1.245783    0.004493
   2 N :    0.301298    0.108839
   3 N :    0.216111   -0.004561
   4 N :    0.384869    0.007849
   5 C :   -1.220223   -0.006555
   6 H :    0.310749    0.000366
   7 H :    0.281034   -0.000805
   8 H :    0.449722   -0.006411
   9 C :   -1.218742    0.000238
  10 H :    0.297782    0.000536
  11 H :    0.295610   -0.000040
  12 H :    0.444869   -0.000277
  13 C :   -1.090912   -0.030093
  14 H :    0.398140   -0.001510
  15 H :    0.310070    0.007177
  16 H :    0.301839    0.006690
  17 C :   -1.220993    1.142483
  18 H :    0.388297   -0.094984
  19 H :    0.404065   -0.120563
  20 C :   -1.148841    0.000678
  21 H :    0.277455    0.006142
  22 H :    0.282614   -0.011197
  23 H :    0.429912    0.007874
  24 C :   -1.101195   -0.002203
  25 H :    0.311929    0.000663
  26 H :    0.296338    0.000085
  27 H :    0.396014   -0.000078
Sum of atomic charges         :   -0.0000000

LOEWDIN ATOMIC CHARGES AND SPIN POPULATIONS
-------------------------------------------
   0 P :    0.112219    0.016843
   1 O :    0.097044    0.001664
   2 N :    0.088529    0.197912
   3 N :    0.128074    0.003320
   4 N :    0.131097    0.000607
   5 C :    0.423113    0.002255
   6 H :   -0.151654   -0.000011
   7 H :   -0.161585    0.000251
   8 H :   -0.197154    0.005037
   9 C :    0.424771    0.000177
  10 H :   -0.161348    0.000135
  11 H :   -0.151454   -0.000030
  12 H :   -0.193824   -0.000013
  13 C :    0.425434    0.013507
  14 H :   -0.217650   -0.000371
  15 H :   -0.166962    0.002757
  16 H :   -0.161993    0.003464
  17 C :    0.398167    0.520468
  18 H :   -0.240461    0.107903
  19 H :   -0.221188    0.113317
  20 C :    0.412543    0.004552
  21 H :   -0.160074    0.001023
  22 H :   -0.155771    0.004708
  23 H :   -0.194470    0.000528
  24 C :    0.424594   -0.000061
  25 H :   -0.157599    0.000032
  26 H :   -0.166077    0.000058
  27 H :   -0.206323   -0.000030

  Mayer bond orders larger than 0.100000
B(  0-P ,  1-O ) :   0.5651 B(  0-P ,  2-N ) :   0.8911 B(  0-P ,  3-N ) :   0.9109
B(  0-P ,  4-N ) :   0.9949 B(  0-P ,  5-C ) :  -0.1718 B(  0-P ,  9-C ) :  -0.1463
B(  0-P , 13-C ) :  -0.1079 B(  0-P , 24-C ) :  -0.1644 B(  2-N ,  3-N ) :   0.3441
B(  2-N ,  4-N ) :   0.1694 B(  2-N , 13-C ) :   0.9395 B(  2-N , 17-C ) :   0.9691
B(  3-N ,  4-N ) :   0.1538 B(  3-N ,  9-C ) :  -0.1045 B(  3-N , 20-C ) :   0.8837
B(  3-N , 23-H ) :   0.1013 B(  3-N , 24-C ) :   0.9257 B(  4-N ,  5-C ) :   1.0054
B(  4-N ,  9-C ) :   0.9917 B(  4-N , 23-H ) :  -0.1023 B(  5-C ,  6-H ) :   0.9671
B(  5-C ,  7-H ) :   0.9944 B(  5-C ,  8-H ) :   0.8278 B(  9-C , 10-H ) :   0.9713
B(  9-C , 11-H ) :   0.9746 B(  9-C , 12-H ) :   0.8390 B( 13-C , 14-H ) :   0.8643
B( 13-C , 15-H ) :   0.9570 B( 13-C , 16-H ) :   0.9535 B( 17-C , 18-H ) :   0.9211
B( 17-C , 19-H ) :   0.8596 B( 20-C , 21-H ) :   0.9845 B( 20-C , 22-H ) :   1.0093
B( 20-C , 23-H ) :   0.8482 B( 24-C , 25-H ) :   0.9420 B( 24-C , 26-H ) :   0.9657
B( 24-C , 27-H ) :   0.9015

MP2 TOTAL ENERGY:     -818.346548140 Eh
FINAL SINGLE POINT ENERGY      -818.346548140040

DIPOLE MOMENT
-------------
                                X             Y             Z
Electronic contribution:      0.82557      -1.08729      -4.78293
Nuclear contribution   :     -0.89613       1.41627       6.09822
                        -----------------------------------------
Total Dipole Moment    :     -0.07056       0.32898       1.31529
                        -----------------------------------------
Magnitude (a.u.)       :      1.35765
Magnitude (Debye)      :      3.45086

Rotational constants in cm-1:     0.034432     0.033647     0.025581
Rotational constants in MHz :  1032.258864  1008.708393   766.898391

                             ****ORCA TERMINATED NORMALLY****
TOTAL RUN TIME: 0 days 0 hours 23 minutes 29 seconds 667 msec
