                         Program Version 4.2.1 -  RELEASE  -
|  1> %pal
|  2>  nprocs 32
|  3> end
|  4> !RI-MP2 aug-cc-pVTZ aug-cc-pVTZ/C TightSCF
|  5> %maxcore 4500
|  6> *xyzfile 1 1  08_12TS.xyz
|  7>
|  8>
|  9>                          ****END OF INPUT****

CARTESIAN COORDINATES (ANGSTROEM)
---------------------------------
  S      3.258012   -1.901496   -0.247256
  C      3.296130   -2.328308    1.511134
  H      2.390930   -2.013626    2.028249
  H      3.391190   -3.411150    1.571964
  H      4.169948   -1.874280    1.976335
  C      3.380857   -0.086250   -0.235749
  C      1.016170   -2.420872   -0.918776
  H      0.775748   -2.665408    0.103026
  H      1.401154   -3.193165   -1.564722
  H      0.941149   -1.406351   -1.278486
  N     -0.918152   -2.765224   -1.427091
  C     -1.724530   -2.098564   -0.476851
  N     -1.974877   -2.740135    0.649856
  C     -2.703755   -2.115795    1.588836
  N     -3.212817   -0.894932    1.520027
  C     -2.931689   -0.275086    0.383579
  C     -2.171274   -0.802102   -0.667979
  N     -2.047647    0.118250   -1.686708
  C     -2.728411    1.151304   -1.256147
  N     -3.293738    0.978491   -0.026787
  H     -2.843749    2.078338   -1.797558
  C     -3.985841    1.981630    0.769915
  H     -4.478296    1.475097    1.596677
  H     -4.732926    2.485444    0.159263
  H     -3.265098    2.703271    1.153812
  H     -1.064171   -3.770237   -1.377981
  H     -1.058943   -2.415224   -2.371532
  C      2.411925    0.686230    0.644629
  H      3.260056    0.215214   -1.274947
  H      4.397459    0.159762    0.071433
  C      0.949646    0.713823    0.210306
  C      0.507175    2.078928    0.751822
  C      1.757460    2.952870    0.521589
  O      2.854778    2.044397    0.619360
  N      1.653769    3.625506   -0.740351
  H      1.875901    3.705257    1.300962
  O     -0.629879    2.595701    0.118243
  H      0.314105    1.986723    1.824023
  O      0.876382    0.662712   -1.201329
  H      0.374963   -0.103537    0.658749
  H     -0.045849    0.796130   -1.476606
  H     -0.292754    3.305699   -0.460199
  H      2.465981    0.323579    1.676839
  H      2.270570    4.423465   -0.812103
  H      1.819593    2.994015   -1.516807
  H     -2.894345   -2.678082    2.495050

 Total Charge           Charge          ....    1
 Multiplicity           Mult            ....    1
 Number of Electrons    NEL             ....  182
 Basis Dimension        Dim             .... 1591

ORBITAL ENERGIES
----------------

  NO   OCC          E(Eh)            E(eV)
   0   2.0000     -92.103152     -2506.2542
   1   2.0000     -20.680662      -562.7494
   2   2.0000     -20.668746      -562.4252
   3   2.0000     -20.666208      -562.3561
   4   2.0000     -15.751518      -428.6206
   5   2.0000     -15.740066      -428.3090
   6   2.0000     -15.683621      -426.7730
   7   2.0000     -15.681914      -426.7266
   8   2.0000     -15.679258      -426.6543
   9   2.0000     -15.655053      -425.9956
  10   2.0000     -11.465600      -311.9948
  11   2.0000     -11.459215      -311.8211
  12   2.0000     -11.439543      -311.2858
  13   2.0000     -11.434963      -311.1612
  14   2.0000     -11.427854      -310.9677
  15   2.0000     -11.418840      -310.7224
  16   2.0000     -11.409251      -310.4615
  17   2.0000     -11.403547      -310.3063
  18   2.0000     -11.393918      -310.0443
  19   2.0000     -11.383510      -309.7611
  20   2.0000     -11.381506      -309.7065
  21   2.0000     -11.379996      -309.6654
  22   2.0000     -11.374323      -309.5111
  23   2.0000      -9.103154      -247.7094
  24   2.0000      -6.784328      -184.6109
  25   2.0000      -6.783477      -184.5878
  26   2.0000      -6.782837      -184.5704
  27   2.0000      -1.519007       -41.3343
  28   2.0000      -1.493805       -40.6485
  29   2.0000      -1.483516       -40.3685
  30   2.0000      -1.472741       -40.0753
  31   2.0000      -1.437257       -39.1097
  32   2.0000      -1.385349       -37.6973
  33   2.0000      -1.323286       -36.0084
  34   2.0000      -1.293559       -35.1995
  35   2.0000      -1.290152       -35.1068
  36   2.0000      -1.219222       -33.1767
  37   2.0000      -1.165349       -31.7108
  38   2.0000      -1.155041       -31.4303
  39   2.0000      -1.123153       -30.5626
  40   2.0000      -1.108796       -30.1719
  41   2.0000      -1.088719       -29.6256
  42   2.0000      -1.045322       -28.4447
  43   2.0000      -1.018842       -27.7241
  44   2.0000      -1.004183       -27.3252
  45   2.0000      -0.958026       -26.0692
  46   2.0000      -0.929690       -25.2981
  47   2.0000      -0.927612       -25.2416
  48   2.0000      -0.903713       -24.5913
  49   2.0000      -0.887994       -24.1635
  50   2.0000      -0.863212       -23.4892
  51   2.0000      -0.846845       -23.0438
  52   2.0000      -0.825531       -22.4638
  53   2.0000      -0.818292       -22.2669
  54   2.0000      -0.808501       -22.0004
  55   2.0000      -0.792053       -21.5529
  56   2.0000      -0.783196       -21.3119
  57   2.0000      -0.780953       -21.2508
  58   2.0000      -0.775704       -21.1080
  59   2.0000      -0.772754       -21.0277
  60   2.0000      -0.757156       -20.6033
  61   2.0000      -0.750453       -20.4209
  62   2.0000      -0.747009       -20.3272
  63   2.0000      -0.733015       -19.9464
  64   2.0000      -0.726725       -19.7752
  65   2.0000      -0.718026       -19.5385
  66   2.0000      -0.713587       -19.4177
  67   2.0000      -0.711923       -19.3724
  68   2.0000      -0.702385       -19.1129
  69   2.0000      -0.697666       -18.9845
  70   2.0000      -0.688126       -18.7249
  71   2.0000      -0.683808       -18.6074
  72   2.0000      -0.672222       -18.2921
  73   2.0000      -0.669990       -18.2314
  74   2.0000      -0.654739       -17.8164
  75   2.0000      -0.639008       -17.3883
  76   2.0000      -0.629391       -17.1266
  77   2.0000      -0.618499       -16.8302
  78   2.0000      -0.611352       -16.6357
  79   2.0000      -0.592567       -16.1246
  80   2.0000      -0.586135       -15.9495
  81   2.0000      -0.578386       -15.7387
  82   2.0000      -0.574925       -15.6445
  83   2.0000      -0.562438       -15.3047
  84   2.0000      -0.547139       -14.8884
  85   2.0000      -0.543952       -14.8017
  86   2.0000      -0.532069       -14.4783
  87   2.0000      -0.513693       -13.9783
  88   2.0000      -0.492721       -13.4076
  89   2.0000      -0.481625       -13.1057
  90   2.0000      -0.441257       -12.0072
  91   0.0000      -0.064512        -1.7555
  92   0.0000      -0.053929        -1.4675
  93   0.0000      -0.047952        -1.3048
  94   0.0000      -0.044316        -1.2059
  95   0.0000      -0.038626        -1.0511

MULLIKEN ATOMIC CHARGES
-----------------------
   0 S :   -0.409646
   1 C :   -0.714667
   2 H :    0.323816
   3 H :    0.273693
   4 H :    0.240515
   5 C :   -0.289097
   6 C :   -0.977834
   7 H :    0.435177
   8 H :    0.543762
   9 H :    0.592666
  10 N :   -0.160962
  11 C :    0.382918
  12 N :   -1.056998
  13 C :   -0.870117
  14 N :   -0.701603
  15 C :    0.382474
  16 C :    2.344587
  17 N :   -1.308064
  18 C :   -0.331973
  19 N :    0.227352
  20 H :    0.695837
  21 C :   -1.152034
  22 H :    0.432292
  23 H :    0.315532
  24 H :    0.427164
  25 H :    0.015396
  26 H :   -0.044814
  27 C :    0.140003
  28 H :    0.185823
  29 H :    0.329825
  30 C :    0.962071
  31 C :   -0.237529
  32 C :    0.583963
  33 O :   -1.113200
  34 N :   -0.710860
  35 H :    0.409165
  36 O :   -0.610614
  37 H :    0.378559
  38 O :   -0.845972
  39 H :    0.616054
  40 H :    0.124268
  41 H :    0.056861
  42 H :    0.282266
  43 H :    0.038308
  44 H :    0.153708
  45 H :    0.641930
Sum of atomic charges:    1.0000000

LOEWDIN ATOMIC CHARGES
----------------------
   0 S :    1.370701
   1 C :    0.323796
   2 H :   -0.230228
   3 H :   -0.227925
   4 H :   -0.214931
   5 C :    0.041455
   6 C :    0.689397
   7 H :   -0.217909
   8 H :   -0.192747
   9 H :   -0.310312
  10 N :    0.832019
  11 C :   -0.395620
  12 N :    0.412553
  13 C :   -0.128446
  14 N :    0.436554
  15 C :   -0.420512
  16 C :   -0.303169
  17 N :    0.420929
  18 C :   -0.031468
  19 N :    0.267852
  20 H :   -0.129899
  21 C :    0.563297
  22 H :   -0.159682
  23 H :   -0.149668
  24 H :   -0.153801
  25 H :   -0.233124
  26 H :   -0.227580
  27 C :   -0.290182
  28 H :   -0.219779
  29 H :   -0.199846
  30 C :   -0.231658
  31 C :   -0.213820
  32 C :   -0.308726
  33 O :    0.629138
  34 N :    0.876279
  35 H :   -0.125525
  36 O :    0.860281
  37 H :   -0.122228
  38 O :    0.889744
  39 H :   -0.141967
  40 H :   -0.565006
  41 H :   -0.551901
  42 H :   -0.147790
  43 H :   -0.282016
  44 H :   -0.298680
  45 H :   -0.187849

  Mayer bond orders larger than 0.100000
B(  0-S ,  1-C ) :   0.9126 B(  0-S ,  5-C ) :   0.7326 B(  0-S ,  6-C ) :   0.3116
B(  0-S , 27-C ) :   0.1821 B(  1-C ,  2-H ) :   0.8853 B(  1-C ,  3-H ) :   0.9593
B(  1-C ,  4-H ) :   0.9924 B(  5-C , 27-C ) :   0.7499 B(  5-C , 28-H ) :   1.1008
B(  5-C , 29-H ) :   0.8799 B(  5-C , 33-O ) :   0.1578 B(  6-C ,  7-H ) :   0.7943
B(  6-C ,  8-H ) :   0.7948 B(  6-C ,  9-H ) :   0.5521 B(  6-C , 10-N ) :   0.1984
B(  7-H ,  9-H ) :   0.1281 B( 10-N , 11-C ) :   0.6697 B( 10-N , 25-H ) :   1.1572
B( 10-N , 26-H ) :   1.2369 B( 11-C , 12-N ) :  -0.5668 B( 11-C , 13-C ) :  -0.3864
B( 11-C , 15-C ) :   1.4761 B( 11-C , 16-C ) :  -0.8852 B( 11-C , 18-C ) :   0.1163
B( 11-C , 19-N ) :  -0.1939 B( 11-C , 25-H ) :  -0.1093 B( 11-C , 30-C ) :   0.1127
B( 12-N , 13-C ) :   1.6672 B( 12-N , 14-N ) :   0.1573 B( 12-N , 16-C ) :  -0.5256
B( 12-N , 25-H ) :  -0.1247 B( 13-C , 14-N ) :   1.4492 B( 13-C , 15-C ) :  -0.3906
B( 13-C , 16-C ) :  -0.4976 B( 13-C , 45-H ) :   0.4886 B( 14-N , 15-C ) :   0.3090
B( 14-N , 16-C ) :  -0.2498 B( 14-N , 19-N ) :  -0.1602 B( 15-C , 16-C ) :   1.1515
B( 15-C , 17-N ) :   0.2535 B( 15-C , 18-C ) :  -0.3894 B( 15-C , 19-N ) :   0.4587
B( 15-C , 21-C ) :  -0.1758 B( 15-C , 30-C ) :   0.1303 B( 16-C , 17-N ) :  -0.5965
B( 16-C , 19-N ) :   0.1835 B( 16-C , 30-C ) :  -0.1189 B( 17-N , 18-C ) :   1.5027
B( 17-N , 20-H ) :  -0.1300 B( 17-N , 38-O ) :  -0.1079 B( 17-N , 40-H ) :   0.1442
B( 18-C , 19-N ) :   1.2144 B( 18-C , 20-H ) :   0.4641 B( 19-N , 21-C ) :   1.0877
B( 21-C , 22-H ) :   0.8026 B( 21-C , 23-H ) :   0.9576 B( 21-C , 24-H ) :   0.8547
B( 27-C , 30-C ) :   1.0120 B( 27-C , 32-C ) :   0.1439 B( 27-C , 33-O ) :   0.1323
B( 27-C , 38-O ) :   0.1474 B( 27-C , 39-H ) :  -0.2667 B( 27-C , 42-H ) :   1.0450
B( 28-H , 33-O ) :   0.1008 B( 30-C , 31-C ) :   1.0042 B( 30-C , 34-N ) :  -0.1954
B( 30-C , 38-O ) :  -0.1860 B( 30-C , 39-H ) :   0.5962 B( 30-C , 44-H ) :  -0.1180
B( 31-C , 32-C ) :   1.0836 B( 31-C , 33-O ) :   0.1884 B( 31-C , 34-N ) :   0.3841
B( 31-C , 36-O ) :   0.5958 B( 31-C , 37-H ) :   0.8677 B( 31-C , 38-O ) :   0.1519
B( 32-C , 33-O ) :   0.7723 B( 32-C , 34-N ) :   0.2953 B( 32-C , 35-H ) :   0.9426
B( 32-C , 36-O ) :   0.1535 B( 33-O , 42-H ) :  -0.1065 B( 34-N , 36-O ) :  -0.1270
B( 34-N , 41-H ) :   0.1479 B( 34-N , 43-H ) :   1.0733 B( 34-N , 44-H ) :   0.9147
B( 36-O , 41-H ) :   1.1645 B( 38-O , 40-H ) :   0.9980

MP2 TOTAL ENERGY:    -1458.981407265 Eh
FINAL SINGLE POINT ENERGY     -1458.981407264605

DIPOLE MOMENT
-------------
                                X             Y             Z
Electronic contribution:     -8.57991      -4.40716      -3.11921
Nuclear contribution   :      9.07039       3.25583       2.67775
                        -----------------------------------------
Total Dipole Moment    :      0.49047      -1.15133      -0.44145
                        -----------------------------------------
Magnitude (a.u.)       :      1.32703
Magnitude (Debye)      :      3.37305

Rotational constants in cm-1:     0.010143     0.007050     0.004930
Rotational constants in MHz :   304.087952   211.353670   147.801855

                             ****ORCA TERMINATED NORMALLY****
TOTAL RUN TIME: 0 days 1 hours 36 minutes 30 seconds 13 msec
