                         Program Version 4.2.1 -  RELEASE  -
|  1> %pal
|  2>  nprocs 32
|  3> end
|  4> !RI-MP2 aug-cc-pVTZ aug-cc-pVTZ/C TightSCF
|  5> %maxcore 4500
|  6> *xyzfile 0 2  04_23TS.xyz
|  7>
|  8>
|  9>                          ****END OF INPUT****

CARTESIAN COORDINATES (ANGSTROEM)
---------------------------------
  C     -3.004320    0.142878   -0.901164
  S     -2.451784   -1.204219    0.179547
  C     -0.637181   -1.092869   -0.007046
  C     -0.023472    0.139194    0.599017
  C     -0.223678    0.379372    2.069364
  C      0.046968    1.310895   -0.306924
  O      0.186615    2.479789    0.344314
  O      0.032753    1.246748   -1.513604
  S      2.817922   -0.587394    0.448067
  C      2.743281   -0.951640   -1.330480
  H     -2.805901    1.122272   -0.467422
  H     -2.532724    0.073699   -1.879983
  H     -4.081468    0.023595   -1.011736
  H     -0.068187   -0.547131    2.624409
  H     -1.245183    0.714457    2.266534
  H      0.460162    1.139817    2.442747
  H     -0.260199   -1.979800    0.504067
  H     -0.385717   -1.166937   -1.063602
  H      2.269007   -0.135349   -1.873181
  H      3.772519   -1.047497   -1.676791
  H      2.219414   -1.885621   -1.526330
  H      1.340963   -0.193517    0.563358
  H      0.294566    3.168535   -0.326168

 Total Charge           Charge          ....    0
 Multiplicity           Mult            ....    2
 Number of Electrons    NEL             ....   97
 Basis Dimension        Dim             ....  767

ORBITAL ENERGIES
----------------
                 SPIN UP ORBITALS
  NO   OCC          E(Eh)            E(eV)
   0   1.0000     -91.955660     -2502.2407
   1   1.0000     -91.954257     -2502.2025
   2   1.0000     -20.624064      -561.2093
   3   1.0000     -20.563535      -559.5622
   4   1.0000     -11.396840      -310.1238
   5   1.0000     -11.292057      -307.2725
   6   1.0000     -11.270858      -306.6956
   7   1.0000     -11.254326      -306.2458
   8   1.0000     -11.253473      -306.2226
   9   1.0000     -11.235406      -305.7309
  10   1.0000      -8.956079      -243.7073
  11   1.0000      -8.954368      -243.6607
  12   1.0000      -6.645969      -180.8460
  13   1.0000      -6.636321      -180.5835
  14   1.0000      -6.634758      -180.5409
  15   1.0000      -6.634567      -180.5358
  16   1.0000      -6.633553      -180.5081
  17   1.0000      -6.633426      -180.5047
  18   1.0000      -1.482351       -40.3368
  19   1.0000      -1.379363       -37.5344
  20   1.0000      -1.141004       -31.0483
  21   1.0000      -1.049881       -28.5687
  22   1.0000      -1.035487       -28.1770
  23   1.0000      -0.961526       -26.1645
  24   1.0000      -0.924829       -25.1659
  25   1.0000      -0.866003       -23.5651
  26   1.0000      -0.838893       -22.8274
  27   1.0000      -0.773826       -21.0569
  28   1.0000      -0.721390       -19.6300
  29   1.0000      -0.702302       -19.1106
  30   1.0000      -0.686011       -18.6673
  31   1.0000      -0.623889       -16.9769
  32   1.0000      -0.619488       -16.8571
  33   1.0000      -0.599683       -16.3182
  34   1.0000      -0.593066       -16.1381
  35   1.0000      -0.590161       -16.0591
  36   1.0000      -0.587909       -15.9978
  37   1.0000      -0.582391       -15.8477
  38   1.0000      -0.563893       -15.3443
  39   1.0000      -0.536102       -14.5881
  40   1.0000      -0.530171       -14.4267
  41   1.0000      -0.511134       -13.9087
  42   1.0000      -0.500792       -13.6272
  43   1.0000      -0.478933       -13.0324
  44   1.0000      -0.467326       -12.7166
  45   1.0000      -0.443324       -12.0634
  46   1.0000      -0.360093        -9.7986
  47   1.0000      -0.354624        -9.6498
  48   1.0000      -0.340671        -9.2701
  49   0.0000       0.025917         0.7052
  50   0.0000       0.032884         0.8948
  51   0.0000       0.034584         0.9411
  52   0.0000       0.036034         0.9805
  53   0.0000       0.047397         1.2897

                 SPIN DOWN ORBITALS
  NO   OCC          E(Eh)            E(eV)
   0   1.0000     -91.953639     -2502.1857
   1   1.0000     -91.950121     -2502.0900
   2   1.0000     -20.624382      -561.2180
   3   1.0000     -20.557844      -559.4074
   4   1.0000     -11.399858      -310.2059
   5   1.0000     -11.274706      -306.8003
   6   1.0000     -11.273030      -306.7547
   7   1.0000     -11.254378      -306.2472
   8   1.0000     -11.253922      -306.2348
   9   1.0000     -11.237079      -305.7765
  10   1.0000      -8.953686      -243.6422
  11   1.0000      -8.950082      -243.5441
  12   1.0000      -6.634846      -180.5433
  13   1.0000      -6.633501      -180.5067
  14   1.0000      -6.632925      -180.4911
  15   1.0000      -6.631886      -180.4628
  16   1.0000      -6.630181      -180.4164
  17   1.0000      -6.621289      -180.1744
  18   1.0000      -1.480023       -40.2735
  19   1.0000      -1.370559       -37.2948
  20   1.0000      -1.114703       -30.3326
  21   1.0000      -1.040052       -28.3013
  22   1.0000      -1.016293       -27.6547
  23   1.0000      -0.961931       -26.1755
  24   1.0000      -0.918020       -24.9806
  25   1.0000      -0.843164       -22.9437
  26   1.0000      -0.826312       -22.4851
  27   1.0000      -0.764942       -20.8151
  28   1.0000      -0.717749       -19.5309
  29   1.0000      -0.685748       -18.6601
  30   1.0000      -0.660661       -17.9775
  31   1.0000      -0.622122       -16.9288
  32   1.0000      -0.605413       -16.4741
  33   1.0000      -0.592101       -16.1119
  34   1.0000      -0.588720       -16.0199
  35   1.0000      -0.587957       -15.9991
  36   1.0000      -0.586839       -15.9687
  37   1.0000      -0.573778       -15.6133
  38   1.0000      -0.561530       -15.2800
  39   1.0000      -0.527418       -14.3518
  40   1.0000      -0.517370       -14.0784
  41   1.0000      -0.494627       -13.4595
  42   1.0000      -0.482838       -13.1387
  43   1.0000      -0.468127       -12.7384
  44   1.0000      -0.452695       -12.3185
  45   1.0000      -0.427150       -11.6233
  46   1.0000      -0.350212        -9.5298
  47   1.0000      -0.346243        -9.4218
  48   0.0000       0.018939         0.5154
  49   0.0000       0.025997         0.7074
  50   0.0000       0.032948         0.8966
  51   0.0000       0.034739         0.9453
  52   0.0000       0.036127         0.9831

MULLIKEN ATOMIC CHARGES AND SPIN POPULATIONS
--------------------------------------------
   0 C :   -0.702014   -0.003832
   1 S :   -0.524408    0.066854
   2 C :   -0.091450   -0.095379
   3 C :    0.874630    0.841323
   4 C :   -1.234167   -0.053479
   5 C :    0.907304   -0.140617
   6 O :   -0.589429    0.003465
   7 O :   -1.019283    0.127980
   8 S :   -0.488155    0.627582
   9 C :   -0.798358   -0.046940
  10 H :    0.216642   -0.000045
  11 H :    0.273393    0.000399
  12 H :    0.292664   -0.000356
  13 H :    0.256510    0.009793
  14 H :    0.319709    0.035419
  15 H :    0.290496    0.014539
  16 H :    0.243401    0.008132
  17 H :    0.302253    0.012559
  18 H :    0.339673    0.007120
  19 H :    0.279673    0.010344
  20 H :    0.256483   -0.000249
  21 H :    0.415403   -0.423004
  22 H :    0.179029   -0.001610
Sum of atomic charges         :    0.0000000

LOEWDIN ATOMIC CHARGES AND SPIN POPULATIONS
-------------------------------------------
   0 C :    0.224895    0.003456
   1 S :    1.208438    0.035163
   2 C :   -0.084671    0.029362
   3 C :   -0.249514    0.301260
   4 C :    0.553009    0.043620
   5 C :   -0.832732    0.027565
   6 O :    0.857212   -0.008656
   7 O :    0.487207    0.090482
   8 S :    1.259226    0.332429
   9 C :    0.182098    0.052220
  10 H :   -0.245161   -0.000482
  11 H :   -0.241167   -0.000208
  12 H :   -0.253217    0.000950
  13 H :   -0.156862    0.000881
  14 H :   -0.166762    0.014553
  15 H :   -0.173379    0.001054
  16 H :   -0.218777    0.000666
  17 H :   -0.231953   -0.002141
  18 H :   -0.264577    0.001582
  19 H :   -0.260528    0.012545
  20 H :   -0.248638    0.000116
  21 H :   -0.686667    0.064119
  22 H :   -0.457481   -0.000536

  Mayer bond orders larger than 0.100000
B(  0-C ,  1-S ) :   0.8872 B(  0-C , 10-H ) :   0.9555 B(  0-C , 11-H ) :   0.9282
B(  0-C , 12-H ) :   0.9440 B(  1-S ,  2-C ) :   0.6285 B(  1-S ,  3-C ) :   0.3977
B(  1-S , 16-H ) :  -0.1299 B(  2-C ,  3-C ) :   0.9233 B(  2-C , 16-H ) :   1.0227
B(  2-C , 17-H ) :   0.9541 B(  3-C ,  4-C ) :   0.4228 B(  3-C ,  5-C ) :   0.8556
B(  3-C ,  7-O ) :  -0.2528 B(  3-C , 21-H ) :   0.1372 B(  4-C , 13-H ) :   1.0812
B(  4-C , 14-H ) :   1.0112 B(  4-C , 15-H ) :   1.0196 B(  5-C ,  6-O ) :   0.5852
B(  5-C ,  7-O ) :   1.1869 B(  5-C , 21-H ) :   0.1241 B(  6-O , 22-H ) :   1.0060
B(  8-S ,  9-C ) :   0.9970 B(  8-S , 21-H ) :   0.3340 B(  9-C , 18-H ) :   0.8759
B(  9-C , 19-H ) :   0.9599 B(  9-C , 20-H ) :   0.9262

MP2 TOTAL ENERGY:    -1181.588201087 Eh
FINAL SINGLE POINT ENERGY     -1181.588201086914

DIPOLE MOMENT
-------------
                                X             Y             Z
Electronic contribution:      0.81799       1.10733       1.28282
Nuclear contribution   :     -1.03562      -0.60237      -1.46903
                        -----------------------------------------
Total Dipole Moment    :     -0.21763       0.50496      -0.18621
                        -----------------------------------------
Magnitude (a.u.)       :      0.58054
Magnitude (Debye)      :      1.47560

Rotational constants in cm-1:     0.040178     0.019180     0.017474
Rotational constants in MHz :  1204.491748   574.990174   523.847708

                             ****ORCA TERMINATED NORMALLY****
TOTAL RUN TIME: 0 days 0 hours 18 minutes 3 seconds 487 msec
