                         Program Version 4.2.1 -  RELEASE  -
|  1> %pal
|  2>  nprocs 32
|  3> end
|  4> !RI-MP2 aug-cc-pVTZ aug-cc-pVTZ/C TightSCF
|  5> %maxcore 4500
|  6> *xyzfile 1 1  05_27P1.xyz
|  7>
|  8>
|  9>                          ****END OF INPUT****

CARTESIAN COORDINATES (ANGSTROEM)
---------------------------------
  C     -3.315366   -0.016699   -0.026967
  C     -2.643927    1.202375    0.012149
  C     -1.265766    1.221976    0.027744
  C     -0.549958    0.010704    0.009334
  C     -1.240374   -1.216840   -0.028133
  C     -2.617020   -1.222923   -0.047469
  H     -4.398576   -0.027753   -0.041976
  H     -3.201148    2.129553    0.027950
  H     -0.743681    2.169531    0.057208
  H     -0.684432   -2.144869   -0.041359
  H     -3.155629   -2.160795   -0.077715
  C      0.869773    0.029288    0.038497
  O      1.520525   -1.073540    0.027700
  C      1.779559    1.210623    0.109122
  C      2.978496   -0.851693    0.117244
  C      3.143281    0.611724   -0.258826
  H      1.752840    1.585926    1.139136
  H      1.457431    2.022785   -0.539813
  H      3.248044   -1.083885    1.146951
  H      3.434108   -1.568762   -0.558938
  H      3.965475    1.079267    0.278493
  H      3.329187    0.716116   -1.327712

 Total Charge           Charge          ....    1
 Multiplicity           Mult            ....    1
 Number of Electrons    NEL             ....   78
 Basis Dimension        Dim             ....  759

ORBITAL ENERGIES
----------------

  NO   OCC          E(Eh)            E(eV)
   0   2.0000     -20.808621      -566.2314
   1   2.0000     -11.550292      -314.2994
   2   2.0000     -11.461286      -311.8775
   3   2.0000     -11.419726      -310.7465
   4   2.0000     -11.413574      -310.5791
   5   2.0000     -11.408655      -310.4453
   6   2.0000     -11.407439      -310.4122
   7   2.0000     -11.404522      -310.3328
   8   2.0000     -11.399429      -310.1942
   9   2.0000     -11.382026      -309.7207
  10   2.0000     -11.381021      -309.6933
  11   2.0000      -1.654896       -45.0320
  12   2.0000      -1.328712       -36.1561
  13   2.0000      -1.260899       -34.3108
  14   2.0000      -1.236144       -33.6372
  15   2.0000      -1.181009       -32.1369
  16   2.0000      -1.153787       -31.3961
  17   2.0000      -1.031280       -28.0626
  18   2.0000      -1.025837       -27.9144
  19   2.0000      -0.978648       -26.6304
  20   2.0000      -0.946337       -25.7511
  21   2.0000      -0.903881       -24.5959
  22   2.0000      -0.874031       -23.7836
  23   2.0000      -0.840048       -22.8589
  24   2.0000      -0.821381       -22.3509
  25   2.0000      -0.785557       -21.3761
  26   2.0000      -0.769981       -20.9522
  27   2.0000      -0.761671       -20.7261
  28   2.0000      -0.751437       -20.4476
  29   2.0000      -0.746489       -20.3130
  30   2.0000      -0.710268       -19.3274
  31   2.0000      -0.704845       -19.1798
  32   2.0000      -0.674830       -18.3631
  33   2.0000      -0.663974       -18.0677
  34   2.0000      -0.662074       -18.0160
  35   2.0000      -0.648771       -17.6539
  36   2.0000      -0.644137       -17.5278
  37   2.0000      -0.508875       -13.8472
  38   2.0000      -0.495559       -13.4848
  39   0.0000      -0.125302        -3.4096
  40   0.0000      -0.075209        -2.0465
  41   0.0000      -0.059120        -1.6087
  42   0.0000      -0.058657        -1.5961
  43   0.0000      -0.056221        -1.5298

MULLIKEN ATOMIC CHARGES
-----------------------
   0 C :    0.061026
   1 C :   -0.936411
   2 C :   -0.724110
   3 C :    2.364895
   4 C :   -0.850508
   5 C :   -0.883131
   6 H :    0.384025
   7 H :    0.613178
   8 H :   -0.162566
   9 H :   -0.039005
  10 H :    0.618720
  11 C :    0.786459
  12 O :   -0.725371
  13 C :   -0.617691
  14 C :   -0.445056
  15 C :   -0.477087
  16 H :    0.356747
  17 H :    0.359707
  18 H :    0.338425
  19 H :    0.374982
  20 H :    0.347617
  21 H :    0.255153
Sum of atomic charges:    1.0000000

LOEWDIN ATOMIC CHARGES
----------------------
   0 C :    0.263457
   1 C :    0.255687
   2 C :    0.246889
   3 C :   -0.083520
   4 C :    0.254437
   5 C :    0.255601
   6 H :   -0.148568
   7 H :   -0.165311
   8 H :   -0.165004
   9 H :   -0.161872
  10 H :   -0.164731
  11 C :   -0.259587
  12 O :    0.681424
  13 C :    0.363185
  14 C :    0.217701
  15 C :    0.353812
  16 H :   -0.105756
  17 H :   -0.128037
  18 H :   -0.127311
  19 H :   -0.128871
  20 H :   -0.124361
  21 H :   -0.129263

  Mayer bond orders larger than 0.100000
B(  0-C ,  1-C ) :   1.0280 B(  0-C ,  2-C ) :  -0.2869 B(  0-C ,  4-C ) :  -0.2380
B(  0-C ,  5-C ) :   1.0223 B(  0-C ,  6-H ) :   0.9175 B(  0-C ,  7-H ) :   0.1064
B(  0-C ,  9-H ) :  -0.1191 B(  0-C , 11-C ) :   0.2326 B(  1-C ,  2-C ) :   1.3500
B(  1-C ,  5-C ) :   0.2926 B(  1-C ,  6-H ) :  -0.1592 B(  1-C ,  7-H ) :   0.4866
B(  2-C ,  3-C ) :  -0.1718 B(  2-C ,  4-C ) :  -0.7690 B(  2-C ,  6-H ) :   0.1044
B(  2-C ,  8-H ) :   2.1825 B(  2-C ,  9-H ) :   0.2096 B(  2-C , 11-C ) :   0.4873
B(  3-C ,  6-H ) :   0.1068 B(  3-C ,  7-H ) :  -0.1039 B(  3-C ,  8-H ) :  -0.4070
B(  3-C ,  9-H ) :  -0.3146 B(  3-C , 10-H ) :  -0.1124 B(  3-C , 11-C ) :   0.6772
B(  3-C , 12-O ) :  -0.2189 B(  3-C , 13-C ) :  -0.1834 B(  4-C ,  5-C ) :   1.3919
B(  4-C ,  6-H ) :   0.2109 B(  4-C ,  8-H ) :   0.2567 B(  4-C ,  9-H ) :   1.8843
B(  4-C , 10-H ) :  -0.1413 B(  4-C , 11-C ) :   0.4651 B(  4-C , 12-O ) :   0.1159
B(  5-C ,  6-H ) :  -0.1368 B(  5-C , 10-H ) :   0.4623 B(  5-C , 11-C ) :   0.1152
B(  6-H , 11-C ) :  -0.3082 B(  7-H , 11-C ) :   0.3432 B(  8-H ,  9-H ) :   0.2392
B(  8-H , 11-C ) :  -0.5061 B(  9-H , 11-C ) :  -0.5306 B( 10-H , 11-C ) :   0.4466
B( 11-C , 12-O ) :   1.0166 B( 11-C , 13-C ) :   0.8112 B( 11-C , 14-C ) :  -0.1344
B( 12-O , 14-C ) :   0.7489 B( 13-C , 15-C ) :   1.1202 B( 13-C , 16-H ) :   0.8985
B( 13-C , 17-H ) :   0.9117 B( 14-C , 15-C ) :   0.9454 B( 14-C , 18-H ) :   0.9182
B( 14-C , 19-H ) :   0.8797 B( 15-C , 20-H ) :   0.8824 B( 15-C , 21-H ) :   0.9737

MP2 TOTAL ENERGY:     -461.723704097 Eh
FINAL SINGLE POINT ENERGY      -461.723704097489

DIPOLE MOMENT
-------------
                                X             Y             Z
Electronic contribution:     -4.00717      -2.24991       0.02521
Nuclear contribution   :      5.06758       2.72167       0.06316
                        -----------------------------------------
Total Dipole Moment    :      1.06041       0.47176       0.08837
                        -----------------------------------------
Magnitude (a.u.)       :      1.16397
Magnitude (Debye)      :      2.95857

Rotational constants in cm-1:     0.107217     0.022453     0.018827
Rotational constants in MHz :  3214.284722   673.137953   564.425320

                             ****ORCA TERMINATED NORMALLY****
TOTAL RUN TIME: 0 days 0 hours 8 minutes 12 seconds 595 msec
