                         Program Version 4.2.1 -  RELEASE  -
|  1> %pal
|  2>  nprocs 32
|  3> end
|  4> !RI-MP2 aug-cc-pVTZ aug-cc-pVTZ/C TightSCF
|  5> %maxcore 4500
|  6> *xyzfile 0 1  10_83TS.xyz
|  7>
|  8>
|  9>                          ****END OF INPUT****

CARTESIAN COORDINATES (ANGSTROEM)
---------------------------------
  C      0.698976    1.272079   -0.733774
  C     -0.053456    0.271668    0.116594
  C      0.556141   -0.880199    0.573567
  C      2.064517   -1.001649    0.436012
  C      2.681410    0.056458    1.346620
  C      2.764071    1.206181    0.686280
  C      2.222129    1.032668   -0.720577
  H      0.331582    1.216566   -1.765624
  H      0.465696    2.282594   -0.386443
  H      2.701212    1.676136   -1.459089
  C      2.475331   -0.464698   -0.942833
  H      3.080308    2.155780    1.098728
  H      2.910572   -0.107122    2.391421
  C     -1.465416    0.396444    0.233107
  H      0.074126   -1.444451    1.363195
  H      3.534278   -0.653027   -1.124180
  H      1.890007   -0.884815   -1.762052
  H      2.397830   -2.018683    0.643633
  C     -2.257502   -0.872863   -1.260428
  C     -2.108496   -0.257110    1.344896
  C     -2.076840    1.641189   -0.153688
  N     -2.611434   -0.804915    2.219391
  N     -2.558876    2.621543   -0.506752
  H     -3.227217   -1.060116   -0.811731
  H     -2.274766   -0.196653   -2.109850
  C     -1.314449   -1.862787   -1.246584
  C     -0.227229   -2.311029   -0.875916
  H      0.553432   -3.040718   -0.886134

 Total Charge           Charge          ....    0
 Multiplicity           Mult            ....    1
 Number of Electrons    NEL             ....  110
 Basis Dimension        Dim             .... 1012

ORBITAL ENERGIES
----------------

  NO   OCC          E(Eh)            E(eV)
   0   2.0000     -15.584451      -424.0745
   1   2.0000     -15.580781      -423.9746
   2   2.0000     -11.336217      -308.4741
   3   2.0000     -11.302235      -307.5495
   4   2.0000     -11.291164      -307.2482
   5   2.0000     -11.288658      -307.1800
   6   2.0000     -11.279260      -306.9243
   7   2.0000     -11.274844      -306.8041
   8   2.0000     -11.274443      -306.7932
   9   2.0000     -11.261261      -306.4345
  10   2.0000     -11.256615      -306.3081
  11   2.0000     -11.254910      -306.2617
  12   2.0000     -11.253254      -306.2166
  13   2.0000     -11.244511      -305.9787
  14   2.0000     -11.239944      -305.8544
  15   2.0000     -11.239803      -305.8506
  16   2.0000      -1.251036       -34.0424
  17   2.0000      -1.232803       -33.5463
  18   2.0000      -1.204315       -32.7711
  19   2.0000      -1.145136       -31.1607
  20   2.0000      -1.092854       -29.7381
  21   2.0000      -1.047131       -28.4939
  22   2.0000      -1.034763       -28.1573
  23   2.0000      -0.984110       -26.7790
  24   2.0000      -0.962176       -26.1821
  25   2.0000      -0.898533       -24.4503
  26   2.0000      -0.847151       -23.0522
  27   2.0000      -0.788303       -21.4508
  28   2.0000      -0.761396       -20.7186
  29   2.0000      -0.742083       -20.1931
  30   2.0000      -0.736908       -20.0523
  31   2.0000      -0.729892       -19.8614
  32   2.0000      -0.671606       -18.2753
  33   2.0000      -0.665906       -18.1202
  34   2.0000      -0.646326       -17.5874
  35   2.0000      -0.634970       -17.2784
  36   2.0000      -0.612739       -16.6735
  37   2.0000      -0.585484       -15.9318
  38   2.0000      -0.581362       -15.8197
  39   2.0000      -0.577857       -15.7243
  40   2.0000      -0.571110       -15.5407
  41   2.0000      -0.561259       -15.2726
  42   2.0000      -0.552864       -15.0442
  43   2.0000      -0.530019       -14.4225
  44   2.0000      -0.505115       -13.7449
  45   2.0000      -0.493706       -13.4344
  46   2.0000      -0.492321       -13.3967
  47   2.0000      -0.491130       -13.3643
  48   2.0000      -0.481745       -13.1089
  49   2.0000      -0.474141       -12.9020
  50   2.0000      -0.468899       -12.7594
  51   2.0000      -0.412793       -11.2327
  52   2.0000      -0.377204       -10.2642
  53   2.0000      -0.363506        -9.8915
  54   2.0000      -0.331837        -9.0297
  55   0.0000       0.018548         0.5047
  56   0.0000       0.026337         0.7167
  57   0.0000       0.029339         0.7984
  58   0.0000       0.034739         0.9453
  59   0.0000       0.039702         1.0803

MULLIKEN ATOMIC CHARGES
-----------------------
   0 C :   -0.801848
   1 C :    0.408364
   2 C :   -0.941946
   3 C :    0.024976
   4 C :   -0.864947
   5 C :   -0.762788
   6 C :   -0.208656
   7 H :    0.161304
   8 H :    0.261049
   9 H :    0.444351
  10 C :   -0.751808
  11 H :    0.529566
  12 H :    0.452708
  13 C :    0.191764
  14 H :    0.243459
  15 H :    0.357587
  16 H :    0.199943
  17 H :    0.419138
  18 C :   -0.187745
  19 C :    1.414546
  20 C :    1.286610
  21 N :   -1.136861
  22 N :   -1.137136
  23 H :    0.327887
  24 H :    0.373422
  25 C :   -0.127918
  26 C :   -0.663091
  27 H :    0.488070
Sum of atomic charges:    0.0000000

LOEWDIN ATOMIC CHARGES
----------------------
   0 C :    0.318157
   1 C :   -0.120133
   2 C :    0.163596
   3 C :   -0.010643
   4 C :    0.272754
   5 C :    0.265260
   6 C :    0.012422
   7 H :   -0.122801
   8 H :   -0.140536
   9 H :   -0.118939
  10 C :    0.310242
  11 H :   -0.159232
  12 H :   -0.158834
  13 C :   -0.293899
  14 H :   -0.167669
  15 H :   -0.125902
  16 H :   -0.143964
  17 H :   -0.126382
  18 C :    0.402752
  19 C :   -0.272520
  20 C :   -0.261642
  21 N :    0.324363
  22 N :    0.315351
  23 H :   -0.184878
  24 H :   -0.178217
  25 C :    0.039990
  26 C :    0.380714
  27 H :   -0.219413

  Mayer bond orders larger than 0.100000
B(  0-C ,  1-C ) :   0.5361 B(  0-C ,  5-C ) :   0.1138 B(  0-C ,  6-C ) :   1.0641
B(  0-C ,  7-H ) :   1.0761 B(  0-C ,  8-H ) :   0.9426 B(  0-C , 13-C ) :  -0.1442
B(  1-C ,  2-C ) :   1.1965 B(  1-C ,  3-C ) :   0.1714 B(  1-C ,  4-C ) :  -0.1787
B(  1-C , 10-C ) :  -0.3133 B(  1-C , 13-C ) :   0.7346 B(  1-C , 19-C ) :   0.9715
B(  1-C , 20-C ) :   0.3697 B(  1-C , 21-N ) :   0.1398 B(  2-C ,  3-C ) :   0.9223
B(  2-C ,  4-C ) :   0.3070 B(  2-C , 10-C ) :   0.1574 B(  2-C , 14-H ) :   0.8582
B(  2-C , 18-C ) :   0.1391 B(  2-C , 19-C ) :   0.1009 B(  2-C , 20-C ) :  -0.1778
B(  2-C , 26-C ) :   0.6321 B(  3-C ,  4-C ) :   0.9139 B(  3-C , 10-C ) :   1.0296
B(  3-C , 17-H ) :   0.8243 B(  4-C ,  5-C ) :   1.5508 B(  4-C , 12-H ) :   0.8351
B(  4-C , 17-H ) :  -0.2070 B(  5-C ,  6-C ) :   0.9872 B(  5-C ,  9-H ) :  -0.1896
B(  5-C , 11-H ) :   0.6775 B(  6-C ,  9-H ) :   0.8320 B(  6-C , 10-C ) :   1.0420
B( 10-C , 15-H ) :   0.8622 B( 10-C , 16-H ) :   1.0499 B( 13-C , 14-H ) :  -0.1460
B( 13-C , 18-C ) :   0.3324 B( 13-C , 19-C ) :   0.2569 B( 13-C , 20-C ) :   0.9989
B( 13-C , 21-N ) :   0.7568 B( 13-C , 22-N ) :   0.7797 B( 13-C , 25-C ) :   0.2505
B( 13-C , 26-C ) :   0.1947 B( 14-H , 19-C ) :   0.1137 B( 18-C , 23-H ) :   0.9759
B( 18-C , 24-H ) :   0.8860 B( 18-C , 25-C ) :   0.9457 B( 18-C , 26-C ) :  -0.1999
B( 19-C , 20-C ) :  -0.2419 B( 19-C , 21-N ) :   0.8366 B( 20-C , 22-N ) :   0.9621
B( 25-C , 26-C ) :   1.9214 B( 25-C , 27-H ) :  -0.1518 B( 26-C , 27-H ) :   0.9258

MP2 TOTAL ENERGY:     -648.727007439 Eh
FINAL SINGLE POINT ENERGY      -648.727007438740

DIPOLE MOMENT
-------------
                                X             Y             Z
Electronic contribution:    -10.31015       1.28950       3.83778
Nuclear contribution   :     12.30687      -2.04724      -4.75946
                        -----------------------------------------
Total Dipole Moment    :      1.99672      -0.75773      -0.92168
                        -----------------------------------------
Magnitude (a.u.)       :      2.32606
Magnitude (Debye)      :      5.91237

Rotational constants in cm-1:     0.028750     0.015901     0.014072
Rotational constants in MHz :   861.889185   476.696512   421.881522

                             ****ORCA TERMINATED NORMALLY****
TOTAL RUN TIME: 0 days 0 hours 28 minutes 59 seconds 843 msec
