                         Program Version 4.2.1 -  RELEASE  -
|  1> %pal
|  2>  nprocs 32
|  3> end
|  4> !RI-MP2 aug-cc-pVTZ aug-cc-pVTZ/C TightSCF
|  5> %maxcore 4500
|  6> *xyzfile 0 1  05_15R1.xyz
|  7>
|  8>
|  9>                          ****END OF INPUT****

CARTESIAN COORDINATES (ANGSTROEM)
---------------------------------
  C      1.463432    0.525370   -0.856605
  C      0.042245    0.249800   -0.423109
  C     -0.806808    1.284660   -0.051836
  C     -0.439586   -1.057061   -0.409811
  C     -2.121122    1.025125    0.318022
  H     -0.437142    2.304597   -0.047639
  C     -1.747115   -1.320428   -0.033379
  H      0.225874   -1.866672   -0.686046
  C     -2.593377   -0.278493    0.328832
  H     -2.772548    1.841921    0.605080
  H     -2.110634   -2.341164   -0.024295
  H     -3.615786   -0.484812    0.621605
  O      2.408944   -0.347541   -0.276781
  C      2.577440   -0.148261    1.109256
  H      1.652455   -0.342846    1.662826
  H      3.346322   -0.844214    1.440913
  H      2.906166    0.877510    1.321283
  H      1.721879    1.569607   -0.633013
  H      1.561211    0.382126   -1.934678

 Total Charge           Charge          ....    0
 Multiplicity           Mult            ....    1
 Number of Electrons    NEL             ....   66
 Basis Dimension        Dim             ....  644

ORBITAL ENERGIES
----------------

  NO   OCC          E(Eh)            E(eV)
   0   2.0000     -20.557841      -559.4073
   1   2.0000     -11.280514      -306.9584
   2   2.0000     -11.266849      -306.5866
   3   2.0000     -11.237810      -305.7964
   4   2.0000     -11.235840      -305.7428
   5   2.0000     -11.235065      -305.7217
   6   2.0000     -11.233851      -305.6886
   7   2.0000     -11.233038      -305.6665
   8   2.0000     -11.230303      -305.5921
   9   2.0000      -1.377680       -37.4886
  10   2.0000      -1.158244       -31.5174
  11   2.0000      -1.043752       -28.4019
  12   2.0000      -1.017325       -27.6828
  13   2.0000      -0.958994       -26.0955
  14   2.0000      -0.882681       -24.0190
  15   2.0000      -0.829997       -22.5854
  16   2.0000      -0.797213       -21.6933
  17   2.0000      -0.704738       -19.1769
  18   2.0000      -0.665002       -18.0956
  19   2.0000      -0.659215       -17.9381
  20   2.0000      -0.647081       -17.6080
  21   2.0000      -0.618989       -16.8435
  22   2.0000      -0.610129       -16.6024
  23   2.0000      -0.586919       -15.9709
  24   2.0000      -0.561437       -15.2775
  25   2.0000      -0.538418       -14.6511
  26   2.0000      -0.509897       -13.8750
  27   2.0000      -0.497987       -13.5509
  28   2.0000      -0.494053       -13.4439
  29   2.0000      -0.469909       -12.7869
  30   2.0000      -0.426155       -11.5963
  31   2.0000      -0.339644        -9.2422
  32   2.0000      -0.333088        -9.0638
  33   0.0000       0.027904         0.7593
  34   0.0000       0.033074         0.9000
  35   0.0000       0.035303         0.9606
  36   0.0000       0.041052         1.1171
  37   0.0000       0.046858         1.2751

MULLIKEN ATOMIC CHARGES
-----------------------
   0 C :   -0.091458
   1 C :    1.466022
   2 C :   -1.039127
   3 C :   -0.796770
   4 C :   -0.566060
   5 H :   -0.048521
   6 C :   -0.734273
   7 H :    0.226129
   8 C :   -0.094345
   9 H :    0.577905
  10 H :    0.476269
  11 H :    0.396064
  12 O :   -0.656429
  13 C :   -0.865017
  14 H :    0.389993
  15 H :    0.339520
  16 H :    0.312263
  17 H :    0.283355
  18 H :    0.424481
Sum of atomic charges:   -0.0000000

LOEWDIN ATOMIC CHARGES
----------------------
   0 C :    0.011386
   1 C :   -0.133668
   2 C :    0.209046
   3 C :    0.209145
   4 C :    0.196112
   5 H :   -0.177452
   6 C :    0.198598
   7 H :   -0.170159
   8 C :    0.191606
   9 H :   -0.182875
  10 H :   -0.182182
  11 H :   -0.184737
  12 O :    0.550609
  13 C :    0.318354
  14 H :   -0.179084
  15 H :   -0.183195
  16 H :   -0.173668
  17 H :   -0.164871
  18 H :   -0.152965

  Mayer bond orders larger than 0.100000
B(  0-C ,  1-C ) :   0.4906 B(  0-C ,  2-C ) :   0.1331 B(  0-C ,  3-C ) :   0.1582
B(  0-C , 12-O ) :   0.8258 B(  0-C , 17-H ) :   1.0269 B(  0-C , 18-H ) :   0.8784
B(  1-C ,  2-C ) :   0.2203 B(  1-C ,  3-C ) :   0.6236 B(  1-C ,  4-C ) :   0.1946
B(  1-C ,  5-H ) :  -0.2992 B(  1-C ,  6-C ) :   0.1416 B(  1-C ,  7-H ) :  -0.2841
B(  2-C ,  3-C ) :  -0.1550 B(  2-C ,  4-C ) :   1.2083 B(  2-C ,  5-H ) :   1.8354
B(  2-C ,  6-C ) :   0.1523 B(  2-C ,  7-H ) :   0.3251 B(  2-C ,  8-C ) :  -0.2806
B(  2-C ,  9-H ) :  -0.1723 B(  2-C , 10-H ) :  -0.1106 B(  2-C , 11-H ) :   0.2160
B(  3-C ,  5-H ) :   0.1165 B(  3-C ,  6-C ) :   1.3358 B(  3-C ,  7-H ) :   1.2547
B(  3-C ,  8-C ) :  -0.1174 B(  4-C ,  5-H ) :  -0.1220 B(  4-C ,  6-C ) :   0.2004
B(  4-C ,  8-C ) :   1.0628 B(  4-C ,  9-H ) :   0.6193 B(  4-C , 11-H ) :  -0.1863
B(  6-C ,  8-C ) :   1.0902 B(  6-C , 10-H ) :   0.7681 B(  6-C , 11-H ) :  -0.1742
B(  8-C , 11-H ) :   0.9098 B( 12-O , 13-C ) :   0.9649 B( 13-C , 14-H ) :   0.8269
B( 13-C , 15-H ) :   0.9580 B( 13-C , 16-H ) :   0.9035

MP2 TOTAL ENERGY:     -385.305325484 Eh
FINAL SINGLE POINT ENERGY      -385.305325484288

DIPOLE MOMENT
-------------
                                X             Y             Z
Electronic contribution:     -2.80591      -0.78716      -2.05994
Nuclear contribution   :      2.55255       1.10652       2.35561
                        -----------------------------------------
Total Dipole Moment    :     -0.25337       0.31935       0.29567
                        -----------------------------------------
Magnitude (a.u.)       :      0.50359
Magnitude (Debye)      :      1.28003

Rotational constants in cm-1:     0.120596     0.035327     0.031812
Rotational constants in MHz :  3615.373315  1059.091492   953.688990

                             ****ORCA TERMINATED NORMALLY****
TOTAL RUN TIME: 0 days 0 hours 4 minutes 6 seconds 250 msec
