                         Program Version 4.2.1 -  RELEASE  -
|  1> %pal
|  2>  nprocs 32
|  3> end
|  4> !RI-MP2 aug-cc-pVTZ aug-cc-pVTZ/C TightSCF
|  5> %maxcore 4500
|  6> *xyzfile 0 1  10_7TS.xyz
|  7>
|  8>
|  9>                          ****END OF INPUT****

CARTESIAN COORDINATES (ANGSTROEM)
---------------------------------
  C      0.001753   -0.861968   -0.132802
  C      0.298305    0.325410   -0.119632
  C     -0.988508   -1.943627   -0.097650
  H     -1.159148   -2.301405   -1.118641
  H     -0.608721   -2.799462    0.464969
  C     -0.012109    1.756377   -0.097710
  H      0.625032    2.304909   -0.795357
  H      0.193130    2.161131    0.899697
  C     -2.309464   -1.455237    0.510579
  H     -3.025887   -2.280435    0.451667
  H     -2.156976   -1.256620    1.576240
  C     -2.929500   -0.212800   -0.150767
  H     -2.766665   -0.259328   -1.233260
  H     -4.011206   -0.290484   -0.014557
  C     -1.488308    1.983516   -0.454824
  H     -1.695753    3.051431   -0.336986
  H     -1.632054    1.756868   -1.515656
  C     -2.505634    1.180992    0.375046
  H     -3.411596    1.789206    0.436753
  H     -2.143887    1.089131    1.405108
  N      1.941535   -1.904705   -0.210116
  N      2.596135   -0.958343   -0.175634
  N      2.525281    0.285886   -0.247214
  C      3.472478    1.083872    0.517407
  H      3.149049    2.119455    0.427742
  H      3.486972    0.808583    1.576114
  H      4.482971    1.007951    0.109032

 Total Charge           Charge          ....    0
 Multiplicity           Mult            ....    1
 Number of Electrons    NEL             ....   90
 Basis Dimension        Dim             ....  897

ORBITAL ENERGIES
----------------

  NO   OCC          E(Eh)            E(eV)
   0   2.0000     -15.720994      -427.7900
   1   2.0000     -15.652475      -425.9255
   2   2.0000     -15.601901      -424.5493
   3   2.0000     -11.267021      -306.5912
   4   2.0000     -11.237902      -305.7989
   5   2.0000     -11.232640      -305.6557
   6   2.0000     -11.222552      -305.3812
   7   2.0000     -11.221273      -305.3464
   8   2.0000     -11.217134      -305.2337
   9   2.0000     -11.216231      -305.2092
  10   2.0000     -11.214811      -305.1705
  11   2.0000     -11.204168      -304.8809
  12   2.0000      -1.470560       -40.0160
  13   2.0000      -1.243457       -33.8362
  14   2.0000      -1.106559       -30.1110
  15   2.0000      -1.054670       -28.6990
  16   2.0000      -1.032624       -28.0991
  17   2.0000      -0.981257       -26.7014
  18   2.0000      -0.932782       -25.3823
  19   2.0000      -0.912469       -24.8295
  20   2.0000      -0.810207       -22.0468
  21   2.0000      -0.779244       -21.2043
  22   2.0000      -0.743458       -20.2305
  23   2.0000      -0.691800       -18.8248
  24   2.0000      -0.672682       -18.3046
  25   2.0000      -0.669422       -18.2159
  26   2.0000      -0.644671       -17.5424
  27   2.0000      -0.635052       -17.2807
  28   2.0000      -0.619296       -16.8519
  29   2.0000      -0.595289       -16.1986
  30   2.0000      -0.583515       -15.8783
  31   2.0000      -0.579650       -15.7731
  32   2.0000      -0.568279       -15.4637
  33   2.0000      -0.563659       -15.3380
  34   2.0000      -0.537360       -14.6223
  35   2.0000      -0.525202       -14.2915
  36   2.0000      -0.511658       -13.9229
  37   2.0000      -0.486869       -13.2484
  38   2.0000      -0.459844       -12.5130
  39   2.0000      -0.448579       -12.2064
  40   2.0000      -0.448402       -12.2016
  41   2.0000      -0.418863       -11.3978
  42   2.0000      -0.360896        -9.8205
  43   2.0000      -0.354203        -9.6383
  44   2.0000      -0.328576        -8.9410
  45   0.0000       0.027202         0.7402
  46   0.0000       0.032080         0.8729
  47   0.0000       0.033992         0.9250
  48   0.0000       0.037800         1.0286
  49   0.0000       0.044159         1.2016

MULLIKEN ATOMIC CHARGES
-----------------------
   0 C :   -0.289829
   1 C :    0.651039
   2 C :   -0.493217
   3 H :    0.229643
   4 H :    0.207991
   5 C :   -0.441237
   6 H :    0.266352
   7 H :    0.225410
   8 C :   -0.457950
   9 H :    0.257937
  10 H :    0.204501
  11 C :   -0.518475
  12 H :    0.199935
  13 H :    0.242447
  14 C :   -0.442716
  15 H :    0.276877
  16 H :    0.215260
  17 C :   -0.505317
  18 H :    0.231326
  19 H :    0.209122
  20 N :   -0.826146
  21 N :    0.405348
  22 N :   -0.091697
  23 C :   -0.832872
  24 H :    0.403500
  25 H :    0.342309
  26 H :    0.330458
Sum of atomic charges:    0.0000000

LOEWDIN ATOMIC CHARGES
----------------------
   0 C :   -0.020509
   1 C :    0.009876
   2 C :    0.221676
   3 H :   -0.149936
   4 H :   -0.164702
   5 C :    0.228527
   6 H :   -0.158866
   7 H :   -0.150316
   8 C :    0.286897
   9 H :   -0.147057
  10 H :   -0.146341
  11 C :    0.310567
  12 H :   -0.148513
  13 H :   -0.154720
  14 C :    0.292227
  15 H :   -0.145721
  16 H :   -0.145924
  17 C :    0.311067
  18 H :   -0.154804
  19 H :   -0.148497
  20 N :    0.332365
  21 N :   -0.206986
  22 N :    0.195671
  23 C :    0.407922
  24 H :   -0.191630
  25 H :   -0.177884
  26 H :   -0.184388

  Mayer bond orders larger than 0.100000
B(  0-C ,  1-C ) :   2.3019 B(  0-C ,  2-C ) :   0.8563 B(  0-C ,  5-C ) :   0.1936
B(  0-C , 20-N ) :   0.2397 B(  1-C ,  2-C ) :   0.1014 B(  1-C ,  5-C ) :   0.6679
B(  1-C , 14-C ) :   0.1102 B(  1-C , 21-N ) :   0.1024 B(  1-C , 22-N ) :   0.1286
B(  2-C ,  3-H ) :   1.0185 B(  2-C ,  4-H ) :   1.0450 B(  2-C ,  8-C ) :   0.9234
B(  5-C ,  6-H ) :   0.9969 B(  5-C ,  7-H ) :   0.9996 B(  5-C , 14-C ) :   0.9569
B(  8-C ,  9-H ) :   0.9699 B(  8-C , 10-H ) :   1.0424 B(  8-C , 11-C ) :   0.8906
B( 11-C , 12-H ) :   1.0464 B( 11-C , 13-H ) :   0.9714 B( 11-C , 17-C ) :   0.8805
B( 14-C , 15-H ) :   0.9363 B( 14-C , 16-H ) :   1.0545 B( 14-C , 17-C ) :   0.8767
B( 17-C , 18-H ) :   0.9784 B( 17-C , 19-H ) :   1.0477 B( 20-N , 21-N ) :   1.5132
B( 20-N , 22-N ) :   0.3795 B( 21-N , 22-N ) :   1.0486 B( 22-N , 23-C ) :   0.7917
B( 23-C , 24-H ) :   0.8273 B( 23-C , 25-H ) :   0.8974 B( 23-C , 26-H ) :   0.9196

MP2 TOTAL ENERGY:     -515.056118993 Eh
FINAL SINGLE POINT ENERGY      -515.056118992718

DIPOLE MOMENT
-------------
                                X             Y             Z
Electronic contribution:     10.85514      -6.34122      -2.00435
Nuclear contribution   :    -10.87695       7.04359       2.38252
                        -----------------------------------------
Total Dipole Moment    :     -0.02181       0.70237       0.37818
                        -----------------------------------------
Magnitude (a.u.)       :      0.79801
Magnitude (Debye)      :      2.02837

Rotational constants in cm-1:     0.049300     0.021195     0.015583
Rotational constants in MHz :  1477.984003   635.409141   467.152657

                             ****ORCA TERMINATED NORMALLY****
TOTAL RUN TIME: 0 days 0 hours 17 minutes 32 seconds 716 msec
