                         Program Version 4.2.1 -  RELEASE  -
|  1> %pal
|  2>  nprocs 32
|  3> end
|  4> !RI-MP2 aug-cc-pVTZ aug-cc-pVTZ/C TightSCF
|  5> %maxcore 4500
|  6> *xyzfile 1 1  05_37P1.xyz
|  7>
|  8>
|  9>                          ****END OF INPUT****

CARTESIAN COORDINATES (ANGSTROEM)
---------------------------------
  C      2.375570    1.210930   -0.159060
  C      3.756400    1.200310   -0.157600
  C      4.442600    0.000550   -0.000310
  C      3.758800   -1.200550    0.157090
  C      2.377980   -1.213880    0.158760
  C      1.692670   -0.002170   -0.000120
  H      1.828110    2.136660   -0.280430
  H      4.301200    2.127190   -0.279050
  H      5.525550    0.001620   -0.000390
  H      4.305450   -2.126340    0.278470
  H      1.832430   -2.140700    0.280220
  C      0.283390   -0.003350   -0.000100
  N     -0.865280   -0.003740   -0.000100
  Si    -2.728630   -0.000000   -0.000120
  C     -3.146890   -1.016810   -1.487300
  H     -2.765420   -2.036150   -1.403680
  H     -4.233640   -1.081900   -1.589430
  H     -2.757390   -0.573510   -2.405530
  C     -3.144390   -0.776490    1.626180
  H     -2.753870   -0.197360    2.464920
  H     -4.230980   -0.825350    1.738510
  H     -2.762810   -1.796590    1.699490
  C     -3.122620    1.802030   -0.139120
  H     -2.732770    2.233880   -1.062720
  H     -4.207780    1.936060   -0.148410
  H     -2.730820    2.370710    0.706210

 Total Charge           Charge          ....    1
 Multiplicity           Mult            ....    1
 Number of Electrons    NEL             ....   94
 Basis Dimension        Dim             ....  878

ORBITAL ENERGIES
----------------

  NO   OCC          E(Eh)            E(eV)
   0   2.0000     -68.938491     -1875.9117
   1   2.0000     -15.784807      -429.5264
   2   2.0000     -11.519340      -313.4572
   3   2.0000     -11.428497      -310.9852
   4   2.0000     -11.410179      -310.4868
   5   2.0000     -11.410122      -310.4852
   6   2.0000     -11.395060      -310.0753
   7   2.0000     -11.381628      -309.7098
   8   2.0000     -11.381562      -309.7080
   9   2.0000     -11.335232      -308.4474
  10   2.0000     -11.334459      -308.4263
  11   2.0000     -11.334357      -308.4235
  12   2.0000      -6.283656      -170.9870
  13   2.0000      -4.391069      -119.4871
  14   2.0000      -4.388748      -119.4239
  15   2.0000      -4.388716      -119.4230
  16   2.0000      -1.456472       -39.6326
  17   2.0000      -1.326034       -36.0832
  18   2.0000      -1.208345       -32.8807
  19   2.0000      -1.180578       -32.1252
  20   2.0000      -1.115479       -30.3537
  21   2.0000      -1.064696       -28.9718
  22   2.0000      -1.064110       -28.9559
  23   2.0000      -1.039820       -28.2949
  24   2.0000      -0.990437       -26.9512
  25   2.0000      -0.944334       -25.6966
  26   2.0000      -0.894858       -24.3503
  27   2.0000      -0.829541       -22.5729
  28   2.0000      -0.800279       -21.7767
  29   2.0000      -0.760121       -20.6839
  30   2.0000      -0.750031       -20.4094
  31   2.0000      -0.749505       -20.3951
  32   2.0000      -0.729140       -19.8409
  33   2.0000      -0.717944       -19.5362
  34   2.0000      -0.699243       -19.0274
  35   2.0000      -0.694623       -18.9017
  36   2.0000      -0.676923       -18.4200
  37   2.0000      -0.676831       -18.4175
  38   2.0000      -0.672208       -18.2917
  39   2.0000      -0.667860       -18.1734
  40   2.0000      -0.666065       -18.1245
  41   2.0000      -0.653080       -17.7712
  42   2.0000      -0.650129       -17.6909
  43   2.0000      -0.580437       -15.7945
  44   2.0000      -0.579499       -15.7690
  45   2.0000      -0.501966       -13.6592
  46   2.0000      -0.494308       -13.4508
  47   0.0000      -0.090775        -2.4701
  48   0.0000      -0.070949        -1.9306
  49   0.0000      -0.056356        -1.5335
  50   0.0000      -0.051696        -1.4067
  51   0.0000      -0.049107        -1.3363

MULLIKEN ATOMIC CHARGES
-----------------------
   0 C :   -0.987810
   1 C :   -0.775356
   2 C :    0.155075
   3 C :   -0.733459
   4 C :   -1.004314
   5 C :    2.482630
   6 H :   -0.351785
   7 H :    0.771465
   8 H :    0.269826
   9 H :    0.765145
  10 H :   -0.346248
  11 C :    0.566951
  12 N :   -0.406237
  13 Si:    1.539083
  14 C :   -1.195352
  15 H :    0.296576
  16 H :    0.291831
  17 H :    0.291611
  18 C :   -1.196639
  19 H :    0.291462
  20 H :    0.292647
  21 H :    0.297113
  22 C :   -1.181504
  23 H :    0.295214
  24 H :    0.279978
  25 H :    0.292097
Sum of atomic charges:    1.0000000

LOEWDIN ATOMIC CHARGES
----------------------
   0 C :    0.234119
   1 C :    0.246452
   2 C :    0.254654
   3 C :    0.246502
   4 C :    0.234141
   5 C :   -0.143524
   6 H :   -0.154578
   7 H :   -0.164088
   8 H :   -0.152913
   9 H :   -0.164084
  10 H :   -0.154741
  11 C :    0.019455
  12 N :    0.384386
  13 Si:    0.486794
  14 C :    0.597265
  15 H :   -0.219836
  16 H :   -0.215566
  17 H :   -0.219364
  18 C :    0.597233
  19 H :   -0.219323
  20 H :   -0.215533
  21 H :   -0.219891
  22 C :    0.597109
  23 H :   -0.219723
  24 H :   -0.215291
  25 H :   -0.219653

  Mayer bond orders larger than 0.100000
B(  0-C ,  1-C ) :   1.3669 B(  0-C ,  2-C ) :  -0.4482 B(  0-C ,  4-C ) :  -0.5500
B(  0-C ,  6-H ) :   2.5962 B(  0-C ,  7-H ) :  -0.1745 B(  0-C ,  8-H ) :   0.2455
B(  0-C ,  9-H ) :  -0.1630 B(  0-C , 10-H ) :   0.4290 B(  0-C , 11-C ) :   0.3698
B(  0-C , 12-N ) :  -0.1846 B(  1-C ,  2-C ) :   0.9874 B(  1-C ,  3-C ) :   0.4072
B(  1-C ,  4-C ) :   0.1225 B(  1-C ,  5-C ) :   0.2955 B(  1-C ,  7-H ) :   0.2271
B(  1-C ,  8-H ) :  -0.1804 B(  1-C ,  9-H ) :  -0.1120 B(  2-C ,  3-C ) :   0.9877
B(  2-C ,  4-C ) :  -0.4281 B(  2-C ,  5-C ) :   0.1522 B(  2-C ,  6-H ) :  -0.1348
B(  2-C ,  7-H ) :   0.1919 B(  2-C ,  8-H ) :   1.0523 B(  2-C ,  9-H ) :   0.1812
B(  2-C , 10-H ) :  -0.1334 B(  2-C , 11-C ) :   0.1205 B(  3-C ,  4-C ) :   1.3229
B(  3-C ,  5-C ) :   0.2938 B(  3-C ,  7-H ) :  -0.1010 B(  3-C ,  8-H ) :  -0.1951
B(  3-C ,  9-H ) :   0.2554 B(  3-C , 10-H ) :  -0.1035 B(  3-C , 11-C ) :   0.1093
B(  4-C ,  5-C ) :  -0.1933 B(  4-C ,  6-H ) :   0.4660 B(  4-C ,  7-H ) :  -0.1985
B(  4-C ,  8-H ) :   0.2826 B(  4-C ,  9-H ) :  -0.2148 B(  4-C , 10-H ) :   2.6540
B(  4-C , 11-C ) :   0.3328 B(  4-C , 12-N ) :  -0.1542 B(  5-C ,  6-H ) :  -0.7952
B(  5-C ,  7-H ) :   0.1175 B(  5-C ,  8-H ) :  -0.1538 B(  5-C ,  9-H ) :   0.1312
B(  5-C , 10-H ) :  -0.7877 B(  5-C , 11-C ) :   0.9430 B(  5-C , 12-N ) :  -0.7555
B(  6-H ,  7-H ) :  -0.2333 B(  6-H ,  8-H ) :   0.2333 B(  6-H ,  9-H ) :  -0.2452
B(  6-H , 10-H ) :   0.6389 B(  6-H , 11-C ) :  -0.9848 B(  6-H , 12-N ) :   0.1705
B(  7-H , 10-H ) :  -0.2379 B(  7-H , 11-C ) :   0.6341 B(  7-H , 12-N ) :  -0.1244
B(  8-H , 10-H ) :   0.2203 B(  8-H , 11-C ) :  -0.4574 B(  8-H , 12-N ) :   0.1145
B(  9-H , 10-H ) :  -0.2177 B(  9-H , 11-C ) :   0.6226 B(  9-H , 12-N ) :  -0.1280
B( 10-H , 11-C ) :  -1.0100 B( 10-H , 12-N ) :   0.1743 B( 11-C , 12-N ) :   2.1827
B( 11-C , 13-Si) :  -0.5421 B( 12-N , 13-Si) :   0.6444 B( 12-N , 14-C ) :   0.1792
B( 12-N , 18-C ) :   0.1780 B( 12-N , 22-C ) :   0.2026 B( 13-Si, 14-C ) :   0.8097
B( 13-Si, 18-C ) :   0.8080 B( 13-Si, 22-C ) :   0.8022 B( 14-C , 15-H ) :   0.9315
B( 14-C , 16-H ) :   0.9237 B( 14-C , 17-H ) :   0.9264 B( 14-C , 18-C ) :   0.1734
B( 14-C , 22-C ) :   0.1444 B( 18-C , 19-H ) :   0.9275 B( 18-C , 20-H ) :   0.9231
B( 18-C , 21-H ) :   0.9321 B( 18-C , 22-C ) :   0.1415 B( 22-C , 23-H ) :   0.9294
B( 22-C , 24-H ) :   0.9400 B( 22-C , 25-H ) :   0.9319

MP2 TOTAL ENERGY:     -732.179209149 Eh
FINAL SINGLE POINT ENERGY      -732.179209148657

DIPOLE MOMENT
-------------
                                X             Y             Z
Electronic contribution:     11.53564      -0.02701      -0.00006
Nuclear contribution   :    -11.35603       0.02772       0.00020
                        -----------------------------------------
Total Dipole Moment    :      0.17961       0.00071       0.00014
                        -----------------------------------------
Magnitude (a.u.)       :      0.17961
Magnitude (Debye)      :      0.45654

Rotational constants in cm-1:     0.066039     0.010681     0.010105
Rotational constants in MHz :  1979.813937   320.209721   302.949581

                             ****ORCA TERMINATED NORMALLY****
TOTAL RUN TIME: 0 days 0 hours 10 minutes 37 seconds 867 msec
