                         Program Version 4.2.1 -  RELEASE  -
|  1> %pal
|  2>  nprocs 32
|  3> end
|  4> !RI-MP2 aug-cc-pVTZ aug-cc-pVTZ/C TightSCF
|  5> %maxcore 4500
|  6> *xyzfile 1 1  10_33TS.xyz
|  7>
|  8>
|  9>                          ****END OF INPUT****

CARTESIAN COORDINATES (ANGSTROEM)
---------------------------------
  C      2.231458   -2.643998    0.533135
  C      0.873885   -1.916592    0.541482
  C      1.946461   -0.897601   -1.103550
  C      2.977536   -1.944440   -0.642596
  H      2.752642   -2.541899    1.486135
  H      2.093584   -3.709858    0.350198
  H      3.915128   -1.480357   -0.341043
  H      3.190524   -2.638583   -1.455893
  C      0.631712   -1.666906   -0.947338
  H     -0.260135   -1.085406   -1.154192
  H      0.620805   -2.588122   -1.527319
  H      0.073194   -2.384652    1.108191
  H      2.152861   -0.397096   -2.045955
  N      1.846826    0.072338   -0.000121
  N      1.072696   -0.522967    1.012974
  C     -0.781090    1.579818    0.363198
  C     -1.825674    0.602266    0.186627
  C     -2.314791    0.261483   -1.083179
  C     -2.433459    0.033248    1.316660
  C     -3.353920   -0.642310   -1.216301
  H     -1.904989    0.732473   -1.967721
  C     -3.463935   -0.875071    1.181065
  H     -2.076194    0.305443    2.303094
  C     -3.924005   -1.217742   -0.087516
  H     -3.733138   -0.887461   -2.200206
  H     -3.921532   -1.311421    2.059818
  H     -4.740927   -1.920675   -0.193827
  H     -0.752588    2.054798    1.340972
  C      1.850557    1.416957   -0.074958
  H      2.383194    1.766415   -0.955894
  C      0.093290    2.070740   -0.602658
  H      0.005259    1.606853   -1.583142
  H      1.566687   -0.488587    1.901499
  C      2.196265    2.145077    1.201174
  H      3.208716    1.857454    1.494469
  H      2.187370    3.222197    1.065035
  H      1.519295    1.887961    2.014707
  C      0.326315    3.573131   -0.676301
  H      1.281336    3.823366   -1.141607
  H     -0.460986    4.019348   -1.286363
  H      0.279600    4.043854    0.305411

 Total Charge           Charge          ....    1
 Multiplicity           Mult            ....    1
 Number of Electrons    NEL             ....  132
 Basis Dimension        Dim             .... 1357

ORBITAL ENERGIES
----------------

  NO   OCC          E(Eh)            E(eV)
   0   2.0000     -15.737566      -428.2409
   1   2.0000     -15.722140      -427.8212
   2   2.0000     -11.456706      -311.7528
   3   2.0000     -11.436512      -311.2033
   4   2.0000     -11.396250      -310.1077
   5   2.0000     -11.385054      -309.8031
   6   2.0000     -11.375437      -309.5414
   7   2.0000     -11.375067      -309.5313
   8   2.0000     -11.373680      -309.4936
   9   2.0000     -11.372229      -309.4541
  10   2.0000     -11.368527      -309.3533
  11   2.0000     -11.358935      -309.0923
  12   2.0000     -11.355840      -309.0081
  13   2.0000     -11.355590      -309.0013
  14   2.0000     -11.354353      -308.9677
  15   2.0000     -11.342948      -308.6573
  16   2.0000     -11.338563      -308.5380
  17   2.0000     -11.337459      -308.5079
  18   2.0000      -1.486077       -40.4382
  19   2.0000      -1.299941       -35.3732
  20   2.0000      -1.284612       -34.9561
  21   2.0000      -1.231278       -33.5048
  22   2.0000      -1.229681       -33.4613
  23   2.0000      -1.163531       -31.6613
  24   2.0000      -1.149343       -31.2752
  25   2.0000      -1.136859       -30.9355
  26   2.0000      -1.091421       -29.6991
  27   2.0000      -1.065522       -28.9943
  28   2.0000      -1.050060       -28.5736
  29   2.0000      -0.978732       -26.6327
  30   2.0000      -0.957695       -26.0602
  31   2.0000      -0.950036       -25.8518
  32   2.0000      -0.937624       -25.5140
  33   2.0000      -0.899257       -24.4700
  34   2.0000      -0.886562       -24.1246
  35   2.0000      -0.844466       -22.9791
  36   2.0000      -0.839665       -22.8484
  37   2.0000      -0.807619       -21.9764
  38   2.0000      -0.791977       -21.5508
  39   2.0000      -0.784441       -21.3457
  40   2.0000      -0.769459       -20.9380
  41   2.0000      -0.741989       -20.1906
  42   2.0000      -0.738329       -20.0910
  43   2.0000      -0.732980       -19.9454
  44   2.0000      -0.725978       -19.7549
  45   2.0000      -0.717950       -19.5364
  46   2.0000      -0.714598       -19.4452
  47   2.0000      -0.690863       -18.7993
  48   2.0000      -0.681135       -18.5346
  49   2.0000      -0.672268       -18.2934
  50   2.0000      -0.661430       -17.9984
  51   2.0000      -0.657249       -17.8846
  52   2.0000      -0.649522       -17.6744
  53   2.0000      -0.642540       -17.4844
  54   2.0000      -0.638825       -17.3833
  55   2.0000      -0.635526       -17.2935
  56   2.0000      -0.629584       -17.1319
  57   2.0000      -0.621006       -16.8984
  58   2.0000      -0.615765       -16.7558
  59   2.0000      -0.607709       -16.5366
  60   2.0000      -0.589654       -16.0453
  61   2.0000      -0.577438       -15.7129
  62   2.0000      -0.528929       -14.3929
  63   2.0000      -0.499070       -13.5804
  64   2.0000      -0.466095       -12.6831
  65   2.0000      -0.421657       -11.4739
  66   0.0000      -0.110232        -2.9996
  67   0.0000      -0.061603        -1.6763
  68   0.0000      -0.056712        -1.5432
  69   0.0000      -0.050488        -1.3739
  70   0.0000      -0.048486        -1.3194

MULLIKEN ATOMIC CHARGES
-----------------------
   0 C :   -0.756329
   1 C :   -0.231878
   2 C :   -0.273684
   3 C :   -0.782775
   4 H :    0.228382
   5 H :    0.276235
   6 H :    0.300768
   7 H :    0.254114
   8 C :   -0.791977
   9 H :    0.397906
  10 H :    0.414299
  11 H :    0.595969
  12 H :    0.472251
  13 N :    0.374514
  14 N :   -0.408417
  15 C :   -1.074456
  16 C :    2.183847
  17 C :   -0.333930
  18 C :   -0.830824
  19 C :   -0.857969
  20 H :    0.094623
  21 C :   -0.629966
  22 H :    0.018801
  23 C :   -0.073390
  24 H :    0.408337
  25 H :    0.653670
  26 H :    0.537308
  27 H :    0.035349
  28 C :    0.327475
  29 H :    0.564600
  30 C :    0.592172
  31 H :    0.232264
  32 H :   -0.212689
  33 C :   -1.135260
  34 H :    0.218536
  35 H :    0.249586
  36 H :    0.302574
  37 C :   -1.141612
  38 H :    0.272776
  39 H :    0.226803
  40 H :    0.301997
Sum of atomic charges:    1.0000000

LOEWDIN ATOMIC CHARGES
----------------------
   0 C :    0.363405
   1 C :   -0.048877
   2 C :   -0.026057
   3 C :    0.361915
   4 H :   -0.137374
   5 H :   -0.132426
   6 H :   -0.135610
   7 H :   -0.132778
   8 C :    0.358229
   9 H :   -0.187188
  10 H :   -0.110905
  11 H :   -0.104883
  12 H :   -0.099718
  13 N :    0.192948
  14 N :    0.543684
  15 C :    0.293903
  16 C :   -0.109955
  17 C :    0.220927
  18 C :    0.235384
  19 C :    0.241987
  20 H :   -0.166542
  21 C :    0.237702
  22 H :   -0.156161
  23 C :    0.241594
  24 H :   -0.167476
  25 H :   -0.169235
  26 H :   -0.159247
  27 H :   -0.130290
  28 C :    0.042303
  29 H :   -0.121836
  30 C :    0.120503
  31 H :   -0.163296
  32 H :   -0.272517
  33 C :    0.622788
  34 H :   -0.135649
  35 H :   -0.174535
  36 H :   -0.164805
  37 C :    0.596461
  38 H :   -0.154912
  39 H :   -0.147018
  40 H :   -0.164443

  Mayer bond orders larger than 0.100000
B(  0-C ,  1-C ) :   0.9180 B(  0-C ,  3-C ) :   1.2297 B(  0-C ,  4-H ) :   1.0180
B(  0-C ,  5-H ) :   0.9669 B(  1-C ,  8-C ) :   1.0216 B(  1-C , 11-H ) :   0.6265
B(  1-C , 14-N ) :   1.0485 B(  2-C ,  3-C ) :   0.9754 B(  2-C ,  8-C ) :   1.0505
B(  2-C , 12-H ) :   0.7345 B(  2-C , 13-N ) :   0.9939 B(  3-C ,  6-H ) :   0.9568
B(  3-C ,  7-H ) :   1.0004 B(  3-C , 12-H ) :  -0.1055 B(  3-C , 13-N ) :  -0.1854
B(  8-C ,  9-H ) :   0.9247 B(  8-C , 10-H ) :   0.8277 B(  8-C , 13-N ) :  -0.1124
B( 13-N , 14-N ) :   0.1432 B( 13-N , 15-C ) :   0.1271 B( 13-N , 28-C ) :   1.1681
B( 13-N , 29-H ) :  -0.1037 B( 14-N , 15-C ) :   0.2023 B( 14-N , 16-C ) :  -0.1201
B( 14-N , 32-H ) :   1.2113 B( 15-C , 16-C ) :   0.2468 B( 15-C , 17-C ) :   0.4885
B( 15-C , 18-C ) :   0.5013 B( 15-C , 21-C ) :   0.1140 B( 15-C , 22-H ) :  -0.2685
B( 15-C , 27-H ) :   1.3688 B( 15-C , 28-C ) :   0.1392 B( 15-C , 30-C ) :   1.2382
B( 16-C , 17-C ) :   0.7128 B( 16-C , 18-C ) :   0.2403 B( 16-C , 19-C ) :   0.2487
B( 16-C , 20-H ) :  -0.1794 B( 16-C , 21-C ) :   0.2016 B( 16-C , 25-H ) :  -0.1054
B( 16-C , 27-H ) :  -0.2974 B( 16-C , 30-C ) :  -0.1389 B( 17-C , 18-C ) :  -0.6179
B( 17-C , 19-C ) :   1.3722 B( 17-C , 20-H ) :   1.3750 B( 17-C , 22-H ) :   0.1871
B( 18-C , 21-C ) :   1.3749 B( 18-C , 22-H ) :   1.5298 B( 18-C , 26-H ) :   0.1135
B( 19-C , 21-C ) :   0.1089 B( 19-C , 23-C ) :   1.0596 B( 19-C , 24-H ) :   0.8931
B( 19-C , 26-H ) :  -0.1028 B( 20-H , 22-H ) :   0.1168 B( 21-C , 23-C ) :   1.0545
B( 21-C , 25-H ) :   0.4628 B( 21-C , 26-H ) :  -0.1168 B( 23-C , 26-H ) :   0.6576
B( 28-C , 29-H ) :   0.6562 B( 28-C , 30-C ) :   0.6208 B( 28-C , 33-C ) :   0.5846
B( 28-C , 36-H ) :  -0.1379 B( 30-C , 31-H ) :   0.9705 B( 30-C , 33-C ) :   0.1048
B( 30-C , 37-C ) :   0.2366 B( 30-C , 39-H ) :  -0.1005 B( 30-C , 40-H ) :  -0.1198
B( 31-H , 37-C ) :  -0.1189 B( 33-C , 34-H ) :   1.0632 B( 33-C , 35-H ) :   1.0443
B( 33-C , 36-H ) :   1.0344 B( 37-C , 38-H ) :   1.0747 B( 37-C , 39-H ) :   1.0732
B( 37-C , 40-H ) :   1.0837

MP2 TOTAL ENERGY:     -731.222184049 Eh
FINAL SINGLE POINT ENERGY      -731.222184049350

DIPOLE MOMENT
-------------
                                X             Y             Z
Electronic contribution:     -9.22152      -3.43994       0.52402
Nuclear contribution   :      9.64433       3.98568      -0.42869
                        -----------------------------------------
Total Dipole Moment    :      0.42281       0.54574       0.09533
                        -----------------------------------------
Magnitude (a.u.)       :      0.69691
Magnitude (Debye)      :      1.77141

Rotational constants in cm-1:     0.018743     0.012302     0.009037
Rotational constants in MHz :   561.909430   368.801255   270.908686

                             ****ORCA TERMINATED NORMALLY****
TOTAL RUN TIME: 0 days 1 hours 13 minutes 28 seconds 94 msec
