                         Program Version 4.2.1 -  RELEASE  -
|  1> %pal
|  2>  nprocs 32
|  3> end
|  4> !RI-MP2 aug-cc-pVTZ aug-cc-pVTZ/C TightSCF
|  5> %maxcore 4500
|  6> *xyzfile -1 1  09_3P.xyz
|  7>
|  8>
|  9>                          ****END OF INPUT****

CARTESIAN COORDINATES (ANGSTROEM)
---------------------------------
  C     -1.469228    1.440427    0.128838
  C     -1.528016   -0.060904   -0.026557
  C     -0.489284   -0.831950    0.739553
  O     -2.353837   -0.589428   -0.749485
  C      0.868467   -0.668092    0.060518
  C      1.780867    0.235276    0.425671
  C      3.043297    0.246814   -0.403129
  H     -2.020209    1.710053    1.036776
  H     -0.431178    1.755229    0.259052
  H     -1.939267    1.928304   -0.725796
  H      3.926407    0.081988    0.226921
  H      3.066437   -0.512258   -1.217274
  H      3.195415    1.230616   -0.865687
  H     -0.802980   -1.879062    0.786517
  H     -0.404673   -0.421106    1.749255
  H      1.004131   -1.347771   -0.803244

 Total Charge           Charge          ....   -1
 Multiplicity           Mult            ....    1
 Number of Electrons    NEL             ....   54
 Basis Dimension        Dim             ....  529

ORBITAL ENERGIES
----------------

  NO   OCC          E(Eh)            E(eV)
   0   2.0000     -20.393743      -554.9420
   1   2.0000     -11.176681      -304.1330
   2   2.0000     -11.083216      -301.5896
   3   2.0000     -11.063962      -301.0657
   4   2.0000     -11.041695      -300.4598
   5   2.0000     -11.014972      -299.7326
   6   2.0000     -10.988112      -299.0017
   7   2.0000      -1.233696       -33.5706
   8   2.0000      -0.905449       -24.6385
   9   2.0000      -0.847919       -23.0730
  10   2.0000      -0.805236       -21.9116
  11   2.0000      -0.700381       -19.0583
  12   2.0000      -0.582693       -15.8559
  13   2.0000      -0.514395       -13.9974
  14   2.0000      -0.487015       -13.2524
  15   2.0000      -0.484060       -13.1719
  16   2.0000      -0.451323       -12.2811
  17   2.0000      -0.415977       -11.3193
  18   2.0000      -0.392346       -10.6763
  19   2.0000      -0.388479       -10.5710
  20   2.0000      -0.379027       -10.3138
  21   2.0000      -0.352485        -9.5916
  22   2.0000      -0.331973        -9.0334
  23   2.0000      -0.295303        -8.0356
  24   2.0000      -0.263480        -7.1697
  25   2.0000      -0.137523        -3.7422
  26   2.0000      -0.097351        -2.6491
  27   0.0000       0.118077         3.2130
  28   0.0000       0.123541         3.3617
  29   0.0000       0.127047         3.4571
  30   0.0000       0.131505         3.5784
  31   0.0000       0.141233         3.8432

MULLIKEN ATOMIC CHARGES
-----------------------
   0 C :   -0.803561
   1 C :    0.429325
   2 C :   -0.137251
   3 O :   -0.918743
   4 C :   -0.417631
   5 C :   -0.689682
   6 C :   -0.758293
   7 H :    0.275995
   8 H :    0.389591
   9 H :    0.242468
  10 H :    0.244491
  11 H :    0.230095
  12 H :    0.246602
  13 H :    0.238173
  14 H :    0.222084
  15 H :    0.206337
Sum of atomic charges:   -1.0000000

LOEWDIN ATOMIC CHARGES
----------------------
   0 C :    0.556077
   1 C :   -0.575479
   2 C :    0.160000
   3 O :    0.415486
   4 C :   -0.014888
   5 C :    0.040364
   6 C :    0.346156
   7 H :   -0.179558
   8 H :   -0.222212
   9 H :   -0.190591
  10 H :   -0.240213
  11 H :   -0.230550
  12 H :   -0.237459
  13 H :   -0.189051
  14 H :   -0.196927
  15 H :   -0.241157

  Mayer bond orders larger than 0.100000
B(  0-C ,  1-C ) :   0.8133 B(  0-C ,  7-H ) :   0.9564 B(  0-C ,  8-H ) :   0.8036
B(  0-C ,  9-H ) :   0.9993 B(  1-C ,  2-C ) :   0.6693 B(  1-C ,  3-O ) :   1.1329
B(  1-C ,  4-C ) :   0.3892 B(  2-C ,  4-C ) :   0.8620 B(  2-C ,  5-C ) :   0.1682
B(  2-C , 13-H ) :   0.9969 B(  2-C , 14-H ) :   0.9336 B(  4-C ,  5-C ) :   1.0235
B(  4-C , 15-H ) :   0.9411 B(  5-C ,  6-C ) :   0.6029 B(  6-C , 10-H ) :   1.0037
B(  6-C , 11-H ) :   0.8998 B(  6-C , 12-H ) :   0.9899

MP2 TOTAL ENERGY:     -308.604919053 Eh
FINAL SINGLE POINT ENERGY      -308.604919053496

DIPOLE MOMENT
-------------
                                X             Y             Z
Electronic contribution:     -7.02276      -2.35658      -0.49683
Nuclear contribution   :      5.69432       2.59940       0.44545
                        -----------------------------------------
Total Dipole Moment    :     -1.32843       0.24282      -0.05138
                        -----------------------------------------
Magnitude (a.u.)       :      1.35142
Magnitude (Debye)      :      3.43503

Rotational constants in cm-1:     0.185920     0.044698     0.040943
Rotational constants in MHz :  5573.743664  1340.000188  1227.445243

                             ****ORCA TERMINATED NORMALLY****
TOTAL RUN TIME: 0 days 0 hours 2 minutes 20 seconds 392 msec
