                         Program Version 4.2.1 -  RELEASE  -
|  1> %pal
|  2>  nprocs 32
|  3> end
|  4> !RI-MP2 aug-cc-pVTZ aug-cc-pVTZ/C TightSCF
|  5> %maxcore 4500
|  6> *xyzfile 0 1  02_31P.xyz
|  7>
|  8>
|  9>                          ****END OF INPUT****

CARTESIAN COORDINATES (ANGSTROEM)
---------------------------------
  C     -1.768822   -0.456020    0.075340
  C     -1.717578   -1.815221    0.416577
  C     -2.858027   -2.603896    0.298883
  C     -4.040613   -2.101301   -0.215922
  C     -4.065698   -0.794785   -0.675515
  C     -2.945685    0.004814   -0.530612
  H     -2.795707   -3.646605    0.589131
  H     -4.915892   -2.734163   -0.296764
  H     -4.951710   -0.393089   -1.151344
  H     -2.977838    1.005684   -0.934468
  C     -0.656729    0.539480    0.176018
  C      0.656729    0.539476   -0.176029
  C      1.768823   -0.456021   -0.075327
  C      2.945688    0.004830    0.530608
  C      1.717578   -1.815231   -0.416526
  C      4.065701   -0.794765    0.675530
  H      2.977843    1.005712    0.934435
  C      2.858027   -2.603904   -0.298813
  C      4.040615   -2.101294    0.215974
  H      4.951715   -0.393056    1.151345
  H      2.795707   -3.646620   -0.589032
  H      4.915894   -2.734154    0.296831
  C      0.402160   -2.468059   -0.670020
  H     -0.163510   -1.930897   -1.432504
  H      0.542027   -3.486761   -1.032606
  C      1.115356    1.971848   -0.502420
  C     -1.115358    1.971860    0.502368
  N     -1.058092    2.674445   -0.819468
  N      0.045933    2.643827   -1.330847
  N     -0.045936    2.643864    1.330777
  N      1.058089    2.674469    0.819398
  C     -2.420388    2.228749    1.228979
  H     -2.299435    3.140462    1.812637
  H     -3.250171    2.370044    0.543571
  H     -2.660807    1.413493    1.909808
  C      2.420386    2.228717   -1.229038
  H      2.660817    1.413435   -1.909831
  H      2.299427    3.140405   -1.812734
  H      3.250165    2.370048   -0.543631
  C     -0.402160   -2.468040    0.670090
  H      0.163509   -1.930856    1.432559
  H     -0.542027   -3.486733    1.032706

 Total Charge           Charge          ....    0
 Multiplicity           Mult            ....    1
 Number of Electrons    NEL             ....  166
 Basis Dimension        Dim             .... 1518

ORBITAL ENERGIES
----------------

  NO   OCC          E(Eh)            E(eV)
   0   2.0000     -15.640649      -425.6037
   1   2.0000     -15.640638      -425.6034
   2   2.0000     -15.634850      -425.4459
   3   2.0000     -15.634843      -425.4457
   4   2.0000     -11.317363      -307.9611
   5   2.0000     -11.317334      -307.9603
   6   2.0000     -11.277184      -306.8678
   7   2.0000     -11.275682      -306.8269
   8   2.0000     -11.259010      -306.3732
   9   2.0000     -11.259009      -306.3732
  10   2.0000     -11.250905      -306.1527
  11   2.0000     -11.250904      -306.1527
  12   2.0000     -11.242423      -305.9219
  13   2.0000     -11.242423      -305.9219
  14   2.0000     -11.242126      -305.9138
  15   2.0000     -11.242125      -305.9138
  16   2.0000     -11.237535      -305.7889
  17   2.0000     -11.237011      -305.7746
  18   2.0000     -11.236414      -305.7584
  19   2.0000     -11.236413      -305.7584
  20   2.0000     -11.236232      -305.7534
  21   2.0000     -11.236232      -305.7534
  22   2.0000     -11.225624      -305.4648
  23   2.0000     -11.225624      -305.4648
  24   2.0000      -1.441101       -39.2144
  25   2.0000      -1.359394       -36.9910
  26   2.0000      -1.190144       -32.3855
  27   2.0000      -1.174125       -31.9496
  28   2.0000      -1.138266       -30.9738
  29   2.0000      -1.126180       -30.6449
  30   2.0000      -1.093135       -29.7457
  31   2.0000      -1.045087       -28.4383
  32   2.0000      -1.036595       -28.2072
  33   2.0000      -1.028840       -27.9962
  34   2.0000      -1.007405       -27.4129
  35   2.0000      -0.969284       -26.3756
  36   2.0000      -0.927974       -25.2514
  37   2.0000      -0.904880       -24.6230
  38   2.0000      -0.902189       -24.5498
  39   2.0000      -0.875269       -23.8173
  40   2.0000      -0.857209       -23.3258
  41   2.0000      -0.831556       -22.6278
  42   2.0000      -0.821659       -22.3585
  43   2.0000      -0.810656       -22.0591
  44   2.0000      -0.764074       -20.7915
  45   2.0000      -0.738920       -20.1070
  46   2.0000      -0.710668       -19.3383
  47   2.0000      -0.699877       -19.0446
  48   2.0000      -0.694343       -18.8940
  49   2.0000      -0.673342       -18.3226
  50   2.0000      -0.658080       -17.9073
  51   2.0000      -0.651816       -17.7368
  52   2.0000      -0.642966       -17.4960
  53   2.0000      -0.635189       -17.2844
  54   2.0000      -0.612092       -16.6559
  55   2.0000      -0.603766       -16.4293
  56   2.0000      -0.601941       -16.3797
  57   2.0000      -0.590372       -16.0648
  58   2.0000      -0.583428       -15.8759
  59   2.0000      -0.574348       -15.6288
  60   2.0000      -0.573437       -15.6040
  61   2.0000      -0.560073       -15.2404
  62   2.0000      -0.551007       -14.9937
  63   2.0000      -0.545602       -14.8466
  64   2.0000      -0.545427       -14.8418
  65   2.0000      -0.539438       -14.6789
  66   2.0000      -0.533191       -14.5089
  67   2.0000      -0.526276       -14.3207
  68   2.0000      -0.511478       -13.9180
  69   2.0000      -0.504449       -13.7267
  70   2.0000      -0.502601       -13.6765
  71   2.0000      -0.495851       -13.4928
  72   2.0000      -0.495136       -13.4733
  73   2.0000      -0.486292       -13.2327
  74   2.0000      -0.484520       -13.1845
  75   2.0000      -0.473042       -12.8721
  76   2.0000      -0.432384       -11.7658
  77   2.0000      -0.396980       -10.8024
  78   2.0000      -0.367654       -10.0044
  79   2.0000      -0.347312        -9.4508
  80   2.0000      -0.340207        -9.2575
  81   2.0000      -0.331172        -9.0116
  82   2.0000      -0.303054        -8.2465
  83   0.0000       0.022033         0.5996
  84   0.0000       0.026142         0.7114
  85   0.0000       0.030591         0.8324
  86   0.0000       0.033759         0.9186
  87   0.0000       0.036363         0.9895

MULLIKEN ATOMIC CHARGES
-----------------------
   0 C :    2.369581
   1 C :   -0.131478
   2 C :   -1.061845
   3 C :   -0.180742
   4 C :   -0.851782
   5 C :   -0.820512
   6 H :   -0.094440
   7 H :    0.766194
   8 H :    0.350628
   9 H :    0.109495
  10 C :   -0.787580
  11 C :   -0.786836
  12 C :    2.373224
  13 C :   -0.820921
  14 C :   -0.132502
  15 C :   -0.851567
  16 H :    0.109579
  17 C :   -1.061154
  18 C :   -0.180992
  19 H :    0.350348
  20 H :   -0.094328
  21 H :    0.765842
  22 C :   -0.237742
  23 H :    0.042370
  24 H :    0.372811
  25 C :    1.722956
  26 C :    1.722743
  27 N :   -0.400241
  28 N :   -0.809087
  29 N :   -0.808918
  30 N :   -0.400289
  31 C :   -1.195921
  32 H :    0.185054
  33 H :    0.321701
  34 H :    0.329257
  35 C :   -1.196085
  36 H :    0.329188
  37 H :    0.185121
  38 H :    0.321618
  39 C :   -0.237957
  40 H :    0.042411
  41 H :    0.372798
Sum of atomic charges:   -0.0000000

LOEWDIN ATOMIC CHARGES
----------------------
   0 C :   -0.054829
   1 C :   -0.091482
   2 C :    0.230934
   3 C :    0.211758
   4 C :    0.223885
   5 C :    0.202269
   6 H :   -0.174862
   7 H :   -0.176145
   8 H :   -0.176308
   9 H :   -0.213165
  10 C :   -0.018379
  11 C :   -0.018378
  12 C :   -0.054829
  13 C :    0.202268
  14 C :   -0.091482
  15 C :    0.223885
  16 H :   -0.213165
  17 C :    0.230935
  18 C :    0.211758
  19 H :   -0.176308
  20 H :   -0.174863
  21 H :   -0.176145
  22 C :    0.322021
  23 H :   -0.150739
  24 H :   -0.142242
  25 C :   -0.592058
  26 C :   -0.592060
  27 N :    0.262143
  28 N :    0.268051
  29 N :    0.268050
  30 N :    0.262143
  31 C :    0.581145
  32 H :   -0.173067
  33 H :   -0.186708
  34 H :   -0.152221
  35 C :    0.581145
  36 H :   -0.152223
  37 H :   -0.173067
  38 H :   -0.186706
  39 C :    0.322021
  40 H :   -0.150739
  41 H :   -0.142240

  Mayer bond orders larger than 0.100000
B(  0-C ,  2-C ) :   0.3533 B(  0-C ,  4-C ) :  -0.5342 B(  0-C ,  5-C ) :   0.6729
B(  0-C ,  6-H ) :   0.2367 B(  0-C ,  7-H ) :   0.1793 B(  0-C ,  9-H ) :  -0.3580
B(  0-C , 10-C ) :  -0.6443 B(  0-C , 11-C ) :   0.6151 B(  0-C , 22-C ) :  -0.1090
B(  0-C , 26-C ) :   0.2954 B(  0-C , 31-C ) :  -0.1547 B(  0-C , 39-C ) :   0.1632
B(  1-C ,  2-C ) :   0.5930 B(  1-C ,  3-C ) :   0.2836 B(  1-C ,  4-C ) :   0.3313
B(  1-C ,  5-C ) :  -0.4931 B(  1-C ,  6-H ) :   0.1678 B(  1-C ,  7-H ) :  -0.2988
B(  1-C ,  8-H ) :   0.1517 B(  1-C ,  9-H ) :  -0.1174 B(  1-C , 10-C ) :   1.0610
B(  1-C , 11-C ) :   0.3367 B(  1-C , 14-C ) :   0.1721 B(  1-C , 22-C ) :   0.2637
B(  1-C , 25-C ) :  -0.1359 B(  1-C , 26-C ) :   0.1371 B(  1-C , 39-C ) :   0.4923
B(  2-C ,  3-C ) :   0.9140 B(  2-C ,  4-C ) :  -0.1764 B(  2-C ,  6-H ) :   1.7455
B(  2-C , 10-C ) :   0.2607 B(  2-C , 11-C ) :  -0.1211 B(  3-C ,  4-C ) :   1.0696
B(  3-C ,  5-C ) :   0.1765 B(  3-C ,  6-H ) :  -0.2392 B(  3-C ,  7-H ) :   0.3281
B(  3-C ,  8-H ) :  -0.1587 B(  4-C ,  5-C ) :   1.2634 B(  4-C ,  8-H ) :   0.9448
B(  4-C , 10-C ) :   0.4669 B(  4-C , 11-C ) :  -0.2016 B(  4-C , 25-C ) :   0.1625
B(  4-C , 26-C ) :  -0.1911 B(  5-C ,  7-H ) :  -0.1299 B(  5-C ,  9-H ) :   1.6115
B(  5-C , 10-C ) :   0.8783 B(  5-C , 11-C ) :  -0.1754 B(  5-C , 26-C ) :  -0.2865
B(  6-H ,  7-H ) :  -0.1400 B(  6-H ,  8-H ) :   0.1029 B(  6-H , 10-C ) :  -0.1882
B(  6-H , 11-C ) :  -0.1556 B(  8-H , 10-C ) :  -0.1635 B(  9-H , 10-C ) :   0.2879
B(  9-H , 11-C ) :   0.1931 B(  9-H , 26-C ) :  -0.1404 B( 10-C , 11-C ) :   1.1688
B( 10-C , 12-C ) :   0.6140 B( 10-C , 13-C ) :  -0.1736 B( 10-C , 14-C ) :   0.3389
B( 10-C , 15-C ) :  -0.2022 B( 10-C , 16-H ) :   0.1933 B( 10-C , 17-C ) :  -0.1218
B( 10-C , 20-H ) :  -0.1559 B( 10-C , 22-C ) :   0.1651 B( 10-C , 26-C ) :   0.8969
B( 10-C , 27-N ) :   0.2531 B( 10-C , 28-N ) :  -0.4177 B( 10-C , 29-N ) :   0.6304
B( 10-C , 30-N ) :  -0.1489 B( 10-C , 31-C ) :   0.4580 B( 10-C , 39-C ) :  -0.2171
B( 11-C , 12-C ) :  -0.6457 B( 11-C , 13-C ) :   0.8772 B( 11-C , 14-C ) :   1.0596
B( 11-C , 15-C ) :   0.4670 B( 11-C , 16-H ) :   0.2878 B( 11-C , 17-C ) :   0.2604
B( 11-C , 19-H ) :  -0.1636 B( 11-C , 20-H ) :  -0.1874 B( 11-C , 22-C ) :  -0.2175
B( 11-C , 25-C ) :   0.8954 B( 11-C , 27-N ) :  -0.1499 B( 11-C , 28-N ) :   0.6295
B( 11-C , 29-N ) :  -0.4188 B( 11-C , 30-N ) :   0.2530 B( 11-C , 35-C ) :   0.4593
B( 11-C , 37-H ) :   0.1001 B( 11-C , 39-C ) :   0.1650 B( 12-C , 13-C ) :   0.6731
B( 12-C , 15-C ) :  -0.5350 B( 12-C , 16-H ) :  -0.3578 B( 12-C , 17-C ) :   0.3527
B( 12-C , 20-H ) :   0.2365 B( 12-C , 21-H ) :   0.1796 B( 12-C , 22-C ) :   0.1644
B( 12-C , 25-C ) :   0.2948 B( 12-C , 35-C ) :  -0.1554 B( 12-C , 39-C ) :  -0.1097
B( 13-C , 14-C ) :  -0.4929 B( 13-C , 15-C ) :   1.2641 B( 13-C , 16-H ) :   1.6115
B( 13-C , 18-C ) :   0.1771 B( 13-C , 21-H ) :  -0.1300 B( 13-C , 25-C ) :  -0.2854
B( 14-C , 15-C ) :   0.3320 B( 14-C , 16-H ) :  -0.1176 B( 14-C , 17-C ) :   0.5930
B( 14-C , 18-C ) :   0.2843 B( 14-C , 19-H ) :   0.1516 B( 14-C , 20-H ) :   0.1676
B( 14-C , 21-H ) :  -0.2985 B( 14-C , 22-C ) :   0.4915 B( 14-C , 25-C ) :   0.1391
B( 14-C , 26-C ) :  -0.1377 B( 14-C , 39-C ) :   0.2644 B( 15-C , 17-C ) :  -0.1768
B( 15-C , 18-C ) :   1.0699 B( 15-C , 19-H ) :   0.9454 B( 15-C , 25-C ) :  -0.1913
B( 15-C , 26-C ) :   0.1631 B( 16-H , 25-C ) :  -0.1406 B( 17-C , 18-C ) :   0.9129
B( 17-C , 20-H ) :   1.7455 B( 18-C , 19-H ) :  -0.1586 B( 18-C , 20-H ) :  -0.2393
B( 18-C , 21-H ) :   0.3285 B( 19-H , 20-H ) :   0.1030 B( 20-H , 21-H ) :  -0.1398
B( 22-C , 23-H ) :   1.2071 B( 22-C , 24-H ) :   0.8943 B( 22-C , 39-C ) :   0.7336
B( 25-C , 26-C ) :  -0.2624 B( 25-C , 27-N ) :   0.3519 B( 25-C , 28-N ) :  -0.3703
B( 25-C , 29-N ) :   0.3881 B( 25-C , 30-N ) :   0.2857 B( 25-C , 37-H ) :  -0.1528
B( 25-C , 38-H ) :  -0.1341 B( 26-C , 27-N ) :   0.2856 B( 26-C , 28-N ) :   0.3872
B( 26-C , 29-N ) :  -0.3708 B( 26-C , 30-N ) :   0.3516 B( 26-C , 32-H ) :  -0.1526
B( 26-C , 33-H ) :  -0.1338 B( 27-N , 28-N ) :  -0.3499 B( 27-N , 30-N ) :   0.1675
B( 27-N , 31-C ) :   0.1657 B( 28-N , 29-N ) :   0.2547 B( 29-N , 30-N ) :  -0.3502
B( 30-N , 35-C ) :   0.1658 B( 31-C , 32-H ) :   1.1035 B( 31-C , 33-H ) :   1.0110
B( 31-C , 34-H ) :   1.0240 B( 35-C , 36-H ) :   1.0241 B( 35-C , 37-H ) :   1.1035
B( 35-C , 38-H ) :   1.0111 B( 39-C , 40-H ) :   1.2072 B( 39-C , 41-H ) :   0.8942

MP2 TOTAL ENERGY:     -989.894737051 Eh
FINAL SINGLE POINT ENERGY      -989.894737050568

DIPOLE MOMENT
-------------
                                X             Y             Z
Electronic contribution:     -0.00000       6.89575      -0.00009
Nuclear contribution   :      0.00001      -8.39039       0.00011
                        -----------------------------------------
Total Dipole Moment    :      0.00000      -1.49463       0.00002
                        -----------------------------------------
Magnitude (a.u.)       :      1.49463
Magnitude (Debye)      :      3.79906

Rotational constants in cm-1:     0.011909     0.008832     0.005663
Rotational constants in MHz :   357.029580   264.781128   169.779068

                             ****ORCA TERMINATED NORMALLY****
TOTAL RUN TIME: 0 days 1 hours 42 minutes 33 seconds 400 msec
