                         Program Version 4.2.1 -  RELEASE  -
|  1> %pal
|  2>  nprocs 32
|  3> end
|  4> !RI-MP2 aug-cc-pVTZ aug-cc-pVTZ/C TightSCF
|  5> %maxcore 4500
|  6> *xyzfile 0 1  02_30TS.xyz
|  7>
|  8>
|  9>                          ****END OF INPUT****

CARTESIAN COORDINATES (ANGSTROEM)
---------------------------------
  C      1.900119   -1.167160   -0.038362
  C      1.739865    1.320519    0.144672
  N      2.238549    0.823779   -1.027873
  N      2.325417   -0.445856   -1.119473
  N      1.989946    0.637475    1.302456
  N      2.069455   -0.632771    1.210069
  C      1.646689    2.808384    0.257873
  C      2.004374   -2.654370   -0.153013
  H      1.469879   -3.147198    0.656099
  H      3.056917   -2.936328   -0.083170
  H      1.629071   -2.994255   -1.116331
  H      0.975379    3.098001    1.063895
  H      1.320209    3.247912   -0.682269
  H      2.638280    3.203004    0.488667
  C     -2.995950   -0.686196    0.829148
  C     -3.500303    0.645720    0.252826
  C     -0.260584   -0.663897   -0.190331
  C     -2.604651    1.395714   -0.738168
  C     -0.344602    0.561983   -0.164828
  C     -1.195167    1.762004   -0.249891
  C     -2.494602   -1.714008   -0.202390
  C     -0.975886   -1.951270   -0.142269
  H     -3.729638    1.310849    1.092240
  H     -2.504328    0.825449   -1.665358
  H     -4.454794    0.464706   -0.252777
  H     -3.116374    2.324322   -1.008075
  H     -0.758995    2.484654   -0.941564
  H     -1.244392    2.255355    0.726011
  H     -2.761866   -1.397713   -1.214028
  H     -2.985045   -2.678047   -0.046672
  H     -0.724507   -2.462525    0.791850
  H     -0.664995   -2.610951   -0.954321
  H     -2.204060   -0.491186    1.556463
  H     -3.820121   -1.118978    1.401481

 Total Charge           Charge          ....    0
 Multiplicity           Mult            ....    1
 Number of Electrons    NEL             ....  118
 Basis Dimension        Dim             .... 1150

ORBITAL ENERGIES
----------------

  NO   OCC          E(Eh)            E(eV)
   0   2.0000     -15.619620      -425.0315
   1   2.0000     -15.619366      -425.0246
   2   2.0000     -15.617570      -424.9757
   3   2.0000     -15.616905      -424.9576
   4   2.0000     -11.319606      -308.0221
   5   2.0000     -11.319315      -308.0142
   6   2.0000     -11.255961      -306.2903
   7   2.0000     -11.255609      -306.2807
   8   2.0000     -11.243383      -305.9480
   9   2.0000     -11.239901      -305.8532
  10   2.0000     -11.233828      -305.6880
  11   2.0000     -11.233488      -305.6787
  12   2.0000     -11.232670      -305.6565
  13   2.0000     -11.232287      -305.6461
  14   2.0000     -11.228689      -305.5482
  15   2.0000     -11.225098      -305.4504
  16   2.0000      -1.420295       -38.6482
  17   2.0000      -1.317034       -35.8383
  18   2.0000      -1.166368       -31.7385
  19   2.0000      -1.130435       -30.7607
  20   2.0000      -1.070156       -29.1204
  21   2.0000      -1.057855       -28.7857
  22   2.0000      -1.030910       -28.0525
  23   2.0000      -0.966052       -26.2876
  24   2.0000      -0.953946       -25.9582
  25   2.0000      -0.950423       -25.8623
  26   2.0000      -0.926438       -25.2097
  27   2.0000      -0.870052       -23.6753
  28   2.0000      -0.837452       -22.7882
  29   2.0000      -0.781760       -21.2728
  30   2.0000      -0.762122       -20.7384
  31   2.0000      -0.679809       -18.4985
  32   2.0000      -0.670970       -18.2580
  33   2.0000      -0.669510       -18.2183
  34   2.0000      -0.658776       -17.9262
  35   2.0000      -0.638972       -17.3873
  36   2.0000      -0.621617       -16.9150
  37   2.0000      -0.614045       -16.7090
  38   2.0000      -0.597673       -16.2635
  39   2.0000      -0.585224       -15.9248
  40   2.0000      -0.575554       -15.6616
  41   2.0000      -0.571845       -15.5607
  42   2.0000      -0.567206       -15.4344
  43   2.0000      -0.561437       -15.2775
  44   2.0000      -0.553045       -15.0491
  45   2.0000      -0.530875       -14.4458
  46   2.0000      -0.525306       -14.2943
  47   2.0000      -0.520511       -14.1638
  48   2.0000      -0.518867       -14.1191
  49   2.0000      -0.498160       -13.5556
  50   2.0000      -0.485006       -13.1977
  51   2.0000      -0.481448       -13.1009
  52   2.0000      -0.467705       -12.7269
  53   2.0000      -0.464652       -12.6438
  54   2.0000      -0.461360       -12.5542
  55   2.0000      -0.376254       -10.2384
  56   2.0000      -0.370180       -10.0731
  57   2.0000      -0.361444        -9.8354
  58   2.0000      -0.358086        -9.7440
  59   0.0000       0.023432         0.6376
  60   0.0000       0.025925         0.7055
  61   0.0000       0.032555         0.8859
  62   0.0000       0.033287         0.9058
  63   0.0000       0.039050         1.0626

MULLIKEN ATOMIC CHARGES
-----------------------
   0 C :    1.824187
   1 C :    1.803669
   2 N :   -0.689431
   3 N :   -0.749492
   4 N :   -0.736809
   5 N :   -0.639026
   6 C :   -1.181695
   7 C :   -1.206400
   8 H :    0.260290
   9 H :    0.310274
  10 H :    0.231390
  11 H :    0.239315
  12 H :    0.237699
  13 H :    0.310546
  14 C :   -0.533743
  15 C :   -0.445154
  16 C :    0.258432
  17 C :   -0.446783
  18 C :    0.146456
  19 C :   -0.584757
  20 C :   -0.514435
  21 C :   -0.576502
  22 H :    0.195410
  23 H :    0.106060
  24 H :    0.166056
  25 H :    0.416045
  26 H :    0.224588
  27 H :    0.160207
  28 H :    0.129995
  29 H :    0.272721
  30 H :    0.191216
  31 H :    0.358313
  32 H :    0.098867
  33 H :    0.362490
Sum of atomic charges:   -0.0000000

LOEWDIN ATOMIC CHARGES
----------------------
   0 C :   -0.572686
   1 C :   -0.569218
   2 N :    0.229579
   3 N :    0.228479
   4 N :    0.228998
   5 N :    0.230313
   6 C :    0.558990
   7 C :    0.559156
   8 H :   -0.178419
   9 H :   -0.157049
  10 H :   -0.172693
  11 H :   -0.173229
  12 H :   -0.177685
  13 H :   -0.157168
  14 C :    0.308541
  15 C :    0.307186
  16 C :    0.067605
  17 C :    0.301019
  18 C :    0.078884
  19 C :    0.262523
  20 C :    0.316195
  21 C :    0.257831
  22 H :   -0.140826
  23 H :   -0.148358
  24 H :   -0.141259
  25 H :   -0.138367
  26 H :   -0.167262
  27 H :   -0.141396
  28 H :   -0.151962
  29 H :   -0.139847
  30 H :   -0.149931
  31 H :   -0.154982
  32 H :   -0.159112
  33 H :   -0.143851

  Mayer bond orders larger than 0.100000
B(  0-C ,  2-N ) :   0.2095 B(  0-C ,  3-N ) :   0.3320 B(  0-C ,  4-N ) :   0.3015
B(  0-C ,  5-N ) :   0.4873 B(  0-C ,  7-C ) :  -0.1437 B(  0-C ,  8-H ) :  -0.1637
B(  0-C , 10-H ) :  -0.1897 B(  0-C , 16-C ) :   0.4942 B(  0-C , 21-C ) :  -0.1384
B(  1-C ,  2-N ) :   0.5742 B(  1-C ,  3-N ) :   0.2557 B(  1-C ,  4-N ) :   0.4079
B(  1-C ,  5-N ) :   0.2393 B(  1-C ,  6-C ) :  -0.1382 B(  1-C , 11-H ) :  -0.1719
B(  1-C , 12-H ) :  -0.1868 B(  1-C , 18-C ) :   0.5252 B(  1-C , 19-C ) :  -0.1798
B(  2-N ,  3-N ) :  -0.3260 B(  2-N ,  4-N ) :   0.2950 B(  2-N ,  6-C ) :   0.1208
B(  2-N , 18-C ) :   0.2638 B(  3-N ,  5-N ) :   0.2989 B(  3-N ,  7-C ) :   0.1306
B(  3-N , 10-H ) :   0.1011 B(  3-N , 16-C ) :   0.2968 B(  4-N ,  5-N ) :  -0.2948
B(  4-N ,  6-C ) :   0.1316 B(  4-N , 16-C ) :  -0.1628 B(  4-N , 18-C ) :   0.3010
B(  5-N ,  7-C ) :   0.1339 B(  5-N , 16-C ) :   0.3065 B(  5-N , 18-C ) :  -0.1650
B(  6-C , 11-H ) :   1.1340 B(  6-C , 12-H ) :   1.1336 B(  6-C , 13-H ) :   0.9759
B(  7-C ,  8-H ) :   1.0892 B(  7-C ,  9-H ) :   0.9798 B(  7-C , 10-H ) :   1.1460
B( 14-C , 15-C ) :   0.7931 B( 14-C , 20-C ) :   0.8452 B( 14-C , 21-C ) :   0.1037
B( 14-C , 32-H ) :   1.2079 B( 14-C , 33-H ) :   0.8571 B( 15-C , 17-C ) :   0.7830
B( 15-C , 22-H ) :   1.0460 B( 15-C , 24-H ) :   1.0527 B( 16-C , 18-C ) :   1.8798
B( 16-C , 19-C ) :  -0.1165 B( 16-C , 21-C ) :   0.7020 B( 16-C , 30-H ) :  -0.1095
B( 17-C , 19-C ) :   1.0068 B( 17-C , 23-H ) :   1.1493 B( 17-C , 25-H ) :   0.8194
B( 18-C , 19-C ) :   0.7423 B( 19-C , 26-H ) :   1.0350 B( 19-C , 27-H ) :   1.1051
B( 20-C , 21-C ) :   1.0374 B( 20-C , 28-H ) :   1.1600 B( 20-C , 29-H ) :   0.9264
B( 21-C , 30-H ) :   1.1010 B( 21-C , 31-H ) :   0.9513

MP2 TOTAL ENERGY:     -685.604081913 Eh
FINAL SINGLE POINT ENERGY      -685.604081912928

DIPOLE MOMENT
-------------
                                X             Y             Z
Electronic contribution:     16.52498       0.55462       0.09564
Nuclear contribution   :    -18.09898      -0.63009      -0.18853
                        -----------------------------------------
Total Dipole Moment    :     -1.57400      -0.07547      -0.09289
                        -----------------------------------------
Magnitude (a.u.)       :      1.57854
Magnitude (Debye)      :      4.01234

Rotational constants in cm-1:     0.027345     0.015474     0.011396
Rotational constants in MHz :   819.782104   463.910633   341.643441

                             ****ORCA TERMINATED NORMALLY****
TOTAL RUN TIME: 0 days 0 hours 37 minutes 12 seconds 588 msec
