                         Program Version 4.2.1 -  RELEASE  -
|  1> %pal
|  2>  nprocs 32
|  3> end
|  4> !RI-MP2 aug-cc-pVTZ aug-cc-pVTZ/C TightSCF
|  5> %maxcore 4500
|  6> *xyzfile 0 2  04_64P.xyz
|  7>
|  8>
|  9>                          ****END OF INPUT****

CARTESIAN COORDINATES (ANGSTROEM)
---------------------------------
  N      1.706148    0.175150   -0.772175
  S      1.330046   -1.281217   -0.092272
  O     -0.087595   -0.984267    0.595569
  C     -1.207603   -0.686263   -0.265836
  C     -2.382233   -0.370759    0.634265
  H     -1.403175   -1.554732   -0.897032
  H     -0.946425    0.165640   -0.897222
  C     -3.626138   -0.110448   -0.139371
  H     -2.134717    0.490835    1.263658
  H     -2.520562   -1.215969    1.325914
  C     -4.778896    0.598428    0.477013
  H     -3.780460   -0.643481   -1.073452
  C      2.392210    1.280762   -0.051159
  C      3.851645    0.930868    0.247706
  C      1.635551    1.604726    1.234637
  C      2.321837    2.470264   -1.007393
  H      2.831458    2.248791   -1.949247
  H      2.812971    3.336383   -0.561096
  H      1.285443    2.730647   -1.227533
  H      3.918567    0.074722    0.917153
  H      4.351853    1.781531    0.715599
  H      4.386001    0.691443   -0.675254
  H      1.662850    0.773248    1.938251
  H      0.593228    1.846795    1.021111
  H      2.099209    2.468886    1.713227
  O      2.186041   -1.611079    1.016959
  O      1.139974   -2.185654   -1.203190
  C     -5.899817    0.916429   -0.507413
  H     -4.425955    1.521900    0.954378
  H     -5.184048   -0.006943    1.304485
  H     -5.540718    1.560233   -1.313408
  H     -6.729051    1.426024   -0.013419
  H     -6.292193    0.002775   -0.960418
  H      2.045252    0.018658   -1.713508

 Total Charge           Charge          ....    0
 Multiplicity           Mult            ....    2
 Number of Electrons    NEL             ....  121
 Basis Dimension        Dim             .... 1108

ORBITAL ENERGIES
----------------
                 SPIN UP ORBITALS
  NO   OCC          E(Eh)            E(eV)
   0   1.0000     -92.233266     -2509.7948
   1   1.0000     -20.613094      -560.9108
   2   1.0000     -20.554096      -559.3054
   3   1.0000     -20.551449      -559.2334
   4   1.0000     -15.599441      -424.4824
   5   1.0000     -11.299322      -307.4702
   6   1.0000     -11.294420      -307.3368
   7   1.0000     -11.238743      -305.8217
   8   1.0000     -11.236453      -305.7594
   9   1.0000     -11.232859      -305.6616
  10   1.0000     -11.230126      -305.5873
  11   1.0000     -11.223285      -305.4011
  12   1.0000     -11.220072      -305.3137
  13   1.0000     -11.218654      -305.2751
  14   1.0000      -9.193005      -250.1544
  15   1.0000      -6.878833      -187.1826
  16   1.0000      -6.878260      -187.1670
  17   1.0000      -6.877746      -187.1530
  18   1.0000      -1.505640       -40.9705
  19   1.0000      -1.385743       -37.7080
  20   1.0000      -1.353011       -36.8173
  21   1.0000      -1.247118       -33.9358
  22   1.0000      -1.107758       -30.1436
  23   1.0000      -1.081320       -29.4242
  24   1.0000      -1.038178       -28.2503
  25   1.0000      -0.956883       -26.0381
  26   1.0000      -0.949444       -25.8357
  27   1.0000      -0.944808       -25.7095
  28   1.0000      -0.868085       -23.6218
  29   1.0000      -0.842833       -22.9346
  30   1.0000      -0.798910       -21.7395
  31   1.0000      -0.785138       -21.3647
  32   1.0000      -0.737878       -20.0787
  33   1.0000      -0.717900       -19.5351
  34   1.0000      -0.679637       -18.4939
  35   1.0000      -0.676813       -18.4170
  36   1.0000      -0.656753       -17.8712
  37   1.0000      -0.632480       -17.2106
  38   1.0000      -0.625527       -17.0215
  39   1.0000      -0.614797       -16.7295
  40   1.0000      -0.603106       -16.4113
  41   1.0000      -0.602614       -16.3980
  42   1.0000      -0.577574       -15.7166
  43   1.0000      -0.572856       -15.5882
  44   1.0000      -0.565691       -15.3932
  45   1.0000      -0.558864       -15.2075
  46   1.0000      -0.546594       -14.8736
  47   1.0000      -0.533268       -14.5110
  48   1.0000      -0.525887       -14.3101
  49   1.0000      -0.521659       -14.1951
  50   1.0000      -0.515239       -14.0204
  51   1.0000      -0.507368       -13.8062
  52   1.0000      -0.501285       -13.6407
  53   1.0000      -0.494287       -13.4502
  54   1.0000      -0.493597       -13.4315
  55   1.0000      -0.490190       -13.3388
  56   1.0000      -0.479565       -13.0496
  57   1.0000      -0.477314       -12.9884
  58   1.0000      -0.474577       -12.9139
  59   1.0000      -0.422686       -11.5019
  60   1.0000      -0.340879        -9.2758
  61   0.0000       0.021601         0.5878
  62   0.0000       0.027658         0.7526
  63   0.0000       0.030688         0.8351
  64   0.0000       0.035484         0.9656
  65   0.0000       0.039546         1.0761

                 SPIN DOWN ORBITALS
  NO   OCC          E(Eh)            E(eV)
   0   1.0000     -92.233269     -2509.7948
   1   1.0000     -20.613121      -560.9115
   2   1.0000     -20.554098      -559.3054
   3   1.0000     -20.551452      -559.2334
   4   1.0000     -15.599445      -424.4825
   5   1.0000     -11.298693      -307.4531
   6   1.0000     -11.294419      -307.3368
   7   1.0000     -11.239587      -305.8447
   8   1.0000     -11.233297      -305.6736
   9   1.0000     -11.232859      -305.6616
  10   1.0000     -11.223284      -305.4011
  11   1.0000     -11.219719      -305.3041
  12   1.0000     -11.218654      -305.2751
  13   1.0000     -11.214843      -305.1714
  14   1.0000      -9.193008      -250.1545
  15   1.0000      -6.878843      -187.1828
  16   1.0000      -6.878261      -187.1670
  17   1.0000      -6.877746      -187.1530
  18   1.0000      -1.505631       -40.9703
  19   1.0000      -1.385713       -37.7072
  20   1.0000      -1.353018       -36.8175
  21   1.0000      -1.247124       -33.9360
  22   1.0000      -1.085795       -29.5460
  23   1.0000      -1.077589       -29.3227
  24   1.0000      -1.037107       -28.2211
  25   1.0000      -0.956263       -26.0212
  26   1.0000      -0.948876       -25.8202
  27   1.0000      -0.926581       -25.2136
  28   1.0000      -0.865314       -23.5464
  29   1.0000      -0.841920       -22.9098
  30   1.0000      -0.789741       -21.4899
  31   1.0000      -0.761691       -20.7267
  32   1.0000      -0.734016       -19.9736
  33   1.0000      -0.716796       -19.5050
  34   1.0000      -0.677830       -18.4447
  35   1.0000      -0.672071       -18.2880
  36   1.0000      -0.656371       -17.8608
  37   1.0000      -0.627559       -17.0767
  38   1.0000      -0.613543       -16.6954
  39   1.0000      -0.611078       -16.6283
  40   1.0000      -0.602080       -16.3834
  41   1.0000      -0.595805       -16.2127
  42   1.0000      -0.575172       -15.6512
  43   1.0000      -0.569219       -15.4892
  44   1.0000      -0.562098       -15.2955
  45   1.0000      -0.552183       -15.0257
  46   1.0000      -0.546245       -14.8641
  47   1.0000      -0.532304       -14.4847
  48   1.0000      -0.524521       -14.2730
  49   1.0000      -0.517310       -14.0767
  50   1.0000      -0.515038       -14.0149
  51   1.0000      -0.503322       -13.6961
  52   1.0000      -0.496102       -13.4996
  53   1.0000      -0.492430       -13.3997
  54   1.0000      -0.489356       -13.3160
  55   1.0000      -0.487557       -13.2671
  56   1.0000      -0.478001       -13.0071
  57   1.0000      -0.476618       -12.9694
  58   1.0000      -0.472681       -12.8623
  59   1.0000      -0.422598       -11.4995
  60   0.0000       0.021563         0.5868
  61   0.0000       0.027674         0.7530
  62   0.0000       0.030742         0.8365
  63   0.0000       0.035572         0.9680
  64   0.0000       0.039644         1.0788

MULLIKEN ATOMIC CHARGES AND SPIN POPULATIONS
--------------------------------------------
   0 N :   -0.309434   -0.000499
   1 S :    2.203545   -0.000753
   2 O :   -0.717476   -0.001865
   3 C :   -0.392872    0.032520
   4 C :   -0.168489   -0.279646
   5 H :    0.391639   -0.006089
   6 H :    0.304395   -0.007943
   7 C :   -0.588412    1.380037
   8 H :    0.234304    0.006897
   9 H :    0.228892    0.090687
  10 C :   -0.312485   -0.233651
  11 H :    0.434669   -0.098324
  12 C :    1.841241   -0.000350
  13 C :   -1.374446   -0.000020
  14 C :   -1.114976    0.000383
  15 C :   -1.409616    0.000072
  16 H :    0.255796   -0.000009
  17 H :    0.262382   -0.000001
  18 H :    0.296981    0.000094
  19 H :    0.349650   -0.000015
  20 H :    0.252999   -0.000000
  21 H :    0.242407   -0.000001
  22 H :    0.333659   -0.000080
  23 H :    0.386729    0.000289
  24 H :    0.158750    0.000015
  25 O :   -1.021200   -0.000026
  26 O :   -1.041854    0.000001
  27 C :   -0.966104    0.031775
  28 H :    0.236025    0.029443
  29 H :    0.247604    0.066262
  30 H :    0.268014   -0.002827
  31 H :    0.283210   -0.003720
  32 H :    0.264955   -0.002754
  33 H :   -0.060482    0.000099
Sum of atomic charges         :    0.0000000

LOEWDIN ATOMIC CHARGES AND SPIN POPULATIONS
-------------------------------------------
   0 N :    0.427371   -0.000084
   1 S :   -0.041052    0.000095
   2 O :    0.366475    0.001201
   3 C :   -0.020279    0.011343
   4 C :    0.235431    0.116738
   5 H :   -0.164897   -0.000431
   6 H :   -0.165268    0.003903
   7 C :    0.287895    0.548279
   8 H :   -0.152986    0.008640
   9 H :   -0.139614    0.028370
  10 C :    0.220492    0.117711
  11 H :   -0.175682    0.113100
  12 C :   -0.505673    0.000005
  13 C :    0.585745   -0.000001
  14 C :    0.573711    0.000028
  15 C :    0.582377    0.000005
  16 H :   -0.156072    0.000000
  17 H :   -0.153243   -0.000000
  18 H :   -0.155100    0.000010
  19 H :   -0.198931   -0.000001
  20 H :   -0.156281   -0.000000
  21 H :   -0.156694   -0.000000
  22 H :   -0.180778    0.000001
  23 H :   -0.161308    0.000060
  24 H :   -0.152954    0.000001
  25 O :    0.086646   -0.000044
  26 O :    0.072276   -0.000020
  27 C :    0.567039    0.007095
  28 H :   -0.156035    0.014169
  29 H :   -0.145774    0.027290
  30 H :   -0.170887    0.002328
  31 H :   -0.172349    0.000125
  32 H :   -0.172390    0.000085
  33 H :   -0.351206   -0.000003

  Mayer bond orders larger than 0.100000
B(  0-N ,  1-S ) :   1.0707 B(  0-N , 12-C ) :   0.4603 B(  0-N , 33-H ) :   1.1094
B(  1-S ,  2-O ) :   0.8151 B(  1-S , 25-O ) :   1.1997 B(  1-S , 26-O ) :   1.0765
B(  2-O ,  3-C ) :   0.8655 B(  3-C ,  4-C ) :   1.0278 B(  3-C ,  5-H ) :   0.8871
B(  3-C ,  6-H ) :   0.9005 B(  3-C , 26-O ) :   0.1451 B(  4-C ,  7-C ) :   0.7051
B(  4-C ,  8-H ) :   0.9620 B(  4-C ,  9-H ) :   0.9135 B(  7-C , 10-C ) :   0.6362
B(  7-C , 11-H ) :   0.7381 B( 10-C , 27-C ) :   0.9301 B( 10-C , 28-H ) :   0.9768
B( 10-C , 29-H ) :   0.9372 B( 12-C , 13-C ) :   0.3889 B( 12-C , 14-C ) :   0.5282
B( 12-C , 15-C ) :   0.1361 B( 12-C , 16-H ) :  -0.1081 B( 12-C , 21-H ) :  -0.1036
B( 12-C , 24-H ) :  -0.1084 B( 12-C , 25-O ) :   0.1308 B( 13-C , 14-C ) :   0.1108
B( 13-C , 15-C ) :   0.1136 B( 13-C , 19-H ) :   0.9538 B( 13-C , 20-H ) :   1.0470
B( 13-C , 21-H ) :   1.0850 B( 14-C , 22-H ) :   0.9593 B( 14-C , 23-H ) :   0.9175
B( 14-C , 24-H ) :   1.1153 B( 15-C , 16-H ) :   1.0566 B( 15-C , 17-H ) :   1.0736
B( 15-C , 18-H ) :   1.0134 B( 27-C , 30-H ) :   0.9564 B( 27-C , 31-H ) :   0.9864
B( 27-C , 32-H ) :   0.9615

MP2 TOTAL ENERGY:    -1031.902782219 Eh
FINAL SINGLE POINT ENERGY     -1031.902782218532

DIPOLE MOMENT
-------------
                                X             Y             Z
Electronic contribution:     12.55315     -16.24150      -0.30263
Nuclear contribution   :    -13.23726      18.07420      -0.12577
                        -----------------------------------------
Total Dipole Moment    :     -0.68411       1.83269      -0.42840
                        -----------------------------------------
Magnitude (a.u.)       :      2.00258
Magnitude (Debye)      :      5.09014

Rotational constants in cm-1:     0.032611     0.008986     0.007879
Rotational constants in MHz :   977.641455   269.394834   236.216877

                             ****ORCA TERMINATED NORMALLY****
TOTAL RUN TIME: 0 days 0 hours 33 minutes 29 seconds 524 msec
