                         Program Version 4.2.1 -  RELEASE  -
|  1> %pal
|  2>  nprocs 32
|  3> end
|  4> !RI-MP2 aug-cc-pVTZ aug-cc-pVTZ/C TightSCF
|  5> %maxcore 4500
|  6> *xyzfile 1 1  05_16TS.xyz
|  7>
|  8>
|  9>                          ****END OF INPUT****

CARTESIAN COORDINATES (ANGSTROEM)
---------------------------------
  C      1.139774   -0.792441   -0.472852
  C      1.904830    1.756018   -0.407639
  C      3.324359    1.243069   -0.676962
  C      3.573442   -0.139284   -0.103467
  C      2.605992   -1.121431   -0.753190
  H      3.492929    1.218800   -1.758828
  H      4.023220    1.968042   -0.255136
  H      3.412293   -0.139124    0.975911
  H      2.778189   -1.122164   -1.833794
  H      2.803814   -2.127669   -0.384116
  N      0.925723    0.667100   -0.699891
  O     -0.286548    1.034033   -0.841557
  C      0.238383   -1.557996   -1.440012
  H      0.466338   -2.621184   -1.358298
  H     -0.817487   -1.417410   -1.212033
  H      0.418460   -1.246634   -2.469578
  C      0.756309   -1.149478    0.973371
  H     -0.288827   -0.910065    1.171142
  H      0.872076   -2.226249    1.099841
  H      1.386525   -0.664188    1.715674
  C      1.598136    2.927896   -1.339073
  H      0.637325    3.385642   -1.109858
  H      2.372604    3.685637   -1.215031
  H      1.594513    2.606968   -2.381397
  C      1.742060    2.207541    1.053286
  H      2.409609    3.052315    1.227908
  H      0.727177    2.555836    1.247579
  H      1.998216    1.427832    1.768275
  C     -1.838274    1.474497    1.103890
  H     -1.276747    1.154790    1.982306
  H     -0.904739    1.149315    0.159459
  C     -2.900724    0.561029    0.679487
  C     -3.573811    0.654091   -0.547245
  C     -3.164623   -0.534042    1.513687
  C     -4.507954   -0.295500   -0.906897
  H     -3.351265    1.449818   -1.243396
  C     -4.107210   -1.480190    1.164828
  H     -2.643348   -0.630768    2.458719
  C     -4.775976   -1.355762   -0.047030
  H     -5.025970   -0.227504   -1.853884
  H     -4.327017   -2.311123    1.821347
  O     -1.886639    2.806548    1.088590
  C     -2.801902    3.539616    0.266381
  H     -3.818022    3.169071    0.399210
  H     -2.729728    4.567524    0.608870
  H     -2.502100    3.480222   -0.780837
  Cl    -5.945765   -2.541418   -0.499782
  N      4.951043   -0.540212   -0.295773
  C      5.486091   -1.529608    0.480972
  C      6.920900   -1.894290    0.209885
  H      7.494015   -1.751339    1.126296
  H      6.970574   -2.953315   -0.044581
  H      7.374138   -1.309949   -0.591096
  O      4.820767   -2.070733    1.344123
  H      5.494429   -0.138427   -1.042516

 Total Charge           Charge          ....    1
 Multiplicity           Mult            ....    1
 Number of Electrons    NEL             ....  198
 Basis Dimension        Dim             .... 1844

ORBITAL ENERGIES
----------------

  NO   OCC          E(Eh)            E(eV)
   0   2.0000    -104.951514     -2855.8759
   1   2.0000     -20.812151      -566.3274
   2   2.0000     -20.754550      -564.7600
   3   2.0000     -20.599206      -560.5329
   4   2.0000     -15.800866      -429.9634
   5   2.0000     -15.674961      -426.5374
   6   2.0000     -11.503453      -313.0249
   7   2.0000     -11.435011      -311.1625
   8   2.0000     -11.432630      -311.0977
   9   2.0000     -11.418847      -310.7226
  10   2.0000     -11.410685      -310.5005
  11   2.0000     -11.405184      -310.3508
  12   2.0000     -11.394717      -310.0660
  13   2.0000     -11.388419      -309.8946
  14   2.0000     -11.388084      -309.8855
  15   2.0000     -11.372986      -309.4747
  16   2.0000     -11.371629      -309.4378
  17   2.0000     -11.370761      -309.4141
  18   2.0000     -11.346176      -308.7452
  19   2.0000     -11.339695      -308.5688
  20   2.0000     -11.338030      -308.5235
  21   2.0000     -11.333941      -308.4122
  22   2.0000     -11.332502      -308.3730
  23   2.0000     -11.329148      -308.2818
  24   2.0000     -11.310982      -307.7875
  25   2.0000     -10.675128      -290.4850
  26   2.0000      -8.142012      -221.5554
  27   2.0000      -8.139977      -221.5000
  28   2.0000      -8.139889      -221.4977
  29   2.0000      -1.645509       -44.7766
  30   2.0000      -1.579713       -42.9862
  31   2.0000      -1.469209       -39.9792
  32   2.0000      -1.335896       -36.3516
  33   2.0000      -1.323704       -36.0198
  34   2.0000      -1.302843       -35.4522
  35   2.0000      -1.258554       -34.2470
  36   2.0000      -1.230540       -33.4847
  37   2.0000      -1.182172       -32.1685
  38   2.0000      -1.167048       -31.7570
  39   2.0000      -1.159399       -31.5489
  40   2.0000      -1.120592       -30.4929
  41   2.0000      -1.115575       -30.3563
  42   2.0000      -1.076707       -29.2987
  43   2.0000      -1.067874       -29.0583
  44   2.0000      -1.057297       -28.7705
  45   2.0000      -1.051433       -28.6109
  46   2.0000      -1.020248       -27.7624
  47   2.0000      -0.983986       -26.7756
  48   2.0000      -0.957603       -26.0577
  49   2.0000      -0.948127       -25.7999
  50   2.0000      -0.937433       -25.5088
  51   2.0000      -0.907955       -24.7067
  52   2.0000      -0.883901       -24.0522
  53   2.0000      -0.855399       -23.2766
  54   2.0000      -0.848945       -23.1010
  55   2.0000      -0.826077       -22.4787
  56   2.0000      -0.811292       -22.0764
  57   2.0000      -0.810161       -22.0456
  58   2.0000      -0.794970       -21.6322
  59   2.0000      -0.785900       -21.3854
  60   2.0000      -0.776740       -21.1362
  61   2.0000      -0.774235       -21.0680
  62   2.0000      -0.760225       -20.6868
  63   2.0000      -0.753445       -20.5023
  64   2.0000      -0.735818       -20.0226
  65   2.0000      -0.733991       -19.9729
  66   2.0000      -0.725111       -19.7313
  67   2.0000      -0.711791       -19.3688
  68   2.0000      -0.707134       -19.2421
  69   2.0000      -0.705535       -19.1986
  70   2.0000      -0.699892       -19.0450
  71   2.0000      -0.692170       -18.8349
  72   2.0000      -0.686765       -18.6878
  73   2.0000      -0.683651       -18.6031
  74   2.0000      -0.673477       -18.3263
  75   2.0000      -0.667522       -18.1642
  76   2.0000      -0.664792       -18.0899
  77   2.0000      -0.656189       -17.8558
  78   2.0000      -0.655030       -17.8243
  79   2.0000      -0.649926       -17.6854
  80   2.0000      -0.642086       -17.4720
  81   2.0000      -0.640709       -17.4346
  82   2.0000      -0.638940       -17.3864
  83   2.0000      -0.632652       -17.2153
  84   2.0000      -0.629846       -17.1390
  85   2.0000      -0.621453       -16.9106
  86   2.0000      -0.613791       -16.7021
  87   2.0000      -0.602811       -16.4033
  88   2.0000      -0.598448       -16.2846
  89   2.0000      -0.594762       -16.1843
  90   2.0000      -0.588609       -16.0169
  91   2.0000      -0.575765       -15.6674
  92   2.0000      -0.570368       -15.5205
  93   2.0000      -0.562820       -15.3151
  94   2.0000      -0.507578       -13.8119
  95   2.0000      -0.494986       -13.4692
  96   2.0000      -0.483106       -13.1460
  97   2.0000      -0.482548       -13.1308
  98   2.0000      -0.437821       -11.9137
  99   0.0000      -0.151609        -4.1255
 100   0.0000      -0.058070        -1.5802
 101   0.0000      -0.050649        -1.3782
 102   0.0000      -0.046905        -1.2763
 103   0.0000      -0.045250        -1.2313

MULLIKEN ATOMIC CHARGES
-----------------------
   0 C :    1.978759
   1 C :    1.902979
   2 C :   -1.348851
   3 C :    1.204224
   4 C :   -1.145907
   5 H :    0.169646
   6 H :    0.393251
   7 H :    0.534450
   8 H :    0.160165
   9 H :    0.413455
  10 N :    0.492181
  11 O :   -1.029605
  12 C :   -2.037741
  13 H :    0.126921
  14 H :    0.694794
  15 H :    0.142828
  16 C :   -1.449289
  17 H :    0.806184
  18 H :    0.016553
  19 H :    0.306171
  20 C :   -1.909793
  21 H :    0.513168
  22 H :    0.116541
  23 H :    0.197227
  24 C :   -1.366434
  25 H :    0.053554
  26 H :    0.439034
  27 H :    0.327723
  28 C :    0.297165
  29 H :    0.549242
  30 H :    0.459978
  31 C :    1.323172
  32 C :    0.047121
  33 C :   -0.573961
  34 C :   -1.055940
  35 H :    0.355618
  36 C :   -0.879857
  37 H :    0.354387
  38 C :    0.849866
  39 H :    0.366184
  40 H :    0.414341
  41 O :   -0.831391
  42 C :   -1.043320
  43 H :    0.440864
  44 H :    0.370726
  45 H :    0.356889
  46 Cl:   -0.502564
  47 N :   -0.618545
  48 C :    0.714297
  49 C :   -0.894387
  50 H :    0.324970
  51 H :    0.323169
  52 H :    0.271584
  53 O :   -1.043455
  54 H :   -0.078347
Sum of atomic charges:    1.0000000

LOEWDIN ATOMIC CHARGES
----------------------
   0 C :   -0.368113
   1 C :   -0.368881
   2 C :    0.333686
   3 C :   -0.104179
   4 C :    0.333933
   5 H :   -0.122554
   6 H :   -0.115898
   7 H :   -0.161375
   8 H :   -0.119864
   9 H :   -0.131422
  10 N :    0.114131
  11 O :    0.755802
  12 C :    0.608979
  13 H :   -0.141402
  14 H :   -0.164291
  15 H :   -0.144631
  16 C :    0.635199
  17 H :   -0.186401
  18 H :   -0.131843
  19 H :   -0.166987
  20 C :    0.606038
  21 H :   -0.163400
  22 H :   -0.143104
  23 H :   -0.145423
  24 C :    0.631667
  25 H :   -0.136690
  26 H :   -0.179196
  27 H :   -0.169523
  28 C :   -0.011125
  29 H :   -0.131709
  30 H :   -0.561820
  31 C :   -0.093849
  32 C :    0.223046
  33 C :    0.226468
  34 C :    0.149606
  35 H :   -0.182072
  36 C :    0.148857
  37 H :   -0.156900
  38 C :   -0.754729
  39 H :   -0.184941
  40 H :   -0.184418
  41 O :    0.642558
  42 C :    0.420810
  43 H :   -0.169703
  44 H :   -0.159757
  45 H :   -0.164101
  46 Cl:    1.058263
  47 N :    0.592582
  48 C :   -0.661792
  49 C :    0.612235
  50 H :   -0.164887
  51 H :   -0.165277
  52 H :   -0.178886
  53 O :    0.469746
  54 H :   -0.272462

  Mayer bond orders larger than 0.100000
B(  0-C ,  1-C ) :  -0.1066 B(  0-C ,  2-C ) :  -0.1165 B(  0-C , 10-N ) :   0.6745
B(  0-C , 11-O ) :   0.1924 B(  0-C , 12-C ) :   0.2007 B(  0-C , 13-H ) :  -0.1994
B(  0-C , 15-H ) :  -0.2225 B(  0-C , 16-C ) :   0.5572 B(  0-C , 31-C ) :   0.1163
B(  1-C ,  2-C ) :   0.1354 B(  1-C ,  3-C ) :   0.1272 B(  1-C , 10-N ) :   0.6948
B(  1-C , 20-C ) :   0.1139 B(  1-C , 22-H ) :  -0.1898 B(  1-C , 23-H ) :  -0.1755
B(  1-C , 24-C ) :   0.5452 B(  2-C ,  3-C ) :   0.4909 B(  2-C ,  4-C ) :   0.2837
B(  2-C ,  5-H ) :   1.3225 B(  2-C ,  6-H ) :   0.7904 B(  2-C , 10-N ) :   0.2742
B(  2-C , 20-C ) :  -0.1312 B(  2-C , 47-N ) :   0.1690 B(  3-C ,  4-C ) :   0.8476
B(  3-C ,  7-H ) :   0.8623 B(  3-C , 10-N ) :  -0.2783 B(  4-C ,  7-H ) :   0.2283
B(  4-C ,  8-H ) :   1.2392 B(  4-C ,  9-H ) :   0.9120 B(  4-C , 10-N ) :   0.1222
B(  4-C , 12-C ) :  -0.1136 B(  4-C , 47-N ) :   0.1553 B(  4-C , 53-O ) :   0.1070
B(  7-H , 47-N ) :  -0.4138 B(  7-H , 48-C ) :  -0.1516 B(  7-H , 53-O ) :  -0.2297
B( 10-N , 11-O ) :  -0.1279 B( 10-N , 12-C ) :  -0.1583 B( 10-N , 20-C ) :  -0.2316
B( 10-N , 23-H ) :  -0.1274 B( 10-N , 30-H ) :  -0.1329 B( 10-N , 31-C ) :   0.1586
B( 11-O , 12-C ) :   0.1250 B( 11-O , 20-C ) :   0.1543 B( 11-O , 28-C ) :   0.1030
B( 11-O , 30-H ) :  -0.2023 B( 11-O , 31-C ) :   0.1339 B( 12-C , 13-H ) :   1.3994
B( 12-C , 14-H ) :   0.4745 B( 12-C , 15-H ) :   1.4152 B( 16-C , 17-H ) :   0.3472
B( 16-C , 18-H ) :   1.4444 B( 16-C , 19-H ) :   1.0852 B( 20-C , 21-H ) :   0.7208
B( 20-C , 22-H ) :   1.3821 B( 20-C , 23-H ) :   1.2962 B( 20-C , 24-C ) :   0.1013
B( 24-C , 25-H ) :   1.3029 B( 24-C , 26-H ) :   0.7310 B( 24-C , 27-H ) :   1.0471
B( 28-C , 29-H ) :   0.8943 B( 28-C , 30-H ) :   0.4657 B( 28-C , 31-C ) :   0.3251
B( 28-C , 32-C ) :   0.1988 B( 28-C , 33-C ) :   0.6635 B( 28-C , 41-O ) :   0.2072
B( 28-C , 42-C ) :  -0.1693 B( 29-H , 31-C ) :  -0.1673 B( 29-H , 41-O ) :  -0.1576
B( 30-H , 31-C ) :   0.6885 B( 30-H , 41-O ) :   0.1231 B( 31-C , 32-C ) :   0.3894
B( 31-C , 33-C ) :  -0.1513 B( 31-C , 34-C ) :   0.1909 B( 31-C , 35-H ) :  -0.1692
B( 31-C , 38-C ) :  -0.1821 B( 31-C , 41-O ) :  -0.1470 B( 32-C , 33-C ) :  -0.1287
B( 32-C , 34-C ) :   1.0829 B( 32-C , 35-H ) :   0.9607 B( 32-C , 38-C ) :   0.2725
B( 33-C , 36-C ) :   1.3399 B( 33-C , 37-H ) :   0.9565 B( 33-C , 38-C ) :   0.1697
B( 34-C , 35-H ) :  -0.1192 B( 34-C , 36-C ) :   0.1028 B( 34-C , 38-C ) :   1.0446
B( 34-C , 39-H ) :   0.9078 B( 34-C , 46-Cl) :   0.1284 B( 36-C , 38-C ) :   1.0937
B( 36-C , 40-H ) :   0.9077 B( 38-C , 40-H ) :  -0.1161 B( 38-C , 46-Cl) :   0.3985
B( 41-O , 42-C ) :   1.1208 B( 42-C , 43-H ) :   0.8264 B( 42-C , 44-H ) :   0.9311
B( 42-C , 45-H ) :   0.8983 B( 47-N , 48-C ) :   1.2053 B( 47-N , 54-H ) :   1.2883
B( 48-C , 49-C ) :   0.4491 B( 48-C , 53-O ) :   1.4823 B( 49-C , 50-H ) :   0.9922
B( 49-C , 51-H ) :   0.9806 B( 49-C , 52-H ) :   1.0019 B( 49-C , 53-O ) :  -0.1360

MP2 TOTAL ENERGY:    -1534.593781812 Eh
FINAL SINGLE POINT ENERGY     -1534.593781812197

DIPOLE MOMENT
-------------
                                X             Y             Z
Electronic contribution:    -38.37188     -14.65888       0.35068
Nuclear contribution   :     38.01265      16.91226      -1.04831
                        -----------------------------------------
Total Dipole Moment    :     -0.35923       2.25338      -0.69763
                        -----------------------------------------
Magnitude (a.u.)       :      2.38610
Magnitude (Debye)      :      6.06497

Rotational constants in cm-1:     0.011274     0.003137     0.002694
Rotational constants in MHz :   337.973156    94.041602    80.758168

                             ****ORCA TERMINATED NORMALLY****
TOTAL RUN TIME: 0 days 3 hours 3 minutes 34 seconds 181 msec
