                         Program Version 4.2.1 -  RELEASE  -
|  1> %pal
|  2>  nprocs 32
|  3> end
|  4> !RI-MP2 aug-cc-pVTZ aug-cc-pVTZ/C TightSCF
|  5> %maxcore 4500
|  6> *xyzfile 0 1  10_88P.xyz
|  7>
|  8>
|  9>                          ****END OF INPUT****

CARTESIAN COORDINATES (ANGSTROEM)
---------------------------------
  O     -2.927979    0.641168   -0.486014
  C     -2.644950   -0.120666    0.399862
  C     -1.311067   -0.790858    0.567708
  C     -0.228188   -0.347720   -0.425691
  C      0.198266    1.072216   -0.166862
  C      1.439231    1.424323    0.140836
  C      0.932806   -1.302111   -0.382981
  C      2.173713   -0.950731   -0.075847
  C      2.577870    0.455523    0.247612
  H      0.712854   -2.340788   -0.614588
  H      2.954809   -1.704473   -0.061197
  H      3.010464    0.495562    1.255625
  H      3.391898    0.767820   -0.418569
  H     -3.402032   -0.388962    1.165772
  H     -1.498556   -1.869806    0.483400
  H     -0.978389   -0.636735    1.600823
  H     -0.684352   -0.389509   -1.422519
  H      1.667224    2.470905    0.317614
  H     -0.576177    1.826782   -0.246069

 Total Charge           Charge          ....    0
 Multiplicity           Mult            ....    1
 Number of Electrons    NEL             ....   66
 Basis Dimension        Dim             ....  644

ORBITAL ENERGIES
----------------

  NO   OCC          E(Eh)            E(eV)
   0   2.0000     -20.560368      -559.4761
   1   2.0000     -11.334472      -308.4267
   2   2.0000     -11.245777      -306.0132
   3   2.0000     -11.242094      -305.9129
   4   2.0000     -11.233114      -305.6686
   5   2.0000     -11.230127      -305.5873
   6   2.0000     -11.227438      -305.5141
   7   2.0000     -11.226048      -305.4763
   8   2.0000     -11.221563      -305.3543
   9   2.0000      -1.401502       -38.1368
  10   2.0000      -1.141901       -31.0727
  11   2.0000      -1.061187       -28.8764
  12   2.0000      -1.017824       -27.6964
  13   2.0000      -0.971078       -26.4244
  14   2.0000      -0.865467       -23.5506
  15   2.0000      -0.796918       -21.6852
  16   2.0000      -0.778218       -21.1764
  17   2.0000      -0.695917       -18.9369
  18   2.0000      -0.676042       -18.3960
  19   2.0000      -0.655702       -17.8426
  20   2.0000      -0.639028       -17.3888
  21   2.0000      -0.628685       -17.1074
  22   2.0000      -0.588593       -16.0164
  23   2.0000      -0.587368       -15.9831
  24   2.0000      -0.564975       -15.3737
  25   2.0000      -0.537334       -14.6216
  26   2.0000      -0.533583       -14.5195
  27   2.0000      -0.504741       -13.7347
  28   2.0000      -0.495811       -13.4917
  29   2.0000      -0.450597       -12.2614
  30   2.0000      -0.424414       -11.5489
  31   2.0000      -0.366754        -9.9799
  32   2.0000      -0.340576        -9.2675
  33   0.0000       0.025873         0.7040
  34   0.0000       0.031199         0.8490
  35   0.0000       0.034475         0.9381
  36   0.0000       0.040417         1.0998
  37   0.0000       0.046089         1.2541

MULLIKEN ATOMIC CHARGES
-----------------------
   0 O :   -0.773327
   1 C :   -0.162904
   2 C :   -0.316515
   3 C :    0.656111
   4 C :   -0.803174
   5 C :   -0.639811
   6 C :   -0.780370
   7 C :   -0.559612
   8 C :    0.159749
   9 H :    0.230448
  10 H :    0.535047
  11 H :    0.182675
  12 H :    0.156036
  13 H :    0.532967
  14 H :    0.252415
  15 H :    0.292989
  16 H :    0.330445
  17 H :    0.486996
  18 H :    0.219835
Sum of atomic charges:    0.0000000

LOEWDIN ATOMIC CHARGES
----------------------
   0 O :    0.459972
   1 C :   -0.203133
   2 C :    0.263669
   3 C :   -0.069228
   4 C :    0.233577
   5 C :    0.237723
   6 C :    0.232562
   7 C :    0.235830
   8 C :    0.239129
   9 H :   -0.174517
  10 H :   -0.178500
  11 H :   -0.153195
  12 H :   -0.154133
  13 H :   -0.171002
  14 H :   -0.149924
  15 H :   -0.143563
  16 H :   -0.140712
  17 H :   -0.178921
  18 H :   -0.185635

  Mayer bond orders larger than 0.100000
B(  0-O ,  1-C ) :   1.5934 B(  0-O ,  3-C ) :  -0.1284 B(  0-O ,  4-C ) :   0.1356
B(  0-O , 13-H ) :  -0.1097 B(  1-C ,  2-C ) :   0.7443 B(  1-C ,  3-C ) :  -0.1094
B(  1-C , 13-H ) :   0.6731 B(  2-C ,  3-C ) :   0.9459 B(  2-C ,  4-C ) :   0.1811
B(  2-C , 14-H ) :   0.9374 B(  2-C , 15-H ) :   0.9613 B(  3-C ,  4-C ) :   0.5389
B(  3-C ,  5-C ) :   0.1758 B(  3-C ,  6-C ) :   0.5477 B(  3-C ,  7-C ) :   0.2659
B(  3-C , 16-H ) :   1.0799 B(  4-C ,  5-C ) :   1.7012 B(  4-C ,  6-C ) :   0.1199
B(  4-C ,  7-C ) :  -0.1284 B(  4-C , 16-H ) :  -0.1659 B(  4-C , 18-H ) :   1.2534
B(  5-C ,  7-C ) :   0.3155 B(  5-C ,  8-C ) :   0.6074 B(  5-C , 17-H ) :   0.6477
B(  5-C , 18-H ) :  -0.1966 B(  6-C ,  7-C ) :   1.7588 B(  6-C ,  9-H ) :   1.1589
B(  6-C , 16-H ) :  -0.1863 B(  6-C , 18-H ) :   0.1363 B(  7-C ,  8-C ) :   0.5842
B(  7-C ,  9-H ) :  -0.1537 B(  7-C , 10-H ) :   0.5569 B(  7-C , 18-H ) :  -0.1280
B(  8-C , 11-H ) :   1.0270 B(  8-C , 12-H ) :   1.0634

MP2 TOTAL ENERGY:     -385.274128131 Eh
FINAL SINGLE POINT ENERGY      -385.274128131116

DIPOLE MOMENT
-------------
                                X             Y             Z
Electronic contribution:     -4.09841       1.06810      -1.31905
Nuclear contribution   :      4.61812      -1.78481       2.08264
                        -----------------------------------------
Total Dipole Moment    :      0.51972      -0.71671       0.76359
                        -----------------------------------------
Magnitude (a.u.)       :      1.16912
Magnitude (Debye)      :      2.97167

Rotational constants in cm-1:     0.125873     0.034638     0.029376
Rotational constants in MHz :  3773.576463  1038.408706   880.666737

                             ****ORCA TERMINATED NORMALLY****
TOTAL RUN TIME: 0 days 0 hours 4 minutes 13 seconds 451 msec
