                         Program Version 4.2.1 -  RELEASE  -
|  1> %pal
|  2>  nprocs 32
|  3> end
|  4> !RI-MP2 aug-cc-pVTZ aug-cc-pVTZ/C TightSCF
|  5> %maxcore 4500
|  6> *xyzfile 1 1  05_25TS.xyz
|  7>
|  8>
|  9>                          ****END OF INPUT****

CARTESIAN COORDINATES (ANGSTROEM)
---------------------------------
  C      2.127314    1.280893    0.551273
  C      0.727612   -0.772022   -0.335036
  C      2.108723   -1.433669   -0.386438
  C      3.144769   -0.557197   -1.081725
  C      3.116111    0.905990   -0.574165
  H      2.436785   -1.666471    0.625811
  H      2.013385   -2.378270   -0.925241
  H      2.885673   -0.530399   -2.140089
  H      4.107227    1.176410   -0.213409
  H      2.914564    1.553789   -1.429928
  N      0.881049    0.469235    0.456690
  O     -0.093454    0.836337    1.191607
  C      2.711348    1.056059    1.952138
  H      3.071082    0.038935    2.079975
  H      3.564777    1.721613    2.092594
  H      1.961512    1.290663    2.708436
  C      1.751491    2.753951    0.385567
  H      1.250743    2.923359   -0.569470
  H      1.116153    3.097876    1.201941
  H      2.662866    3.352302    0.400005
  C     -0.258378   -1.701746    0.365171
  H      0.069370   -1.924751    1.380989
  H     -1.260475   -1.279294    0.409173
  H     -0.308501   -2.636331   -0.194393
  C      0.206192   -0.406665   -1.734668
  H     -0.801500    0.000199   -1.667828
  H      0.833812    0.332970   -2.231724
  H      0.172610   -1.304073   -2.355517
  C     -2.032084    2.114495    0.160844
  H     -2.085411    2.859233    0.959910
  H     -0.920749    1.484183    0.663334
  C     -2.961824    1.013213    0.208595
  C     -3.418017    0.381786   -0.954258
  C     -3.368009    0.512763    1.461628
  C     -4.260511   -0.708138   -0.882109
  H     -3.123938    0.772636   -1.919471
  C     -4.197899   -0.573239    1.542583
  H     -3.019191    0.988941    2.370945
  C     -4.651894   -1.199053    0.370152
  H     -4.618084   -1.166547   -1.792475
  H     -4.525069   -0.968459    2.494981
  O     -1.667821    2.573426   -1.044342
  C     -1.355534    3.969825   -1.137240
  H     -0.694402    4.272476   -0.324213
  H     -2.278950    4.550067   -1.108120
  H     -0.859129    4.112519   -2.092936
  O     -5.457231   -2.245335    0.549600
  C     -5.984559   -2.933061   -0.581152
  H     -5.181504   -3.363110   -1.183809
  H     -6.603177   -3.729019   -0.177351
  H     -6.598114   -2.265422   -1.189765
  N      4.473702   -1.155446   -1.062740
  C      5.176937   -1.420714    0.072741
  C      6.538759   -2.036331   -0.115720
  H      6.562781   -2.991752    0.409109
  H      6.807834   -2.194115   -1.160117
  H      7.280277   -1.388341    0.352306
  O      4.725956   -1.170339    1.176485
  H      4.900603   -1.373890   -1.947176

 Total Charge           Charge          ....    1
 Multiplicity           Mult            ....    1
 Number of Electrons    NEL             ....  198
 Basis Dimension        Dim             .... 1955

ORBITAL ENERGIES
----------------

  NO   OCC          E(Eh)            E(eV)
   0   2.0000     -20.787931      -565.6684
   1   2.0000     -20.740634      -564.3813
   2   2.0000     -20.703020      -563.3578
   3   2.0000     -20.599476      -560.5402
   4   2.0000     -15.777453      -429.3263
   5   2.0000     -15.674778      -426.5324
   6   2.0000     -11.481856      -312.4372
   7   2.0000     -11.436165      -311.1939
   8   2.0000     -11.433977      -311.1343
   9   2.0000     -11.412309      -310.5447
  10   2.0000     -11.393525      -310.0336
  11   2.0000     -11.390646      -309.9552
  12   2.0000     -11.383164      -309.7516
  13   2.0000     -11.376078      -309.5588
  14   2.0000     -11.374955      -309.5283
  15   2.0000     -11.373311      -309.4835
  16   2.0000     -11.368654      -309.3568
  17   2.0000     -11.350944      -308.8749
  18   2.0000     -11.345839      -308.7360
  19   2.0000     -11.331204      -308.3377
  20   2.0000     -11.329000      -308.2778
  21   2.0000     -11.327144      -308.2273
  22   2.0000     -11.325292      -308.1769
  23   2.0000     -11.319176      -308.0104
  24   2.0000     -11.311242      -307.7945
  25   2.0000     -11.298883      -307.4583
  26   2.0000      -1.623311       -44.1725
  27   2.0000      -1.567547       -42.6551
  28   2.0000      -1.535762       -41.7902
  29   2.0000      -1.469987       -40.0004
  30   2.0000      -1.329698       -36.1829
  31   2.0000      -1.294443       -35.2236
  32   2.0000      -1.287193       -35.0263
  33   2.0000      -1.214124       -33.0380
  34   2.0000      -1.189793       -32.3759
  35   2.0000      -1.153813       -31.3969
  36   2.0000      -1.150544       -31.3079
  37   2.0000      -1.109243       -30.1840
  38   2.0000      -1.100684       -29.9511
  39   2.0000      -1.072642       -29.1881
  40   2.0000      -1.060417       -28.8554
  41   2.0000      -1.055406       -28.7191
  42   2.0000      -1.040816       -28.3221
  43   2.0000      -1.038255       -28.2524
  44   2.0000      -1.020047       -27.7569
  45   2.0000      -0.958372       -26.0786
  46   2.0000      -0.957340       -26.0505
  47   2.0000      -0.931369       -25.3438
  48   2.0000      -0.927308       -25.2333
  49   2.0000      -0.895031       -24.3550
  50   2.0000      -0.861598       -23.4453
  51   2.0000      -0.852777       -23.2052
  52   2.0000      -0.831656       -22.6305
  53   2.0000      -0.820109       -22.3163
  54   2.0000      -0.816247       -22.2112
  55   2.0000      -0.807932       -21.9849
  56   2.0000      -0.789777       -21.4909
  57   2.0000      -0.786362       -21.3980
  58   2.0000      -0.780264       -21.2321
  59   2.0000      -0.771688       -20.9987
  60   2.0000      -0.765322       -20.8255
  61   2.0000      -0.750860       -20.4319
  62   2.0000      -0.741635       -20.1809
  63   2.0000      -0.726298       -19.7636
  64   2.0000      -0.722571       -19.6622
  65   2.0000      -0.716520       -19.4975
  66   2.0000      -0.710918       -19.3451
  67   2.0000      -0.703705       -19.1488
  68   2.0000      -0.696492       -18.9525
  69   2.0000      -0.691832       -18.8257
  70   2.0000      -0.688635       -18.7387
  71   2.0000      -0.685402       -18.6507
  72   2.0000      -0.671773       -18.2799
  73   2.0000      -0.667667       -18.1682
  74   2.0000      -0.663038       -18.0422
  75   2.0000      -0.660375       -17.9697
  76   2.0000      -0.656951       -17.8765
  77   2.0000      -0.649686       -17.6789
  78   2.0000      -0.647108       -17.6087
  79   2.0000      -0.640064       -17.4170
  80   2.0000      -0.636512       -17.3204
  81   2.0000      -0.635427       -17.2909
  82   2.0000      -0.632276       -17.2051
  83   2.0000      -0.627874       -17.0853
  84   2.0000      -0.624601       -16.9963
  85   2.0000      -0.610129       -16.6025
  86   2.0000      -0.598824       -16.2948
  87   2.0000      -0.597197       -16.2506
  88   2.0000      -0.593420       -16.1478
  89   2.0000      -0.590554       -16.0698
  90   2.0000      -0.580808       -15.8046
  91   2.0000      -0.575774       -15.6676
  92   2.0000      -0.567668       -15.4470
  93   2.0000      -0.555145       -15.1063
  94   2.0000      -0.504807       -13.7365
  95   2.0000      -0.483973       -13.1696
  96   2.0000      -0.480284       -13.0692
  97   2.0000      -0.469941       -12.7878
  98   2.0000      -0.403663       -10.9842
  99   0.0000      -0.136889        -3.7249
 100   0.0000      -0.056105        -1.5267
 101   0.0000      -0.050347        -1.3700
 102   0.0000      -0.045162        -1.2289
 103   0.0000      -0.042656        -1.1607

MULLIKEN ATOMIC CHARGES
-----------------------
   0 C :    1.927911
   1 C :    1.730602
   2 C :   -0.956578
   3 C :    0.774394
   4 C :   -0.606970
   5 H :    0.110147
   6 H :    0.367989
   7 H :    0.126968
   8 H :    0.278392
   9 H :    0.268900
  10 N :    1.667321
  11 O :   -1.223756
  12 C :   -1.695941
  13 H :    0.396240
  14 H :    0.167379
  15 H :    0.207941
  16 C :   -1.729032
  17 H :    0.311053
  18 H :    0.173925
  19 H :    0.078863
  20 C :   -2.228635
  21 H :    0.152742
  22 H :    0.925811
  23 H :    0.118329
  24 C :   -1.480885
  25 H :    0.648241
  26 H :    0.303801
  27 H :    0.074785
  28 C :    0.113982
  29 H :    0.674772
  30 H :    0.340777
  31 C :    0.750746
  32 C :   -0.297799
  33 C :   -0.582764
  34 C :   -0.665146
  35 H :    0.241374
  36 C :   -0.611960
  37 H :    0.060041
  38 C :    1.497996
  39 H :    0.213210
  40 H :    0.607860
  41 O :   -0.655526
  42 C :   -1.042156
  43 H :    0.497689
  44 H :    0.304679
  45 H :    0.350571
  46 O :   -0.960692
  47 C :   -0.991682
  48 H :    0.387090
  49 H :    0.384607
  50 H :    0.386628
  51 N :   -0.531729
  52 C :    0.843892
  53 C :   -0.982939
  54 H :    0.336877
  55 H :    0.277722
  56 H :    0.331113
  57 O :   -1.034417
  58 H :   -0.134756
Sum of atomic charges:    1.0000000

LOEWDIN ATOMIC CHARGES
----------------------
   0 C :   -0.366375
   1 C :   -0.374945
   2 C :    0.327257
   3 C :   -0.042842
   4 C :    0.365824
   5 H :   -0.165543
   6 H :   -0.115390
   7 H :   -0.143878
   8 H :   -0.140966
   9 H :   -0.143948
  10 N :    0.103354
  11 O :    0.756464
  12 C :    0.617218
  13 H :   -0.228260
  14 H :   -0.142178
  15 H :   -0.157015
  16 C :    0.591071
  17 H :   -0.172834
  18 H :   -0.158580
  19 H :   -0.136662
  20 C :    0.612096
  21 H :   -0.137369
  22 H :   -0.190563
  23 H :   -0.141595
  24 C :    0.632284
  25 H :   -0.190350
  26 H :   -0.160176
  27 H :   -0.132981
  28 C :   -0.029420
  29 H :   -0.104569
  30 H :   -0.561077
  31 C :   -0.114323
  32 C :    0.228850
  33 C :    0.231576
  34 C :    0.250422
  35 H :   -0.164928
  36 C :    0.252539
  37 H :   -0.146594
  38 C :   -0.362096
  39 H :   -0.191749
  40 H :   -0.164754
  41 O :    0.625628
  42 C :    0.415398
  43 H :   -0.182096
  44 H :   -0.154067
  45 H :   -0.161298
  46 O :    0.601342
  47 C :    0.383899
  48 H :   -0.167053
  49 H :   -0.168673
  50 H :   -0.165658
  51 N :    0.596447
  52 C :   -0.650975
  53 C :    0.615691
  54 H :   -0.163971
  55 H :   -0.178217
  56 H :   -0.164234
  57 O :    0.507490
  58 H :   -0.276647

  Mayer bond orders larger than 0.100000
B(  0-C ,  2-C ) :   0.1356 B(  0-C ,  3-C ) :   0.1802 B(  0-C ,  4-C ) :   0.5293
B(  0-C ,  8-H ) :  -0.1081 B(  0-C , 10-N ) :   0.4324 B(  0-C , 12-C ) :  -0.1404
B(  0-C , 13-H ) :  -0.1434 B(  0-C , 14-H ) :  -0.1154 B(  0-C , 15-H ) :  -0.1383
B(  0-C , 17-H ) :  -0.1558 B(  0-C , 19-H ) :  -0.1099 B(  1-C ,  3-C ) :  -0.1429
B(  1-C ,  5-H ) :  -0.1200 B(  1-C , 10-N ) :   0.9145 B(  1-C , 11-O ) :   0.4251
B(  1-C , 21-H ) :  -0.1148 B(  1-C , 23-H ) :  -0.1846 B(  1-C , 24-C ) :   0.2019
B(  1-C , 27-H ) :  -0.1505 B(  2-C ,  3-C ) :   0.9806 B(  2-C ,  5-H ) :   1.3934
B(  2-C ,  6-H ) :   0.7911 B(  2-C ,  7-H ) :   0.1059 B(  2-C , 10-N ) :  -0.1715
B(  2-C , 57-O ) :   0.1312 B(  3-C ,  4-C ) :   0.8931 B(  3-C ,  7-H ) :   1.0399
B(  3-C ,  9-H ) :  -0.1334 B(  3-C , 52-C ) :  -0.3155 B(  3-C , 53-C ) :   0.1019
B(  4-C ,  8-H ) :   0.9433 B(  4-C ,  9-H ) :   1.0913 B(  4-C , 10-N ) :   0.1084
B(  4-C , 51-N ) :   0.2575 B(  5-H , 57-O ) :  -0.1024 B(  7-H , 51-N ) :  -0.2476
B(  7-H , 52-C ) :   0.1198 B(  8-H , 10-N ) :   0.1064 B( 10-N , 11-O ) :   0.3496
B( 10-N , 13-H ) :   0.1031 B( 10-N , 16-C ) :  -0.5413 B( 10-N , 18-H ) :  -0.2578
B( 10-N , 20-C ) :  -0.1889 B( 10-N , 28-C ) :   0.2628 B( 10-N , 30-H ) :   0.1961
B( 10-N , 31-C ) :  -0.1103 B( 11-O , 16-C ) :   0.1113 B( 11-O , 18-H ) :   0.1257
B( 11-O , 20-C ) :   0.1557 B( 11-O , 22-H ) :  -0.1249 B( 11-O , 30-H ) :   0.1417
B( 11-O , 31-C ) :   0.1643 B( 12-C , 13-H ) :   0.9963 B( 12-C , 14-H ) :   1.2468
B( 12-C , 15-H ) :   1.1969 B( 12-C , 16-C ) :   0.1937 B( 16-C , 17-H ) :   1.1671
B( 16-C , 18-H ) :   1.2051 B( 16-C , 19-H ) :   1.3589 B( 20-C , 21-H ) :   1.3562
B( 20-C , 22-H ) :   0.2627 B( 20-C , 23-H ) :   1.3876 B( 20-C , 25-H ) :  -0.1149
B( 22-H , 34-C ) :  -0.1083 B( 22-H , 36-C ) :  -0.1538 B( 24-C , 25-H ) :   0.6283
B( 24-C , 26-H ) :   1.0573 B( 24-C , 27-H ) :   1.3441 B( 28-C , 29-H ) :   0.5563
B( 28-C , 30-H ) :   0.4319 B( 28-C , 31-C ) :   0.7460 B( 28-C , 33-C ) :   0.2197
B( 28-C , 37-H ) :  -0.1058 B( 28-C , 38-C ) :   0.1286 B( 28-C , 39-H ) :   0.1297
B( 28-C , 41-O ) :   0.8705 B( 29-H , 30-H ) :  -0.1435 B( 29-H , 31-C ) :  -0.2107
B( 29-H , 33-C ) :  -0.1239 B( 30-H , 31-C ) :   0.4356 B( 30-H , 32-C ) :  -0.1632
B( 30-H , 33-C ) :   0.1113 B( 30-H , 41-O ) :  -0.1081 B( 31-C , 32-C ) :   0.6136
B( 31-C , 33-C ) :   0.8284 B( 31-C , 34-C ) :   0.2495 B( 31-C , 35-H ) :  -0.1217
B( 31-C , 36-C ) :   0.3871 B( 31-C , 37-H ) :  -0.1267 B( 31-C , 39-H ) :  -0.1291
B( 31-C , 41-O ) :   0.1496 B( 31-C , 46-O ) :   0.1295 B( 32-C , 33-C ) :  -0.1556
B( 32-C , 34-C ) :   1.3101 B( 32-C , 35-H ) :   1.1412 B( 32-C , 41-O ) :  -0.1939
B( 33-C , 34-C ) :  -0.1360 B( 33-C , 36-C ) :   1.4287 B( 33-C , 37-H ) :   1.3932
B( 34-C , 35-H ) :  -0.1048 B( 34-C , 38-C ) :   0.9602 B( 34-C , 39-H ) :   1.1088
B( 34-C , 46-O ) :  -0.2105 B( 36-C , 37-H ) :  -0.1164 B( 36-C , 38-C ) :   0.9437
B( 36-C , 40-H ) :   0.5190 B( 36-C , 46-O ) :   0.1449 B( 38-C , 46-O ) :   0.2032
B( 39-H , 47-C ) :  -0.1626 B( 41-O , 42-C ) :   0.9382 B( 42-C , 43-H ) :   0.7398
B( 42-C , 44-H ) :   1.0034 B( 42-C , 45-H ) :   0.9565 B( 46-O , 47-C ) :   1.0558
B( 47-C , 48-H ) :   0.8513 B( 47-C , 49-H ) :   0.9243 B( 47-C , 50-H ) :   0.8765
B( 51-N , 52-C ) :   1.0313 B( 51-N , 58-H ) :   1.3109 B( 52-C , 53-C ) :   0.3732
B( 52-C , 57-O ) :   1.6116 B( 52-C , 58-H ) :  -0.1595 B( 53-C , 54-H ) :   1.0004
B( 53-C , 55-H ) :   0.9989 B( 53-C , 56-H ) :   1.0055 B( 53-C , 57-O ) :  -0.1352

MP2 TOTAL ENERGY:    -1189.820665012 Eh
FINAL SINGLE POINT ENERGY     -1189.820665012032

DIPOLE MOMENT
-------------
                                X             Y             Z
Electronic contribution:    -13.26492      -2.36243       4.65154
Nuclear contribution   :     11.99044       3.43967      -6.59295
                        -----------------------------------------
Total Dipole Moment    :     -1.27448       1.07723      -1.94142
                        -----------------------------------------
Magnitude (a.u.)       :      2.56004
Magnitude (Debye)      :      6.50711

Rotational constants in cm-1:     0.011535     0.003468     0.003018
Rotational constants in MHz :   345.801924   103.954928    90.474288

                             ****ORCA TERMINATED NORMALLY****
TOTAL RUN TIME: 0 days 3 hours 32 minutes 6 seconds 229 msec
