                         Program Version 4.2.1 -  RELEASE  -
|  1> %pal
|  2>  nprocs 32
|  3> end
|  4> !RI-MP2 aug-cc-pVTZ aug-cc-pVTZ/C TightSCF
|  5> %maxcore 4500
|  6> *xyzfile 0 1  04_44P2.xyz
|  7>
|  8>
|  9>                          ****END OF INPUT****

CARTESIAN COORDINATES (ANGSTROEM)
---------------------------------
  C     -1.835649    0.000000    0.013038
  C     -1.121767   -1.200378    0.005299
  C      0.261928   -1.196702   -0.010276
  C      0.971284    0.000000   -0.007298
  C      0.261928    1.196702   -0.010276
  C     -1.121767    1.200378    0.005298
  S      2.759815    0.000000   -0.077669
  H     -1.657916   -2.142940    0.011042
  H      0.801714   -2.135223   -0.025071
  H      0.801714    2.135223   -0.025070
  H     -1.657916    2.142940    0.011041
  N     -3.222700    0.000000    0.073403
  H     -3.684799    0.840892   -0.233378
  H     -3.684799   -0.840890   -0.233385
  H      2.988126   -0.000005    1.248995

 Total Charge           Charge          ....    0
 Multiplicity           Mult            ....    1
 Number of Electrons    NEL             ....   66
 Basis Dimension        Dim             ....  533

ORBITAL ENERGIES
----------------

  NO   OCC          E(Eh)            E(eV)
   0   2.0000     -91.952619     -2502.1580
   1   2.0000     -15.574057      -423.7916
   2   2.0000     -11.288969      -307.1885
   3   2.0000     -11.253030      -306.2105
   4   2.0000     -11.244412      -305.9760
   5   2.0000     -11.244311      -305.9732
   6   2.0000     -11.230126      -305.5873
   7   2.0000     -11.230108      -305.5868
   8   2.0000      -8.953121      -243.6268
   9   2.0000      -6.634489      -180.5336
  10   2.0000      -6.633539      -180.5078
  11   2.0000      -6.632601      -180.4823
  12   2.0000      -1.236280       -33.6409
  13   2.0000      -1.146454       -31.1966
  14   2.0000      -1.029847       -28.0236
  15   2.0000      -1.024204       -27.8700
  16   2.0000      -0.928709       -25.2715
  17   2.0000      -0.845513       -23.0076
  18   2.0000      -0.804449       -21.8902
  19   2.0000      -0.711253       -19.3542
  20   2.0000      -0.701054       -19.0767
  21   2.0000      -0.641786       -17.4639
  22   2.0000      -0.609905       -16.5964
  23   2.0000      -0.602214       -16.3871
  24   2.0000      -0.591426       -16.0935
  25   2.0000      -0.550403       -14.9772
  26   2.0000      -0.536687       -14.6040
  27   2.0000      -0.499851       -13.6016
  28   2.0000      -0.473785       -12.8923
  29   2.0000      -0.443694       -12.0735
  30   2.0000      -0.362278        -9.8581
  31   2.0000      -0.347455        -9.4547
  32   2.0000      -0.301821        -8.2130
  33   0.0000       0.023134         0.6295
  34   0.0000       0.032527         0.8851
  35   0.0000       0.036680         0.9981
  36   0.0000       0.048268         1.3134
  37   0.0000       0.048819         1.3284

MULLIKEN ATOMIC CHARGES
-----------------------
   0 C :    1.264737
   1 C :   -0.660506
   2 C :   -0.717136
   3 C :    0.681007
   4 C :   -0.717131
   5 C :   -0.660499
   6 S :   -0.574350
   7 H :    0.503280
   8 H :    0.488278
   9 H :    0.488279
  10 H :    0.503277
  11 N :   -0.796535
  12 H :    0.063144
  13 H :    0.063143
  14 H :    0.071015
Sum of atomic charges:   -0.0000000

LOEWDIN ATOMIC CHARGES
----------------------
   0 C :   -0.252169
   1 C :    0.211640
   2 C :    0.106209
   3 C :   -0.571695
   4 C :    0.106209
   5 C :    0.211640
   6 S :    1.275338
   7 H :   -0.182594
   8 H :   -0.196789
   9 H :   -0.196790
  10 H :   -0.182594
  11 N :    0.852434
  12 H :   -0.306288
  13 H :   -0.306287
  14 H :   -0.568264

  Mayer bond orders larger than 0.100000
B(  0-C ,  1-C ) :   0.9234 B(  0-C ,  2-C ) :  -0.2029 B(  0-C ,  3-C ) :   0.1194
B(  0-C ,  4-C ) :  -0.2029 B(  0-C ,  5-C ) :   0.9234 B(  0-C , 11-N ) :   0.4863
B(  1-C ,  2-C ) :   1.2896 B(  1-C ,  5-C ) :   0.2214 B(  1-C ,  7-H ) :   0.6444
B(  1-C , 11-N ) :  -0.1190 B(  2-C ,  3-C ) :   1.1225 B(  2-C ,  4-C ) :   0.1686
B(  2-C ,  8-H ) :   0.8372 B(  3-C ,  4-C ) :   1.1225 B(  3-C ,  6-S ) :   0.9074
B(  4-C ,  5-C ) :   1.2896 B(  4-C ,  9-H ) :   0.8372 B(  5-C , 10-H ) :   0.6444
B(  5-C , 11-N ) :  -0.1190 B(  6-S ,  8-H ) :  -0.1662 B(  6-S ,  9-H ) :  -0.1662
B(  6-S , 14-H ) :   1.1881 B( 11-N , 12-H ) :   1.1284 B( 11-N , 13-H ) :   1.1284

MP2 TOTAL ENERGY:     -684.738730001 Eh
FINAL SINGLE POINT ENERGY      -684.738730000914

DIPOLE MOMENT
-------------
                                X             Y             Z
Electronic contribution:      4.97078       0.00000      -0.77899
Nuclear contribution   :     -6.13675      -0.00000       0.74953
                        -----------------------------------------
Total Dipole Moment    :     -1.16597       0.00000      -0.02947
                        -----------------------------------------
Magnitude (a.u.)       :      1.16634
Magnitude (Debye)      :      2.96460

Rotational constants in cm-1:     0.185679     0.032531     0.027855
Rotational constants in MHz :  5566.518407   975.255114   835.071475

                             ****ORCA TERMINATED NORMALLY****
TOTAL RUN TIME: 0 days 0 hours 2 minutes 43 seconds 141 msec
