                         Program Version 4.2.1 -  RELEASE  -
|  1> %pal
|  2>  nprocs 32
|  3> end
|  4> !RI-MP2 aug-cc-pVTZ aug-cc-pVTZ/C TightSCF
|  5> %maxcore 4500
|  6> *xyzfile 0 2  04_39R2.xyz
|  7>
|  8>
|  9>                          ****END OF INPUT****

CARTESIAN COORDINATES (ANGSTROEM)
---------------------------------
  C      1.618375   -0.335880    0.000000
  C      0.437163    0.620998    0.000000
  H      1.600506   -0.978021    0.881730
  H      2.560270    0.219283   -0.000023
  H      1.600480   -0.978053   -0.881706
  S     -1.188203   -0.159039    0.000000
  H      0.458377    1.285347   -0.869952
  H      0.458380    1.285351    0.869949

 Total Charge           Charge          ....    0
 Multiplicity           Mult            ....    2
 Number of Electrons    NEL             ....   33
 Basis Dimension        Dim             ....  257

ORBITAL ENERGIES
----------------
                 SPIN UP ORBITALS
  NO   OCC          E(Eh)            E(eV)
   0   1.0000     -91.967853     -2502.5725
   1   1.0000     -11.266635      -306.5807
   2   1.0000     -11.227107      -305.5051
   3   1.0000      -8.968563      -244.0470
   4   1.0000      -6.664069      -181.3385
   5   1.0000      -6.645745      -180.8399
   6   1.0000      -6.644207      -180.7981
   7   1.0000      -1.079305       -29.3694
   8   1.0000      -0.947524       -25.7834
   9   1.0000      -0.815659       -22.1952
  10   1.0000      -0.638504       -17.3746
  11   1.0000      -0.593539       -16.1510
  12   1.0000      -0.545225       -14.8363
  13   1.0000      -0.523027       -14.2323
  14   1.0000      -0.471481       -12.8297
  15   1.0000      -0.425919       -11.5899
  16   1.0000      -0.367474        -9.9995
  17   0.0000       0.029675         0.8075
  18   0.0000       0.041274         1.1231
  19   0.0000       0.041515         1.1297
  20   0.0000       0.048644         1.3237
  21   0.0000       0.064368         1.7515

                 SPIN DOWN ORBITALS
  NO   OCC          E(Eh)            E(eV)
   0   1.0000     -91.958782     -2502.3257
   1   1.0000     -11.267680      -306.6092
   2   1.0000     -11.227093      -305.5047
   3   1.0000      -8.958678      -243.7780
   4   1.0000      -6.640733      -180.7035
   5   1.0000      -6.639048      -180.6577
   6   1.0000      -6.623505      -180.2347
   7   1.0000      -1.063020       -28.9262
   8   1.0000      -0.908114       -24.7110
   9   1.0000      -0.773541       -21.0491
  10   1.0000      -0.624448       -16.9921
  11   1.0000      -0.588865       -16.0238
  12   1.0000      -0.542997       -14.7757
  13   1.0000      -0.510298       -13.8859
  14   1.0000      -0.460847       -12.5403
  15   1.0000      -0.348285        -9.4773
  16   0.0000       0.020486         0.5574
  17   0.0000       0.029852         0.8123
  18   0.0000       0.041604         1.1321
  19   0.0000       0.044462         1.2099
  20   0.0000       0.049068         1.3352

MULLIKEN ATOMIC CHARGES AND SPIN POPULATIONS
--------------------------------------------
   0 C :   -0.894541   -0.001182
   1 C :   -0.374147   -0.111016
   2 H :    0.312016   -0.001721
   3 H :    0.289316    0.000178
   4 H :    0.312018   -0.001721
   5 S :   -0.210303    1.081679
   6 H :    0.282820    0.016892
   7 H :    0.282821    0.016891
Sum of atomic charges         :   -0.0000000

LOEWDIN ATOMIC CHARGES AND SPIN POPULATIONS
-------------------------------------------
   0 C :    0.471328    0.003889
   1 C :   -0.282222    0.149733
   2 H :   -0.192151    0.000576
   3 H :   -0.181009   -0.000622
   4 H :   -0.192153    0.000576
   5 S :    0.874659    0.811198
   6 H :   -0.249226    0.017325
   7 H :   -0.249225    0.017324

  Mayer bond orders larger than 0.100000
B(  0-C ,  1-C ) :   0.9026 B(  0-C ,  2-H ) :   0.9254 B(  0-C ,  3-H ) :   0.9238
B(  0-C ,  4-H ) :   0.9254 B(  1-C ,  5-S ) :   1.0301 B(  1-C ,  6-H ) :   0.9112
B(  1-C ,  7-H ) :   0.9112

MP2 TOTAL ENERGY:     -476.711304511 Eh
FINAL SINGLE POINT ENERGY      -476.711304510629

DIPOLE MOMENT
-------------
                                X             Y             Z
Electronic contribution:     -6.14584      -0.55808       0.00000
Nuclear contribution   :      6.80854       0.85054      -0.00000
                        -----------------------------------------
Total Dipole Moment    :      0.66270       0.29246      -0.00000
                        -----------------------------------------
Magnitude (a.u.)       :      0.72436
Magnitude (Debye)      :      1.84119

Rotational constants in cm-1:     1.111571     0.180107     0.164340
Rotational constants in MHz : 33324.062867  5399.462925  4926.799346

                             ****ORCA TERMINATED NORMALLY****
TOTAL RUN TIME: 0 days 0 hours 0 minutes 25 seconds 687 msec
