                         Program Version 4.2.1 -  RELEASE  -
|  1> %pal
|  2>  nprocs 32
|  3> end
|  4> !RI-MP2 aug-cc-pVTZ aug-cc-pVTZ/C TightSCF
|  5> %maxcore 4500
|  6> *xyzfile 1 1  10_32P.xyz
|  7>
|  8>
|  9>                          ****END OF INPUT****

CARTESIAN COORDINATES (ANGSTROEM)
---------------------------------
  C     -1.447179   -2.686809   -0.538473
  C     -0.579338   -1.633536    0.160196
  C     -2.629054   -0.914214    0.593373
  C     -2.883467   -2.144611   -0.284272
  H     -1.201794   -2.761546   -1.595503
  H     -1.304659   -3.666432   -0.082377
  H     -3.419842   -1.892924   -1.201756
  H     -3.505006   -2.853774    0.261356
  C     -1.408301   -1.317197    1.410976
  H     -1.005975   -0.533559    2.048422
  H     -1.612425   -2.198668    2.016850
  H      0.463408   -1.896273    0.295120
  H     -3.491189   -0.482124    1.094676
  N     -2.009499    0.132909   -0.322468
  N     -0.687048   -0.404804   -0.669373
  C      0.268761    0.724378   -0.505450
  C      1.675285    0.249067   -0.243926
  C      2.190424    0.091254    1.040200
  C      2.479283   -0.066634   -1.335880
  C      3.482647   -0.378893    1.226464
  H      1.597003    0.337565    1.911996
  C      3.769088   -0.541681   -1.151884
  H      2.091050    0.061689   -2.340133
  C      4.272920   -0.699183    0.131516
  H      3.874574   -0.489929    2.229747
  H      4.383114   -0.781412   -2.010826
  H      5.282033   -1.063041    0.278588
  C     -1.862380    1.550207    0.241444
  C     -0.357015    1.674833    0.519425
  C      0.203536    3.087354    0.447952
  H     -0.292288    3.752067    1.157177
  H      1.265038    3.072479    0.696178
  H      0.103522    3.514675   -0.550959
  C     -2.449593    2.528942   -0.758396
  H     -3.500590    2.303617   -0.954646
  H     -2.406454    3.540725   -0.358162
  H     -1.906107    2.519899   -1.705808
  H      0.277253    1.237977   -1.471993
  H     -0.174902    1.289289    1.522533
  H     -2.438217    1.569840    1.166194
  H     -2.555424    0.183463   -1.183379

 Total Charge           Charge          ....    1
 Multiplicity           Mult            ....    1
 Number of Electrons    NEL             ....  132
 Basis Dimension        Dim             .... 1357

ORBITAL ENERGIES
----------------

  NO   OCC          E(Eh)            E(eV)
   0   2.0000     -15.845278      -431.1719
   1   2.0000     -15.747123      -428.5010
   2   2.0000     -11.437310      -311.2250
   3   2.0000     -11.436134      -311.1930
   4   2.0000     -11.406563      -310.3884
   5   2.0000     -11.403316      -310.3000
   6   2.0000     -11.376816      -309.5789
   7   2.0000     -11.374045      -309.5035
   8   2.0000     -11.371191      -309.4258
   9   2.0000     -11.368472      -309.3519
  10   2.0000     -11.355495      -308.9987
  11   2.0000     -11.354187      -308.9631
  12   2.0000     -11.345028      -308.7139
  13   2.0000     -11.341789      -308.6258
  14   2.0000     -11.341290      -308.6122
  15   2.0000     -11.338274      -308.5301
  16   2.0000     -11.336667      -308.4864
  17   2.0000     -11.335339      -308.4503
  18   2.0000      -1.529671       -41.6245
  19   2.0000      -1.310464       -35.6595
  20   2.0000      -1.300567       -35.3902
  21   2.0000      -1.259373       -34.2693
  22   2.0000      -1.226906       -33.3858
  23   2.0000      -1.158478       -31.5238
  24   2.0000      -1.130613       -30.7656
  25   2.0000      -1.124073       -30.5876
  26   2.0000      -1.122688       -30.5499
  27   2.0000      -1.079147       -29.3651
  28   2.0000      -1.053931       -28.6789
  29   2.0000      -1.003795       -27.3146
  30   2.0000      -0.969271       -26.3752
  31   2.0000      -0.946954       -25.7679
  32   2.0000      -0.930030       -25.3074
  33   2.0000      -0.920068       -25.0363
  34   2.0000      -0.907215       -24.6866
  35   2.0000      -0.858170       -23.3520
  36   2.0000      -0.844553       -22.9814
  37   2.0000      -0.837330       -22.7849
  38   2.0000      -0.801917       -21.8213
  39   2.0000      -0.786522       -21.4023
  40   2.0000      -0.767137       -20.8749
  41   2.0000      -0.749641       -20.3988
  42   2.0000      -0.744272       -20.2527
  43   2.0000      -0.739247       -20.1159
  44   2.0000      -0.725415       -19.7396
  45   2.0000      -0.703301       -19.1378
  46   2.0000      -0.698216       -18.9994
  47   2.0000      -0.696569       -18.9546
  48   2.0000      -0.690993       -18.8029
  49   2.0000      -0.688952       -18.7473
  50   2.0000      -0.679191       -18.4817
  51   2.0000      -0.670552       -18.2466
  52   2.0000      -0.667461       -18.1625
  53   2.0000      -0.651140       -17.7184
  54   2.0000      -0.645916       -17.5763
  55   2.0000      -0.625869       -17.0308
  56   2.0000      -0.620208       -16.8767
  57   2.0000      -0.619019       -16.8444
  58   2.0000      -0.610101       -16.6017
  59   2.0000      -0.607461       -16.5298
  60   2.0000      -0.605840       -16.4857
  61   2.0000      -0.594151       -16.1677
  62   2.0000      -0.588405       -16.0113
  63   2.0000      -0.528757       -14.3882
  64   2.0000      -0.445367       -12.1191
  65   2.0000      -0.444189       -12.0870
  66   0.0000      -0.069117        -1.8808
  67   0.0000      -0.060562        -1.6480
  68   0.0000      -0.052009        -1.4152
  69   0.0000      -0.051034        -1.3887
  70   0.0000      -0.039413        -1.0725

MULLIKEN ATOMIC CHARGES
-----------------------
   0 C :   -1.073096
   1 C :   -0.145679
   2 C :   -0.493770
   3 C :   -0.650328
   4 H :    0.341520
   5 H :    0.241631
   6 H :    0.264683
   7 H :    0.274262
   8 C :   -0.562884
   9 H :    0.102855
  10 H :    0.487682
  11 H :    0.900881
  12 H :    0.492576
  13 N :    0.649649
  14 N :   -0.920112
  15 C :    1.219895
  16 C :    1.869384
  17 C :   -0.146103
  18 C :   -1.268751
  19 C :   -1.057131
  20 H :    0.122808
  21 C :   -0.650305
  22 H :   -0.030134
  23 C :   -0.230588
  24 H :    0.388638
  25 H :    0.541761
  26 H :    0.669262
  27 C :    0.058254
  28 C :    0.277731
  29 C :   -1.241606
  30 H :    0.250265
  31 H :    0.260100
  32 H :    0.255434
  33 C :   -1.090143
  34 H :    0.267145
  35 H :    0.212181
  36 H :    0.319126
  37 H :   -0.091445
  38 H :   -0.065771
  39 H :    0.385547
  40 H :   -0.135424
Sum of atomic charges:    1.0000000

LOEWDIN ATOMIC CHARGES
----------------------
   0 C :    0.370439
   1 C :   -0.045343
   2 C :    0.044908
   3 C :    0.377822
   4 H :   -0.131394
   5 H :   -0.126162
   6 H :   -0.127952
   7 H :   -0.122728
   8 C :    0.386676
   9 H :   -0.144108
  10 H :   -0.104633
  11 H :   -0.124717
  12 H :   -0.089937
  13 N :    0.461345
  14 N :    0.396139
  15 C :   -0.071254
  16 C :   -0.099773
  17 C :    0.221818
  18 C :    0.238555
  19 C :    0.227691
  20 H :   -0.179971
  21 C :    0.227493
  22 H :   -0.161761
  23 C :    0.222389
  24 H :   -0.170901
  25 H :   -0.170169
  26 H :   -0.169806
  27 C :    0.043945
  28 C :    0.026182
  29 C :    0.636122
  30 H :   -0.140646
  31 H :   -0.142899
  32 H :   -0.154145
  33 C :    0.643116
  34 H :   -0.140778
  35 H :   -0.144444
  36 H :   -0.139815
  37 H :   -0.136944
  38 H :   -0.173368
  39 H :   -0.106716
  40 H :   -0.204274

  Mayer bond orders larger than 0.100000
B(  0-C ,  1-C ) :   0.8278 B(  0-C ,  3-C ) :   1.2247 B(  0-C ,  4-H ) :   0.9476
B(  0-C ,  5-H ) :   1.0584 B(  0-C , 11-H ) :  -0.2583 B(  1-C ,  8-C ) :   0.8707
B(  1-C , 11-H ) :   0.3574 B(  1-C , 14-N ) :   1.2033 B(  1-C , 15-C ) :   0.1647
B(  2-C ,  3-C ) :   0.9552 B(  2-C ,  8-C ) :   1.0358 B(  2-C , 12-H ) :   0.6989
B(  2-C , 13-N ) :   1.0109 B(  2-C , 27-C ) :  -0.1413 B(  3-C ,  6-H ) :   0.9761
B(  3-C ,  7-H ) :   0.9978 B(  3-C , 13-N ) :  -0.1613 B(  8-C ,  9-H ) :   1.1614
B(  8-C , 10-H ) :   0.7645 B(  8-C , 13-N ) :  -0.1038 B( 11-H , 14-N ) :  -0.1754
B( 11-H , 17-C ) :  -0.1165 B( 13-N , 14-N ) :   0.6137 B( 13-N , 27-C ) :   1.1213
B( 13-N , 28-C ) :   0.1204 B( 13-N , 40-H ) :   0.9051 B( 14-N , 15-C ) :   0.3919
B( 14-N , 16-C ) :  -0.1407 B( 14-N , 27-C ) :  -0.1177 B( 14-N , 28-C ) :   0.1098
B( 14-N , 37-H ) :   0.1975 B( 15-C , 16-C ) :   0.2130 B( 15-C , 17-C ) :   0.3626
B( 15-C , 18-C ) :   0.1043 B( 15-C , 19-C ) :   0.1735 B( 15-C , 22-H ) :  -0.1458
B( 15-C , 28-C ) :   0.7522 B( 15-C , 33-C ) :  -0.1548 B( 15-C , 37-H ) :   1.0386
B( 16-C , 17-C ) :   0.4353 B( 16-C , 18-C ) :  -0.1742 B( 16-C , 20-H ) :  -0.1208
B( 16-C , 22-H ) :  -0.2070 B( 16-C , 27-C ) :   0.1199 B( 16-C , 28-C ) :   0.2389
B( 16-C , 37-H ) :  -0.1863 B( 17-C , 18-C ) :  -0.3388 B( 17-C , 19-C ) :   1.1876
B( 17-C , 20-H ) :   1.4839 B( 17-C , 22-H ) :   0.1435 B( 17-C , 23-C ) :   0.1582
B( 17-C , 26-H ) :  -0.1066 B( 17-C , 28-C ) :  -0.1881 B( 17-C , 38-H ) :   0.2268
B( 18-C , 19-C ) :   0.1272 B( 18-C , 20-H ) :   0.1294 B( 18-C , 21-C ) :   1.2547
B( 18-C , 22-H ) :   1.6293 B( 18-C , 25-H ) :  -0.1022 B( 18-C , 27-C ) :  -0.1102
B( 18-C , 28-C ) :   0.1441 B( 19-C , 20-H ) :  -0.1940 B( 19-C , 23-C ) :   1.2161
B( 19-C , 24-H ) :   0.9034 B( 19-C , 26-H ) :  -0.1529 B( 19-C , 38-H ) :  -0.1442
B( 20-H , 21-C ) :  -0.1103 B( 20-H , 38-H ) :  -0.1063 B( 21-C , 23-C ) :   1.1590
B( 21-C , 25-H ) :   0.6437 B( 21-C , 26-H ) :  -0.1249 B( 23-C , 26-H ) :   0.4324
B( 27-C , 28-C ) :   1.0419 B( 27-C , 33-C ) :   0.5975 B( 27-C , 38-H ) :  -0.1157
B( 27-C , 39-H ) :   0.8971 B( 28-C , 29-C ) :   0.2169 B( 28-C , 30-H ) :  -0.1003
B( 28-C , 32-H ) :  -0.1745 B( 28-C , 33-C ) :   0.1400 B( 28-C , 38-H ) :   1.1474
B( 29-C , 30-H ) :   1.0838 B( 29-C , 31-H ) :   1.0671 B( 29-C , 32-H ) :   1.1266
B( 33-C , 34-H ) :   0.9869 B( 33-C , 35-H ) :   1.1516 B( 33-C , 36-H ) :   0.9731

MP2 TOTAL ENERGY:     -731.291912552 Eh
FINAL SINGLE POINT ENERGY      -731.291912552161

DIPOLE MOMENT
-------------
                                X             Y             Z
Electronic contribution:      7.36799      -4.69816      -1.00485
Nuclear contribution   :     -9.74374       4.88742       1.24954
                        -----------------------------------------
Total Dipole Moment    :     -2.37574       0.18926       0.24469
                        -----------------------------------------
Magnitude (a.u.)       :      2.39580
Magnitude (Debye)      :      6.08964

Rotational constants in cm-1:     0.022129     0.011729     0.009086
Rotational constants in MHz :   663.406742   351.622685   272.379498

                             ****ORCA TERMINATED NORMALLY****
TOTAL RUN TIME: 0 days 0 hours 53 minutes 31 seconds 509 msec
