                         Program Version 4.2.1 -  RELEASE  -
|  1> %pal
|  2>  nprocs 32
|  3> end
|  4> !RI-MP2 aug-cc-pVTZ aug-cc-pVTZ/C TightSCF
|  5> %maxcore 4500
|  6> *xyzfile 0 2  01_32P.xyz
|  7>
|  8>
|  9>                          ****END OF INPUT****

CARTESIAN COORDINATES (ANGSTROEM)
---------------------------------
  C      1.074515    2.332030    0.062177
  C      1.053686    0.855613   -0.146432
  O      0.085687    0.169406    0.543720
  C      2.315555    0.124827   -0.336754
  Si    -1.464649   -0.196978    0.014017
  C     -2.254307   -1.054331    1.466205
  H     -1.684603   -1.942023    1.749659
  H     -3.274309   -1.369857    1.231803
  H     -2.297266   -0.393048    2.334322
  C     -1.361990   -1.317456   -1.478519
  H     -0.750853   -0.864009   -2.262590
  H     -2.355389   -1.504861   -1.895046
  H     -0.919345   -2.283463   -1.225985
  C     -2.386472    1.366935   -0.436063
  H     -2.423160    2.065080    0.403291
  H     -3.416324    1.133171   -0.720104
  H     -1.920402    1.876990   -1.282325
  H      1.802271    2.806864   -0.598059
  H      0.096689    2.779667   -0.124695
  H      1.351698    2.577073    1.098852
  C      2.343647   -1.372481   -0.474570
  H      3.055247    0.671828   -0.909584
  C      2.868307   -0.750102    0.780957
  H      3.050022   -1.798775   -1.175309
  H      1.395840   -1.889057   -0.412254
  H      3.937105   -0.739523    0.951949
  H      2.254714   -0.833824    1.668064

 Total Charge           Charge          ....    0
 Multiplicity           Mult            ....    2
 Number of Electrons    NEL             ....   87
 Basis Dimension        Dim             ....  855

ORBITAL ENERGIES
----------------
                 SPIN UP ORBITALS
  NO   OCC          E(Eh)            E(eV)
   0   1.0000     -68.773769     -1871.4294
   1   1.0000     -20.543266      -559.0107
   2   1.0000     -11.274323      -306.7899
   3   1.0000     -11.223314      -305.4019
   4   1.0000     -11.218821      -305.2796
   5   1.0000     -11.218045      -305.2585
   6   1.0000     -11.212551      -305.1090
   7   1.0000     -11.197225      -304.6920
   8   1.0000     -11.195334      -304.6405
   9   1.0000     -11.194860      -304.6276
  10   1.0000      -6.117604      -166.4685
  11   1.0000      -4.224705      -114.9601
  12   1.0000      -4.223924      -114.9388
  13   1.0000      -4.223756      -114.9342
  14   1.0000      -1.361135       -37.0384
  15   1.0000      -1.138459       -30.9790
  16   1.0000      -1.017534       -27.6885
  17   1.0000      -0.965624       -26.2760
  18   1.0000      -0.925493       -25.1840
  19   1.0000      -0.924892       -25.1676
  20   1.0000      -0.872051       -23.7297
  21   1.0000      -0.818038       -22.2600
  22   1.0000      -0.767517       -20.8852
  23   1.0000      -0.673217       -18.3192
  24   1.0000      -0.670210       -18.2373
  25   1.0000      -0.636459       -17.3189
  26   1.0000      -0.607831       -16.5399
  27   1.0000      -0.586452       -15.9582
  28   1.0000      -0.562241       -15.2994
  29   1.0000      -0.560994       -15.2654
  30   1.0000      -0.560630       -15.2555
  31   1.0000      -0.555920       -15.1274
  32   1.0000      -0.541593       -14.7375
  33   1.0000      -0.537828       -14.6350
  34   1.0000      -0.530699       -14.4411
  35   1.0000      -0.526197       -14.3185
  36   1.0000      -0.516610       -14.0577
  37   1.0000      -0.505765       -13.7626
  38   1.0000      -0.470772       -12.8103
  39   1.0000      -0.442656       -12.0453
  40   1.0000      -0.426945       -11.6178
  41   1.0000      -0.422386       -11.4937
  42   1.0000      -0.412258       -11.2181
  43   1.0000      -0.291164        -7.9230
  44   0.0000       0.025379         0.6906
  45   0.0000       0.032239         0.8773
  46   0.0000       0.033009         0.8982
  47   0.0000       0.034056         0.9267
  48   0.0000       0.045165         1.2290

                 SPIN DOWN ORBITALS
  NO   OCC          E(Eh)            E(eV)
   0   1.0000     -68.773622     -1871.4254
   1   1.0000     -20.540310      -558.9302
   2   1.0000     -11.249898      -306.1253
   3   1.0000     -11.226645      -305.4925
   4   1.0000     -11.217227      -305.2363
   5   1.0000     -11.215284      -305.1834
   6   1.0000     -11.214807      -305.1704
   7   1.0000     -11.197251      -304.6927
   8   1.0000     -11.195347      -304.6409
   9   1.0000     -11.194911      -304.6290
  10   1.0000      -6.117351      -166.4616
  11   1.0000      -4.224342      -114.9502
  12   1.0000      -4.223804      -114.9355
  13   1.0000      -4.223638      -114.9310
  14   1.0000      -1.345501       -36.6129
  15   1.0000      -1.131792       -30.7976
  16   1.0000      -0.993673       -27.0392
  17   1.0000      -0.965322       -26.2677
  18   1.0000      -0.925492       -25.1839
  19   1.0000      -0.924829       -25.1659
  20   1.0000      -0.857801       -23.3420
  21   1.0000      -0.810747       -22.0615
  22   1.0000      -0.758150       -20.6303
  23   1.0000      -0.668138       -18.1810
  24   1.0000      -0.647455       -17.6181
  25   1.0000      -0.616891       -16.7865
  26   1.0000      -0.585503       -15.9323
  27   1.0000      -0.580746       -15.8029
  28   1.0000      -0.561358       -15.2753
  29   1.0000      -0.558968       -15.2103
  30   1.0000      -0.554031       -15.0760
  31   1.0000      -0.548597       -14.9281
  32   1.0000      -0.540261       -14.7012
  33   1.0000      -0.536319       -14.5940
  34   1.0000      -0.530489       -14.4353
  35   1.0000      -0.514356       -13.9963
  36   1.0000      -0.511467       -13.9177
  37   1.0000      -0.500297       -13.6138
  38   1.0000      -0.467832       -12.7303
  39   1.0000      -0.428844       -11.6694
  40   1.0000      -0.419278       -11.4091
  41   1.0000      -0.411586       -11.1998
  42   1.0000      -0.407367       -11.0850
  43   0.0000       0.025296         0.6883
  44   0.0000       0.032250         0.8776
  45   0.0000       0.033038         0.8990
  46   0.0000       0.034141         0.9290
  47   0.0000       0.044993         1.2243

MULLIKEN ATOMIC CHARGES AND SPIN POPULATIONS
--------------------------------------------
   0 C :   -1.152809   -0.209472
   1 C :    0.741905    1.100276
   2 O :   -0.499371    0.084463
   3 C :   -0.230202   -0.205081
   4 Si:    1.903452    0.023689
   5 C :   -1.329578   -0.004123
   6 H :    0.245185   -0.000379
   7 H :    0.246604   -0.000068
   8 H :    0.255120   -0.000210
   9 C :   -1.177509   -0.002544
  10 H :    0.332175   -0.006121
  11 H :    0.204165   -0.001659
  12 H :    0.216768    0.002085
  13 C :   -1.194752   -0.002727
  14 H :    0.261923    0.000314
  15 H :    0.222291   -0.000473
  16 H :    0.281250   -0.002128
  17 H :    0.220380    0.004171
  18 H :    0.376512    0.007225
  19 H :    0.248750    0.069932
  20 C :   -1.225832    0.016142
  21 H :    0.430967   -0.006831
  22 C :   -0.863202    0.142354
  23 H :    0.377290   -0.003792
  24 H :    0.420032   -0.001042
  25 H :    0.383015    0.001790
  26 H :    0.305470   -0.005788
Sum of atomic charges         :    0.0000000

LOEWDIN ATOMIC CHARGES AND SPIN POPULATIONS
-------------------------------------------
   0 C :    0.559359    0.103245
   1 C :   -0.379894    0.533137
   2 O :    0.397830    0.137978
   3 C :    0.003622    0.078012
   4 Si:    0.336208    0.012055
   5 C :    0.586833   -0.000370
   6 H :   -0.229904    0.000121
   7 H :   -0.230760   -0.000223
   8 H :   -0.229297    0.000237
   9 C :    0.587154    0.002085
  10 H :   -0.225073    0.002219
  11 H :   -0.228692   -0.000087
  12 H :   -0.234547    0.000284
  13 C :    0.583249    0.000778
  14 H :   -0.226998    0.000240
  15 H :   -0.228360   -0.000132
  16 H :   -0.232323    0.000766
  17 H :   -0.178260    0.002494
  18 H :   -0.196869    0.008385
  19 H :   -0.157718    0.027855
  20 C :    0.353579    0.020207
  21 H :   -0.149014   -0.002498
  22 C :    0.375939    0.052363
  23 H :   -0.153302    0.002667
  24 H :   -0.181053    0.002218
  25 H :   -0.158781    0.011025
  26 H :   -0.162931    0.004940

  Mayer bond orders larger than 0.100000
B(  0-C ,  1-C ) :   0.6935 B(  0-C , 17-H ) :   1.1049 B(  0-C , 18-H ) :   0.8951
B(  0-C , 19-H ) :   1.0120 B(  1-C ,  2-O ) :   0.7163 B(  1-C ,  3-C ) :   0.6077
B(  2-O ,  3-C ) :  -0.1829 B(  2-O ,  4-Si) :   0.6750 B(  2-O ,  9-C ) :   0.1748
B(  2-O , 22-C ) :  -0.1007 B(  3-C , 20-C ) :   0.5930 B(  3-C , 21-H ) :   0.7373
B(  3-C , 22-C ) :   0.6554 B(  4-Si,  5-C ) :   0.6693 B(  4-Si,  9-C ) :   0.5851
B(  4-Si, 13-C ) :   0.6967 B(  5-C ,  6-H ) :   1.0008 B(  5-C ,  7-H ) :   0.9905
B(  5-C ,  8-H ) :   0.9951 B(  5-C ,  9-C ) :   0.1878 B(  5-C , 13-C ) :   0.1826
B(  9-C , 10-H ) :   0.9302 B(  9-C , 11-H ) :   0.9653 B(  9-C , 12-H ) :   1.0220
B(  9-C , 13-C ) :   0.1597 B( 13-C , 14-H ) :   0.9690 B( 13-C , 15-H ) :   0.9461
B( 13-C , 16-H ) :   0.9962 B( 20-C , 21-H ) :  -0.1083 B( 20-C , 22-C ) :   1.2231
B( 20-C , 23-H ) :   0.7898 B( 20-C , 24-H ) :   0.7626 B( 22-C , 25-H ) :   0.8196
B( 22-C , 26-H ) :   0.8935

MP2 TOTAL ENERGY:     -678.548745870 Eh
FINAL SINGLE POINT ENERGY      -678.548745870062

DIPOLE MOMENT
-------------
                                X             Y             Z
Electronic contribution:      1.92220      -0.21502       0.96619
Nuclear contribution   :     -2.08544       0.31873      -1.20516
                        -----------------------------------------
Total Dipole Moment    :     -0.16324       0.10371      -0.23897
                        -----------------------------------------
Magnitude (a.u.)       :      0.30742
Magnitude (Debye)      :      0.78140

Rotational constants in cm-1:     0.053114     0.025399     0.021650
Rotational constants in MHz :  1592.307940   761.427965   649.059918

                             ****ORCA TERMINATED NORMALLY****
TOTAL RUN TIME: 0 days 0 hours 16 minutes 38 seconds 588 msec
