                         Program Version 4.2.1 -  RELEASE  -
|  1> %pal
|  2>  nprocs 32
|  3> end
|  4> !RI-MP2 aug-cc-pVTZ aug-cc-pVTZ/C TightSCF
|  5> %maxcore 4500
|  6> *xyzfile 0 2  01_46R1.xyz
|  7>
|  8>
|  9>                          ****END OF INPUT****

CARTESIAN COORDINATES (ANGSTROEM)
---------------------------------
  C     -1.153848   -0.847181    1.138372
  H     -1.586719   -0.092741    1.799772
  H     -1.067639   -1.759624    1.736650
  C     -2.125926   -1.110269   -0.026849
  H     -1.802353   -1.996043   -0.583298
  H     -3.111717   -1.333727    0.390479
  C     -2.243603    0.046337   -1.009489
  H     -3.012954   -0.182177   -1.749311
  H     -1.299475    0.173972   -1.550709
  C      0.207560   -0.391459    0.725600
  C      1.871339    1.184145   -0.607499
  C      2.550427   -0.165488   -0.446215
  H      1.383139    1.262742   -1.578899
  H      2.576238    2.006834   -0.489853
  H      3.133873   -0.428919   -1.328252
  H      3.197887   -0.176521    0.430582
  O     -2.628681    1.264499   -0.392401
  H     -1.837573    1.685820   -0.039534
  S      1.243515   -1.415923   -0.244368
  S      0.620301    1.317666    0.710497

 Total Charge           Charge          ....    0
 Multiplicity           Mult            ....    2
 Number of Electrons    NEL             ....   87
 Basis Dimension        Dim             ....  675

ORBITAL ENERGIES
----------------
                 SPIN UP ORBITALS
  NO   OCC          E(Eh)            E(eV)
   0   1.0000     -91.973661     -2502.7306
   1   1.0000     -91.970085     -2502.6332
   2   1.0000     -20.543171      -559.0081
   3   1.0000     -11.286004      -307.1078
   4   1.0000     -11.282551      -307.0138
   5   1.0000     -11.280899      -306.9689
   6   1.0000     -11.266604      -306.5799
   7   1.0000     -11.237710      -305.7936
   8   1.0000     -11.223217      -305.3993
   9   1.0000      -8.974005      -244.1951
  10   1.0000      -8.970400      -244.0970
  11   1.0000      -6.655107      -181.0947
  12   1.0000      -6.654647      -181.0821
  13   1.0000      -6.653315      -181.0459
  14   1.0000      -6.651596      -180.9991
  15   1.0000      -6.651065      -180.9847
  16   1.0000      -6.649764      -180.9493
  17   1.0000      -1.348427       -36.6926
  18   1.0000      -1.162966       -31.6459
  19   1.0000      -1.079082       -29.3633
  20   1.0000      -1.005875       -27.3713
  21   1.0000      -0.999203       -27.1897
  22   1.0000      -0.921687       -25.0804
  23   1.0000      -0.823637       -22.4123
  24   1.0000      -0.820038       -22.3144
  25   1.0000      -0.726871       -19.7792
  26   1.0000      -0.694335       -18.8938
  27   1.0000      -0.667855       -18.1733
  28   1.0000      -0.638104       -17.3637
  29   1.0000      -0.633831       -17.2474
  30   1.0000      -0.612609       -16.6700
  31   1.0000      -0.573181       -15.5970
  32   1.0000      -0.565124       -15.3778
  33   1.0000      -0.557531       -15.1712
  34   1.0000      -0.536177       -14.5901
  35   1.0000      -0.514763       -14.0074
  36   1.0000      -0.487727       -13.2717
  37   1.0000      -0.482649       -13.1335
  38   1.0000      -0.479506       -13.0480
  39   1.0000      -0.463828       -12.6214
  40   1.0000      -0.435445       -11.8491
  41   1.0000      -0.426784       -11.6134
  42   1.0000      -0.376302       -10.2397
  43   1.0000      -0.278810        -7.5868
  44   0.0000       0.024511         0.6670
  45   0.0000       0.034097         0.9278
  46   0.0000       0.036174         0.9843
  47   0.0000       0.038557         1.0492
  48   0.0000       0.047924         1.3041

                 SPIN DOWN ORBITALS
  NO   OCC          E(Eh)            E(eV)
   0   1.0000     -91.973448     -2502.7248
   1   1.0000     -91.969821     -2502.6261
   2   1.0000     -20.543152      -559.0076
   3   1.0000     -11.282355      -307.0085
   4   1.0000     -11.280854      -306.9677
   5   1.0000     -11.266750      -306.5838
   6   1.0000     -11.260451      -306.4125
   7   1.0000     -11.240469      -305.8687
   8   1.0000     -11.221141      -305.3428
   9   1.0000      -8.973716      -244.1872
  10   1.0000      -8.970103      -244.0889
  11   1.0000      -6.656010      -181.1192
  12   1.0000      -6.654536      -181.0791
  13   1.0000      -6.652362      -181.0200
  14   1.0000      -6.651490      -180.9962
  15   1.0000      -6.650880      -180.9796
  16   1.0000      -6.647714      -180.8935
  17   1.0000      -1.348336       -36.6901
  18   1.0000      -1.145868       -31.1807
  19   1.0000      -1.069346       -29.0984
  20   1.0000      -0.995760       -27.0960
  21   1.0000      -0.986727       -26.8502
  22   1.0000      -0.920709       -25.0538
  23   1.0000      -0.821023       -22.3412
  24   1.0000      -0.813054       -22.1243
  25   1.0000      -0.701892       -19.0995
  26   1.0000      -0.682818       -18.5804
  27   1.0000      -0.664246       -18.0750
  28   1.0000      -0.635966       -17.3055
  29   1.0000      -0.631669       -17.1886
  30   1.0000      -0.601601       -16.3704
  31   1.0000      -0.565211       -15.3802
  32   1.0000      -0.560663       -15.2564
  33   1.0000      -0.548143       -14.9157
  34   1.0000      -0.518429       -14.1072
  35   1.0000      -0.505593       -13.7579
  36   1.0000      -0.484679       -13.1888
  37   1.0000      -0.478661       -13.0250
  38   1.0000      -0.466578       -12.6962
  39   1.0000      -0.437487       -11.9046
  40   1.0000      -0.429713       -11.6931
  41   1.0000      -0.399784       -10.8787
  42   1.0000      -0.351700        -9.5702
  43   0.0000       0.024557         0.6682
  44   0.0000       0.034065         0.9270
  45   0.0000       0.036118         0.9828
  46   0.0000       0.038672         1.0523
  47   0.0000       0.047949         1.3048

MULLIKEN ATOMIC CHARGES AND SPIN POPULATIONS
--------------------------------------------
   0 C :   -0.397792   -0.182423
   1 H :    0.196053   -0.005115
   2 H :    0.360924    0.040267
   3 C :   -0.491311    0.061947
   4 H :    0.215345   -0.006146
   5 H :    0.305400   -0.003501
   6 C :   -0.250451   -0.003307
   7 H :    0.278482    0.001570
   8 H :    0.386105   -0.005503
   9 C :    0.581742    1.119139
  10 C :   -0.431472    0.007740
  11 C :   -0.450821    0.003714
  12 H :    0.235924   -0.000951
  13 H :    0.335339   -0.000218
  14 H :    0.305685   -0.002331
  15 H :    0.230695    0.001214
  16 O :   -0.718769   -0.001551
  17 H :    0.255119    0.003165
  18 S :   -0.473897   -0.005725
  19 S :   -0.472300   -0.021985
Sum of atomic charges         :   -0.0000000

LOEWDIN ATOMIC CHARGES AND SPIN POPULATIONS
-------------------------------------------
   0 C :    0.103753    0.091346
   1 H :   -0.181248    0.001368
   2 H :   -0.167367    0.010638
   3 C :    0.252213    0.026687
   4 H :   -0.160679    0.001162
   5 H :   -0.146841    0.004933
   6 C :    0.012885    0.001786
   7 H :   -0.160079    0.000260
   8 H :   -0.174664   -0.000464
   9 C :   -0.863993    0.564250
  10 C :   -0.110260    0.012374
  11 C :   -0.122356    0.007673
  12 H :   -0.221920    0.003579
  13 H :   -0.220032   -0.000085
  14 H :   -0.220808    0.000085
  15 H :   -0.222762    0.001465
  16 O :    0.814215    0.000347
  17 H :   -0.603166    0.003069
  18 S :    1.183858    0.138805
  19 S :    1.209253    0.130721

  Mayer bond orders larger than 0.100000
B(  0-C ,  1-H ) :   1.0566 B(  0-C ,  2-H ) :   0.8805 B(  0-C ,  3-C ) :   0.8850
B(  0-C ,  9-C ) :   0.6962 B(  2-H ,  9-C ) :  -0.1067 B(  3-C ,  4-H ) :   0.9722
B(  3-C ,  5-H ) :   0.8880 B(  3-C ,  6-C ) :   0.8507 B(  3-C , 16-O ) :   0.1673
B(  6-C ,  7-H ) :   1.0257 B(  6-C ,  8-H ) :   0.8766 B(  6-C , 16-O ) :   0.5820
B(  9-C , 11-C ) :  -0.1132 B(  9-C , 18-S ) :   0.8823 B(  9-C , 19-S ) :   0.7935
B( 10-C , 11-C ) :   1.0083 B( 10-C , 12-H ) :   0.9463 B( 10-C , 13-H ) :   0.8899
B( 10-C , 19-S ) :   1.0008 B( 11-C , 14-H ) :   0.9003 B( 11-C , 15-H ) :   0.9732
B( 11-C , 18-S ) :   1.0241 B( 16-O , 17-H ) :   0.9026

MP2 TOTAL ENERGY:    -1105.265092233 Eh
FINAL SINGLE POINT ENERGY     -1105.265092232762

DIPOLE MOMENT
-------------
                                X             Y             Z
Electronic contribution:      4.69569       0.68328       2.64381
Nuclear contribution   :     -3.52882      -0.81802      -2.98512
                        -----------------------------------------
Total Dipole Moment    :      1.16687      -0.13474      -0.34131
                        -----------------------------------------
Magnitude (a.u.)       :      1.22321
Magnitude (Debye)      :      3.10914

Rotational constants in cm-1:     0.059422     0.029973     0.024445
Rotational constants in MHz :  1781.428658   898.560608   732.846774

                             ****ORCA TERMINATED NORMALLY****
TOTAL RUN TIME: 0 days 0 hours 9 minutes 53 seconds 206 msec
