                         Program Version 4.2.1 -  RELEASE  -
|  1> %pal
|  2>  nprocs 32
|  3> end
|  4> !RI-MP2 aug-cc-pVTZ aug-cc-pVTZ/C TightSCF
|  5> %maxcore 4500
|  6> *xyzfile 0 1  08_11P1.xyz
|  7>
|  8>
|  9>                          ****END OF INPUT****

CARTESIAN COORDINATES (ANGSTROEM)
---------------------------------
  C     -1.566486   -1.444212   -0.607080
  S     -1.943168    0.272109   -0.145893
  C     -0.659397    0.625377    1.091073
  C      0.749056    0.841585    0.526248
  H     -0.634584   -0.172542    1.832368
  H     -0.996883    1.538753    1.582726
  N      0.825210    1.731136   -0.628669
  C      1.419614   -0.502382    0.194681
  H      1.363403    1.258290    1.330030
  O      1.372925   -1.448237    0.930578
  O      2.069543   -0.507130   -0.964308
  H      1.930472    0.392117   -1.338924
  H     -0.057561    1.732030   -1.134173
  H      1.059635    2.681375   -0.375817
  H     -2.424030   -1.798989   -1.177153
  H     -1.447494   -2.060030    0.282586
  H     -0.675197   -1.521973   -1.226365

 Total Charge           Charge          ....    0
 Multiplicity           Mult            ....    1
 Number of Electrons    NEL             ....   72
 Basis Dimension        Dim             ....  579

ORBITAL ENERGIES
----------------

  NO   OCC          E(Eh)            E(eV)
   0   2.0000     -91.959373     -2502.3418
   1   2.0000     -20.600026      -560.5552
   2   2.0000     -20.538369      -558.8774
   3   2.0000     -15.580576      -423.9690
   4   2.0000     -11.376840      -309.5796
   5   2.0000     -11.299019      -307.4619
   6   2.0000     -11.274604      -306.7976
   7   2.0000     -11.255310      -306.2726
   8   2.0000      -8.959801      -243.8086
   9   2.0000      -6.641141      -180.7146
  10   2.0000      -6.640111      -180.6866
  11   2.0000      -6.639279      -180.6640
  12   2.0000      -1.460017       -39.7291
  13   2.0000      -1.362820       -37.0842
  14   2.0000      -1.227664       -33.4064
  15   2.0000      -1.080340       -29.3976
  16   2.0000      -1.005612       -27.3641
  17   2.0000      -0.924045       -25.1445
  18   2.0000      -0.826788       -22.4981
  19   2.0000      -0.800039       -21.7702
  20   2.0000      -0.738718       -20.1015
  21   2.0000      -0.704266       -19.1641
  22   2.0000      -0.672408       -18.2972
  23   2.0000      -0.637999       -17.3608
  24   2.0000      -0.629436       -17.1278
  25   2.0000      -0.606913       -16.5149
  26   2.0000      -0.590712       -16.0741
  27   2.0000      -0.577425       -15.7125
  28   2.0000      -0.567725       -15.4486
  29   2.0000      -0.554276       -15.0826
  30   2.0000      -0.498008       -13.5515
  31   2.0000      -0.473653       -12.8887
  32   2.0000      -0.471272       -12.8240
  33   2.0000      -0.438403       -11.9295
  34   2.0000      -0.421462       -11.4686
  35   2.0000      -0.355197        -9.6654
  36   0.0000       0.019704         0.5362
  37   0.0000       0.032676         0.8892
  38   0.0000       0.036319         0.9883
  39   0.0000       0.040188         1.0936
  40   0.0000       0.052513         1.4290

MULLIKEN ATOMIC CHARGES
-----------------------
   0 C :   -0.743416
   1 S :   -0.357388
   2 C :   -0.239491
   3 C :    0.387133
   4 H :    0.208168
   5 H :    0.319036
   6 N :   -0.591976
   7 C :    0.829893
   8 H :    0.433601
   9 O :   -0.916115
  10 O :   -0.574321
  11 H :    0.222821
  12 H :    0.148553
  13 H :    0.044588
  14 H :    0.291345
  15 H :    0.278634
  16 H :    0.258935
Sum of atomic charges:   -0.0000000

LOEWDIN ATOMIC CHARGES
----------------------
   0 C :    0.241338
   1 S :    1.213033
   2 C :   -0.043635
   3 C :   -0.176347
   4 H :   -0.224992
   5 H :   -0.221941
   6 N :    0.848874
   7 C :   -0.822059
   8 H :   -0.136255
   9 O :    0.448544
  10 O :    0.849266
  11 H :   -0.589149
  12 H :   -0.363838
  13 H :   -0.285552
  14 H :   -0.252074
  15 H :   -0.235990
  16 H :   -0.249223

  Mayer bond orders larger than 0.100000
B(  0-C ,  1-S ) :   0.8970 B(  0-C , 14-H ) :   0.9519 B(  0-C , 15-H ) :   0.9378
B(  0-C , 16-H ) :   0.9032 B(  1-S ,  2-C ) :   0.8223 B(  1-S ,  3-C ) :   0.2110
B(  2-C ,  3-C ) :   0.9424 B(  2-C ,  4-H ) :   0.9630 B(  2-C ,  5-H ) :   0.9136
B(  3-C ,  6-N ) :   0.4972 B(  3-C ,  7-C ) :   0.7692 B(  3-C ,  8-H ) :   0.8321
B(  3-C , 10-O ) :   0.1128 B(  6-N ,  7-C ) :   0.1703 B(  6-N , 11-H ) :   0.1411
B(  6-N , 12-H ) :   0.9620 B(  6-N , 13-H ) :   1.0946 B(  7-C ,  9-O ) :   1.2150
B(  7-C , 10-O ) :   0.6676 B( 10-O , 11-H ) :   0.8854

MP2 TOTAL ENERGY:     -760.158092493 Eh
FINAL SINGLE POINT ENERGY      -760.158092493316

DIPOLE MOMENT
-------------
                                X             Y             Z
Electronic contribution:      1.38912      -0.47783       0.13302
Nuclear contribution   :     -1.76369       2.02057      -0.22451
                        -----------------------------------------
Total Dipole Moment    :     -0.37458       1.54275      -0.09149
                        -----------------------------------------
Magnitude (a.u.)       :      1.59020
Magnitude (Debye)      :      4.04198

Rotational constants in cm-1:     0.077293     0.043939     0.036701
Rotational constants in MHz :  2317.195879  1317.272996  1100.258447

                             ****ORCA TERMINATED NORMALLY****
TOTAL RUN TIME: 0 days 0 hours 3 minutes 8 seconds 244 msec
