                         Program Version 4.2.1 -  RELEASE  -
|  1> %pal
|  2>  nprocs 32
|  3> end
|  4> !RI-MP2 aug-cc-pVTZ aug-cc-pVTZ/C TightSCF
|  5> %maxcore 4500
|  6> *xyzfile 0 1  10_23P.xyz
|  7>
|  8>
|  9>                          ****END OF INPUT****

CARTESIAN COORDINATES (ANGSTROEM)
---------------------------------
  C      0.717896    1.227847   -0.228737
  C      1.005251    2.500012    0.606589
  C      1.335220    0.140108    0.666598
  N      2.341851    0.899103    1.497376
  N      2.148727    2.107184    1.463738
  C      1.994002   -1.024637   -0.050186
  C      3.281309   -1.431615    0.280305
  C      1.287805   -1.719015   -1.030529
  C      3.862312   -2.505292   -0.381603
  H      3.819068   -0.910243    1.059482
  C      1.869587   -2.793110   -1.685246
  H      0.278631   -1.420502   -1.287784
  C      3.161913   -3.187352   -1.364942
  H      4.867437   -2.812478   -0.119093
  H      1.310554   -3.324673   -2.445802
  H      3.617251   -4.026829   -1.876154
  C      0.351536   -0.453432    1.681423
  C     -1.483976    0.203762    0.253367
  C     -0.727377    0.988247   -0.504786
  H     -1.167046    1.444795   -1.380505
  C      1.505381    1.508764   -1.525667
  H      2.564946    1.296574   -1.363464
  H      1.175520    0.885489   -2.356235
  C      1.394637    3.629191   -0.359150
  H      0.756951    4.505529   -0.247084
  H      2.416114    3.942053   -0.133711
  C      1.301267    3.005190   -1.761062
  H      2.031770    3.421400   -2.455575
  H      0.312490    3.187764   -2.191036
  O     -0.972895   -0.439328    1.365928
  O      0.689781   -0.951830    2.706748
  C     -2.904778   -0.125114    0.045214
  C     -3.722519    0.691260   -0.737531
  C     -3.448741   -1.272310    0.621367
  C     -5.046668    0.353906   -0.959361
  H     -3.328936    1.606792   -1.160641
  C     -4.775973   -1.607069    0.396697
  H     -2.826894   -1.897958    1.246664
  C     -5.578073   -0.799580   -0.395756
  H     -5.670487    0.999718   -1.565238
  H     -5.184271   -2.503361    0.847445
  H     -6.615388   -1.060358   -0.566409
  H      0.193089    2.772974    1.283904

 Total Charge           Charge          ....    0
 Multiplicity           Mult            ....    1
 Number of Electrons    NEL             ....  174
 Basis Dimension        Dim             .... 1564

ORBITAL ENERGIES
----------------

  NO   OCC          E(Eh)            E(eV)
   0   2.0000     -20.627132      -561.2928
   1   2.0000     -20.554024      -559.3034
   2   2.0000     -15.631385      -425.3516
   3   2.0000     -15.629877      -425.3106
   4   2.0000     -11.395493      -310.0871
   5   2.0000     -11.325572      -308.1845
   6   2.0000     -11.303815      -307.5925
   7   2.0000     -11.275619      -306.8252
   8   2.0000     -11.267825      -306.6131
   9   2.0000     -11.260816      -306.4224
  10   2.0000     -11.255461      -306.2767
  11   2.0000     -11.250261      -306.1352
  12   2.0000     -11.246878      -306.0431
  13   2.0000     -11.245719      -306.0116
  14   2.0000     -11.245602      -306.0084
  15   2.0000     -11.245181      -305.9969
  16   2.0000     -11.243589      -305.9536
  17   2.0000     -11.242091      -305.9128
  18   2.0000     -11.240782      -305.8772
  19   2.0000     -11.239425      -305.8403
  20   2.0000     -11.238852      -305.8247
  21   2.0000     -11.238412      -305.8127
  22   2.0000     -11.238195      -305.8068
  23   2.0000     -11.237613      -305.7910
  24   2.0000     -11.236004      -305.7472
  25   2.0000      -1.486346       -40.4455
  26   2.0000      -1.398062       -38.0432
  27   2.0000      -1.386549       -37.7299
  28   2.0000      -1.179843       -32.1052
  29   2.0000      -1.175331       -31.9824
  30   2.0000      -1.161198       -31.5978
  31   2.0000      -1.105959       -30.0947
  32   2.0000      -1.089823       -29.6556
  33   2.0000      -1.035754       -28.1843
  34   2.0000      -1.029712       -28.0199
  35   2.0000      -1.024240       -27.8710
  36   2.0000      -1.012975       -27.5644
  37   2.0000      -0.995639       -27.0927
  38   2.0000      -0.963056       -26.2061
  39   2.0000      -0.909270       -24.7425
  40   2.0000      -0.863881       -23.5074
  41   2.0000      -0.844553       -22.9815
  42   2.0000      -0.833621       -22.6840
  43   2.0000      -0.832256       -22.6468
  44   2.0000      -0.823301       -22.4032
  45   2.0000      -0.802880       -21.8475
  46   2.0000      -0.774165       -21.0661
  47   2.0000      -0.743204       -20.2236
  48   2.0000      -0.732647       -19.9363
  49   2.0000      -0.729381       -19.8475
  50   2.0000      -0.701425       -19.0868
  51   2.0000      -0.688996       -18.7485
  52   2.0000      -0.672207       -18.2917
  53   2.0000      -0.668917       -18.2022
  54   2.0000      -0.654712       -17.8156
  55   2.0000      -0.649635       -17.6775
  56   2.0000      -0.638050       -17.3622
  57   2.0000      -0.632843       -17.2205
  58   2.0000      -0.627538       -17.0762
  59   2.0000      -0.621225       -16.9044
  60   2.0000      -0.613093       -16.6831
  61   2.0000      -0.602006       -16.3814
  62   2.0000      -0.595129       -16.1943
  63   2.0000      -0.590453       -16.0671
  64   2.0000      -0.569219       -15.4892
  65   2.0000      -0.565111       -15.3774
  66   2.0000      -0.549816       -14.9612
  67   2.0000      -0.540899       -14.7186
  68   2.0000      -0.529983       -14.4216
  69   2.0000      -0.526719       -14.3328
  70   2.0000      -0.517673       -14.0866
  71   2.0000      -0.511157       -13.9093
  72   2.0000      -0.507578       -13.8119
  73   2.0000      -0.505430       -13.7535
  74   2.0000      -0.502731       -13.6800
  75   2.0000      -0.497493       -13.5375
  76   2.0000      -0.494349       -13.4519
  77   2.0000      -0.482505       -13.1296
  78   2.0000      -0.479795       -13.0559
  79   2.0000      -0.472343       -12.8531
  80   2.0000      -0.439595       -11.9620
  81   2.0000      -0.407181       -11.0800
  82   2.0000      -0.384693       -10.4680
  83   2.0000      -0.350882        -9.5480
  84   2.0000      -0.344317        -9.3694
  85   2.0000      -0.340470        -9.2647
  86   2.0000      -0.317782        -8.6473
  87   0.0000       0.018162         0.4942
  88   0.0000       0.025381         0.6906
  89   0.0000       0.026033         0.7084
  90   0.0000       0.033346         0.9074
  91   0.0000       0.034452         0.9375

MULLIKEN ATOMIC CHARGES
-----------------------
   0 C :    2.154820
   1 C :   -0.277373
   2 C :    1.510973
   3 N :   -0.305880
   4 N :   -1.013711
   5 C :    1.671454
   6 C :   -1.139514
   7 C :   -0.636362
   8 C :   -0.479714
   9 H :   -0.321084
  10 C :   -1.385690
  11 H :    0.370536
  12 C :   -0.117997
  13 H :    0.503922
  14 H :    0.451633
  15 H :    0.610126
  16 C :    0.886531
  17 C :    2.030464
  18 C :   -1.166334
  19 H :   -0.429734
  20 C :   -0.938293
  21 H :    0.240614
  22 H :    0.408427
  23 C :   -0.791000
  24 H :    0.332591
  25 H :    0.222035
  26 C :   -0.877384
  27 H :    0.382276
  28 H :    0.101485
  29 O :   -1.144218
  30 O :   -1.281756
  31 C :    2.271299
  32 C :   -0.830210
  33 C :   -0.787466
  34 C :   -0.913703
  35 H :   -0.084295
  36 C :   -0.974933
  37 H :   -0.000545
  38 C :   -0.052988
  39 H :    0.505016
  40 H :    0.556005
  41 H :    0.444799
  42 H :    0.295179
Sum of atomic charges:    0.0000000

LOEWDIN ATOMIC CHARGES
----------------------
   0 C :   -0.301677
   1 C :   -0.097012
   2 C :   -0.409401
   3 N :    0.269332
   4 N :    0.281164
   5 C :   -0.113438
   6 C :    0.232740
   7 C :    0.222493
   8 C :    0.214123
   9 H :   -0.197483
  10 C :    0.215186
  11 H :   -0.181067
  12 C :    0.202579
  13 H :   -0.178423
  14 H :   -0.178470
  15 H :   -0.180928
  16 C :   -0.745863
  17 C :   -0.311967
  18 C :    0.253380
  19 H :   -0.178131
  20 C :    0.318047
  21 H :   -0.129040
  22 H :   -0.128617
  23 C :    0.341639
  24 H :   -0.139290
  25 H :   -0.148486
  26 C :    0.324722
  27 H :   -0.133874
  28 H :   -0.144862
  29 O :    0.619226
  30 O :    0.496586
  31 C :   -0.111698
  32 C :    0.216570
  33 C :    0.221735
  34 C :    0.205991
  35 H :   -0.184942
  36 C :    0.208333
  37 H :   -0.188883
  38 C :    0.201083
  39 H :   -0.180377
  40 H :   -0.179156
  41 H :   -0.180395
  42 H :   -0.121447

  Mayer bond orders larger than 0.100000
B(  0-C ,  1-C ) :   0.4400 B(  0-C ,  2-C ) :   1.2641 B(  0-C ,  4-N ) :  -0.1616
B(  0-C ,  5-C ) :   0.2314 B(  0-C ,  7-C ) :   0.2021 B(  0-C ,  9-H ) :   0.1366
B(  0-C , 11-H ) :   0.2524 B(  0-C , 13-H ) :  -0.1199 B(  0-C , 14-H ) :  -0.1216
B(  0-C , 16-C ) :  -0.4427 B(  0-C , 17-C ) :   0.6517 B(  0-C , 19-H ) :  -0.1839
B(  0-C , 20-C ) :  -0.3273 B(  0-C , 21-H ) :  -0.1360 B(  0-C , 23-C ) :  -0.5946
B(  0-C , 26-C ) :  -0.4994 B(  0-C , 29-O ) :  -0.1723 B(  0-C , 31-C ) :  -0.2311
B(  1-C ,  2-C ) :   0.1407 B(  1-C ,  3-N ) :   0.1936 B(  1-C ,  4-N ) :   0.4501
B(  1-C ,  5-C ) :  -0.1262 B(  1-C , 20-C ) :   0.1496 B(  1-C , 23-C ) :   1.1774
B(  1-C , 26-C ) :   0.2596 B(  1-C , 42-H ) :   0.8461 B(  2-C ,  3-N ) :  -0.2888
B(  2-C ,  4-N ) :  -0.3058 B(  2-C ,  5-C ) :   0.2334 B(  2-C ,  6-C ) :   0.4080
B(  2-C ,  7-C ) :  -0.6715 B(  2-C ,  8-C ) :   0.2619 B(  2-C ,  9-H ) :  -0.4549
B(  2-C , 10-C ) :   0.2415 B(  2-C , 11-H ) :  -0.9107 B(  2-C , 14-H ) :   0.1439
B(  2-C , 16-C ) :   0.5199 B(  2-C , 18-C ) :  -0.1757 B(  2-C , 29-O ) :  -0.1249
B(  2-C , 30-O ) :  -0.1737 B(  3-N ,  4-N ) :   0.1524 B(  3-N ,  9-H ) :   0.1469
B(  3-N , 16-C ) :   0.1039 B(  4-N ,  5-C ) :   0.1638 B(  4-N , 16-C ) :   0.1977
B(  4-N , 20-C ) :  -0.1440 B(  4-N , 23-C ) :   0.2623 B(  5-C ,  7-C ) :   0.7564
B(  5-C ,  8-C ) :   0.3386 B(  5-C ,  9-H ) :  -0.6575 B(  5-C , 10-C ) :  -0.2078
B(  5-C , 11-H ) :   0.5430 B(  5-C , 16-C ) :   0.5220 B(  5-C , 20-C ) :  -0.1206
B(  5-C , 30-O ) :   0.1753 B(  6-C ,  7-C ) :  -1.0667 B(  6-C ,  8-C ) :   1.2506
B(  6-C ,  9-H ) :   2.4905 B(  6-C , 12-C ) :  -0.1117 B(  6-C , 13-H ) :  -0.1053
B(  6-C , 15-H ) :   0.1377 B(  6-C , 16-C ) :  -0.3138 B(  7-C ,  8-C ) :  -0.1338
B(  7-C ,  9-H ) :   0.3687 B(  7-C , 10-C ) :   1.4177 B(  7-C , 11-H ) :   0.9506
B(  7-C , 14-H ) :   0.1281 B(  7-C , 16-C ) :   0.2973 B(  7-C , 18-C ) :  -0.2139
B(  8-C ,  9-H ) :  -0.1618 B(  8-C , 10-C ) :   0.1708 B(  8-C , 11-H ) :  -0.1897
B(  8-C , 12-C ) :   1.0659 B(  8-C , 13-H ) :   0.7820 B(  8-C , 15-H ) :  -0.1751
B(  9-H , 11-H ) :   0.2950 B(  9-H , 16-C ) :  -0.2859 B( 10-C , 12-C ) :   1.2279
B( 10-C , 14-H ) :   0.7030 B( 10-C , 15-H ) :  -0.1616 B( 10-C , 16-C ) :  -0.1550
B( 11-H , 12-C ) :  -0.1347 B( 11-H , 18-C ) :  -0.1469 B( 12-C , 15-H ) :   0.5511
B( 16-C , 17-C ) :  -0.1785 B( 16-C , 18-C ) :   0.1149 B( 16-C , 29-O ) :   1.1419
B( 16-C , 30-O ) :   0.5858 B( 17-C , 18-C ) :   0.1433 B( 17-C , 19-H ) :  -1.1781
B( 17-C , 20-C ) :  -0.1962 B( 17-C , 29-O ) :  -0.3413 B( 17-C , 31-C ) :  -0.3753
B( 17-C , 32-C ) :   0.5438 B( 17-C , 34-C ) :   0.1060 B( 17-C , 35-H ) :  -0.1478
B( 17-C , 37-H ) :  -0.4658 B( 17-C , 38-C ) :   0.1392 B( 17-C , 40-H ) :   0.1820
B( 18-C , 19-H ) :   2.7072 B( 18-C , 20-C ) :   0.1204 B( 18-C , 23-C ) :   0.1134
B( 18-C , 28-H ) :  -0.1030 B( 18-C , 29-O ) :   0.2077 B( 18-C , 31-C ) :   0.5377
B( 18-C , 33-C ) :   0.1928 B( 18-C , 37-H ) :   0.1514 B( 19-H , 29-O ) :   0.1837
B( 20-C , 21-H ) :   1.1493 B( 20-C , 22-H ) :   0.9813 B( 20-C , 23-C ) :   0.1331
B( 20-C , 26-C ) :   1.3207 B( 23-C , 24-H ) :   0.8958 B( 23-C , 25-H ) :   1.0361
B( 23-C , 26-C ) :   1.0939 B( 26-C , 27-H ) :   0.8383 B( 26-C , 28-H ) :   1.2013
B( 29-O , 30-O ) :  -0.1495 B( 29-O , 31-C ) :   0.1375 B( 31-C , 32-C ) :  -0.1742
B( 31-C , 35-H ) :  -0.5896 B( 31-C , 37-H ) :  -0.3669 B( 31-C , 39-H ) :   0.1103
B( 32-C , 33-C ) :  -0.7935 B( 32-C , 34-C ) :   1.2525 B( 32-C , 35-H ) :   1.9991
B( 32-C , 37-H ) :   0.2337 B( 32-C , 38-C ) :  -0.2464 B( 33-C , 35-H ) :   0.2241
B( 33-C , 36-C ) :   1.2857 B( 33-C , 37-H ) :   1.8281 B( 33-C , 38-C ) :  -0.1923
B( 33-C , 40-H ) :  -0.1371 B( 33-C , 41-H ) :   0.1464 B( 34-C , 35-H ) :  -0.1531
B( 34-C , 36-C ) :   0.3186 B( 34-C , 38-C ) :   1.1087 B( 34-C , 39-H ) :   0.6733
B( 34-C , 41-H ) :  -0.2066 B( 35-H , 37-H ) :   0.2393 B( 36-C , 38-C ) :   1.0934
B( 36-C , 40-H ) :   0.5584 B( 36-C , 41-H ) :  -0.1819 B( 38-C , 41-H ) :   0.8219

MP2 TOTAL ENERGY:    -1068.910355813 Eh
FINAL SINGLE POINT ENERGY     -1068.910355813390

DIPOLE MOMENT
-------------
                                X             Y             Z
Electronic contribution:      0.44802      -5.44803      12.24745
Nuclear contribution   :     -1.41174       6.03587     -14.47014
                        -----------------------------------------
Total Dipole Moment    :     -0.96372       0.58784      -2.22269
                        -----------------------------------------
Magnitude (a.u.)       :      2.49292
Magnitude (Debye)      :      6.33650

Rotational constants in cm-1:     0.011181     0.005874     0.004880
Rotational constants in MHz :   335.208883   176.107325   146.295925

                             ****ORCA TERMINATED NORMALLY****
TOTAL RUN TIME: 0 days 1 hours 39 minutes 12 seconds 542 msec
