                         Program Version 4.2.1 -  RELEASE  -
|  1> %pal
|  2>  nprocs 32
|  3> end
|  4> !RI-MP2 aug-cc-pVTZ aug-cc-pVTZ/C TightSCF
|  5> %maxcore 4500
|  6> *xyzfile 1 1  10_33R1.xyz
|  7>
|  8>
|  9>                          ****END OF INPUT****

CARTESIAN COORDINATES (ANGSTROEM)
---------------------------------
  C     -1.780387   -0.275492   -1.066661
  C     -1.178243   -1.101009    0.077499
  C     -0.544056    0.954612    0.601039
  C     -1.319489    1.167538   -0.709530
  H     -1.410700   -0.611636   -2.033278
  H     -2.866230   -0.362671   -1.068305
  H     -0.701221    1.627549   -1.479718
  H     -2.160142    1.833964   -0.518048
  C     -1.324936   -0.166136    1.284766
  H     -0.858777   -0.538052    2.197707
  H     -2.355491    0.120624    1.486514
  H     -1.535675   -2.122066    0.172402
  H     -0.267800    1.838490    1.168485
  N      0.688179    0.188345    0.221225
  N      0.294335   -1.107143   -0.139671
  C      1.885021    0.626105    0.132453
  H      0.784043   -1.789188    0.433708
  C      3.016681   -0.201956   -0.329963
  H      2.683539   -0.943331   -1.057955
  H      3.792672    0.428564   -0.761103
  H      3.465041   -0.731683    0.518591
  H      2.025603    1.659048    0.432511

 Total Charge           Charge          ....    1
 Multiplicity           Mult            ....    1
 Number of Electrons    NEL             ....   68
 Basis Dimension        Dim             ....  713

ORBITAL ENERGIES
----------------

  NO   OCC          E(Eh)            E(eV)
   0   2.0000     -15.860568      -431.5880
   1   2.0000     -15.773658      -429.2231
   2   2.0000     -11.507014      -313.1218
   3   2.0000     -11.451480      -311.6106
   4   2.0000     -11.425455      -310.9024
   5   2.0000     -11.403377      -310.3017
   6   2.0000     -11.386849      -309.8519
   7   2.0000     -11.380584      -309.6814
   8   2.0000     -11.367895      -309.3361
   9   2.0000      -1.566679       -42.6315
  10   2.0000      -1.353281       -36.8247
  11   2.0000      -1.283439       -34.9242
  12   2.0000      -1.197887       -32.5962
  13   2.0000      -1.132875       -30.8271
  14   2.0000      -1.105151       -30.0727
  15   2.0000      -1.008473       -27.4419
  16   2.0000      -0.991736       -26.9865
  17   2.0000      -0.925336       -25.1797
  18   2.0000      -0.900846       -24.5133
  19   2.0000      -0.854117       -23.2417
  20   2.0000      -0.821365       -22.3505
  21   2.0000      -0.803533       -21.8653
  22   2.0000      -0.784867       -21.3573
  23   2.0000      -0.760670       -20.6989
  24   2.0000      -0.746440       -20.3117
  25   2.0000      -0.720528       -19.6066
  26   2.0000      -0.706489       -19.2245
  27   2.0000      -0.685606       -18.6563
  28   2.0000      -0.676042       -18.3960
  29   2.0000      -0.656934       -17.8761
  30   2.0000      -0.642654       -17.4875
  31   2.0000      -0.629694       -17.1348
  32   2.0000      -0.619831       -16.8664
  33   2.0000      -0.550098       -14.9689
  34   0.0000      -0.083162        -2.2630
  35   0.0000      -0.075762        -2.0616
  36   0.0000      -0.066855        -1.8192
  37   0.0000      -0.059454        -1.6178
  38   0.0000      -0.055593        -1.5128

MULLIKEN ATOMIC CHARGES
-----------------------
   0 C :   -0.567472
   1 C :   -0.114142
   2 C :   -0.238172
   3 C :   -0.624236
   4 H :    0.332627
   5 H :    0.283818
   6 H :    0.284006
   7 H :    0.302621
   8 C :   -0.829725
   9 H :    0.359968
  10 H :    0.280087
  11 H :    0.575023
  12 H :    0.491471
  13 N :    0.680642
  14 N :   -0.638999
  15 C :   -0.498226
  16 H :   -0.005286
  17 C :   -0.657801
  18 H :    0.409922
  19 H :    0.270069
  20 H :    0.362953
  21 H :    0.540852
Sum of atomic charges:    1.0000000

LOEWDIN ATOMIC CHARGES
----------------------
   0 C :    0.362859
   1 C :   -0.040619
   2 C :    0.003844
   3 C :    0.368464
   4 H :   -0.133039
   5 H :   -0.127671
   6 H :   -0.130730
   7 H :   -0.125269
   8 C :    0.369990
   9 H :   -0.118429
  10 H :   -0.112499
  11 H :   -0.097631
  12 H :   -0.099206
  13 N :    0.210111
  14 N :    0.576298
  15 C :    0.257816
  16 H :   -0.258613
  17 C :    0.654388
  18 H :   -0.159304
  19 H :   -0.150787
  20 H :   -0.138791
  21 H :   -0.111182

  Mayer bond orders larger than 0.100000
B(  0-C ,  1-C ) :   0.9336 B(  0-C ,  3-C ) :   1.1009 B(  0-C ,  4-H ) :   0.9094
B(  0-C ,  5-H ) :   0.9463 B(  1-C ,  2-C ) :  -0.1506 B(  1-C ,  8-C ) :   1.0453
B(  1-C , 11-H ) :   0.6615 B(  1-C , 14-N ) :   0.9387 B(  2-C ,  3-C ) :   0.8753
B(  2-C ,  8-C ) :   1.0544 B(  2-C , 12-H ) :   0.7164 B(  2-C , 13-N ) :   0.9595
B(  2-C , 15-C ) :  -0.1009 B(  3-C ,  6-H ) :   0.9433 B(  3-C ,  7-H ) :   0.9196
B(  8-C ,  9-H ) :   0.8278 B(  8-C , 10-H ) :   1.0257 B(  8-C , 13-N ) :  -0.1759
B( 13-N , 14-N ) :   0.4316 B( 13-N , 15-C ) :   1.4527 B( 14-N , 16-H ) :   1.0078
B( 15-C , 17-C ) :   0.5470 B( 15-C , 21-H ) :   0.6589 B( 17-C , 18-H ) :   0.8652
B( 17-C , 19-H ) :   1.0189 B( 17-C , 20-H ) :   0.8729

MP2 TOTAL ENERGY:     -383.018258066 Eh
FINAL SINGLE POINT ENERGY      -383.018258065930

DIPOLE MOMENT
-------------
                                X             Y             Z
Electronic contribution:      0.50601      -0.12059       1.11828
Nuclear contribution   :      0.62170       0.41840      -0.52583
                        -----------------------------------------
Total Dipole Moment    :      1.12770       0.29781       0.59245
                        -----------------------------------------
Magnitude (a.u.)       :      1.30821
Magnitude (Debye)      :      3.32520

Rotational constants in cm-1:     0.109822     0.043438     0.040970
Rotational constants in MHz :  3292.386686  1302.227044  1228.238036

                             ****ORCA TERMINATED NORMALLY****
TOTAL RUN TIME: 0 days 0 hours 5 minutes 21 seconds 515 msec
