                         Program Version 4.2.1 -  RELEASE  -
|  1> %pal
|  2>  nprocs 32
|  3> end
|  4> !RI-MP2 aug-cc-pVTZ aug-cc-pVTZ/C TightSCF
|  5> %maxcore 4500
|  6> *xyzfile 0 1  07_1R.xyz
|  7>
|  8>
|  9>                          ****END OF INPUT****

CARTESIAN COORDINATES (ANGSTROEM)
---------------------------------
  N     -1.134194    0.240699   -0.000000
  C     -0.000000    1.059637   -0.000000
  C      1.243255    0.316385   -0.000000
  C      1.257910   -1.037806    0.000000
  C      0.050800   -1.795406    0.000000
  C     -1.120509   -1.120524    0.000000
  O     -0.121180    2.272182   -0.000000
  H      2.150846    0.903997   -0.000000
  H      2.207234   -1.561389    0.000000
  H      0.061041   -2.875014    0.000000
  H     -2.087306   -1.605906    0.000000
  H     -2.011755    0.742252   -0.000000

 Total Charge           Charge          ....    0
 Multiplicity           Mult            ....    1
 Number of Electrons    NEL             ....   50
 Basis Dimension        Dim             ....  437

ORBITAL ENERGIES
----------------

  NO   OCC          E(Eh)            E(eV)
   0   2.0000     -20.511533      -558.1472
   1   2.0000     -15.624645      -425.1682
   2   2.0000     -11.352654      -308.9214
   3   2.0000     -11.311254      -307.7949
   4   2.0000     -11.271831      -306.7221
   5   2.0000     -11.241336      -305.8923
   6   2.0000     -11.239129      -305.8323
   7   2.0000      -1.382803       -37.6280
   8   2.0000      -1.278430       -34.7878
   9   2.0000      -1.111635       -30.2491
  10   2.0000      -1.034011       -28.1369
  11   2.0000      -0.888665       -24.1818
  12   2.0000      -0.864122       -23.5139
  13   2.0000      -0.758173       -20.6309
  14   2.0000      -0.698612       -19.0102
  15   2.0000      -0.679523       -18.4908
  16   2.0000      -0.640929       -17.4406
  17   2.0000      -0.616051       -16.7636
  18   2.0000      -0.609525       -16.5860
  19   2.0000      -0.562499       -15.3064
  20   2.0000      -0.539689       -14.6857
  21   2.0000      -0.489794       -13.3280
  22   2.0000      -0.427558       -11.6344
  23   2.0000      -0.427160       -11.6236
  24   2.0000      -0.317243        -8.6326
  25   0.0000       0.020783         0.5655
  26   0.0000       0.028628         0.7790
  27   0.0000       0.037464         1.0195
  28   0.0000       0.050687         1.3793
  29   0.0000       0.055805         1.5185

MULLIKEN ATOMIC CHARGES
-----------------------
   0 N :    0.106312
   1 C :    0.298138
   2 C :   -0.178210
   3 C :   -0.585238
   4 C :   -0.146215
   5 C :   -0.489330
   6 O :   -0.887507
   7 H :    0.256608
   8 H :    0.566093
   9 H :    0.267982
  10 H :    0.666058
  11 H :    0.125310
Sum of atomic charges:   -0.0000000

LOEWDIN ATOMIC CHARGES
----------------------
   0 N :    0.541231
   1 C :   -0.690749
   2 C :    0.218731
   3 C :    0.184450
   4 C :    0.193976
   5 C :    0.123456
   6 O :    0.411477
   7 H :   -0.192060
   8 H :   -0.170895
   9 H :   -0.200244
  10 H :   -0.156388
  11 H :   -0.262983

  Mayer bond orders larger than 0.100000
B(  0-N ,  1-C ) :   1.1578 B(  0-N ,  2-C ) :  -0.1029 B(  0-N ,  4-C ) :  -0.1707
B(  0-N ,  5-C ) :   1.0483 B(  0-N ,  6-O ) :  -0.1164 B(  0-N , 11-H ) :   1.0731
B(  1-C ,  2-C ) :   0.7001 B(  1-C ,  3-C ) :   0.2105 B(  1-C ,  4-C ) :  -0.1757
B(  1-C ,  5-C ) :   0.2229 B(  1-C ,  6-O ) :   1.2142 B(  2-C ,  3-C ) :   1.5352
B(  2-C ,  4-C ) :  -0.1223 B(  2-C ,  7-H ) :   1.0050 B(  3-C ,  4-C ) :   1.0192
B(  3-C ,  5-C ) :   0.1749 B(  3-C ,  8-H ) :   0.6049 B(  4-C ,  5-C ) :   1.0020
B(  4-C ,  9-H ) :   1.1199 B(  5-C , 10-H ) :   0.4064

MP2 TOTAL ENERGY:     -322.919165460 Eh
FINAL SINGLE POINT ENERGY      -322.919165459752

DIPOLE MOMENT
-------------
                                X             Y             Z
Electronic contribution:     -0.75048       2.48845      -0.00000
Nuclear contribution   :      0.30757      -4.30395       0.00000
                        -----------------------------------------
Total Dipole Moment    :     -0.44291      -1.81550      -0.00000
                        -----------------------------------------
Magnitude (a.u.)       :      1.86875
Magnitude (Debye)      :      4.74999

Rotational constants in cm-1:     0.190036     0.093820     0.062811
Rotational constants in MHz :  5697.145961  2812.651942  1883.016358

                             ****ORCA TERMINATED NORMALLY****
TOTAL RUN TIME: 0 days 0 hours 1 minutes 30 seconds 737 msec
