                         Program Version 4.2.1 -  RELEASE  -
|  1> %pal
|  2>  nprocs 32
|  3> end
|  4> !RI-MP2 aug-cc-pVTZ aug-cc-pVTZ/C TightSCF
|  5> %maxcore 4500
|  6> *xyzfile 0 2  01_18R.xyz
|  7>
|  8>
|  9>                          ****END OF INPUT****

CARTESIAN COORDINATES (ANGSTROEM)
---------------------------------
  C      1.919407    0.662812    0.377205
  C      0.575679    1.085021   -0.088017
  C     -0.514457    0.018456    0.103444
  H      0.632914    1.345351   -1.151120
  H      0.292243    1.996329    0.447222
  C     -1.877380    0.474656   -0.420257
  H     -0.599476   -0.232240    1.165399
  H     -0.206556   -0.896346   -0.411045
  C     -2.931648   -0.578685   -0.276631
  H     -1.774737    0.739956   -1.479456
  H     -2.192392    1.383316    0.102601
  C     -4.040452   -0.457539    0.439242
  O      2.492986   -0.321183   -0.362001
  C      3.746773   -0.776860    0.106286
  H      3.664915   -1.152432    1.131936
  H      4.487059    0.027950    0.074162
  H      4.058867   -1.586176   -0.550647
  H      2.197245    0.696426    1.429443
  H     -4.762258   -1.262204    0.511078
  H     -4.267528    0.456371    0.979038
  H     -2.741720   -1.514005   -0.800228

 Total Charge           Charge          ....    0
 Multiplicity           Mult            ....    2
 Number of Electrons    NEL             ....   63
 Basis Dimension        Dim             ....  667

ORBITAL ENERGIES
----------------
                 SPIN UP ORBITALS
  NO   OCC          E(Eh)            E(eV)
   0   1.0000     -20.575326      -559.8831
   1   1.0000     -11.277031      -306.8636
   2   1.0000     -11.270680      -306.6908
   3   1.0000     -11.228187      -305.5345
   4   1.0000     -11.221928      -305.3642
   5   1.0000     -11.219514      -305.2985
   6   1.0000     -11.218499      -305.2709
   7   1.0000     -11.215275      -305.1831
   8   1.0000      -1.405332       -38.2410
   9   1.0000      -1.094216       -29.7751
  10   1.0000      -1.048183       -28.5225
  11   1.0000      -0.980262       -26.6743
  12   1.0000      -0.922489       -25.1022
  13   1.0000      -0.851534       -23.1714
  14   1.0000      -0.793352       -21.5882
  15   1.0000      -0.753994       -20.5172
  16   1.0000      -0.681824       -18.5534
  17   1.0000      -0.663264       -18.0483
  18   1.0000      -0.650485       -17.7006
  19   1.0000      -0.636821       -17.3288
  20   1.0000      -0.604453       -16.4480
  21   1.0000      -0.584028       -15.8922
  22   1.0000      -0.559023       -15.2118
  23   1.0000      -0.538720       -14.6593
  24   1.0000      -0.516875       -14.0649
  25   1.0000      -0.509102       -13.8534
  26   1.0000      -0.493762       -13.4359
  27   1.0000      -0.480923       -13.0866
  28   1.0000      -0.469119       -12.7654
  29   1.0000      -0.466820       -12.7028
  30   1.0000      -0.360628        -9.8132
  31   1.0000      -0.310585        -8.4514
  32   0.0000       0.029226         0.7953
  33   0.0000       0.033976         0.9245
  34   0.0000       0.035570         0.9679
  35   0.0000       0.038381         1.0444
  36   0.0000       0.046571         1.2673

                 SPIN DOWN ORBITALS
  NO   OCC          E(Eh)            E(eV)
   0   1.0000     -20.569812      -559.7330
   1   1.0000     -11.277285      -306.8705
   2   1.0000     -11.246880      -306.0432
   3   1.0000     -11.228625      -305.5464
   4   1.0000     -11.222040      -305.3672
   5   1.0000     -11.221735      -305.3589
   6   1.0000     -11.216325      -305.2117
   7   1.0000     -11.214747      -305.1688
   8   1.0000      -1.387994       -37.7692
   9   1.0000      -1.090355       -29.6701
  10   1.0000      -1.037240       -28.2247
  11   1.0000      -0.967240       -26.3199
  12   1.0000      -0.921002       -25.0617
  13   1.0000      -0.828924       -22.5562
  14   1.0000      -0.774648       -21.0793
  15   1.0000      -0.753385       -20.5007
  16   1.0000      -0.672878       -18.3099
  17   1.0000      -0.648450       -17.6452
  18   1.0000      -0.634570       -17.2675
  19   1.0000      -0.624386       -16.9904
  20   1.0000      -0.602926       -16.4065
  21   1.0000      -0.581245       -15.8165
  22   1.0000      -0.545681       -14.8487
  23   1.0000      -0.532779       -14.4976
  24   1.0000      -0.511173       -13.9097
  25   1.0000      -0.497289       -13.5319
  26   1.0000      -0.477392       -12.9905
  27   1.0000      -0.475520       -12.9395
  28   1.0000      -0.466425       -12.6921
  29   1.0000      -0.449715       -12.2374
  30   1.0000      -0.357783        -9.7358
  31   0.0000       0.029456         0.8015
  32   0.0000       0.033949         0.9238
  33   0.0000       0.035645         0.9699
  34   0.0000       0.038313         1.0426
  35   0.0000       0.046067         1.2535

MULLIKEN ATOMIC CHARGES AND SPIN POPULATIONS
--------------------------------------------
   0 C :   -0.694546    1.143233
   1 C :    0.006641   -0.190883
   2 C :   -0.468696    0.050729
   3 H :    0.239540    0.020056
   4 H :    0.252428    0.003363
   5 C :   -0.117502    0.011237
   6 H :    0.272333   -0.004094
   7 H :    0.265569   -0.006066
   8 C :   -0.226196   -0.025478
   9 H :    0.283908   -0.002474
  10 H :    0.174609   -0.001336
  11 C :   -1.063472    0.027604
  12 O :   -0.452994    0.056253
  13 C :   -0.863224   -0.004152
  14 H :    0.359434    0.006045
  15 H :    0.342181    0.002712
  16 H :    0.338718   -0.002046
  17 H :    0.435652   -0.085031
  18 H :    0.504987   -0.001084
  19 H :    0.216028   -0.001731
  20 H :    0.194600    0.003144
Sum of atomic charges         :   -0.0000000

LOEWDIN ATOMIC CHARGES AND SPIN POPULATIONS
-------------------------------------------
   0 C :   -0.001615    0.553595
   1 C :    0.234762    0.101044
   2 C :    0.263889    0.028412
   3 H :   -0.155148    0.009235
   4 H :   -0.158894    0.004382
   5 C :    0.237829    0.003775
   6 H :   -0.140935    0.003712
   7 H :   -0.146956    0.000331
   8 C :    0.175955   -0.005814
   9 H :   -0.145818   -0.000460
  10 H :   -0.155067   -0.000173
  11 C :    0.521022    0.008973
  12 O :    0.520642    0.166129
  13 C :    0.323734    0.008395
  14 H :   -0.181690    0.000829
  15 H :   -0.177460    0.003826
  16 H :   -0.186418   -0.001139
  17 H :   -0.196117    0.111917
  18 H :   -0.229540    0.002531
  19 H :   -0.221473    0.002427
  20 H :   -0.180703   -0.001927

  Mayer bond orders larger than 0.100000
B(  0-C ,  1-C ) :   0.3645 B(  0-C ,  2-C ) :   0.1308 B(  0-C , 12-O ) :   0.9761
B(  0-C , 17-H ) :   0.8206 B(  1-C ,  2-C ) :   0.8973 B(  1-C ,  3-H ) :   0.9695
B(  1-C ,  4-H ) :   0.9899 B(  2-C ,  5-C ) :   0.9529 B(  2-C ,  6-H ) :   0.9609
B(  2-C ,  7-H ) :   0.9462 B(  5-C ,  8-C ) :   0.7209 B(  5-C ,  9-H ) :   0.9451
B(  5-C , 10-H ) :   0.9903 B(  8-C , 11-C ) :   1.3385 B(  8-C , 20-H ) :   1.1318
B( 11-C , 18-H ) :   0.6472 B( 11-C , 19-H ) :   1.1498 B( 12-O , 13-C ) :   0.9599
B( 13-C , 14-H ) :   0.8638 B( 13-C , 15-H ) :   0.8775 B( 13-C , 16-H ) :   0.9352

MP2 TOTAL ENERGY:     -348.979078314 Eh
FINAL SINGLE POINT ENERGY      -348.979078313538

DIPOLE MOMENT
-------------
                                X             Y             Z
Electronic contribution:      1.64342      -0.02545      -1.17550
Nuclear contribution   :     -1.22534      -0.00289       1.50818
                        -----------------------------------------
Total Dipole Moment    :      0.41808      -0.02834       0.33267
                        -----------------------------------------
Magnitude (a.u.)       :      0.53504
Magnitude (Debye)      :      1.35997

Rotational constants in cm-1:     0.223127     0.021219     0.020326
Rotational constants in MHz :  6689.165681   636.132690   609.365575

                             ****ORCA TERMINATED NORMALLY****
TOTAL RUN TIME: 0 days 0 hours 8 minutes 0 seconds 440 msec
