                         Program Version 4.2.1 -  RELEASE  -
|  1> %pal
|  2>  nprocs 32
|  3> end
|  4> !RI-MP2 aug-cc-pVTZ aug-cc-pVTZ/C TightSCF
|  5> %maxcore 4500
|  6> *xyzfile 0 1  02_37TS.xyz
|  7>
|  8>
|  9>                          ****END OF INPUT****

CARTESIAN COORDINATES (ANGSTROEM)
---------------------------------
  C      0.246730   -0.933914   -0.867100
  C     -2.064613   -0.705235   -0.073119
  C      0.705443    0.075458   -0.038460
  H      0.309343    0.069146    0.969262
  C     -2.073369    0.752011   -0.154547
  C     -3.441444    1.396746   -0.286521
  C     -1.029834   -1.439900   -0.651143
  H     -1.302968   -2.418788   -1.034517
  H      0.837714   -1.278868   -1.706980
  C     -0.991964    2.821695   -0.673869
  C     -3.302427   -1.458251    0.184307
  C      1.984333    0.809595   -0.197266
  C      2.102112    1.992178    0.774428
  H      2.142708    1.646459    1.811090
  H      1.247412    2.662533    0.695462
  H      2.079059    1.159158   -1.231847
  H      3.004926    2.574038    0.585639
  N     -0.994171    1.456059   -0.190524
  Si     3.462028   -0.393252    0.075946
  C      3.613134   -1.624192   -1.331071
  C      5.031499    0.638063    0.136403
  C      3.222026   -1.298790    1.699575
  H     -0.016686    3.022360   -1.121307
  H     -1.119772    3.528533    0.152998
  H     -1.751277    3.031555   -1.432425
  H      5.143961    1.251177   -0.761742
  H      5.906336   -0.014429    0.199649
  H      5.054451    1.303312    1.001641
  H      3.610455   -1.129360   -2.305611
  H      2.808056   -2.359714   -1.320856
  H      4.557607   -2.168007   -1.242593
  H      2.316837   -1.909837    1.678545
  H      3.143302   -0.608665    2.542915
  H      4.066759   -1.963456    1.897978
  C     -4.605011   -0.709445    0.381927
  C     -4.420358    0.764184    0.696509
  H     -5.177251   -1.234444    1.147846
  H     -5.162228   -0.823014   -0.555678
  H     -4.035874    0.886951    1.713998
  H     -5.378188    1.287404    0.655290
  H     -3.811887    1.268533   -1.310278
  H     -3.368389    2.467122   -0.100517
  O     -3.308893   -2.677226    0.217767

 Total Charge           Charge          ....    0
 Multiplicity           Mult            ....    1
 Number of Electrons    NEL             ....  144
 Basis Dimension        Dim             .... 1407

ORBITAL ENERGIES
----------------

  NO   OCC          E(Eh)            E(eV)
   0   2.0000     -68.762316     -1871.1177
   1   2.0000     -20.505642      -557.9869
   2   2.0000     -15.546339      -423.0374
   3   2.0000     -11.304257      -307.6045
   4   2.0000     -11.289824      -307.2117
   5   2.0000     -11.286446      -307.1198
   6   2.0000     -11.250961      -306.1542
   7   2.0000     -11.250280      -306.1357
   8   2.0000     -11.236410      -305.7583
   9   2.0000     -11.232176      -305.6430
  10   2.0000     -11.226920      -305.5000
  11   2.0000     -11.225824      -305.4702
  12   2.0000     -11.222343      -305.3755
  13   2.0000     -11.208307      -304.9935
  14   2.0000     -11.203615      -304.8659
  15   2.0000     -11.200695      -304.7864
  16   2.0000     -11.200266      -304.7747
  17   2.0000     -11.198979      -304.7397
  18   2.0000      -6.109579      -166.2501
  19   2.0000      -4.215807      -114.7180
  20   2.0000      -4.215683      -114.7146
  21   2.0000      -4.215617      -114.7128
  22   2.0000      -1.353284       -36.8247
  23   2.0000      -1.235560       -33.6213
  24   2.0000      -1.113690       -30.3050
  25   2.0000      -1.103383       -30.0246
  26   2.0000      -1.061081       -28.8735
  27   2.0000      -0.996530       -27.1170
  28   2.0000      -0.978620       -26.6296
  29   2.0000      -0.968982       -26.3674
  30   2.0000      -0.943093       -25.6629
  31   2.0000      -0.929299       -25.2875
  32   2.0000      -0.928130       -25.2557
  33   2.0000      -0.896805       -24.4033
  34   2.0000      -0.846964       -23.0471
  35   2.0000      -0.811680       -22.0869
  36   2.0000      -0.766149       -20.8480
  37   2.0000      -0.752714       -20.4824
  38   2.0000      -0.682116       -18.5613
  39   2.0000      -0.668778       -18.1984
  40   2.0000      -0.659460       -17.9448
  41   2.0000      -0.648766       -17.6538
  42   2.0000      -0.632048       -17.1989
  43   2.0000      -0.614233       -16.7141
  44   2.0000      -0.606001       -16.4901
  45   2.0000      -0.597967       -16.2715
  46   2.0000      -0.589794       -16.0491
  47   2.0000      -0.588314       -16.0088
  48   2.0000      -0.582420       -15.8484
  49   2.0000      -0.571458       -15.5502
  50   2.0000      -0.568474       -15.4690
  51   2.0000      -0.567368       -15.4389
  52   2.0000      -0.556444       -15.1416
  53   2.0000      -0.550306       -14.9746
  54   2.0000      -0.544940       -14.8286
  55   2.0000      -0.540449       -14.7064
  56   2.0000      -0.535745       -14.5784
  57   2.0000      -0.532631       -14.4936
  58   2.0000      -0.525983       -14.3127
  59   2.0000      -0.514160       -13.9910
  60   2.0000      -0.504339       -13.7238
  61   2.0000      -0.495222       -13.4757
  62   2.0000      -0.481808       -13.1107
  63   2.0000      -0.468778       -12.7561
  64   2.0000      -0.460458       -12.5297
  65   2.0000      -0.434620       -11.8266
  66   2.0000      -0.434245       -11.8164
  67   2.0000      -0.433176       -11.7873
  68   2.0000      -0.399868       -10.8810
  69   2.0000      -0.384639       -10.4666
  70   2.0000      -0.344787        -9.3821
  71   2.0000      -0.279365        -7.6019
  72   0.0000       0.020967         0.5705
  73   0.0000       0.024976         0.6796
  74   0.0000       0.029273         0.7966
  75   0.0000       0.031117         0.8467
  76   0.0000       0.037650         1.0245

MULLIKEN ATOMIC CHARGES
-----------------------
   0 C :   -0.073517
   1 C :    1.286282
   2 C :   -0.097474
   3 H :    0.353591
   4 C :   -0.171138
   5 C :   -0.165462
   6 C :   -1.326726
   7 H :   -0.416413
   8 H :    0.321334
   9 C :   -0.999492
  10 C :    0.602516
  11 C :    0.672298
  12 C :   -1.324502
  13 H :    0.234836
  14 H :    0.475289
  15 H :    0.264902
  16 H :    0.201536
  17 N :   -0.241958
  18 Si:    2.377751
  19 C :   -1.484932
  20 C :   -1.583788
  21 C :   -1.306900
  22 H :    0.324029
  23 H :    0.370097
  24 H :    0.225873
  25 H :    0.233335
  26 H :    0.118387
  27 H :    0.249098
  28 H :    0.228361
  29 H :    0.336190
  30 H :    0.109874
  31 H :    0.356427
  32 H :    0.215178
  33 H :    0.163909
  34 C :   -0.246010
  35 C :   -0.649098
  36 H :    0.287512
  37 H :    0.202559
  38 H :    0.207067
  39 H :    0.315140
  40 H :    0.329427
  41 H :    0.297253
  42 O :   -1.272641
Sum of atomic charges:    0.0000000

LOEWDIN ATOMIC CHARGES
----------------------
   0 C :    0.207426
   1 C :   -0.067747
   2 C :    0.087070
   3 H :   -0.171456
   4 C :   -0.239679
   5 C :    0.295255
   6 C :    0.205895
   7 H :   -0.179475
   8 H :   -0.201700
   9 C :    0.419813
  10 C :   -0.546590
  11 C :    0.017434
  12 C :    0.549466
  13 H :   -0.158376
  14 H :   -0.198939
  15 H :   -0.172651
  16 H :   -0.169648
  17 N :    0.404884
  18 Si:    0.523899
  19 C :    0.588825
  20 C :    0.586806
  21 C :    0.594511
  22 H :   -0.185060
  23 H :   -0.159564
  24 H :   -0.177353
  25 H :   -0.220301
  26 H :   -0.225764
  27 H :   -0.231260
  28 H :   -0.219739
  29 H :   -0.241629
  30 H :   -0.225062
  31 H :   -0.223457
  32 H :   -0.226467
  33 H :   -0.223295
  34 C :    0.288716
  35 C :    0.285282
  36 H :   -0.148940
  37 H :   -0.140077
  38 H :   -0.133233
  39 H :   -0.135373
  40 H :   -0.121435
  41 H :   -0.172132
  42 O :    0.461123

  Mayer bond orders larger than 0.100000
B(  0-C ,  1-C ) :   0.3571 B(  0-C ,  2-C ) :   1.1191 B(  0-C ,  3-H ) :   0.4129
B(  0-C ,  6-C ) :   0.4465 B(  0-C ,  7-H ) :  -0.2591 B(  0-C ,  8-H ) :   1.0128
B(  0-C , 10-C ) :  -0.1732 B(  0-C , 15-H ) :   0.1103 B(  1-C ,  2-C ) :   0.2601
B(  1-C ,  3-H ) :  -0.1381 B(  1-C ,  4-C ) :   0.4981 B(  1-C ,  6-C ) :   0.1590
B(  1-C ,  7-H ) :  -0.7386 B(  1-C , 10-C ) :   0.8345 B(  1-C , 17-N ) :  -0.1277
B(  1-C , 34-C ) :   0.2743 B(  2-C ,  3-H ) :   0.6091 B(  2-C ,  6-C ) :   0.2137
B(  2-C ,  8-H ) :  -0.1633 B(  2-C , 10-C ) :   0.1542 B(  2-C , 11-C ) :   1.3721
B(  2-C , 15-H ) :  -0.1517 B(  2-C , 17-N ) :   0.1120 B(  2-C , 18-Si) :   0.5731
B(  2-C , 19-C ) :   0.2032 B(  2-C , 21-C ) :  -0.2976 B(  3-H ,  8-H ) :   0.1261
B(  4-C ,  5-C ) :   0.2637 B(  4-C ,  6-C ) :   0.3570 B(  4-C ,  7-H ) :   0.1950
B(  4-C , 10-C ) :  -0.2104 B(  4-C , 17-N ) :   1.6419 B(  4-C , 34-C ) :  -0.1001
B(  4-C , 41-H ) :  -0.1486 B(  5-C , 35-C ) :   1.0380 B(  5-C , 40-H ) :   0.9291
B(  5-C , 41-H ) :   0.9978 B(  6-C ,  7-H ) :   2.2999 B(  6-C , 10-C ) :   0.7029
B(  7-H , 42-O ) :   0.2785 B(  9-C , 17-N ) :   0.8787 B(  9-C , 22-H ) :   0.9250
B(  9-C , 23-H ) :   0.8988 B(  9-C , 24-H ) :   1.0842 B( 10-C , 34-C ) :   0.6379
B( 10-C , 42-O ) :   0.5353 B( 11-C , 12-C ) :   0.6228 B( 11-C , 13-H ) :  -0.1400
B( 11-C , 15-H ) :   0.8826 B( 11-C , 18-Si) :   0.9443 B( 11-C , 21-C ) :   0.2350
B( 12-C , 13-H ) :   1.1317 B( 12-C , 14-H ) :   0.8194 B( 12-C , 16-H ) :   1.1246
B( 12-C , 18-Si) :  -0.1076 B( 15-H , 18-Si) :  -0.1325 B( 18-Si, 20-C ) :  -0.2038
B( 18-Si, 21-C ) :   0.2442 B( 18-Si, 26-H ) :  -0.1194 B( 19-C , 20-C ) :   0.2249
B( 19-C , 21-C ) :   0.1605 B( 19-C , 28-H ) :   1.0499 B( 19-C , 29-H ) :   0.9484
B( 19-C , 30-H ) :   1.1422 B( 20-C , 21-C ) :   0.1869 B( 20-C , 25-H ) :   1.0485
B( 20-C , 26-H ) :   1.1967 B( 20-C , 27-H ) :   1.0273 B( 21-C , 31-H ) :   0.8934
B( 21-C , 32-H ) :   1.0557 B( 21-C , 33-H ) :   1.0970 B( 34-C , 35-C ) :   0.9608
B( 34-C , 36-H ) :   0.9435 B( 34-C , 37-H ) :   1.0322 B( 34-C , 42-O ) :  -0.1265
B( 35-C , 38-H ) :   0.9966 B( 35-C , 39-H ) :   0.9237

MP2 TOTAL ENERGY:    -1004.183778761 Eh
FINAL SINGLE POINT ENERGY     -1004.183778760538

DIPOLE MOMENT
-------------
                                X             Y             Z
Electronic contribution:    -14.35691      -8.58286      -1.20649
Nuclear contribution   :     15.22962      10.51142       0.95021
                        -----------------------------------------
Total Dipole Moment    :      0.87271       1.92857      -0.25628
                        -----------------------------------------
Magnitude (a.u.)       :      2.13229
Magnitude (Debye)      :      5.41986

Rotational constants in cm-1:     0.024210     0.006586     0.005658
Rotational constants in MHz :   725.784943   197.430075   169.614163

                             ****ORCA TERMINATED NORMALLY****
TOTAL RUN TIME: 0 days 1 hours 11 minutes 8 seconds 997 msec
