                         Program Version 4.2.1 -  RELEASE  -
|  1> %pal
|  2>  nprocs 32
|  3> end
|  4> !RI-MP2 aug-cc-pVTZ aug-cc-pVTZ/C TightSCF
|  5> %maxcore 4500
|  6> *xyzfile 0 2  06_35P.xyz
|  7>
|  8>
|  9>                          ****END OF INPUT****

CARTESIAN COORDINATES (ANGSTROEM)
---------------------------------
  C     -2.267841    0.574779   -0.228636
  C     -1.095685    0.420139   -1.134783
  H     -2.167725    1.290195    0.585681
  Si     0.495082    0.029012   -0.113388
  Si     1.330895    1.971463    0.917684
  Si     2.158571   -0.861795   -1.520572
  Si     0.013316   -1.565376    1.546232
  C     -1.041309   -2.958856    0.840686
  H     -1.237853   -3.716658    1.604676
  H     -2.003441   -2.586560    0.486383
  H     -0.544995   -3.451229    0.001728
  C     -0.899831   -0.787821    3.000754
  H     -1.132201   -1.543402    3.756934
  H     -0.299020   -0.012512    3.481874
  H     -1.838774   -0.333241    2.680336
  C      1.615537   -2.319930    2.198605
  H      2.294382   -1.559296    2.589717
  H      1.399115   -3.020555    3.010285
  H      2.147139   -2.872614    1.420819
  C     -0.051506    2.988461    1.700253
  H     -0.611489    2.403233    2.433080
  H      0.363179    3.859823    2.215504
  H     -0.760446    3.351755    0.953284
  C      2.544191    1.486584    2.278051
  H      2.986926    2.380170    2.727402
  H      2.051325    0.926264    3.075560
  H      3.359054    0.870116    1.892845
  C      2.247305    3.061145   -0.320168
  H      2.635951    3.957417    0.172049
  H      3.095102    2.533855   -0.763596
  H      1.595618    3.384044   -1.134700
  C      3.830276   -0.830544   -0.647663
  H      4.592137   -1.310284   -1.268852
  H      4.160435    0.192550   -0.453558
  H      3.800467   -1.357272    0.308146
  C      2.324830    0.104423   -3.132080
  H      2.530865    1.162071   -2.953905
  H      3.148977   -0.300116   -3.727102
  H      1.418269    0.037152   -3.737695
  C      1.745037   -2.648924   -1.962509
  H      2.484081   -3.054319   -2.659603
  H      1.736156   -3.290722   -1.078933
  H      0.763993   -2.726468   -2.437904
  C     -0.900813    1.655083   -2.042860
  H     -1.755030    1.787077   -2.711945
  H     -0.810985    2.565974   -1.447232
  H     -0.003712    1.568939   -2.658462
  C     -3.756191   -0.954794   -1.584633
  C     -3.682559    0.138600   -0.515863
  H     -3.378278   -0.602533   -2.546937
  H     -3.180013   -1.837437   -1.299024
  H     -4.793238   -1.266127   -1.731461
  C     -4.322675   -0.374689    0.783614
  C     -4.490521    1.361496   -0.999835
  H     -4.272077    0.385082    1.567795
  H     -5.375617   -0.623679    0.624887
  H     -3.813703   -1.268266    1.149937
  H     -5.535825    1.087537   -1.172662
  H     -4.469230    2.161234   -0.255839
  H     -4.085334    1.758031   -1.932833
  H     -1.253763   -0.446410   -1.783673

 Total Charge           Charge          ....    0
 Multiplicity           Mult            ....    2
 Number of Electrons    NEL             ....  193
 Basis Dimension        Dim             .... 1879

ORBITAL ENERGIES
----------------
                 SPIN UP ORBITALS
  NO   OCC          E(Eh)            E(eV)
   0   1.0000     -68.745788     -1870.6680
   1   1.0000     -68.745732     -1870.6665
   2   1.0000     -68.744001     -1870.6194
   3   1.0000     -68.724610     -1870.0917
   4   1.0000     -11.232831      -305.6609
   5   1.0000     -11.219457      -305.2970
   6   1.0000     -11.216850      -305.2260
   7   1.0000     -11.212414      -305.1053
   8   1.0000     -11.210512      -305.0536
   9   1.0000     -11.210009      -305.0398
  10   1.0000     -11.209644      -305.0299
  11   1.0000     -11.195788      -304.6529
  12   1.0000     -11.195450      -304.6437
  13   1.0000     -11.195375      -304.6416
  14   1.0000     -11.195238      -304.6379
  15   1.0000     -11.195172      -304.6361
  16   1.0000     -11.194951      -304.6301
  17   1.0000     -11.193667      -304.5952
  18   1.0000     -11.192884      -304.5739
  19   1.0000     -11.192842      -304.5727
  20   1.0000      -6.093589      -165.8150
  21   1.0000      -6.093579      -165.8147
  22   1.0000      -6.091784      -165.7659
  23   1.0000      -6.076332      -165.3454
  24   1.0000      -4.199815      -114.2828
  25   1.0000      -4.199740      -114.2807
  26   1.0000      -4.199589      -114.2766
  27   1.0000      -4.199562      -114.2759
  28   1.0000      -4.199544      -114.2754
  29   1.0000      -4.199529      -114.2750
  30   1.0000      -4.197940      -114.2318
  31   1.0000      -4.197797      -114.2279
  32   1.0000      -4.197731      -114.2261
  33   1.0000      -4.181988      -113.7977
  34   1.0000      -4.181827      -113.7933
  35   1.0000      -4.181761      -113.7915
  36   1.0000      -1.118461       -30.4349
  37   1.0000      -1.038672       -28.2637
  38   1.0000      -0.967520       -26.3276
  39   1.0000      -0.961419       -26.1615
  40   1.0000      -0.960232       -26.1292
  41   1.0000      -0.933188       -25.3933
  42   1.0000      -0.930777       -25.3277
  43   1.0000      -0.925749       -25.1909
  44   1.0000      -0.922983       -25.1156
  45   1.0000      -0.920601       -25.0508
  46   1.0000      -0.919903       -25.0318
  47   1.0000      -0.918561       -24.9953
  48   1.0000      -0.917105       -24.9557
  49   1.0000      -0.916943       -24.9513
  50   1.0000      -0.811187       -22.0735
  51   1.0000      -0.722114       -19.6497
  52   1.0000      -0.700051       -19.0494
  53   1.0000      -0.636766       -17.3273
  54   1.0000      -0.622010       -16.9257
  55   1.0000      -0.621759       -16.9189
  56   1.0000      -0.613899       -16.7050
  57   1.0000      -0.605755       -16.4834
  58   1.0000      -0.589281       -16.0352
  59   1.0000      -0.577963       -15.7272
  60   1.0000      -0.575206       -15.6522
  61   1.0000      -0.572571       -15.5805
  62   1.0000      -0.571088       -15.5401
  63   1.0000      -0.563014       -15.3204
  64   1.0000      -0.562521       -15.3070
  65   1.0000      -0.558498       -15.1975
  66   1.0000      -0.555769       -15.1232
  67   1.0000      -0.553042       -15.0490
  68   1.0000      -0.549742       -14.9592
  69   1.0000      -0.547965       -14.9109
  70   1.0000      -0.542316       -14.7572
  71   1.0000      -0.539917       -14.6919
  72   1.0000      -0.537117       -14.6157
  73   1.0000      -0.534295       -14.5389
  74   1.0000      -0.532978       -14.5031
  75   1.0000      -0.532602       -14.4928
  76   1.0000      -0.530366       -14.4320
  77   1.0000      -0.527434       -14.3522
  78   1.0000      -0.526653       -14.3310
  79   1.0000      -0.525216       -14.2918
  80   1.0000      -0.523885       -14.2556
  81   1.0000      -0.513564       -13.9748
  82   1.0000      -0.511042       -13.9062
  83   1.0000      -0.491586       -13.3767
  84   1.0000      -0.477177       -12.9847
  85   1.0000      -0.467501       -12.7213
  86   1.0000      -0.452422       -12.3110
  87   1.0000      -0.433303       -11.7908
  88   1.0000      -0.429889       -11.6979
  89   1.0000      -0.429016       -11.6741
  90   1.0000      -0.424463       -11.5502
  91   1.0000      -0.422516       -11.4972
  92   1.0000      -0.421202       -11.4615
  93   1.0000      -0.386805       -10.5255
  94   1.0000      -0.337515        -9.1842
  95   1.0000      -0.333966        -9.0877
  96   1.0000      -0.306594        -8.3428
  97   0.0000       0.022392         0.6093
  98   0.0000       0.027957         0.7608
  99   0.0000       0.028133         0.7655
 100   0.0000       0.028583         0.7778
 101   0.0000       0.037399         1.0177

                 SPIN DOWN ORBITALS
  NO   OCC          E(Eh)            E(eV)
   0   1.0000     -68.745795     -1870.6682
   1   1.0000     -68.745660     -1870.6645
   2   1.0000     -68.744011     -1870.6196
   3   1.0000     -68.724275     -1870.0826
   4   1.0000     -11.235661      -305.7379
   5   1.0000     -11.215398      -305.1865
   6   1.0000     -11.214102      -305.1512
   7   1.0000     -11.209732      -305.0323
   8   1.0000     -11.208543      -305.0000
   9   1.0000     -11.208480      -304.9983
  10   1.0000     -11.195804      -304.6533
  11   1.0000     -11.195452      -304.6437
  12   1.0000     -11.195382      -304.6418
  13   1.0000     -11.195229      -304.6377
  14   1.0000     -11.195177      -304.6362
  15   1.0000     -11.195173      -304.6362
  16   1.0000     -11.194943      -304.6299
  17   1.0000     -11.193677      -304.5954
  18   1.0000     -11.192846      -304.5728
  19   1.0000     -11.192757      -304.5704
  20   1.0000      -6.093591      -165.8150
  21   1.0000      -6.093479      -165.8120
  22   1.0000      -6.091795      -165.7662
  23   1.0000      -6.075799      -165.3309
  24   1.0000      -4.199764      -114.2814
  25   1.0000      -4.199594      -114.2768
  26   1.0000      -4.199571      -114.2761
  27   1.0000      -4.199549      -114.2755
  28   1.0000      -4.199506      -114.2744
  29   1.0000      -4.199470      -114.2734
  30   1.0000      -4.197979      -114.2328
  31   1.0000      -4.197803      -114.2280
  32   1.0000      -4.197739      -114.2263
  33   1.0000      -4.181660      -113.7888
  34   1.0000      -4.181571      -113.7863
  35   1.0000      -4.180810      -113.7656
  36   1.0000      -1.101968       -29.9861
  37   1.0000      -1.028237       -27.9798
  38   1.0000      -0.967307       -26.3218
  39   1.0000      -0.961372       -26.1603
  40   1.0000      -0.959969       -26.1221
  41   1.0000      -0.931039       -25.3349
  42   1.0000      -0.925358       -25.1803
  43   1.0000      -0.922803       -25.1107
  44   1.0000      -0.921432       -25.0735
  45   1.0000      -0.920395       -25.0452
  46   1.0000      -0.918687       -24.9988
  47   1.0000      -0.917178       -24.9577
  48   1.0000      -0.916907       -24.9503
  49   1.0000      -0.888135       -24.1674
  50   1.0000      -0.801643       -21.8138
  51   1.0000      -0.709074       -19.2949
  52   1.0000      -0.696202       -18.9446
  53   1.0000      -0.634366       -17.2620
  54   1.0000      -0.621719       -16.9178
  55   1.0000      -0.620995       -16.8981
  56   1.0000      -0.608655       -16.5623
  57   1.0000      -0.598025       -16.2731
  58   1.0000      -0.588474       -16.0132
  59   1.0000      -0.576131       -15.6773
  60   1.0000      -0.573686       -15.6108
  61   1.0000      -0.572194       -15.5702
  62   1.0000      -0.567546       -15.4437
  63   1.0000      -0.562751       -15.3132
  64   1.0000      -0.561376       -15.2758
  65   1.0000      -0.557185       -15.1618
  66   1.0000      -0.552837       -15.0435
  67   1.0000      -0.551275       -15.0010
  68   1.0000      -0.548977       -14.9384
  69   1.0000      -0.543565       -14.7912
  70   1.0000      -0.540206       -14.6998
  71   1.0000      -0.537098       -14.6152
  72   1.0000      -0.536251       -14.5921
  73   1.0000      -0.533038       -14.5047
  74   1.0000      -0.532525       -14.4907
  75   1.0000      -0.532341       -14.4857
  76   1.0000      -0.529776       -14.4159
  77   1.0000      -0.527258       -14.3474
  78   1.0000      -0.525811       -14.3081
  79   1.0000      -0.524296       -14.2668
  80   1.0000      -0.518937       -14.1210
  81   1.0000      -0.511158       -13.9093
  82   1.0000      -0.505370       -13.7518
  83   1.0000      -0.487425       -13.2635
  84   1.0000      -0.465057       -12.6548
  85   1.0000      -0.457616       -12.4524
  86   1.0000      -0.450212       -12.2509
  87   1.0000      -0.432728       -11.7751
  88   1.0000      -0.429777       -11.6948
  89   1.0000      -0.428890       -11.6707
  90   1.0000      -0.424263       -11.5448
  91   1.0000      -0.422376       -11.4934
  92   1.0000      -0.421171       -11.4607
  93   1.0000      -0.373711       -10.1692
  94   1.0000      -0.333876        -9.0852
  95   1.0000      -0.332857        -9.0575
  96   0.0000       0.022398         0.6095
  97   0.0000       0.027945         0.7604
  98   0.0000       0.028128         0.7654
  99   0.0000       0.028441         0.7739
 100   0.0000       0.037408         1.0179

MULLIKEN ATOMIC CHARGES AND SPIN POPULATIONS
--------------------------------------------
   0 C :   -0.260505    1.805877
   1 C :    0.940261   -0.321316
   2 H :    0.154516   -0.532829
   3 Si:    1.559738    0.033118
   4 Si:    3.119136   -0.003769
   5 Si:    2.375796    0.013545
   6 Si:    3.240485    0.009111
   7 C :   -1.802925    0.003826
   8 H :    0.021498   -0.000963
   9 H :    0.347900    0.002724
  10 H :    0.315457    0.000345
  11 C :   -1.619023    0.004202
  12 H :   -0.048327    0.001456
  13 H :    0.327452    0.000236
  14 H :    0.361135    0.000722
  15 C :   -1.917916   -0.000846
  16 H :    0.316203   -0.000464
  17 H :   -0.054602   -0.000347
  18 H :    0.304819    0.000156
  19 C :   -1.622987   -0.001072
  20 H :    0.300941   -0.000296
  21 H :   -0.010142   -0.000140
  22 H :    0.224767   -0.002202
  23 C :   -1.852883   -0.000658
  24 H :   -0.010609    0.000144
  25 H :    0.313005   -0.000369
  26 H :    0.290234   -0.000139
  27 C :   -1.606896   -0.000289
  28 H :   -0.020943    0.000111
  29 H :    0.342572    0.000375
  30 H :    0.298090   -0.000258
  31 C :   -1.368748    0.002091
  32 H :    0.122800    0.000526
  33 H :    0.281742   -0.000410
  34 H :    0.283339   -0.000969
  35 C :   -1.707237    0.000014
  36 H :    0.316158    0.000283
  37 H :   -0.039636   -0.000030
  38 H :    0.221025    0.000238
  39 C :   -1.581996   -0.001162
  40 H :    0.029203   -0.000025
  41 H :    0.317223   -0.000172
  42 H :    0.257289   -0.000013
  43 C :   -1.660056    0.115875
  44 H :    0.076724   -0.006978
  45 H :    0.318896   -0.008648
  46 H :    0.417829    0.022396
  47 C :   -1.583884    0.003687
  48 C :    1.830824   -0.187502
  49 H :    0.302759   -0.012061
  50 H :    0.452791   -0.010757
  51 H :    0.055870   -0.003927
  52 C :   -1.640890    0.039644
  53 C :   -1.654101    0.084523
  54 H :    0.185086   -0.002681
  55 H :    0.160694    0.006653
  56 H :    0.417242   -0.003007
  57 H :    0.184356    0.018324
  58 H :    0.252695   -0.003945
  59 H :    0.357475   -0.008590
  60 H :    0.068279   -0.053366
Sum of atomic charges         :    0.0000000

LOEWDIN ATOMIC CHARGES AND SPIN POPULATIONS
-------------------------------------------
   0 C :    0.217812    0.532203
   1 C :   -0.115748    0.100729
   2 H :   -0.184301    0.098065
   3 Si:    0.538352    0.023618
   4 Si:    0.429898    0.001080
   5 Si:    0.434134    0.006052
   6 Si:    0.433900    0.007134
   7 C :    0.563687    0.001957
   8 H :   -0.219871    0.000177
   9 H :   -0.268697    0.001841
  10 H :   -0.237809    0.000189
  11 C :    0.552299    0.003162
  12 H :   -0.223220    0.000324
  13 H :   -0.242359    0.000214
  14 H :   -0.248962    0.004002
  15 C :    0.545863   -0.000294
  16 H :   -0.244170   -0.000007
  17 H :   -0.224082   -0.000067
  18 H :   -0.245193   -0.000003
  19 C :    0.549355   -0.000570
  20 H :   -0.238654   -0.000281
  21 H :   -0.225627   -0.000076
  22 H :   -0.240562    0.000188
  23 C :    0.545631    0.000314
  24 H :   -0.223944    0.000072
  25 H :   -0.244259    0.000018
  26 H :   -0.243166    0.000048
  27 C :    0.547379    0.000068
  28 H :   -0.226236   -0.000009
  29 H :   -0.244663    0.000031
  30 H :   -0.238232   -0.000000
  31 C :    0.546056    0.002346
  32 H :   -0.224275    0.000527
  33 H :   -0.243087    0.000124
  34 H :   -0.246608    0.000087
  35 C :    0.544817    0.000683
  36 H :   -0.239230    0.000086
  37 H :   -0.226949    0.000058
  38 H :   -0.237095    0.000117
  39 C :    0.543783   -0.000150
  40 H :   -0.226868   -0.000031
  41 H :   -0.248310   -0.000010
  42 H :   -0.230148   -0.000029
  43 C :    0.539751    0.033746
  44 H :   -0.162951    0.003260
  45 H :   -0.180190    0.003884
  46 H :   -0.195738    0.006593
  47 C :    0.578477    0.002716
  48 C :   -0.369790    0.092306
  49 H :   -0.157129    0.000084
  50 H :   -0.168767    0.000927
  51 H :   -0.151237   -0.000608
  52 C :    0.577725    0.017788
  53 C :    0.587163    0.031174
  54 H :   -0.156151    0.000760
  55 H :   -0.153999    0.002482
  56 H :   -0.171711    0.003806
  57 H :   -0.156014    0.008310
  58 H :   -0.155491    0.003437
  59 H :   -0.165236    0.003210
  60 H :   -0.229354    0.002137

  Mayer bond orders larger than 0.100000
B(  0-C ,  1-C ) :   0.6872 B(  0-C ,  2-H ) :   0.8509 B(  0-C ,  3-Si) :   0.5729
B(  0-C ,  6-Si) :   0.2077 B(  0-C , 11-C ) :   0.1038 B(  0-C , 43-C ) :   0.1641
B(  0-C , 44-H ) :   0.1349 B(  0-C , 47-C ) :   0.2209 B(  0-C , 48-C ) :   1.4479
B(  0-C , 53-C ) :  -0.3771 B(  0-C , 60-H ) :  -0.3287 B(  1-C ,  2-H ) :  -0.1028
B(  1-C ,  3-Si) :   1.4481 B(  1-C ,  4-Si) :   0.5260 B(  1-C ,  6-Si) :  -0.2385
B(  1-C , 11-C ) :  -0.2180 B(  1-C , 35-C ) :  -0.2672 B(  1-C , 43-C ) :   0.5405
B(  1-C , 44-H ) :  -0.2730 B(  1-C , 45-H ) :  -0.1122 B(  1-C , 47-C ) :  -0.2078
B(  1-C , 49-H ) :  -0.1596 B(  1-C , 60-H ) :   1.2906 B(  2-H ,  3-Si) :   0.1225
B(  2-H ,  4-Si) :   0.1034 B(  2-H , 48-C ) :  -0.1450 B(  3-Si,  4-Si) :  -0.9177
B(  3-Si,  5-Si) :  -0.3188 B(  3-Si,  6-Si) :  -0.3649 B(  3-Si,  7-C ) :   0.1448
B(  3-Si, 11-C ) :   0.2909 B(  3-Si, 15-C ) :   0.3144 B(  3-Si, 19-C ) :   0.5048
B(  3-Si, 23-C ) :   0.1857 B(  3-Si, 27-C ) :   0.1761 B(  3-Si, 31-C ) :  -0.1790
B(  3-Si, 35-C ) :   0.3250 B(  3-Si, 39-C ) :   0.2832 B(  3-Si, 43-C ) :  -0.5214
B(  3-Si, 48-C ) :  -0.1800 B(  3-Si, 60-H ) :  -0.5111 B(  4-Si,  5-Si) :   0.5354
B(  4-Si,  6-Si) :   0.7080 B(  4-Si,  7-C ) :  -0.1229 B(  4-Si, 19-C ) :  -0.3777
B(  4-Si, 21-H ) :  -0.1192 B(  4-Si, 23-C ) :  -0.8006 B(  4-Si, 24-H ) :  -0.1204
B(  4-Si, 27-C ) :  -0.3670 B(  4-Si, 28-H ) :  -0.1563 B(  4-Si, 39-C ) :  -0.1607
B(  5-Si,  6-Si) :   0.4139 B(  5-Si, 11-C ) :  -0.1186 B(  5-Si, 19-C ) :  -0.1769
B(  5-Si, 31-C ) :   0.2781 B(  5-Si, 35-C ) :  -0.4373 B(  5-Si, 37-H ) :  -0.1366
B(  5-Si, 39-C ) :  -0.2304 B(  6-Si,  7-C ) :  -0.4832 B(  6-Si,  8-H ) :  -0.1443
B(  6-Si, 11-C ) :  -0.4169 B(  6-Si, 12-H ) :  -0.1621 B(  6-Si, 15-C ) :  -0.9011
B(  6-Si, 17-H ) :  -0.2372 B(  6-Si, 19-C ) :  -0.1110 B(  6-Si, 27-C ) :  -0.1427
B(  7-C ,  8-H ) :   1.3498 B(  7-C ,  9-H ) :   1.0775 B(  7-C , 10-H ) :   1.0198
B(  7-C , 11-C ) :   0.1305 B( 11-C , 12-H ) :   1.3719 B( 11-C , 13-H ) :   1.0084
B( 11-C , 14-H ) :   1.0193 B( 15-C , 16-H ) :   1.0404 B( 15-C , 17-H ) :   1.5069
B( 15-C , 18-H ) :   1.0718 B( 19-C , 20-H ) :   1.0186 B( 19-C , 21-H ) :   1.2720
B( 19-C , 22-H ) :   1.1333 B( 19-C , 23-C ) :   0.1328 B( 19-C , 27-C ) :   0.1127
B( 23-C , 24-H ) :   1.3652 B( 23-C , 25-H ) :   1.0511 B( 23-C , 26-H ) :   1.0612
B( 23-C , 27-C ) :   0.1543 B( 27-C , 28-H ) :   1.3472 B( 27-C , 29-H ) :   0.9736
B( 27-C , 30-H ) :   1.0323 B( 31-C , 32-H ) :   1.0622 B( 31-C , 33-H ) :   1.0490
B( 31-C , 34-H ) :   1.0454 B( 31-C , 35-C ) :   0.2038 B( 35-C , 36-H ) :   0.9957
B( 35-C , 37-H ) :   1.3784 B( 35-C , 38-H ) :   1.1372 B( 39-C , 40-H ) :   1.2729
B( 39-C , 41-H ) :   1.0008 B( 39-C , 42-H ) :   1.0498 B( 43-C , 44-H ) :   1.3305
B( 43-C , 45-H ) :   1.0444 B( 43-C , 46-H ) :   0.9405 B( 45-H , 46-H ) :   0.1027
B( 47-C , 48-C ) :   0.1646 B( 47-C , 49-H ) :   1.0630 B( 47-C , 50-H ) :   0.8301
B( 47-C , 51-H ) :   1.3367 B( 47-C , 53-C ) :   0.1379 B( 48-C , 51-H ) :  -0.1834
B( 48-C , 52-C ) :   0.1968 B( 48-C , 55-H ) :  -0.1188 B( 48-C , 57-H ) :  -0.1428
B( 52-C , 53-C ) :   0.1341 B( 52-C , 54-H ) :   1.2094 B( 52-C , 55-H ) :   1.1784
B( 52-C , 56-H ) :   0.9282 B( 53-C , 57-H ) :   1.2310 B( 53-C , 58-H ) :   1.1157
B( 53-C , 59-H ) :   0.9782

MP2 TOTAL ENERGY:    -1789.229436528 Eh
FINAL SINGLE POINT ENERGY     -1789.229436527738

DIPOLE MOMENT
-------------
                                X             Y             Z
Electronic contribution:      7.25156      -0.49562       1.00107
Nuclear contribution   :     -7.33878       0.53317      -1.11867
                        -----------------------------------------
Total Dipole Moment    :     -0.08722       0.03755      -0.11760
                        -----------------------------------------
Magnitude (a.u.)       :      0.15115
Magnitude (Debye)      :      0.38421

Rotational constants in cm-1:     0.008960     0.006071     0.005898
Rotational constants in MHz :   268.617602   182.016330   176.822316

                             ****ORCA TERMINATED NORMALLY****
TOTAL RUN TIME: 0 days 4 hours 5 minutes 29 seconds 515 msec
