                         Program Version 4.2.1 -  RELEASE  -
|  1> %pal
|  2>  nprocs 32
|  3> end
|  4> !RI-MP2 aug-cc-pVTZ aug-cc-pVTZ/C TightSCF
|  5> %maxcore 4500
|  6> *xyzfile 0 1  10_26R2.xyz
|  7>
|  8>
|  9>                          ****END OF INPUT****

CARTESIAN COORDINATES (ANGSTROEM)
---------------------------------
  C     -0.071466    1.069555    0.663439
  C     -0.071466    1.069555   -0.663439
  C     -0.071466   -0.328718   -1.227620
  H     -1.061072   -0.573281   -1.631641
  H      0.639964   -0.458095   -2.046842
  C     -0.071466   -0.328718    1.227620
  H     -1.061072   -0.573281    1.631641
  C      0.277507   -1.196683    0.000000
  H     -0.238035   -2.157668    0.000000
  H      1.350331   -1.402039    0.000000
  H      0.639964   -0.458095    2.046842
  H     -0.109964    1.956256    1.284651
  H     -0.109964    1.956256   -1.284651

 Total Charge           Charge          ....    0
 Multiplicity           Mult            ....    1
 Number of Electrons    NEL             ....   38
 Basis Dimension        Dim             ....  414

ORBITAL ENERGIES
----------------

  NO   OCC          E(Eh)            E(eV)
   0   2.0000     -11.219983      -305.3113
   1   2.0000     -11.219883      -305.3085
   2   2.0000     -11.218772      -305.2783
   3   2.0000     -11.217286      -305.2379
   4   2.0000     -11.217027      -305.2308
   5   2.0000      -1.129227       -30.7278
   6   2.0000      -0.962870       -26.2010
   7   2.0000      -0.954226       -25.9658
   8   2.0000      -0.785038       -21.3620
   9   2.0000      -0.721266       -19.6266
  10   2.0000      -0.672122       -18.2894
  11   2.0000      -0.633831       -17.2474
  12   2.0000      -0.549544       -14.9538
  13   2.0000      -0.532323       -14.4852
  14   2.0000      -0.488020       -13.2797
  15   2.0000      -0.487899       -13.2764
  16   2.0000      -0.482663       -13.1339
  17   2.0000      -0.472436       -12.8556
  18   2.0000      -0.340920        -9.2769
  19   0.0000       0.031337         0.8527
  20   0.0000       0.038457         1.0465
  21   0.0000       0.038788         1.0555
  22   0.0000       0.041596         1.1319
  23   0.0000       0.053819         1.4645

MULLIKEN ATOMIC CHARGES
-----------------------
   0 C :   -0.704650
   1 C :   -0.704650
   2 C :   -0.352480
   3 H :    0.250304
   4 H :    0.301923
   5 C :   -0.352480
   6 H :    0.250304
   7 C :   -0.467063
   8 H :    0.281027
   9 H :    0.223637
  10 H :    0.301923
  11 H :    0.486102
  12 H :    0.486102
Sum of atomic charges:    0.0000000

LOEWDIN ATOMIC CHARGES
----------------------
   0 C :    0.226066
   1 C :    0.226066
   2 C :    0.265496
   3 H :   -0.151679
   4 H :   -0.155461
   5 C :    0.265496
   6 H :   -0.151679
   7 C :    0.291320
   8 H :   -0.149394
   9 H :   -0.151054
  10 H :   -0.155461
  11 H :   -0.179858
  12 H :   -0.179858

  Mayer bond orders larger than 0.100000
B(  0-C ,  1-C ) :   1.6222 B(  0-C ,  5-C ) :   0.8263 B(  0-C , 11-H ) :   0.7541
B(  1-C ,  2-C ) :   0.8263 B(  1-C , 12-H ) :   0.7541 B(  2-C ,  3-H ) :   0.9408
B(  2-C ,  4-H ) :   0.9361 B(  2-C ,  7-C ) :   0.9646 B(  5-C ,  6-H ) :   0.9408
B(  5-C ,  7-C ) :   0.9646 B(  5-C , 10-H ) :   0.9361 B(  7-C ,  8-H ) :   0.9408
B(  7-C ,  9-H ) :   0.9803

MP2 TOTAL ENERGY:     -194.890248373 Eh
FINAL SINGLE POINT ENERGY      -194.890248372524

DIPOLE MOMENT
-------------
                                X             Y             Z
Electronic contribution:     -0.08179       1.70588      -0.00000
Nuclear contribution   :      0.05254      -1.79147      -0.00000
                        -----------------------------------------
Total Dipole Moment    :     -0.02925      -0.08560      -0.00000
                        -----------------------------------------
Magnitude (a.u.)       :      0.09046
Magnitude (Debye)      :      0.22992

Rotational constants in cm-1:     0.244691     0.242993     0.132372
Rotational constants in MHz :  7335.637940  7284.759099  3968.402971

                             ****ORCA TERMINATED NORMALLY****
TOTAL RUN TIME: 0 days 0 hours 0 minutes 53 seconds 945 msec
