                         Program Version 4.2.1 -  RELEASE  -
|  1> %pal
|  2>  nprocs 32
|  3> end
|  4> !RI-MP2 aug-cc-pVTZ aug-cc-pVTZ/C TightSCF
|  5> %maxcore 4500
|  6> *xyzfile 0 1  02_23R.xyz
|  7>
|  8>
|  9>                          ****END OF INPUT****

CARTESIAN COORDINATES (ANGSTROEM)
---------------------------------
  O      4.039936   -0.033527   -0.032883
  C      3.156203   -1.020226    0.483414
  C      2.423302   -1.700546   -0.636781
  C      1.163175   -2.119962   -0.671799
  C      0.150662   -1.993762    0.416857
  O     -1.033934   -1.411544   -0.168120
  H      0.481744   -1.362182    1.238847
  H     -0.119366   -2.968719    0.830711
  H      2.472096   -0.589236    1.219006
  H      3.780909   -1.753512    1.003701
  C      3.661718    1.323333    0.185372
  C     -1.799631   -0.660551    0.641382
  C     -2.820223    0.161435   -0.140877
  O     -1.660725   -0.638158    1.835115
  C      2.305398    1.628735   -0.362679
  H      4.439912    1.902482   -0.314904
  H      3.696832    1.558550    1.257040
  C      1.284611    2.041614    0.384407
  C     -0.116973    2.114349   -0.043008
  C     -0.631218    1.249103   -0.914020
  C     -2.085443    1.040143   -1.214008
  H     -2.178305    0.557975   -2.188486
  H     -2.614589    1.993717   -1.275169
  C     -3.564689    1.058412    0.846627
  H     -4.045369    0.469401    1.627779
  H     -4.329560    1.630046    0.316588
  H     -2.883883    1.756134    1.335708
  C     -3.803530   -0.790645   -0.833232
  H     -4.522819   -0.213517   -1.418915
  H     -4.360824   -1.380252   -0.101715
  H     -3.281212   -1.473576   -1.503958
  H      3.047304   -1.874029   -1.508974
  H      0.806336   -2.614300   -1.570637
  H      2.160159    1.421192   -1.419168
  H      1.469434    2.274278    1.431702
  H      0.040787    0.522403   -1.355225
  H     -0.761956    2.820400    0.473240

 Total Charge           Charge          ....    0
 Multiplicity           Mult            ....    1
 Number of Electrons    NEL             ....  128
 Basis Dimension        Dim             .... 1242

ORBITAL ENERGIES
----------------

  NO   OCC          E(Eh)            E(eV)
   0   2.0000     -20.598246      -560.5068
   1   2.0000     -20.556535      -559.3718
   2   2.0000     -20.540333      -558.9309
   3   2.0000     -11.371976      -309.4472
   4   2.0000     -11.293410      -307.3093
   5   2.0000     -11.282392      -307.0095
   6   2.0000     -11.280205      -306.9500
   7   2.0000     -11.257927      -306.3438
   8   2.0000     -11.238610      -305.8181
   9   2.0000     -11.237564      -305.7897
  10   2.0000     -11.237517      -305.7884
  11   2.0000     -11.236195      -305.7524
  12   2.0000     -11.232969      -305.6646
  13   2.0000     -11.231170      -305.6157
  14   2.0000     -11.226832      -305.4976
  15   2.0000     -11.226182      -305.4799
  16   2.0000     -11.215594      -305.1918
  17   2.0000      -1.461415       -39.7671
  18   2.0000      -1.373231       -37.3675
  19   2.0000      -1.359393       -36.9910
  20   2.0000      -1.131153       -30.7802
  21   2.0000      -1.099436       -29.9172
  22   2.0000      -1.091665       -29.7057
  23   2.0000      -1.037347       -28.2276
  24   2.0000      -0.996061       -27.1042
  25   2.0000      -0.958222       -26.0745
  26   2.0000      -0.941580       -25.6217
  27   2.0000      -0.917547       -24.9677
  28   2.0000      -0.874022       -23.7833
  29   2.0000      -0.841582       -22.9006
  30   2.0000      -0.803869       -21.8744
  31   2.0000      -0.766756       -20.8645
  32   2.0000      -0.753477       -20.5032
  33   2.0000      -0.728969       -19.8363
  34   2.0000      -0.696026       -18.9398
  35   2.0000      -0.678640       -18.4667
  36   2.0000      -0.675591       -18.3838
  37   2.0000      -0.669777       -18.2256
  38   2.0000      -0.664071       -18.0703
  39   2.0000      -0.643185       -17.5020
  40   2.0000      -0.626238       -17.0408
  41   2.0000      -0.617398       -16.8003
  42   2.0000      -0.615247       -16.7417
  43   2.0000      -0.595989       -16.2177
  44   2.0000      -0.583349       -15.8737
  45   2.0000      -0.577727       -15.7208
  46   2.0000      -0.563979       -15.3467
  47   2.0000      -0.556866       -15.1531
  48   2.0000      -0.546656       -14.8753
  49   2.0000      -0.536801       -14.6071
  50   2.0000      -0.530551       -14.4370
  51   2.0000      -0.515753       -14.0344
  52   2.0000      -0.512576       -13.9479
  53   2.0000      -0.508234       -13.8298
  54   2.0000      -0.494277       -13.4500
  55   2.0000      -0.480331       -13.0705
  56   2.0000      -0.476351       -12.9622
  57   2.0000      -0.465176       -12.6581
  58   2.0000      -0.456519       -12.4225
  59   2.0000      -0.436909       -11.8889
  60   2.0000      -0.426173       -11.5968
  61   2.0000      -0.420827       -11.4513
  62   2.0000      -0.369876       -10.0648
  63   2.0000      -0.320773        -8.7287
  64   0.0000       0.026131         0.7111
  65   0.0000       0.030349         0.8258
  66   0.0000       0.031513         0.8575
  67   0.0000       0.033591         0.9141
  68   0.0000       0.041610         1.1323

MULLIKEN ATOMIC CHARGES
-----------------------
   0 O :   -0.845261
   1 C :   -0.041495
   2 C :   -0.428551
   3 C :   -0.443826
   4 C :   -0.081961
   5 O :   -0.572339
   6 H :    0.241370
   7 H :    0.446437
   8 H :    0.439069
   9 H :    0.359244
  10 C :   -0.146631
  11 C :    0.980540
  12 C :    1.904973
  13 O :   -1.272832
  14 C :   -0.263513
  15 H :    0.404983
  16 H :    0.279617
  17 C :    0.005829
  18 C :   -0.274789
  19 C :   -0.276738
  20 C :   -0.764905
  21 H :    0.192724
  22 H :    0.279807
  23 C :   -1.320523
  24 H :    0.255518
  25 H :    0.204293
  26 H :    0.372689
  27 C :   -1.418956
  28 H :    0.234306
  29 H :    0.272026
  30 H :    0.362393
  31 H :    0.139969
  32 H :    0.085999
  33 H :    0.187955
  34 H :   -0.202428
  35 H :    0.397323
  36 H :    0.307683
Sum of atomic charges:   -0.0000000

LOEWDIN ATOMIC CHARGES
----------------------
   0 O :    0.569441
   1 C :    0.012685
   2 C :    0.227696
   3 C :    0.221195
   4 C :    0.053587
   5 O :    0.607916
   6 H :   -0.202590
   7 H :   -0.138951
   8 H :   -0.185441
   9 H :   -0.152101
  10 C :    0.012575
  11 C :   -0.815491
  12 C :   -0.329640
  13 O :    0.512067
  14 C :    0.197790
  15 H :   -0.163975
  16 H :   -0.162208
  17 C :    0.195174
  18 C :    0.217594
  19 C :    0.202772
  20 C :    0.299890
  21 H :   -0.150629
  22 H :   -0.146382
  23 C :    0.566353
  24 H :   -0.159026
  25 H :   -0.155922
  26 H :   -0.162933
  27 C :    0.589837
  28 H :   -0.150238
  29 H :   -0.150849
  30 H :   -0.164795
  31 H :   -0.181750
  32 H :   -0.183453
  33 H :   -0.171561
  34 H :   -0.178818
  35 H :   -0.200889
  36 H :   -0.178930

  Mayer bond orders larger than 0.100000
B(  0-O ,  1-C ) :   0.8645 B(  0-O ,  8-H ) :  -0.1446 B(  0-O , 10-C ) :   0.8778
B(  1-C ,  2-C ) :   0.7124 B(  1-C ,  3-C ) :   0.1088 B(  1-C ,  8-H ) :   0.8226
B(  1-C ,  9-H ) :   0.9625 B(  2-C ,  3-C ) :   1.6019 B(  2-C ,  4-C ) :   0.1363
B(  2-C , 31-H ) :   1.2262 B(  2-C , 32-H ) :  -0.1772 B(  3-C ,  4-C ) :   0.6601
B(  3-C ,  6-H ) :   0.1669 B(  3-C ,  7-H ) :  -0.1350 B(  3-C , 31-H ) :  -0.1568
B(  3-C , 32-H ) :   1.2981 B(  4-C ,  5-O ) :   0.9715 B(  4-C ,  6-H ) :   0.9549
B(  4-C ,  7-H ) :   0.8351 B(  5-O , 11-C ) :   1.1513 B(  5-O , 12-C ) :  -0.3736
B(  5-O , 19-C ) :  -0.1257 B(  5-O , 20-C ) :   0.1529 B( 10-C , 14-C ) :   0.8216
B( 10-C , 15-H ) :   0.8921 B( 10-C , 16-H ) :   0.9943 B( 11-C , 12-C ) :   0.7912
B( 11-C , 13-O ) :   0.8168 B( 11-C , 27-C ) :  -0.1146 B( 12-C , 13-O ) :  -0.2159
B( 12-C , 19-C ) :   0.2213 B( 12-C , 20-C ) :   0.8318 B( 12-C , 23-C ) :   0.2221
B( 12-C , 25-H ) :  -0.1139 B( 12-C , 27-C ) :   0.2521 B( 12-C , 28-H ) :  -0.1423
B( 12-C , 29-H ) :  -0.1051 B( 13-O , 23-C ) :   0.1527 B( 14-C , 15-H ) :  -0.1390
B( 14-C , 17-C ) :   1.2663 B( 14-C , 18-C ) :   0.2122 B( 14-C , 33-H ) :   1.1637
B( 17-C , 18-C ) :   0.6165 B( 17-C , 34-H ) :   1.5984 B( 18-C , 19-C ) :   1.3019
B( 18-C , 34-H ) :  -0.2124 B( 18-C , 36-H ) :   0.9630 B( 19-C , 20-C ) :   0.8763
B( 19-C , 35-H ) :   0.8669 B( 19-C , 36-H ) :  -0.1388 B( 20-C , 21-H ) :   1.1105
B( 20-C , 22-H ) :   1.0300 B( 20-C , 23-C ) :   0.1032 B( 23-C , 24-H ) :   1.0654
B( 23-C , 25-H ) :   1.1238 B( 23-C , 26-H ) :   0.9515 B( 27-C , 28-H ) :   1.1313
B( 27-C , 29-H ) :   1.0775 B( 27-C , 30-H ) :   0.9395

MP2 TOTAL ENERGY:     -769.659389460 Eh
FINAL SINGLE POINT ENERGY      -769.659389459602

DIPOLE MOMENT
-------------
                                X             Y             Z
Electronic contribution:      6.37009      -2.66690       1.45364
Nuclear contribution   :     -6.79658       2.69010      -1.92984
                        -----------------------------------------
Total Dipole Moment    :     -0.42650       0.02320      -0.47620
                        -----------------------------------------
Magnitude (a.u.)       :      0.63969
Magnitude (Debye)      :      1.62597

Rotational constants in cm-1:     0.027242     0.010371     0.008722
Rotational constants in MHz :   816.706240   310.912767   261.471205

                             ****ORCA TERMINATED NORMALLY****
TOTAL RUN TIME: 0 days 0 hours 37 minutes 30 seconds 348 msec
