                         Program Version 4.2.1 -  RELEASE  -
|  1> %pal
|  2>  nprocs 32
|  3> end
|  4> !RI-MP2 aug-cc-pVTZ aug-cc-pVTZ/C TightSCF
|  5> %maxcore 4500
|  6> *xyzfile 0 1  10_19R1.xyz
|  7>
|  8>
|  9>                          ****END OF INPUT****

CARTESIAN COORDINATES (ANGSTROEM)
---------------------------------
  N      2.097162   -1.028316   -0.000024
  N      3.100539   -0.306477    0.000015
  N      4.106701    0.184734    0.000034
  C      0.821658   -0.462655   -0.000011
  C      0.521198    0.896447   -0.000010
  C     -0.253325   -1.351427   -0.000006
  C     -0.782761    1.355714   -0.000001
  C     -1.559990   -0.903946    0.000003
  C     -1.830472    0.454167    0.000005
  F      1.515773    1.790684   -0.000020
  F     -1.026236    2.661351    0.000000
  F     -3.085615    0.886157    0.000013
  F     -2.560989   -1.776398    0.000009
  F     -0.023895   -2.659503   -0.000008

 Total Charge           Charge          ....    0
 Multiplicity           Mult            ....    1
 Number of Electrons    NEL             ....  102
 Basis Dimension        Dim             ....  644

ORBITAL ENERGIES
----------------

  NO   OCC          E(Eh)            E(eV)
   0   2.0000     -26.361760      -717.3400
   1   2.0000     -26.357274      -717.2179
   2   2.0000     -26.356084      -717.1855
   3   2.0000     -26.354845      -717.1518
   4   2.0000     -26.349263      -716.9999
   5   2.0000     -15.818970      -430.4560
   6   2.0000     -15.709148      -427.4676
   7   2.0000     -15.651422      -425.8968
   8   2.0000     -11.380421      -309.6770
   9   2.0000     -11.379069      -309.6402
  10   2.0000     -11.378492      -309.6245
  11   2.0000     -11.377276      -309.5914
  12   2.0000     -11.375454      -309.5418
  13   2.0000     -11.348508      -308.8086
  14   2.0000      -1.689884       -45.9841
  15   2.0000      -1.683836       -45.8195
  16   2.0000      -1.676454       -45.6186
  17   2.0000      -1.668587       -45.4046
  18   2.0000      -1.663047       -45.2538
  19   2.0000      -1.550181       -42.1826
  20   2.0000      -1.346566       -36.6419
  21   2.0000      -1.224486       -33.3199
  22   2.0000      -1.097834       -29.8736
  23   2.0000      -1.079940       -29.3867
  24   2.0000      -0.962747       -26.1977
  25   2.0000      -0.928667       -25.2703
  26   2.0000      -0.864676       -23.5290
  27   2.0000      -0.844221       -22.9724
  28   2.0000      -0.827199       -22.5092
  29   2.0000      -0.788593       -21.4587
  30   2.0000      -0.773024       -21.0351
  31   2.0000      -0.772444       -21.0193
  32   2.0000      -0.769163       -20.9300
  33   2.0000      -0.765088       -20.8191
  34   2.0000      -0.751311       -20.4442
  35   2.0000      -0.746477       -20.3127
  36   2.0000      -0.732624       -19.9357
  37   2.0000      -0.727020       -19.7832
  38   2.0000      -0.723862       -19.6973
  39   2.0000      -0.717248       -19.5173
  40   2.0000      -0.706143       -19.2151
  41   2.0000      -0.699872       -19.0445
  42   2.0000      -0.693194       -18.8628
  43   2.0000      -0.651328       -17.7235
  44   2.0000      -0.633188       -17.2299
  45   2.0000      -0.605118       -16.4661
  46   2.0000      -0.562433       -15.3046
  47   2.0000      -0.490541       -13.3483
  48   2.0000      -0.474615       -12.9149
  49   2.0000      -0.383603       -10.4384
  50   2.0000      -0.349461        -9.5093
  51   0.0000       0.040838         1.1113
  52   0.0000       0.053198         1.4476
  53   0.0000       0.055055         1.4981
  54   0.0000       0.067837         1.8459
  55   0.0000       0.070087         1.9072

MULLIKEN ATOMIC CHARGES
-----------------------
   0 N :   -0.890253
   1 N :    1.236602
   2 N :   -0.879399
   3 C :    0.450666
   4 C :    0.629634
   5 C :    0.454689
   6 C :    0.173717
   7 C :    0.405555
   8 C :    0.552553
   9 F :   -0.446757
  10 F :   -0.421164
  11 F :   -0.441211
  12 F :   -0.447637
  13 F :   -0.376995
Sum of atomic charges:    0.0000000

LOEWDIN ATOMIC CHARGES
----------------------
   0 N :    0.225500
   1 N :   -0.203920
   2 N :    0.336753
   3 C :   -0.357786
   4 C :   -0.528703
   5 C :   -0.539264
   6 C :   -0.539826
   7 C :   -0.536891
   8 C :   -0.540415
   9 F :    0.526799
  10 F :    0.538058
  11 F :    0.537658
  12 F :    0.539201
  13 F :    0.542835

  Mayer bond orders larger than 0.100000
B(  0-N ,  1-N ) :   0.7444 B(  0-N ,  2-N ) :   0.8119 B(  0-N ,  3-C ) :   0.5245
B(  0-N ,  4-C ) :  -0.2554 B(  0-N ,  5-C ) :  -0.1574 B(  1-N ,  2-N ) :   0.9093
B(  2-N ,  4-C ) :  -0.1287 B(  3-C ,  4-C ) :   1.3402 B(  3-C ,  5-C ) :   1.0795
B(  3-C ,  9-F ) :   0.1563 B(  3-C , 13-F ) :   0.3272 B(  4-C ,  6-C ) :   1.0873
B(  4-C ,  8-C ) :  -0.1380 B(  4-C ,  9-F ) :   0.2752 B(  4-C , 10-F ) :   0.1762
B(  5-C ,  6-C ) :   0.1156 B(  5-C ,  7-C ) :   1.2487 B(  5-C , 12-F ) :   0.1951
B(  5-C , 13-F ) :   0.1895 B(  6-C ,  8-C ) :   1.3298 B(  6-C ,  9-F ) :   0.1212
B(  6-C , 10-F ) :   0.2583 B(  6-C , 11-F ) :   0.1908 B(  7-C ,  8-C ) :   1.2235
B(  7-C , 11-F ) :   0.1427 B(  7-C , 12-F ) :   0.2643 B(  7-C , 13-F ) :   0.1277
B(  8-C , 11-F ) :   0.2610 B(  8-C , 12-F ) :   0.1037 B(  9-F , 10-F ) :   0.1104
B( 10-F , 11-F ) :   0.1222 B( 11-F , 12-F ) :   0.1312 B( 12-F , 13-F ) :   0.1142

MP2 TOTAL ENERGY:     -890.730318021 Eh
FINAL SINGLE POINT ENERGY      -890.730318020704

DIPOLE MOMENT
-------------
                                X             Y             Z
Electronic contribution:     -4.26298       0.96303       0.00001
Nuclear contribution   :      4.73810      -0.82263       0.00001
                        -----------------------------------------
Total Dipole Moment    :      0.47512       0.14039       0.00001
                        -----------------------------------------
Magnitude (a.u.)       :      0.49543
Magnitude (Debye)      :      1.25928

Rotational constants in cm-1:     0.034415     0.018931     0.012213
Rotational constants in MHz :  1031.729364   567.527129   366.129140

                             ****ORCA TERMINATED NORMALLY****
TOTAL RUN TIME: 0 days 0 hours 5 minutes 19 seconds 598 msec
