                         Program Version 4.2.1 -  RELEASE  -
|  1> %pal
|  2>  nprocs 32
|  3> end
|  4> !RI-MP2 aug-cc-pVTZ aug-cc-pVTZ/C TightSCF
|  5> %maxcore 4500
|  6> *xyzfile 0 1  02_9TS.xyz
|  7>
|  8>
|  9>                          ****END OF INPUT****

CARTESIAN COORDINATES (ANGSTROEM)
---------------------------------
  C     -3.433122    0.792289   -0.580434
  C     -1.993763    1.275339   -0.772661
  C     -1.055027    0.729281    0.295976
  C     -1.289059   -1.250312    0.046215
  C     -3.649059   -0.713539   -0.698165
  H     -1.638379    0.940106   -1.755794
  H     -3.777815    1.123461    0.408181
  H     -4.072254    1.299081   -1.310606
  H     -1.019004   -1.181819   -1.004048
  H     -3.362198   -1.016023   -1.714474
  H     -1.470815    0.722669    1.300555
  H     -3.022885   -1.219002    1.305973
  H     -2.971087   -2.556110    0.171674
  C     -2.762279   -1.485537    0.275054
  C      0.299542    1.075225    0.266178
  C     -0.347405   -1.854845    0.876937
  H     -0.683628   -2.289466    1.812753
  C      1.551665   -1.015736   -0.375388
  C      1.023018   -1.749924    0.662209
  H      1.682147   -2.122285    1.436251
  H      0.927523   -0.795462   -1.230247
  H      0.740006    1.527871   -0.613897
  C     -5.119003   -1.067043   -0.496901
  H     -5.289993   -2.139234   -0.619464
  H     -5.755253   -0.541023   -1.212501
  H     -5.449485   -0.789657    0.508559
  C      1.036003    1.127750    1.515094
  O      0.585059    0.634753    2.542647
  C      2.363165    1.852920    1.519627
  C      2.978479   -0.769679   -0.581516
  C      3.364034   -0.184910   -1.725576
  H      2.577036    0.072697   -2.431696
  C      4.744952    0.167563   -2.172328
  H      4.986190   -0.343058   -3.109722
  H      5.512360   -0.092956   -1.445676
  H      4.822291    1.240505   -2.374463
  C      3.922234   -1.192564    0.509981
  H      4.943668   -0.869575    0.323605
  H      3.928736   -2.281091    0.612218
  H      3.610212   -0.782238    1.472515
  C     -1.972115    2.808023   -0.761992
  H     -2.284749    3.188239    0.214276
  H     -0.974053    3.197241   -0.964458
  H     -2.656747    3.207894   -1.514408
  H      2.172631    2.929261    1.562166
  H      2.937778    1.654387    0.614223
  H      2.933743    1.571756    2.403480

 Total Charge           Charge          ....    0
 Multiplicity           Mult            ....    1
 Number of Electrons    NEL             ....  144
 Basis Dimension        Dim             .... 1518

ORBITAL ENERGIES
----------------

  NO   OCC          E(Eh)            E(eV)
   0   2.0000     -20.499471      -557.8190
   1   2.0000     -11.296381      -307.3902
   2   2.0000     -11.251267      -306.1625
   3   2.0000     -11.241924      -305.9083
   4   2.0000     -11.241859      -305.9065
   5   2.0000     -11.238721      -305.8211
   6   2.0000     -11.237468      -305.7870
   7   2.0000     -11.234359      -305.7025
   8   2.0000     -11.231076      -305.6131
   9   2.0000     -11.228785      -305.5508
  10   2.0000     -11.226522      -305.4892
  11   2.0000     -11.222318      -305.3748
  12   2.0000     -11.221870      -305.3626
  13   2.0000     -11.219618      -305.3013
  14   2.0000     -11.217488      -305.2434
  15   2.0000     -11.213137      -305.1250
  16   2.0000     -11.213123      -305.1246
  17   2.0000     -11.210082      -305.0419
  18   2.0000     -11.209637      -305.0297
  19   2.0000      -1.343252       -36.5518
  20   2.0000      -1.141659       -31.0661
  21   2.0000      -1.123110       -30.5614
  22   2.0000      -1.083287       -29.4777
  23   2.0000      -1.071669       -29.1616
  24   2.0000      -1.021670       -27.8010
  25   2.0000      -1.013890       -27.5893
  26   2.0000      -0.981666       -26.7125
  27   2.0000      -0.969715       -26.3873
  28   2.0000      -0.934238       -25.4219
  29   2.0000      -0.924919       -25.1683
  30   2.0000      -0.896374       -24.3916
  31   2.0000      -0.860228       -23.4080
  32   2.0000      -0.825394       -22.4601
  33   2.0000      -0.782314       -21.2878
  34   2.0000      -0.766618       -20.8607
  35   2.0000      -0.738481       -20.0951
  36   2.0000      -0.718265       -19.5450
  37   2.0000      -0.698942       -19.0192
  38   2.0000      -0.675028       -18.3684
  39   2.0000      -0.650589       -17.7034
  40   2.0000      -0.635719       -17.2988
  41   2.0000      -0.630190       -17.1484
  42   2.0000      -0.622106       -16.9284
  43   2.0000      -0.616270       -16.7696
  44   2.0000      -0.599338       -16.3088
  45   2.0000      -0.584210       -15.8972
  46   2.0000      -0.581357       -15.8195
  47   2.0000      -0.574598       -15.6356
  48   2.0000      -0.572322       -15.5737
  49   2.0000      -0.563629       -15.3371
  50   2.0000      -0.557944       -15.1824
  51   2.0000      -0.551254       -15.0004
  52   2.0000      -0.542488       -14.7618
  53   2.0000      -0.538481       -14.6528
  54   2.0000      -0.535593       -14.5742
  55   2.0000      -0.529193       -14.4001
  56   2.0000      -0.524597       -14.2750
  57   2.0000      -0.521170       -14.1818
  58   2.0000      -0.520174       -14.1547
  59   2.0000      -0.503511       -13.7012
  60   2.0000      -0.498758       -13.5719
  61   2.0000      -0.485295       -13.2055
  62   2.0000      -0.480737       -13.0815
  63   2.0000      -0.471126       -12.8200
  64   2.0000      -0.462364       -12.5816
  65   2.0000      -0.452932       -12.3249
  66   2.0000      -0.448011       -12.1910
  67   2.0000      -0.433778       -11.8037
  68   2.0000      -0.389412       -10.5964
  69   2.0000      -0.377460       -10.2712
  70   2.0000      -0.317014        -8.6264
  71   2.0000      -0.263792        -7.1782
  72   0.0000       0.021751         0.5919
  73   0.0000       0.026510         0.7214
  74   0.0000       0.030190         0.8215
  75   0.0000       0.032276         0.8783
  76   0.0000       0.037515         1.0208

MULLIKEN ATOMIC CHARGES
-----------------------
   0 C :   -0.559442
   1 C :    0.375314
   2 C :    0.351277
   3 C :    1.361192
   4 C :    0.190444
   5 H :   -0.010599
   6 H :    0.095694
   7 H :    0.455024
   8 H :    0.367421
   9 H :    0.234254
  10 H :    0.044596
  11 H :    0.060747
  12 H :    0.452323
  13 C :   -0.605370
  14 C :   -0.659402
  15 C :   -1.337210
  16 H :   -0.069497
  17 C :   -0.535634
  18 C :   -0.297772
  19 H :    0.015871
  20 H :   -0.087647
  21 H :    0.166903
  22 C :   -1.299497
  23 H :    0.228097
  24 H :    0.243036
  25 H :    0.235818
  26 C :    1.414063
  27 O :   -1.417203
  28 C :   -0.937420
  29 C :    1.878446
  30 C :   -0.480088
  31 H :    0.154967
  32 C :   -1.152902
  33 H :    0.206891
  34 H :    0.409305
  35 H :    0.199399
  36 C :   -0.905684
  37 H :    0.291277
  38 H :    0.185387
  39 H :    0.302886
  40 C :   -1.256612
  41 H :    0.243243
  42 H :    0.326201
  43 H :    0.193210
  44 H :    0.321843
  45 H :    0.343273
  46 H :    0.263578
Sum of atomic charges:    0.0000000

LOEWDIN ATOMIC CHARGES
----------------------
   0 C :    0.298503
   1 C :   -0.017727
   2 C :    0.127863
   3 C :    0.133398
   4 C :   -0.029660
   5 H :   -0.121228
   6 H :   -0.124032
   7 H :   -0.134200
   8 H :   -0.178670
   9 H :   -0.118890
  10 H :   -0.168835
  11 H :   -0.126579
  12 H :   -0.130516
  13 C :    0.293162
  14 C :    0.169469
  15 C :    0.236377
  16 H :   -0.148881
  17 C :    0.185671
  18 C :    0.196300
  19 H :   -0.183492
  20 H :   -0.207345
  21 H :   -0.175962
  22 C :    0.596122
  23 H :   -0.161221
  24 H :   -0.160914
  25 H :   -0.155817
  26 C :   -0.590691
  27 O :    0.473435
  28 C :    0.581577
  29 C :   -0.110514
  30 C :    0.243119
  31 H :   -0.178994
  32 C :    0.576081
  33 H :   -0.168512
  34 H :   -0.198416
  35 H :   -0.168553
  36 C :    0.576493
  37 H :   -0.189514
  38 H :   -0.152737
  39 H :   -0.171700
  40 C :    0.602782
  41 H :   -0.149295
  42 H :   -0.171569
  43 H :   -0.159991
  44 H :   -0.162559
  45 H :   -0.198050
  46 H :   -0.175287

  Mayer bond orders larger than 0.100000
B(  0-C ,  1-C ) :   0.8121 B(  0-C ,  2-C ) :  -0.1070 B(  0-C ,  4-C ) :   0.9082
B(  0-C ,  6-H ) :   1.2685 B(  0-C ,  7-H ) :   0.7541 B(  0-C , 13-C ) :   0.1122
B(  1-C ,  2-C ) :   0.8979 B(  1-C ,  3-C ) :   0.2006 B(  1-C ,  5-H ) :   1.1584
B(  1-C , 14-C ) :   0.1149 B(  1-C , 40-C ) :   0.4630 B(  2-C ,  3-C ) :   0.2513
B(  2-C ,  8-H ) :   0.1388 B(  2-C , 10-H ) :   0.9703 B(  2-C , 13-C ) :   0.1151
B(  2-C , 14-C ) :   1.0083 B(  2-C , 15-C ) :   0.1230 B(  2-C , 17-C ) :  -0.1749
B(  2-C , 18-C ) :   0.1242 B(  2-C , 20-H ) :  -0.1469 B(  2-C , 21-H ) :   0.2192
B(  2-C , 26-C ) :   0.4778 B(  2-C , 27-O ) :  -0.1531 B(  2-C , 29-C ) :   0.1233
B(  3-C ,  8-H ) :   1.0205 B(  3-C , 11-H ) :  -0.3303 B(  3-C , 13-C ) :   0.2386
B(  3-C , 15-C ) :   0.6331 B(  3-C , 17-C ) :  -0.2431 B(  3-C , 20-H ) :  -0.1118
B(  3-C , 29-C ) :   0.2563 B(  4-C ,  9-H ) :   0.9209 B(  4-C , 13-C ) :   0.9539
B(  4-C , 15-C ) :   0.1097 B(  4-C , 22-C ) :   0.5907 B(  4-C , 25-H ) :  -0.1376
B(  8-H , 15-C ) :  -0.1456 B(  8-H , 17-C ) :  -0.2866 B(  8-H , 20-H ) :  -0.1913
B(  8-H , 30-C ) :   0.1629 B(  8-H , 31-H ) :   0.1394 B( 10-H , 14-C ) :  -0.1071
B( 10-H , 15-C ) :   0.1199 B( 10-H , 18-C ) :  -0.1245 B( 10-H , 26-C ) :   0.1611
B( 10-H , 27-O ) :   0.1551 B( 11-H , 13-C ) :   1.5096 B( 12-H , 13-C ) :   0.8157
B( 13-C , 15-C ) :  -0.4378 B( 14-C , 15-C ) :   0.1960 B( 14-C , 17-C ) :   0.3921
B( 14-C , 21-H ) :   0.8883 B( 14-C , 26-C ) :   0.7696 B( 14-C , 27-O ) :   0.1172
B( 14-C , 28-C ) :   0.1251 B( 14-C , 40-C ) :  -0.1255 B( 14-C , 45-H ) :   0.1309
B( 15-C , 16-H ) :   1.5529 B( 15-C , 18-C ) :   1.0409 B( 15-C , 20-H ) :   0.2226
B( 15-C , 26-C ) :   0.1349 B( 16-H , 18-C ) :  -0.2171 B( 17-C , 18-C ) :   0.6129
B( 17-C , 19-H ) :  -0.2111 B( 17-C , 20-H ) :   2.0606 B( 17-C , 21-H ) :   0.1132
B( 17-C , 27-O ) :   0.1532 B( 17-C , 29-C ) :   0.4376 B( 17-C , 30-C ) :   0.6945
B( 17-C , 36-C ) :   0.3103 B( 17-C , 37-H ) :   0.1031 B( 18-C , 19-H ) :   1.5570
B( 18-C , 20-H ) :  -0.1768 B( 18-C , 26-C ) :  -0.1379 B( 18-C , 29-C ) :   0.3771
B( 18-C , 30-C ) :  -0.1185 B( 18-C , 36-C ) :  -0.2147 B( 19-H , 20-H ) :   0.1131
B( 20-H , 26-C ) :   0.1608 B( 20-H , 29-C ) :  -0.4202 B( 20-H , 31-H ) :  -0.1311
B( 20-H , 32-C ) :  -0.1065 B( 22-C , 23-H ) :   1.0666 B( 22-C , 24-H ) :   1.0686
B( 22-C , 25-H ) :   1.1099 B( 26-C , 27-O ) :   0.2393 B( 26-C , 28-C ) :   0.4892
B( 28-C , 44-H ) :   0.9524 B( 28-C , 45-H ) :   0.9337 B( 28-C , 46-H ) :   1.0193
B( 29-C , 30-C ) :   0.1291 B( 29-C , 31-H ) :  -0.4152 B( 29-C , 32-C ) :   0.3607
B( 29-C , 36-C ) :   0.4350 B( 30-C , 31-H ) :   1.5329 B( 30-C , 32-C ) :   0.3469
B( 30-C , 33-H ) :  -0.1264 B( 30-C , 36-C ) :  -0.2662 B( 31-H , 32-C ) :  -0.2818
B( 32-C , 33-H ) :   1.1717 B( 32-C , 34-H ) :   0.8055 B( 32-C , 35-H ) :   1.1710
B( 36-C , 37-H ) :   0.9004 B( 36-C , 38-H ) :   1.1744 B( 36-C , 39-H ) :   1.0031
B( 40-C , 41-H ) :   1.0919 B( 40-C , 42-H ) :   0.9396 B( 40-C , 43-H ) :   1.1120

MP2 TOTAL ENERGY:     -776.302871746 Eh
FINAL SINGLE POINT ENERGY      -776.302871745776

DIPOLE MOMENT
-------------
                                X             Y             Z
Electronic contribution:      2.93465      -3.78708       5.93201
Nuclear contribution   :     -2.74658       3.80726      -7.38874
                        -----------------------------------------
Total Dipole Moment    :      0.18807       0.02018      -1.45673
                        -----------------------------------------
Magnitude (a.u.)       :      1.46896
Magnitude (Debye)      :      3.73380

Rotational constants in cm-1:     0.020163     0.007132     0.006817
Rotational constants in MHz :   604.463680   213.812513   204.367505

                             ****ORCA TERMINATED NORMALLY****
TOTAL RUN TIME: 0 days 1 hours 23 minutes 0 seconds 938 msec
