                         Program Version 4.2.1 -  RELEASE  -
|  1> %pal
|  2>  nprocs 32
|  3> end
|  4> !RI-MP2 aug-cc-pVTZ aug-cc-pVTZ/C TightSCF
|  5> %maxcore 4500
|  6> *xyzfile 1 1  05_32P1.xyz
|  7>
|  8>
|  9>                          ****END OF INPUT****

CARTESIAN COORDINATES (ANGSTROEM)
---------------------------------
  C      2.979808    1.188282    0.068152
  C      1.601378    1.222888    0.036321
  C      0.868912    0.024001   -0.020131
  C      1.552332   -1.206202   -0.047298
  C      2.929801   -1.229476   -0.021457
  C      3.642456   -0.034773    0.037085
  H      3.543228    2.110763    0.114576
  H      1.099915    2.180615    0.060825
  H      0.991896   -2.129656   -0.090163
  H      3.455795   -2.174729   -0.045605
  H      4.725274   -0.057228    0.058120
  C     -0.567731    0.044273   -0.038431
  C     -1.361869    1.308908   -0.008655
  C     -2.847723    1.126990   -0.301911
  C     -2.599963   -1.314497   -0.077757
  C     -3.359680   -0.113161    0.415532
  H     -3.007053    1.027963   -1.378977
  H     -3.387075    2.018091    0.016505
  H     -2.820076   -1.555581   -1.117825
  H     -2.728729   -2.204010    0.533207
  O     -1.139475   -1.097045   -0.052641
  H     -4.420017   -0.280032    0.219141
  H     -3.245730   -0.009538    1.498409
  H     -1.216632    1.724137    0.996956
  H     -0.901332    2.022152   -0.692743

 Total Charge           Charge          ....    1
 Multiplicity           Mult            ....    1
 Number of Electrons    NEL             ....   86
 Basis Dimension        Dim             ....  851

ORBITAL ENERGIES
----------------

  NO   OCC          E(Eh)            E(eV)
   0   2.0000     -20.803037      -566.0794
   1   2.0000     -11.551367      -314.3287
   2   2.0000     -11.455959      -311.7325
   3   2.0000     -11.410433      -310.4937
   4   2.0000     -11.404666      -310.3367
   5   2.0000     -11.400852      -310.2330
   6   2.0000     -11.399351      -310.1921
   7   2.0000     -11.395644      -310.0912
   8   2.0000     -11.383948      -309.7730
   9   2.0000     -11.381179      -309.6976
  10   2.0000     -11.375595      -309.5457
  11   2.0000     -11.374441      -309.5143
  12   2.0000      -1.643548       -44.7232
  13   2.0000      -1.322327       -35.9823
  14   2.0000      -1.263667       -34.3861
  15   2.0000      -1.245802       -33.9000
  16   2.0000      -1.174064       -31.9479
  17   2.0000      -1.167244       -31.7623
  18   2.0000      -1.081531       -29.4300
  19   2.0000      -1.053087       -28.6560
  20   2.0000      -0.984063       -26.7777
  21   2.0000      -0.974966       -26.5302
  22   2.0000      -0.907960       -24.7068
  23   2.0000      -0.896727       -24.4012
  24   2.0000      -0.847684       -23.0666
  25   2.0000      -0.839166       -22.8349
  26   2.0000      -0.824406       -22.4332
  27   2.0000      -0.785612       -21.3776
  28   2.0000      -0.775783       -21.1101
  29   2.0000      -0.764218       -20.7954
  30   2.0000      -0.757302       -20.6072
  31   2.0000      -0.747822       -20.3493
  32   2.0000      -0.738584       -20.0979
  33   2.0000      -0.720601       -19.6085
  34   2.0000      -0.670235       -18.2380
  35   2.0000      -0.661922       -18.0118
  36   2.0000      -0.656488       -17.8639
  37   2.0000      -0.648256       -17.6399
  38   2.0000      -0.641617       -17.4593
  39   2.0000      -0.635704       -17.2984
  40   2.0000      -0.621012       -16.8986
  41   2.0000      -0.500146       -13.6097
  42   2.0000      -0.488365       -13.2891
  43   0.0000      -0.118693        -3.2298
  44   0.0000      -0.071795        -1.9537
  45   0.0000      -0.058914        -1.6031
  46   0.0000      -0.057739        -1.5712
  47   0.0000      -0.054130        -1.4730

MULLIKEN ATOMIC CHARGES
-----------------------
   0 C :   -1.003160
   1 C :   -0.610530
   2 C :    2.249986
   3 C :   -0.694453
   4 C :   -0.993354
   5 C :   -0.041644
   6 H :    0.599300
   7 H :   -0.204363
   8 H :    0.146481
   9 H :    0.598373
  10 H :    0.418713
  11 C :    0.726923
  12 C :   -0.505978
  13 C :   -0.444099
  14 C :   -0.448840
  15 C :   -0.471415
  16 H :    0.189791
  17 H :    0.351821
  18 H :    0.321075
  19 H :    0.380962
  20 O :   -0.826155
  21 H :    0.369537
  22 H :    0.219159
  23 H :    0.296902
  24 H :    0.374967
Sum of atomic charges:    1.0000000

LOEWDIN ATOMIC CHARGES
----------------------
   0 C :    0.253157
   1 C :    0.244160
   2 C :   -0.081049
   3 C :    0.248237
   4 C :    0.251805
   5 C :    0.258589
   6 H :   -0.165881
   7 H :   -0.174184
   8 H :   -0.170781
   9 H :   -0.165790
  10 H :   -0.150642
  11 C :   -0.228732
  12 C :    0.348505
  13 C :    0.327950
  14 C :    0.202718
  15 C :    0.314666
  16 H :   -0.125458
  17 H :   -0.121262
  18 H :   -0.128521
  19 H :   -0.130908
  20 O :    0.686299
  21 H :   -0.120111
  22 H :   -0.125020
  23 H :   -0.109546
  24 H :   -0.138198

  Mayer bond orders larger than 0.100000
B(  0-C ,  1-C ) :   1.3417 B(  0-C ,  4-C ) :   0.2910 B(  0-C ,  5-C ) :   1.0616
B(  0-C ,  6-H ) :   0.5063 B(  0-C , 10-H ) :  -0.1672 B(  1-C ,  3-C ) :  -0.7312
B(  1-C ,  5-C ) :  -0.2148 B(  1-C ,  7-H ) :   2.1977 B(  1-C ,  8-H ) :   0.1841
B(  1-C , 11-C ) :   0.4785 B(  2-C ,  7-H ) :  -0.4669 B(  2-C ,  8-H ) :  -0.3354
B(  2-C , 11-C ) :   0.6590 B(  2-C , 12-C ) :  -0.1615 B(  2-C , 20-O ) :  -0.1944
B(  3-C ,  4-C ) :   1.2468 B(  3-C ,  5-C ) :  -0.1379 B(  3-C ,  7-H ) :   0.1957
B(  3-C ,  8-H ) :   1.5772 B(  3-C ,  9-H ) :  -0.1342 B(  3-C , 10-H ) :   0.1938
B(  3-C , 11-C ) :   0.3121 B(  4-C ,  5-C ) :   1.0448 B(  4-C ,  9-H ) :   0.4738
B(  4-C , 10-H ) :  -0.1262 B(  4-C , 11-C ) :   0.1313 B(  5-C , 10-H ) :   0.8642
B(  5-C , 11-C ) :   0.1692 B(  6-H , 11-C ) :   0.2107 B(  7-H ,  8-H ) :   0.1610
B(  7-H , 11-C ) :  -0.3126 B(  8-H , 11-C ) :  -0.2611 B(  9-H , 11-C ) :   0.3257
B( 10-H , 11-C ) :  -0.1540 B( 11-C , 12-C ) :   0.8371 B( 11-C , 20-O ) :   0.9477
B( 12-C , 13-C ) :   0.9711 B( 12-C , 23-H ) :   0.9688 B( 12-C , 24-H ) :   0.8974
B( 13-C , 15-C ) :   0.9544 B( 13-C , 16-H ) :   1.0242 B( 13-C , 17-H ) :   0.8709
B( 14-C , 15-C ) :   0.9428 B( 14-C , 18-H ) :   0.9300 B( 14-C , 19-H ) :   0.8669
B( 14-C , 20-O ) :   0.7616 B( 15-C , 21-H ) :   0.8519 B( 15-C , 22-H ) :   1.0097

MP2 TOTAL ENERGY:     -500.949529579 Eh
FINAL SINGLE POINT ENERGY      -500.949529579272

DIPOLE MOMENT
-------------
                                X             Y             Z
Electronic contribution:      7.10569      -2.42401      -0.16971
Nuclear contribution   :     -8.03513       2.69137       0.17390
                        -----------------------------------------
Total Dipole Moment    :     -0.92943       0.26736       0.00419
                        -----------------------------------------
Magnitude (a.u.)       :      0.96714
Magnitude (Debye)      :      2.45826

Rotational constants in cm-1:     0.086187     0.018174     0.015301
Rotational constants in MHz :  2583.828784   544.834131   458.711820

                             ****ORCA TERMINATED NORMALLY****
TOTAL RUN TIME: 0 days 0 hours 12 minutes 39 seconds 494 msec
