                         Program Version 4.2.1 -  RELEASE  -
|  1> %pal
|  2>  nprocs 32
|  3> end
|  4> !RI-MP2 aug-cc-pVTZ aug-cc-pVTZ/C TightSCF
|  5> %maxcore 4500
|  6> *xyzfile 0 1  06_21R1.xyz
|  7>
|  8>
|  9>                          ****END OF INPUT****

CARTESIAN COORDINATES (ANGSTROEM)
---------------------------------
  Si     0.001297    0.000582   -0.783101
  Si    -1.120691   -1.922635   -0.042876
  Si    -1.106162    1.931872   -0.042894
  Si     2.227731   -0.008500   -0.043123
  C      2.988285   -1.722501   -0.233086
  H      4.037096   -1.715948    0.077277
  H      2.466647   -2.461664    0.379202
  H      2.949894   -2.063461   -1.270349
  C      3.247193    1.225015   -1.035366
  H      2.848387    2.237625   -0.944073
  H      4.284179    1.240450   -0.687641
  H      3.254262    0.966233   -2.096720
  C      2.280163    0.474817    1.778492
  H      1.673135   -0.196165    2.390445
  H      3.304963    0.435605    2.158353
  H      1.909585    1.490829    1.932746
  C     -0.006051    3.450464   -0.232662
  H     -0.539881    4.353860    0.076098
  H      0.894349    3.372188    0.380913
  H      0.309340    3.588118   -1.269585
  C     -2.685589    2.196414   -1.033354
  H     -3.360734    1.342578   -0.944209
  H     -3.219714    3.084087   -0.682248
  H     -2.466373    2.335973   -2.094440
  C     -1.548915    1.734016    1.779144
  H     -0.663464    1.544504    2.390055
  H     -2.027787    2.640556    2.159902
  H     -2.242689    0.904485    1.933882
  C     -2.985503   -1.724222   -0.230266
  H     -3.502549   -2.637240    0.078732
  H     -3.365547   -0.904625    0.383854
  H     -3.262806   -1.519054   -1.266923
  C     -0.566839   -3.423898   -1.035602
  H      0.509711   -3.585819   -0.949334
  H     -1.070954   -4.328664   -0.683761
  H     -0.799712   -3.302454   -2.096039
  C     -0.725561   -2.211673    1.777930
  H     -1.276220   -3.076566    2.158513
  H      0.338773   -2.405724    1.929337
  H     -0.996300   -1.349295    2.391207
  H      0.000875    0.000538   -2.278651

 Total Charge           Charge          ....    0
 Multiplicity           Mult            ....    1
 Number of Electrons    NEL             ....  138
 Basis Dimension        Dim             .... 1258

ORBITAL ENERGIES
----------------

  NO   OCC          E(Eh)            E(eV)
   0   2.0000     -68.748907     -1870.7529
   1   2.0000     -68.748868     -1870.7518
   2   2.0000     -68.748867     -1870.7518
   3   2.0000     -68.726124     -1870.1329
   4   2.0000     -11.197607      -304.7024
   5   2.0000     -11.197569      -304.7014
   6   2.0000     -11.197567      -304.7013
   7   2.0000     -11.197162      -304.6903
   8   2.0000     -11.197135      -304.6895
   9   2.0000     -11.197127      -304.6893
  10   2.0000     -11.195317      -304.6401
  11   2.0000     -11.195285      -304.6392
  12   2.0000     -11.195258      -304.6385
  13   2.0000      -6.096774      -165.9017
  14   2.0000      -6.096735      -165.9006
  15   2.0000      -6.096732      -165.9005
  16   2.0000      -6.078707      -165.4100
  17   2.0000      -4.203023      -114.3701
  18   2.0000      -4.202984      -114.3690
  19   2.0000      -4.202977      -114.3688
  20   2.0000      -4.202757      -114.3628
  21   2.0000      -4.202717      -114.3617
  22   2.0000      -4.202715      -114.3617
  23   2.0000      -4.202704      -114.3614
  24   2.0000      -4.202664      -114.3603
  25   2.0000      -4.202662      -114.3602
  26   2.0000      -4.184423      -113.8639
  27   2.0000      -4.184212      -113.8582
  28   2.0000      -4.184211      -113.8582
  29   2.0000      -0.969070       -26.3697
  30   2.0000      -0.962380       -26.1877
  31   2.0000      -0.962344       -26.1867
  32   2.0000      -0.924617       -25.1601
  33   2.0000      -0.922462       -25.1015
  34   2.0000      -0.922446       -25.1010
  35   2.0000      -0.920259       -25.0415
  36   2.0000      -0.920226       -25.0406
  37   2.0000      -0.918579       -24.9958
  38   2.0000      -0.714933       -19.4543
  39   2.0000      -0.623824       -16.9751
  40   2.0000      -0.623766       -16.9735
  41   2.0000      -0.591889       -16.1061
  42   2.0000      -0.574149       -15.6234
  43   2.0000      -0.574073       -15.6213
  44   2.0000      -0.566545       -15.4165
  45   2.0000      -0.563017       -15.3205
  46   2.0000      -0.562982       -15.3195
  47   2.0000      -0.558524       -15.1982
  48   2.0000      -0.554379       -15.0854
  49   2.0000      -0.554335       -15.0842
  50   2.0000      -0.548300       -14.9200
  51   2.0000      -0.540424       -14.7057
  52   2.0000      -0.539624       -14.6839
  53   2.0000      -0.539593       -14.6831
  54   2.0000      -0.535777       -14.5792
  55   2.0000      -0.535741       -14.5782
  56   2.0000      -0.532905       -14.5011
  57   2.0000      -0.528079       -14.3698
  58   2.0000      -0.527864       -14.3639
  59   2.0000      -0.527848       -14.3635
  60   2.0000      -0.440739       -11.9931
  61   2.0000      -0.432141       -11.7592
  62   2.0000      -0.432124       -11.7587
  63   2.0000      -0.426733       -11.6120
  64   2.0000      -0.426690       -11.6108
  65   2.0000      -0.423868       -11.5340
  66   2.0000      -0.405619       -11.0375
  67   2.0000      -0.340236        -9.2583
  68   2.0000      -0.340184        -9.2569
  69   0.0000       0.023196         0.6312
  70   0.0000       0.028889         0.7861
  71   0.0000       0.028899         0.7864
  72   0.0000       0.031442         0.8556
  73   0.0000       0.039877         1.0851

MULLIKEN ATOMIC CHARGES
-----------------------
   0 Si:    1.099273
   1 Si:    1.654428
   2 Si:    1.651308
   3 Si:    1.645071
   4 C :   -1.370161
   5 H :    0.135284
   6 H :    0.335062
   7 H :    0.213124
   8 C :   -1.574191
   9 H :    0.375932
  10 H :    0.175847
  11 H :    0.223397
  12 C :   -1.073947
  13 H :    0.331813
  14 H :    0.201763
  15 H :    0.306062
  16 C :   -1.373927
  17 H :    0.133868
  18 H :    0.333775
  19 H :    0.213355
  20 C :   -1.575010
  21 H :    0.376451
  22 H :    0.175887
  23 H :    0.222565
  24 C :   -1.072920
  25 H :    0.331607
  26 H :    0.201617
  27 H :    0.306349
  28 C :   -1.370629
  29 H :    0.135731
  30 H :    0.333472
  31 H :    0.212833
  32 C :   -1.577322
  33 H :    0.375178
  34 H :    0.175656
  35 H :    0.222480
  36 C :   -1.073028
  37 H :    0.201026
  38 H :    0.306181
  39 H :    0.331348
  40 H :   -0.876606
Sum of atomic charges:    0.0000000

LOEWDIN ATOMIC CHARGES
----------------------
   0 Si:    0.660275
   1 Si:    0.375026
   2 Si:    0.374941
   3 Si:    0.375084
   4 C :    0.535586
   5 H :   -0.228566
   6 H :   -0.247286
   7 H :   -0.231826
   8 C :    0.538684
   9 H :   -0.246532
  10 H :   -0.229972
  11 H :   -0.233248
  12 C :    0.539459
  13 H :   -0.241437
  14 H :   -0.225694
  15 H :   -0.244769
  16 C :    0.535540
  17 H :   -0.228635
  18 H :   -0.247002
  19 H :   -0.231884
  20 C :    0.538844
  21 H :   -0.246885
  22 H :   -0.229906
  23 H :   -0.233162
  24 C :    0.539489
  25 H :   -0.241575
  26 H :   -0.225648
  27 H :   -0.244831
  28 C :    0.535475
  29 H :   -0.228560
  30 H :   -0.247189
  31 H :   -0.231794
  32 C :    0.538789
  33 H :   -0.246557
  34 H :   -0.229983
  35 H :   -0.233205
  36 C :    0.539452
  37 H :   -0.225715
  38 H :   -0.244672
  39 H :   -0.241578
  40 H :   -0.238534

  Mayer bond orders larger than 0.100000
B(  0-Si,  1-Si) :   0.8371 B(  0-Si,  2-Si) :   0.8410 B(  0-Si,  3-Si) :   0.8406
B(  0-Si, 40-H ) :   0.8320 B(  1-Si, 28-C ) :   0.3367 B(  1-Si, 32-C ) :   0.1987
B(  1-Si, 36-C ) :   0.6552 B(  1-Si, 40-H ) :  -0.1467 B(  2-Si, 16-C ) :   0.3330
B(  2-Si, 20-C ) :   0.2032 B(  2-Si, 24-C ) :   0.6560 B(  2-Si, 40-H ) :  -0.1460
B(  3-Si,  4-C ) :   0.3390 B(  3-Si,  8-C ) :   0.2048 B(  3-Si, 12-C ) :   0.6558
B(  3-Si, 40-H ) :  -0.1460 B(  4-C ,  5-H ) :   1.1257 B(  4-C ,  6-H ) :   0.9458
B(  4-C ,  7-H ) :   1.0879 B(  8-C ,  9-H ) :   0.8933 B(  8-C , 10-H ) :   1.1273
B(  8-C , 11-H ) :   1.0926 B(  8-C , 12-C ) :   0.1842 B( 12-C , 13-H ) :   0.9527
B( 12-C , 14-H ) :   0.9540 B( 12-C , 15-H ) :   0.9654 B( 16-C , 17-H ) :   1.1280
B( 16-C , 18-H ) :   0.9476 B( 16-C , 19-H ) :   1.0876 B( 20-C , 21-H ) :   0.8933
B( 20-C , 22-H ) :   1.1272 B( 20-C , 23-H ) :   1.0939 B( 20-C , 24-C ) :   0.1849
B( 24-C , 25-H ) :   0.9529 B( 24-C , 26-H ) :   0.9541 B( 24-C , 27-H ) :   0.9650
B( 28-C , 29-H ) :   1.1248 B( 28-C , 30-H ) :   0.9481 B( 28-C , 31-H ) :   1.0885
B( 32-C , 33-H ) :   0.8946 B( 32-C , 34-H ) :   1.1279 B( 32-C , 35-H ) :   1.0941
B( 32-C , 36-C ) :   0.1853 B( 36-C , 37-H ) :   0.9547 B( 36-C , 38-H ) :   0.9651
B( 36-C , 39-H ) :   0.9532

MP2 TOTAL ENERGY:    -1515.297169325 Eh
FINAL SINGLE POINT ENERGY     -1515.297169324932

DIPOLE MOMENT
-------------
                                X             Y             Z
Electronic contribution:      0.01562       0.01020      -3.58071
Nuclear contribution   :     -0.01425      -0.00952       3.76452
                        -----------------------------------------
Total Dipole Moment    :      0.00137       0.00068       0.18381
                        -----------------------------------------
Magnitude (a.u.)       :      0.18382
Magnitude (Debye)      :      0.46723

Rotational constants in cm-1:     0.014735     0.014725     0.009344
Rotational constants in MHz :   441.729239   441.430945   280.136408

                             ****ORCA TERMINATED NORMALLY****
TOTAL RUN TIME: 0 days 0 hours 37 minutes 15 seconds 570 msec
