                         Program Version 4.2.1 -  RELEASE  -
|  1> %pal
|  2>  nprocs 32
|  3> end
|  4> !RI-MP2 aug-cc-pVTZ aug-cc-pVTZ/C TightSCF
|  5> %maxcore 4500
|  6> *xyzfile 0 1  02_45TS.xyz
|  7>
|  8>
|  9>                          ****END OF INPUT****

CARTESIAN COORDINATES (ANGSTROEM)
---------------------------------
  C     -0.132916    0.495284    1.254942
  C     -0.623141    1.649136    0.707817
  C     -0.132954    0.495326   -1.254922
  C     -0.623163    1.649160   -0.707744
  H      0.075912    0.308241   -2.298220
  H     -1.066972    2.440227   -1.296375
  H     -1.066933    2.440184    1.296488
  H      0.075981    0.308165    2.298228
  S      0.924336   -0.266683   -0.000018
  C     -1.772543   -0.992009    0.687050
  C     -1.772563   -0.991986   -0.687029
  H     -1.256074   -1.777834    1.220977
  H     -1.256111   -1.777794   -1.220997
  H     -2.524502   -0.442746    1.236284
  H     -2.524539   -0.442705   -1.236222
  O      2.223203    0.394285   -0.000027
  O      0.913990   -1.721569   -0.000042

 Total Charge           Charge          ....    0
 Multiplicity           Mult            ....    1
 Number of Electrons    NEL             ....   76
 Basis Dimension        Dim             ....  602

ORBITAL ENERGIES
----------------

  NO   OCC          E(Eh)            E(eV)
   0   2.0000     -92.183576     -2508.4426
   1   2.0000     -20.546086      -559.0874
   2   2.0000     -20.541649      -558.9667
   3   2.0000     -11.294024      -307.3260
   4   2.0000     -11.293988      -307.3250
   5   2.0000     -11.269505      -306.6588
   6   2.0000     -11.268423      -306.6294
   7   2.0000     -11.253908      -306.2344
   8   2.0000     -11.252543      -306.1973
   9   2.0000      -9.152786      -249.0600
  10   2.0000      -6.837501      -186.0579
  11   2.0000      -6.836727      -186.0368
  12   2.0000      -6.836461      -186.0296
  13   2.0000      -1.445272       -39.3278
  14   2.0000      -1.330336       -36.2003
  15   2.0000      -1.181990       -32.1636
  16   2.0000      -1.047984       -28.5171
  17   2.0000      -1.021901       -27.8073
  18   2.0000      -0.956748       -26.0344
  19   2.0000      -0.821018       -22.3410
  20   2.0000      -0.796146       -21.6642
  21   2.0000      -0.780554       -21.2400
  22   2.0000      -0.727918       -19.8077
  23   2.0000      -0.677079       -18.4243
  24   2.0000      -0.638255       -17.3678
  25   2.0000      -0.636784       -17.3278
  26   2.0000      -0.631768       -17.1913
  27   2.0000      -0.604939       -16.4612
  28   2.0000      -0.599262       -16.3068
  29   2.0000      -0.579836       -15.7781
  30   2.0000      -0.536553       -14.6003
  31   2.0000      -0.529144       -14.3988
  32   2.0000      -0.496318       -13.5055
  33   2.0000      -0.494868       -13.4660
  34   2.0000      -0.457414       -12.4469
  35   2.0000      -0.438865       -11.9421
  36   2.0000      -0.355588        -9.6760
  37   2.0000      -0.342716        -9.3258
  38   0.0000       0.020234         0.5506
  39   0.0000       0.027205         0.7403
  40   0.0000       0.035168         0.9570
  41   0.0000       0.038468         1.0468
  42   0.0000       0.044124         1.2007

MULLIKEN ATOMIC CHARGES
-----------------------
   0 C :   -0.402653
   1 C :   -0.619835
   2 C :   -0.402654
   3 C :   -0.619833
   4 H :    0.561300
   5 H :    0.429382
   6 H :    0.429379
   7 H :    0.561299
   8 S :    1.959080
   9 C :   -0.749185
  10 C :   -0.749183
  11 H :    0.389369
  12 H :    0.389369
  13 H :    0.426363
  14 H :    0.426357
  15 O :   -1.042486
  16 O :   -0.986066
Sum of atomic charges:    0.0000000

LOEWDIN ATOMIC CHARGES
----------------------
   0 C :    0.069067
   1 C :    0.121797
   2 C :    0.069068
   3 C :    0.121798
   4 H :   -0.186915
   5 H :   -0.169138
   6 H :   -0.169138
   7 H :   -0.186914
   8 S :    0.263127
   9 C :    0.409124
  10 C :    0.409124
  11 H :   -0.219510
  12 H :   -0.219510
  13 H :   -0.194967
  14 H :   -0.194967
  15 O :    0.027073
  16 O :    0.050882

  Mayer bond orders larger than 0.100000
B(  0-C ,  1-C ) :   1.4049 B(  0-C ,  7-H ) :   0.6942 B(  0-C ,  8-S ) :   1.0676
B(  0-C ,  9-C ) :   0.4095 B(  1-C ,  3-C ) :   1.1288 B(  1-C ,  6-H ) :   0.8860
B(  2-C ,  3-C ) :   1.4049 B(  2-C ,  4-H ) :   0.6942 B(  2-C ,  8-S ) :   1.0675
B(  2-C , 10-C ) :   0.4095 B(  3-C ,  5-H ) :   0.8860 B(  8-S , 15-O ) :   0.9998
B(  8-S , 16-O ) :   1.2270 B(  9-C , 10-C ) :   1.5090 B(  9-C , 11-H ) :   0.8454
B(  9-C , 13-H ) :   0.8009 B( 10-C , 12-H ) :   0.8454 B( 10-C , 14-H ) :   0.8009

MP2 TOTAL ENERGY:     -780.787431746 Eh
FINAL SINGLE POINT ENERGY      -780.787431745819

DIPOLE MOMENT
-------------
                                X             Y             Z
Electronic contribution:      7.39551      -0.02482      -0.00011
Nuclear contribution   :     -9.42625       1.03252       0.00016
                        -----------------------------------------
Total Dipole Moment    :     -2.03074       1.00770       0.00005
                        -----------------------------------------
Magnitude (a.u.)       :      2.26702
Magnitude (Debye)      :      5.76230

Rotational constants in cm-1:     0.068168     0.055427     0.043360
Rotational constants in MHz :  2043.630958  1661.655794  1299.901891

                             ****ORCA TERMINATED NORMALLY****
TOTAL RUN TIME: 0 days 0 hours 4 minutes 17 seconds 860 msec
