                         Program Version 4.2.1 -  RELEASE  -
|  1> %pal
|  2>  nprocs 32
|  3> end
|  4> !RI-MP2 aug-cc-pVTZ aug-cc-pVTZ/C TightSCF
|  5> %maxcore 4500
|  6> *xyzfile -1 1  08_2TS.xyz
|  7>
|  8>
|  9>                          ****END OF INPUT****

CARTESIAN COORDINATES (ANGSTROEM)
---------------------------------
  C      1.845914    0.134152   -0.000001
  O      1.588377    1.340761    0.000009
  C      3.307278   -0.321214    0.000007
  H      3.976435    0.538868   -0.000051
  H      3.496815   -0.939952   -0.879942
  H      3.496833   -0.939835    0.880035
  O      1.006662   -0.827270   -0.000011
  Cl    -3.188081    0.077128   -0.000001
  C     -0.950875   -0.325162   -0.000006
  H     -1.026085   -0.861433   -0.924866
  H     -1.026084   -0.861445    0.924848
  H     -0.694753    0.718027    0.000001

 Total Charge           Charge          ....   -1
 Multiplicity           Mult            ....    1
 Number of Electrons    NEL             ....   58
 Basis Dimension        Dim             ....  418

ORBITAL ENERGIES
----------------

  NO   OCC          E(Eh)            E(eV)
   0   2.0000    -104.590606     -2846.0551
   1   2.0000     -20.361766      -554.0718
   2   2.0000     -20.353139      -553.8371
   3   2.0000     -11.193910      -304.6018
   4   2.0000     -11.168367      -303.9067
   5   2.0000     -11.092264      -301.8358
   6   2.0000     -10.315377      -280.6957
   7   2.0000      -7.781636      -211.7491
   8   2.0000      -7.781119      -211.7350
   9   2.0000      -7.781112      -211.7348
  10   2.0000      -1.239934       -33.7403
  11   2.0000      -1.136031       -30.9130
  12   2.0000      -0.863629       -23.5005
  13   2.0000      -0.845878       -23.0175
  14   2.0000      -0.773197       -21.0398
  15   2.0000      -0.575553       -15.6616
  16   2.0000      -0.504146       -13.7185
  17   2.0000      -0.484861       -13.1937
  18   2.0000      -0.479879       -13.0582
  19   2.0000      -0.461637       -12.5618
  20   2.0000      -0.455427       -12.3928
  21   2.0000      -0.415067       -11.2946
  22   2.0000      -0.378588       -10.3019
  23   2.0000      -0.304654        -8.2900
  24   2.0000      -0.267415        -7.2767
  25   2.0000      -0.263730        -7.1765
  26   2.0000      -0.233561        -6.3555
  27   2.0000      -0.233179        -6.3451
  28   2.0000      -0.220098        -5.9892
  29   0.0000       0.113202         3.0804
  30   0.0000       0.126930         3.4539
  31   0.0000       0.127292         3.4638
  32   0.0000       0.143080         3.8934
  33   0.0000       0.151168         4.1135

MULLIKEN ATOMIC CHARGES
-----------------------
   0 C :    0.404246
   1 O :   -0.788395
   2 C :   -0.577017
   3 H :    0.293440
   4 H :    0.258654
   5 H :    0.258650
   6 O :   -0.737110
   7 Cl:   -0.784742
   8 C :   -0.685140
   9 H :    0.427374
  10 H :    0.427373
  11 H :    0.502666
Sum of atomic charges:   -1.0000000

LOEWDIN ATOMIC CHARGES
----------------------
   0 C :   -1.087212
   1 O :    0.333000
   2 C :    0.509307
   3 H :   -0.213704
   4 H :   -0.202133
   5 H :   -0.202131
   6 O :    0.400378
   7 Cl:    0.018254
   8 C :    0.329596
   9 H :   -0.287528
  10 H :   -0.287528
  11 H :   -0.310298

  Mayer bond orders larger than 0.100000
B(  0-C ,  1-O ) :   1.4009 B(  0-C ,  2-C ) :   0.5871 B(  0-C ,  6-O ) :   1.4224
B(  2-C ,  3-H ) :   0.9277 B(  2-C ,  4-H ) :   0.9740 B(  2-C ,  5-H ) :   0.9740
B(  6-O ,  8-C ) :   0.1159 B(  7-Cl,  8-C ) :   0.4262 B(  8-C ,  9-H ) :   0.8210
B(  8-C , 10-H ) :   0.8210 B(  8-C , 11-H ) :   0.7865

MP2 TOTAL ENERGY:     -727.688314611 Eh
FINAL SINGLE POINT ENERGY      -727.688314610983

DIPOLE MOMENT
-------------
                                X             Y             Z
Electronic contribution:    -10.69954       1.56103      -0.00003
Nuclear contribution   :     12.53452      -2.39255       0.00003
                        -----------------------------------------
Total Dipole Moment    :      1.83498      -0.83152      -0.00000
                        -----------------------------------------
Magnitude (a.u.)       :      2.01459
Magnitude (Debye)      :      5.12067

Rotational constants in cm-1:     0.337482     0.026132     0.024485
Rotational constants in MHz : 10117.461253   783.416095   734.054013

                             ****ORCA TERMINATED NORMALLY****
TOTAL RUN TIME: 0 days 0 hours 1 minutes 0 seconds 518 msec
