                         Program Version 4.2.1 -  RELEASE  -
|  1> %pal
|  2>  nprocs 32
|  3> end
|  4> !RI-MP2 aug-cc-pVTZ aug-cc-pVTZ/C TightSCF
|  5> %maxcore 4500
|  6> *xyzfile 0 2  04_57R2.xyz
|  7>
|  8>
|  9>                          ****END OF INPUT****

CARTESIAN COORDINATES (ANGSTROEM)
---------------------------------
  O     -2.090636   -0.782779   -0.229962
  O     -0.952981   -0.740955    0.403147
  C     -0.006623    0.192310   -0.228022
  C      1.313754   -0.082063    0.411995
  C     -0.503138    1.608720   -0.018654
  H      0.007505   -0.070480   -1.287038
  H     -1.504637    1.720298   -0.433912
  H      0.166584    2.309109   -0.519759
  H     -0.529581    1.853430    1.045098
  C      2.388084   -0.460910   -0.261235
  H      1.360280    0.071549    1.486689
  H      2.357695   -0.622330   -1.333578
  H      3.338630   -0.620046    0.232507

 Total Charge           Charge          ....    0
 Multiplicity           Mult            ....    2
 Number of Electrons    NEL             ....   47
 Basis Dimension        Dim             ....  437

ORBITAL ENERGIES
----------------
                 SPIN UP ORBITALS
  NO   OCC          E(Eh)            E(eV)
   0   1.0000     -20.667060      -562.3793
   1   1.0000     -20.655144      -562.0550
   2   1.0000     -11.304824      -307.6199
   3   1.0000     -11.248003      -306.0737
   4   1.0000     -11.241780      -305.9044
   5   1.0000     -11.230135      -305.5875
   6   1.0000      -1.573712       -42.8229
   7   1.0000      -1.213311       -33.0159
   8   1.0000      -1.078523       -29.3481
   9   1.0000      -1.007311       -27.4103
  10   1.0000      -0.869870       -23.6704
  11   1.0000      -0.792985       -21.5782
  12   1.0000      -0.755145       -20.5485
  13   1.0000      -0.704494       -19.1703
  14   1.0000      -0.686584       -18.6829
  15   1.0000      -0.635214       -17.2851
  16   1.0000      -0.616694       -16.7811
  17   1.0000      -0.574195       -15.6246
  18   1.0000      -0.559865       -15.2347
  19   1.0000      -0.548445       -14.9239
  20   1.0000      -0.500658       -13.6236
  21   1.0000      -0.480315       -13.0700
  22   1.0000      -0.471307       -12.8249
  23   1.0000      -0.388934       -10.5834
  24   0.0000       0.028455         0.7743
  25   0.0000       0.035795         0.9740
  26   0.0000       0.036085         0.9819
  27   0.0000       0.047268         1.2862
  28   0.0000       0.053730         1.4621

                 SPIN DOWN ORBITALS
  NO   OCC          E(Eh)            E(eV)
   0   1.0000     -20.644878      -561.7757
   1   1.0000     -20.627789      -561.3107
   2   1.0000     -11.305664      -307.6428
   3   1.0000     -11.247169      -306.0510
   4   1.0000     -11.242673      -305.9287
   5   1.0000     -11.229901      -305.5811
   6   1.0000      -1.511031       -41.1172
   7   1.0000      -1.147955       -31.2374
   8   1.0000      -1.051766       -28.6200
   9   1.0000      -0.999622       -27.2011
  10   1.0000      -0.861629       -23.4461
  11   1.0000      -0.789249       -21.4766
  12   1.0000      -0.698648       -19.0112
  13   1.0000      -0.671487       -18.2721
  14   1.0000      -0.635180       -17.2841
  15   1.0000      -0.616352       -16.7718
  16   1.0000      -0.592975       -16.1357
  17   1.0000      -0.558018       -15.1844
  18   1.0000      -0.550126       -14.9697
  19   1.0000      -0.499794       -13.6001
  20   1.0000      -0.486740       -13.2449
  21   1.0000      -0.450991       -12.2721
  22   1.0000      -0.388198       -10.5634
  23   0.0000       0.028427         0.7735
  24   0.0000       0.035803         0.9742
  25   0.0000       0.036001         0.9796
  26   0.0000       0.047282         1.2866
  27   0.0000       0.053613         1.4589

MULLIKEN ATOMIC CHARGES AND SPIN POPULATIONS
--------------------------------------------
   0 O :   -0.263408    0.933258
   1 O :   -0.343323    0.089368
   2 C :    0.671006   -0.036435
   3 C :   -0.212727    0.053613
   4 C :   -0.993773    0.009527
   5 H :    0.254373   -0.002976
   6 H :    0.275028   -0.000002
   7 H :    0.314164   -0.000458
   8 H :    0.299194   -0.000782
   9 C :   -1.096330   -0.047843
  10 H :    0.319446   -0.003335
  11 H :    0.253361    0.003558
  12 H :    0.522989    0.002506
Sum of atomic charges         :    0.0000000

LOEWDIN ATOMIC CHARGES AND SPIN POPULATIONS
-------------------------------------------
   0 O :    0.186988    0.799757
   1 O :    0.165564    0.218547
   2 C :   -0.329547   -0.007389
   3 C :    0.167525    0.010415
   4 C :    0.568378    0.001220
   5 H :   -0.169467   -0.001682
   6 H :   -0.184259   -0.000021
   7 H :   -0.165588    0.000214
   8 H :   -0.166807   -0.000123
   9 C :    0.536533   -0.015706
  10 H :   -0.179572    0.003444
  11 H :   -0.212311   -0.004262
  12 H :   -0.217438   -0.004415

  Mayer bond orders larger than 0.100000
B(  0-O ,  1-O ) :   0.9122 B(  0-O ,  2-C ) :  -0.1102 B(  1-O ,  2-C ) :   0.5806
B(  2-C ,  3-C ) :   0.7075 B(  2-C ,  4-C ) :   0.8615 B(  2-C ,  5-H ) :   0.9722
B(  3-C ,  4-C ) :   0.1062 B(  3-C ,  9-C ) :   1.3530 B(  3-C , 10-H ) :   0.9756
B(  4-C ,  6-H ) :   0.9680 B(  4-C ,  7-H ) :   0.9388 B(  4-C ,  8-H ) :   0.9258
B(  9-C , 11-H ) :   1.0981 B(  9-C , 12-H ) :   0.6341

MP2 TOTAL ENERGY:     -306.364167441 Eh
FINAL SINGLE POINT ENERGY      -306.364167441417

DIPOLE MOMENT
-------------
                                X             Y             Z
Electronic contribution:     -4.41272      -4.06388       0.57485
Nuclear contribution   :      5.21774       4.67961      -0.81812
                        -----------------------------------------
Total Dipole Moment    :      0.80502       0.61574      -0.24327
                        -----------------------------------------
Magnitude (a.u.)       :      1.04229
Magnitude (Debye)      :      2.64930

Rotational constants in cm-1:     0.213250     0.079427     0.064133
Rotational constants in MHz :  6393.062102  2381.171091  1922.672856

                             ****ORCA TERMINATED NORMALLY****
TOTAL RUN TIME: 0 days 0 hours 3 minutes 46 seconds 249 msec
