                         Program Version 4.2.1 -  RELEASE  -
|  1> %pal
|  2>  nprocs 32
|  3> end
|  4> !RI-MP2 aug-cc-pVTZ aug-cc-pVTZ/C TightSCF
|  5> %maxcore 4500
|  6> *xyzfile 1 1  10_25TS.xyz
|  7>
|  8>
|  9>                          ****END OF INPUT****

CARTESIAN COORDINATES (ANGSTROEM)
---------------------------------
  C     -2.017044   -2.623465   -0.775851
  C     -0.732829   -1.779121   -0.681585
  C     -1.853322   -1.134035    1.110505
  C     -2.793412   -2.190351    0.503455
  H     -2.568845   -2.424315   -1.695591
  H     -1.773572   -3.685910   -0.765481
  H     -3.777405   -1.777244    0.289010
  H     -2.918611   -3.020390    1.198966
  C     -0.476053   -1.736172    0.825017
  H      0.361260   -1.108293    1.113230
  H     -0.362018   -2.730181    1.253788
  H      0.093395   -2.066871   -1.326711
  H     -2.082159   -0.805167    2.120239
  N     -1.882089    0.005069    0.167451
  N     -1.079606   -0.354392   -0.920862
  C      0.561449    1.448612   -0.507051
  C      1.747102    0.669793   -0.216365
  C      2.292351    0.570460    1.070819
  C      2.392270    0.009701   -1.271200
  C      3.432945   -0.179249    1.293667
  H      1.838136    1.095872    1.900957
  C      3.531688   -0.740501   -1.046886
  H      1.989624    0.093541   -2.274603
  C      4.052236   -0.839166    0.238203
  H      3.850786   -0.240942    2.290462
  H      4.021982   -1.241732   -1.871740
  H      4.948889   -1.419796    0.415644
  H      0.400122    1.656825   -1.559184
  C     -1.891862    1.319392    0.498255
  H     -2.265401    1.482317    1.506382
  C     -0.227749    2.147857    0.417268
  H      0.157754    2.211855    1.429043
  H     -1.561120   -0.205155   -1.804287
  C     -2.278644    2.407124   -0.494530
  C     -1.096899    3.301330   -0.106583
  H     -0.651959    3.884483   -0.911043
  H     -1.354007    3.980075    0.705954
  H     -3.285350    2.804424   -0.363765
  H     -2.182995    2.048614   -1.520228

 Total Charge           Charge          ....    1
 Multiplicity           Mult            ....    1
 Number of Electrons    NEL             ....  130
 Basis Dimension        Dim             .... 1311

ORBITAL ENERGIES
----------------

  NO   OCC          E(Eh)            E(eV)
   0   2.0000     -15.744689      -428.4348
   1   2.0000     -15.741740      -428.3545
   2   2.0000     -11.449927      -311.5683
   3   2.0000     -11.441862      -311.3489
   4   2.0000     -11.399232      -310.1889
   5   2.0000     -11.394057      -310.0481
   6   2.0000     -11.376002      -309.5567
   7   2.0000     -11.372561      -309.4631
   8   2.0000     -11.372109      -309.4508
   9   2.0000     -11.371361      -309.4305
  10   2.0000     -11.366747      -309.3049
  11   2.0000     -11.365182      -309.2623
  12   2.0000     -11.362930      -309.2010
  13   2.0000     -11.356389      -309.0231
  14   2.0000     -11.356277      -309.0200
  15   2.0000     -11.347583      -308.7834
  16   2.0000     -11.343361      -308.6685
  17   2.0000     -11.341554      -308.6194
  18   2.0000      -1.496303       -40.7165
  19   2.0000      -1.306710       -35.5574
  20   2.0000      -1.293234       -35.1907
  21   2.0000      -1.242964       -33.8228
  22   2.0000      -1.237768       -33.6814
  23   2.0000      -1.190860       -32.4049
  24   2.0000      -1.149345       -31.2753
  25   2.0000      -1.113893       -30.3106
  26   2.0000      -1.098341       -29.8874
  27   2.0000      -1.072751       -29.1910
  28   2.0000      -1.016723       -27.6664
  29   2.0000      -0.982851       -26.7447
  30   2.0000      -0.959679       -26.1142
  31   2.0000      -0.944828       -25.7101
  32   2.0000      -0.936433       -25.4816
  33   2.0000      -0.898080       -24.4380
  34   2.0000      -0.894690       -24.3458
  35   2.0000      -0.851933       -23.1823
  36   2.0000      -0.838058       -22.8047
  37   2.0000      -0.812340       -22.1049
  38   2.0000      -0.804382       -21.8883
  39   2.0000      -0.784363       -21.3436
  40   2.0000      -0.769278       -20.9331
  41   2.0000      -0.765449       -20.8289
  42   2.0000      -0.748611       -20.3707
  43   2.0000      -0.727371       -19.7928
  44   2.0000      -0.717049       -19.5119
  45   2.0000      -0.714398       -19.4398
  46   2.0000      -0.705937       -19.2095
  47   2.0000      -0.701105       -19.0780
  48   2.0000      -0.683512       -18.5993
  49   2.0000      -0.673156       -18.3175
  50   2.0000      -0.649840       -17.6831
  51   2.0000      -0.647550       -17.6207
  52   2.0000      -0.642645       -17.4873
  53   2.0000      -0.639687       -17.4068
  54   2.0000      -0.625323       -17.0159
  55   2.0000      -0.617078       -16.7916
  56   2.0000      -0.616670       -16.7804
  57   2.0000      -0.607820       -16.5396
  58   2.0000      -0.601749       -16.3744
  59   2.0000      -0.594913       -16.1884
  60   2.0000      -0.579296       -15.7634
  61   2.0000      -0.523895       -14.2559
  62   2.0000      -0.507126       -13.7996
  63   2.0000      -0.466645       -12.6980
  64   2.0000      -0.431968       -11.7545
  65   0.0000      -0.100987        -2.7480
  66   0.0000      -0.063398        -1.7252
  67   0.0000      -0.059222        -1.6115
  68   0.0000      -0.050697        -1.3795
  69   0.0000      -0.049081        -1.3356

MULLIKEN ATOMIC CHARGES
-----------------------
   0 C :   -0.868209
   1 C :   -0.273707
   2 C :   -0.366993
   3 C :   -0.707570
   4 H :    0.256573
   5 H :    0.259415
   6 H :    0.317551
   7 H :    0.276541
   8 C :   -0.741318
   9 H :    0.454201
  10 H :    0.403744
  11 H :    0.638184
  12 H :    0.478899
  13 N :   -0.168164
  14 N :    0.167008
  15 C :   -0.445221
  16 C :    1.815749
  17 C :   -0.390061
  18 C :   -0.884424
  19 C :   -0.635294
  20 H :   -0.086304
  21 C :   -0.657606
  22 H :    0.129122
  23 C :   -0.225956
  24 H :    0.502159
  25 H :    0.606882
  26 H :    0.504357
  27 H :    0.437880
  28 C :    0.197043
  29 H :    0.692607
  30 C :   -0.231366
  31 H :    0.713173
  32 H :   -0.228587
  33 C :   -0.964842
  34 C :   -1.033421
  35 H :    0.348985
  36 H :    0.173389
  37 H :    0.436169
  38 H :    0.099411
Sum of atomic charges:    1.0000000

LOEWDIN ATOMIC CHARGES
----------------------
   0 C :    0.366065
   1 C :   -0.040227
   2 C :   -0.021755
   3 C :    0.362546
   4 H :   -0.136164
   5 H :   -0.131578
   6 H :   -0.135266
   7 H :   -0.132080
   8 C :    0.362915
   9 H :   -0.172935
  10 H :   -0.110293
  11 H :   -0.106861
  12 H :   -0.102473
  13 N :    0.214366
  14 N :    0.528937
  15 C :    0.275297
  16 C :   -0.112923
  17 C :    0.227477
  18 C :    0.228925
  19 C :    0.240799
  20 H :   -0.173667
  21 C :    0.237692
  22 H :   -0.156797
  23 C :    0.240347
  24 H :   -0.167436
  25 H :   -0.168588
  26 H :   -0.160057
  27 H :   -0.136701
  28 C :    0.072525
  29 H :   -0.105438
  30 C :    0.161950
  31 H :   -0.160791
  32 H :   -0.250475
  33 C :    0.355338
  34 C :    0.332553
  35 H :   -0.130959
  36 H :   -0.129777
  37 H :   -0.120953
  38 H :   -0.143535

  Mayer bond orders larger than 0.100000
B(  0-C ,  1-C ) :   0.8761 B(  0-C ,  3-C ) :   1.2458 B(  0-C ,  4-H ) :   0.9940
B(  0-C ,  5-H ) :   1.0082 B(  0-C , 11-H ) :  -0.1292 B(  1-C ,  8-C ) :   0.9684
B(  1-C , 11-H ) :   0.5754 B(  1-C , 14-N ) :   1.1827 B(  2-C ,  3-C ) :   0.9919
B(  2-C ,  8-C ) :   1.0428 B(  2-C , 12-H ) :   0.7396 B(  2-C , 13-N ) :   0.9222
B(  3-C ,  6-H ) :   0.9404 B(  3-C ,  7-H ) :   0.9625 B(  3-C , 13-N ) :  -0.1965
B(  8-C ,  9-H ) :   0.8350 B(  8-C , 10-H ) :   0.8835 B( 13-N , 14-N ) :   0.6264
B( 13-N , 28-C ) :   1.3431 B( 13-N , 29-H ) :  -0.1033 B( 13-N , 33-C ) :   0.2153
B( 14-N , 16-C ) :   0.1111 B( 14-N , 32-H ) :   1.0418 B( 15-C , 16-C ) :   0.4763
B( 15-C , 17-C ) :   0.4153 B( 15-C , 18-C ) :   0.6139 B( 15-C , 21-C ) :   0.1296
B( 15-C , 22-H ) :  -0.2685 B( 15-C , 27-H ) :   0.9549 B( 15-C , 28-C ) :   0.1270
B( 15-C , 30-C ) :   1.6424 B( 15-C , 34-C ) :  -0.2198 B( 16-C , 17-C ) :   0.5911
B( 16-C , 19-C ) :   0.3154 B( 16-C , 20-H ) :  -0.3178 B( 16-C , 21-C ) :   0.1493
B( 17-C , 18-C ) :  -0.3744 B( 17-C , 19-C ) :   1.2575 B( 17-C , 20-H ) :   1.7250
B( 17-C , 22-H ) :   0.1174 B( 17-C , 30-C ) :  -0.2337 B( 17-C , 31-H ) :  -0.1218
B( 18-C , 21-C ) :   1.3484 B( 18-C , 22-H ) :   1.3258 B( 19-C , 20-H ) :  -0.1586
B( 19-C , 21-C ) :   0.1119 B( 19-C , 23-C ) :   1.0649 B( 19-C , 24-H ) :   0.7266
B( 20-H , 22-H ) :   0.1459 B( 20-H , 30-C ) :  -0.1585 B( 20-H , 31-H ) :  -0.1308
B( 21-C , 23-C ) :   1.0710 B( 21-C , 25-H ) :   0.5586 B( 21-C , 26-H ) :  -0.1128
B( 23-C , 26-H ) :   0.6993 B( 27-H , 30-C ) :  -0.1930 B( 28-C , 29-H ) :   0.5711
B( 28-C , 30-C ) :   0.6347 B( 28-C , 33-C ) :   0.6960 B( 28-C , 34-C ) :  -0.2033
B( 29-H , 33-C ) :  -0.1856 B( 30-C , 31-H ) :   0.6246 B( 30-C , 34-C ) :   0.8939
B( 31-H , 33-C ) :  -0.1429 B( 31-H , 34-C ) :  -0.3726 B( 33-C , 34-C ) :   1.5312
B( 33-C , 37-H ) :   0.7683 B( 33-C , 38-H ) :   1.1417 B( 34-C , 35-H ) :   0.9286
B( 34-C , 36-H ) :   1.1029

MP2 TOTAL ENERGY:     -730.022002062 Eh
FINAL SINGLE POINT ENERGY      -730.022002061859

DIPOLE MOMENT
-------------
                                X             Y             Z
Electronic contribution:      6.81331       1.79203      -0.19630
Nuclear contribution   :     -7.27699      -1.49848       0.12907
                        -----------------------------------------
Total Dipole Moment    :     -0.46369       0.29355      -0.06723
                        -----------------------------------------
Magnitude (a.u.)       :      0.55290
Magnitude (Debye)      :      1.40536

Rotational constants in cm-1:     0.020111     0.012556     0.009217
Rotational constants in MHz :   602.917245   376.424400   276.321964

                             ****ORCA TERMINATED NORMALLY****
TOTAL RUN TIME: 0 days 1 hours 4 minutes 21 seconds 104 msec
