                         Program Version 4.2.1 -  RELEASE  -
|  1> %pal
|  2>  nprocs 32
|  3> end
|  4> !RI-MP2 aug-cc-pVTZ aug-cc-pVTZ/C TightSCF
|  5> %maxcore 4500
|  6> *xyzfile 0 1  05_29R1.xyz
|  7>
|  8>
|  9>                          ****END OF INPUT****

CARTESIAN COORDINATES (ANGSTROEM)
---------------------------------
  C     -0.000005   -1.462694    0.000296
  C      1.265416   -0.637590   -0.059549
  C      2.287580   -0.825469    0.863574
  C      1.432478    0.327370   -1.051640
  C      3.454179   -0.072285    0.799472
  H      2.170549   -1.569924    1.643692
  C      2.594330    1.078945   -1.120985
  H      0.637024    0.495876   -1.769070
  C      3.611155    0.881720   -0.193735
  H      4.239047   -0.232026    1.529267
  H      2.707650    1.824386   -1.899225
  H      4.518413    1.471325   -0.245985
  C     -1.265418   -0.637553    0.059805
  C     -2.287622   -0.825862   -0.863187
  C     -1.432438    0.327871    1.051452
  C     -3.454217   -0.072648   -0.799387
  H     -2.170624   -1.570681   -1.642963
  C     -2.594287    1.079479    1.120494
  H     -0.636953    0.496713    1.768769
  C     -3.611151    0.881820    0.193380
  H     -4.239116   -0.232730   -1.529075
  H     -2.707573    1.825283    1.898390
  H     -4.518407    1.471450    0.245393
  H     -0.045865   -2.119325   -0.873014
  H      0.045848   -2.118969    0.873874

 Total Charge           Charge          ....    0
 Multiplicity           Mult            ....    1
 Number of Electrons    NEL             ....   90
 Basis Dimension        Dim             ....  874

ORBITAL ENERGIES
----------------

  NO   OCC          E(Eh)            E(eV)
   0   2.0000     -11.239808      -305.8507
   1   2.0000     -11.239763      -305.8495
   2   2.0000     -11.235784      -305.7412
   3   2.0000     -11.232871      -305.6619
   4   2.0000     -11.232870      -305.6619
   5   2.0000     -11.232389      -305.6488
   6   2.0000     -11.232388      -305.6488
   7   2.0000     -11.229594      -305.5728
   8   2.0000     -11.229593      -305.5728
   9   2.0000     -11.229283      -305.5643
  10   2.0000     -11.229282      -305.5643
  11   2.0000     -11.227585      -305.5181
  12   2.0000     -11.227584      -305.5181
  13   2.0000      -1.165722       -31.7209
  14   2.0000      -1.150212       -31.2989
  15   2.0000      -1.068755       -29.0823
  16   2.0000      -1.015390       -27.6302
  17   2.0000      -1.014087       -27.5947
  18   2.0000      -1.010114       -27.4866
  19   2.0000      -0.928073       -25.2541
  20   2.0000      -0.830259       -22.5925
  21   2.0000      -0.826345       -22.4860
  22   2.0000      -0.816106       -22.2074
  23   2.0000      -0.785024       -21.3616
  24   2.0000      -0.701859       -19.0986
  25   2.0000      -0.690444       -18.7879
  26   2.0000      -0.644132       -17.5277
  27   2.0000      -0.637854       -17.3569
  28   2.0000      -0.633906       -17.2495
  29   2.0000      -0.618018       -16.8171
  30   2.0000      -0.585767       -15.9395
  31   2.0000      -0.584975       -15.9180
  32   2.0000      -0.575103       -15.6493
  33   2.0000      -0.570006       -15.5106
  34   2.0000      -0.547933       -14.9100
  35   2.0000      -0.510228       -13.8840
  36   2.0000      -0.498175       -13.5560
  37   2.0000      -0.496394       -13.5076
  38   2.0000      -0.483455       -13.1555
  39   2.0000      -0.483235       -13.1495
  40   2.0000      -0.475853       -12.9486
  41   2.0000      -0.341667        -9.2972
  42   2.0000      -0.335995        -9.1429
  43   2.0000      -0.335387        -9.1263
  44   2.0000      -0.317315        -8.6346
  45   0.0000       0.027762         0.7554
  46   0.0000       0.030275         0.8238
  47   0.0000       0.033892         0.9222
  48   0.0000       0.034407         0.9363
  49   0.0000       0.040960         1.1146

MULLIKEN ATOMIC CHARGES
-----------------------
   0 C :   -0.084842
   1 C :    1.511018
   2 C :   -0.946857
   3 C :   -0.801331
   4 C :   -0.553385
   5 H :   -0.148492
   6 C :   -0.807850
   7 H :    0.148852
   8 C :   -0.087935
   9 H :    0.594063
  10 H :    0.480607
  11 H :    0.398342
  12 C :    1.510936
  13 C :   -0.946767
  14 C :   -0.801266
  15 C :   -0.553326
  16 H :   -0.148451
  17 C :   -0.807916
  18 H :    0.148920
  19 C :   -0.087905
  20 H :    0.593942
  21 H :    0.480565
  22 H :    0.398345
  23 H :    0.255352
  24 H :    0.255382
Sum of atomic charges:    0.0000000

LOEWDIN ATOMIC CHARGES
----------------------
   0 C :    0.277064
   1 C :   -0.117132
   2 C :    0.216671
   3 C :    0.219710
   4 C :    0.195752
   5 H :   -0.177397
   6 C :    0.200455
   7 H :   -0.167152
   8 C :    0.190958
   9 H :   -0.182746
  10 H :   -0.181493
  11 H :   -0.185537
  12 C :   -0.117128
  13 C :    0.216671
  14 C :    0.219711
  15 C :    0.195750
  16 H :   -0.177397
  17 C :    0.200455
  18 H :   -0.167153
  19 C :    0.190957
  20 H :   -0.182745
  21 H :   -0.181493
  22 H :   -0.185537
  23 H :   -0.150624
  24 H :   -0.150623

  Mayer bond orders larger than 0.100000
B(  0-C ,  1-C ) :   0.4474 B(  0-C ,  2-C ) :   0.1437 B(  0-C ,  3-C ) :   0.1364
B(  0-C ,  8-C ) :   0.1305 B(  0-C , 12-C ) :   0.4474 B(  0-C , 13-C ) :   0.1437
B(  0-C , 14-C ) :   0.1363 B(  0-C , 19-C ) :   0.1305 B(  0-C , 23-H ) :   1.0732
B(  0-C , 24-H ) :   1.0732 B(  1-C ,  2-C ) :   0.2442 B(  1-C ,  3-C ) :   0.4184
B(  1-C ,  4-C ) :   0.2549 B(  1-C ,  5-H ) :  -0.3947 B(  1-C ,  6-C ) :   0.1773
B(  1-C ,  7-H ) :  -0.2746 B(  1-C , 12-C ) :   0.3070 B(  2-C ,  3-C ) :  -0.2902
B(  2-C ,  4-C ) :   1.1710 B(  2-C ,  5-H ) :   1.9796 B(  2-C ,  7-H ) :   0.2474
B(  2-C ,  8-C ) :  -0.3099 B(  2-C ,  9-H ) :  -0.1790 B(  2-C , 11-H ) :   0.2241
B(  2-C , 14-C ) :   0.1399 B(  3-C ,  5-H ) :   0.2107 B(  3-C ,  6-C ) :   1.2595
B(  3-C ,  7-H ) :   1.4463 B(  3-C ,  8-C ) :  -0.1704 B(  3-C , 13-C ) :   0.1399
B(  3-C , 14-C ) :   0.1270 B(  4-C ,  5-H ) :  -0.1677 B(  4-C ,  6-C ) :   0.2625
B(  4-C ,  8-C ) :   1.0664 B(  4-C ,  9-H ) :   0.5913 B(  4-C , 11-H ) :  -0.2086
B(  5-H ,  7-H ) :   0.1069 B(  6-C ,  7-H ) :  -0.1029 B(  6-C ,  8-C ) :   1.1380
B(  6-C , 10-H ) :   0.7218 B(  6-C , 11-H ) :  -0.1817 B(  8-C , 11-H ) :   0.9044
B( 12-C , 13-C ) :   0.2442 B( 12-C , 14-C ) :   0.4184 B( 12-C , 15-C ) :   0.2549
B( 12-C , 16-H ) :  -0.3947 B( 12-C , 17-C ) :   0.1772 B( 12-C , 18-H ) :  -0.2745
B( 13-C , 14-C ) :  -0.2902 B( 13-C , 15-C ) :   1.1710 B( 13-C , 16-H ) :   1.9795
B( 13-C , 18-H ) :   0.2474 B( 13-C , 19-C ) :  -0.3099 B( 13-C , 20-H ) :  -0.1790
B( 13-C , 22-H ) :   0.2240 B( 14-C , 16-H ) :   0.2106 B( 14-C , 17-C ) :   1.2595
B( 14-C , 18-H ) :   1.4462 B( 14-C , 19-C ) :  -0.1703 B( 15-C , 16-H ) :  -0.1677
B( 15-C , 17-C ) :   0.2624 B( 15-C , 19-C ) :   1.0664 B( 15-C , 20-H ) :   0.5916
B( 15-C , 22-H ) :  -0.2085 B( 16-H , 18-H ) :   0.1069 B( 17-C , 18-H ) :  -0.1029
B( 17-C , 19-C ) :   1.1380 B( 17-C , 21-H ) :   0.7219 B( 17-C , 22-H ) :  -0.1817
B( 19-C , 22-H ) :   0.9044

MP2 TOTAL ENERGY:     -501.541296560 Eh
FINAL SINGLE POINT ENERGY      -501.541296560158

DIPOLE MOMENT
-------------
                                X             Y             Z
Electronic contribution:      0.00001       0.21840      -0.00005
Nuclear contribution   :     -0.00001      -0.25983       0.00005
                        -----------------------------------------
Total Dipole Moment    :      0.00000      -0.04143       0.00001
                        -----------------------------------------
Magnitude (a.u.)       :      0.04143
Magnitude (Debye)      :      0.10531

Rotational constants in cm-1:     0.069301     0.014120     0.013996
Rotational constants in MHz :  2077.606335   423.307784   419.595672

                             ****ORCA TERMINATED NORMALLY****
TOTAL RUN TIME: 0 days 0 hours 10 minutes 36 seconds 296 msec
