                         Program Version 4.2.1 -  RELEASE  -
|  1> %pal
|  2>  nprocs 32
|  3> end
|  4> !RI-MP2 aug-cc-pVTZ aug-cc-pVTZ/C TightSCF
|  5> %maxcore 4500
|  6> *xyzfile 0 1  06_24TS.xyz
|  7>
|  8>
|  9>                          ****END OF INPUT****

CARTESIAN COORDINATES (ANGSTROEM)
---------------------------------
  C      0.128961   -3.006560   -0.081461
  C     -0.113072   -1.870068    0.931470
  C      2.190256   -0.596158   -0.694610
  H     -0.550166   -2.880268   -0.933932
  C      0.943960   -1.825309    2.059530
  H      0.428518   -1.661501    3.011038
  H      1.437439   -2.798035    2.161014
  H      2.880652   -0.029820   -1.328882
  H     -1.072633   -2.108892    1.411099
  H     -0.634328    0.371892    1.201870
  C      1.996086   -0.717131    1.937285
  H      1.485690    0.245742    2.020828
  H      2.658173   -0.772946    2.808195
  C      2.880432   -0.680957    0.687131
  H      3.536137    0.188490    0.798386
  H      3.551049   -1.547226    0.688916
  C      2.106657   -1.968272   -1.394018
  H      1.521556   -1.847554   -2.313204
  C      1.556349   -3.146955   -0.599086
  H      1.606897   -4.036296   -1.236279
  H      2.224786   -3.356731    0.240952
  H      3.119654   -2.237077   -1.715736
  H     -0.147399   -3.959892    0.385548
  C      0.838690    0.166220   -0.710263
  H      0.435463   -0.002690   -1.720560
  Si     1.020309    2.041020   -0.726279
  C      1.611372    2.788494    0.897303
  H      1.715455    3.872476    0.794143
  H      0.905226    2.600625    1.706729
  H      2.583381    2.390881    1.197031
  C     -0.638097    2.817946   -1.175388
  H     -1.007544    2.425990   -2.127038
  H     -1.399551    2.632694   -0.416244
  H     -0.539282    3.901669   -1.282364
  C      2.254346    2.551595   -2.058789
  H      1.997803    2.115692   -3.028311
  H      2.265849    3.638676   -2.177124
  H      3.272908    2.239351   -1.816065
  B     -0.295711   -0.425153    0.269131
  C     -1.996238    1.154156    1.806350
  C     -2.982287    0.546302    1.128211
  H     -3.954074    0.426877    1.588169
  C     -1.541974    2.031500    2.662659
  H     -0.684673    1.836950    3.291558
  H     -2.009797    3.008004    2.712109
  C     -2.769776   -0.126345   -0.105964
  O     -1.658496   -0.472460   -0.565852
  O     -3.856939   -0.479859   -0.758471
  C     -3.687072   -1.290491   -1.932907
  H     -3.084915   -0.761841   -2.670110
  H     -3.203943   -2.231315   -1.673404
  H     -4.692163   -1.461699   -2.306200

 Total Charge           Charge          ....    0
 Multiplicity           Mult            ....    1
 Number of Electrons    NEL             ....  168
 Basis Dimension        Dim             .... 1683

ORBITAL ENERGIES
----------------

  NO   OCC          E(Eh)            E(eV)
   0   2.0000     -68.727815     -1870.1789
   1   2.0000     -20.638765      -561.6093
   2   2.0000     -20.597692      -560.4917
   3   2.0000     -11.426418      -310.9286
   4   2.0000     -11.330122      -308.3083
   5   2.0000     -11.308594      -307.7225
   6   2.0000     -11.248489      -306.0870
   7   2.0000     -11.247300      -306.0546
   8   2.0000     -11.203529      -304.8635
   9   2.0000     -11.197050      -304.6872
  10   2.0000     -11.196265      -304.6659
  11   2.0000     -11.194671      -304.6225
  12   2.0000     -11.194626      -304.6213
  13   2.0000     -11.194183      -304.6092
  14   2.0000     -11.193692      -304.5959
  15   2.0000     -11.181447      -304.2626
  16   2.0000     -11.179619      -304.2129
  17   2.0000     -11.178120      -304.1721
  18   2.0000     -11.168124      -303.9001
  19   2.0000     -11.154748      -303.5361
  20   2.0000      -7.562646      -205.7901
  21   2.0000      -6.075073      -165.3111
  22   2.0000      -4.181402      -113.7817
  23   2.0000      -4.181345      -113.7802
  24   2.0000      -4.180959      -113.7697
  25   2.0000      -1.510107       -41.0921
  26   2.0000      -1.406996       -38.2863
  27   2.0000      -1.125288       -30.6207
  28   2.0000      -1.093712       -29.7614
  29   2.0000      -1.042239       -28.3608
  30   2.0000      -1.025447       -27.9038
  31   2.0000      -1.024455       -27.8768
  32   2.0000      -0.978013       -26.6131
  33   2.0000      -0.959592       -26.1118
  34   2.0000      -0.933995       -25.4153
  35   2.0000      -0.908525       -24.7222
  36   2.0000      -0.905296       -24.6344
  37   2.0000      -0.897431       -24.4203
  38   2.0000      -0.862010       -23.4565
  39   2.0000      -0.845486       -23.0068
  40   2.0000      -0.801232       -21.8026
  41   2.0000      -0.776506       -21.1298
  42   2.0000      -0.760443       -20.6927
  43   2.0000      -0.748963       -20.3803
  44   2.0000      -0.712645       -19.3920
  45   2.0000      -0.705400       -19.1949
  46   2.0000      -0.692938       -18.8558
  47   2.0000      -0.661458       -17.9992
  48   2.0000      -0.642393       -17.4804
  49   2.0000      -0.634656       -17.2699
  50   2.0000      -0.620873       -16.8948
  51   2.0000      -0.618218       -16.8226
  52   2.0000      -0.605778       -16.4840
  53   2.0000      -0.604747       -16.4560
  54   2.0000      -0.584978       -15.9180
  55   2.0000      -0.572448       -15.5771
  56   2.0000      -0.564530       -15.3616
  57   2.0000      -0.559636       -15.2285
  58   2.0000      -0.556785       -15.1509
  59   2.0000      -0.553282       -15.0556
  60   2.0000      -0.550049       -14.9676
  61   2.0000      -0.547481       -14.8977
  62   2.0000      -0.539981       -14.6936
  63   2.0000      -0.535119       -14.5613
  64   2.0000      -0.524153       -14.2629
  65   2.0000      -0.522329       -14.2133
  66   2.0000      -0.515039       -14.0149
  67   2.0000      -0.512377       -13.9425
  68   2.0000      -0.507387       -13.8067
  69   2.0000      -0.479239       -13.0408
  70   2.0000      -0.467520       -12.7219
  71   2.0000      -0.467045       -12.7090
  72   2.0000      -0.460497       -12.5308
  73   2.0000      -0.448786       -12.2121
  74   2.0000      -0.443259       -12.0617
  75   2.0000      -0.437792       -11.9129
  76   2.0000      -0.416392       -11.3306
  77   2.0000      -0.413657       -11.2562
  78   2.0000      -0.409425       -11.1410
  79   2.0000      -0.401565       -10.9272
  80   2.0000      -0.393926       -10.7193
  81   2.0000      -0.384217       -10.4551
  82   2.0000      -0.354374        -9.6430
  83   2.0000      -0.308636        -8.3984
  84   0.0000       0.019836         0.5398
  85   0.0000       0.025721         0.6999
  86   0.0000       0.029156         0.7934
  87   0.0000       0.030806         0.8383
  88   0.0000       0.038279         1.0416

MULLIKEN ATOMIC CHARGES
-----------------------
   0 C :   -0.835961
   1 C :    0.483411
   2 C :   -0.338757
   3 H :    0.222894
   4 C :   -0.880100
   5 H :    0.076230
   6 H :   -0.160255
   7 H :    0.223741
   8 H :    0.189461
   9 H :   -1.116097
  10 C :   -0.491765
  11 H :    0.413209
  12 H :    0.501428
  13 C :   -0.556663
  14 H :    0.011243
  15 H :    0.075126
  16 C :   -0.737420
  17 H :    0.052834
  18 C :   -0.447977
  19 H :    0.441173
  20 H :   -0.048811
  21 H :    0.110664
  22 H :    0.177424
  23 C :    1.270451
  24 H :    0.419115
  25 Si:    2.848228
  26 C :   -1.432222
  27 H :    0.004039
  28 H :    0.550189
  29 H :    0.223492
  30 C :   -1.736348
  31 H :    0.160309
  32 H :    0.346180
  33 H :    0.103798
  34 C :   -1.940875
  35 H :    0.168558
  36 H :    0.036386
  37 H :    0.271997
  38 B :    1.408960
  39 C :    1.475476
  40 C :    0.173376
  41 H :   -0.359405
  42 C :   -1.270610
  43 H :    0.620458
  44 H :    0.168032
  45 C :    0.633240
  46 O :   -0.864624
  47 O :   -0.818815
  48 C :   -0.918620
  49 H :    0.328861
  50 H :    0.394314
  51 H :    0.371027
Sum of atomic charges:   -0.0000000

LOEWDIN ATOMIC CHARGES
----------------------
   0 C :    0.305141
   1 C :    0.117730
   2 C :   -0.003494
   3 H :   -0.142223
   4 C :    0.325087
   5 H :   -0.136452
   6 H :   -0.149212
   7 H :   -0.167718
   8 H :   -0.146551
   9 H :   -0.188331
  10 C :    0.312330
  11 H :   -0.184306
  12 H :   -0.129590
  13 C :    0.333191
  14 H :   -0.147694
  15 H :   -0.142668
  16 C :    0.320341
  17 H :   -0.138561
  18 C :    0.299689
  19 H :   -0.135942
  20 H :   -0.165698
  21 H :   -0.135191
  22 H :   -0.136155
  23 C :    0.151027
  24 H :   -0.216137
  25 Si:    0.522600
  26 C :    0.601510
  27 H :   -0.219185
  28 H :   -0.264448
  29 H :   -0.228166
  30 C :    0.599536
  31 H :   -0.219406
  32 H :   -0.254501
  33 H :   -0.222419
  34 C :    0.589731
  35 H :   -0.221558
  36 H :   -0.228746
  37 H :   -0.230885
  38 B :   -0.708429
  39 C :    0.094234
  40 C :    0.221468
  41 H :   -0.195925
  42 C :    0.549576
  43 H :   -0.208229
  44 H :   -0.204019
  45 C :   -0.678502
  46 O :    0.709360
  47 O :    0.611358
  48 C :    0.402923
  49 H :   -0.169625
  50 H :   -0.170298
  51 H :   -0.176567

  Mayer bond orders larger than 0.100000
B(  0-C ,  1-C ) :   0.5636 B(  0-C ,  3-H ) :   1.0974 B(  0-C ,  8-H ) :  -0.1705
B(  0-C ,  9-H ) :   0.1320 B(  0-C , 18-C ) :   0.7688 B(  0-C , 22-H ) :   1.0965
B(  0-C , 46-O ) :   0.1553 B(  1-C ,  2-C ) :   0.1760 B(  1-C ,  4-C ) :   0.6415
B(  1-C ,  6-H ) :  -0.1230 B(  1-C ,  8-H ) :   1.0043 B(  1-C ,  9-H ) :   0.3565
B(  1-C , 22-H ) :  -0.1136 B(  1-C , 23-C ) :   0.1921 B(  1-C , 38-B ) :   0.6573
B(  1-C , 46-O ) :  -0.1289 B(  2-C ,  7-H ) :   1.0751 B(  2-C , 13-C ) :   0.9525
B(  2-C , 16-C ) :   0.7516 B(  2-C , 18-C ) :   0.1417 B(  2-C , 21-H ) :  -0.1198
B(  2-C , 23-C ) :   0.8802 B(  2-C , 24-H ) :  -0.1343 B(  2-C , 25-Si) :  -0.1004
B(  2-C , 30-C ) :   0.1558 B(  2-C , 34-C ) :   0.1711 B(  2-C , 38-B ) :   0.3364
B(  4-C ,  5-H ) :   1.2523 B(  4-C ,  6-H ) :   1.3794 B(  4-C ,  8-H ) :  -0.2964
B(  4-C ,  9-H ) :   0.1444 B(  4-C , 10-C ) :   0.8087 B(  4-C , 11-H ) :   0.1876
B(  4-C , 12-H ) :  -0.1648 B(  4-C , 38-B ) :  -0.2229 B(  5-H , 38-B ) :  -0.1484
B(  7-H , 13-C ) :  -0.2022 B(  7-H , 16-C ) :  -0.1908 B(  7-H , 23-C ) :  -0.2662
B(  7-H , 25-Si) :   0.1425 B(  7-H , 34-C ) :   0.1664 B(  8-H , 38-B ) :  -0.2182
B(  9-H , 23-C ) :  -0.1039 B(  9-H , 38-B ) :   1.0891 B(  9-H , 39-C ) :   0.5295
B(  9-H , 40-C ) :   0.1949 B(  9-H , 41-H ) :   0.2653 B(  9-H , 42-C ) :   0.1608
B(  9-H , 43-H ) :  -0.2485 B(  9-H , 44-H ) :   0.2174 B(  9-H , 46-O ) :   0.3267
B( 10-C , 11-H ) :   0.9158 B( 10-C , 12-H ) :   0.7886 B( 10-C , 13-C ) :   0.8226
B( 11-H , 13-C ) :   0.1060 B( 12-H , 13-C ) :  -0.1317 B( 13-C , 14-H ) :   1.2393
B( 13-C , 15-H ) :   1.1535 B( 13-C , 23-C ) :   0.1665 B( 13-C , 25-Si) :  -0.1489
B( 16-C , 17-H ) :   1.2806 B( 16-C , 18-C ) :   0.7236 B( 16-C , 21-H ) :   1.1959
B( 16-C , 25-Si) :  -0.1970 B( 16-C , 38-B ) :   0.1383 B( 17-H , 21-H ) :   0.1017
B( 17-H , 23-C ) :  -0.1929 B( 18-C , 19-H ) :   0.7983 B( 18-C , 20-H ) :   1.2996
B( 18-C , 23-C ) :   0.1024 B( 18-C , 38-B ) :  -0.1543 B( 23-C , 24-H ) :   0.7067
B( 23-C , 25-Si) :   0.9320 B( 23-C , 30-C ) :  -0.1523 B( 23-C , 34-C ) :  -0.2598
B( 23-C , 38-B ) :   0.9903 B( 24-H , 25-Si) :  -0.5369 B( 24-H , 30-C ) :   0.1262
B( 24-H , 38-B ) :  -0.1579 B( 24-H , 40-C ) :   0.1054 B( 24-H , 46-O ) :   0.1365
B( 25-Si, 27-H ) :  -0.1437 B( 25-Si, 28-H ) :   0.1042 B( 25-Si, 30-C ) :  -0.4444
B( 25-Si, 31-H ) :  -0.1360 B( 25-Si, 33-H ) :  -0.1463 B( 25-Si, 34-C ) :  -1.1961
B( 25-Si, 35-H ) :  -0.1958 B( 25-Si, 36-H ) :  -0.2520 B( 25-Si, 38-B ) :   0.3020
B( 26-C , 27-H ) :   1.1874 B( 26-C , 28-H ) :   0.7682 B( 26-C , 29-H ) :   1.1276
B( 26-C , 30-C ) :   0.1692 B( 26-C , 34-C ) :   0.1355 B( 30-C , 31-H ) :   1.2094
B( 30-C , 32-H ) :   0.9569 B( 30-C , 33-H ) :   1.1739 B( 34-C , 35-H ) :   1.2363
B( 34-C , 36-H ) :   1.3859 B( 34-C , 37-H ) :   1.0516 B( 34-C , 38-B ) :   0.1875
B( 38-B , 39-C ) :   0.2425 B( 38-B , 40-C ) :  -0.2853 B( 38-B , 43-H ) :   0.1172
B( 38-B , 45-C ) :   0.3509 B( 38-B , 46-O ) :  -2.2719 B( 38-B , 47-O ) :  -0.1294
B( 39-C , 40-C ) :   0.9229 B( 39-C , 41-H ) :  -0.1600 B( 39-C , 42-C ) :   1.0240
B( 39-C , 44-H ) :  -0.2443 B( 39-C , 45-C ) :   0.3216 B( 40-C , 41-H ) :   1.4783
B( 40-C , 42-C ) :  -0.2166 B( 40-C , 43-H ) :   0.1328 B( 40-C , 44-H ) :  -0.1294
B( 40-C , 45-C ) :   0.5884 B( 40-C , 46-O ) :  -0.4647 B( 40-C , 47-O ) :   0.2050
B( 41-H , 45-C ) :  -0.1929 B( 41-H , 46-O ) :   0.1271 B( 41-H , 47-O ) :   0.1118
B( 42-C , 43-H ) :   0.5285 B( 42-C , 44-H ) :   1.4306 B( 45-C , 46-O ) :   2.1354
B( 45-C , 47-O ) :   0.2378 B( 46-O , 47-O ) :  -0.1826 B( 46-O , 48-C ) :  -0.2282
B( 47-O , 48-C ) :   0.8661 B( 48-C , 49-H ) :   0.8998 B( 48-C , 50-H ) :   0.8438
B( 48-C , 51-H ) :   0.9475

MP2 TOTAL ENERGY:    -1129.061531813 Eh
FINAL SINGLE POINT ENERGY     -1129.061531812513

DIPOLE MOMENT
-------------
                                X             Y             Z
Electronic contribution:    -16.66956      -0.36403       0.84619
Nuclear contribution   :     15.17750       0.41807      -0.94916
                        -----------------------------------------
Total Dipole Moment    :     -1.49206       0.05404      -0.10297
                        -----------------------------------------
Magnitude (a.u.)       :      1.49658
Magnitude (Debye)      :      3.80401

Rotational constants in cm-1:     0.010617     0.009003     0.007171
Rotational constants in MHz :   318.302119   269.911406   214.975873

                             ****ORCA TERMINATED NORMALLY****
TOTAL RUN TIME: 0 days 2 hours 28 minutes 32 seconds 120 msec
