                         Program Version 4.2.1 -  RELEASE  -
|  1> %pal
|  2>  nprocs 32
|  3> end
|  4> !RI-MP2 aug-cc-pVTZ aug-cc-pVTZ/C TightSCF
|  5> %maxcore 4500
|  6> *xyzfile 0 2  03_30R2.xyz
|  7>
|  8>
|  9>                          ****END OF INPUT****

CARTESIAN COORDINATES (ANGSTROEM)
---------------------------------
  S     -1.814164   -0.091051   -0.000114
  C     -0.125264    0.534688    0.000075
  C      0.969256   -0.524014   -0.000045
  C      2.363120    0.095118    0.000156
  H      3.135773   -0.675814    0.000058
  H      2.518977    0.721175    0.882746
  H      2.519085    0.721507   -0.882179
  H      0.842759   -1.167097    0.874696
  H      0.842876   -1.166779   -0.875036
  H     -0.037696    1.194711   -0.870447
  H     -0.037819    1.194371    0.870872

 Total Charge           Charge          ....    0
 Multiplicity           Mult            ....    2
 Number of Electrons    NEL             ....   41
 Basis Dimension        Dim             ....  349

ORBITAL ENERGIES
----------------
                 SPIN UP ORBITALS
  NO   OCC          E(Eh)            E(eV)
   0   1.0000     -91.967106     -2502.5522
   1   1.0000     -11.263175      -306.4866
   2   1.0000     -11.231058      -305.6126
   3   1.0000     -11.221906      -305.3636
   4   1.0000      -8.967752      -244.0249
   5   1.0000      -6.663275      -181.3169
   6   1.0000      -6.644934      -180.8178
   7   1.0000      -6.643409      -180.7763
   8   1.0000      -1.092978       -29.7415
   9   1.0000      -1.000828       -27.2339
  10   1.0000      -0.875852       -23.8331
  11   1.0000      -0.803992       -21.8777
  12   1.0000      -0.653362       -17.7789
  13   1.0000      -0.591916       -16.1068
  14   1.0000      -0.567675       -15.4472
  15   1.0000      -0.560942       -15.2640
  16   1.0000      -0.501193       -13.6381
  17   1.0000      -0.489406       -13.3174
  18   1.0000      -0.466393       -12.6912
  19   1.0000      -0.425194       -11.5701
  20   1.0000      -0.365767        -9.9530
  21   0.0000       0.029680         0.8076
  22   0.0000       0.038477         1.0470
  23   0.0000       0.039521         1.0754
  24   0.0000       0.044396         1.2081
  25   0.0000       0.060872         1.6564

                 SPIN DOWN ORBITALS
  NO   OCC          E(Eh)            E(eV)
   0   1.0000     -91.958032     -2502.3053
   1   1.0000     -11.264213      -306.5148
   2   1.0000     -11.231036      -305.6120
   3   1.0000     -11.221960      -305.3651
   4   1.0000      -8.957863      -243.7559
   5   1.0000      -6.639935      -180.6818
   6   1.0000      -6.638248      -180.6359
   7   1.0000      -6.622696      -180.2127
   8   1.0000      -1.083588       -29.4859
   9   1.0000      -0.974715       -26.5233
  10   1.0000      -0.843443       -22.9512
  11   1.0000      -0.774447       -21.0738
  12   1.0000      -0.644776       -17.5453
  13   1.0000      -0.589643       -16.0450
  14   1.0000      -0.555430       -15.1140
  15   1.0000      -0.553872       -15.0716
  16   1.0000      -0.500548       -13.6206
  17   1.0000      -0.484934       -13.1957
  18   1.0000      -0.456755       -12.4289
  19   1.0000      -0.346816        -9.4373
  20   0.0000       0.021093         0.5740
  21   0.0000       0.029804         0.8110
  22   0.0000       0.038525         1.0483
  23   0.0000       0.042217         1.1488
  24   0.0000       0.044882         1.2213

MULLIKEN ATOMIC CHARGES AND SPIN POPULATIONS
--------------------------------------------
   0 S :   -0.300133    1.096707
   1 C :   -0.345492   -0.129094
   2 C :   -0.422810   -0.002857
   3 C :   -0.916887   -0.000551
   4 H :    0.280850   -0.000576
   5 H :    0.280513    0.000259
   6 H :    0.280512    0.000259
   7 H :    0.285235   -0.000496
   8 H :    0.285232   -0.000493
   9 H :    0.286491    0.018418
  10 H :    0.286490    0.018424
Sum of atomic charges         :    0.0000000

LOEWDIN ATOMIC CHARGES AND SPIN POPULATIONS
-------------------------------------------
   0 S :    0.890613    0.808915
   1 C :   -0.271967    0.151022
   2 C :    0.150726    0.003933
   3 C :    0.565216    0.000111
   4 H :   -0.172636   -0.000138
   5 H :   -0.171601    0.000209
   6 H :   -0.171602    0.000209
   7 H :   -0.169847    0.000641
   8 H :   -0.169846    0.000642
   9 H :   -0.239527    0.017225
  10 H :   -0.239529    0.017231

  Mayer bond orders larger than 0.100000
B(  0-S ,  1-C ) :   0.9971 B(  1-C ,  2-C ) :   0.9245 B(  1-C ,  9-H ) :   0.9130
B(  1-C , 10-H ) :   0.9130 B(  2-C ,  3-C ) :   0.8711 B(  2-C ,  7-H ) :   0.9427
B(  2-C ,  8-H ) :   0.9427 B(  3-C ,  4-H ) :   0.9521 B(  3-C ,  5-H ) :   0.9428
B(  3-C ,  6-H ) :   0.9428

MP2 TOTAL ENERGY:     -515.936742811 Eh
FINAL SINGLE POINT ENERGY      -515.936742810983

DIPOLE MOMENT
-------------
                                X             Y             Z
Electronic contribution:     -9.36185      -0.64655      -0.00066
Nuclear contribution   :     10.08243       0.84521       0.00073
                        -----------------------------------------
Total Dipole Moment    :      0.72058       0.19866       0.00007
                        -----------------------------------------
Magnitude (a.u.)       :      0.74747
Magnitude (Debye)      :      1.89991

Rotational constants in cm-1:     0.893405     0.079679     0.076225
Rotational constants in MHz : 26783.593820  2388.708801  2285.164058

                             ****ORCA TERMINATED NORMALLY****
TOTAL RUN TIME: 0 days 0 hours 0 minutes 48 seconds 439 msec
