                         Program Version 4.2.1 -  RELEASE  -
|  1> %pal
|  2>  nprocs 32
|  3> end
|  4> !RI-MP2 aug-cc-pVTZ aug-cc-pVTZ/C TightSCF
|  5> %maxcore 4500
|  6> *xyzfile 0 2  01_9P.xyz
|  7>
|  8>
|  9>                          ****END OF INPUT****

CARTESIAN COORDINATES (ANGSTROEM)
---------------------------------
  C     -1.810488   -1.335143   -0.717672
  S     -2.107723    0.330296   -0.066328
  C     -0.637162    0.532269    1.018802
  C      0.618848    0.662145    0.245453
  C      1.473904   -0.501144    0.158030
  O      2.610355   -0.296823   -0.553455
  C      0.949667    1.950297   -0.415336
  O      1.231166   -1.580537    0.662142
  H     -2.708313   -1.613650   -1.268293
  H     -0.959087   -1.358377   -1.395456
  H     -1.650379   -2.043617    0.093322
  H      1.297428    2.678734    0.328737
  H      0.056219    2.372724   -0.882240
  H      1.730648    1.839755   -1.163761
  H      3.096879   -1.131495   -0.541340
  H     -0.844170    1.447776    1.576536
  H     -0.596440   -0.308249    1.708587

 Total Charge           Charge          ....    0
 Multiplicity           Mult            ....    2
 Number of Electrons    NEL             ....   71
 Basis Dimension        Dim             ....  579

ORBITAL ENERGIES
----------------
                 SPIN UP ORBITALS
  NO   OCC          E(Eh)            E(eV)
   0   1.0000     -91.950937     -2502.1122
   1   1.0000     -20.610591      -560.8427
   2   1.0000     -20.561147      -559.4973
   3   1.0000     -11.379848      -309.6614
   4   1.0000     -11.277395      -306.8735
   5   1.0000     -11.265051      -306.5376
   6   1.0000     -11.248833      -306.0963
   7   1.0000     -11.232986      -305.6651
   8   1.0000      -8.951068      -243.5709
   9   1.0000      -6.633547      -180.5080
  10   1.0000      -6.631326      -180.4476
  11   1.0000      -6.630120      -180.4147
  12   1.0000      -1.469015       -39.9739
  13   1.0000      -1.370682       -37.2982
  14   1.0000      -1.133899       -30.8549
  15   1.0000      -1.042608       -28.3708
  16   1.0000      -0.957063       -26.0430
  17   1.0000      -0.922841       -25.1118
  18   1.0000      -0.830647       -22.6031
  19   1.0000      -0.763470       -20.7751
  20   1.0000      -0.713855       -19.4250
  21   1.0000      -0.689999       -18.7758
  22   1.0000      -0.663387       -18.0517
  23   1.0000      -0.615990       -16.7619
  24   1.0000      -0.607404       -16.5283
  25   1.0000      -0.589835       -16.0502
  26   1.0000      -0.583125       -15.8676
  27   1.0000      -0.582242       -15.8436
  28   1.0000      -0.562261       -15.2999
  29   1.0000      -0.532637       -14.4938
  30   1.0000      -0.520163       -14.1543
  31   1.0000      -0.502034       -13.6610
  32   1.0000      -0.470659       -12.8073
  33   1.0000      -0.447575       -12.1791
  34   1.0000      -0.361988        -9.8502
  35   1.0000      -0.341836        -9.3018
  36   0.0000       0.027355         0.7444
  37   0.0000       0.033128         0.9014
  38   0.0000       0.037625         1.0238
  39   0.0000       0.040059         1.0901
  40   0.0000       0.052649         1.4326

                 SPIN DOWN ORBITALS
  NO   OCC          E(Eh)            E(eV)
   0   1.0000     -91.949922     -2502.0846
   1   1.0000     -20.610945      -560.8523
   2   1.0000     -20.548952      -559.1654
   3   1.0000     -11.385309      -309.8100
   4   1.0000     -11.268460      -306.6304
   5   1.0000     -11.256714      -306.3108
   6   1.0000     -11.248914      -306.0985
   7   1.0000     -11.235594      -305.7360
   8   1.0000      -8.949924      -243.5398
   9   1.0000      -6.631081      -180.4409
  10   1.0000      -6.629693      -180.4031
  11   1.0000      -6.628773      -180.3781
  12   1.0000      -1.463001       -39.8103
  13   1.0000      -1.351334       -36.7717
  14   1.0000      -1.100283       -29.9402
  15   1.0000      -1.029803       -28.0224
  16   1.0000      -0.957377       -26.0516
  17   1.0000      -0.910659       -24.7803
  18   1.0000      -0.823523       -22.4092
  19   1.0000      -0.750916       -20.4335
  20   1.0000      -0.706192       -19.2165
  21   1.0000      -0.677715       -18.4416
  22   1.0000      -0.630690       -17.1619
  23   1.0000      -0.612652       -16.6711
  24   1.0000      -0.598014       -16.2728
  25   1.0000      -0.583463       -15.8768
  26   1.0000      -0.581149       -15.8139
  27   1.0000      -0.566250       -15.4084
  28   1.0000      -0.557501       -15.1704
  29   1.0000      -0.528920       -14.3926
  30   1.0000      -0.494663       -13.4605
  31   1.0000      -0.458682       -12.4814
  32   1.0000      -0.456802       -12.4302
  33   1.0000      -0.435273       -11.8444
  34   1.0000      -0.342465        -9.3189
  35   0.0000       0.027373         0.7449
  36   0.0000       0.033025         0.8986
  37   0.0000       0.037168         1.0114
  38   0.0000       0.040037         1.0895
  39   0.0000       0.052160         1.4193

MULLIKEN ATOMIC CHARGES AND SPIN POPULATIONS
--------------------------------------------
   0 C :   -0.721682   -0.004031
   1 S :   -0.316271    0.101588
   2 C :   -0.260532   -0.200631
   3 C :    0.714702    1.129388
   4 C :    0.512337   -0.241192
   5 O :   -0.518002   -0.000527
   6 C :   -0.954185   -0.163915
   7 O :   -0.916053    0.268615
   8 H :    0.289225    0.000250
   9 H :    0.277398   -0.000816
  10 H :    0.290013   -0.000177
  11 H :    0.290982    0.057619
  12 H :    0.301883    0.029495
  13 H :    0.297369    0.002025
  14 H :    0.230295   -0.004938
  15 H :    0.334261    0.029131
  16 H :    0.148260   -0.001882
Sum of atomic charges         :    0.0000000

LOEWDIN ATOMIC CHARGES AND SPIN POPULATIONS
-------------------------------------------
   0 C :    0.218464    0.006748
   1 S :    1.181942    0.057587
   2 C :   -0.075179    0.070784
   3 C :   -0.155464    0.456091
   4 C :   -0.821790    0.079601
   5 O :    0.833096   -0.010894
   6 C :    0.559202    0.097207
   7 O :    0.468495    0.198691
   8 H :   -0.255970    0.001846
   9 H :   -0.245890    0.000684
  10 H :   -0.239920   -0.000041
  11 H :   -0.157656    0.022824
  12 H :   -0.179765    0.011077
  13 H :   -0.194424    0.001815
  14 H :   -0.474323   -0.001348
  15 H :   -0.222985    0.007750
  16 H :   -0.237832   -0.000421

  Mayer bond orders larger than 0.100000
B(  0-C ,  1-S ) :   0.9170 B(  0-C ,  8-H ) :   0.9470 B(  0-C ,  9-H ) :   0.9170
B(  0-C , 10-H ) :   0.9186 B(  1-S ,  2-C ) :   0.7495 B(  1-S ,  3-C ) :   0.2281
B(  2-C ,  3-C ) :   0.9542 B(  2-C , 15-H ) :   0.9326 B(  2-C , 16-H ) :   0.9877
B(  3-C ,  4-C ) :   0.5804 B(  3-C ,  6-C ) :   0.6506 B(  3-C ,  7-O ) :  -0.1124
B(  4-C ,  5-O ) :   0.9419 B(  4-C ,  7-O ) :   1.3244 B(  5-O , 14-H ) :   0.9569
B(  6-C , 11-H ) :   0.9630 B(  6-C , 12-H ) :   0.9635 B(  6-C , 13-H ) :   0.9868

MP2 TOTAL ENERGY:     -743.463839297 Eh
FINAL SINGLE POINT ENERGY      -743.463839296548

DIPOLE MOMENT
-------------
                                X             Y             Z
Electronic contribution:      0.96406      -1.55189       1.34252
Nuclear contribution   :     -0.45216       1.84600      -1.54198
                        -----------------------------------------
Total Dipole Moment    :      0.51191       0.29411      -0.19945
                        -----------------------------------------
Magnitude (a.u.)       :      0.62317
Magnitude (Debye)      :      1.58396

Rotational constants in cm-1:     0.085575     0.038857     0.031206
Rotational constants in MHz :  2565.480227  1164.898872   935.527032

                             ****ORCA TERMINATED NORMALLY****
TOTAL RUN TIME: 0 days 0 hours 6 minutes 54 seconds 525 msec
