                         Program Version 4.2.1 -  RELEASE  -
|  1> %pal
|  2>  nprocs 32
|  3> end
|  4> !RI-MP2 aug-cc-pVTZ aug-cc-pVTZ/C TightSCF
|  5> %maxcore 4500
|  6> *xyzfile 0 2  03_42P1.xyz
|  7>
|  8>
|  9>                          ****END OF INPUT****

CARTESIAN COORDINATES (ANGSTROEM)
---------------------------------
  O     -3.396627    1.102294   -0.874701
  C     -2.886958    0.072982   -0.624226
  C     -2.367933   -0.431473    0.703554
  C     -1.069275   -1.221576    0.563752
  H     -3.160098   -1.080317    1.090429
  H     -2.275384    0.419068    1.385793
  H     -0.785386   -1.600922    1.550823
  C      0.096100   -0.426996   -0.026945
  H     -1.258894   -2.095522   -0.066150
  C      0.510405    0.759050    0.849561
  H     -0.226065   -0.029562   -1.000167
  C      1.295775   -1.344072   -0.278242
  H      1.593469   -1.803476    0.673361
  C      2.486619   -0.591477   -0.868148
  H      1.000371   -2.163297   -0.940650
  C      2.888566    0.589314    0.013136
  H      2.220734   -0.222751   -1.865781
  H      3.331554   -1.272116   -1.002464
  C      1.700919    1.516194    0.262102
  H      3.712581    1.142736   -0.445016
  H      3.259769    0.212351    0.973757
  H      1.398881    1.977808   -0.685248
  H      1.988748    2.333766    0.928312
  H      0.774283    0.383879    1.847189
  H     -0.326855    1.448325    0.986152

 Total Charge           Charge          ....    0
 Multiplicity           Mult            ....    2
 Number of Electrons    NEL             ....   77
 Basis Dimension        Dim             ....  805

ORBITAL ENERGIES
----------------
                 SPIN UP ORBITALS
  NO   OCC          E(Eh)            E(eV)
   0   1.0000     -20.592294      -560.3448
   1   1.0000     -11.333273      -308.3940
   2   1.0000     -11.259140      -306.3768
   3   1.0000     -11.235628      -305.7370
   4   1.0000     -11.229463      -305.5692
   5   1.0000     -11.220082      -305.3140
   6   1.0000     -11.219782      -305.3058
   7   1.0000     -11.217981      -305.2568
   8   1.0000     -11.217789      -305.2516
   9   1.0000     -11.216747      -305.2232
  10   1.0000      -1.440558       -39.1996
  11   1.0000      -1.135644       -30.9025
  12   1.0000      -1.081810       -29.4376
  13   1.0000      -1.010336       -27.4926
  14   1.0000      -1.006003       -27.3747
  15   1.0000      -0.901440       -24.5294
  16   1.0000      -0.836894       -22.7731
  17   1.0000      -0.811834       -22.0911
  18   1.0000      -0.767395       -20.8819
  19   1.0000      -0.750866       -20.4321
  20   1.0000      -0.669149       -18.2085
  21   1.0000      -0.666382       -18.1332
  22   1.0000      -0.648781       -17.6542
  23   1.0000      -0.624258       -16.9869
  24   1.0000      -0.608989       -16.5714
  25   1.0000      -0.603051       -16.4099
  26   1.0000      -0.598073       -16.2744
  27   1.0000      -0.550086       -14.9686
  28   1.0000      -0.546310       -14.8659
  29   1.0000      -0.535653       -14.5759
  30   1.0000      -0.529399       -14.4057
  31   1.0000      -0.501442       -13.6449
  32   1.0000      -0.493760       -13.4359
  33   1.0000      -0.485437       -13.2094
  34   1.0000      -0.477517       -12.9939
  35   1.0000      -0.456011       -12.4087
  36   1.0000      -0.431034       -11.7290
  37   1.0000      -0.428467       -11.6592
  38   1.0000      -0.353385        -9.6161
  39   0.0000       0.026467         0.7202
  40   0.0000       0.029915         0.8140
  41   0.0000       0.032119         0.8740
  42   0.0000       0.037706         1.0260
  43   0.0000       0.045341         1.2338

                 SPIN DOWN ORBITALS
  NO   OCC          E(Eh)            E(eV)
   0   1.0000     -20.581344      -560.0468
   1   1.0000     -11.314251      -307.8764
   2   1.0000     -11.253757      -306.2303
   3   1.0000     -11.235920      -305.7449
   4   1.0000     -11.229386      -305.5671
   5   1.0000     -11.220083      -305.3140
   6   1.0000     -11.219800      -305.3063
   7   1.0000     -11.217979      -305.2567
   8   1.0000     -11.217783      -305.2514
   9   1.0000     -11.216746      -305.2232
  10   1.0000      -1.412988       -38.4494
  11   1.0000      -1.134288       -30.8656
  12   1.0000      -1.073189       -29.2030
  13   1.0000      -1.008440       -27.4410
  14   1.0000      -0.998654       -27.1748
  15   1.0000      -0.890815       -24.2403
  16   1.0000      -0.836405       -22.7597
  17   1.0000      -0.805283       -21.9129
  18   1.0000      -0.760632       -20.6979
  19   1.0000      -0.718394       -19.5485
  20   1.0000      -0.657426       -17.8895
  21   1.0000      -0.650337       -17.6966
  22   1.0000      -0.622378       -16.9358
  23   1.0000      -0.608536       -16.5591
  24   1.0000      -0.602373       -16.3914
  25   1.0000      -0.597889       -16.2694
  26   1.0000      -0.567859       -15.4522
  27   1.0000      -0.547723       -14.9043
  28   1.0000      -0.535722       -14.5777
  29   1.0000      -0.529494       -14.4083
  30   1.0000      -0.505236       -13.7482
  31   1.0000      -0.501290       -13.6408
  32   1.0000      -0.486089       -13.2271
  33   1.0000      -0.481726       -13.1084
  34   1.0000      -0.474463       -12.9108
  35   1.0000      -0.455702       -12.4003
  36   1.0000      -0.430805       -11.7228
  37   1.0000      -0.427889       -11.6434
  38   0.0000       0.025453         0.6926
  39   0.0000       0.029675         0.8075
  40   0.0000       0.032224         0.8769
  41   0.0000       0.036376         0.9898
  42   0.0000       0.045317         1.2332

MULLIKEN ATOMIC CHARGES AND SPIN POPULATIONS
--------------------------------------------
   0 O :   -0.664001    0.161956
   1 C :    0.189633    0.707676
   2 C :   -0.321874    0.110927
   3 C :   -0.594483   -0.027660
   4 H :    0.324152   -0.002005
   5 H :    0.192673    0.059106
   6 H :    0.222647   -0.003149
   7 C :    0.669395    0.007540
   8 H :    0.286086   -0.013335
   9 C :   -0.627802    0.007595
  10 H :    0.454134   -0.012332
  11 C :   -0.864814    0.002488
  12 H :    0.200666    0.000048
  13 C :   -0.556285   -0.000070
  14 H :    0.310834    0.000976
  15 C :   -0.511166   -0.000212
  16 H :    0.125103    0.000415
  17 H :    0.333128   -0.000004
  18 C :   -0.573567    0.001314
  19 H :    0.326441   -0.000001
  20 H :    0.124002    0.000008
  21 H :    0.099133    0.000652
  22 H :    0.334858   -0.000099
  23 H :    0.209766    0.000261
  24 H :    0.311342   -0.002093
Sum of atomic charges         :    0.0000000

LOEWDIN ATOMIC CHARGES AND SPIN POPULATIONS
-------------------------------------------
   0 O :    0.358091    0.247769
   1 C :   -0.204094    0.529827
   2 C :    0.226472    0.150191
   3 C :    0.267704    0.013881
   4 H :   -0.163961    0.010355
   5 H :   -0.171305    0.026312
   6 H :   -0.132753    0.000555
   7 C :   -0.022761    0.006238
   8 H :   -0.141995    0.004840
   9 C :    0.299335    0.002016
  10 H :   -0.129439    0.005575
  11 C :    0.297786    0.000512
  12 H :   -0.129803    0.000016
  13 C :    0.296019   -0.000008
  14 H :   -0.133899    0.000114
  15 C :    0.289417    0.000018
  16 H :   -0.136825    0.000019
  17 H :   -0.139223   -0.000007
  18 C :    0.298485    0.000202
  19 H :   -0.140107    0.000015
  20 H :   -0.138427    0.000004
  21 H :   -0.135403    0.000046
  22 H :   -0.138272    0.000009
  23 H :   -0.126999    0.000254
  24 H :   -0.148042    0.001245

  Mayer bond orders larger than 0.100000
B(  0-O ,  1-C ) :   1.5399 B(  1-C ,  2-C ) :   0.6644 B(  1-C ,  5-H ) :   0.1492
B(  2-C ,  3-C ) :   0.9660 B(  2-C ,  4-H ) :   1.0027 B(  2-C ,  5-H ) :   0.9213
B(  3-C ,  6-H ) :   1.0092 B(  3-C ,  7-C ) :   0.6426 B(  3-C ,  8-H ) :   0.9742
B(  7-C ,  9-C ) :   0.6913 B(  7-C , 10-H ) :   0.8130 B(  7-C , 11-C ) :   0.6944
B(  9-C , 11-C ) :   0.2507 B(  9-C , 18-C ) :   0.9635 B(  9-C , 23-H ) :   1.0204
B(  9-C , 24-H ) :   0.9130 B( 11-C , 12-H ) :   1.0464 B( 11-C , 13-C ) :   1.0388
B( 11-C , 14-H ) :   0.9210 B( 11-C , 15-C ) :   0.1001 B( 13-C , 15-C ) :   0.8777
B( 13-C , 16-H ) :   1.0899 B( 13-C , 17-H ) :   0.8959 B( 15-C , 18-C ) :   0.8842
B( 15-C , 19-H ) :   0.9042 B( 15-C , 20-H ) :   1.0717 B( 18-C , 21-H ) :   1.1170
B( 18-C , 22-H ) :   0.8875

MP2 TOTAL ENERGY:     -426.295446402 Eh
FINAL SINGLE POINT ENERGY      -426.295446402051

DIPOLE MOMENT
-------------
                                X             Y             Z
Electronic contribution:    -10.93776       1.70956      -2.84312
Nuclear contribution   :     11.62785      -2.42303       3.54892
                        -----------------------------------------
Total Dipole Moment    :      0.69009      -0.71346       0.70580
                        -----------------------------------------
Magnitude (a.u.)       :      1.21795
Magnitude (Debye)      :      3.09579

Rotational constants in cm-1:     0.083195     0.023042     0.020971
Rotational constants in MHz :  2494.128540   690.780451   628.698559

                             ****ORCA TERMINATED NORMALLY****
TOTAL RUN TIME: 0 days 0 hours 25 minutes 48 seconds 122 msec
