                         Program Version 4.2.1 -  RELEASE  -
|  1> %pal
|  2>  nprocs 32
|  3> end
|  4> !RI-MP2 aug-cc-pVTZ aug-cc-pVTZ/C TightSCF
|  5> %maxcore 4500
|  6> *xyzfile 1 1  05_40TS.xyz
|  7>
|  8>
|  9>                          ****END OF INPUT****

CARTESIAN COORDINATES (ANGSTROEM)
---------------------------------
  N      0.253149   -1.280743   -0.740420
  C      1.640474   -1.032052   -0.815791
  C      2.208459    0.209076   -1.104637
  C      3.581355    0.364116   -1.121770
  C      4.426070   -0.704945   -0.829493
  C      3.866216   -1.942814   -0.520725
  C      2.488592   -2.095396   -0.520374
  O      5.748809   -0.444977   -0.864139
  C      6.658967   -1.507866   -0.626275
  C     -0.815986   -0.605333   -1.261371
  C     -2.093548   -1.398838   -1.262606
  C     -2.087670   -2.790762   -1.294301
  C     -3.284538   -3.495588   -1.309916
  C     -4.493015   -2.817173   -1.291573
  C     -4.503947   -1.427183   -1.266947
  C     -3.313636   -0.721029   -1.255861
  C     -0.601788    0.298834   -2.460367
  O     -2.564389    2.743102   -0.720121
  C     -1.550936    3.158439   -0.209872
  O     -1.148250    4.423723   -0.288555
  C     -2.007744    5.315717   -1.023812
  C     -0.650616    2.269193    0.557487
  C     -1.195929    0.953043    0.820396
  C     -0.450935    0.079052    1.695453
  C      0.829970    0.396983    2.036032
  N      1.322599    1.602808    1.623814
  C      0.625570    2.562346    0.941092
  C      1.783969   -0.441614    2.817210
  C     -1.064125   -1.215018    2.090874
  O     -2.381913   -1.108648    2.203998
  C     -3.105598   -2.322760    2.472842
  C      1.372755    3.837344    0.706311
  O     -0.453716   -2.247755    2.242307
  H      6.531411   -2.306216   -1.361953
  H     -2.760144   -2.766101    3.404884
  H     -5.444738   -0.891165   -1.258001
  H      0.022560   -2.063039   -0.142325
  H      6.540334   -1.911079    0.383250
  H      7.651695   -1.078210   -0.728288
  H     -3.267624   -4.577606   -1.349850
  H     -5.425339   -3.367736   -1.306151
  H     -2.962363   -3.023745    1.652068
  H     -4.147037   -2.026031    2.546189
  H     -0.170031    1.262431   -2.193241
  H     -1.557138    0.488996   -2.941659
  H      0.064948   -0.188428   -3.174799
  H      2.277240    1.816819    1.875370
  H     -1.134304    0.306060   -0.345552
  H     -2.277768    0.893241    0.878538
  H      2.418247    0.183973    3.447826
  H      2.422142   -0.993823    2.121289
  H      1.267088   -1.171917    3.430795
  H      2.422304    3.725719    0.980999
  H      0.941153    4.644995    1.297904
  H      1.311866    4.143332   -0.335684
  H     -1.521565    6.285568   -0.980732
  H     -2.990138    5.354239   -0.556558
  H     -2.107412    4.976115   -2.053421
  H     -1.154289   -3.337669   -1.344848
  H     -3.330906    0.363504   -1.232905
  H      1.589851    1.066565   -1.315189
  H      2.065821   -3.066162   -0.287192
  H      4.488059   -2.795922   -0.290846
  H      4.027188    1.320640   -1.363626

 Total Charge           Charge          ....    1
 Multiplicity           Mult            ....    1
 Number of Electrons    NEL             ....  240
 Basis Dimension        Dim             .... 2231

ORBITAL ENERGIES
----------------

  NO   OCC          E(Eh)            E(eV)
   0   2.0000     -20.711034      -563.5759
   1   2.0000     -20.707383      -563.4765
   2   2.0000     -20.675152      -562.5995
   3   2.0000     -20.650095      -561.9176
   4   2.0000     -20.650005      -561.9152
   5   2.0000     -15.759361      -428.8340
   6   2.0000     -15.711995      -427.5451
   7   2.0000     -11.493407      -312.7515
   8   2.0000     -11.493382      -312.7508
   9   2.0000     -11.453040      -311.6531
  10   2.0000     -11.448260      -311.5230
  11   2.0000     -11.448211      -311.5217
  12   2.0000     -11.412599      -310.5526
  13   2.0000     -11.397667      -310.1463
  14   2.0000     -11.386403      -309.8398
  15   2.0000     -11.380392      -309.6762
  16   2.0000     -11.374659      -309.5202
  17   2.0000     -11.368683      -309.3576
  18   2.0000     -11.366374      -309.2948
  19   2.0000     -11.365977      -309.2840
  20   2.0000     -11.359786      -309.1155
  21   2.0000     -11.355111      -308.9883
  22   2.0000     -11.349124      -308.8254
  23   2.0000     -11.346716      -308.7598
  24   2.0000     -11.344561      -308.7012
  25   2.0000     -11.343852      -308.6819
  26   2.0000     -11.342214      -308.6373
  27   2.0000     -11.336233      -308.4746
  28   2.0000     -11.335503      -308.4547
  29   2.0000     -11.334481      -308.4269
  30   2.0000     -11.333615      -308.4033
  31   2.0000     -11.332409      -308.3705
  32   2.0000     -11.331548      -308.3471
  33   2.0000      -1.574593       -42.8468
  34   2.0000      -1.573236       -42.8099
  35   2.0000      -1.505595       -40.9693
  36   2.0000      -1.470428       -40.0124
  37   2.0000      -1.469137       -39.9773
  38   2.0000      -1.450467       -39.4692
  39   2.0000      -1.398355       -38.0512
  40   2.0000      -1.272122       -34.6162
  41   2.0000      -1.252720       -34.0882
  42   2.0000      -1.248034       -33.9607
  43   2.0000      -1.241637       -33.7867
  44   2.0000      -1.177024       -32.0284
  45   2.0000      -1.132631       -30.8205
  46   2.0000      -1.126243       -30.6466
  47   2.0000      -1.123925       -30.5835
  48   2.0000      -1.122479       -30.5442
  49   2.0000      -1.110837       -30.2274
  50   2.0000      -1.104138       -30.0451
  51   2.0000      -1.082652       -29.4605
  52   2.0000      -1.058646       -28.8072
  53   2.0000      -1.038890       -28.2696
  54   2.0000      -1.028138       -27.9771
  55   2.0000      -0.983698       -26.7678
  56   2.0000      -0.977324       -26.5943
  57   2.0000      -0.954887       -25.9838
  58   2.0000      -0.945512       -25.7287
  59   2.0000      -0.935733       -25.4626
  60   2.0000      -0.917014       -24.9532
  61   2.0000      -0.890968       -24.2445
  62   2.0000      -0.884950       -24.0807
  63   2.0000      -0.863310       -23.4919
  64   2.0000      -0.846013       -23.0212
  65   2.0000      -0.840701       -22.8766
  66   2.0000      -0.824654       -22.4400
  67   2.0000      -0.809904       -22.0386
  68   2.0000      -0.805468       -21.9179
  69   2.0000      -0.799364       -21.7518
  70   2.0000      -0.793790       -21.6001
  71   2.0000      -0.786433       -21.3999
  72   2.0000      -0.780655       -21.2427
  73   2.0000      -0.778138       -21.1742
  74   2.0000      -0.775966       -21.1151
  75   2.0000      -0.768419       -20.9097
  76   2.0000      -0.760854       -20.7039
  77   2.0000      -0.753398       -20.5010
  78   2.0000      -0.745261       -20.2796
  79   2.0000      -0.742660       -20.2088
  80   2.0000      -0.730940       -19.8899
  81   2.0000      -0.724247       -19.7078
  82   2.0000      -0.715448       -19.4683
  83   2.0000      -0.707694       -19.2573
  84   2.0000      -0.705001       -19.1840
  85   2.0000      -0.699149       -19.0248
  86   2.0000      -0.697299       -18.9745
  87   2.0000      -0.690804       -18.7977
  88   2.0000      -0.689855       -18.7719
  89   2.0000      -0.679891       -18.5008
  90   2.0000      -0.676906       -18.4195
  91   2.0000      -0.674973       -18.3669
  92   2.0000      -0.668379       -18.1875
  93   2.0000      -0.666557       -18.1379
  94   2.0000      -0.662291       -18.0219
  95   2.0000      -0.660363       -17.9694
  96   2.0000      -0.656067       -17.8525
  97   2.0000      -0.649494       -17.6736
  98   2.0000      -0.647393       -17.6165
  99   2.0000      -0.646713       -17.5980
 100   2.0000      -0.631231       -17.1767
 101   2.0000      -0.628066       -17.0906
 102   2.0000      -0.623510       -16.9666
 103   2.0000      -0.617334       -16.7985
 104   2.0000      -0.605286       -16.4707
 105   2.0000      -0.596429       -16.2297
 106   2.0000      -0.596362       -16.2278
 107   2.0000      -0.594351       -16.1731
 108   2.0000      -0.579633       -15.7726
 109   2.0000      -0.570871       -15.5342
 110   2.0000      -0.569538       -15.4979
 111   2.0000      -0.566875       -15.4255
 112   2.0000      -0.560428       -15.2500
 113   2.0000      -0.539181       -14.6719
 114   2.0000      -0.491975       -13.3873
 115   2.0000      -0.468150       -12.7390
 116   2.0000      -0.453106       -12.3296
 117   2.0000      -0.440288       -11.9809
 118   2.0000      -0.424645       -11.5552
 119   2.0000      -0.388499       -10.5716
 120   0.0000      -0.070294        -1.9128
 121   0.0000      -0.055377        -1.5069
 122   0.0000      -0.045016        -1.2250
 123   0.0000      -0.042414        -1.1541
 124   0.0000      -0.040565        -1.1038

MULLIKEN ATOMIC CHARGES
-----------------------
   0 N :   -2.311964
   1 C :    1.484260
   2 C :    0.304902
   3 C :   -1.339255
   4 C :    1.312089
   5 C :   -0.465071
   6 C :   -0.587377
   7 O :   -0.992595
   8 C :   -0.981774
   9 C :    1.666402
  10 C :    2.009094
  11 C :   -0.726953
  12 C :   -0.735935
  13 C :    0.010558
  14 C :   -1.008022
  15 C :   -0.737097
  16 C :   -1.462444
  17 O :   -1.161144
  18 C :    0.470930
  19 O :   -0.481094
  20 C :   -1.114502
  21 C :    1.202199
  22 C :   -0.965087
  23 C :    0.611302
  24 C :    0.873188
  25 N :   -0.435225
  26 C :    1.550883
  27 C :   -1.228367
  28 C :    1.563427
  29 O :   -0.463865
  30 C :   -1.136554
  31 C :   -1.273723
  32 O :   -1.452133
  33 H :    0.384616
  34 H :    0.322360
  35 H :    0.390308
  36 H :    0.433504
  37 H :    0.383108
  38 H :    0.352129
  39 H :    0.431718
  40 H :    0.634812
  41 H :    0.553991
  42 H :    0.357532
  43 H :    0.424744
  44 H :    0.069297
  45 H :    0.274731
  46 H :   -0.124396
  47 H :   -1.055280
  48 H :    0.400521
  49 H :    0.255555
  50 H :    0.438564
  51 H :    0.325830
  52 H :    0.173822
  53 H :    0.360938
  54 H :    0.266034
  55 H :    0.349741
  56 H :    0.439836
  57 H :    0.425792
  58 H :   -0.030669
  59 H :    0.443432
  60 H :    0.797339
  61 H :   -0.071055
  62 H :    0.246965
  63 H :    0.345127
Sum of atomic charges:    1.0000000

LOEWDIN ATOMIC CHARGES
----------------------
   0 N :    0.609843
   1 C :   -0.181390
   2 C :    0.214896
   3 C :    0.233715
   4 C :   -0.383254
   5 C :    0.227161
   6 C :    0.231459
   7 O :    0.580131
   8 C :    0.359845
   9 C :   -0.132876
  10 C :   -0.067184
  11 C :    0.234373
  12 C :    0.218685
  13 C :    0.219448
  14 C :    0.234332
  15 C :    0.230896
  16 C :    0.666744
  17 O :    0.516150
  18 C :   -0.822106
  19 O :    0.582132
  20 C :    0.396530
  21 C :   -0.033772
  22 C :    0.209363
  23 C :   -0.040048
  24 C :   -0.126033
  25 N :    0.613832
  26 C :   -0.126188
  27 C :    0.651327
  28 C :   -0.820850
  29 O :    0.598315
  30 C :    0.398187
  31 C :    0.637632
  32 O :    0.518535
  33 H :   -0.167991
  34 H :   -0.168835
  35 H :   -0.168033
  36 H :   -0.338202
  37 H :   -0.170795
  38 H :   -0.173381
  39 H :   -0.168915
  40 H :   -0.168884
  41 H :   -0.185531
  42 H :   -0.169818
  43 H :   -0.177829
  44 H :   -0.148200
  45 H :   -0.125697
  46 H :   -0.249754
  47 H :   -0.352070
  48 H :   -0.147988
  49 H :   -0.145821
  50 H :   -0.153246
  51 H :   -0.189319
  52 H :   -0.158899
  53 H :   -0.145301
  54 H :   -0.165249
  55 H :   -0.175906
  56 H :   -0.170806
  57 H :   -0.173124
  58 H :   -0.169648
  59 H :   -0.189994
  60 H :   -0.217493
  61 H :   -0.154580
  62 H :   -0.190707
  63 H :   -0.167817

  Mayer bond orders larger than 0.100000
B(  0-N ,  1-C ) :   0.5955 B(  0-N ,  2-C ) :  -1.1327 B(  0-N ,  4-C ) :  -0.1789
B(  0-N ,  5-C ) :   0.1634 B(  0-N ,  6-C ) :   0.4871 B(  0-N ,  9-C ) :  -1.1015
B(  0-N , 10-C ) :   1.2004 B(  0-N , 11-C ) :  -0.2013 B(  0-N , 16-C ) :   0.1072
B(  0-N , 22-C ) :   0.2782 B(  0-N , 23-C ) :   0.5097 B(  0-N , 24-C ) :  -0.3129
B(  0-N , 32-O ) :   0.2354 B(  0-N , 36-H ) :   0.6784 B(  0-N , 44-H ) :   0.1414
B(  0-N , 45-H ) :  -0.1296 B(  0-N , 47-H ) :   1.1851 B(  0-N , 60-H ) :   0.2835
B(  0-N , 61-H ) :   0.1829 B(  0-N , 63-H ) :  -0.1350 B(  1-C ,  2-C ) :   0.1994
B(  1-C ,  3-C ) :   0.2657 B(  1-C ,  5-C ) :   1.2826 B(  1-C ,  6-C ) :  -0.4248
B(  1-C ,  7-O ) :   0.1492 B(  1-C ,  9-C ) :  -0.5047 B(  1-C , 16-C ) :  -0.1040
B(  1-C , 25-N ) :   0.1043 B(  1-C , 36-H ) :  -0.2748 B(  1-C , 47-H ) :  -0.2382
B(  1-C , 60-H ) :   0.3873 B(  1-C , 61-H ) :  -0.4523 B(  1-C , 62-H ) :  -0.1937
B(  1-C , 63-H ) :  -0.1902 B(  2-C ,  3-C ) :   0.7355 B(  2-C ,  4-C ) :   0.2442
B(  2-C ,  5-C ) :  -0.4893 B(  2-C ,  6-C ) :  -0.6105 B(  2-C ,  9-C ) :   0.4815
B(  2-C , 21-C ) :  -0.1209 B(  2-C , 24-C ) :  -0.2544 B(  2-C , 26-C ) :   0.1553
B(  2-C , 28-C ) :  -0.1255 B(  2-C , 36-H ) :   0.2144 B(  2-C , 47-H ) :   0.1917
B(  2-C , 61-H ) :   0.2405 B(  2-C , 63-H ) :   0.1999 B(  3-C ,  4-C ) :   0.5238
B(  3-C ,  5-C ) :   0.4774 B(  3-C ,  6-C ) :  -0.2537 B(  3-C ,  7-O ) :   0.1176
B(  3-C , 21-C ) :   0.1060 B(  3-C , 60-H ) :  -0.1538 B(  3-C , 61-H ) :  -0.1224
B(  3-C , 63-H ) :   0.8392 B(  4-C ,  5-C ) :   1.1625 B(  4-C ,  9-C ) :   0.1832
B(  4-C , 23-C ) :  -0.1127 B(  4-C , 60-H ) :  -0.1342 B(  5-C ,  6-C ) :   1.0745
B(  5-C ,  7-O ) :  -0.2590 B(  5-C ,  8-C ) :  -0.1127 B(  5-C ,  9-C ) :  -0.2366
B(  5-C , 24-C ) :   0.2016 B(  5-C , 36-H ) :  -0.1381 B(  5-C , 60-H ) :  -0.2895
B(  5-C , 61-H ) :  -0.2521 B(  5-C , 62-H ) :   0.9400 B(  6-C ,  9-C ) :   0.5037
B(  6-C , 11-C ) :   0.1438 B(  6-C , 23-C ) :  -0.1572 B(  6-C , 28-C ) :   0.1177
B(  6-C , 36-H ) :  -0.3852 B(  6-C , 47-H ) :   0.2620 B(  6-C , 60-H ) :  -0.1504
B(  6-C , 61-H ) :   1.5263 B(  7-O ,  8-C ) :   1.0872 B(  8-C , 33-H ) :   0.8853
B(  8-C , 37-H ) :   0.8620 B(  8-C , 38-H ) :   0.9557 B(  8-C , 62-H ) :  -0.2043
B(  9-C , 10-C ) :  -1.2542 B(  9-C , 11-C ) :   1.0240 B(  9-C , 12-C ) :   0.5122
B(  9-C , 15-C ) :   0.9797 B(  9-C , 16-C ) :  -0.3984 B(  9-C , 17-O ) :  -0.1961
B(  9-C , 18-C ) :   0.1578 B(  9-C , 21-C ) :   0.2185 B(  9-C , 22-C ) :   0.5344
B(  9-C , 23-C ) :  -0.2181 B(  9-C , 26-C ) :  -0.1307 B(  9-C , 40-H ) :   0.1135
B(  9-C , 44-H ) :  -0.4628 B(  9-C , 45-H ) :  -0.1200 B(  9-C , 48-H ) :   0.1885
B(  9-C , 58-H ) :  -0.4389 B(  9-C , 59-H ) :   0.2268 B(  9-C , 60-H ) :  -0.1041
B(  9-C , 63-H ) :   0.1184 B( 10-C , 13-C ) :  -0.1094 B( 10-C , 14-C ) :  -0.1392
B( 10-C , 15-C ) :   0.1856 B( 10-C , 16-C ) :  -0.1543 B( 10-C , 18-C ) :  -0.1780
B( 10-C , 21-C ) :   0.1961 B( 10-C , 22-C ) :  -0.6185 B( 10-C , 35-H ) :  -0.1201
B( 10-C , 39-H ) :  -0.1514 B( 10-C , 40-H ) :   0.2000 B( 10-C , 43-H ) :  -0.1079
B( 10-C , 47-H ) :   0.8840 B( 10-C , 48-H ) :  -0.2373 B( 10-C , 58-H ) :  -0.2410
B( 11-C , 12-C ) :   1.5106 B( 11-C , 13-C ) :   0.1042 B( 11-C , 15-C ) :  -0.6857
B( 11-C , 16-C ) :   0.3047 B( 11-C , 18-C ) :   0.1132 B( 11-C , 21-C ) :  -0.1130
B( 11-C , 22-C ) :   0.2561 B( 11-C , 36-H ) :  -0.2270 B( 11-C , 39-H ) :   0.1502
B( 11-C , 47-H ) :  -0.2534 B( 11-C , 58-H ) :   1.5906 B( 12-C , 13-C ) :   1.0403
B( 12-C , 14-C ) :   0.2449 B( 12-C , 39-H ) :   0.8633 B( 12-C , 40-H ) :  -0.2236
B( 12-C , 58-H ) :  -0.1042 B( 12-C , 59-H ) :  -0.2341 B( 13-C , 14-C ) :   1.0440
B( 13-C , 15-C ) :   0.1957 B( 13-C , 40-H ) :   0.5378 B( 13-C , 59-H ) :  -0.1294
B( 14-C , 15-C ) :   1.6957 B( 14-C , 35-H ) :   0.8635 B( 14-C , 40-H ) :  -0.1861
B( 14-C , 58-H ) :  -0.1447 B( 15-C , 17-O ) :  -0.1167 B( 15-C , 21-C ) :  -0.2042
B( 15-C , 22-C ) :   0.2096 B( 15-C , 23-C ) :  -0.1255 B( 15-C , 47-H ) :  -0.2504
B( 15-C , 58-H ) :   0.1786 B( 15-C , 59-H ) :   0.7006 B( 16-C , 43-H ) :   0.7826
B( 16-C , 44-H ) :   1.4160 B( 16-C , 45-H ) :   1.2053 B( 16-C , 47-H ) :   0.2111
B( 16-C , 58-H ) :   0.1959 B( 17-O , 18-C ) :   0.6978 B( 17-O , 19-O ) :  -0.1732
B( 17-O , 21-C ) :   0.2174 B( 17-O , 22-C ) :  -0.2183 B( 18-C , 19-O ) :   1.2318
B( 18-C , 20-C ) :  -0.1838 B( 18-C , 21-C ) :  -0.6163 B( 18-C , 22-C ) :   0.6565
B( 18-C , 23-C ) :  -0.6187 B( 18-C , 24-C ) :   0.3336 B( 18-C , 47-H ) :   0.1692
B( 19-O , 20-C ) :   0.9570 B( 19-O , 21-C ) :  -0.6722 B( 19-O , 22-C ) :   0.1150
B( 19-O , 26-C ) :   0.3167 B( 19-O , 47-H ) :   0.1043 B( 20-C , 55-H ) :   0.9360
B( 20-C , 56-H ) :   0.8422 B( 20-C , 57-H ) :   0.8456 B( 21-C , 23-C ) :   1.1367
B( 21-C , 24-C ) :  -0.1146 B( 21-C , 26-C ) :   0.7825 B( 21-C , 28-C ) :   0.2185
B( 21-C , 31-C ) :   0.1323 B( 21-C , 47-H ) :   0.2986 B( 21-C , 48-H ) :  -0.2701
B( 22-C , 23-C ) :   1.0614 B( 22-C , 24-C ) :   0.1175 B( 22-C , 25-N ) :  -0.1623
B( 22-C , 26-C ) :  -0.1551 B( 22-C , 28-C ) :  -0.4484 B( 22-C , 29-O ) :  -0.1020
B( 22-C , 30-C ) :  -0.1095 B( 22-C , 32-O ) :  -0.3096 B( 22-C , 35-H ) :   0.1362
B( 22-C , 47-H ) :   0.4820 B( 22-C , 48-H ) :   0.8771 B( 22-C , 58-H ) :  -0.1032
B( 23-C , 24-C ) :   0.5374 B( 23-C , 25-N ) :  -0.2313 B( 23-C , 26-C ) :  -0.1437
B( 23-C , 27-C ) :   0.1202 B( 23-C , 28-C ) :   0.4583 B( 23-C , 29-O ) :  -0.3212
B( 23-C , 32-O ) :   0.4927 B( 23-C , 35-H ) :  -0.1358 B( 23-C , 36-H ) :  -0.1234
B( 23-C , 39-H ) :  -0.1259 B( 23-C , 47-H ) :   1.1053 B( 23-C , 48-H ) :  -0.1362
B( 23-C , 50-H ) :   0.1172 B( 23-C , 58-H ) :   0.1381 B( 23-C , 61-H ) :   0.1404
B( 24-C , 25-N ) :   0.6303 B( 24-C , 26-C ) :  -0.2537 B( 24-C , 27-C ) :   0.7396
B( 24-C , 28-C ) :  -0.2765 B( 24-C , 31-C ) :  -0.1521 B( 24-C , 32-O ) :  -0.3114
B( 24-C , 36-H ) :   0.1088 B( 24-C , 46-H ) :  -0.1939 B( 24-C , 47-H ) :  -0.4159
B( 24-C , 50-H ) :  -0.1819 B( 24-C , 60-H ) :   0.2027 B( 25-N , 26-C ) :   0.5549
B( 25-N , 27-C ) :  -0.2456 B( 25-N , 46-H ) :   1.4933 B( 26-C , 28-C ) :   0.1200
B( 26-C , 46-H ) :  -0.1684 B( 26-C , 53-H ) :  -0.1662 B( 26-C , 54-H ) :  -0.1444
B( 27-C , 49-H ) :   1.0352 B( 27-C , 50-H ) :   0.8702 B( 27-C , 51-H ) :   0.9293
B( 28-C , 29-O ) :   0.9843 B( 28-C , 30-C ) :  -0.2730 B( 28-C , 32-O ) :   0.5058
B( 29-O , 30-C ) :   0.9630 B( 30-C , 32-O ) :   0.1025 B( 30-C , 34-H ) :   0.9885
B( 30-C , 41-H ) :   0.7052 B( 30-C , 42-H ) :   0.9235 B( 31-C , 52-H ) :   1.1534
B( 31-C , 53-H ) :   0.9369 B( 31-C , 54-H ) :   1.1395 B( 32-O , 36-H ) :  -0.1781
B( 36-H , 60-H ) :   0.1134 B( 47-H , 60-H ) :  -0.1534 B( 58-H , 59-H ) :   0.2259
B( 60-H , 61-H ) :   0.1938 B( 60-H , 62-H ) :   0.1130 B( 61-H , 63-H ) :  -0.1479

MP2 TOTAL ENERGY:    -1492.037450416 Eh
FINAL SINGLE POINT ENERGY     -1492.037450415811

DIPOLE MOMENT
-------------
                                X             Y             Z
Electronic contribution:     -4.94534      -0.39151       3.12187
Nuclear contribution   :      5.80151       1.32543      -2.50389
                        -----------------------------------------
Total Dipole Moment    :      0.85616       0.93392       0.61798
                        -----------------------------------------
Magnitude (a.u.)       :      1.40965
Magnitude (Debye)      :      3.58306

Rotational constants in cm-1:     0.005256     0.003740     0.002888
Rotational constants in MHz :   157.568914   112.108439    86.580492

                             ****ORCA TERMINATED NORMALLY****
TOTAL RUN TIME: 0 days 4 hours 56 minutes 33 seconds 390 msec
