                         Program Version 4.2.1 -  RELEASE  -
|  1> %pal
|  2>  nprocs 32
|  3> end
|  4> !RI-MP2 aug-cc-pVTZ aug-cc-pVTZ/C TightSCF
|  5> %maxcore 4500
|  6> *xyzfile 0 1  07_8R1.xyz
|  7>
|  8>
|  9>                          ****END OF INPUT****

CARTESIAN COORDINATES (ANGSTROEM)
---------------------------------
  H      4.530002    0.123466    0.945560
  N     -1.865028    1.769913    0.823917
  C     -2.171054    0.771575   -0.176059
  C     -2.373372   -0.620216    0.410727
  O     -2.276065   -0.908215    1.571100
  O     -2.711174   -1.526038   -0.531173
  C     -1.104204    0.760660   -1.288742
  H     -1.414814    0.060234   -2.064535
  H     -1.098702    1.760414   -1.724821
  C      0.275119    0.407245   -0.794845
  C      0.711785   -0.917315   -0.766667
  H      0.059265   -1.699350   -1.138379
  C      1.963417   -1.256606   -0.283863
  H      2.300766   -2.284982   -0.266226
  C      2.812088   -0.262047    0.184450
  C      2.402316    1.064073    0.159521
  H      3.065920    1.845768    0.515261
  C      1.143956    1.388638   -0.328236
  H      0.833691    2.427047   -0.348019
  O      4.035530   -0.645221    0.648770
  H     -3.122848    1.035018   -0.648569
  H     -2.845807   -2.371899   -0.081014
  H     -1.006749    1.527983    1.307860
  H     -2.592158    1.806651    1.528171

 Total Charge           Charge          ....    0
 Multiplicity           Mult            ....    1
 Number of Electrons    NEL             ....   96
 Basis Dimension        Dim             ....  851

ORBITAL ENERGIES
----------------

  NO   OCC          E(Eh)            E(eV)
   0   2.0000     -20.616240      -560.9964
   1   2.0000     -20.592338      -560.3460
   2   2.0000     -20.552341      -559.2576
   3   2.0000     -15.545938      -423.0265
   4   2.0000     -11.381760      -309.7134
   5   2.0000     -11.302974      -307.5695
   6   2.0000     -11.281027      -306.9723
   7   2.0000     -11.240836      -305.8787
   8   2.0000     -11.239921      -305.8538
   9   2.0000     -11.238650      -305.8192
  10   2.0000     -11.235581      -305.7357
  11   2.0000     -11.235351      -305.7294
  12   2.0000     -11.229683      -305.5752
  13   2.0000      -1.471843       -40.0509
  14   2.0000      -1.409086       -38.3432
  15   2.0000      -1.367609       -37.2145
  16   2.0000      -1.204096       -32.7651
  17   2.0000      -1.157696       -31.5025
  18   2.0000      -1.056509       -28.7491
  19   2.0000      -1.025117       -27.8949
  20   2.0000      -0.988848       -26.9079
  21   2.0000      -0.907190       -24.6859
  22   2.0000      -0.851647       -23.1745
  23   2.0000      -0.822070       -22.3697
  24   2.0000      -0.789484       -21.4830
  25   2.0000      -0.739470       -20.1220
  26   2.0000      -0.711127       -19.3508
  27   2.0000      -0.706548       -19.2261
  28   2.0000      -0.684696       -18.6315
  29   2.0000      -0.675702       -18.3868
  30   2.0000      -0.647760       -17.6265
  31   2.0000      -0.631063       -17.1721
  32   2.0000      -0.612465       -16.6660
  33   2.0000      -0.606955       -16.5161
  34   2.0000      -0.594300       -16.1717
  35   2.0000      -0.592372       -16.1193
  36   2.0000      -0.585329       -15.9276
  37   2.0000      -0.563690       -15.3388
  38   2.0000      -0.545891       -14.8544
  39   2.0000      -0.532683       -14.4951
  40   2.0000      -0.495129       -13.4732
  41   2.0000      -0.492103       -13.3908
  42   2.0000      -0.486769       -13.2457
  43   2.0000      -0.477761       -13.0005
  44   2.0000      -0.457231       -12.4419
  45   2.0000      -0.408399       -11.1131
  46   2.0000      -0.347188        -9.4475
  47   2.0000      -0.313601        -8.5335
  48   0.0000       0.025689         0.6990
  49   0.0000       0.028204         0.7675
  50   0.0000       0.033350         0.9075
  51   0.0000       0.040428         1.1001
  52   0.0000       0.043030         1.1709

MULLIKEN ATOMIC CHARGES
-----------------------
   0 H :    0.170149
   1 N :   -0.705443
   2 C :    0.512519
   3 C :    0.834039
   4 O :   -0.988172
   5 O :   -0.522661
   6 C :   -0.416077
   7 H :    0.165250
   8 H :    0.273606
   9 C :    1.412486
  10 C :   -0.876928
  11 H :    0.257924
  12 C :   -0.863990
  13 H :    0.547692
  14 C :    1.171495
  15 C :   -0.821415
  16 H :    0.431746
  17 C :   -0.812045
  18 H :    0.261301
  19 O :   -0.852119
  20 H :    0.409935
  21 H :    0.230742
  22 H :    0.148898
  23 H :    0.031067
Sum of atomic charges:    0.0000000

LOEWDIN ATOMIC CHARGES
----------------------
   0 H :   -0.481362
   1 N :    0.854291
   2 C :   -0.154432
   3 C :   -0.783224
   4 O :    0.468843
   5 O :    0.842912
   6 C :    0.284654
   7 H :   -0.157540
   8 H :   -0.143610
   9 C :   -0.118303
  10 C :    0.212109
  11 H :   -0.172916
  12 C :    0.223307
  13 H :   -0.178007
  14 C :   -0.379337
  15 C :    0.222066
  16 H :   -0.181005
  17 C :    0.207012
  18 H :   -0.166145
  19 O :    0.840603
  20 H :   -0.135512
  21 H :   -0.463373
  22 H :   -0.330874
  23 H :   -0.310158

  Mayer bond orders larger than 0.100000
B(  0-H , 19-O ) :   1.0575 B(  1-N ,  2-C ) :   0.3757 B(  1-N ,  3-C ) :   0.1092
B(  1-N ,  6-C ) :   0.1551 B(  1-N , 22-H ) :   0.9202 B(  1-N , 23-H ) :   1.0382
B(  2-C ,  3-C ) :   0.6476 B(  2-C ,  6-C ) :   0.9227 B(  2-C ,  9-C ) :   0.1359
B(  2-C , 20-H ) :   0.8957 B(  3-C ,  4-O ) :   1.0547 B(  3-C ,  5-O ) :   0.8618
B(  5-O , 21-H ) :   0.9616 B(  6-C ,  7-H ) :   1.1110 B(  6-C ,  8-H ) :   0.9675
B(  6-C ,  9-C ) :   0.4817 B(  6-C , 17-C ) :   0.2061 B(  9-C , 10-C ) :   0.3527
B(  9-C , 11-H ) :  -0.1447 B(  9-C , 12-C ) :   0.1078 B(  9-C , 14-C ) :   0.1422
B(  9-C , 15-C ) :   0.1702 B(  9-C , 17-C ) :   0.4178 B(  9-C , 18-H ) :  -0.1092
B( 10-C , 11-H ) :   1.1672 B( 10-C , 12-C ) :   1.4709 B( 10-C , 14-C ) :  -0.1747
B( 10-C , 17-C ) :  -0.2412 B( 10-C , 18-H ) :   0.1683 B( 12-C , 13-H ) :   0.5732
B( 12-C , 14-C ) :   0.9971 B( 12-C , 15-C ) :   0.3733 B( 14-C , 15-C ) :   0.9782
B( 14-C , 19-O ) :   0.3816 B( 15-C , 16-H ) :   0.7415 B( 15-C , 17-C ) :   1.3187
B( 17-C , 18-H ) :   1.1007

MP2 TOTAL ENERGY:     -628.910074978 Eh
FINAL SINGLE POINT ENERGY      -628.910074978280

DIPOLE MOMENT
-------------
                                X             Y             Z
Electronic contribution:      1.28014      -3.90368       1.54067
Nuclear contribution   :     -1.31087       4.17146      -1.93364
                        -----------------------------------------
Total Dipole Moment    :     -0.03072       0.26778      -0.39298
                        -----------------------------------------
Magnitude (a.u.)       :      0.47653
Magnitude (Debye)      :      1.21125

Rotational constants in cm-1:     0.050177     0.015877     0.014424
Rotational constants in MHz :  1504.264123   475.992860   432.415514

                             ****ORCA TERMINATED NORMALLY****
TOTAL RUN TIME: 0 days 0 hours 10 minutes 56 seconds 251 msec
