                         Program Version 4.2.1 -  RELEASE  -
|  1> %pal
|  2>  nprocs 32
|  3> end
|  4> !RI-MP2 aug-cc-pVTZ aug-cc-pVTZ/C TightSCF
|  5> %maxcore 4500
|  6> *xyzfile 0 1  07_10TS.xyz
|  7>
|  8>
|  9>                          ****END OF INPUT****

CARTESIAN COORDINATES (ANGSTROEM)
---------------------------------
  C     -1.985711   -1.472152    0.174262
  C     -1.786170   -0.099207    0.017253
  C     -0.510366    0.448635   -0.000653
  C      0.609319   -0.365234    0.136201
  C      0.428701   -1.735941    0.303532
  C     -0.852880   -2.263964    0.316000
  H     -0.378601    1.516222   -0.128711
  H     -0.977912   -3.332909    0.445354
  N      1.861172    0.278850    0.155281
  C      2.987378   -0.202150   -0.285063
  O      4.070824    0.482318   -0.230935
  N     -2.914748    0.716426   -0.123575
  C     -3.224165    1.861906   -0.276147
  O     -3.633310    2.943243   -0.423580
  H      3.753972    1.523094    0.244548
  O      3.075166   -1.418456   -0.821483
  H      3.988747   -1.537891   -1.112046
  O      2.965912    2.366509    0.689039
  H      2.179707    1.506541    0.571208
  H      3.118613    2.625692    1.601669
  C     -3.369700   -2.051271    0.189914
  H     -3.968396   -1.621311    0.996032
  H     -3.895981   -1.840020   -0.743695
  H     -3.334421   -3.132036    0.326919
  H      1.282120   -2.386951    0.420660

 Total Charge           Charge          ....    0
 Multiplicity           Mult            ....    1
 Number of Electrons    NEL             ....  110
 Basis Dimension        Dim             ....  920

ORBITAL ENERGIES
----------------

  NO   OCC          E(Eh)            E(eV)
   0   2.0000     -20.635333      -561.5160
   1   2.0000     -20.611598      -560.8701
   2   2.0000     -20.577256      -559.9356
   3   2.0000     -20.564552      -559.5899
   4   2.0000     -15.596254      -424.3956
   5   2.0000     -15.571921      -423.7335
   6   2.0000     -11.429379      -311.0092
   7   2.0000     -11.404554      -310.3337
   8   2.0000     -11.302324      -307.5519
   9   2.0000     -11.288223      -307.1682
  10   2.0000     -11.245722      -306.0117
  11   2.0000     -11.242167      -305.9149
  12   2.0000     -11.241684      -305.9018
  13   2.0000     -11.235097      -305.7225
  14   2.0000     -11.226641      -305.4924
  15   2.0000      -1.501543       -40.8591
  16   2.0000      -1.467028       -39.9199
  17   2.0000      -1.399206       -38.0743
  18   2.0000      -1.339498       -36.4496
  19   2.0000      -1.293780       -35.2055
  20   2.0000      -1.252271       -34.0760
  21   2.0000      -1.157752       -31.5040
  22   2.0000      -1.055683       -28.7266
  23   2.0000      -1.034944       -28.1623
  24   2.0000      -0.953519       -25.9466
  25   2.0000      -0.884651       -24.0726
  26   2.0000      -0.870578       -23.6896
  27   2.0000      -0.830846       -22.6085
  28   2.0000      -0.794764       -21.6266
  29   2.0000      -0.780932       -21.2503
  30   2.0000      -0.736006       -20.0277
  31   2.0000      -0.728179       -19.8148
  32   2.0000      -0.691705       -18.8222
  33   2.0000      -0.680911       -18.5285
  34   2.0000      -0.674114       -18.3436
  35   2.0000      -0.662101       -18.0167
  36   2.0000      -0.660288       -17.9673
  37   2.0000      -0.644806       -17.5461
  38   2.0000      -0.633655       -17.2426
  39   2.0000      -0.615491       -16.7484
  40   2.0000      -0.593449       -16.1486
  41   2.0000      -0.588165       -16.0048
  42   2.0000      -0.583288       -15.8721
  43   2.0000      -0.556887       -15.1537
  44   2.0000      -0.536023       -14.5859
  45   2.0000      -0.531328       -14.4582
  46   2.0000      -0.525650       -14.3037
  47   2.0000      -0.514186       -13.9917
  48   2.0000      -0.490374       -13.3438
  49   2.0000      -0.486191       -13.2299
  50   2.0000      -0.455867       -12.4048
  51   2.0000      -0.455116       -12.3843
  52   2.0000      -0.428885       -11.6705
  53   2.0000      -0.336516        -9.1571
  54   2.0000      -0.308846        -8.4041
  55   0.0000       0.023096         0.6285
  56   0.0000       0.029900         0.8136
  57   0.0000       0.032326         0.8796
  58   0.0000       0.038790         1.0555
  59   0.0000       0.047030         1.2798

MULLIKEN ATOMIC CHARGES
-----------------------
   0 C :    1.097221
   1 C :    0.969645
   2 C :   -0.730419
   3 C :    0.965750
   4 C :   -0.283046
   5 C :   -0.893394
   6 H :    0.474086
   7 H :    0.053990
   8 N :   -0.280500
   9 C :    0.072081
  10 O :   -0.605029
  11 N :   -0.267145
  12 C :   -0.471244
  13 O :   -0.569554
  14 H :    0.249405
  15 O :   -0.362317
  16 H :    0.202082
  17 O :   -0.454291
  18 H :    0.466383
  19 H :    0.117066
  20 C :   -0.969119
  21 H :    0.258227
  22 H :    0.262041
  23 H :    0.254537
  24 H :    0.443545
Sum of atomic charges:    0.0000000

LOEWDIN ATOMIC CHARGES
----------------------
   0 C :   -0.114649
   1 C :   -0.295010
   2 C :    0.234370
   3 C :   -0.241994
   4 C :    0.223027
   5 C :    0.220405
   6 H :   -0.170356
   7 H :   -0.173767
   8 N :    0.462745
   9 C :   -0.779333
  10 O :    0.744241
  11 N :    0.308009
  12 C :   -0.450254
  13 O :    0.385294
  14 H :   -0.741161
  15 O :    0.879027
  16 H :   -0.453651
  17 O :    1.124606
  18 H :   -0.611335
  19 H :   -0.409700
  20 C :    0.574864
  21 H :   -0.165757
  22 H :   -0.165271
  23 H :   -0.177454
  24 H :   -0.206897

  Mayer bond orders larger than 0.100000
B(  0-C ,  1-C ) :   1.2739 B(  0-C ,  2-C ) :  -0.1340 B(  0-C ,  3-C ) :   0.1615
B(  0-C ,  4-C ) :   0.2932 B(  0-C ,  5-C ) :   0.8224 B(  0-C , 11-N ) :  -0.1991
B(  0-C , 12-C ) :   0.1381 B(  0-C , 20-C ) :   0.1737 B(  0-C , 21-H ) :  -0.1431
B(  0-C , 22-H ) :  -0.1272 B(  1-C ,  2-C ) :   1.1903 B(  1-C ,  3-C ) :  -0.1679
B(  1-C ,  5-C ) :  -0.1904 B(  1-C ,  6-H ) :   0.1451 B(  1-C , 11-N ) :  -0.2865
B(  1-C , 12-C ) :  -0.7416 B(  1-C , 20-C ) :   0.3421 B(  2-C ,  3-C ) :   1.1158
B(  2-C ,  4-C ) :   0.1202 B(  2-C ,  6-H ) :   0.4395 B(  2-C ,  8-N ) :  -0.2830
B(  2-C , 11-N ) :  -0.2951 B(  2-C , 12-C ) :  -0.3351 B(  3-C ,  4-C ) :   0.8089
B(  3-C ,  5-C ) :  -0.3275 B(  3-C ,  8-N ) :   0.5226 B(  3-C ,  9-C ) :  -0.5407
B(  3-C , 15-O ) :   0.1895 B(  4-C ,  5-C ) :   1.0500 B(  4-C ,  7-H ) :  -0.1068
B(  4-C ,  8-N ) :  -0.3328 B(  4-C ,  9-C ) :  -0.2360 B(  4-C , 15-O ) :  -0.1308
B(  4-C , 24-H ) :   0.8368 B(  5-C ,  7-H ) :   1.5085 B(  5-C , 24-H ) :  -0.1065
B(  8-N ,  9-C ) :   1.7642 B(  8-N , 10-O ) :  -0.1338 B(  8-N , 18-H ) :   0.4704
B(  9-C , 10-O ) :   1.1389 B(  9-C , 15-O ) :   1.0431 B( 10-O , 14-H ) :   0.5589
B( 10-O , 15-O ) :  -0.1151 B( 11-N , 12-C ) :   2.5420 B( 11-N , 13-O ) :  -0.2517
B( 12-C , 13-O ) :   1.9380 B( 14-H , 17-O ) :   0.5124 B( 15-O , 16-H ) :   0.9797
B( 17-O , 18-H ) :   0.3846 B( 17-O , 19-H ) :   1.0579 B( 20-C , 21-H ) :   1.0420
B( 20-C , 22-H ) :   1.0306 B( 20-C , 23-H ) :   1.0311

MP2 TOTAL ENERGY:     -758.109529202 Eh
FINAL SINGLE POINT ENERGY      -758.109529202251

DIPOLE MOMENT
-------------
                                X             Y             Z
Electronic contribution:     -1.00848       5.27838      -2.10454
Nuclear contribution   :      1.83186      -6.49163       2.56501
                        -----------------------------------------
Total Dipole Moment    :      0.82338      -1.21325       0.46047
                        -----------------------------------------
Magnitude (a.u.)       :      1.53687
Magnitude (Debye)      :      3.90640

Rotational constants in cm-1:     0.029325     0.010990     0.008262
Rotational constants in MHz :   879.149936   329.484856   247.679570

                             ****ORCA TERMINATED NORMALLY****
TOTAL RUN TIME: 0 days 0 hours 12 minutes 21 seconds 24 msec
