                         Program Version 4.2.1 -  RELEASE  -
|  1> %pal
|  2>  nprocs 32
|  3> end
|  4> !RI-MP2 aug-cc-pVTZ aug-cc-pVTZ/C TightSCF
|  5> %maxcore 4500
|  6> *xyzfile 0 1  10_46TS.xyz
|  7>
|  8>
|  9>                          ****END OF INPUT****

CARTESIAN COORDINATES (ANGSTROEM)
---------------------------------
  C      0.026652   -2.396407    0.057016
  H     -0.008158   -3.377518    0.533356
  H      0.184947   -2.567838   -1.028576
  C      1.195562   -1.603886    0.594284
  C     -0.201458    0.432629    0.568515
  H     -0.578765    0.505625    1.592933
  H     -0.177157    1.433637    0.164263
  C     -1.214143   -0.382602   -0.240105
  H     -0.865368   -0.406740   -1.292780
  N     -1.241550   -1.737491    0.289287
  C      2.347186    0.524060    0.236949
  C      2.354108   -2.263847    0.955767
  H      2.903366   -1.846609    1.783596
  H      2.412526   -3.345252    0.870880
  C      3.433252   -0.117136   -0.394276
  H      3.802655    0.426810   -1.264018
  C      3.968223   -1.390595   -0.239430
  C      1.175906   -0.205069    0.556837
  C      4.627098   -2.070459   -1.413660
  H      4.455828   -3.148517   -1.377206
  H      4.233085   -1.705750   -2.363601
  H      5.711900   -1.919835   -1.406306
  H      4.413955   -1.652455    0.703865
  C     -2.587305    0.266417   -0.237601
  C     -2.361257   -2.516005   -0.201077
  H     -2.234974   -3.548408    0.131558
  H     -2.391317   -2.529498   -1.306450
  C     -3.648577   -1.936919    0.352035
  H     -3.670971   -2.099769    1.433802
  C     -3.739452   -0.463774    0.054832
  H     -4.512724   -2.453457   -0.073753
  C     -4.977895    0.175366    0.041878
  H     -5.867793   -0.401858    0.270273
  C     -2.713534    1.615022   -0.572287
  H     -1.833231    2.188761   -0.835823
  C     -5.089840    1.519306   -0.266976
  H     -6.061433    1.998455   -0.273099
  C     -3.947402    2.242047   -0.585626
  H     -4.018082    3.290924   -0.847297
  C      2.394541    2.075321    0.205154
  C      1.773094    2.646449   -1.081010
  H      0.718835    2.398961   -1.196670
  H      2.295689    2.260789   -1.959459
  H      1.862946    3.736214   -1.091390
  C      3.857864    2.559754    0.252231
  H      4.420765    2.291921   -0.641523
  H      4.380717    2.143681    1.115419
  H      3.877001    3.649153    0.334989
  C      1.738579    2.676231    1.461659
  H      0.666046    2.520413    1.525713
  H      1.913809    3.754845    1.480712
  H      2.189532    2.250335    2.360931

 Total Charge           Charge          ....    0
 Multiplicity           Mult            ....    1
 Number of Electrons    NEL             ....  168
 Basis Dimension        Dim             .... 1725

ORBITAL ENERGIES
----------------

  NO   OCC          E(Eh)            E(eV)
   0   2.0000     -15.543845      -422.9695
   1   2.0000     -11.257593      -306.3347
   2   2.0000     -11.247753      -306.0669
   3   2.0000     -11.246512      -306.0332
   4   2.0000     -11.240521      -305.8701
   5   2.0000     -11.240159      -305.8603
   6   2.0000     -11.238312      -305.8100
   7   2.0000     -11.233220      -305.6715
   8   2.0000     -11.231993      -305.6381
   9   2.0000     -11.227395      -305.5129
  10   2.0000     -11.226887      -305.4991
  11   2.0000     -11.226751      -305.4954
  12   2.0000     -11.225600      -305.4641
  13   2.0000     -11.224652      -305.4383
  14   2.0000     -11.224455      -305.4329
  15   2.0000     -11.221774      -305.3600
  16   2.0000     -11.219293      -305.2925
  17   2.0000     -11.217927      -305.2553
  18   2.0000     -11.216619      -305.2197
  19   2.0000     -11.215270      -305.1830
  20   2.0000     -11.212728      -305.1139
  21   2.0000     -11.206632      -304.9480
  22   2.0000     -11.206239      -304.9373
  23   2.0000      -1.251413       -34.0527
  24   2.0000      -1.154716       -31.4214
  25   2.0000      -1.141022       -31.0488
  26   2.0000      -1.090857       -29.6837
  27   2.0000      -1.069497       -29.1025
  28   2.0000      -1.053934       -28.6790
  29   2.0000      -1.046272       -28.4705
  30   2.0000      -1.002705       -27.2850
  31   2.0000      -0.991998       -26.9936
  32   2.0000      -0.965819       -26.2813
  33   2.0000      -0.933553       -25.4033
  34   2.0000      -0.928242       -25.2588
  35   2.0000      -0.920125       -25.0379
  36   2.0000      -0.887738       -24.1566
  37   2.0000      -0.856801       -23.3147
  38   2.0000      -0.836839       -22.7716
  39   2.0000      -0.826471       -22.4894
  40   2.0000      -0.805160       -21.9095
  41   2.0000      -0.769071       -20.9275
  42   2.0000      -0.750920       -20.4336
  43   2.0000      -0.737439       -20.0667
  44   2.0000      -0.692173       -18.8350
  45   2.0000      -0.665437       -18.1075
  46   2.0000      -0.661664       -18.0048
  47   2.0000      -0.654595       -17.8124
  48   2.0000      -0.638994       -17.3879
  49   2.0000      -0.635812       -17.3013
  50   2.0000      -0.620357       -16.8808
  51   2.0000      -0.610817       -16.6212
  52   2.0000      -0.606401       -16.5010
  53   2.0000      -0.599559       -16.3148
  54   2.0000      -0.592867       -16.1327
  55   2.0000      -0.587169       -15.9777
  56   2.0000      -0.578990       -15.7551
  57   2.0000      -0.570395       -15.5212
  58   2.0000      -0.563424       -15.3315
  59   2.0000      -0.559828       -15.2337
  60   2.0000      -0.553177       -15.0527
  61   2.0000      -0.544517       -14.8171
  62   2.0000      -0.540216       -14.7000
  63   2.0000      -0.533098       -14.5063
  64   2.0000      -0.530497       -14.4356
  65   2.0000      -0.523745       -14.2518
  66   2.0000      -0.517222       -14.0743
  67   2.0000      -0.514511       -14.0005
  68   2.0000      -0.509537       -13.8652
  69   2.0000      -0.500439       -13.6176
  70   2.0000      -0.496793       -13.5184
  71   2.0000      -0.487267       -13.2592
  72   2.0000      -0.477259       -12.9869
  73   2.0000      -0.471587       -12.8325
  74   2.0000      -0.461717       -12.5640
  75   2.0000      -0.455552       -12.3962
  76   2.0000      -0.442968       -12.0538
  77   2.0000      -0.437633       -11.9086
  78   2.0000      -0.415585       -11.3086
  79   2.0000      -0.358709        -9.7610
  80   2.0000      -0.326333        -8.8800
  81   2.0000      -0.319209        -8.6861
  82   2.0000      -0.295319        -8.0360
  83   2.0000      -0.274864        -7.4794
  84   0.0000       0.023920         0.6509
  85   0.0000       0.027944         0.7604
  86   0.0000       0.028520         0.7761
  87   0.0000       0.032475         0.8837
  88   0.0000       0.036012         0.9799

MULLIKEN ATOMIC CHARGES
-----------------------
   0 C :   -0.515314
   1 H :    0.350004
   2 H :    0.209829
   3 C :    0.642644
   4 C :   -1.134609
   5 H :    0.186697
   6 H :    0.186713
   7 C :    0.374062
   8 H :    0.222795
   9 N :   -0.520032
  10 C :    1.023754
  11 C :   -1.369621
  12 H :    0.225986
  13 H :    0.457762
  14 C :    0.074913
  15 H :   -0.397774
  16 C :   -0.268630
  17 C :    0.479280
  18 C :   -0.946274
  19 H :    0.247259
  20 H :    0.289766
  21 H :    0.287988
  22 H :    0.309546
  23 C :    1.276975
  24 C :   -0.788146
  25 H :    0.347188
  26 H :    0.211876
  27 C :   -0.558885
  28 H :    0.179111
  29 C :    1.182060
  30 H :    0.223346
  31 C :   -1.071404
  32 H :    0.015597
  33 C :   -1.132561
  34 H :    0.451965
  35 C :   -0.409538
  36 H :    0.662377
  37 C :   -0.879187
  38 H :    0.413649
  39 C :    1.734466
  40 C :   -1.563017
  41 H :    0.599057
  42 H :    0.187667
  43 H :    0.158703
  44 C :   -1.486407
  45 H :    0.282477
  46 H :    0.293105
  47 H :    0.146462
  48 C :   -1.633797
  49 H :    0.406956
  50 H :    0.087828
  51 H :    0.245335
Sum of atomic charges:   -0.0000000

LOEWDIN ATOMIC CHARGES
----------------------
   0 C :    0.169207
   1 H :   -0.149243
   2 H :   -0.112022
   3 C :   -0.090702
   4 C :    0.309581
   5 H :   -0.109049
   6 H :   -0.268947
   7 C :   -0.100919
   8 H :   -0.101023
   9 N :    0.313023
  10 C :   -0.000525
  11 C :    0.489115
  12 H :   -0.207197
  13 H :   -0.162251
  14 C :    0.206055
  15 H :   -0.193524
  16 C :    0.185083
  17 C :   -0.011828
  18 C :    0.584209
  19 H :   -0.174301
  20 H :   -0.175999
  21 H :   -0.167010
  22 H :   -0.219761
  23 C :   -0.030086
  24 C :    0.167955
  25 H :   -0.138041
  26 H :   -0.113619
  27 C :    0.300414
  28 H :   -0.131559
  29 C :   -0.066691
  30 H :   -0.143221
  31 C :    0.222023
  32 H :   -0.172813
  33 C :    0.231375
  34 H :   -0.185213
  35 C :    0.198734
  36 H :   -0.183142
  37 C :    0.206487
  38 H :   -0.182565
  39 C :   -0.313769
  40 C :    0.610264
  41 H :   -0.185569
  42 H :   -0.151047
  43 H :   -0.148439
  44 C :    0.572170
  45 H :   -0.176430
  46 H :   -0.146792
  47 H :   -0.158707
  48 C :    0.601029
  49 H :   -0.198283
  50 H :   -0.154920
  51 H :   -0.141513

  Mayer bond orders larger than 0.100000
B(  0-C ,  1-H ) :   1.0013 B(  0-C ,  2-H ) :   1.1670 B(  0-C ,  3-C ) :   0.2701
B(  0-C ,  9-N ) :   0.8626 B(  0-C , 10-C ) :  -0.2474 B(  0-C , 11-C ) :  -0.1128
B(  0-C , 17-C ) :   0.4289 B(  1-H ,  9-N ) :  -0.1253 B(  1-H , 17-C ) :   0.1297
B(  2-H ,  9-N ) :  -0.1336 B(  3-C ,  4-C ) :   0.1628 B(  3-C ,  6-H ) :  -0.1340
B(  3-C , 10-C ) :   1.0076 B(  3-C , 11-C ) :   0.9429 B(  3-C , 12-H ) :  -0.1225
B(  3-C , 14-C ) :   0.4920 B(  3-C , 16-C ) :  -0.2002 B(  3-C , 17-C ) :   0.8905
B(  3-C , 22-H ) :  -0.2368 B(  3-C , 33-C ) :   0.1024 B(  3-C , 39-C ) :  -0.1786
B(  4-C ,  5-H ) :   1.0121 B(  4-C ,  6-H ) :   1.1643 B(  4-C ,  7-C ) :   0.8981
B(  4-C ,  9-N ) :   0.4818 B(  4-C , 14-C ) :  -0.1040 B(  4-C , 17-C ) :   0.5723
B(  4-C , 23-C ) :   0.3873 B(  4-C , 29-C ) :  -0.1919 B(  4-C , 33-C ) :   0.1361
B(  4-C , 39-C ) :   0.2968 B(  5-H ,  9-N ) :  -0.1087 B(  6-H , 10-C ) :   0.3489
B(  6-H , 33-C ) :  -0.1552 B(  6-H , 39-C ) :   0.1446 B(  7-C ,  8-H ) :   0.9437
B(  7-C ,  9-N ) :   0.3947 B(  7-C , 17-C ) :   0.1665 B(  7-C , 23-C ) :   0.8869
B(  7-C , 27-C ) :  -0.1810 B(  7-C , 29-C ) :   0.5163 B(  7-C , 33-C ) :   0.7206
B(  7-C , 34-H ) :  -0.1168 B(  8-H ,  9-N ) :  -0.1739 B(  9-N , 17-C ) :  -0.3055
B(  9-N , 23-C ) :  -0.2353 B(  9-N , 24-C ) :   1.1003 B(  9-N , 27-C ) :  -0.1186
B( 10-C , 11-C ) :  -0.1194 B( 10-C , 14-C ) :   0.4183 B( 10-C , 15-H ) :  -0.7893
B( 10-C , 16-C ) :   0.4080 B( 10-C , 17-C ) :   1.0897 B( 10-C , 39-C ) :   1.1495
B( 10-C , 44-C ) :   0.1289 B( 10-C , 48-C ) :   0.1006 B( 11-C , 12-H ) :   1.1899
B( 11-C , 13-H ) :   0.7541 B( 11-C , 16-C ) :   0.6360 B( 11-C , 17-C ) :   0.1446
B( 11-C , 22-H ) :   0.2886 B( 13-H , 17-C ) :  -0.1626 B( 14-C , 15-H ) :   1.8206
B( 14-C , 16-C ) :   0.6510 B( 14-C , 17-C ) :   0.1181 B( 14-C , 18-C ) :   0.2548
B( 14-C , 39-C ) :   0.2837 B( 15-H , 17-C ) :   0.2339 B( 15-H , 39-C ) :   0.1251
B( 16-C , 18-C ) :   0.3939 B( 16-C , 22-H ) :   0.9576 B( 17-C , 44-C ) :  -0.1135
B( 17-C , 48-C ) :  -0.2429 B( 18-C , 19-H ) :   1.0265 B( 18-C , 20-H ) :   0.9904
B( 18-C , 21-H ) :   1.0156 B( 23-C , 27-C ) :   0.2824 B( 23-C , 29-C ) :   0.7850
B( 23-C , 31-C ) :   0.6416 B( 23-C , 32-H ) :   0.1405 B( 23-C , 33-C ) :  -0.4852
B( 23-C , 35-C ) :  -0.1639 B( 23-C , 37-C ) :  -0.3093 B( 24-C , 25-H ) :   0.8883
B( 24-C , 26-H ) :   1.0722 B( 24-C , 27-C ) :   1.0518 B( 24-C , 29-C ) :   0.1167
B( 24-C , 31-C ) :  -0.1057 B( 27-C , 28-H ) :   1.1533 B( 27-C , 30-H ) :   1.1130
B( 27-C , 31-C ) :   0.1430 B( 27-C , 33-C ) :  -0.1194 B( 28-H , 29-C ) :  -0.1315
B( 29-C , 31-C ) :   0.3803 B( 29-C , 32-H ) :  -0.1038 B( 29-C , 33-C ) :  -0.4466
B( 29-C , 35-C ) :   0.3139 B( 31-C , 32-H ) :   1.5902 B( 31-C , 35-C ) :   0.9193
B( 32-H , 35-C ) :  -0.1558 B( 33-C , 34-H ) :   0.9405 B( 33-C , 35-C ) :   0.3171
B( 33-C , 37-C ) :   1.3251 B( 35-C , 36-H ) :   0.4260 B( 35-C , 37-C ) :   1.0103
B( 35-C , 38-H ) :  -0.1145 B( 37-C , 38-H ) :   0.7885 B( 39-C , 40-C ) :   0.3075
B( 39-C , 42-H ) :  -0.1037 B( 39-C , 44-C ) :  -0.2454 B( 39-C , 45-H ) :  -0.1515
B( 39-C , 47-H ) :  -0.2383 B( 39-C , 50-H ) :  -0.1594 B( 40-C , 41-H ) :   0.6306
B( 40-C , 42-H ) :   1.2311 B( 40-C , 43-H ) :   1.2408 B( 40-C , 44-C ) :   0.1519
B( 44-C , 45-H ) :   1.1250 B( 44-C , 46-H ) :   1.0613 B( 44-C , 47-H ) :   1.2613
B( 44-C , 48-C ) :   0.2918 B( 48-C , 49-H ) :   0.9559 B( 48-C , 50-H ) :   1.3233
B( 48-C , 51-H ) :   1.1424

MP2 TOTAL ENERGY:     -908.545839887 Eh
FINAL SINGLE POINT ENERGY      -908.545839887466

DIPOLE MOMENT
-------------
                                X             Y             Z
Electronic contribution:    -18.42457      -4.22565       2.41220
Nuclear contribution   :     18.69238       3.93709      -2.72332
                        -----------------------------------------
Total Dipole Moment    :      0.26781      -0.28857      -0.31112
                        -----------------------------------------
Magnitude (a.u.)       :      0.50178
Magnitude (Debye)      :      1.27543

Rotational constants in cm-1:     0.014541     0.005707     0.004420
Rotational constants in MHz :   435.923298   171.104368   132.510611

                             ****ORCA TERMINATED NORMALLY****
TOTAL RUN TIME: 0 days 1 hours 58 minutes 56 seconds 66 msec
