                         Program Version 4.2.1 -  RELEASE  -
|  1> %pal
|  2>  nprocs 32
|  3> end
|  4> !RI-MP2 aug-cc-pVTZ aug-cc-pVTZ/C TightSCF
|  5> %maxcore 4500
|  6> *xyzfile -1 1  08_11TS.xyz
|  7>
|  8>
|  9>                          ****END OF INPUT****

CARTESIAN COORDINATES (ANGSTROEM)
---------------------------------
  O     -0.449628   -1.501434   -1.351727
  C     -2.245193   -1.329613   -1.281172
  H     -2.297164   -0.278925   -1.489639
  H     -2.450135   -2.013999   -2.083825
  H     -2.384092   -1.689119   -0.278821
  P      0.311731   -0.642631   -0.346310
  O      0.031924    0.847407   -0.362180
  O      0.115780   -1.182519    1.146909
  O      1.861784   -0.934361   -0.627455
  C      2.848307   -0.289981    0.173890
  C      3.643723    0.763154   -0.604131
  O      4.944338    0.753955   -0.003451
  C      5.092729   -0.347809    0.902278
  C      3.922220   -1.271202    0.602370
  H      4.150363   -1.927269   -0.242239
  H      3.620437   -1.884263    1.451574
  H      2.374521    0.165089    1.048428
  S     -4.818304   -0.973992   -1.056276
  C     -4.951467   -0.648410    0.739142
  C     -4.420036    0.730481    1.188127
  H     -4.425258   -1.412701    1.313286
  H     -6.006022   -0.689980    1.019434
  N     -5.084232    1.789892    0.457870
  C     -2.901813    0.715481    1.107041
  H     -4.637487    0.824908    2.259900
  O     -2.243096   -0.088368    1.756616
  O     -2.364339    1.604758    0.305827
  H     -1.390661    1.406617    0.144014
  H     -0.695890   -0.781954    1.544716
  H     -5.181274    1.470854   -0.506345
  H     -4.515298    2.627090    0.440044
  C      3.106731    2.188907   -0.561216
  H      3.713395    0.443337   -1.649902
  O      2.020155    2.402064   -1.422325
  H      3.912231    2.851855   -0.884095
  H      2.863128    2.447915    0.479405
  H      1.238320    1.921943   -1.085330
  C      6.463710   -0.960958    0.721009
  H      5.003498    0.042701    1.925295
  H      6.611465   -1.784561    1.424654
  H      7.240856   -0.214326    0.893841
  H      6.572792   -1.343418   -0.296157

 Total Charge           Charge          ....   -1
 Multiplicity           Mult            ....    1
 Number of Electrons    NEL             ....  184
 Basis Dimension        Dim             .... 1457

ORBITAL ENERGIES
----------------

  NO   OCC          E(Eh)            E(eV)
   0   2.0000     -91.731998     -2496.1546
   1   2.0000     -79.988893     -2176.6084
   2   2.0000     -20.492064      -557.6174
   3   2.0000     -20.487692      -557.4984
   4   2.0000     -20.477414      -557.2188
   5   2.0000     -20.469267      -556.9971
   6   2.0000     -20.441376      -556.2381
   7   2.0000     -20.439698      -556.1925
   8   2.0000     -20.435852      -556.0878
   9   2.0000     -20.416908      -555.5723
  10   2.0000     -15.421698      -419.6457
  11   2.0000     -11.276956      -306.8616
  12   2.0000     -11.213295      -305.1293
  13   2.0000     -11.211776      -305.0879
  14   2.0000     -11.202467      -304.8346
  15   2.0000     -11.192760      -304.5705
  16   2.0000     -11.179214      -304.2019
  17   2.0000     -11.155440      -303.5550
  18   2.0000     -11.153442      -303.5006
  19   2.0000     -11.151257      -303.4411
  20   2.0000     -11.118789      -302.5576
  21   2.0000      -8.733455      -237.6494
  22   2.0000      -7.504988      -204.2211
  23   2.0000      -6.414988      -174.5607
  24   2.0000      -6.413455      -174.5190
  25   2.0000      -6.413324      -174.5154
  26   2.0000      -5.403827      -147.0456
  27   2.0000      -5.402901      -147.0204
  28   2.0000      -5.402328      -147.0048
  29   2.0000      -1.357767       -36.9467
  30   2.0000      -1.338031       -36.4097
  31   2.0000      -1.303202       -35.4619
  32   2.0000      -1.270277       -34.5660
  33   2.0000      -1.252091       -34.0711
  34   2.0000      -1.249683       -34.0056
  35   2.0000      -1.222066       -33.2541
  36   2.0000      -1.190914       -32.4064
  37   2.0000      -1.077522       -29.3209
  38   2.0000      -0.995076       -27.0774
  39   2.0000      -0.968890       -26.3648
  40   2.0000      -0.898355       -24.4455
  41   2.0000      -0.882629       -24.0176
  42   2.0000      -0.851434       -23.1687
  43   2.0000      -0.803026       -21.8514
  44   2.0000      -0.799447       -21.7540
  45   2.0000      -0.737829       -20.0774
  46   2.0000      -0.724875       -19.7248
  47   2.0000      -0.710765       -19.3409
  48   2.0000      -0.697987       -18.9932
  49   2.0000      -0.640747       -17.4356
  50   2.0000      -0.634221       -17.2580
  51   2.0000      -0.624991       -17.0069
  52   2.0000      -0.604730       -16.4556
  53   2.0000      -0.592151       -16.1133
  54   2.0000      -0.582534       -15.8515
  55   2.0000      -0.581014       -15.8102
  56   2.0000      -0.572339       -15.5741
  57   2.0000      -0.559139       -15.2149
  58   2.0000      -0.548812       -14.9339
  59   2.0000      -0.539792       -14.6885
  60   2.0000      -0.527524       -14.3547
  61   2.0000      -0.516601       -14.0574
  62   2.0000      -0.508958       -13.8494
  63   2.0000      -0.504676       -13.7329
  64   2.0000      -0.497801       -13.5458
  65   2.0000      -0.489830       -13.3289
  66   2.0000      -0.482965       -13.1421
  67   2.0000      -0.481141       -13.0925
  68   2.0000      -0.469751       -12.7826
  69   2.0000      -0.467141       -12.7115
  70   2.0000      -0.461360       -12.5542
  71   2.0000      -0.450164       -12.2496
  72   2.0000      -0.447118       -12.1667
  73   2.0000      -0.441154       -12.0044
  74   2.0000      -0.435485       -11.8501
  75   2.0000      -0.426826       -11.6145
  76   2.0000      -0.407019       -11.0756
  77   2.0000      -0.403979       -10.9928
  78   2.0000      -0.401248       -10.9185
  79   2.0000      -0.394893       -10.7456
  80   2.0000      -0.387224       -10.5369
  81   2.0000      -0.378423       -10.2974
  82   2.0000      -0.365551        -9.9471
  83   2.0000      -0.363409        -9.8889
  84   2.0000      -0.356451        -9.6995
  85   2.0000      -0.354633        -9.6500
  86   2.0000      -0.345036        -9.3889
  87   2.0000      -0.322197        -8.7674
  88   2.0000      -0.299287        -8.1440
  89   2.0000      -0.278479        -7.5778
  90   2.0000      -0.164362        -4.4725
  91   2.0000      -0.161472        -4.3939
  92   0.0000       0.078808         2.1445
  93   0.0000       0.092234         2.5098
  94   0.0000       0.092805         2.5253
  95   0.0000       0.103505         2.8165
  96   0.0000       0.108153         2.9430

MULLIKEN ATOMIC CHARGES
-----------------------
   0 O :   -1.025223
   1 C :   -0.866134
   2 H :    0.447082
   3 H :    0.454532
   4 H :    0.387396
   5 P :    2.101459
   6 O :   -0.995938
   7 O :   -0.757825
   8 O :   -0.884658
   9 C :    0.803753
  10 C :    0.050794
  11 O :   -0.916789
  12 C :    0.446068
  13 C :   -0.920408
  14 H :    0.200947
  15 H :    0.318107
  16 H :    0.382446
  17 S :   -0.884845
  18 C :   -0.363565
  19 C :    0.687333
  20 H :    0.188583
  21 H :    0.266444
  22 N :   -0.831485
  23 C :    0.854750
  24 H :    0.344051
  25 O :   -1.036099
  26 O :   -0.713290
  27 H :    0.440006
  28 H :    0.314234
  29 H :    0.168349
  30 H :    0.074136
  31 C :   -0.155417
  32 H :    0.304163
  33 O :   -0.820810
  34 H :    0.292049
  35 H :    0.228651
  36 H :    0.387215
  37 C :   -1.145992
  38 H :    0.361093
  39 H :    0.277809
  40 H :    0.265270
  41 H :    0.271757
Sum of atomic charges:   -1.0000000

LOEWDIN ATOMIC CHARGES
----------------------
   0 O :    0.217663
   1 C :    0.440122
   2 H :   -0.280969
   3 H :   -0.230299
   4 H :   -0.274717
   5 P :   -0.261450
   6 O :    0.300964
   7 O :    0.651738
   8 O :    0.414647
   9 C :   -0.313773
  10 C :   -0.234692
  11 O :    0.606046
  12 C :   -0.277357
  13 C :    0.309059
  14 H :   -0.137383
  15 H :   -0.126412
  16 H :   -0.152675
  17 S :    0.775146
  18 C :   -0.258521
  19 C :   -0.253111
  20 H :   -0.259336
  21 H :   -0.250844
  22 N :    0.816450
  23 C :   -0.771125
  24 H :   -0.159093
  25 O :    0.557865
  26 O :    0.864127
  27 H :   -0.751314
  28 H :   -0.800818
  29 H :   -0.430035
  30 H :   -0.354410
  31 C :    0.027122
  32 H :   -0.133369
  33 O :    0.828958
  34 H :   -0.169837
  35 H :   -0.150878
  36 H :   -0.730020
  37 C :    0.587499
  38 H :   -0.130596
  39 H :   -0.166528
  40 H :   -0.170225
  41 H :   -0.167621

  Mayer bond orders larger than 0.100000
B(  0-O ,  1-C ) :   0.1604 B(  0-O ,  2-H ) :   0.1065 B(  0-O ,  4-H ) :   0.1264
B(  0-O ,  5-P ) :   0.9154 B(  1-C ,  2-H ) :   0.7735 B(  1-C ,  3-H ) :   0.8280
B(  1-C ,  4-H ) :   0.8022 B(  1-C , 17-S ) :   0.3579 B(  5-P ,  6-O ) :   1.1905
B(  5-P ,  7-O ) :   0.8152 B(  5-P ,  8-O ) :   0.8203 B(  6-O ,  8-O ) :  -0.1282
B(  6-O , 16-H ) :   0.1191 B(  6-O , 26-O ) :  -0.2194 B(  6-O , 27-H ) :   0.2381
B(  7-O ,  8-O ) :  -0.1224 B(  7-O , 25-O ) :  -0.1287 B(  7-O , 28-H ) :   0.7466
B(  8-O ,  9-C ) :   0.1137 B(  8-O , 10-C ) :   0.1098 B(  8-O , 13-C ) :   0.1225
B(  8-O , 16-H ) :  -0.1369 B(  9-C , 10-C ) :   0.8408 B(  9-C , 11-O ) :   0.1033
B(  9-C , 13-C ) :   0.9424 B(  9-C , 16-H ) :   0.8548 B( 10-C , 11-O ) :   0.5511
B( 10-C , 13-C ) :   0.1900 B( 10-C , 31-C ) :   0.8406 B( 10-C , 32-H ) :   0.9531
B( 11-O , 12-C ) :   0.6279 B( 11-O , 13-C ) :   0.1074 B( 12-C , 13-C ) :   0.9790
B( 12-C , 37-C ) :   0.6729 B( 12-C , 38-H ) :   0.8947 B( 13-C , 14-H ) :   1.0080
B( 13-C , 15-H ) :   0.9430 B( 17-S , 18-C ) :   0.9340 B( 17-S , 19-C ) :   0.2165
B( 18-C , 19-C ) :   0.9422 B( 18-C , 20-H ) :   0.9806 B( 18-C , 21-H ) :   0.9248
B( 18-C , 22-N ) :   0.1029 B( 19-C , 22-N ) :   0.2955 B( 19-C , 23-C ) :   0.6052
B( 19-C , 24-H ) :   0.9066 B( 19-C , 25-O ) :  -0.1442 B( 22-N , 29-H ) :   0.9173
B( 22-N , 30-H ) :   1.0406 B( 23-C , 25-O ) :   1.1412 B( 23-C , 26-O ) :   0.9323
B( 25-O , 26-O ) :   0.1640 B( 25-O , 28-H ) :   0.1094 B( 26-O , 27-H ) :   0.4949
B( 31-C , 33-O ) :   0.6802 B( 31-C , 34-H ) :   0.9952 B( 31-C , 35-H ) :   1.0061
B( 33-O , 36-H ) :   0.7107 B( 37-C , 39-H ) :   0.9852 B( 37-C , 40-H ) :   1.0166
B( 37-C , 41-H ) :   1.0003

MP2 TOTAL ENERGY:    -1787.364488004 Eh
FINAL SINGLE POINT ENERGY     -1787.364488003862

DIPOLE MOMENT
-------------
                                X             Y             Z
Electronic contribution:     -8.44553      -1.00294      -3.95909
Nuclear contribution   :     13.10141       0.85780       5.74072
                        -----------------------------------------
Total Dipole Moment    :      4.65587      -0.14513       1.78163
                        -----------------------------------------
Magnitude (a.u.)       :      4.98722
Magnitude (Debye)      :     12.67652

Rotational constants in cm-1:     0.020889     0.003709     0.003552
Rotational constants in MHz :   626.225421   111.184293   106.492498

                             ****ORCA TERMINATED NORMALLY****
TOTAL RUN TIME: 0 days 0 hours 52 minutes 4 seconds 781 msec
