                         Program Version 4.2.1 -  RELEASE  -
|  1> %pal
|  2>  nprocs 32
|  3> end
|  4> !RI-MP2 aug-cc-pVTZ aug-cc-pVTZ/C TightSCF
|  5> %maxcore 4500
|  6> *xyzfile 0 2  03_23R2.xyz
|  7>
|  8>
|  9>                          ****END OF INPUT****

CARTESIAN COORDINATES (ANGSTROEM)
---------------------------------
  C      2.125504   -0.926990   -0.000012
  C      1.087662    0.077039    0.000001
  O     -0.145799   -0.466046    0.000051
  C     -1.244591    0.459477    0.000044
  C     -2.518766   -0.348513   -0.000046
  O      1.287232    1.273102   -0.000030
  H      3.153397   -0.596400   -0.000026
  H      1.877445   -1.978446   -0.000016
  H     -1.163589    1.099336   -0.880848
  H     -1.163665    1.099252    0.881006
  H     -2.576288   -0.983584   -0.885335
  H     -3.381216    0.320938   -0.000082
  H     -2.576394   -0.983626    0.885207

 Total Charge           Charge          ....    0
 Multiplicity           Mult            ....    2
 Number of Electrons    NEL             ....   47
 Basis Dimension        Dim             ....  437

ORBITAL ENERGIES
----------------
                 SPIN UP ORBITALS
  NO   OCC          E(Eh)            E(eV)
   0   1.0000     -20.596717      -560.4652
   1   1.0000     -20.555188      -559.3351
   2   1.0000     -11.371650      -309.4383
   3   1.0000     -11.286895      -307.1320
   4   1.0000     -11.270529      -306.6867
   5   1.0000     -11.224189      -305.4257
   6   1.0000      -1.461392       -39.7665
   7   1.0000      -1.367688       -37.2167
   8   1.0000      -1.065012       -28.9805
   9   1.0000      -1.010828       -27.5060
  10   1.0000      -0.863858       -23.5068
  11   1.0000      -0.781719       -21.2717
  12   1.0000      -0.705727       -19.2038
  13   1.0000      -0.684782       -18.6339
  14   1.0000      -0.676163       -18.3993
  15   1.0000      -0.608557       -16.5597
  16   1.0000      -0.602028       -16.3820
  17   1.0000      -0.573604       -15.6086
  18   1.0000      -0.545780       -14.8514
  19   1.0000      -0.527819       -14.3627
  20   1.0000      -0.511996       -13.9321
  21   1.0000      -0.472997       -12.8709
  22   1.0000      -0.466113       -12.6836
  23   1.0000      -0.411873       -11.2076
  24   0.0000       0.028758         0.7825
  25   0.0000       0.033619         0.9148
  26   0.0000       0.041387         1.1262
  27   0.0000       0.042634         1.1601
  28   0.0000       0.053523         1.4564

                 SPIN DOWN ORBITALS
  NO   OCC          E(Eh)            E(eV)
   0   1.0000     -20.596750      -560.4661
   1   1.0000     -20.542997      -559.0034
   2   1.0000     -11.377857      -309.6072
   3   1.0000     -11.286962      -307.1338
   4   1.0000     -11.249226      -306.1070
   5   1.0000     -11.224180      -305.4255
   6   1.0000      -1.455512       -39.6065
   7   1.0000      -1.347613       -36.6704
   8   1.0000      -1.049141       -28.5486
   9   1.0000      -0.961788       -26.1716
  10   1.0000      -0.853893       -23.2356
  11   1.0000      -0.776008       -21.1162
  12   1.0000      -0.694475       -18.8976
  13   1.0000      -0.680250       -18.5105
  14   1.0000      -0.666722       -18.1424
  15   1.0000      -0.597426       -16.2568
  16   1.0000      -0.579496       -15.7689
  17   1.0000      -0.569810       -15.5053
  18   1.0000      -0.544142       -14.8069
  19   1.0000      -0.511116       -13.9082
  20   1.0000      -0.502224       -13.6662
  21   1.0000      -0.451898       -12.2968
  22   1.0000      -0.436589       -11.8802
  23   0.0000       0.029141         0.7930
  24   0.0000       0.033914         0.9228
  25   0.0000       0.037748         1.0272
  26   0.0000       0.041488         1.1290
  27   0.0000       0.048912         1.3310

MULLIKEN ATOMIC CHARGES AND SPIN POPULATIONS
--------------------------------------------
   0 C :   -0.870608    1.071733
   1 C :    0.551085   -0.231508
   2 O :   -0.278394    0.005815
   3 C :   -0.145346   -0.010656
   4 C :   -0.905973    0.001307
   5 O :   -0.742649    0.275377
   6 H :    0.466126   -0.071013
   7 H :    0.443550   -0.040724
   8 H :    0.311506   -0.000118
   9 H :    0.311494   -0.000117
  10 H :    0.276045    0.000022
  11 H :    0.307119   -0.000141
  12 H :    0.276044    0.000022
Sum of atomic charges         :   -0.0000000

LOEWDIN ATOMIC CHARGES AND SPIN POPULATIONS
-------------------------------------------
   0 C :    0.587287    0.510953
   1 C :   -0.898470    0.085583
   2 O :    0.557603   -0.010029
   3 C :    0.015585   -0.002154
   4 C :    0.576882   -0.000172
   5 O :    0.449061    0.194055
   6 H :   -0.226515    0.109398
   7 H :   -0.225183    0.113605
   8 H :   -0.159348   -0.000559
   9 H :   -0.159337   -0.000559
  10 H :   -0.172491   -0.000038
  11 H :   -0.172584   -0.000045
  12 H :   -0.172490   -0.000038

  Mayer bond orders larger than 0.100000
B(  0-C ,  1-C ) :   0.9011 B(  0-C ,  6-H ) :   0.7794 B(  0-C ,  7-H ) :   0.8424
B(  1-C ,  2-O ) :   1.0428 B(  1-C ,  5-O ) :   1.5540 B(  2-O ,  3-C ) :   0.7704
B(  3-C ,  4-C ) :   0.8583 B(  3-C ,  8-H ) :   0.9139 B(  3-C ,  9-H ) :   0.9139
B(  4-C , 10-H ) :   0.9466 B(  4-C , 11-H ) :   0.9463 B(  4-C , 12-H ) :   0.9466

MP2 TOTAL ENERGY:     -306.489916767 Eh
FINAL SINGLE POINT ENERGY      -306.489916766652

DIPOLE MOMENT
-------------
                                X             Y             Z
Electronic contribution:      5.55273       1.28348       0.00010
Nuclear contribution   :     -5.89049      -2.03684      -0.00009
                        -----------------------------------------
Total Dipole Moment    :     -0.33776      -0.75336       0.00000
                        -----------------------------------------
Magnitude (a.u.)       :      0.82561
Magnitude (Debye)      :      2.09852

Rotational constants in cm-1:     0.303210     0.071983     0.059463
Rotational constants in MHz :  9090.003413  2157.999747  1782.660824

                             ****ORCA TERMINATED NORMALLY****
TOTAL RUN TIME: 0 days 0 hours 2 minutes 25 seconds 705 msec
