                         Program Version 4.2.1 -  RELEASE  -
|  1> %pal
|  2>  nprocs 32
|  3> end
|  4> !RI-MP2 aug-cc-pVTZ aug-cc-pVTZ/C TightSCF
|  5> %maxcore 4500
|  6> *xyzfile 0 1  02_16R.xyz
|  7>
|  8>
|  9>                          ****END OF INPUT****

CARTESIAN COORDINATES (ANGSTROEM)
---------------------------------
  C      2.365888    1.567425   -0.156808
  C      0.949610    1.672120    0.321817
  C      0.563625   -1.511915    0.657756
  C      3.053945    0.309765    0.369364
  H      2.383124    1.580430   -1.258090
  C      2.800191   -0.983046   -0.399125
  H      4.128926    0.493621    0.352493
  H      2.783352    0.163064    1.418255
  C      1.335745   -1.368692   -0.615428
  H      3.263856   -0.893799   -1.392690
  C     -0.120212    1.854670   -0.447277
  C     -1.478096    1.817847    0.069776
  C     -0.762243   -1.575460    0.822004
  C     -2.576104    1.974011   -0.665551
  H      0.853920   -0.647584   -1.274754
  H      1.292131   -2.308602   -1.173106
  C     -3.971230    1.836339   -0.126932
  H     -4.605939    1.365827   -0.890037
  H     -4.403257    2.822876    0.065171
  C     -1.651797   -1.563125   -0.360304
  C     -3.887346   -1.546760   -1.102402
  H     -3.810363   -2.526162   -1.573313
  H     -3.682752   -0.778499   -1.847075
  H     -4.872495   -1.410122   -0.663327
  O     -2.960656   -1.448421   -0.014938
  O      3.150079    2.655483    0.322922
  O      3.497285   -1.980914    0.336893
  O     -1.314222   -1.667067   -1.512624
  O     -4.044884    1.130640    1.094196
  H     -3.667331    0.252492    0.953338
  C      2.793285    3.906517   -0.219273
  H      3.493837    4.636324    0.183691
  H      2.875068    3.898724   -1.314355
  H      1.773474    4.196402    0.053187
  C      3.772316   -3.164344   -0.374230
  H      4.300626   -2.948841   -1.311700
  H      4.413458   -3.774558    0.260475
  H      2.865263   -3.734084   -0.604716
  C     -1.393932   -1.663160    2.184442
  H     -1.997185   -0.778759    2.403506
  H     -2.055853   -2.527262    2.266563
  H     -0.623019   -1.743782    2.950785
  H      0.001231    1.975790   -1.521931
  H      0.817650    1.554166    1.395319
  H     -1.587116    1.608766    1.130155
  H     -2.489857    2.197370   -1.726751
  H      1.166557   -1.564720    1.560326

 Total Charge           Charge          ....    0
 Multiplicity           Mult            ....    1
 Number of Electrons    NEL             ....  162
 Basis Dimension        Dim             .... 1564

ORBITAL ENERGIES
----------------

  NO   OCC          E(Eh)            E(eV)
   0   2.0000     -20.610276      -560.8341
   1   2.0000     -20.556278      -559.3648
   2   2.0000     -20.554411      -559.3140
   3   2.0000     -20.551757      -559.2417
   4   2.0000     -20.543464      -559.0161
   5   2.0000     -11.381482      -309.7059
   6   2.0000     -11.290830      -307.2391
   7   2.0000     -11.286142      -307.1115
   8   2.0000     -11.283467      -307.0387
   9   2.0000     -11.281486      -306.9848
  10   2.0000     -11.270766      -306.6931
  11   2.0000     -11.264550      -306.5240
  12   2.0000     -11.253536      -306.2243
  13   2.0000     -11.243249      -305.9444
  14   2.0000     -11.235941      -305.7455
  15   2.0000     -11.234449      -305.7049
  16   2.0000     -11.231404      -305.6220
  17   2.0000     -11.227846      -305.5252
  18   2.0000     -11.227117      -305.5054
  19   2.0000     -11.224354      -305.4302
  20   2.0000     -11.218161      -305.2617
  21   2.0000      -1.466997       -39.9190
  22   2.0000      -1.378277       -37.5048
  23   2.0000      -1.374061       -37.3901
  24   2.0000      -1.364533       -37.1308
  25   2.0000      -1.358217       -36.9590
  26   2.0000      -1.121313       -30.5125
  27   2.0000      -1.107051       -30.1244
  28   2.0000      -1.077069       -29.3085
  29   2.0000      -1.039495       -28.2861
  30   2.0000      -1.006813       -27.3968
  31   2.0000      -0.978688       -26.6315
  32   2.0000      -0.959305       -26.1040
  33   2.0000      -0.926311       -25.2062
  34   2.0000      -0.914938       -24.8967
  35   2.0000      -0.904558       -24.6143
  36   2.0000      -0.855432       -23.2775
  37   2.0000      -0.840512       -22.8715
  38   2.0000      -0.789737       -21.4898
  39   2.0000      -0.776094       -21.1186
  40   2.0000      -0.764453       -20.8018
  41   2.0000      -0.758686       -20.6449
  42   2.0000      -0.699654       -19.0386
  43   2.0000      -0.690563       -18.7912
  44   2.0000      -0.681955       -18.5569
  45   2.0000      -0.679258       -18.4835
  46   2.0000      -0.673879       -18.3372
  47   2.0000      -0.659726       -17.9520
  48   2.0000      -0.652439       -17.7538
  49   2.0000      -0.647297       -17.6139
  50   2.0000      -0.641768       -17.4634
  51   2.0000      -0.633089       -17.2272
  52   2.0000      -0.611472       -16.6390
  53   2.0000      -0.608401       -16.5554
  54   2.0000      -0.599380       -16.3100
  55   2.0000      -0.596416       -16.2293
  56   2.0000      -0.592061       -16.1108
  57   2.0000      -0.581959       -15.8359
  58   2.0000      -0.576342       -15.6831
  59   2.0000      -0.568381       -15.4664
  60   2.0000      -0.556089       -15.1320
  61   2.0000      -0.552035       -15.0216
  62   2.0000      -0.545623       -14.8471
  63   2.0000      -0.541331       -14.7304
  64   2.0000      -0.539991       -14.6939
  65   2.0000      -0.518061       -14.0972
  66   2.0000      -0.513672       -13.9777
  67   2.0000      -0.509054       -13.8521
  68   2.0000      -0.496781       -13.5181
  69   2.0000      -0.492698       -13.4070
  70   2.0000      -0.485116       -13.2007
  71   2.0000      -0.470156       -12.7936
  72   2.0000      -0.468310       -12.7434
  73   2.0000      -0.468044       -12.7361
  74   2.0000      -0.454985       -12.3808
  75   2.0000      -0.443403       -12.0656
  76   2.0000      -0.433739       -11.8026
  77   2.0000      -0.425280       -11.5725
  78   2.0000      -0.418446       -11.3865
  79   2.0000      -0.361423        -9.8348
  80   2.0000      -0.316596        -8.6150
  81   0.0000       0.024881         0.6770
  82   0.0000       0.028829         0.7845
  83   0.0000       0.029798         0.8108
  84   0.0000       0.033003         0.8981
  85   0.0000       0.037751         1.0272

MULLIKEN ATOMIC CHARGES
-----------------------
   0 C :    0.884728
   1 C :   -0.041629
   2 C :   -0.516240
   3 C :   -0.543776
   4 H :    0.340922
   5 C :    0.589277
   6 H :    0.314831
   7 H :    0.064502
   8 C :   -0.519184
   9 H :    0.410040
  10 C :   -0.218158
  11 C :    0.025267
  12 C :    1.373799
  13 C :   -0.463435
  14 H :   -0.083183
  15 H :    0.622305
  16 C :    0.160845
  17 H :    0.199394
  18 H :    0.421944
  19 C :    1.363011
  20 C :   -1.034364
  21 H :    0.322430
  22 H :    0.411641
  23 H :    0.316282
  24 O :   -0.446790
  25 O :   -0.884332
  26 O :   -0.882533
  27 O :   -1.265843
  28 O :   -0.879088
  29 H :    0.592637
  30 C :   -1.037352
  31 H :    0.336868
  32 H :    0.325537
  33 H :    0.404465
  34 C :   -1.094832
  35 H :    0.345624
  36 H :    0.330393
  37 H :    0.417550
  38 C :   -1.085205
  39 H :    0.277494
  40 H :    0.209599
  41 H :    0.233633
  42 H :   -0.286496
  43 H :    0.076064
  44 H :   -0.057833
  45 H :    0.234304
  46 H :   -0.265112
Sum of atomic charges:   -0.0000000

LOEWDIN ATOMIC CHARGES
----------------------
   0 C :   -0.284020
   1 C :    0.199838
   2 C :    0.254338
   3 C :    0.295684
   4 H :   -0.138141
   5 C :   -0.255762
   6 H :   -0.145293
   7 H :   -0.148390
   8 C :    0.275515
   9 H :   -0.131016
  10 C :    0.189202
  11 C :    0.173089
  12 C :   -0.101531
  13 C :    0.226737
  14 H :   -0.192451
  15 H :   -0.155198
  16 C :    0.006118
  17 H :   -0.174690
  18 H :   -0.162596
  19 C :   -0.815048
  20 C :    0.356785
  21 H :   -0.170385
  22 H :   -0.185794
  23 H :   -0.174257
  24 O :    0.587924
  25 O :    0.577206
  26 O :    0.584001
  27 O :    0.511281
  28 O :    0.837543
  29 H :   -0.612573
  30 C :    0.322253
  31 H :   -0.184401
  32 H :   -0.172590
  33 H :   -0.185067
  34 C :    0.328879
  35 H :   -0.171318
  36 H :   -0.181477
  37 H :   -0.183147
  38 C :    0.560270
  39 H :   -0.177155
  40 H :   -0.166516
  41 H :   -0.173873
  42 H :   -0.162873
  43 H :   -0.154422
  44 H :   -0.187424
  45 H :   -0.173192
  46 H :   -0.166062

  Mayer bond orders larger than 0.100000
B(  0-C ,  1-C ) :   0.9394 B(  0-C ,  3-C ) :   0.9160 B(  0-C ,  4-H ) :   1.0504
B(  0-C , 25-O ) :  -0.1682 B(  0-C , 30-C ) :  -0.1891 B(  1-C ,  3-C ) :   0.1139
B(  1-C , 10-C ) :   1.3796 B(  1-C , 13-C ) :   0.2638 B(  1-C , 25-O ) :   0.3192
B(  1-C , 42-H ) :  -0.1966 B(  1-C , 43-H ) :   1.2681 B(  1-C , 44-H ) :  -0.1124
B(  2-C ,  5-C ) :   0.1485 B(  2-C ,  8-C ) :   1.0336 B(  2-C , 12-C ) :   1.6293
B(  2-C , 14-H ) :   0.4029 B(  2-C , 15-H ) :  -0.7981 B(  2-C , 19-C ) :   0.4834
B(  2-C , 38-C ) :   0.1055 B(  2-C , 43-H ) :   0.1024 B(  2-C , 46-H ) :   1.6896
B(  3-C ,  5-C ) :   0.8101 B(  3-C ,  6-H ) :   0.8840 B(  3-C ,  7-H ) :   1.1199
B(  3-C ,  8-C ) :   0.1160 B(  3-C , 25-O ) :   0.1815 B(  3-C , 26-O ) :   0.1381
B(  4-H , 25-O ) :  -0.2185 B(  5-C ,  8-C ) :   1.0323 B(  5-C ,  9-H ) :   0.8428
B(  5-C , 26-O ) :   0.3118 B(  5-C , 34-C ) :  -0.1504 B(  8-C , 12-C ) :  -0.1897
B(  8-C , 14-H ) :   1.2741 B(  8-C , 15-H ) :   0.7068 B(  8-C , 26-O ) :   0.1020
B(  8-C , 34-C ) :   0.1070 B(  8-C , 46-H ) :   0.2371 B( 10-C , 11-C ) :   0.5484
B( 10-C , 13-C ) :   0.1095 B( 10-C , 42-H ) :   1.9403 B( 11-C , 13-C ) :   1.0428
B( 11-C , 43-H ) :  -0.1172 B( 11-C , 44-H ) :   1.4631 B( 11-C , 45-H ) :  -0.2259
B( 12-C , 14-H ) :  -0.2957 B( 12-C , 15-H ) :   0.4472 B( 12-C , 19-C ) :   0.5851
B( 12-C , 38-C ) :   0.4105 B( 12-C , 43-H ) :  -0.1554 B( 12-C , 46-H ) :  -0.4107
B( 13-C , 16-C ) :   0.4954 B( 13-C , 18-H ) :  -0.1842 B( 13-C , 42-H ) :  -0.2111
B( 13-C , 44-H ) :   0.1378 B( 13-C , 45-H ) :   1.1017 B( 15-H , 46-H ) :  -0.1053
B( 16-C , 17-H ) :   1.0444 B( 16-C , 18-H ) :   0.8972 B( 16-C , 28-O ) :   0.7967
B( 19-C , 20-C ) :  -0.2289 B( 19-C , 24-O ) :   0.7068 B( 19-C , 27-O ) :   0.6291
B( 20-C , 21-H ) :   0.9999 B( 20-C , 22-H ) :   0.8399 B( 20-C , 23-H ) :   0.9726
B( 20-C , 24-O ) :   0.9066 B( 24-O , 29-H ) :  -0.1026 B( 25-O , 30-C ) :   1.1888
B( 26-O , 34-C ) :   1.1939 B( 28-O , 29-H ) :   0.4933 B( 30-C , 31-H ) :   0.9936
B( 30-C , 32-H ) :   0.9111 B( 30-C , 33-H ) :   0.8226 B( 34-C , 35-H ) :   0.9036
B( 34-C , 36-H ) :   0.9902 B( 34-C , 37-H ) :   0.8180 B( 38-C , 39-H ) :   0.9913
B( 38-C , 40-H ) :   1.1319 B( 38-C , 41-H ) :   1.0317 B( 38-C , 46-H ) :   0.1247
B( 42-H , 43-H ) :   0.1128 B( 42-H , 44-H ) :   0.1122 B( 42-H , 45-H ) :  -0.1227

MP2 TOTAL ENERGY:     -999.555426164 Eh
FINAL SINGLE POINT ENERGY      -999.555426164348

DIPOLE MOMENT
-------------
                                X             Y             Z
Electronic contribution:     -2.93606      -1.44861       0.71157
Nuclear contribution   :      2.64190       1.10983      -1.58559
                        -----------------------------------------
Total Dipole Moment    :     -0.29415      -0.33878      -0.87402
                        -----------------------------------------
Magnitude (a.u.)       :      0.98245
Magnitude (Debye)      :      2.49719

Rotational constants in cm-1:     0.012422     0.007154     0.005142
Rotational constants in MHz :   372.398429   214.483574   154.148822

                             ****ORCA TERMINATED NORMALLY****
TOTAL RUN TIME: 0 days 1 hours 25 minutes 12 seconds 461 msec
