                         Program Version 4.2.1 -  RELEASE  -
|  1> %pal
|  2>  nprocs 32
|  3> end
|  4> !RI-MP2 aug-cc-pVTZ aug-cc-pVTZ/C TightSCF
|  5> %maxcore 4500
|  6> *xyzfile 0 1  10_37R.xyz
|  7>
|  8>
|  9>                          ****END OF INPUT****

CARTESIAN COORDINATES (ANGSTROEM)
---------------------------------
  C      0.695059   -2.829518    1.049688
  N      1.656478   -2.080577    0.259680
  C     -0.620455   -2.091440    1.180080
  C      0.344572   -0.069065    0.075508
  H      0.497568    0.173524   -0.978521
  H      0.123442    0.872769    0.584127
  C     -1.972827   -0.846476   -0.492898
  C     -1.477795   -2.374312    2.156759
  C     -3.066456   -1.821045   -0.504203
  C     -4.305915   -1.616639   -0.948355
  C     -0.829613   -1.003095    0.204740
  C     -5.373163   -2.662723   -0.964445
  H     -5.015486   -3.609540   -0.555810
  H     -6.242927   -2.344788   -0.381610
  H     -5.728418   -2.844094   -1.983362
  H      1.087230   -3.044294    2.059302
  C      1.633762   -0.673441    0.644910
  H      0.521960   -3.790558    0.554876
  S     -2.174513    0.573443   -1.567594
  C      2.970627   -2.688853    0.290913
  C      2.843056    0.099873    0.164546
  H      1.611715   -0.593041    1.748190
  C      3.897511   -0.523271   -0.499675
  C      3.869384   -2.011357   -0.725444
  H      4.882743   -2.415775   -0.663048
  H      3.492409   -2.228470   -1.729527
  H      2.860348   -3.750013    0.054923
  H      3.422147   -2.624226    1.298218
  C      2.901851    1.474064    0.397577
  C      4.978911    0.242598   -0.932187
  C      5.024079    1.607770   -0.711336
  C      3.978683    2.226780   -0.036485
  H      4.005213    3.293022    0.153252
  H      2.090827    1.962254    0.925811
  H      5.799004   -0.248886   -1.445035
  H      5.873191    2.186727   -1.054052
  C     -2.022001    1.935534   -0.428467
  C     -2.601310    1.899900    0.836978
  C     -1.332582    3.071164   -0.839726
  C     -1.226195    4.165285    0.008635
  C     -1.788862    4.125020    1.275973
  C     -2.473293    2.987077    1.686809
  H     -0.864817    3.089456   -1.816614
  H     -0.686374    5.045426   -0.319705
  H     -3.141325    1.017189    1.155653
  H     -1.695349    4.974213    1.941642
  H     -2.919226    2.948948    2.673596
  H     -2.415416   -1.843535    2.256823
  H     -1.259522   -3.142932    2.890261
  H     -4.574216   -0.635941   -1.328840
  H     -2.810005   -2.801457   -0.116185

 Total Charge           Charge          ....    0
 Multiplicity           Mult            ....    1
 Number of Electrons    NEL             ....  192
 Basis Dimension        Dim             .... 1775

ORBITAL ENERGIES
----------------

  NO   OCC          E(Eh)            E(eV)
   0   2.0000     -91.953343     -2502.1777
   1   2.0000     -15.549746      -423.1301
   2   2.0000     -11.265664      -306.5543
   3   2.0000     -11.261814      -306.4495
   4   2.0000     -11.259257      -306.3800
   5   2.0000     -11.258657      -306.3636
   6   2.0000     -11.251501      -306.1689
   7   2.0000     -11.247047      -306.0477
   8   2.0000     -11.245949      -306.0178
   9   2.0000     -11.238674      -305.8199
  10   2.0000     -11.238423      -305.8130
  11   2.0000     -11.236346      -305.7565
  12   2.0000     -11.235985      -305.7467
  13   2.0000     -11.235140      -305.7237
  14   2.0000     -11.235040      -305.7210
  15   2.0000     -11.233811      -305.6875
  16   2.0000     -11.228616      -305.5462
  17   2.0000     -11.227823      -305.5246
  18   2.0000     -11.226820      -305.4973
  19   2.0000     -11.226352      -305.4846
  20   2.0000     -11.225648      -305.4654
  21   2.0000     -11.225045      -305.4490
  22   2.0000     -11.224390      -305.4312
  23   2.0000     -11.223671      -305.4116
  24   2.0000     -11.221104      -305.3418
  25   2.0000     -11.218953      -305.2832
  26   2.0000      -8.953488      -243.6368
  27   2.0000      -6.634806      -180.5423
  28   2.0000      -6.633810      -180.5152
  29   2.0000      -6.633060      -180.4947
  30   2.0000      -1.257438       -34.2166
  31   2.0000      -1.166979       -31.7551
  32   2.0000      -1.157181       -31.4885
  33   2.0000      -1.137463       -30.9519
  34   2.0000      -1.085559       -29.5396
  35   2.0000      -1.065930       -29.0054
  36   2.0000      -1.056104       -28.7380
  37   2.0000      -1.049465       -28.5574
  38   2.0000      -1.021826       -27.8053
  39   2.0000      -1.017446       -27.6861
  40   2.0000      -0.998970       -27.1834
  41   2.0000      -0.971710       -26.4416
  42   2.0000      -0.933724       -25.4079
  43   2.0000      -0.926423       -25.2093
  44   2.0000      -0.899985       -24.4898
  45   2.0000      -0.859448       -23.3868
  46   2.0000      -0.835896       -22.7459
  47   2.0000      -0.833240       -22.6736
  48   2.0000      -0.817204       -22.2373
  49   2.0000      -0.809371       -22.0241
  50   2.0000      -0.790105       -21.4999
  51   2.0000      -0.755987       -20.5714
  52   2.0000      -0.740968       -20.1628
  53   2.0000      -0.705400       -19.1949
  54   2.0000      -0.694462       -18.8973
  55   2.0000      -0.682363       -18.5681
  56   2.0000      -0.671011       -18.2591
  57   2.0000      -0.659678       -17.9508
  58   2.0000      -0.649011       -17.6605
  59   2.0000      -0.635394       -17.2900
  60   2.0000      -0.631803       -17.1922
  61   2.0000      -0.628453       -17.1011
  62   2.0000      -0.616295       -16.7702
  63   2.0000      -0.607642       -16.5348
  64   2.0000      -0.596654       -16.2358
  65   2.0000      -0.594363       -16.1735
  66   2.0000      -0.591219       -16.0879
  67   2.0000      -0.585585       -15.9346
  68   2.0000      -0.569526       -15.4976
  69   2.0000      -0.565259       -15.3815
  70   2.0000      -0.562808       -15.3148
  71   2.0000      -0.556060       -15.1312
  72   2.0000      -0.552724       -15.0404
  73   2.0000      -0.539140       -14.6708
  74   2.0000      -0.530204       -14.4276
  75   2.0000      -0.526737       -14.3332
  76   2.0000      -0.522829       -14.2269
  77   2.0000      -0.520999       -14.1771
  78   2.0000      -0.510805       -13.8997
  79   2.0000      -0.505949       -13.7676
  80   2.0000      -0.500233       -13.6120
  81   2.0000      -0.489888       -13.3305
  82   2.0000      -0.480931       -13.0868
  83   2.0000      -0.475403       -12.9364
  84   2.0000      -0.459552       -12.5050
  85   2.0000      -0.457769       -12.4565
  86   2.0000      -0.442695       -12.0463
  87   2.0000      -0.417528       -11.3615
  88   2.0000      -0.388624       -10.5750
  89   2.0000      -0.375924       -10.2294
  90   2.0000      -0.359655        -9.7867
  91   2.0000      -0.343441        -9.3455
  92   2.0000      -0.327445        -8.9102
  93   2.0000      -0.320438        -8.7196
  94   2.0000      -0.317579        -8.6418
  95   2.0000      -0.282871        -7.6973
  96   0.0000       0.023186         0.6309
  97   0.0000       0.026527         0.7218
  98   0.0000       0.027762         0.7555
  99   0.0000       0.031680         0.8621
 100   0.0000       0.035985         0.9792

MULLIKEN ATOMIC CHARGES
-----------------------
   0 C :   -0.835794
   1 N :   -0.275687
   2 C :    0.865856
   3 C :   -1.000125
   4 H :    0.264873
   5 H :    0.353484
   6 C :    0.842245
   7 C :   -1.852720
   8 C :   -0.112880
   9 C :   -0.493638
  10 C :    0.984153
  11 C :   -1.023156
  12 H :    0.304768
  13 H :    0.267617
  14 H :    0.290661
  15 H :    0.189870
  16 C :    0.022062
  17 H :    0.422459
  18 S :   -1.345579
  19 C :   -0.777877
  20 C :    1.375924
  21 H :    0.164481
  22 C :    0.911899
  23 C :   -0.544135
  24 H :    0.227951
  25 H :    0.218808
  26 H :    0.319657
  27 H :    0.275315
  28 C :   -1.187589
  29 C :   -0.965658
  30 C :   -0.311029
  31 C :   -0.603036
  32 H :    0.378647
  33 H :    0.260776
  34 H :   -0.036950
  35 H :    0.709343
  36 C :    0.982578
  37 C :   -0.532977
  38 C :   -0.708331
  39 C :   -0.407879
  40 C :   -0.172710
  41 C :   -0.802451
  42 H :    0.510902
  43 H :    0.323505
  44 H :    0.514138
  45 H :    0.685468
  46 H :    0.270643
  47 H :    0.458335
  48 H :    0.130582
  49 H :    0.382326
  50 H :    0.080872
Sum of atomic charges:    0.0000000

LOEWDIN ATOMIC CHARGES
----------------------
   0 C :    0.164644
   1 N :    0.312019
   2 C :   -0.113178
   3 C :    0.269666
   4 H :   -0.156182
   5 H :   -0.170721
   6 C :   -0.432608
   7 C :    0.563775
   8 C :    0.114532
   9 C :    0.180531
  10 C :   -0.134344
  11 C :    0.553990
  12 H :   -0.181904
  13 H :   -0.176402
  14 H :   -0.175286
  15 H :   -0.129557
  16 C :   -0.106952
  17 H :   -0.129493
  18 S :    1.312834
  19 C :    0.167002
  20 C :   -0.044786
  21 H :   -0.105162
  22 C :   -0.066990
  23 C :    0.302236
  24 H :   -0.143142
  25 H :   -0.130696
  26 H :   -0.134484
  27 H :   -0.115079
  28 C :    0.229630
  29 C :    0.223284
  30 C :    0.199186
  31 C :    0.204978
  32 H :   -0.182804
  33 H :   -0.172902
  34 H :   -0.173042
  35 H :   -0.183237
  36 C :   -0.501997
  37 C :    0.136259
  38 C :    0.121814
  39 C :    0.187884
  40 C :    0.191242
  41 C :    0.195034
  42 H :   -0.192582
  43 H :   -0.181569
  44 H :   -0.189297
  45 H :   -0.184397
  46 H :   -0.180359
  47 H :   -0.204643
  48 H :   -0.197247
  49 H :   -0.228686
  50 H :   -0.210814

  Mayer bond orders larger than 0.100000
B(  0-C ,  1-N ) :   0.7555 B(  0-C ,  2-C ) :   0.5396 B(  0-C ,  7-C ) :  -0.1623
B(  0-C , 10-C ) :   0.2890 B(  0-C , 15-H ) :   1.1925 B(  0-C , 17-H ) :   0.9066
B(  1-N ,  2-C ) :   0.1379 B(  1-N ,  3-C ) :   0.2917 B(  1-N ,  6-C ) :  -0.1628
B(  1-N , 10-C ) :  -0.2379 B(  1-N , 16-C ) :   0.5413 B(  1-N , 17-H ) :  -0.1028
B(  1-N , 19-C ) :   0.8883 B(  1-N , 22-C ) :  -0.1295 B(  1-N , 23-C ) :  -0.1322
B(  2-C ,  3-C ) :   0.1355 B(  2-C ,  6-C ) :   0.3162 B(  2-C ,  7-C ) :   0.8796
B(  2-C ,  8-C ) :   0.1047 B(  2-C , 10-C ) :   0.9223 B(  2-C , 15-H ) :  -0.1189
B(  2-C , 18-S ) :   0.1326 B(  2-C , 36-C ) :   0.1213 B(  2-C , 37-C ) :  -0.1544
B(  2-C , 47-H ) :  -0.1599 B(  2-C , 50-H ) :  -0.1054 B(  3-C ,  4-H ) :   1.0908
B(  3-C ,  5-H ) :   0.8462 B(  3-C ,  6-C ) :   0.3338 B(  3-C ,  7-C ) :   0.1870
B(  3-C , 10-C ) :   0.6361 B(  3-C , 16-C ) :   0.9021 B(  3-C , 18-S ) :  -0.1672
B(  3-C , 20-C ) :   0.5282 B(  3-C , 22-C ) :  -0.1091 B(  3-C , 31-C ) :   0.1004
B(  3-C , 37-C ) :   0.1930 B(  4-H , 18-S ) :  -0.2299 B(  5-H ,  6-C ) :   0.1578
B(  5-H , 28-C ) :   0.1021 B(  6-C ,  7-C ) :   0.4873 B(  6-C ,  8-C ) :  -0.2581
B(  6-C ,  9-C ) :   0.3053 B(  6-C , 10-C ) :   1.7018 B(  6-C , 16-C ) :  -0.1127
B(  6-C , 18-S ) :   0.1848 B(  6-C , 47-H ) :   0.1142 B(  6-C , 49-H ) :  -0.1114
B(  7-C , 10-C ) :  -1.1617 B(  7-C , 47-H ) :   0.9521 B(  7-C , 48-H ) :   1.2393
B(  8-C ,  9-C ) :   0.3614 B(  8-C , 10-C ) :   0.3500 B(  8-C , 11-C ) :   0.1040
B(  8-C , 50-H ) :   1.2184 B(  9-C , 10-C ) :   0.1083 B(  9-C , 11-C ) :   0.5272
B(  9-C , 18-S ) :  -0.1199 B(  9-C , 49-H ) :   1.1674 B( 10-C , 16-C ) :   0.2714
B( 10-C , 18-S ) :   0.7681 B( 10-C , 20-C ) :  -0.3781 B( 10-C , 21-H ) :   0.1460
B( 10-C , 38-C ) :  -0.1111 B( 10-C , 42-H ) :  -0.1173 B( 10-C , 48-H ) :  -0.1062
B( 11-C , 12-H ) :   0.9443 B( 11-C , 13-H ) :   1.0267 B( 11-C , 14-H ) :   1.0055
B( 11-C , 50-H ) :   0.1018 B( 16-C , 20-C ) :   0.7189 B( 16-C , 21-H ) :   0.8954
B( 16-C , 22-C ) :   0.4051 B( 16-C , 23-C ) :  -0.1409 B( 16-C , 28-C ) :   0.7788
B( 18-S , 36-C ) :   0.4948 B( 18-S , 37-C ) :   0.2298 B( 18-S , 42-H ) :  -0.1451
B( 18-S , 49-H ) :  -0.2432 B( 19-C , 22-C ) :   0.1398 B( 19-C , 23-C ) :   1.1072
B( 19-C , 26-H ) :   0.9439 B( 19-C , 27-H ) :   1.0136 B( 20-C , 21-H ) :   0.1030
B( 20-C , 22-C ) :   0.7057 B( 20-C , 23-C ) :   0.2498 B( 20-C , 28-C ) :  -0.3866
B( 20-C , 29-C ) :   0.4430 B( 20-C , 30-C ) :  -0.2432 B( 20-C , 34-H ) :   0.1348
B( 22-C , 25-H ) :  -0.1193 B( 22-C , 28-C ) :  -0.1143 B( 22-C , 29-C ) :   0.4354
B( 22-C , 30-C ) :   0.4779 B( 22-C , 34-H ) :  -0.1383 B( 22-C , 35-H ) :  -0.1054
B( 23-C , 24-H ) :   1.0779 B( 23-C , 25-H ) :   1.1087 B( 23-C , 28-C ) :  -0.1122
B( 23-C , 29-C ) :   0.2411 B( 23-C , 34-H ) :  -0.1099 B( 28-C , 30-C ) :   0.2822
B( 28-C , 31-C ) :   1.2916 B( 28-C , 32-H ) :  -0.1237 B( 28-C , 33-H ) :   1.1052
B( 29-C , 30-C ) :   0.8911 B( 29-C , 31-C ) :  -0.1778 B( 29-C , 34-H ) :   1.7146
B( 30-C , 31-C ) :   0.9873 B( 30-C , 32-H ) :  -0.1174 B( 30-C , 34-H ) :  -0.1701
B( 30-C , 35-H ) :   0.3416 B( 31-C , 32-H ) :   0.9376 B( 34-H , 35-H ) :  -0.1007
B( 36-C , 37-C ) :   1.0786 B( 36-C , 38-C ) :   1.0489 B( 37-C , 40-C ) :   0.1543
B( 37-C , 41-C ) :   0.8413 B( 37-C , 44-H ) :   0.7660 B( 37-C , 46-H ) :  -0.1384
B( 38-C , 39-C ) :   1.1049 B( 38-C , 40-C ) :   0.1439 B( 38-C , 41-C ) :   0.1120
B( 38-C , 42-H ) :   0.7777 B( 39-C , 40-C ) :   1.1099 B( 39-C , 41-C ) :  -0.1265
B( 39-C , 43-H ) :   1.0550 B( 40-C , 41-C ) :   1.2221 B( 40-C , 43-H ) :  -0.1037
B( 40-C , 45-H ) :   0.4311 B( 41-C , 44-H ) :  -0.1342 B( 41-C , 46-H ) :   1.1901

MP2 TOTAL ENERGY:    -1379.974568002 Eh
FINAL SINGLE POINT ENERGY     -1379.974568001654

DIPOLE MOMENT
-------------
                                X             Y             Z
Electronic contribution:      1.27789      10.15191      -5.22733
Nuclear contribution   :     -1.01144     -10.41452       5.99186
                        -----------------------------------------
Total Dipole Moment    :      0.26645      -0.26261       0.76453
                        -----------------------------------------
Magnitude (a.u.)       :      0.85115
Magnitude (Debye)      :      2.16346

Rotational constants in cm-1:     0.008441     0.004960     0.003597
Rotational constants in MHz :   253.054606   148.691582   107.833124

                             ****ORCA TERMINATED NORMALLY****
TOTAL RUN TIME: 0 days 2 hours 6 minutes 2 seconds 590 msec
