                         Program Version 4.2.1 -  RELEASE  -
|  1> %pal
|  2>  nprocs 32
|  3> end
|  4> !RI-MP2 aug-cc-pVTZ aug-cc-pVTZ/C TightSCF
|  5> %maxcore 4500
|  6> *xyzfile 0 1  10_70R.xyz
|  7>
|  8>
|  9>                          ****END OF INPUT****

CARTESIAN COORDINATES (ANGSTROEM)
---------------------------------
  C      5.778929    0.760254    1.707276
  C      5.297996   -0.428175    0.884190
  C      3.867578   -0.259617    0.396507
  C      3.288659   -1.515128   -0.286788
  C      1.823732   -1.352831   -0.577422
  C      0.778266   -1.880339    0.073116
  C     -0.569153   -1.552524   -0.408484
  C     -1.720940   -1.990527    0.097165
  C     -4.208893    1.772044    0.194341
  C     -3.043194    2.007722    0.801874
  C     -1.843175    2.454335    0.118862
  C     -0.617768    2.188875    0.594339
  C      0.599136    2.331417   -0.168715
  C      1.740754    1.738050    0.193260
  C      2.906296    1.752548   -0.714514
  C      4.039719   -1.879047   -1.570819
  C     -3.076606   -1.575459   -0.408346
  C     -4.011744   -1.233572    0.766209
  C     -5.326155   -0.501089    0.396837
  C     -5.320262    0.991962    0.814353
  C      0.886964   -2.771166    1.277872
  O      3.013549    2.523657   -1.631525
  O      3.894069    0.851149   -0.519750
  O     -2.986662   -0.522143   -1.364781
  O     -5.692177   -0.666624   -0.959226
  H      5.750003    1.676529    1.116157
  H      6.805459    0.611189    2.046369
  H      5.154504    0.907461    2.593122
  H      5.951600   -0.569475    0.021242
  H      5.346893   -1.345042    1.479616
  H      3.242325   -0.017354    1.257687
  H      3.426649   -2.322874    0.435793
  H      1.600830   -0.726552   -1.438387
  H      0.563749    2.859577   -1.117051
  H      1.777678    1.179409    1.116929
  H      3.995587   -1.058135   -2.288259
  H      3.589284   -2.760152   -2.030316
  H      5.089580   -2.101466   -1.376347
  H     -3.524014   -2.400290   -0.969165
  H     -3.458382   -0.638765    1.496996
  H     -4.251072   -2.179230    1.259651
  H     -6.140786   -0.960900    0.959708
  H     -5.241037    1.035280    1.904876
  H     -6.291242    1.405387    0.532488
  H      0.404142   -3.734019    1.090893
  H      0.379970   -2.321242    2.136248
  H      1.917981   -2.965413    1.564300
  H     -2.557794    0.230714   -0.942315
  H     -4.919450   -0.450470   -1.500130
  H     -0.529273    1.716266    1.569583
  H     -1.953751    2.894078   -0.870030
  H     -4.323679    2.052020   -0.850223
  H     -2.919904    1.710361    1.841026
  H     -1.732319   -2.676945    0.938601
  H     -0.604590   -0.884654   -1.263471

 Total Charge           Charge          ....    0
 Multiplicity           Mult            ....    1
 Number of Electrons    NEL             ....  188
 Basis Dimension        Dim             .... 1840

ORBITAL ENERGIES
----------------

  NO   OCC          E(Eh)            E(eV)
   0   2.0000     -20.590931      -560.3077
   1   2.0000     -20.570385      -559.7486
   2   2.0000     -20.545030      -559.0587
   3   2.0000     -20.526461      -558.5534
   4   2.0000     -11.376059      -309.5583
   5   2.0000     -11.301393      -307.5265
   6   2.0000     -11.296812      -307.4019
   7   2.0000     -11.288781      -307.1834
   8   2.0000     -11.266335      -306.5726
   9   2.0000     -11.263731      -306.5017
  10   2.0000     -11.254251      -306.2437
  11   2.0000     -11.252794      -306.2041
  12   2.0000     -11.248267      -306.0809
  13   2.0000     -11.246630      -306.0364
  14   2.0000     -11.244351      -305.9743
  15   2.0000     -11.244273      -305.9722
  16   2.0000     -11.237585      -305.7902
  17   2.0000     -11.236030      -305.7479
  18   2.0000     -11.235713      -305.7393
  19   2.0000     -11.233808      -305.6875
  20   2.0000     -11.233386      -305.6760
  21   2.0000     -11.232190      -305.6434
  22   2.0000     -11.231082      -305.6133
  23   2.0000     -11.218683      -305.2759
  24   2.0000     -11.217503      -305.2438
  25   2.0000      -1.448561       -39.4173
  26   2.0000      -1.384961       -37.6867
  27   2.0000      -1.353096       -36.8196
  28   2.0000      -1.352222       -36.7958
  29   2.0000      -1.141226       -31.0544
  30   2.0000      -1.135664       -30.9030
  31   2.0000      -1.105594       -30.0847
  32   2.0000      -1.100551       -29.9475
  33   2.0000      -1.069950       -29.1148
  34   2.0000      -1.054965       -28.7071
  35   2.0000      -1.035302       -28.1720
  36   2.0000      -1.006522       -27.3889
  37   2.0000      -0.972361       -26.4593
  38   2.0000      -0.950322       -25.8596
  39   2.0000      -0.942522       -25.6473
  40   2.0000      -0.906251       -24.6604
  41   2.0000      -0.886509       -24.1231
  42   2.0000      -0.850638       -23.1470
  43   2.0000      -0.827672       -22.5221
  44   2.0000      -0.818751       -22.2794
  45   2.0000      -0.788570       -21.4581
  46   2.0000      -0.781381       -21.2625
  47   2.0000      -0.773316       -21.0430
  48   2.0000      -0.741768       -20.1845
  49   2.0000      -0.730355       -19.8740
  50   2.0000      -0.717193       -19.5158
  51   2.0000      -0.705778       -19.2052
  52   2.0000      -0.686662       -18.6850
  53   2.0000      -0.674660       -18.3584
  54   2.0000      -0.668233       -18.1836
  55   2.0000      -0.657612       -17.8945
  56   2.0000      -0.650537       -17.7020
  57   2.0000      -0.642894       -17.4940
  58   2.0000      -0.638151       -17.3650
  59   2.0000      -0.625211       -17.0129
  60   2.0000      -0.616375       -16.7724
  61   2.0000      -0.609436       -16.5836
  62   2.0000      -0.606425       -16.5017
  63   2.0000      -0.591867       -16.1055
  64   2.0000      -0.587611       -15.9897
  65   2.0000      -0.585324       -15.9275
  66   2.0000      -0.582664       -15.8551
  67   2.0000      -0.575833       -15.6692
  68   2.0000      -0.561351       -15.2752
  69   2.0000      -0.558357       -15.1937
  70   2.0000      -0.553948       -15.0737
  71   2.0000      -0.543259       -14.7828
  72   2.0000      -0.538635       -14.6570
  73   2.0000      -0.534938       -14.5564
  74   2.0000      -0.530110       -14.4250
  75   2.0000      -0.525760       -14.3066
  76   2.0000      -0.519636       -14.1400
  77   2.0000      -0.511686       -13.9237
  78   2.0000      -0.508505       -13.8371
  79   2.0000      -0.502314       -13.6687
  80   2.0000      -0.500552       -13.6207
  81   2.0000      -0.494555       -13.4575
  82   2.0000      -0.485945       -13.2232
  83   2.0000      -0.478850       -13.0302
  84   2.0000      -0.475357       -12.9351
  85   2.0000      -0.468998       -12.7621
  86   2.0000      -0.446973       -12.1628
  87   2.0000      -0.445451       -12.1213
  88   2.0000      -0.439813       -11.9679
  89   2.0000      -0.437102       -11.8941
  90   2.0000      -0.417420       -11.3586
  91   2.0000      -0.400413       -10.8958
  92   2.0000      -0.323660        -8.8072
  93   2.0000      -0.304573        -8.2879
  94   0.0000       0.016937         0.4609
  95   0.0000       0.023843         0.6488
  96   0.0000       0.027470         0.7475
  97   0.0000       0.030336         0.8255
  98   0.0000       0.033937         0.9235

MULLIKEN ATOMIC CHARGES
-----------------------
   0 C :   -1.080502
   1 C :   -0.863562
   2 C :    1.254502
   3 C :    0.214873
   4 C :   -1.003455
   5 C :    2.019402
   6 C :    0.143801
   7 C :   -0.774936
   8 C :   -0.589002
   9 C :   -0.288706
  10 C :    0.020910
  11 C :    0.006363
  12 C :   -0.189928
  13 C :    0.284347
  14 C :    0.905546
  15 C :   -1.278844
  16 C :    1.298648
  17 C :   -0.686621
  18 C :    0.370080
  19 C :   -0.423252
  20 C :   -1.081572
  21 O :   -1.195041
  22 O :   -0.871145
  23 O :   -1.027538
  24 O :   -0.985998
  25 H :    0.314178
  26 H :    0.290679
  27 H :    0.250004
  28 H :    0.232778
  29 H :    0.215456
  30 H :    0.493587
  31 H :    0.122616
  32 H :   -0.511967
  33 H :   -0.053684
  34 H :    0.485187
  35 H :    0.323017
  36 H :    0.264200
  37 H :    0.246821
  38 H :    0.447225
  39 H :    0.277052
  40 H :    0.242718
  41 H :    0.337242
  42 H :    0.084196
  43 H :    0.347249
  44 H :    0.126963
  45 H :    0.125060
  46 H :    0.382440
  47 H :    0.418227
  48 H :    0.306406
  49 H :   -0.170270
  50 H :    0.301459
  51 H :    0.308769
  52 H :    0.244014
  53 H :   -0.300874
  54 H :   -0.329119
Sum of atomic charges:   -0.0000000

LOEWDIN ATOMIC CHARGES
----------------------
   0 C :    0.593811
   1 C :    0.276412
   2 C :   -0.215559
   3 C :   -0.014378
   4 C :    0.240064
   5 C :   -0.087866
   6 C :    0.215237
   7 C :    0.258667
   8 C :    0.216690
   9 C :    0.183147
  10 C :    0.197722
  11 C :    0.200232
  12 C :    0.200846
  13 C :    0.199910
  14 C :   -0.835558
  15 C :    0.607194
  16 C :   -0.232742
  17 C :    0.324073
  18 C :   -0.216167
  19 C :    0.288971
  20 C :    0.579662
  21 O :    0.445353
  22 O :    0.615285
  23 O :    0.893183
  24 O :    0.852371
  25 H :   -0.169494
  26 H :   -0.167093
  27 H :   -0.165327
  28 H :   -0.150732
  29 H :   -0.135517
  30 H :   -0.175827
  31 H :   -0.168133
  32 H :   -0.173932
  33 H :   -0.171995
  34 H :   -0.221891
  35 H :   -0.158150
  36 H :   -0.155601
  37 H :   -0.168146
  38 H :   -0.136777
  39 H :   -0.171374
  40 H :   -0.139952
  41 H :   -0.148623
  42 H :   -0.151380
  43 H :   -0.146550
  44 H :   -0.158932
  45 H :   -0.159483
  46 H :   -0.189732
  47 H :   -0.542510
  48 H :   -0.611715
  49 H :   -0.175685
  50 H :   -0.164327
  51 H :   -0.156076
  52 H :   -0.174277
  53 H :   -0.180435
  54 H :   -0.196894

  Mayer bond orders larger than 0.100000
B(  0-C ,  1-C ) :   0.7925 B(  0-C , 25-H ) :   0.9552 B(  0-C , 26-H ) :   1.0001
B(  0-C , 27-H ) :   1.0098 B(  1-C ,  2-C ) :   0.4663 B(  1-C ,  3-C ) :   0.1252
B(  1-C , 28-H ) :   1.1218 B(  1-C , 29-H ) :   1.0773 B(  2-C ,  3-C ) :   1.0058
B(  2-C ,  4-C ) :  -0.1576 B(  2-C , 14-C ) :  -0.1142 B(  2-C , 15-C ) :   0.1046
B(  2-C , 21-O ) :   0.1024 B(  2-C , 22-O ) :  -0.3082 B(  2-C , 28-H ) :  -0.1298
B(  2-C , 30-H ) :   0.7941 B(  3-C ,  4-C ) :   0.9349 B(  3-C , 15-C ) :   0.4141
B(  3-C , 22-O ) :   0.2774 B(  3-C , 31-H ) :   0.9576 B(  4-C ,  5-C ) :   1.2914
B(  4-C ,  6-C ) :   0.2747 B(  4-C ,  7-C ) :   0.2314 B(  4-C , 20-C ) :   0.1297
B(  4-C , 32-H ) :   2.7483 B(  4-C , 46-H ) :   0.1209 B(  4-C , 54-H ) :  -0.2294
B(  5-C ,  6-C ) :   0.2526 B(  5-C ,  7-C ) :   0.3141 B(  5-C , 20-C ) :   0.1720
B(  5-C , 32-H ) :  -0.9197 B(  5-C , 44-H ) :  -0.1951 B(  5-C , 45-H ) :  -0.2241
B(  6-C ,  7-C ) :   0.8367 B(  6-C , 16-C ) :   0.1927 B(  6-C , 23-O ) :  -0.2055
B(  6-C , 32-H ) :  -0.2452 B(  6-C , 38-H ) :   0.1317 B(  6-C , 53-H ) :  -0.5436
B(  6-C , 54-H ) :   1.8552 B(  7-C , 20-C ) :  -0.1702 B(  7-C , 23-O ) :   0.1703
B(  7-C , 38-H ) :  -0.3916 B(  7-C , 53-H ) :   2.2864 B(  8-C ,  9-C ) :   1.2227
B(  8-C , 10-C ) :  -0.1859 B(  8-C , 18-C ) :   0.1437 B(  8-C , 19-C ) :   0.9212
B(  8-C , 42-H ) :   0.1103 B(  8-C , 43-H ) :  -0.1834 B(  8-C , 51-H ) :   1.0119
B(  9-C , 10-C ) :   0.7981 B(  9-C , 11-C ) :  -0.2019 B(  9-C , 12-C ) :  -0.1028
B(  9-C , 52-H ) :   1.0746 B( 10-C , 11-C ) :   0.8556 B( 10-C , 12-C ) :  -0.1236
B( 10-C , 13-C ) :   0.1073 B( 10-C , 14-C ) :   0.1818 B( 10-C , 49-H ) :  -0.1195
B( 10-C , 50-H ) :   1.0871 B( 11-C , 12-C ) :   0.4770 B( 11-C , 34-H ) :  -0.2653
B( 11-C , 49-H ) :   1.7451 B( 11-C , 50-H ) :  -0.1364 B( 11-C , 52-H ) :  -0.1497
B( 12-C , 13-C ) :   1.0133 B( 12-C , 14-C ) :  -0.1465 B( 12-C , 21-O ) :   0.1324
B( 12-C , 33-H ) :   1.6711 B( 12-C , 34-H ) :  -0.2168 B( 12-C , 50-H ) :  -0.1504
B( 12-C , 52-H ) :  -0.1163 B( 13-C , 14-C ) :   0.5054 B( 13-C , 21-O ) :  -0.3258
B( 13-C , 30-H ) :  -0.1509 B( 13-C , 33-H ) :  -0.2523 B( 13-C , 34-H ) :   1.0921
B( 13-C , 49-H ) :  -0.1564 B( 13-C , 52-H ) :   0.1075 B( 14-C , 21-O ) :   0.6465
B( 14-C , 22-O ) :   1.2888 B( 14-C , 33-H ) :  -0.1364 B( 14-C , 50-H ) :   0.1020
B( 15-C , 35-H ) :   1.0097 B( 15-C , 36-H ) :   1.0551 B( 15-C , 37-H ) :   1.0515
B( 16-C , 17-C ) :   0.8834 B( 16-C , 23-O ) :   0.2576 B( 16-C , 38-H ) :   0.9069
B( 16-C , 47-H ) :   0.1349 B( 16-C , 53-H ) :  -0.3024 B( 16-C , 54-H ) :  -0.2166
B( 17-C , 18-C ) :   0.9310 B( 17-C , 23-O ) :   0.1193 B( 17-C , 24-O ) :   0.1787
B( 17-C , 39-H ) :   0.9939 B( 17-C , 40-H ) :   0.9270 B( 18-C , 19-C ) :   0.9782
B( 18-C , 24-O ) :   0.1285 B( 18-C , 41-H ) :   0.9709 B( 19-C , 24-O ) :   0.2300
B( 19-C , 42-H ) :   1.1309 B( 19-C , 43-H ) :   0.8733 B( 20-C , 44-H ) :   1.3029
B( 20-C , 45-H ) :   1.2735 B( 20-C , 46-H ) :   0.8078 B( 20-C , 53-H ) :  -0.1310
B( 21-O , 33-H ) :   0.1863 B( 22-O , 30-H ) :  -0.1281 B( 23-O , 47-H ) :   0.5915
B( 23-O , 54-H ) :   0.1280 B( 24-O , 48-H ) :   0.8330 B( 32-H , 54-H ) :  -0.1218
B( 34-H , 49-H ) :  -0.2099 B( 44-H , 45-H ) :   0.1130 B( 53-H , 54-H ) :   0.2654

MP2 TOTAL ENERGY:    -1116.968775828 Eh
FINAL SINGLE POINT ENERGY     -1116.968775828298

DIPOLE MOMENT
-------------
                                X             Y             Z
Electronic contribution:     -6.80452      10.91514      -8.71853
Nuclear contribution   :      6.64544     -12.02540      10.84815
                        -----------------------------------------
Total Dipole Moment    :     -0.15908      -1.11026       2.12962
                        -----------------------------------------
Magnitude (a.u.)       :      2.40692
Magnitude (Debye)      :      6.11791

Rotational constants in cm-1:     0.013427     0.003620     0.003168
Rotational constants in MHz :   402.520887   108.515546    94.961738

                             ****ORCA TERMINATED NORMALLY****
TOTAL RUN TIME: 0 days 2 hours 10 minutes 20 seconds 842 msec
