                         Program Version 4.2.1 -  RELEASE  -
|  1> %pal
|  2>  nprocs 32
|  3> end
|  4> !RI-MP2 aug-cc-pVTZ aug-cc-pVTZ/C TightSCF
|  5> %maxcore 4500
|  6> *xyzfile -1 1  10_34TS.xyz
|  7>
|  8>
|  9>                          ****END OF INPUT****

CARTESIAN COORDINATES (ANGSTROEM)
---------------------------------
  C      4.279344   -0.802370   -1.306051
  C      3.189759    0.264833   -1.454669
  C      2.293261    0.251688   -0.254669
  C      2.455273   -0.472185    0.860192
  C      3.739623   -1.222430    1.118484
  C      4.833037   -0.829406    0.119822
  H      3.647395    1.258764   -1.567124
  H      2.627653    0.092934   -2.384234
  H      3.851905   -1.786838   -1.532833
  H      5.084258   -0.630376   -2.029350
  H      4.063128   -1.028440    2.147979
  H      3.545738   -2.303148    1.064799
  H      5.205562    0.170515    0.370844
  H      5.685138   -1.515369    0.186948
  C     -0.579073   -0.900461   -0.042829
  C     -0.259843    0.551428   -0.517870
  C      1.081795    1.137461   -0.107022
  C      1.293230   -0.435627    1.739358
  C      0.062886   -1.220365    1.345805
  H     -0.187640    0.515623   -1.615728
  H     -0.688568   -1.033899    2.118686
  H      0.212408   -2.322683    1.351079
  H      1.502550   -0.517894    2.810349
  O      1.221693    2.355048    0.025373
  C     -1.547873    1.353706   -0.277968
  C     -2.159632   -0.924063    0.048591
  H     -2.409021   -0.777371    1.104173
  C     -2.614760    0.349506   -0.665202
  H     -2.603717    0.232766   -1.753905
  H     -3.599928    0.703498   -0.359677
  C     -0.043871   -1.873448   -1.102896
  H      1.033447   -1.735791   -1.203688
  H     -0.217574   -2.916321   -0.829529
  H     -0.501212   -1.695521   -2.082111
  C     -2.884490   -2.201998   -0.395435
  H     -2.517394   -2.488290   -1.386977
  C     -4.394822   -1.981888   -0.512166
  H     -4.644681   -1.249810   -1.281918
  H     -4.903593   -2.918241   -0.761208
  H     -4.806436   -1.621409    0.436362
  C     -2.623161   -3.358520    0.570614
  H     -1.559114   -3.537692    0.720223
  H     -3.052382   -3.130970    1.551763
  H     -3.083116   -4.284043    0.209807
  O     -1.771483    1.728106    1.066680
  O     -1.652900    2.549858   -1.025257
  C     -1.354784    3.652899   -0.176700
  H     -0.389313    4.079133   -0.447635
  H     -2.153385    4.391098   -0.298956
  C     -1.306743    3.057224    1.238477
  H     -0.288884    3.054745    1.626015
  H     -1.986642    3.555018    1.934280

 Total Charge           Charge          ....   -1
 Multiplicity           Mult            ....    1
 Number of Electrons    NEL             ....  174
 Basis Dimension        Dim             .... 1725

ORBITAL ENERGIES
----------------

  NO   OCC          E(Eh)            E(eV)
   0   2.0000     -20.436307      -556.1002
   1   2.0000     -20.432949      -556.0088
   2   2.0000     -20.363899      -554.1299
   3   2.0000     -11.205443      -304.9156
   4   2.0000     -11.174807      -304.0819
   5   2.0000     -11.152492      -303.4747
   6   2.0000     -11.147657      -303.3432
   7   2.0000     -11.121037      -302.6188
   8   2.0000     -11.118244      -302.5428
   9   2.0000     -11.109875      -302.3151
  10   2.0000     -11.105316      -302.1910
  11   2.0000     -11.101792      -302.0951
  12   2.0000     -11.101666      -302.0917
  13   2.0000     -11.101262      -302.0807
  14   2.0000     -11.097992      -301.9917
  15   2.0000     -11.097456      -301.9771
  16   2.0000     -11.090242      -301.7808
  17   2.0000     -11.089129      -301.7505
  18   2.0000     -11.086992      -301.6924
  19   2.0000     -11.069431      -301.2145
  20   2.0000     -11.062268      -301.0196
  21   2.0000     -11.045595      -300.5659
  22   2.0000     -10.982250      -298.8422
  23   2.0000      -1.312001       -35.7014
  24   2.0000      -1.205794       -32.8113
  25   2.0000      -1.203956       -32.7613
  26   2.0000      -1.027192       -27.9513
  27   2.0000      -0.994781       -27.0694
  28   2.0000      -0.964357       -26.2415
  29   2.0000      -0.924833       -25.1660
  30   2.0000      -0.893949       -24.3256
  31   2.0000      -0.877667       -23.8825
  32   2.0000      -0.860565       -23.4172
  33   2.0000      -0.838593       -22.8193
  34   2.0000      -0.828626       -22.5481
  35   2.0000      -0.808754       -22.0073
  36   2.0000      -0.764721       -20.8091
  37   2.0000      -0.735351       -20.0099
  38   2.0000      -0.726899       -19.7799
  39   2.0000      -0.708656       -19.2835
  40   2.0000      -0.680710       -18.5231
  41   2.0000      -0.669030       -18.2052
  42   2.0000      -0.632169       -17.2022
  43   2.0000      -0.625011       -17.0074
  44   2.0000      -0.589970       -16.0539
  45   2.0000      -0.564113       -15.3503
  46   2.0000      -0.554747       -15.0954
  47   2.0000      -0.536527       -14.5996
  48   2.0000      -0.531452       -14.4616
  49   2.0000      -0.520914       -14.1748
  50   2.0000      -0.507007       -13.7964
  51   2.0000      -0.493442       -13.4272
  52   2.0000      -0.490970       -13.3600
  53   2.0000      -0.488315       -13.2877
  54   2.0000      -0.470369       -12.7994
  55   2.0000      -0.465780       -12.6745
  56   2.0000      -0.459138       -12.4938
  57   2.0000      -0.455928       -12.4064
  58   2.0000      -0.450452       -12.2574
  59   2.0000      -0.442688       -12.0462
  60   2.0000      -0.439109       -11.9488
  61   2.0000      -0.434073       -11.8117
  62   2.0000      -0.423164       -11.5149
  63   2.0000      -0.420178       -11.4336
  64   2.0000      -0.416164       -11.3244
  65   2.0000      -0.403302       -10.9744
  66   2.0000      -0.399287       -10.8652
  67   2.0000      -0.386935       -10.5290
  68   2.0000      -0.385120       -10.4797
  69   2.0000      -0.383089       -10.4244
  70   2.0000      -0.373952       -10.1758
  71   2.0000      -0.368089       -10.0162
  72   2.0000      -0.359774        -9.7899
  73   2.0000      -0.357153        -9.7186
  74   2.0000      -0.350126        -9.5274
  75   2.0000      -0.346746        -9.4354
  76   2.0000      -0.340107        -9.2548
  77   2.0000      -0.335665        -9.1339
  78   2.0000      -0.326672        -8.8892
  79   2.0000      -0.317109        -8.6290
  80   2.0000      -0.296210        -8.0603
  81   2.0000      -0.290566        -7.9067
  82   2.0000      -0.283365        -7.7108
  83   2.0000      -0.269306        -7.3282
  84   2.0000      -0.233441        -6.3522
  85   2.0000      -0.185642        -5.0516
  86   2.0000      -0.058765        -1.5991
  87   0.0000       0.088431         2.4063
  88   0.0000       0.095338         2.5943
  89   0.0000       0.098587         2.6827
  90   0.0000       0.101815         2.7705
  91   0.0000       0.104168         2.8346

MULLIKEN ATOMIC CHARGES
-----------------------
   0 C :   -0.565917
   1 C :   -0.951710
   2 C :    0.810953
   3 C :    0.899087
   4 C :   -0.948666
   5 C :   -0.583222
   6 H :    0.262517
   7 H :    0.183409
   8 H :    0.153622
   9 H :    0.294654
  10 H :    0.172216
  11 H :    0.150058
  12 H :    0.139539
  13 H :    0.288081
  14 C :    2.501845
  15 C :    0.072906
  16 C :    0.808857
  17 C :   -1.531809
  18 C :   -0.465765
  19 H :    0.039238
  20 H :    0.176396
  21 H :    0.249015
  22 H :    0.272147
  23 O :   -1.539624
  24 C :    2.032146
  25 C :    0.834488
  26 H :    0.584044
  27 C :   -1.770716
  28 H :    0.015696
  29 H :    0.537161
  30 C :   -1.832803
  31 H :    0.376554
  32 H :    0.192694
  33 H :    0.195452
  34 C :    0.208479
  35 H :    0.226671
  36 C :   -1.379471
  37 H :    0.246749
  38 H :    0.194879
  39 H :    0.237386
  40 C :   -1.441191
  41 H :    0.472256
  42 H :    0.127790
  43 H :    0.214002
  44 O :   -1.020782
  45 O :   -1.273765
  46 C :   -0.691554
  47 H :    0.356951
  48 H :    0.310816
  49 C :   -0.586694
  50 H :    0.395831
  51 H :    0.349105
Sum of atomic charges:   -1.0000000

LOEWDIN ATOMIC CHARGES
----------------------
   0 C :    0.269644
   1 C :    0.267491
   2 C :   -0.101965
   3 C :   -0.164277
   4 C :    0.288414
   5 C :    0.272659
   6 H :   -0.145808
   7 H :   -0.148277
   8 H :   -0.145215
   9 H :   -0.149529
  10 H :   -0.149515
  11 H :   -0.144466
  12 H :   -0.143055
  13 H :   -0.151641
  14 C :   -0.194231
  15 C :    0.045874
  16 C :   -0.508771
  17 C :    0.187095
  18 C :    0.230175
  19 H :   -0.144165
  20 H :   -0.178145
  21 H :   -0.167003
  22 H :   -0.248961
  23 O :    0.486795
  24 C :   -0.780521
  25 C :    0.051344
  26 H :   -0.157948
  27 C :    0.303827
  28 H :   -0.123356
  29 H :   -0.134146
  30 C :    0.590726
  31 H :   -0.180273
  32 H :   -0.175685
  33 H :   -0.152038
  34 C :   -0.025996
  35 H :   -0.149947
  36 C :    0.579297
  37 H :   -0.175786
  38 H :   -0.167610
  39 H :   -0.154187
  40 C :    0.593499
  41 H :   -0.197928
  42 H :   -0.151942
  43 H :   -0.160979
  44 O :    0.623084
  45 O :    0.607854
  46 C :    0.052257
  47 H :   -0.197273
  48 H :   -0.169981
  49 C :    0.058631
  50 H :   -0.203031
  51 H :   -0.165011

  Mayer bond orders larger than 0.100000
B(  0-C ,  1-C ) :   0.9720 B(  0-C ,  2-C ) :  -0.1603 B(  0-C ,  4-C ) :   0.1164
B(  0-C ,  5-C ) :   0.8635 B(  0-C ,  8-H ) :   1.1248 B(  0-C ,  9-H ) :   0.9256
B(  0-C , 16-C ) :  -0.1094 B(  1-C ,  4-C ) :   0.2121 B(  1-C ,  5-C ) :   0.1709
B(  1-C ,  6-H ) :   1.0258 B(  1-C ,  7-H ) :   1.1879 B(  1-C , 15-C ) :  -0.1224
B(  1-C , 16-C ) :   0.1030 B(  2-C ,  3-C ) :   2.3750 B(  2-C ,  5-C ) :  -0.1969
B(  2-C ,  6-H ) :  -0.1458 B(  2-C , 14-C ) :  -0.1309 B(  2-C , 17-C ) :  -0.4614
B(  2-C , 18-C ) :   0.2552 B(  2-C , 22-H ) :  -0.1958 B(  2-C , 23-O ) :   0.2561
B(  2-C , 31-H ) :   0.1638 B(  3-C ,  4-C ) :   0.1668 B(  3-C ,  5-C ) :   0.1338
B(  3-C , 11-H ) :  -0.1387 B(  3-C , 14-C ) :  -0.2127 B(  3-C , 15-C ) :   0.1881
B(  3-C , 16-C ) :   0.7830 B(  3-C , 17-C ) :  -0.9281 B(  3-C , 18-C ) :   0.3802
B(  3-C , 19-H ) :  -0.1889 B(  4-C ,  5-C ) :   0.9253 B(  4-C , 10-H ) :   1.1640
B(  4-C , 11-H ) :   1.2477 B(  4-C , 14-C ) :  -0.1340 B(  4-C , 16-C ) :  -0.4665
B(  4-C , 18-C ) :  -0.1100 B(  5-C , 12-H ) :   1.1285 B(  5-C , 13-H ) :   0.9383
B( 10-H , 16-C ) :  -0.1372 B( 14-C , 15-C ) :   0.9184 B( 14-C , 16-C ) :   0.5625
B( 14-C , 17-C ) :   0.9521 B( 14-C , 19-H ) :  -0.2592 B( 14-C , 20-H ) :  -0.1664
B( 14-C , 21-H ) :  -0.1758 B( 14-C , 25-C ) :   0.5889 B( 14-C , 26-H ) :  -0.1378
B( 14-C , 27-C ) :   0.4588 B( 14-C , 30-C ) :  -0.9271 B( 14-C , 31-H ) :  -0.2472
B( 14-C , 32-H ) :  -0.2523 B( 14-C , 33-H ) :  -0.3013 B( 14-C , 34-C ) :   0.1828
B( 14-C , 41-H ) :  -0.1075 B( 14-C , 44-O ) :  -0.1052 B( 14-C , 45-O ) :  -0.1159
B( 15-C , 16-C ) :   1.1838 B( 15-C , 17-C ) :  -0.2336 B( 15-C , 18-C ) :  -0.1898
B( 15-C , 19-H ) :   1.5300 B( 15-C , 23-O ) :   0.5074 B( 15-C , 24-C ) :   1.1113
B( 15-C , 25-C ) :   0.1060 B( 15-C , 27-C ) :  -0.4413 B( 15-C , 28-H ) :  -0.1251
B( 15-C , 30-C ) :  -0.1356 B( 15-C , 44-O ) :   0.3656 B( 15-C , 45-O ) :   0.4413
B( 15-C , 46-C ) :   0.1577 B( 15-C , 47-H ) :   0.1016 B( 15-C , 49-C ) :   0.1605
B( 16-C , 17-C ) :   1.2411 B( 16-C , 18-C ) :  -0.1824 B( 16-C , 19-H ) :  -0.2838
B( 16-C , 22-H ) :   0.1819 B( 16-C , 23-O ) :  -0.6903 B( 16-C , 26-H ) :  -0.1042
B( 16-C , 30-C ) :  -0.2121 B( 16-C , 45-O ) :   0.1038 B( 16-C , 49-C ) :  -0.1385
B( 17-C , 18-C ) :   0.1280 B( 17-C , 21-H ) :  -0.1833 B( 17-C , 22-H ) :   1.0608
B( 17-C , 24-C ) :  -0.1659 B( 18-C , 20-H ) :   1.3135 B( 18-C , 21-H ) :   1.1413
B( 18-C , 25-C ) :  -0.1545 B( 18-C , 26-H ) :  -0.1420 B( 18-C , 27-C ) :   0.1608
B( 19-H , 23-O ) :  -0.1602 B( 19-H , 27-C ) :  -0.1983 B( 20-H , 21-H ) :   0.1008
B( 24-C , 25-C ) :  -0.2799 B( 24-C , 27-C ) :   1.6078 B( 24-C , 30-C ) :   0.1046
B( 24-C , 44-O ) :  -0.2483 B( 24-C , 45-O ) :  -0.9590 B( 24-C , 46-C ) :  -0.3736
B( 24-C , 47-H ) :  -0.1006 B( 24-C , 49-C ) :  -0.2190 B( 25-C , 26-H ) :   0.7962
B( 25-C , 27-C ) :   0.1867 B( 25-C , 28-H ) :  -0.1383 B( 25-C , 30-C ) :   0.4010
B( 25-C , 34-C ) :   0.8712 B( 25-C , 36-C ) :  -0.1131 B( 25-C , 40-C ) :  -0.1113
B( 25-C , 44-O ) :  -0.1256 B( 26-H , 27-C ) :  -0.1985 B( 26-H , 44-O ) :  -0.1132
B( 27-C , 28-H ) :   1.4167 B( 27-C , 29-H ) :   0.5520 B( 27-C , 30-C ) :  -0.1189
B( 27-C , 44-O ) :   0.3679 B( 30-C , 31-H ) :   1.0169 B( 30-C , 32-H ) :   1.2785
B( 30-C , 33-H ) :   1.2911 B( 32-H , 33-H ) :   0.1184 B( 34-C , 35-H ) :   0.9642
B( 34-C , 36-C ) :   0.2745 B( 34-C , 38-H ) :  -0.1222 B( 34-C , 40-C ) :   0.6751
B( 35-H , 36-C ) :  -0.1168 B( 36-C , 37-H ) :   1.0729 B( 36-C , 38-H ) :   1.1621
B( 36-C , 39-H ) :   1.1153 B( 36-C , 40-C ) :   0.1530 B( 40-C , 41-H ) :   0.7937
B( 40-C , 42-H ) :   1.2365 B( 40-C , 43-H ) :   1.1270 B( 44-O , 46-C ) :   0.1471
B( 44-O , 49-C ) :   1.0279 B( 45-O , 46-C ) :   1.2776 B( 46-C , 47-H ) :   0.9036
B( 46-C , 48-H ) :   0.9025 B( 46-C , 49-C ) :   1.0343 B( 49-C , 50-H ) :   0.8839
B( 49-C , 51-H ) :   0.8870

MP2 TOTAL ENERGY:    -1003.244548872 Eh
FINAL SINGLE POINT ENERGY     -1003.244548871922

DIPOLE MOMENT
-------------
                                X             Y             Z
Electronic contribution:      1.89467      18.97522       0.75935
Nuclear contribution   :     -3.24257     -19.78968      -1.94516
                        -----------------------------------------
Total Dipole Moment    :     -1.34790      -0.81447      -1.18581
                        -----------------------------------------
Magnitude (a.u.)       :      1.97138
Magnitude (Debye)      :      5.01084

Rotational constants in cm-1:     0.012492     0.007418     0.005500
Rotational constants in MHz :   374.510586   222.387969   164.898828

                             ****ORCA TERMINATED NORMALLY****
TOTAL RUN TIME: 0 days 2 hours 30 minutes 23 seconds 143 msec
