                         Program Version 4.2.1 -  RELEASE  -
|  1> %pal
|  2>  nprocs 32
|  3> end
|  4> !RI-MP2 aug-cc-pVTZ aug-cc-pVTZ/C TightSCF
|  5> %maxcore 4500
|  6> *xyzfile 0 2  01_3R.xyz
|  7>
|  8>
|  9>                          ****END OF INPUT****

CARTESIAN COORDINATES (ANGSTROEM)
---------------------------------
  C     -2.458829   -0.162747   -0.137240
  C     -1.121887    0.482729   -0.146767
  C      0.009691   -0.451075    0.299589
  C      1.337048    0.239097    0.359653
  C      2.404733   -0.098974   -0.348696
  H     -3.279311    0.247035   -0.711634
  H     -2.670794   -0.985949    0.534423
  H     -1.128033    1.365856    0.513414
  H     -0.898241    0.877095   -1.144117
  H      0.067078   -1.307954   -0.377047
  H     -0.238141   -0.846439    1.291797
  H      3.338164    0.444476   -0.265420
  H      2.383350   -0.937105   -1.037946
  H      1.401393    1.088808    1.037300

 Total Charge           Charge          ....    0
 Multiplicity           Mult            ....    2
 Number of Electrons    NEL             ....   39
 Basis Dimension        Dim             ....  437

ORBITAL ENERGIES
----------------
                 SPIN UP ORBITALS
  NO   OCC          E(Eh)            E(eV)
   0   1.0000     -11.231106      -305.6139
   1   1.0000     -11.229605      -305.5731
   2   1.0000     -11.226523      -305.4892
   3   1.0000     -11.225582      -305.4636
   4   1.0000     -11.218161      -305.2617
   5   1.0000      -1.094423       -29.7808
   6   1.0000      -1.030132       -28.0313
   7   1.0000      -0.925174       -25.1753
   8   1.0000      -0.811717       -22.0880
   9   1.0000      -0.758242       -20.6328
  10   1.0000      -0.653524       -17.7833
  11   1.0000      -0.613506       -16.6944
  12   1.0000      -0.599339       -16.3089
  13   1.0000      -0.578101       -15.7309
  14   1.0000      -0.540829       -14.7167
  15   1.0000      -0.499168       -13.5831
  16   1.0000      -0.496116       -13.5000
  17   1.0000      -0.480174       -13.0662
  18   1.0000      -0.364494        -9.9184
  19   1.0000      -0.347434        -9.4541
  20   0.0000       0.031125         0.8469
  21   0.0000       0.034835         0.9479
  22   0.0000       0.039231         1.0675
  23   0.0000       0.040347         1.0979
  24   0.0000       0.052439         1.4269

                 SPIN DOWN ORBITALS
  NO   OCC          E(Eh)            E(eV)
   0   1.0000     -11.231220      -305.6170
   1   1.0000     -11.228881      -305.5534
   2   1.0000     -11.225800      -305.4696
   3   1.0000     -11.218095      -305.2599
   4   1.0000     -11.206238      -304.9372
   5   1.0000      -1.088530       -29.6204
   6   1.0000      -1.012092       -27.5404
   7   1.0000      -0.894662       -24.3450
   8   1.0000      -0.776502       -21.1297
   9   1.0000      -0.757373       -20.6092
  10   1.0000      -0.650245       -17.6941
  11   1.0000      -0.605109       -16.4658
  12   1.0000      -0.589714       -16.0469
  13   1.0000      -0.569715       -15.5027
  14   1.0000      -0.530039       -14.4231
  15   1.0000      -0.492407       -13.3991
  16   1.0000      -0.487386       -13.2625
  17   1.0000      -0.476619       -12.9694
  18   1.0000      -0.361441        -9.8353
  19   0.0000       0.031511         0.8575
  20   0.0000       0.035175         0.9572
  21   0.0000       0.038936         1.0595
  22   0.0000       0.040478         1.1015
  23   0.0000       0.052173         1.4197

MULLIKEN ATOMIC CHARGES AND SPIN POPULATIONS
--------------------------------------------
   0 C :   -1.175215    1.223317
   1 C :   -0.184541   -0.208595
   2 C :   -0.117630    0.033414
   3 C :   -0.262948   -0.003792
   4 C :   -1.027807    0.004556
   5 H :    0.359186   -0.079495
   6 H :    0.419930   -0.053178
   7 H :    0.241496    0.068770
   8 H :    0.286572    0.023888
   9 H :    0.210162   -0.003533
  10 H :    0.284495   -0.005295
  11 H :    0.526673   -0.000147
  12 H :    0.230573    0.000230
  13 H :    0.209053   -0.000139
Sum of atomic charges         :   -0.0000000

LOEWDIN ATOMIC CHARGES AND SPIN POPULATIONS
-------------------------------------------
   0 C :    0.594632    0.566129
   1 C :    0.198757    0.131419
   2 C :    0.220728    0.010016
   3 C :    0.172041    0.000817
   4 C :    0.521598    0.001387
   5 H :   -0.227923    0.121170
   6 H :   -0.225543    0.123433
   7 H :   -0.155744    0.030831
   8 H :   -0.158482    0.010505
   9 H :   -0.157673    0.003608
  10 H :   -0.151326   -0.000475
  11 H :   -0.228530    0.000401
  12 H :   -0.220421    0.000366
  13 H :   -0.182115    0.000395

  Mayer bond orders larger than 0.100000
B(  0-C ,  1-C ) :   0.7341 B(  0-C ,  5-H ) :   0.8839 B(  0-C ,  6-H ) :   0.8117
B(  1-C ,  2-C ) :   0.9549 B(  1-C ,  7-H ) :   0.9490 B(  1-C ,  8-H ) :   0.9719
B(  2-C ,  3-C ) :   0.8168 B(  2-C ,  9-H ) :   0.9557 B(  2-C , 10-H ) :   0.9329
B(  3-C ,  4-C ) :   1.4371 B(  3-C , 13-H ) :   1.0975 B(  4-C , 11-H ) :   0.6220
B(  4-C , 12-H ) :   1.1127

MP2 TOTAL ENERGY:     -195.411648154 Eh
FINAL SINGLE POINT ENERGY      -195.411648154403

DIPOLE MOMENT
-------------
                                X             Y             Z
Electronic contribution:      0.98888       0.11094       0.22312
Nuclear contribution   :     -1.08557      -0.05741      -0.16872
                        -----------------------------------------
Total Dipole Moment    :     -0.09668       0.05354       0.05441
                        -----------------------------------------
Magnitude (a.u.)       :      0.12318
Magnitude (Debye)      :      0.31311

Rotational constants in cm-1:     0.653116     0.073690     0.072474
Rotational constants in MHz : 19579.928496  2209.162637  2172.708735

                             ****ORCA TERMINATED NORMALLY****
TOTAL RUN TIME: 0 days 0 hours 1 minutes 35 seconds 205 msec
