                         Program Version 4.2.1 -  RELEASE  -
|  1> %pal
|  2>  nprocs 32
|  3> end
|  4> !RI-MP2 aug-cc-pVTZ aug-cc-pVTZ/C TightSCF
|  5> %maxcore 4500
|  6> *xyzfile 0 1  03_22R1.xyz
|  7>
|  8>
|  9>                          ****END OF INPUT****

CARTESIAN COORDINATES (ANGSTROEM)
---------------------------------
  C     -1.636994    0.932424    0.095468
  C     -0.144418    0.777125   -0.145586
  C      2.269481   -0.429449   -0.493240
  C      2.985757   -0.082953    0.801556
  O      0.522906    1.774032   -0.245415
  Cl    -2.588011   -0.574216    0.180778
  H     -2.037889    1.542020   -0.711331
  H     -1.763549    1.465135    1.035749
  H      2.310040    0.396323   -1.202164
  H      2.703487   -1.310359   -0.967514
  H      2.550615    0.805655    1.258320
  H      4.039240    0.124457    0.598696
  H      2.932079   -0.905624    1.516262
  S      0.514747   -0.858192   -0.261694

 Total Charge           Charge          ....    0
 Multiplicity           Mult            ....    1
 Number of Electrons    NEL             ....   72
 Basis Dimension        Dim             ....  491

ORBITAL ENERGIES
----------------

  NO   OCC          E(Eh)            E(eV)
   0   2.0000    -104.844174     -2852.9550
   1   2.0000     -91.977731     -2502.8413
   2   2.0000     -20.567947      -559.6823
   3   2.0000     -11.378173      -309.6158
   4   2.0000     -11.319317      -308.0143
   5   2.0000     -11.268259      -306.6249
   6   2.0000     -11.226430      -305.4867
   7   2.0000     -10.568352      -287.5795
   8   2.0000      -8.979215      -244.3369
   9   2.0000      -8.035204      -218.6490
  10   2.0000      -8.033340      -218.5983
  11   2.0000      -8.033267      -218.5963
  12   2.0000      -6.660278      -181.2354
  13   2.0000      -6.659124      -181.2040
  14   2.0000      -6.658514      -181.1874
  15   2.0000      -1.420851       -38.6633
  16   2.0000      -1.157277       -31.4911
  17   2.0000      -1.088516       -29.6200
  18   2.0000      -0.998741       -27.1771
  19   2.0000      -0.954069       -25.9615
  20   2.0000      -0.849021       -23.1030
  21   2.0000      -0.741027       -20.1644
  22   2.0000      -0.671294       -18.2668
  23   2.0000      -0.664670       -18.0866
  24   2.0000      -0.662175       -18.0187
  25   2.0000      -0.607396       -16.5281
  26   2.0000      -0.589243       -16.0341
  27   2.0000      -0.556716       -15.1490
  28   2.0000      -0.551970       -15.0199
  29   2.0000      -0.537531       -14.6270
  30   2.0000      -0.508312       -13.8319
  31   2.0000      -0.478110       -13.0100
  32   2.0000      -0.464073       -12.6281
  33   2.0000      -0.452017       -12.3000
  34   2.0000      -0.412035       -11.2120
  35   2.0000      -0.377550       -10.2737
  36   0.0000       0.029799         0.8109
  37   0.0000       0.034177         0.9300
  38   0.0000       0.038937         1.0595
  39   0.0000       0.044458         1.2098
  40   0.0000       0.051828         1.4103

MULLIKEN ATOMIC CHARGES
-----------------------
   0 C :   -0.081449
   1 C :    0.628538
   2 C :   -0.367849
   3 C :   -0.912280
   4 O :   -0.831015
   5 Cl:   -0.309857
   6 H :    0.298384
   7 H :    0.289754
   8 H :    0.234654
   9 H :    0.296978
  10 H :    0.347488
  11 H :    0.275491
  12 H :    0.284511
  13 S :   -0.153349
Sum of atomic charges:   -0.0000000

LOEWDIN ATOMIC CHARGES
----------------------
   0 C :   -0.372026
   1 C :   -1.015955
   2 C :   -0.084632
   3 C :    0.506872
   4 O :    0.405779
   5 Cl:    0.894096
   6 H :   -0.251996
   7 H :   -0.251062
   8 H :   -0.239511
   9 H :   -0.230237
  10 H :   -0.192420
  11 H :   -0.173612
  12 H :   -0.184400
  13 S :    1.189102

  Mayer bond orders larger than 0.100000
B(  0-C ,  1-C ) :   0.6900 B(  0-C ,  5-Cl) :   0.7631 B(  0-C ,  6-H ) :   0.9441
B(  0-C ,  7-H ) :   0.9445 B(  1-C ,  4-O ) :   1.4940 B(  1-C , 13-S ) :   1.0074
B(  2-C ,  3-C ) :   0.9216 B(  2-C ,  8-H ) :   0.9402 B(  2-C ,  9-H ) :   0.9206
B(  2-C , 13-S ) :   0.9556 B(  3-C , 10-H ) :   0.8896 B(  3-C , 11-H ) :   0.9505
B(  3-C , 12-H ) :   0.9484

MP2 TOTAL ENERGY:    -1088.863679416 Eh
FINAL SINGLE POINT ENERGY     -1088.863679416440

DIPOLE MOMENT
-------------
                                X             Y             Z
Electronic contribution:    -13.73791      -2.95071      -1.21599
Nuclear contribution   :     14.07597       2.92033       1.24244
                        -----------------------------------------
Total Dipole Moment    :      0.33806      -0.03038       0.02645
                        -----------------------------------------
Magnitude (a.u.)       :      0.34045
Magnitude (Debye)      :      0.86535

Rotational constants in cm-1:     0.123242     0.032062     0.027386
Rotational constants in MHz :  3694.693609   961.185925   821.021391

                             ****ORCA TERMINATED NORMALLY****
TOTAL RUN TIME: 0 days 0 hours 2 minutes 12 seconds 454 msec
