                         Program Version 4.2.1 -  RELEASE  -
|  1> %pal
|  2>  nprocs 32
|  3> end
|  4> !RI-MP2 aug-cc-pVTZ aug-cc-pVTZ/C TightSCF
|  5> %maxcore 4500
|  6> *xyzfile 0 1  02_48TS.xyz
|  7>
|  8>
|  9>                          ****END OF INPUT****

CARTESIAN COORDINATES (ANGSTROEM)
---------------------------------
  C     -2.767155   -0.702362   -1.889792
  C     -2.071275   -1.397357   -0.932193
  C     -1.360629   -0.700105    0.060171
  C     -1.360629    0.700105    0.060171
  C     -2.071275    1.397357   -0.932193
  C     -2.767155    0.702362   -1.889792
  H     -3.319519   -1.237578   -2.652451
  H     -2.070640   -2.479436   -0.938065
  C     -0.595738   -1.332560    1.097453
  C     -0.595738    1.332560    1.097453
  H     -2.070640    2.479436   -0.938065
  H     -3.319519    1.237578   -2.652451
  N     -0.228628   -0.658247    2.183427
  N     -0.228628    0.658247    2.183427
  C     -0.459656    2.822883    1.174341
  H     -0.079452    3.238245    0.239956
  H     -1.428414    3.287597    1.378271
  H      0.220955    3.074503    1.984723
  C     -0.459655   -2.822883    1.174341
  H     -1.428414   -3.287597    1.378271
  H     -0.079452   -3.238245    0.239956
  H      0.220955   -3.074503    1.984723
  C      3.491587   -0.699655   -1.174859
  C      2.478212   -1.440532   -0.550879
  C      1.534266   -0.627740    0.036207
  C      1.534266    0.627740    0.036207
  C      2.478212    1.440532   -0.550879
  C      3.491587    0.699655   -1.174859
  H      4.300750   -1.225860   -1.668804
  H      2.479051   -2.523424   -0.550310
  H      2.479051    2.523424   -0.550310
  H      4.300750    1.225860   -1.668804

 Total Charge           Charge          ....    0
 Multiplicity           Mult            ....    1
 Number of Electrons    NEL             ....  124
 Basis Dimension        Dim             .... 1150

ORBITAL ENERGIES
----------------

  NO   OCC          E(Eh)            E(eV)
   0   2.0000     -15.591406      -424.2637
   1   2.0000     -15.590533      -424.2400
   2   2.0000     -11.293449      -307.3104
   3   2.0000     -11.293424      -307.3097
   4   2.0000     -11.258338      -306.3550
   5   2.0000     -11.258323      -306.3546
   6   2.0000     -11.255665      -306.2822
   7   2.0000     -11.254495      -306.2504
   8   2.0000     -11.252247      -306.1892
   9   2.0000     -11.251585      -306.1712
  10   2.0000     -11.250673      -306.1464
  11   2.0000     -11.250179      -306.1329
  12   2.0000     -11.240500      -305.8696
  13   2.0000     -11.239307      -305.8371
  14   2.0000     -11.232852      -305.6615
  15   2.0000     -11.229993      -305.5837
  16   2.0000     -11.229499      -305.5702
  17   2.0000     -11.229499      -305.5702
  18   2.0000      -1.342762       -36.5384
  19   2.0000      -1.179115       -32.0854
  20   2.0000      -1.164555       -31.6892
  21   2.0000      -1.139204       -30.9993
  22   2.0000      -1.072763       -29.1914
  23   2.0000      -1.035153       -28.1679
  24   2.0000      -1.019316       -27.7370
  25   2.0000      -1.007407       -27.4129
  26   2.0000      -1.001050       -27.2399
  27   2.0000      -0.948918       -25.8214
  28   2.0000      -0.881760       -23.9939
  29   2.0000      -0.872664       -23.7464
  30   2.0000      -0.836662       -22.7667
  31   2.0000      -0.804404       -21.8890
  32   2.0000      -0.787906       -21.4400
  33   2.0000      -0.742130       -20.1944
  34   2.0000      -0.718805       -19.5597
  35   2.0000      -0.689767       -18.7695
  36   2.0000      -0.672793       -18.3076
  37   2.0000      -0.640354       -17.4249
  38   2.0000      -0.631943       -17.1960
  39   2.0000      -0.628064       -17.0905
  40   2.0000      -0.623690       -16.9715
  41   2.0000      -0.614864       -16.7313
  42   2.0000      -0.595990       -16.2177
  43   2.0000      -0.591220       -16.0879
  44   2.0000      -0.581756       -15.8304
  45   2.0000      -0.554956       -15.1011
  46   2.0000      -0.545410       -14.8413
  47   2.0000      -0.544592       -14.8191
  48   2.0000      -0.542862       -14.7720
  49   2.0000      -0.533754       -14.5242
  50   2.0000      -0.531928       -14.4745
  51   2.0000      -0.522554       -14.2194
  52   2.0000      -0.517515       -14.0823
  53   2.0000      -0.499894       -13.6028
  54   2.0000      -0.457804       -12.4575
  55   2.0000      -0.394910       -10.7461
  56   2.0000      -0.386904       -10.5282
  57   2.0000      -0.376176       -10.2363
  58   2.0000      -0.343510        -9.3474
  59   2.0000      -0.341274        -9.2865
  60   2.0000      -0.327656        -8.9160
  61   2.0000      -0.315889        -8.5958
  62   0.0000       0.022584         0.6146
  63   0.0000       0.026173         0.7122
  64   0.0000       0.029936         0.8146
  65   0.0000       0.035774         0.9735
  66   0.0000       0.037777         1.0280

MULLIKEN ATOMIC CHARGES
-----------------------
   0 C :   -0.323876
   1 C :   -1.116431
   2 C :    1.188861
   3 C :    1.189014
   4 C :   -1.116418
   5 C :   -0.323762
   6 H :    0.576921
   7 H :   -0.166216
   8 C :    1.132657
   9 C :    1.132766
  10 H :   -0.166207
  11 H :    0.576866
  12 N :   -0.853965
  13 N :   -0.853829
  14 C :   -1.114327
  15 H :    0.295517
  16 H :    0.275543
  17 H :    0.211044
  18 C :   -1.114186
  19 H :    0.275536
  20 H :    0.295530
  21 H :    0.211049
  22 C :   -0.245025
  23 C :   -1.108162
  24 C :    0.482953
  25 C :    0.482805
  26 C :   -1.108167
  27 C :   -0.245072
  28 H :    0.494693
  29 H :    0.269598
  30 H :    0.269612
  31 H :    0.494675
Sum of atomic charges:   -0.0000000

LOEWDIN ATOMIC CHARGES
----------------------
   0 C :    0.222161
   1 C :    0.242369
   2 C :   -0.121714
   3 C :   -0.121714
   4 C :    0.242369
   5 C :    0.222162
   6 H :   -0.177370
   7 H :   -0.178521
   8 C :   -0.335357
   9 C :   -0.335357
  10 H :   -0.178521
  11 H :   -0.177370
  12 N :    0.238565
  13 N :    0.238565
  14 C :    0.569621
  15 H :   -0.173058
  16 H :   -0.156734
  17 H :   -0.170310
  18 C :    0.569621
  19 H :   -0.156734
  20 H :   -0.173059
  21 H :   -0.170311
  22 C :    0.188116
  23 C :    0.185543
  24 C :    0.045495
  25 C :    0.045495
  26 C :    0.185543
  27 C :    0.188116
  28 H :   -0.187539
  29 H :   -0.191267
  30 H :   -0.191267
  31 H :   -0.187539

  Mayer bond orders larger than 0.100000
B(  0-C ,  1-C ) :   1.0430 B(  0-C ,  5-C ) :   1.0041 B(  0-C ,  6-H ) :   0.5860
B(  0-C ,  7-H ) :  -0.2050 B(  1-C ,  2-C ) :  -0.1315 B(  1-C ,  6-H ) :  -0.1541
B(  1-C ,  7-H ) :   2.1500 B(  1-C ,  8-C ) :   0.1346 B(  1-C , 12-N ) :  -0.1294
B(  2-C ,  3-C ) :   0.5269 B(  2-C ,  7-H ) :  -0.1517 B(  2-C ,  8-C ) :   0.8872
B(  2-C , 11-H ) :   0.1574 B(  2-C , 12-N ) :   0.2705 B(  2-C , 18-C ) :   0.1523
B(  2-C , 24-C ) :   0.1922 B(  2-C , 25-C ) :  -0.1719 B(  3-C ,  4-C ) :  -0.1312
B(  3-C ,  6-H ) :   0.1574 B(  3-C ,  9-C ) :   0.8871 B(  3-C , 10-H ) :  -0.1516
B(  3-C , 13-N ) :   0.2702 B(  3-C , 14-C ) :   0.1523 B(  3-C , 24-C ) :  -0.1719
B(  3-C , 25-C ) :   0.1923 B(  4-C ,  5-C ) :   1.0430 B(  4-C ,  9-C ) :   0.1344
B(  4-C , 10-H ) :   2.1499 B(  4-C , 11-H ) :  -0.1541 B(  4-C , 13-N ) :  -0.1293
B(  5-C , 10-H ) :  -0.2050 B(  5-C , 11-H ) :   0.5861 B(  7-H ,  8-C ) :  -0.1801
B(  8-C , 12-N ) :   0.1216 B(  8-C , 13-N ) :   0.3992 B(  8-C , 18-C ) :   0.2530
B(  8-C , 24-C ) :   0.3105 B(  9-C , 10-H ) :  -0.1799 B(  9-C , 12-N ) :   0.3992
B(  9-C , 13-N ) :   0.1218 B(  9-C , 14-C ) :   0.2528 B(  9-C , 25-C ) :   0.3104
B( 12-N , 13-N ) :  -0.5370 B( 12-N , 18-C ) :   0.1300 B( 12-N , 24-C ) :   0.1755
B( 13-N , 14-C ) :   0.1301 B( 13-N , 25-C ) :   0.1756 B( 14-C , 15-H ) :   1.0484
B( 14-C , 16-H ) :   1.0512 B( 14-C , 17-H ) :   1.1074 B( 18-C , 19-H ) :   1.0512
B( 18-C , 20-H ) :   1.0484 B( 18-C , 21-H ) :   1.1074 B( 22-C , 23-C ) :   1.0001
B( 22-C , 25-C ) :   0.1948 B( 22-C , 27-C ) :   0.9976 B( 22-C , 28-H ) :   0.7363
B( 22-C , 29-H ) :  -0.1045 B( 22-C , 31-H ) :  -0.1155 B( 23-C , 24-C ) :   0.3951
B( 23-C , 25-C ) :   0.1510 B( 23-C , 26-C ) :   0.2567 B( 23-C , 28-H ) :  -0.1058
B( 23-C , 29-H ) :   1.3494 B( 24-C , 25-C ) :   1.7059 B( 24-C , 26-C ) :   0.1509
B( 24-C , 27-C ) :   0.1948 B( 24-C , 28-H ) :  -0.1638 B( 24-C , 29-H ) :  -0.1244
B( 24-C , 31-H ) :   0.1273 B( 25-C , 26-C ) :   0.3950 B( 25-C , 28-H ) :   0.1274
B( 25-C , 30-H ) :  -0.1244 B( 25-C , 31-H ) :  -0.1638 B( 26-C , 27-C ) :   1.0003
B( 26-C , 30-H ) :   1.3493 B( 26-C , 31-H ) :  -0.1058 B( 27-C , 28-H ) :  -0.1155
B( 27-C , 30-H ) :  -0.1044 B( 27-C , 31-H ) :   0.7363

MP2 TOTAL ENERGY:     -726.018868504 Eh
FINAL SINGLE POINT ENERGY      -726.018868503962

DIPOLE MOMENT
-------------
                                X             Y             Z
Electronic contribution:     -0.70832      -0.00000       2.70821
Nuclear contribution   :      0.20155       0.00000      -4.36112
                        -----------------------------------------
Total Dipole Moment    :     -0.50678      -0.00000      -1.65291
                        -----------------------------------------
Magnitude (a.u.)       :      1.72886
Magnitude (Debye)      :      4.39440

Rotational constants in cm-1:     0.019648     0.012917     0.011961
Rotational constants in MHz :   589.030650   387.244682   358.579718

                             ****ORCA TERMINATED NORMALLY****
TOTAL RUN TIME: 0 days 0 hours 33 minutes 14 seconds 26 msec
