                         Program Version 4.2.1 -  RELEASE  -
|  1> %pal
|  2>  nprocs 32
|  3> end
|  4> !RI-MP2 aug-cc-pVTZ aug-cc-pVTZ/C TightSCF
|  5> %maxcore 4500
|  6> *xyzfile -1 1  09_10P.xyz
|  7>
|  8>
|  9>                          ****END OF INPUT****

CARTESIAN COORDINATES (ANGSTROEM)
---------------------------------
  C      0.925359   -0.017711    0.314155
  C      0.024476   -1.242976   -0.002875
  C     -1.359078   -0.993447    0.573992
  H      0.461668   -2.119930    0.471243
  H     -0.029783   -1.457493   -1.081752
  C     -1.988807    0.249931   -0.049063
  C     -1.063427    1.464810    0.035154
  C      0.341077    1.230983   -0.440583
  O      1.027781    0.212364    1.625788
  C      2.335691   -0.313058   -0.225153
  O      2.818049   -1.402728   -0.437883
  O      3.105168    0.798847   -0.361522
  O     -1.478691    2.523487    0.445930
  O     -2.321584   -0.009249   -1.427310
  H     -2.934741    0.495120    0.430638
  O     -2.246523   -2.098615    0.406824
  H     -1.244458   -0.829755    1.644485
  H      3.994931    0.472711   -0.548819
  H     -2.550256   -2.064403   -0.506888
  H     -1.501224   -0.148842   -1.910408
  H      0.946176    2.105328   -0.214916
  H      0.332335    1.083223   -1.531963

 Total Charge           Charge          ....   -1
 Multiplicity           Mult            ....    1
 Number of Electrons    NEL             ....  100
 Basis Dimension        Dim             ....  805

ORBITAL ENERGIES
----------------

  NO   OCC          E(Eh)            E(eV)
   0   2.0000     -20.473197      -557.1040
   1   2.0000     -20.467221      -556.9414
   2   2.0000     -20.437294      -556.1270
   3   2.0000     -20.423810      -555.7601
   4   2.0000     -20.407367      -555.3127
   5   2.0000     -20.275327      -551.7197
   6   2.0000     -11.232699      -305.6573
   7   2.0000     -11.202204      -304.8275
   8   2.0000     -11.168278      -303.9043
   9   2.0000     -11.150023      -303.4075
  10   2.0000     -11.137406      -303.0642
  11   2.0000     -11.093634      -301.8731
  12   2.0000     -11.080348      -301.5116
  13   2.0000      -1.325242       -36.0617
  14   2.0000      -1.279456       -34.8158
  15   2.0000      -1.259036       -34.2601
  16   2.0000      -1.234170       -33.5835
  17   2.0000      -1.216801       -33.1108
  18   2.0000      -1.106510       -30.1097
  19   2.0000      -0.942833       -25.6558
  20   2.0000      -0.869529       -23.6611
  21   2.0000      -0.845598       -23.0099
  22   2.0000      -0.758185       -20.6313
  23   2.0000      -0.703563       -19.1449
  24   2.0000      -0.647701       -17.6249
  25   2.0000      -0.609538       -16.5864
  26   2.0000      -0.594206       -16.1692
  27   2.0000      -0.567094       -15.4314
  28   2.0000      -0.549319       -14.9477
  29   2.0000      -0.537827       -14.6350
  30   2.0000      -0.524290       -14.2667
  31   2.0000      -0.503408       -13.6984
  32   2.0000      -0.489622       -13.3233
  33   2.0000      -0.484090       -13.1727
  34   2.0000      -0.470787       -12.8108
  35   2.0000      -0.455529       -12.3956
  36   2.0000      -0.443557       -12.0698
  37   2.0000      -0.421798       -11.4777
  38   2.0000      -0.413452       -11.2506
  39   2.0000      -0.404604       -11.0098
  40   2.0000      -0.381811       -10.3896
  41   2.0000      -0.373440       -10.1618
  42   2.0000      -0.351337        -9.5604
  43   2.0000      -0.340623        -9.2688
  44   2.0000      -0.332455        -9.0466
  45   2.0000      -0.323729        -8.8091
  46   2.0000      -0.310810        -8.4576
  47   2.0000      -0.274461        -7.4685
  48   2.0000      -0.190335        -5.1793
  49   2.0000      -0.188202        -5.1212
  50   0.0000       0.109969         2.9924
  51   0.0000       0.113405         3.0859
  52   0.0000       0.120288         3.2732
  53   0.0000       0.122847         3.3428
  54   0.0000       0.135917         3.6985

MULLIKEN ATOMIC CHARGES
-----------------------
   0 C :    1.629173
   1 C :   -0.557328
   2 C :    0.319874
   3 H :    0.326185
   4 H :    0.116141
   5 C :    0.472723
   6 C :    0.595859
   7 C :   -0.440292
   8 O :   -1.428412
   9 C :    0.464423
  10 O :   -0.986072
  11 O :   -0.489750
  12 O :   -1.198818
  13 O :   -0.779915
  14 H :    0.330292
  15 O :   -0.931605
  16 H :    0.437151
  17 H :    0.212728
  18 H :    0.176681
  19 H :    0.189575
  20 H :    0.319936
  21 H :    0.221452
Sum of atomic charges:   -1.0000000

LOEWDIN ATOMIC CHARGES
----------------------
   0 C :   -0.873191
   1 C :    0.247931
   2 C :   -0.259052
   3 H :   -0.154905
   4 H :   -0.155479
   5 C :   -0.214536
   6 C :   -0.496511
   7 C :    0.257492
   8 O :    0.292028
   9 C :   -0.810037
  10 O :    0.430903
  11 O :    0.823676
  12 O :    0.466122
  13 O :    0.839603
  14 H :   -0.156889
  15 O :    0.826099
  16 H :   -0.155959
  17 H :   -0.503402
  18 H :   -0.538007
  19 H :   -0.532634
  20 H :   -0.176937
  21 H :   -0.156314

  Mayer bond orders larger than 0.100000
B(  0-C ,  1-C ) :   0.9046 B(  0-C ,  6-C ) :   0.1751 B(  0-C ,  7-C ) :   0.9358
B(  0-C ,  9-C ) :   0.2952 B(  1-C ,  2-C ) :   1.0096 B(  1-C ,  3-H ) :   0.8576
B(  1-C ,  4-H ) :   1.0353 B(  1-C ,  8-O ) :   0.1622 B(  1-C , 15-O ) :   0.1438
B(  2-C ,  5-C ) :   1.0381 B(  2-C , 13-O ) :   0.1506 B(  2-C , 16-H ) :   0.8614
B(  5-C ,  6-C ) :   0.8530 B(  5-C , 13-O ) :   0.2939 B(  5-C , 14-H ) :   0.8903
B(  5-C , 15-O ) :   0.1785 B(  6-C ,  7-C ) :   0.8193 B(  6-C , 12-O ) :   0.5243
B(  6-C , 13-O ) :   0.1121 B(  7-C ,  8-O ) :   0.2013 B(  7-C , 20-H ) :   0.9168
B(  7-C , 21-H ) :   0.9860 B(  8-O ,  9-C ) :   0.1424 B(  9-C , 10-O ) :   1.1380
B(  9-C , 11-O ) :   0.8742 B( 11-O , 17-H ) :   0.9627 B( 13-O , 19-H ) :   0.9817
B( 15-O , 18-H ) :   1.0219

MP2 TOTAL ENERGY:     -722.400802041 Eh
FINAL SINGLE POINT ENERGY      -722.400802041012

DIPOLE MOMENT
-------------
                                X             Y             Z
Electronic contribution:      2.15065       2.17512       0.87532
Nuclear contribution   :     -2.46843      -2.42180      -3.18928
                        -----------------------------------------
Total Dipole Moment    :     -0.31778      -0.24668      -2.31397
                        -----------------------------------------
Magnitude (a.u.)       :      2.34868
Magnitude (Debye)      :      5.96986

Rotational constants in cm-1:     0.040761     0.021017     0.016759
Rotational constants in MHz :  1221.982292   630.070670   502.423154

                             ****ORCA TERMINATED NORMALLY****
TOTAL RUN TIME: 0 days 0 hours 10 minutes 1 seconds 671 msec
