                         Program Version 4.2.1 -  RELEASE  -
|  1> %pal
|  2>  nprocs 32
|  3> end
|  4> !RI-MP2 aug-cc-pVTZ aug-cc-pVTZ/C TightSCF
|  5> %maxcore 4500
|  6> *xyzfile 0 1  02_48P.xyz
|  7>
|  8>
|  9>                          ****END OF INPUT****

CARTESIAN COORDINATES (ANGSTROEM)
---------------------------------
  C      3.311522    0.693859   -1.180634
  C      2.262875    1.397528   -0.596839
  C      1.211432    0.696477   -0.033969
  C      1.211432   -0.696477   -0.033969
  C      2.262875   -1.397528   -0.596839
  C      3.311522   -0.693859   -1.180634
  H      4.134006    1.233881   -1.633569
  H      2.273013    2.480138   -0.590213
  C      0.000000    1.279301    0.655385
  C      0.000000   -1.279301    0.655385
  H      2.273013   -2.480138   -0.590213
  H      4.134006   -1.233881   -1.633569
  N      0.000000    0.607795    2.047139
  N      0.000000   -0.607795    2.047139
  C      0.000000   -2.773927    0.860379
  H      0.000000   -3.303406   -0.093729
  H      0.881578   -3.074435    1.427024
  H     -0.881578   -3.074435    1.427024
  C      0.000000    2.773927    0.860379
  H      0.881578    3.074435    1.427024
  H      0.000000    3.303406   -0.093729
  H     -0.881578    3.074435    1.427024
  C     -3.311522    0.693859   -1.180634
  C     -2.262875    1.397528   -0.596839
  C     -1.211432    0.696477   -0.033969
  C     -1.211432   -0.696477   -0.033969
  C     -2.262875   -1.397528   -0.596839
  C     -3.311522   -0.693859   -1.180634
  H     -4.134006    1.233881   -1.633569
  H     -2.273013    2.480138   -0.590213
  H     -4.134006   -1.233881   -1.633569
  H     -2.273013   -2.480138   -0.590213

 Total Charge           Charge          ....    0
 Multiplicity           Mult            ....    1
 Number of Electrons    NEL             ....  124
 Basis Dimension        Dim             .... 1150

ORBITAL ENERGIES
----------------

  NO   OCC          E(Eh)            E(eV)
   0   2.0000     -15.623402      -425.1344
   1   2.0000     -15.621813      -425.0911
   2   2.0000     -11.286159      -307.1120
   3   2.0000     -11.286139      -307.1115
   4   2.0000     -11.246293      -306.0272
   5   2.0000     -11.246277      -306.0268
   6   2.0000     -11.245063      -305.9937
   7   2.0000     -11.245058      -305.9936
   8   2.0000     -11.241202      -305.8887
   9   2.0000     -11.241202      -305.8887
  10   2.0000     -11.241127      -305.8866
  11   2.0000     -11.241126      -305.8866
  12   2.0000     -11.239021      -305.8293
  13   2.0000     -11.239020      -305.8293
  14   2.0000     -11.237822      -305.7967
  15   2.0000     -11.237822      -305.7967
  16   2.0000     -11.227273      -305.5096
  17   2.0000     -11.227272      -305.5096
  18   2.0000      -1.382895       -37.6305
  19   2.0000      -1.193164       -32.4677
  20   2.0000      -1.160406       -31.5762
  21   2.0000      -1.116852       -30.3911
  22   2.0000      -1.094793       -29.7908
  23   2.0000      -1.025947       -27.9174
  24   2.0000      -1.017886       -27.6981
  25   2.0000      -1.007878       -27.4257
  26   2.0000      -0.994328       -27.0570
  27   2.0000      -0.913894       -24.8683
  28   2.0000      -0.900642       -24.5077
  29   2.0000      -0.843740       -22.9593
  30   2.0000      -0.829448       -22.5704
  31   2.0000      -0.829157       -22.5625
  32   2.0000      -0.791486       -21.5374
  33   2.0000      -0.725059       -19.7299
  34   2.0000      -0.720874       -19.6160
  35   2.0000      -0.715196       -19.4615
  36   2.0000      -0.674313       -18.3490
  37   2.0000      -0.644138       -17.5279
  38   2.0000      -0.633937       -17.2503
  39   2.0000      -0.633378       -17.2351
  40   2.0000      -0.616808       -16.7842
  41   2.0000      -0.615125       -16.7384
  42   2.0000      -0.614672       -16.7261
  43   2.0000      -0.595532       -16.2053
  44   2.0000      -0.567592       -15.4450
  45   2.0000      -0.551524       -15.0077
  46   2.0000      -0.546929       -14.8827
  47   2.0000      -0.545359       -14.8400
  48   2.0000      -0.542239       -14.7551
  49   2.0000      -0.532726       -14.4962
  50   2.0000      -0.527921       -14.3655
  51   2.0000      -0.515791       -14.0354
  52   2.0000      -0.513278       -13.9670
  53   2.0000      -0.495459       -13.4821
  54   2.0000      -0.477245       -12.9865
  55   2.0000      -0.469133       -12.7658
  56   2.0000      -0.465248       -12.6600
  57   2.0000      -0.387688       -10.5495
  58   2.0000      -0.355908        -9.6848
  59   2.0000      -0.341948        -9.3049
  60   2.0000      -0.327360        -8.9079
  61   2.0000      -0.315756        -8.5922
  62   0.0000       0.024235         0.6595
  63   0.0000       0.026992         0.7345
  64   0.0000       0.028189         0.7671
  65   0.0000       0.036774         1.0007
  66   0.0000       0.038023         1.0346

MULLIKEN ATOMIC CHARGES
-----------------------
   0 C :   -0.437436
   1 C :   -0.802246
   2 C :    0.792761
   3 C :    0.793561
   4 C :   -0.802429
   5 C :   -0.437472
   6 H :    0.506783
   7 H :   -0.127228
   8 C :    1.311193
   9 C :    1.310305
  10 H :   -0.127230
  11 H :    0.506726
  12 N :   -0.595333
  13 N :   -0.595227
  14 C :   -1.316695
  15 H :    0.329515
  16 H :    0.203116
  17 H :    0.202928
  18 C :   -1.316910
  19 H :    0.203079
  20 H :    0.329474
  21 H :    0.202970
  22 C :   -0.437522
  23 C :   -0.802119
  24 C :    0.792976
  25 C :    0.793112
  26 C :   -0.802326
  27 C :   -0.437449
  28 H :    0.506796
  29 H :   -0.127369
  30 H :    0.506850
  31 H :   -0.127155
Sum of atomic charges:    0.0000000

LOEWDIN ATOMIC CHARGES
----------------------
   0 C :    0.211855
   1 C :    0.247152
   2 C :   -0.087594
   3 C :   -0.087593
   4 C :    0.247152
   5 C :    0.211855
   6 H :   -0.181823
   7 H :   -0.178422
   8 C :   -0.412603
   9 C :   -0.412603
  10 H :   -0.178422
  11 H :   -0.181823
  12 N :    0.279215
  13 N :    0.279215
  14 C :    0.575700
  15 H :   -0.157033
  16 H :   -0.153808
  17 H :   -0.153808
  18 C :    0.575700
  19 H :   -0.153808
  20 H :   -0.157033
  21 H :   -0.153809
  22 C :    0.211855
  23 C :    0.247152
  24 C :   -0.087593
  25 C :   -0.087593
  26 C :    0.247152
  27 C :    0.211855
  28 H :   -0.181823
  29 H :   -0.178422
  30 H :   -0.181823
  31 H :   -0.178422

  Mayer bond orders larger than 0.100000
B(  0-C ,  1-C ) :   0.8205 B(  0-C ,  2-C ) :   0.1563 B(  0-C ,  3-C ) :   0.3134
B(  0-C ,  4-C ) :  -0.1064 B(  0-C ,  5-C ) :   1.0011 B(  0-C ,  6-H ) :   0.7460
B(  0-C ,  7-H ) :  -0.2383 B(  1-C ,  3-C ) :  -0.2869 B(  1-C ,  5-C ) :  -0.1065
B(  1-C ,  7-H ) :   1.9460 B(  1-C ,  8-C ) :   0.3702 B(  2-C ,  4-C ) :  -0.2870
B(  2-C ,  5-C ) :   0.3135 B(  2-C ,  6-H ) :  -0.1417 B(  2-C ,  7-H ) :  -0.2430
B(  2-C ,  8-C ) :   0.1620 B(  2-C ,  9-C ) :   0.3917 B(  2-C , 12-N ) :   0.2110
B(  2-C , 13-N ) :  -0.1797 B(  2-C , 18-C ) :   0.1706 B(  2-C , 24-C ) :   0.9057
B(  2-C , 25-C ) :  -0.4746 B(  3-C ,  5-C ) :   0.1563 B(  3-C ,  8-C ) :   0.3917
B(  3-C ,  9-C ) :   0.1628 B(  3-C , 10-H ) :  -0.2431 B(  3-C , 11-H ) :  -0.1417
B(  3-C , 12-N ) :  -0.1799 B(  3-C , 13-N ) :   0.2106 B(  3-C , 14-C ) :   0.1704
B(  3-C , 24-C ) :  -0.4742 B(  3-C , 25-C ) :   0.9053 B(  4-C ,  5-C ) :   0.8205
B(  4-C ,  9-C ) :   0.3705 B(  4-C , 10-H ) :   1.9460 B(  5-C , 10-H ) :  -0.2383
B(  5-C , 11-H ) :   0.7461 B(  8-C ,  9-C ) :  -0.1923 B(  8-C , 12-N ) :   0.1234
B(  8-C , 13-N ) :   0.6113 B(  8-C , 18-C ) :  -0.2371 B(  8-C , 19-H ) :  -0.2586
B(  8-C , 20-H ) :  -0.1476 B(  8-C , 21-H ) :  -0.2586 B(  8-C , 23-C ) :   0.3705
B(  8-C , 24-C ) :   0.1622 B(  8-C , 25-C ) :   0.3917 B(  9-C , 12-N ) :   0.6115
B(  9-C , 13-N ) :   0.1242 B(  9-C , 14-C ) :  -0.2369 B(  9-C , 15-H ) :  -0.1476
B(  9-C , 16-H ) :  -0.2585 B(  9-C , 17-H ) :  -0.2587 B(  9-C , 24-C ) :   0.3918
B(  9-C , 25-C ) :   0.1624 B(  9-C , 26-C ) :   0.3706 B( 12-N , 13-N ) :  -0.1956
B( 12-N , 18-C ) :   0.1176 B( 12-N , 24-C ) :   0.2108 B( 12-N , 25-C ) :  -0.1798
B( 13-N , 14-C ) :   0.1175 B( 13-N , 24-C ) :  -0.1797 B( 13-N , 25-C ) :   0.2108
B( 14-C , 15-H ) :   1.0558 B( 14-C , 16-H ) :   1.2205 B( 14-C , 17-H ) :   1.2208
B( 14-C , 25-C ) :   0.1712 B( 18-C , 19-H ) :   1.2206 B( 18-C , 20-H ) :   1.0558
B( 18-C , 21-H ) :   1.2208 B( 18-C , 24-C ) :   0.1709 B( 22-C , 23-C ) :   0.8206
B( 22-C , 24-C ) :   0.1564 B( 22-C , 25-C ) :   0.3135 B( 22-C , 26-C ) :  -0.1063
B( 22-C , 27-C ) :   1.0009 B( 22-C , 28-H ) :   0.7460 B( 22-C , 29-H ) :  -0.2383
B( 23-C , 25-C ) :  -0.2871 B( 23-C , 27-C ) :  -0.1064 B( 23-C , 29-H ) :   1.9460
B( 24-C , 26-C ) :  -0.2870 B( 24-C , 27-C ) :   0.3137 B( 24-C , 28-H ) :  -0.1416
B( 24-C , 29-H ) :  -0.2432 B( 25-C , 27-C ) :   0.1562 B( 25-C , 30-H ) :  -0.1416
B( 25-C , 31-H ) :  -0.2429 B( 26-C , 27-C ) :   0.8207 B( 26-C , 31-H ) :   1.9458
B( 27-C , 30-H ) :   0.7459 B( 27-C , 31-H ) :  -0.2382

MP2 TOTAL ENERGY:     -726.143807190 Eh
FINAL SINGLE POINT ENERGY      -726.143807189724

DIPOLE MOMENT
-------------
                                X             Y             Z
Electronic contribution:      0.00000      -0.00000       2.22760
Nuclear contribution   :     -0.00000       0.00000      -3.33014
                        -----------------------------------------
Total Dipole Moment    :      0.00000      -0.00000      -1.10254
                        -----------------------------------------
Magnitude (a.u.)       :      1.10254
Magnitude (Debye)      :      2.80245

Rotational constants in cm-1:     0.023550     0.014211     0.012023
Rotational constants in MHz :   706.025742   426.035691   360.450320

                             ****ORCA TERMINATED NORMALLY****
TOTAL RUN TIME: 0 days 0 hours 38 minutes 3 seconds 713 msec
