                         Program Version 4.2.1 -  RELEASE  -
|  1> %pal
|  2>  nprocs 32
|  3> end
|  4> !RI-MP2 aug-cc-pVTZ aug-cc-pVTZ/C TightSCF
|  5> %maxcore 4500
|  6> *xyzfile 0 1  10_4TS.xyz
|  7>
|  8>
|  9>                          ****END OF INPUT****

CARTESIAN COORDINATES (ANGSTROEM)
---------------------------------
  C      1.183265    0.545394   -1.279092
  C      0.939991    0.975722    0.028173
  C      1.983709    0.965442    0.956271
  C      3.244987    0.528512    0.591639
  C      3.481533    0.108393   -0.709448
  C      2.451187    0.124040   -1.640414
  C     -0.357133    1.481328    0.486811
  N     -1.404253    1.698726   -0.311445
  O     -1.723040    0.719497   -1.126537
  C     -2.540418    2.474015    0.164971
  C     -2.037741   -0.693753    0.004105
  C     -1.406487   -0.407729    1.222397
  H     -3.103857   -0.709107   -0.166518
  H     -0.322670    2.125517    1.358484
  H     -1.880327   -0.008259    2.106310
  C     -0.280679   -1.324842    1.367749
  C     -1.214483   -1.766039   -0.646607
  H     -3.186729    1.843672    0.784052
  H     -2.189961    3.329870    0.738500
  H     -3.099782    2.816803   -0.701996
  H      1.798920    1.286318    1.974797
  H      4.041144    0.511193    1.325017
  H      4.466698   -0.238116   -0.996755
  H      2.631327   -0.209339   -2.654738
  H      0.379098    0.532270   -2.000305
  O     -1.389864   -2.317122   -1.683564
  O     -0.152576   -2.048561    0.175664
  O      0.466670   -1.508164    2.276180

 Total Charge           Charge          ....    0
 Multiplicity           Mult            ....    1
 Number of Electrons    NEL             ....  122
 Basis Dimension        Dim             .... 1035

ORBITAL ENERGIES
----------------

  NO   OCC          E(Eh)            E(eV)
   0   2.0000     -20.618930      -561.0696
   1   2.0000     -20.602330      -560.6179
   2   2.0000     -20.562193      -559.5257
   3   2.0000     -20.545832      -559.0805
   4   2.0000     -15.687859      -426.8884
   5   2.0000     -11.394444      -310.0586
   6   2.0000     -11.384500      -309.7880
   7   2.0000     -11.350760      -308.8699
   8   2.0000     -11.314525      -307.8839
   9   2.0000     -11.295049      -307.3539
  10   2.0000     -11.264890      -306.5332
  11   2.0000     -11.256062      -306.2930
  12   2.0000     -11.250583      -306.1439
  13   2.0000     -11.249338      -306.1100
  14   2.0000     -11.245129      -305.9955
  15   2.0000     -11.244550      -305.9798
  16   2.0000     -11.242947      -305.9361
  17   2.0000      -1.493299       -40.6347
  18   2.0000      -1.472880       -40.0791
  19   2.0000      -1.415298       -38.5122
  20   2.0000      -1.367408       -37.2091
  21   2.0000      -1.199997       -32.6536
  22   2.0000      -1.169051       -31.8115
  23   2.0000      -1.113572       -30.3018
  24   2.0000      -1.068418       -29.0731
  25   2.0000      -1.033528       -28.1237
  26   2.0000      -0.998557       -27.1721
  27   2.0000      -0.935211       -25.4484
  28   2.0000      -0.883313       -24.0362
  29   2.0000      -0.845991       -23.0206
  30   2.0000      -0.839126       -22.8338
  31   2.0000      -0.810893       -22.0655
  32   2.0000      -0.794494       -21.6193
  33   2.0000      -0.732608       -19.9353
  34   2.0000      -0.730523       -19.8785
  35   2.0000      -0.701207       -19.0808
  36   2.0000      -0.696173       -18.9438
  37   2.0000      -0.688732       -18.7414
  38   2.0000      -0.667019       -18.1505
  39   2.0000      -0.663865       -18.0647
  40   2.0000      -0.642959       -17.4958
  41   2.0000      -0.630306       -17.1515
  42   2.0000      -0.627707       -17.0808
  43   2.0000      -0.614806       -16.7297
  44   2.0000      -0.603579       -16.4242
  45   2.0000      -0.596369       -16.2280
  46   2.0000      -0.590677       -16.0731
  47   2.0000      -0.585628       -15.9358
  48   2.0000      -0.572641       -15.5823
  49   2.0000      -0.559308       -15.2195
  50   2.0000      -0.526033       -14.3141
  51   2.0000      -0.521826       -14.1996
  52   2.0000      -0.510291       -13.8857
  53   2.0000      -0.489049       -13.3077
  54   2.0000      -0.475060       -12.9270
  55   2.0000      -0.471849       -12.8397
  56   2.0000      -0.445162       -12.1135
  57   2.0000      -0.425643       -11.5823
  58   2.0000      -0.368227       -10.0200
  59   2.0000      -0.350128        -9.5275
  60   2.0000      -0.331162        -9.0114
  61   0.0000       0.015391         0.4188
  62   0.0000       0.027377         0.7450
  63   0.0000       0.031288         0.8514
  64   0.0000       0.031519         0.8577
  65   0.0000       0.040991         1.1154

MULLIKEN ATOMIC CHARGES
-----------------------
   0 C :   -0.815696
   1 C :    1.750514
   2 C :   -0.832105
   3 C :   -0.634794
   4 C :   -0.105890
   5 C :   -0.752170
   6 C :    0.091437
   7 N :    0.162500
   8 O :   -0.842360
   9 C :   -1.018798
  10 C :    0.046688
  11 C :   -0.400693
  12 H :    0.536046
  13 H :    0.530282
  14 H :    0.443076
  15 C :    0.945218
  16 C :    0.843050
  17 H :    0.327422
  18 H :    0.344652
  19 H :    0.339398
  20 H :   -0.103198
  21 H :    0.487627
  22 H :    0.519569
  23 H :    0.499345
  24 H :   -0.007227
  25 O :   -0.972751
  26 O :   -0.297744
  27 O :   -1.083399
Sum of atomic charges:   -0.0000000

LOEWDIN ATOMIC CHARGES
----------------------
   0 C :    0.221827
   1 C :   -0.132482
   2 C :    0.203325
   3 C :    0.219396
   4 C :    0.215965
   5 C :    0.222976
   6 C :    0.091218
   7 N :   -0.149703
   8 O :    0.478355
   9 C :    0.516537
  10 C :   -0.029387
  11 C :    0.120167
  12 H :   -0.155654
  13 H :   -0.139424
  14 H :   -0.172236
  15 C :   -0.850338
  16 C :   -0.810412
  17 H :   -0.154597
  18 H :   -0.159202
  19 H :   -0.155271
  20 H :   -0.162630
  21 H :   -0.175826
  22 H :   -0.173809
  23 H :   -0.174962
  24 H :   -0.210149
  25 O :    0.467984
  26 O :    0.588640
  27 O :    0.459693

  Mayer bond orders larger than 0.100000
B(  0-C ,  1-C ) :   0.2809 B(  0-C ,  2-C ) :  -0.4676 B(  0-C ,  4-C ) :  -0.2056
B(  0-C ,  5-C ) :   1.3559 B(  0-C ,  6-C ) :   0.3352 B(  0-C , 11-C ) :   0.1107
B(  0-C , 20-H ) :   0.3351 B(  0-C , 24-H ) :   1.7910 B(  1-C ,  2-C ) :   0.8069
B(  1-C ,  4-C ) :   0.1327 B(  1-C ,  6-C ) :   0.3598 B(  1-C ,  7-N ) :  -0.1691
B(  1-C , 11-C ) :  -0.1545 B(  1-C , 13-H ) :  -0.1759 B(  1-C , 20-H ) :  -0.2951
B(  1-C , 24-H ) :  -0.2507 B(  2-C ,  3-C ) :   1.2831 B(  2-C ,  6-C ) :   0.1116
B(  2-C , 11-C ) :   0.1028 B(  2-C , 13-H ) :  -0.1362 B(  2-C , 20-H ) :   1.6489
B(  3-C ,  4-C ) :   1.1682 B(  3-C ,  5-C ) :   0.1568 B(  3-C , 20-H ) :  -0.1162
B(  3-C , 21-H ) :   0.7727 B(  3-C , 22-H ) :  -0.1872 B(  4-C ,  5-C ) :   1.1400
B(  4-C , 22-H ) :   0.7206 B(  5-C ,  6-C ) :   0.1227 B(  5-C , 22-H ) :  -0.1713
B(  5-C , 23-H ) :   0.6840 B(  6-C ,  7-N ) :   1.6290 B(  6-C , 11-C ) :   0.4271
B(  6-C , 13-H ) :   0.7895 B(  6-C , 16-C ) :   0.1128 B(  6-C , 20-H ) :  -0.2354
B(  6-C , 24-H ) :  -0.1046 B(  7-N ,  8-O ) :   0.6710 B(  7-N ,  9-C ) :   0.8549
B(  7-N , 13-H ) :  -0.1433 B(  8-O , 10-C ) :   0.4102 B(  9-C , 17-H ) :   0.9190
B(  9-C , 18-H ) :   0.9063 B(  9-C , 19-H ) :   0.9411 B( 10-C , 11-C ) :   1.3885
B( 10-C , 12-H ) :   0.6796 B( 10-C , 15-C ) :   0.2332 B( 10-C , 16-C ) :   0.6781
B( 10-C , 25-O ) :   0.1343 B( 11-C , 14-H ) :   0.7908 B( 11-C , 15-C ) :   0.8892
B( 11-C , 16-C ) :   0.2669 B( 15-C , 16-C ) :  -0.1385 B( 15-C , 26-O ) :   0.7465
B( 15-C , 27-O ) :   0.8869 B( 16-C , 25-O ) :   0.9213 B( 16-C , 26-O ) :   0.9503
B( 20-H , 24-H ) :   0.2455 B( 26-O , 27-O ) :  -0.1051

MP2 TOTAL ENERGY:     -818.007407900 Eh
FINAL SINGLE POINT ENERGY      -818.007407900357

DIPOLE MOMENT
-------------
                                X             Y             Z
Electronic contribution:     -0.07107      -8.50190      -1.02018
Nuclear contribution   :     -0.50939      11.01257       1.72846
                        -----------------------------------------
Total Dipole Moment    :     -0.58046       2.51067       0.70828
                        -----------------------------------------
Magnitude (a.u.)       :      2.67246
Magnitude (Debye)      :      6.79286

Rotational constants in cm-1:     0.022162     0.015554     0.013492
Rotational constants in MHz :   664.401398   466.293723   404.474985

                             ****ORCA TERMINATED NORMALLY****
TOTAL RUN TIME: 0 days 0 hours 26 minutes 23 seconds 42 msec
