                         Program Version 4.2.1 -  RELEASE  -
|  1> %pal
|  2>  nprocs 32
|  3> end
|  4> !RI-MP2 aug-cc-pVTZ aug-cc-pVTZ/C TightSCF
|  5> %maxcore 4500
|  6> *xyzfile 0 1  05_17P1.xyz
|  7>
|  8>
|  9>                          ****END OF INPUT****

CARTESIAN COORDINATES (ANGSTROEM)
---------------------------------
  N     -1.840742    1.328615    0.000070
  C     -3.067605    0.699924    0.000026
  N     -3.084884   -0.708710   -0.000138
  C     -2.008421   -1.560324   -0.000108
  C     -0.697051   -0.834171   -0.000055
  C     -0.752590    0.627411    0.000025
  N      0.460487    1.265780    0.000049
  N      0.385516   -1.519515   -0.000084
  C      1.584813   -0.855949   -0.000033
  C      1.645771    0.550452    0.000038
  C      2.896844    1.178598    0.000098
  C      2.765888   -1.609165   -0.000052
  C      3.989351   -0.983628    0.000002
  C      4.044720    0.413487    0.000080
  H      5.006377    0.911787    0.000128
  H      2.972219    2.255559    0.000163
  H      2.667781   -2.687033   -0.000110
  H      4.902666   -1.563736   -0.000012
  O     -4.115906    1.294323    0.000103
  O     -2.114550   -2.759629   -0.000153
  H     -4.003748   -1.132874   -0.000148
  C      0.493447    2.727332    0.000103
  H     -0.531697    3.080697    0.000027
  H      1.008288    3.085553   -0.891711
  H      1.008126    3.085498    0.892035

 Total Charge           Charge          ....    0
 Multiplicity           Mult            ....    1
 Number of Electrons    NEL             ....  118
 Basis Dimension        Dim             ....  966

ORBITAL ENERGIES
----------------

  NO   OCC          E(Eh)            E(eV)
   0   2.0000     -20.547891      -559.1365
   1   2.0000     -20.528848      -558.6183
   2   2.0000     -15.664336      -426.2482
   3   2.0000     -15.636606      -425.4937
   4   2.0000     -15.615410      -424.9169
   5   2.0000     -15.564158      -423.5223
   6   2.0000     -11.389472      -309.9233
   7   2.0000     -11.382194      -309.7253
   8   2.0000     -11.381831      -309.7154
   9   2.0000     -11.333987      -308.4135
  10   2.0000     -11.326236      -308.2026
  11   2.0000     -11.303004      -307.5704
  12   2.0000     -11.289914      -307.2142
  13   2.0000     -11.280889      -306.9686
  14   2.0000     -11.274893      -306.8054
  15   2.0000     -11.270487      -306.6855
  16   2.0000     -11.262102      -306.4574
  17   2.0000      -1.427222       -38.8367
  18   2.0000      -1.402431       -38.1621
  19   2.0000      -1.375681       -37.4342
  20   2.0000      -1.297203       -35.2987
  21   2.0000      -1.273734       -34.6601
  22   2.0000      -1.223325       -33.2884
  23   2.0000      -1.179705       -32.1014
  24   2.0000      -1.069316       -29.0976
  25   2.0000      -1.059803       -28.8387
  26   2.0000      -1.024900       -27.8889
  27   2.0000      -0.962509       -26.1912
  28   2.0000      -0.929158       -25.2837
  29   2.0000      -0.866671       -23.5833
  30   2.0000      -0.858035       -23.3483
  31   2.0000      -0.839432       -22.8421
  32   2.0000      -0.793627       -21.5957
  33   2.0000      -0.770318       -20.9614
  34   2.0000      -0.742191       -20.1960
  35   2.0000      -0.706041       -19.2124
  36   2.0000      -0.692337       -18.8394
  37   2.0000      -0.687988       -18.7211
  38   2.0000      -0.661974       -18.0132
  39   2.0000      -0.652060       -17.7435
  40   2.0000      -0.642483       -17.4828
  41   2.0000      -0.642153       -17.4739
  42   2.0000      -0.639234       -17.3944
  43   2.0000      -0.628459       -17.1012
  44   2.0000      -0.592258       -16.1161
  45   2.0000      -0.587934       -15.9985
  46   2.0000      -0.567283       -15.4365
  47   2.0000      -0.560072       -15.2403
  48   2.0000      -0.556707       -15.1488
  49   2.0000      -0.526909       -14.3379
  50   2.0000      -0.503822       -13.7097
  51   2.0000      -0.495874       -13.4934
  52   2.0000      -0.478966       -13.0333
  53   2.0000      -0.441970       -12.0266
  54   2.0000      -0.436970       -11.8905
  55   2.0000      -0.436872       -11.8879
  56   2.0000      -0.424741       -11.5578
  57   2.0000      -0.365777        -9.9533
  58   2.0000      -0.329038        -8.9536
  59   0.0000       0.005173         0.1408
  60   0.0000       0.014410         0.3921
  61   0.0000       0.024077         0.6552
  62   0.0000       0.031578         0.8593
  63   0.0000       0.036453         0.9919

MULLIKEN ATOMIC CHARGES
-----------------------
   0 N :   -0.388067
   1 C :    0.081440
   2 N :    0.187020
   3 C :    0.231698
   4 C :    1.270681
   5 C :    0.410542
   6 N :    0.210157
   7 N :   -1.251758
   8 C :    1.790413
   9 C :    0.040893
  10 C :   -0.595010
  11 C :   -1.131030
  12 C :   -0.409748
  13 C :   -0.576034
  14 H :    0.394830
  15 H :    0.361876
  16 H :    0.394958
  17 H :    0.671503
  18 O :   -0.841258
  19 O :   -0.889076
  20 H :    0.159762
  21 C :   -1.129144
  22 H :    0.377966
  23 H :    0.313684
  24 H :    0.313701
Sum of atomic charges:   -0.0000000

LOEWDIN ATOMIC CHARGES
----------------------
   0 N :    0.396201
   1 C :   -0.860405
   2 N :    0.537467
   3 C :   -0.663533
   4 C :   -0.217600
   5 C :   -0.360110
   6 N :    0.292976
   7 N :    0.450768
   8 C :   -0.261422
   9 C :   -0.172314
  10 C :    0.244311
  11 C :    0.229872
  12 C :    0.215171
  13 C :    0.219309
  14 H :   -0.169154
  15 H :   -0.196394
  16 H :   -0.162769
  17 H :   -0.180994
  18 O :    0.433213
  19 O :    0.464356
  20 H :   -0.272137
  21 C :    0.534652
  22 H :   -0.211835
  23 H :   -0.144819
  24 H :   -0.144808

  Mayer bond orders larger than 0.100000
B(  0-N ,  1-C ) :   1.0755 B(  0-N ,  4-C ) :  -0.2196 B(  0-N ,  5-C ) :   0.3639
B(  0-N , 18-O ) :  -0.2953 B(  0-N , 21-C ) :  -0.1134 B(  0-N , 22-H ) :   0.1127
B(  1-C ,  2-N ) :   0.9709 B(  1-C ,  3-C ) :  -0.2518 B(  1-C ,  4-C ) :  -0.2363
B(  1-C ,  5-C ) :  -0.3027 B(  1-C ,  8-C ) :   0.2058 B(  1-C ,  9-C ) :  -0.1374
B(  1-C , 18-O ) :   1.6148 B(  2-N ,  3-C ) :   0.9672 B(  2-N ,  4-C ) :  -0.1985
B(  2-N , 18-O ) :  -0.1453 B(  2-N , 19-O ) :  -0.1663 B(  2-N , 20-H ) :   1.0395
B(  3-C ,  4-C ) :  -0.4625 B(  3-C ,  5-C ) :   0.6833 B(  3-C ,  9-C ) :   0.2300
B(  3-C , 11-C ) :  -0.1233 B(  3-C , 19-O ) :   0.9233 B(  4-C ,  5-C ) :   0.5626
B(  4-C ,  6-N ) :   0.2834 B(  4-C ,  9-C ) :   0.3017 B(  4-C , 10-C ) :  -0.1117
B(  4-C , 11-C ) :   0.3037 B(  4-C , 13-C ) :   0.1925 B(  4-C , 19-O ) :   0.2714
B(  5-C ,  6-N ) :   0.5088 B(  5-C ,  7-N ) :   0.6800 B(  5-C ,  9-C ) :  -0.7468
B(  5-C , 11-C ) :  -0.1317 B(  5-C , 13-C ) :  -0.1319 B(  5-C , 15-H ) :   0.2826
B(  6-N ,  7-N ) :  -0.3113 B(  6-N ,  8-C ) :  -0.5912 B(  6-N ,  9-C ) :   0.6584
B(  6-N , 10-C ) :  -0.6586 B(  6-N , 21-C ) :   1.2041 B(  7-N ,  8-C ) :  -0.7359
B(  7-N ,  9-C ) :   0.4376 B(  7-N , 11-C ) :   0.4809 B(  8-C , 12-C ) :   0.1789
B(  8-C , 13-C ) :   0.1563 B(  8-C , 21-C ) :   0.1275 B(  8-C , 22-H ) :   0.1275
B(  9-C , 10-C ) :   0.9619 B(  9-C , 11-C ) :   0.2338 B(  9-C , 13-C ) :  -0.4071
B(  9-C , 15-H ) :  -0.4227 B(  9-C , 16-H ) :   0.2185 B(  9-C , 21-C ) :  -0.2092
B(  9-C , 22-H ) :  -0.1063 B( 10-C , 11-C ) :  -0.1138 B( 10-C , 12-C ) :   0.1027
B( 10-C , 13-C ) :   1.2325 B( 10-C , 14-H ) :  -0.1456 B( 10-C , 15-H ) :   0.9262
B( 10-C , 21-C ) :  -0.1178 B( 11-C , 12-C ) :   1.1793 B( 11-C , 14-H ) :   0.1458
B( 11-C , 16-H ) :   0.8814 B( 11-C , 17-H ) :  -0.1009 B( 12-C , 13-C ) :   0.8841
B( 12-C , 14-H ) :  -0.1040 B( 12-C , 17-H ) :   0.3631 B( 13-C , 14-H ) :   0.8762
B( 21-C , 22-H ) :   0.8405 B( 21-C , 23-H ) :   0.9693 B( 21-C , 24-H ) :   0.9693

MP2 TOTAL ENERGY:     -792.049528200 Eh
FINAL SINGLE POINT ENERGY      -792.049528200360

DIPOLE MOMENT
-------------
                                X             Y             Z
Electronic contribution:     -9.36753      -5.92465      -0.00034
Nuclear contribution   :     12.53464       6.81169       0.00036
                        -----------------------------------------
Total Dipole Moment    :      3.16711       0.88704       0.00002
                        -----------------------------------------
Magnitude (a.u.)       :      3.28898
Magnitude (Debye)      :      8.35993

Rotational constants in cm-1:     0.034142     0.011760     0.008762
Rotational constants in MHz :  1023.538796   352.565916   262.673645

                             ****ORCA TERMINATED NORMALLY****
TOTAL RUN TIME: 0 days 0 hours 20 minutes 57 seconds 832 msec
