                         Program Version 4.2.1 -  RELEASE  -
|  1> %pal
|  2>  nprocs 32
|  3> end
|  4> !RI-MP2 aug-cc-pVTZ aug-cc-pVTZ/C TightSCF
|  5> %maxcore 4500
|  6> *xyzfile 1 1  05_33TS.xyz
|  7>
|  8>
|  9>                          ****END OF INPUT****

CARTESIAN COORDINATES (ANGSTROEM)
---------------------------------
  C      2.427515    1.540605   -0.782071
  C      1.639374    0.819252    1.649642
  C      0.285492    1.437714    1.294681
  C      0.395118    2.621904    0.337691
  C      1.042265    2.161702   -0.964671
  H     -0.355261    0.681045    0.839093
  H     -0.191037    1.752080    2.225403
  H      1.014271    3.397280    0.792870
  H      0.376085    1.440961   -1.436227
  H      1.143675    3.005480   -1.650269
  N      2.408654    0.580485    0.377577
  O      3.375366   -0.217984    0.434736
  C      2.803528    0.771181   -2.046139
  H      2.090201   -0.025488   -2.253738
  H      2.777113    1.463165   -2.887934
  H      3.807343    0.353899   -1.982890
  C      3.510954    2.598294   -0.515292
  H      4.455306    2.120977   -0.252287
  H      3.662857    3.176312   -1.427666
  H      3.239829    3.293844    0.275561
  C      1.434140   -0.501515    2.380580
  H      2.382055   -0.986773    2.608645
  H      0.924930   -0.294499    3.321997
  H      0.812553   -1.177370    1.799740
  C      2.487940    1.737735    2.547394
  H      2.603896    2.742259    2.148593
  H      2.000272    1.819125    3.519373
  H      3.478708    1.308286    2.698635
  C      2.745067   -2.483177   -0.652134
  H      2.899769   -2.177576   -1.694617
  H      3.085829   -1.425594   -0.084403
  O      3.590477   -3.456210   -0.215742
  C      4.931059   -3.348744   -0.683086
  H      5.461556   -4.217174   -0.302682
  H      4.957744   -3.352846   -1.776521
  C      1.389522   -2.635309   -0.215676
  H      1.245093   -3.286346    0.641270
  C      0.322128   -1.971678   -0.740770
  H      0.455199   -1.337547   -1.612187
  H      5.400341   -2.437585   -0.302495
  N     -0.896876    3.261343    0.109494
  H     -1.034882    4.180230    0.496005
  C     -1.942453    2.685985   -0.540240
  C     -3.202911    3.506336   -0.627354
  H     -4.006621    2.953756   -0.138834
  H     -3.118655    4.491993   -0.170373
  H     -3.472128    3.620916   -1.677603
  O     -1.871260    1.567725   -1.027127
  C     -0.997705   -2.100403   -0.222264
  H     -1.131325   -2.763748    0.625915
  C     -2.046682   -1.422089   -0.739468
  H     -1.854914   -0.739017   -1.559385
  C     -3.422565   -1.467283   -0.286137
  C     -4.336984   -0.574385   -0.858296
  C     -3.876017   -2.362535    0.692683
  C     -5.663321   -0.571596   -0.461384
  H     -3.983025    0.128203   -1.602084
  C     -5.200147   -2.358115    1.086301
  H     -3.195198   -3.076905    1.138143
  C     -6.097074   -1.462153    0.511361
  H     -6.362501    0.120936   -0.913345
  H     -5.542362   -3.058353    1.837901
  H     -7.135278   -1.465325    0.819845

 Total Charge           Charge          ....    1
 Multiplicity           Mult            ....    1
 Number of Electrons    NEL             ....  210
 Basis Dimension        Dim             .... 2093

ORBITAL ENERGIES
----------------

  NO   OCC          E(Eh)            E(eV)
   0   2.0000     -20.814923      -566.4028
   1   2.0000     -20.688261      -562.9562
   2   2.0000     -20.619028      -561.0723
   3   2.0000     -15.852491      -431.3682
   4   2.0000     -15.695308      -427.0910
   5   2.0000     -11.455249      -311.7132
   6   2.0000     -11.424539      -310.8775
   7   2.0000     -11.422846      -310.8314
   8   2.0000     -11.420329      -310.7629
   9   2.0000     -11.394733      -310.0664
  10   2.0000     -11.378446      -309.6233
  11   2.0000     -11.372870      -309.4715
  12   2.0000     -11.352201      -308.9091
  13   2.0000     -11.350834      -308.8719
  14   2.0000     -11.346511      -308.7543
  15   2.0000     -11.345875      -308.7369
  16   2.0000     -11.345684      -308.7318
  17   2.0000     -11.345339      -308.7224
  18   2.0000     -11.344829      -308.7085
  19   2.0000     -11.334096      -308.4164
  20   2.0000     -11.329274      -308.2852
  21   2.0000     -11.328595      -308.2667
  22   2.0000     -11.325841      -308.1918
  23   2.0000     -11.320868      -308.0565
  24   2.0000     -11.317694      -307.9701
  25   2.0000     -11.317538      -307.9659
  26   2.0000     -11.312112      -307.8182
  27   2.0000     -11.311137      -307.7917
  28   2.0000      -1.663462       -45.2651
  29   2.0000      -1.516059       -41.2541
  30   2.0000      -1.489099       -40.5204
  31   2.0000      -1.351487       -36.7758
  32   2.0000      -1.313105       -35.7314
  33   2.0000      -1.249286       -33.9948
  34   2.0000      -1.241803       -33.7912
  35   2.0000      -1.224329       -33.3157
  36   2.0000      -1.174961       -31.9723
  37   2.0000      -1.166858       -31.7518
  38   2.0000      -1.125745       -30.6331
  39   2.0000      -1.109458       -30.1899
  40   2.0000      -1.100324       -29.9414
  41   2.0000      -1.092238       -29.7213
  42   2.0000      -1.076620       -29.2963
  43   2.0000      -1.063070       -28.9276
  44   2.0000      -1.060909       -28.8688
  45   2.0000      -1.056770       -28.7562
  46   2.0000      -1.000811       -27.2335
  47   2.0000      -0.976551       -26.5733
  48   2.0000      -0.962799       -26.1991
  49   2.0000      -0.941395       -25.6166
  50   2.0000      -0.917142       -24.9567
  51   2.0000      -0.905781       -24.6476
  52   2.0000      -0.890337       -24.2273
  53   2.0000      -0.878594       -23.9078
  54   2.0000      -0.859787       -23.3960
  55   2.0000      -0.835109       -22.7245
  56   2.0000      -0.821739       -22.3606
  57   2.0000      -0.818426       -22.2705
  58   2.0000      -0.802933       -21.8489
  59   2.0000      -0.800780       -21.7903
  60   2.0000      -0.788150       -21.4467
  61   2.0000      -0.770294       -20.9608
  62   2.0000      -0.762895       -20.7594
  63   2.0000      -0.759250       -20.6602
  64   2.0000      -0.745456       -20.2849
  65   2.0000      -0.743360       -20.2278
  66   2.0000      -0.738062       -20.0837
  67   2.0000      -0.720504       -19.6059
  68   2.0000      -0.717054       -19.5120
  69   2.0000      -0.715337       -19.4653
  70   2.0000      -0.712497       -19.3880
  71   2.0000      -0.703468       -19.1423
  72   2.0000      -0.698445       -19.0056
  73   2.0000      -0.693841       -18.8804
  74   2.0000      -0.690665       -18.7939
  75   2.0000      -0.686957       -18.6930
  76   2.0000      -0.679978       -18.5031
  77   2.0000      -0.669648       -18.2221
  78   2.0000      -0.668351       -18.1867
  79   2.0000      -0.663098       -18.0438
  80   2.0000      -0.658302       -17.9133
  81   2.0000      -0.653418       -17.7804
  82   2.0000      -0.652339       -17.7510
  83   2.0000      -0.648940       -17.6586
  84   2.0000      -0.644243       -17.5307
  85   2.0000      -0.640846       -17.4383
  86   2.0000      -0.629705       -17.1352
  87   2.0000      -0.622026       -16.9262
  88   2.0000      -0.618582       -16.8325
  89   2.0000      -0.612646       -16.6709
  90   2.0000      -0.609171       -16.5764
  91   2.0000      -0.604547       -16.4506
  92   2.0000      -0.598721       -16.2920
  93   2.0000      -0.594908       -16.1883
  94   2.0000      -0.586590       -15.9619
  95   2.0000      -0.583568       -15.8797
  96   2.0000      -0.581947       -15.8356
  97   2.0000      -0.570095       -15.5131
  98   2.0000      -0.551206       -14.9991
  99   2.0000      -0.524347       -14.2682
 100   2.0000      -0.503549       -13.7023
 101   2.0000      -0.499598       -13.5948
 102   2.0000      -0.446663       -12.1543
 103   2.0000      -0.420031       -11.4296
 104   2.0000      -0.369628       -10.0581
 105   0.0000      -0.142995        -3.8911
 106   0.0000      -0.056994        -1.5509
 107   0.0000      -0.048311        -1.3146
 108   0.0000      -0.045660        -1.2425
 109   0.0000      -0.041600        -1.1320

MULLIKEN ATOMIC CHARGES
-----------------------
   0 C :    1.709745
   1 C :    1.639205
   2 C :   -0.920632
   3 C :    0.715971
   4 C :   -0.785747
   5 H :    0.812676
   6 H :    0.243543
   7 H :    0.163522
   8 H :    0.519674
   9 H :    0.367511
  10 N :    2.233704
  11 O :   -1.330192
  12 C :   -1.751719
  13 H :    0.478732
  14 H :    0.052875
  15 H :    0.169360
  16 C :   -1.720734
  17 H :    0.185609
  18 H :    0.140720
  19 H :    0.307621
  20 C :   -1.801594
  21 H :    0.193922
  22 H :    0.005526
  23 H :    0.578522
  24 C :   -1.726520
  25 H :    0.361064
  26 H :    0.134503
  27 H :    0.155131
  28 C :    0.666604
  29 H :    0.556515
  30 H :    0.198899
  31 O :   -0.841515
  32 C :   -1.012988
  33 H :    0.356880
  34 H :    0.334681
  35 C :   -0.497810
  36 H :    0.217571
  37 C :    0.357717
  38 H :    0.267986
  39 H :    0.389239
  40 N :   -0.589522
  41 H :   -0.074291
  42 C :    0.712322
  43 C :   -1.018167
  44 H :    0.376962
  45 H :    0.251086
  46 H :    0.348814
  47 O :   -0.832800
  48 C :   -0.432981
  49 H :   -0.408920
  50 C :   -0.419273
  51 H :   -0.317356
  52 C :    2.852275
  53 C :   -0.795070
  54 C :   -0.480900
  55 C :   -0.990781
  56 H :    0.217989
  57 C :   -0.851609
  58 H :   -0.139354
  59 C :   -0.106123
  60 H :    0.510314
  61 H :    0.654601
  62 H :    0.407007
Sum of atomic charges:    1.0000000

LOEWDIN ATOMIC CHARGES
----------------------
   0 C :   -0.354297
   1 C :   -0.352508
   2 C :    0.342026
   3 C :   -0.054609
   4 C :    0.333147
   5 H :   -0.158122
   6 H :   -0.109412
   7 H :   -0.138564
   8 H :   -0.185925
   9 H :   -0.108631
  10 N :    0.118005
  11 O :    0.703589
  12 C :    0.610176
  13 H :   -0.181352
  14 H :   -0.134205
  15 H :   -0.151033
  16 C :    0.633497
  17 H :   -0.142942
  18 H :   -0.138012
  19 H :   -0.180770
  20 C :    0.615726
  21 H :   -0.146054
  22 H :   -0.135650
  23 H :   -0.206349
  24 C :    0.634851
  25 H :   -0.188960
  26 H :   -0.137544
  27 H :   -0.139930
  28 C :   -0.066818
  29 H :   -0.134883
  30 H :   -0.495770
  31 O :    0.597316
  32 C :    0.382556
  33 H :   -0.172454
  34 H :   -0.168139
  35 C :    0.241341
  36 H :   -0.153154
  37 C :    0.218652
  38 H :   -0.175157
  39 H :   -0.168413
  40 N :    0.609822
  41 H :   -0.273382
  42 C :   -0.636219
  43 C :    0.620569
  44 H :   -0.162406
  45 H :   -0.175135
  46 H :   -0.161284
  47 O :    0.515075
  48 C :    0.213666
  49 H :   -0.188261
  50 C :    0.231423
  51 H :   -0.213682
  52 C :   -0.115627
  53 C :    0.214357
  54 C :    0.226909
  55 C :    0.215364
  56 H :   -0.190853
  57 C :    0.216336
  58 H :   -0.184898
  59 C :    0.214698
  60 H :   -0.178193
  61 H :   -0.176247
  62 H :   -0.173257

  Mayer bond orders larger than 0.100000
B(  0-C ,  2-C ) :   0.1398 B(  0-C ,  4-C ) :   0.5643 B(  0-C , 10-N ) :   1.1814
B(  0-C , 11-O ) :  -0.1266 B(  0-C , 14-H ) :  -0.1743 B(  0-C , 17-H ) :  -0.1205
B(  0-C , 18-H ) :  -0.2365 B(  0-C , 19-H ) :  -0.1392 B(  1-C ,  2-C ) :   0.4543
B(  1-C ,  4-C ) :   0.1480 B(  1-C , 10-N ) :   0.7460 B(  1-C , 20-C ) :   0.2563
B(  1-C , 22-H ) :  -0.1752 B(  1-C , 24-C ) :  -0.1451 B(  1-C , 26-H ) :  -0.2463
B(  1-C , 27-H ) :  -0.1304 B(  2-C ,  3-C ) :   0.9508 B(  2-C ,  5-H ) :   0.6170
B(  2-C ,  6-H ) :   0.8519 B(  2-C ,  7-H ) :   0.1654 B(  2-C , 40-N ) :   0.1131
B(  3-C ,  4-C ) :   1.0229 B(  3-C ,  7-H ) :   0.7086 B(  3-C , 40-N ) :  -0.1670
B(  3-C , 41-H ) :   0.1168 B(  3-C , 42-C ) :  -0.7477 B(  4-C ,  7-H ) :   0.1040
B(  4-C ,  8-H ) :   0.8514 B(  4-C ,  9-H ) :   0.7953 B(  4-C , 10-N ) :  -0.1277
B(  4-C , 40-N ) :   0.1571 B(  4-C , 42-C ) :  -0.1013 B(  5-H , 20-C ) :  -0.1529
B(  7-H , 40-N ) :  -0.1369 B(  7-H , 42-C ) :   0.2390 B( 10-N , 12-C ) :  -0.3287
B( 10-N , 15-H ) :  -0.1471 B( 10-N , 16-C ) :  -0.2477 B( 10-N , 17-H ) :  -0.1404
B( 10-N , 20-C ) :  -0.4399 B( 10-N , 21-H ) :  -0.1437 B( 10-N , 24-C ) :  -0.1327
B( 10-N , 27-H ) :  -0.1577 B( 10-N , 28-C ) :   0.1637 B( 10-N , 30-H ) :   0.1506
B( 10-N , 35-C ) :   0.2424 B( 10-N , 37-C ) :   0.1864 B( 11-O , 12-C ) :   0.1203
B( 11-O , 16-C ) :   0.1504 B( 11-O , 20-C ) :   0.1412 B( 11-O , 24-C ) :   0.1180
B( 11-O , 30-H ) :   0.2025 B( 12-C , 13-H ) :   0.8888 B( 12-C , 14-H ) :   1.4250
B( 12-C , 15-H ) :   1.2326 B( 12-C , 16-C ) :   0.1567 B( 12-C , 35-C ) :  -0.1032
B( 16-C , 17-H ) :   1.2212 B( 16-C , 18-H ) :   1.3093 B( 16-C , 19-H ) :   1.1107
B( 20-C , 21-H ) :   1.2089 B( 20-C , 22-H ) :   1.4675 B( 20-C , 23-H ) :   0.7837
B( 20-C , 24-C ) :   0.2293 B( 24-C , 25-H ) :   1.0176 B( 24-C , 26-H ) :   1.3233
B( 24-C , 27-H ) :   1.2610 B( 28-C , 29-H ) :   0.8719 B( 28-C , 30-H ) :   0.6911
B( 28-C , 31-O ) :   0.5104 B( 28-C , 32-C ) :  -0.1007 B( 28-C , 35-C ) :   0.7836
B( 28-C , 38-H ) :  -0.1316 B( 28-C , 52-C ) :   0.1092 B( 29-H , 31-O ) :  -0.2120
B( 29-H , 35-C ) :  -0.1054 B( 30-H , 35-C ) :   0.2000 B( 31-O , 32-C ) :   1.0624
B( 31-O , 35-C ) :  -0.1133 B( 32-C , 33-H ) :   0.9586 B( 32-C , 34-H ) :   0.9010
B( 32-C , 39-H ) :   0.8384 B( 35-C , 36-H ) :   1.1820 B( 35-C , 37-C ) :   0.8705
B( 35-C , 38-H ) :  -0.1041 B( 35-C , 48-C ) :  -0.1830 B( 35-C , 49-H ) :  -0.2827
B( 35-C , 51-H ) :  -0.1432 B( 35-C , 53-C ) :   0.2133 B( 35-C , 54-C ) :   0.1503
B( 35-C , 56-H ) :   0.1868 B( 35-C , 58-H ) :   0.1236 B( 36-H , 37-C ) :  -0.2306
B( 36-H , 48-C ) :  -0.1648 B( 36-H , 50-C ) :  -0.1491 B( 36-H , 53-C ) :   0.1265
B( 37-C , 38-H ) :   1.4103 B( 37-C , 48-C ) :   0.5876 B( 37-C , 50-C ) :  -0.1464
B( 37-C , 51-H ) :  -0.4189 B( 37-C , 52-C ) :   0.3312 B( 37-C , 56-H ) :   0.2591
B( 38-H , 50-C ) :  -0.4315 B( 38-H , 51-H ) :  -0.1969 B( 38-H , 55-C ) :   0.1024
B( 38-H , 56-H ) :   0.2683 B( 38-H , 57-C ) :   0.1105 B( 38-H , 59-C ) :  -0.1226
B( 40-N , 41-H ) :   1.1889 B( 40-N , 42-C ) :   1.1466 B( 41-H , 42-C ) :  -0.2083
B( 42-C , 43-C ) :   0.3334 B( 42-C , 46-H ) :  -0.1164 B( 42-C , 47-O ) :   1.7488
B( 43-C , 44-H ) :   0.9602 B( 43-C , 45-H ) :   1.0281 B( 43-C , 46-H ) :   1.0258
B( 43-C , 47-O ) :  -0.1408 B( 47-O , 51-H ) :   0.1149 B( 47-O , 56-H ) :  -0.1043
B( 48-C , 49-H ) :   2.7364 B( 48-C , 50-C ) :   0.8961 B( 48-C , 53-C ) :   0.1288
B( 48-C , 55-C ) :  -0.1349 B( 48-C , 56-H ) :  -0.1026 B( 48-C , 58-H ) :  -0.4869
B( 48-C , 61-H ) :   0.1138 B( 49-H , 50-C ) :  -0.1008 B( 49-H , 51-H ) :   0.3714
B( 49-H , 52-C ) :  -0.5520 B( 49-H , 53-C ) :  -0.2116 B( 49-H , 54-C ) :  -0.2235
B( 49-H , 56-H ) :  -0.2018 B( 50-C , 51-H ) :   2.3815 B( 50-C , 53-C ) :   0.2684
B( 50-C , 54-C ) :   0.1703 B( 50-C , 55-C ) :   0.1905 B( 50-C , 56-H ) :  -0.1806
B( 51-H , 52-C ) :  -0.5380 B( 51-H , 56-H ) :  -0.1441 B( 52-C , 53-C ) :  -0.1451
B( 52-C , 54-C ) :   0.2797 B( 52-C , 55-C ) :  -0.1347 B( 52-C , 56-H ) :  -0.2719
B( 52-C , 58-H ) :  -0.5206 B( 52-C , 59-C ) :   0.1865 B( 53-C , 54-C ) :  -0.7545
B( 53-C , 55-C ) :   1.3307 B( 53-C , 56-H ) :   1.3380 B( 53-C , 59-C ) :  -0.2563
B( 53-C , 62-H ) :   0.1689 B( 54-C , 57-C ) :   1.1637 B( 54-C , 58-H ) :   2.1436
B( 54-C , 59-C ) :  -0.2204 B( 55-C , 57-C ) :   0.4344 B( 55-C , 59-C ) :   1.0598
B( 55-C , 60-H ) :   0.6663 B( 55-C , 62-H ) :  -0.2104 B( 56-H , 58-H ) :   0.1610
B( 57-C , 58-H ) :  -0.1180 B( 57-C , 59-C ) :   1.0139 B( 57-C , 61-H ) :   0.3530
B( 57-C , 62-H ) :  -0.1769 B( 58-H , 61-H ) :  -0.1116 B( 58-H , 62-H ) :   0.1125
B( 59-C , 62-H ) :   0.8648

MP2 TOTAL ENERGY:    -1229.969893437 Eh
FINAL SINGLE POINT ENERGY     -1229.969893436818

DIPOLE MOMENT
-------------
                                X             Y             Z
Electronic contribution:    -15.38724      -8.47163      -1.70891
Nuclear contribution   :     17.36311      10.44810       2.09983
                        -----------------------------------------
Total Dipole Moment    :      1.97587       1.97647       0.39092
                        -----------------------------------------
Magnitude (a.u.)       :      2.82194
Magnitude (Debye)      :      7.17279

Rotational constants in cm-1:     0.007547     0.004010     0.003060
Rotational constants in MHz :   226.243886   120.213621    91.735350

                             ****ORCA TERMINATED NORMALLY****
TOTAL RUN TIME: 0 days 4 hours 42 minutes 0 seconds 625 msec
