                         Program Version 4.2.1 -  RELEASE  -
|  1> %pal
|  2>  nprocs 32
|  3> end
|  4> !RI-MP2 aug-cc-pVTZ aug-cc-pVTZ/C TightSCF
|  5> %maxcore 4500
|  6> *xyzfile -1 1  08_6P2.xyz
|  7>
|  8>
|  9>                          ****END OF INPUT****

CARTESIAN COORDINATES (ANGSTROEM)
---------------------------------
  C     -1.418635    0.961341   -0.552635
  C     -0.927890   -0.477535   -0.691902
  C      0.497675   -0.666299   -0.142547
  O      0.467349   -0.460252    1.223546
  H     -1.001503   -0.775104   -1.746109
  O     -1.756890   -1.361241    0.057353
  O     -1.188504    1.497260    0.730313
  C      1.567193    0.245014   -0.765290
  H      0.791879   -1.710806   -0.383925
  O      2.706348    0.176087    0.075696
  H      1.209492    1.281926   -0.818360
  H      1.850986   -0.081451   -1.772887
  H      2.272475   -0.008460    0.938579
  H     -0.514356    0.888916    1.153984
  H     -0.923597    1.578682   -1.321094
  H     -1.326008   -1.344260    0.932391
  H     -2.495844    0.980597   -0.763602

 Total Charge           Charge          ....   -1
 Multiplicity           Mult            ....    1
 Number of Electrons    NEL             ....   66
 Basis Dimension        Dim             ....  575

ORBITAL ENERGIES
----------------

  NO   OCC          E(Eh)            E(eV)
   0   2.0000     -20.389980      -554.8396
   1   2.0000     -20.383794      -554.6712
   2   2.0000     -20.369702      -554.2878
   3   2.0000     -20.289368      -552.1018
   4   2.0000     -11.116786      -302.5031
   5   2.0000     -11.116154      -302.4859
   6   2.0000     -11.109397      -302.3021
   7   2.0000     -11.093646      -301.8735
   8   2.0000      -1.209726       -32.9183
   9   2.0000      -1.192013       -32.4363
  10   2.0000      -1.171738       -31.8846
  11   2.0000      -1.079019       -29.3616
  12   2.0000      -0.856182       -23.2979
  13   2.0000      -0.779709       -21.2169
  14   2.0000      -0.693168       -18.8621
  15   2.0000      -0.613987       -16.7074
  16   2.0000      -0.548002       -14.9119
  17   2.0000      -0.528902       -14.3922
  18   2.0000      -0.492453       -13.4003
  19   2.0000      -0.480525       -13.0758
  20   2.0000      -0.446449       -12.1485
  21   2.0000      -0.435469       -11.8497
  22   2.0000      -0.419037       -11.4026
  23   2.0000      -0.405160       -11.0250
  24   2.0000      -0.381506       -10.3813
  25   2.0000      -0.370597       -10.0844
  26   2.0000      -0.326710        -8.8902
  27   2.0000      -0.312725        -8.5097
  28   2.0000      -0.291386        -7.9290
  29   2.0000      -0.279699        -7.6110
  30   2.0000      -0.267896        -7.2898
  31   2.0000      -0.209616        -5.7040
  32   2.0000      -0.190793        -5.1917
  33   0.0000       0.119369         3.2482
  34   0.0000       0.126013         3.4290
  35   0.0000       0.128684         3.5017
  36   0.0000       0.135808         3.6955
  37   0.0000       0.142017         3.8645

MULLIKEN ATOMIC CHARGES
-----------------------
   0 C :   -0.246196
   1 C :    0.285122
   2 C :    0.455586
   3 O :   -1.161489
   4 H :    0.422602
   5 O :   -0.904154
   6 O :   -0.849452
   7 C :   -0.256004
   8 H :    0.308448
   9 O :   -0.795699
  10 H :    0.170800
  11 H :    0.283402
  12 H :    0.242046
  13 H :    0.311335
  14 H :    0.220319
  15 H :    0.267384
  16 H :    0.245949
Sum of atomic charges:   -1.0000000

LOEWDIN ATOMIC CHARGES
----------------------
   0 C :   -0.012442
   1 C :   -0.292513
   2 C :   -0.464838
   3 O :    0.439089
   4 H :   -0.151089
   5 O :    0.802979
   6 O :    0.789555
   7 C :   -0.005342
   8 H :   -0.159500
   9 O :    0.775184
  10 H :   -0.188164
  11 H :   -0.171270
  12 H :   -0.652670
  13 H :   -0.754891
  14 H :   -0.182946
  15 H :   -0.595771
  16 H :   -0.175371

  Mayer bond orders larger than 0.100000
B(  0-C ,  1-C ) :   0.8876 B(  0-C ,  2-C ) :   0.1082 B(  0-C ,  5-O ) :   0.1348
B(  0-C ,  6-O ) :   0.6585 B(  0-C , 14-H ) :   1.0301 B(  0-C , 16-H ) :   1.0145
B(  1-C ,  2-C ) :   0.9663 B(  1-C ,  4-H ) :   0.8694 B(  1-C ,  5-O ) :   0.3801
B(  2-C ,  3-O ) :   0.6556 B(  2-C ,  7-C ) :   0.8702 B(  2-C ,  8-H ) :   0.9699
B(  3-O ,  7-C ) :   0.1021 B(  3-O , 12-H ) :   0.1382 B(  3-O , 13-H ) :   0.1529
B(  5-O , 15-H ) :   0.8732 B(  6-O , 13-H ) :   0.7710 B(  7-C ,  9-O ) :   0.6288
B(  7-C , 10-H ) :   1.0211 B(  7-C , 11-H ) :   0.9882 B(  9-O , 12-H ) :   0.8509

MP2 TOTAL ENERGY:     -458.039282359 Eh
FINAL SINGLE POINT ENERGY      -458.039282359396

DIPOLE MOMENT
-------------
                                X             Y             Z
Electronic contribution:     -0.18064      -0.78320       2.45387
Nuclear contribution   :     -0.13393       0.81413      -3.77792
                        -----------------------------------------
Total Dipole Moment    :     -0.31457       0.03092      -1.32405
                        -----------------------------------------
Magnitude (a.u.)       :      1.36126
Magnitude (Debye)      :      3.46005

Rotational constants in cm-1:     0.103858     0.049255     0.044210
Rotational constants in MHz :  3113.580524  1476.641851  1325.387068

                             ****ORCA TERMINATED NORMALLY****
TOTAL RUN TIME: 0 days 0 hours 2 minutes 40 seconds 379 msec
