                         Program Version 4.2.1 -  RELEASE  -
|  1> %pal
|  2>  nprocs 32
|  3> end
|  4> !RI-MP2 aug-cc-pVTZ aug-cc-pVTZ/C TightSCF
|  5> %maxcore 4500
|  6> *xyzfile -1 1  09_1P.xyz
|  7>
|  8>
|  9>                          ****END OF INPUT****

CARTESIAN COORDINATES (ANGSTROEM)
---------------------------------
  C      0.344543    0.000000    0.167131
  C      0.840033    1.260186   -0.599945
  H      0.530625    1.283829   -1.652348
  H      1.931650    1.265867   -0.539934
  H      0.464588    2.150502   -0.092459
  C      0.840042   -1.260178   -0.599952
  H      0.530627   -1.283821   -1.652353
  H      0.464612   -2.150501   -0.092467
  H      1.931659   -1.265845   -0.539949
  C     -1.185965   -0.000006   -0.018530
  N     -2.336610   -0.000001   -0.097322
  O      0.683823   -0.000004    1.444817

 Total Charge           Charge          ....   -1
 Multiplicity           Mult            ....    1
 Number of Electrons    NEL             ....   46
 Basis Dimension        Dim             ....  414

ORBITAL ENERGIES
----------------

  NO   OCC          E(Eh)            E(eV)
   0   2.0000     -20.253157      -551.1164
   1   2.0000     -15.385406      -418.6582
   2   2.0000     -11.130709      -302.8820
   3   2.0000     -11.088137      -301.7235
   4   2.0000     -11.060169      -300.9625
   5   2.0000     -11.060155      -300.9621
   6   2.0000      -1.088135       -29.6096
   7   2.0000      -1.035501       -28.1774
   8   2.0000      -0.855238       -23.2722
   9   2.0000      -0.778517       -21.1845
  10   2.0000      -0.650094       -17.6900
  11   2.0000      -0.485463       -13.2101
  12   2.0000      -0.431942       -11.7538
  13   2.0000      -0.429581       -11.6895
  14   2.0000      -0.403180       -10.9711
  15   2.0000      -0.391210       -10.6454
  16   2.0000      -0.360743        -9.8163
  17   2.0000      -0.341990        -9.3060
  18   2.0000      -0.332351        -9.0437
  19   2.0000      -0.287014        -7.8101
  20   2.0000      -0.286758        -7.8031
  21   2.0000      -0.176660        -4.8072
  22   2.0000      -0.164521        -4.4768
  23   0.0000       0.122586         3.3357
  24   0.0000       0.130849         3.5606
  25   0.0000       0.135596         3.6897
  26   0.0000       0.142820         3.8863
  27   0.0000       0.147112         4.0031

MULLIKEN ATOMIC CHARGES
-----------------------
   0 C :    1.244726
   1 C :   -1.079677
   2 H :    0.277530
   3 H :    0.258734
   4 H :    0.272850
   5 C :   -1.079678
   6 H :    0.277530
   7 H :    0.272850
   8 H :    0.258734
   9 C :    0.410957
  10 N :   -0.815755
  11 O :   -1.298800
Sum of atomic charges:   -1.0000000

LOEWDIN ATOMIC CHARGES
----------------------
   0 C :   -0.993918
   1 C :    0.500223
   2 H :   -0.189335
   3 H :   -0.189352
   4 H :   -0.190774
   5 C :    0.500223
   6 H :   -0.189335
   7 H :   -0.190773
   8 H :   -0.189352
   9 C :   -0.285181
  10 N :    0.181227
  11 O :    0.236348

  Mayer bond orders larger than 0.100000
B(  0-C ,  1-C ) :   0.7751 B(  0-C ,  5-C ) :   0.7751 B(  0-C ,  9-C ) :   0.9705
B(  0-C , 10-N ) :   0.1432 B(  0-C , 11-O ) :   0.5610 B(  1-C ,  2-H ) :   0.9345
B(  1-C ,  3-H ) :   0.9723 B(  1-C ,  4-H ) :   0.9716 B(  1-C , 11-O ) :   0.1128
B(  5-C ,  6-H ) :   0.9345 B(  5-C ,  7-H ) :   0.9716 B(  5-C ,  8-H ) :   0.9723
B(  5-C , 11-O ) :   0.1128 B(  9-C , 10-N ) :   2.0183

MP2 TOTAL ENERGY:     -285.497988921 Eh
FINAL SINGLE POINT ENERGY      -285.497988921339

DIPOLE MOMENT
-------------
                                X             Y             Z
Electronic contribution:     -5.16913      -0.00002       2.89114
Nuclear contribution   :      5.87972       0.00003      -4.56976
                        -----------------------------------------
Total Dipole Moment    :      0.71058       0.00001      -1.67862
                        -----------------------------------------
Magnitude (a.u.)       :      1.82283
Magnitude (Debye)      :      4.63327

Rotational constants in cm-1:     0.164971     0.095928     0.092830
Rotational constants in MHz :  4945.714135  2875.839719  2782.969289

                             ****ORCA TERMINATED NORMALLY****
TOTAL RUN TIME: 0 days 0 hours 1 minutes 8 seconds 418 msec
