                         Program Version 4.2.1 -  RELEASE  -
|  1> %pal
|  2>  nprocs 32
|  3> end
|  4> !RI-MP2 aug-cc-pVTZ aug-cc-pVTZ/C TightSCF
|  5> %maxcore 4500
|  6> *xyzfile 0 1  02_1TS.xyz
|  7>
|  8>
|  9>                          ****END OF INPUT****

CARTESIAN COORDINATES (ANGSTROEM)
---------------------------------
  C     -0.331769   -2.252634    0.690984
  O     -1.609255   -2.498417    0.933591
  C      0.331857   -1.320442    1.460668
  C      1.623130   -0.878531    1.200003
  C      2.223553    0.189975    2.066855
  C      2.317574   -1.323651    0.054167
  C      3.765228   -0.977290   -0.158952
  C      1.268285   -0.502188   -1.473152
  C     -0.028075   -1.041790   -1.534651
  C     -1.183740   -0.315984   -1.111885
  O     -2.338440   -0.767411   -1.253803
  C     -0.976688    0.996167   -0.467431
  C      0.288669    1.602919   -0.457193
  C      1.434186    0.935583   -1.131991
  O      2.469323    1.527477   -1.369589
  C      0.483480    2.833313    0.147404
  C     -0.588543    3.461065    0.771719
  C     -1.845365    2.886162    0.768442
  C     -2.059155    1.659980    0.136279
  C     -2.233457   -3.500768    0.128774
  O     -3.294348    1.151530    0.128275
  H     -0.250529   -0.832872    2.234198
  H      2.564528    1.041850    1.475114
  H      1.505411    0.551555    2.801474
  H      3.097909   -0.195707    2.599610
  H      4.126089   -1.383454   -1.104459
  H      3.931510    0.099711   -0.181113
  H      4.378035   -1.401508    0.642485
  H     -0.214483   -1.938852   -2.112419
  H      1.466095    3.284296    0.116513
  H     -0.443174    4.418594    1.257538
  H     -2.691499    3.372209    1.237466
  H      1.996129   -0.847030   -2.199370
  H      2.060012   -2.316935   -0.293867
  H      0.179834   -2.957720    0.048723
  H     -3.249786    0.315794   -0.403852
  H     -3.213965   -3.671016    0.564973
  H     -2.344186   -3.130089   -0.889617
  H     -1.651191   -4.425590    0.158564

 Total Charge           Charge          ....    0
 Multiplicity           Mult            ....    1
 Number of Electrons    NEL             ....  152
 Basis Dimension        Dim             .... 1380

ORBITAL ENERGIES
----------------

  NO   OCC          E(Eh)            E(eV)
   0   2.0000     -20.615827      -560.9852
   1   2.0000     -20.561401      -559.5042
   2   2.0000     -20.547053      -559.1137
   3   2.0000     -20.521052      -558.4062
   4   2.0000     -11.348200      -308.8002
   5   2.0000     -11.339089      -308.5523
   6   2.0000     -11.325754      -308.1894
   7   2.0000     -11.308172      -307.7110
   8   2.0000     -11.293317      -307.3068
   9   2.0000     -11.277205      -306.8683
  10   2.0000     -11.274430      -306.7928
  11   2.0000     -11.266851      -306.5866
  12   2.0000     -11.253665      -306.2278
  13   2.0000     -11.249097      -306.1035
  14   2.0000     -11.242329      -305.9193
  15   2.0000     -11.238855      -305.8248
  16   2.0000     -11.237565      -305.7897
  17   2.0000     -11.234036      -305.6937
  18   2.0000     -11.233583      -305.6813
  19   2.0000     -11.229179      -305.5615
  20   2.0000     -11.228227      -305.5356
  21   2.0000      -1.448580       -39.4179
  22   2.0000      -1.400462       -38.1085
  23   2.0000      -1.392898       -37.9027
  24   2.0000      -1.356900       -36.9231
  25   2.0000      -1.171311       -31.8730
  26   2.0000      -1.151910       -31.3451
  27   2.0000      -1.098558       -29.8933
  28   2.0000      -1.057359       -28.7722
  29   2.0000      -1.033184       -28.1144
  30   2.0000      -1.019598       -27.7447
  31   2.0000      -1.003096       -27.2956
  32   2.0000      -0.959169       -26.1003
  33   2.0000      -0.939204       -25.5570
  34   2.0000      -0.893588       -24.3158
  35   2.0000      -0.867255       -23.5992
  36   2.0000      -0.859348       -23.3840
  37   2.0000      -0.844745       -22.9867
  38   2.0000      -0.788564       -21.4579
  39   2.0000      -0.752197       -20.4683
  40   2.0000      -0.722818       -19.6689
  41   2.0000      -0.722068       -19.6485
  42   2.0000      -0.713120       -19.4050
  43   2.0000      -0.704168       -19.1614
  44   2.0000      -0.694867       -18.9083
  45   2.0000      -0.679189       -18.4817
  46   2.0000      -0.664705       -18.0875
  47   2.0000      -0.641015       -17.4429
  48   2.0000      -0.637489       -17.3470
  49   2.0000      -0.623498       -16.9662
  50   2.0000      -0.617776       -16.8105
  51   2.0000      -0.617128       -16.7929
  52   2.0000      -0.602932       -16.4066
  53   2.0000      -0.592288       -16.1170
  54   2.0000      -0.585063       -15.9204
  55   2.0000      -0.576916       -15.6987
  56   2.0000      -0.566693       -15.4205
  57   2.0000      -0.562167       -15.2973
  58   2.0000      -0.554235       -15.0815
  59   2.0000      -0.553632       -15.0651
  60   2.0000      -0.546603       -14.8738
  61   2.0000      -0.536894       -14.6096
  62   2.0000      -0.534538       -14.5455
  63   2.0000      -0.531149       -14.4533
  64   2.0000      -0.527354       -14.3500
  65   2.0000      -0.516845       -14.0641
  66   2.0000      -0.512557       -13.9474
  67   2.0000      -0.501880       -13.6569
  68   2.0000      -0.476933       -12.9780
  69   2.0000      -0.462412       -12.5829
  70   2.0000      -0.431752       -11.7486
  71   2.0000      -0.407386       -11.0855
  72   2.0000      -0.358131        -9.7452
  73   2.0000      -0.349609        -9.5133
  74   2.0000      -0.317069        -8.6279
  75   2.0000      -0.284557        -7.7432
  76   0.0000       0.018283         0.4975
  77   0.0000       0.026353         0.7171
  78   0.0000       0.030044         0.8175
  79   0.0000       0.033763         0.9187
  80   0.0000       0.038500         1.0476

MULLIKEN ATOMIC CHARGES
-----------------------
   0 C :    0.266637
   1 O :   -0.825984
   2 C :   -0.421453
   3 C :    1.096704
   4 C :   -0.885269
   5 C :   -0.343984
   6 C :   -1.171821
   7 C :    0.234824
   8 C :   -1.041494
   9 C :    1.016422
  10 O :   -1.496059
  11 C :    0.748904
  12 C :    1.938417
  13 C :    1.244855
  14 O :   -1.487770
  15 C :   -1.363035
  16 C :   -0.292052
  17 C :   -0.878311
  18 C :    0.401962
  19 C :   -1.047979
  20 O :   -1.185330
  21 H :   -0.177612
  22 H :    0.363925
  23 H :    0.227795
  24 H :    0.243991
  25 H :    0.160433
  26 H :    0.345186
  27 H :    0.245825
  28 H :    0.023193
  29 H :    0.108228
  30 H :    0.634971
  31 H :    0.528057
  32 H :    0.522837
  33 H :    0.469516
  34 H :    0.561299
  35 H :    0.097236
  36 H :    0.385457
  37 H :    0.426665
  38 H :    0.324813
Sum of atomic charges:    0.0000000

LOEWDIN ATOMIC CHARGES
----------------------
   0 C :   -0.071974
   1 O :    0.600552
   2 C :    0.224669
   3 C :   -0.106205
   4 C :    0.600860
   5 C :    0.125779
   6 C :    0.581239
   7 C :    0.122587
   8 C :    0.180963
   9 C :   -0.527656
  10 O :    0.560546
  11 C :   -0.071017
  12 C :   -0.117597
  13 C :   -0.528313
  14 O :    0.519112
  15 C :    0.211821
  16 C :    0.212203
  17 C :    0.237999
  18 C :   -0.345522
  19 C :    0.385814
  20 O :    0.865886
  21 H :   -0.168156
  22 H :   -0.174917
  23 H :   -0.161154
  24 H :   -0.148384
  25 H :   -0.156253
  26 H :   -0.207090
  27 H :   -0.154173
  28 H :   -0.173125
  29 H :   -0.183549
  30 H :   -0.173305
  31 H :   -0.175917
  32 H :   -0.159023
  33 H :   -0.182051
  34 H :   -0.182201
  35 H :   -0.714214
  36 H :   -0.169319
  37 H :   -0.209137
  38 H :   -0.169777

  Mayer bond orders larger than 0.100000
B(  0-C ,  1-O ) :   0.5509 B(  0-C ,  2-C ) :   0.9704 B(  0-C ,  3-C ) :   0.3205
B(  0-C ,  9-C ) :  -0.1414 B(  0-C , 28-H ) :   0.1843 B(  0-C , 34-H ) :   0.8860
B(  1-O , 19-C ) :   1.0539 B(  1-O , 34-H ) :  -0.3094 B(  2-C ,  3-C ) :   0.6881
B(  2-C ,  5-C ) :  -0.1689 B(  2-C ,  7-C ) :   0.1926 B(  2-C , 13-C ) :  -0.1052
B(  2-C , 21-H ) :   1.6469 B(  2-C , 28-H ) :  -0.1021 B(  3-C ,  5-C ) :   1.8919
B(  3-C ,  6-C ) :   0.1166 B(  3-C ,  7-C ) :   0.1045 B(  3-C ,  8-C ) :   0.2067
B(  3-C , 11-C ) :   0.1604 B(  3-C , 12-C ) :  -0.1117 B(  3-C , 13-C ) :  -0.1218
B(  3-C , 15-C ) :   0.1314 B(  3-C , 21-H ) :  -0.4049 B(  3-C , 24-H ) :  -0.2407
B(  3-C , 34-H ) :  -0.1069 B(  4-C , 22-H ) :   0.9538 B(  4-C , 23-H ) :   1.0937
B(  4-C , 24-H ) :   1.1037 B(  5-C ,  6-C ) :   0.5172 B(  5-C ,  7-C ) :   0.2688
B(  5-C ,  9-C ) :   0.1338 B(  5-C , 13-C ) :   0.1688 B(  5-C , 21-H ) :   0.1492
B(  5-C , 33-H ) :   0.7045 B(  6-C ,  7-C ) :   0.1151 B(  6-C , 25-H ) :   1.1130
B(  6-C , 26-H ) :   1.0403 B(  6-C , 27-H ) :   1.0783 B(  6-C , 33-H ) :  -0.1310
B(  7-C ,  8-C ) :   0.8740 B(  7-C , 11-C ) :  -0.3577 B(  7-C , 12-C ) :   0.3570
B(  7-C , 13-C ) :   0.9252 B(  7-C , 15-C ) :   0.1112 B(  7-C , 32-H ) :   0.6761
B(  7-C , 33-H ) :   0.1086 B(  8-C ,  9-C ) :   1.4227 B(  8-C , 11-C ) :   0.1737
B(  8-C , 12-C ) :  -0.3548 B(  8-C , 13-C ) :   0.3307 B(  8-C , 15-C ) :  -0.1308
B(  8-C , 28-H ) :   1.2491 B(  8-C , 32-H ) :  -0.2259 B(  9-C , 10-O ) :  -0.4074
B(  9-C , 11-C ) :   0.6119 B(  9-C , 12-C ) :  -0.4361 B(  9-C , 13-C ) :   0.1932
B(  9-C , 17-C ) :   0.1592 B(  9-C , 18-C ) :   0.9527 B(  9-C , 20-O ) :   0.1631
B( 10-O , 11-C ) :   0.1579 B( 10-O , 18-C ) :   0.1941 B( 10-O , 35-H ) :   0.3326
B( 11-C , 12-C ) :   0.4784 B( 11-C , 13-C ) :   0.3850 B( 11-C , 14-O ) :   0.1650
B( 11-C , 17-C ) :   0.5194 B( 11-C , 18-C ) :  -0.1016 B( 11-C , 30-H ) :   0.1054
B( 11-C , 31-H ) :   0.1410 B( 11-C , 35-H ) :  -0.1553 B( 12-C , 13-C ) :   0.6662
B( 12-C , 15-C ) :   0.4694 B( 12-C , 16-C ) :   0.1066 B( 12-C , 17-C ) :  -0.3908
B( 12-C , 18-C ) :  -0.6411 B( 12-C , 20-O ) :  -0.1141 B( 13-C , 14-O ) :  -0.5205
B( 13-C , 15-C ) :  -0.2445 B( 13-C , 28-H ) :  -0.2354 B( 13-C , 32-H ) :   0.1295
B( 14-O , 15-C ) :   0.1232 B( 14-O , 29-H ) :   0.1749 B( 15-C , 16-C ) :   1.2210
B( 15-C , 18-C ) :   0.3384 B( 15-C , 29-H ) :   1.3418 B( 15-C , 30-H ) :  -0.1409
B( 15-C , 31-H ) :   0.1156 B( 16-C , 17-C ) :   1.1329 B( 16-C , 18-C ) :  -0.1462
B( 16-C , 29-H ) :  -0.1358 B( 16-C , 30-H ) :   0.4940 B( 17-C , 18-C ) :   0.8886
B( 17-C , 20-O ) :   0.2473 B( 17-C , 31-H ) :   0.5768 B( 18-C , 30-H ) :   0.1048
B( 18-C , 35-H ) :   0.1653 B( 19-C , 36-H ) :   0.9160 B( 19-C , 37-H ) :   0.7978
B( 19-C , 38-H ) :   0.9248 B( 20-O , 35-H ) :   0.8759

MP2 TOTAL ENERGY:     -957.710040168 Eh
FINAL SINGLE POINT ENERGY      -957.710040168056

DIPOLE MOMENT
-------------
                                X             Y             Z
Electronic contribution:    -10.08282       8.42775      -5.01535
Nuclear contribution   :     11.13795      -9.99590       5.90954
                        -----------------------------------------
Total Dipole Moment    :      1.05513      -1.56815       0.89420
                        -----------------------------------------
Magnitude (a.u.)       :      2.09093
Magnitude (Debye)      :      5.31473

Rotational constants in cm-1:     0.012923     0.012130     0.008137
Rotational constants in MHz :   387.424925   363.645211   243.945130

                             ****ORCA TERMINATED NORMALLY****
TOTAL RUN TIME: 0 days 1 hours 10 minutes 4 seconds 697 msec
