                         Program Version 4.2.1 -  RELEASE  -
|  1> %pal
|  2>  nprocs 32
|  3> end
|  4> !RI-MP2 aug-cc-pVTZ aug-cc-pVTZ/C TightSCF
|  5> %maxcore 4500
|  6> *xyzfile 0 1  02_49P.xyz
|  7>
|  8>
|  9>                          ****END OF INPUT****

CARTESIAN COORDINATES (ANGSTROEM)
---------------------------------
  C      1.729226   -1.108455   -1.431072
  C      0.640042   -0.263728    0.770836
  C      0.802761    0.813543   -0.287127
  C      1.352691    0.355549   -1.415020
  C      2.706083   -1.255683   -0.281137
  C      2.047037   -0.762552    1.035181
  O      2.595573   -0.798283    2.099652
  O      3.820109   -1.691522   -0.334907
  C      0.455679    2.255114    0.030929
  C     -1.005391    2.375078    0.489295
  H     -1.215483    3.409196    0.771957
  H     -1.695694    2.090876   -0.305128
  H     -1.220363    1.746350    1.354534
  C      0.664167    3.155671   -1.187416
  H      0.399978    4.184546   -0.934789
  H      1.704983    3.152852   -1.517640
  H      0.034838    2.845785   -2.024892
  C      1.382101    2.727562    1.165609
  H      1.153619    3.763778    1.425786
  H      1.263286    2.124906    2.068012
  H      2.429993    2.674147    0.862661
  C     -4.331832   -0.296096   -0.015995
  C     -3.799459   -0.832983    1.148647
  C     -3.523011   -0.158959   -1.133826
  H     -4.422136   -0.952428    2.027131
  C     -2.470409   -1.225148    1.187252
  H     -3.927932    0.257267   -2.048666
  C     -2.190809   -0.548477   -1.088494
  C     -1.644247   -1.085843    0.073274
  H     -2.063048   -1.647437    2.100034
  C     -0.184254   -1.465907    0.201048
  H     -1.575882   -0.414200   -1.968498
  C      0.491115   -1.972658   -1.093445
  H     -5.370858    0.007621   -0.052408
  H      1.574156    0.979768   -2.269650
  H     -0.129933   -2.254314    0.955536
  H      0.202909    0.094900    1.699071
  H     -0.195857   -1.944801   -1.936979
  H      0.796462   -3.014390   -0.976010
  H      2.202568   -1.422151   -2.359244

 Total Charge           Charge          ....    0
 Multiplicity           Mult            ....    1
 Number of Electrons    NEL             ....  144
 Basis Dimension        Dim             .... 1380

ORBITAL ENERGIES
----------------

  NO   OCC          E(Eh)            E(eV)
   0   2.0000     -20.569911      -559.7357
   1   2.0000     -20.567808      -559.6785
   2   2.0000     -11.341160      -308.6086
   3   2.0000     -11.339569      -308.5653
   4   2.0000     -11.264994      -306.5361
   5   2.0000     -11.259082      -306.3752
   6   2.0000     -11.258331      -306.3548
   7   2.0000     -11.257137      -306.3223
   8   2.0000     -11.253847      -306.2328
   9   2.0000     -11.253610      -306.2263
  10   2.0000     -11.250868      -306.1517
  11   2.0000     -11.245478      -306.0050
  12   2.0000     -11.245075      -305.9941
  13   2.0000     -11.244130      -305.9683
  14   2.0000     -11.242798      -305.9321
  15   2.0000     -11.242400      -305.9213
  16   2.0000     -11.242059      -305.9120
  17   2.0000     -11.221920      -305.3640
  18   2.0000     -11.220617      -305.3285
  19   2.0000     -11.218138      -305.2610
  20   2.0000      -1.423040       -38.7229
  21   2.0000      -1.396387       -37.9976
  22   2.0000      -1.200877       -32.6775
  23   2.0000      -1.166774       -31.7495
  24   2.0000      -1.118362       -30.4322
  25   2.0000      -1.071146       -29.1474
  26   2.0000      -1.036126       -28.1944
  27   2.0000      -1.027625       -27.9631
  28   2.0000      -1.006280       -27.3823
  29   2.0000      -0.959419       -26.1071
  30   2.0000      -0.941501       -25.6196
  31   2.0000      -0.940409       -25.5898
  32   2.0000      -0.871453       -23.7134
  33   2.0000      -0.848374       -23.0854
  34   2.0000      -0.837062       -22.7776
  35   2.0000      -0.818244       -22.2655
  36   2.0000      -0.789768       -21.4907
  37   2.0000      -0.744564       -20.2606
  38   2.0000      -0.716993       -19.5104
  39   2.0000      -0.701805       -19.0971
  40   2.0000      -0.687475       -18.7071
  41   2.0000      -0.668884       -18.2013
  42   2.0000      -0.659532       -17.9468
  43   2.0000      -0.646840       -17.6014
  44   2.0000      -0.642657       -17.4876
  45   2.0000      -0.632282       -17.2053
  46   2.0000      -0.614292       -16.7157
  47   2.0000      -0.610632       -16.6162
  48   2.0000      -0.606617       -16.5069
  49   2.0000      -0.601598       -16.3703
  50   2.0000      -0.594857       -16.1869
  51   2.0000      -0.585151       -15.9228
  52   2.0000      -0.575044       -15.6477
  53   2.0000      -0.553607       -15.0644
  54   2.0000      -0.551061       -14.9951
  55   2.0000      -0.546423       -14.8689
  56   2.0000      -0.537040       -14.6136
  57   2.0000      -0.527335       -14.3495
  58   2.0000      -0.522835       -14.2271
  59   2.0000      -0.516502       -14.0547
  60   2.0000      -0.511772       -13.9260
  61   2.0000      -0.506406       -13.7800
  62   2.0000      -0.500226       -13.6118
  63   2.0000      -0.488349       -13.2887
  64   2.0000      -0.479924       -13.0594
  65   2.0000      -0.465386       -12.6638
  66   2.0000      -0.464309       -12.6345
  67   2.0000      -0.444203       -12.0874
  68   2.0000      -0.409906       -11.1541
  69   2.0000      -0.358444        -9.7538
  70   2.0000      -0.347568        -9.4578
  71   2.0000      -0.338432        -9.2092
  72   0.0000       0.018927         0.5150
  73   0.0000       0.025158         0.6846
  74   0.0000       0.028249         0.7687
  75   0.0000       0.030387         0.8269
  76   0.0000       0.038067         1.0359

MULLIKEN ATOMIC CHARGES
-----------------------
   0 C :   -0.056838
   1 C :    0.584930
   2 C :    1.366250
   3 C :   -0.747880
   4 C :    1.154329
   5 C :    0.865266
   6 O :   -1.321964
   7 O :   -1.232786
   8 C :    1.554042
   9 C :   -1.477394
  10 H :    0.143276
  11 H :    0.411925
  12 H :    0.380179
  13 C :   -1.530195
  14 H :    0.169740
  15 H :    0.257460
  16 H :    0.256975
  17 C :   -1.499394
  18 H :    0.164862
  19 H :    0.359268
  20 H :    0.305158
  21 C :   -0.171282
  22 C :   -0.518329
  23 C :   -0.774640
  24 H :    0.519755
  25 C :   -0.825744
  26 H :    0.330283
  27 C :   -0.547941
  28 C :    1.382859
  29 H :    0.068128
  30 C :    0.176686
  31 H :    0.040782
  32 C :   -0.788206
  33 H :    0.576512
  34 H :   -0.207972
  35 H :    0.132720
  36 H :   -0.276931
  37 H :    0.227255
  38 H :    0.272707
  39 H :    0.276145
Sum of atomic charges:    0.0000000

LOEWDIN ATOMIC CHARGES
----------------------
   0 C :    0.008489
   1 C :    0.015254
   2 C :   -0.047311
   3 C :    0.283344
   4 C :   -0.473456
   5 C :   -0.467562
   6 O :    0.502556
   7 O :    0.492781
   8 C :   -0.329277
   9 C :    0.598730
  10 H :   -0.147589
  11 H :   -0.165845
  12 H :   -0.161416
  13 C :    0.576042
  14 H :   -0.151814
  15 H :   -0.156720
  16 H :   -0.151461
  17 C :    0.601771
  18 H :   -0.150505
  19 H :   -0.157787
  20 H :   -0.145278
  21 C :    0.200469
  22 C :    0.207841
  23 C :    0.206699
  24 H :   -0.178097
  25 C :    0.225171
  26 H :   -0.175658
  27 C :    0.213411
  28 C :   -0.082883
  29 H :   -0.164706
  30 C :    0.050361
  31 H :   -0.182119
  32 C :    0.353623
  33 H :   -0.180992
  34 H :   -0.163020
  35 H :   -0.135884
  36 H :   -0.150288
  37 H :   -0.163977
  38 H :   -0.123284
  39 H :   -0.129614

  Mayer bond orders larger than 0.100000
B(  0-C ,  1-C ) :   0.2550 B(  0-C ,  2-C ) :   0.1436 B(  0-C ,  3-C ) :   0.8806
B(  0-C ,  4-C ) :   1.0633 B(  0-C , 32-C ) :   1.1763 B(  0-C , 39-H ) :   0.7597
B(  1-C ,  2-C ) :   1.0071 B(  1-C ,  3-C ) :  -0.5573 B(  1-C ,  4-C ) :  -0.1382
B(  1-C ,  5-C ) :   0.2399 B(  1-C ,  6-O ) :  -0.1644 B(  1-C ,  9-C ) :  -0.1280
B(  1-C , 17-C ) :  -0.2163 B(  1-C , 22-C ) :   0.1254 B(  1-C , 30-C ) :   1.0392
B(  1-C , 32-C ) :   0.2823 B(  1-C , 34-H ) :  -0.1238 B(  1-C , 36-H ) :   1.1155
B(  2-C ,  3-C ) :   1.1330 B(  2-C ,  5-C ) :   0.5684 B(  2-C ,  6-O ) :   0.2529
B(  2-C ,  7-O ) :   0.1367 B(  2-C ,  8-C ) :   1.0284 B(  2-C ,  9-C ) :  -0.1035
B(  2-C , 13-C ) :  -0.2063 B(  2-C , 27-C ) :  -0.1505 B(  2-C , 30-C ) :   0.3714
B(  2-C , 31-H ) :  -0.1319 B(  2-C , 32-C ) :  -0.3070 B(  2-C , 34-H ) :  -0.5004
B(  2-C , 36-H ) :  -0.1081 B(  3-C ,  4-C ) :   0.5407 B(  3-C ,  7-O ) :  -0.1006
B(  3-C ,  8-C ) :   0.1467 B(  3-C ,  9-C ) :   0.1734 B(  3-C , 34-H ) :   1.7300
B(  4-C ,  5-C ) :   1.0095 B(  4-C ,  7-O ) :   0.1695 B(  4-C , 32-C ) :   0.1074
B(  5-C ,  7-O ) :   0.1488 B(  5-C , 28-C ) :   0.1454 B(  5-C , 32-C ) :  -0.1081
B(  6-O , 36-H ) :   0.3529 B(  7-O , 39-H ) :   0.2327 B(  8-C ,  9-C ) :   0.4551
B(  8-C , 13-C ) :   0.1678 B(  8-C , 14-H ) :  -0.1645 B(  8-C , 17-C ) :   0.2237
B(  8-C , 18-H ) :  -0.1426 B(  8-C , 30-C ) :  -0.1197 B(  8-C , 36-H ) :   0.1155
B(  9-C , 10-H ) :   1.1962 B(  9-C , 11-H ) :   0.9303 B(  9-C , 12-H ) :   1.0019
B(  9-C , 13-C ) :   0.1476 B( 13-C , 14-H ) :   1.2126 B( 13-C , 15-H ) :   1.1106
B( 13-C , 16-H ) :   1.1036 B( 13-C , 17-C ) :   0.1625 B( 17-C , 18-H ) :   1.2243
B( 17-C , 19-H ) :   0.9870 B( 17-C , 20-H ) :   1.0364 B( 21-C , 22-C ) :   1.1011
B( 21-C , 23-C ) :   1.0137 B( 21-C , 25-C ) :   0.2179 B( 21-C , 27-C ) :   0.1596
B( 21-C , 33-H ) :   0.6209 B( 22-C , 24-H ) :   0.7107 B( 22-C , 25-C ) :   1.0883
B( 22-C , 28-C ) :   0.3231 B( 23-C , 25-C ) :   0.1605 B( 23-C , 26-H ) :   1.0097
B( 23-C , 27-C ) :   1.5573 B( 23-C , 30-C ) :  -0.1076 B( 25-C , 27-C ) :  -0.3465
B( 25-C , 28-C ) :   0.3783 B( 25-C , 29-H ) :   1.3245 B( 25-C , 30-C ) :   0.3505
B( 25-C , 35-H ) :  -0.1297 B( 25-C , 36-H ) :   0.2025 B( 27-C , 28-C ) :   0.6045
B( 27-C , 29-H ) :   0.1088 B( 27-C , 30-C ) :   0.2753 B( 27-C , 31-H ) :   1.4514
B( 27-C , 32-C ) :  -0.1723 B( 27-C , 33-H ) :  -0.1003 B( 28-C , 29-H ) :  -0.1460
B( 28-C , 30-C ) :   0.2662 B( 28-C , 31-H ) :  -0.1585 B( 28-C , 32-C ) :   0.1444
B( 28-C , 35-H ) :  -0.4060 B( 28-C , 36-H ) :  -0.2138 B( 30-C , 32-C ) :   0.7116
B( 30-C , 35-H ) :   1.2755 B( 32-C , 34-H ) :  -0.1137 B( 32-C , 35-H ) :  -0.1206
B( 32-C , 37-H ) :   1.0705 B( 32-C , 38-H ) :   0.9462

MP2 TOTAL ENERGY:     -846.715480139 Eh
FINAL SINGLE POINT ENERGY      -846.715480139430

DIPOLE MOMENT
-------------
                                X             Y             Z
Electronic contribution:      7.97357     -15.04710       2.14068
Nuclear contribution   :    -10.03065      15.76465      -3.12548
                        -----------------------------------------
Total Dipole Moment    :     -2.05708       0.71754      -0.98480
                        -----------------------------------------
Magnitude (a.u.)       :      2.39087
Magnitude (Debye)      :      6.07711

Rotational constants in cm-1:     0.017253     0.009835     0.008134
Rotational constants in MHz :   517.220720   294.842805   243.862270

                             ****ORCA TERMINATED NORMALLY****
TOTAL RUN TIME: 0 days 1 hours 12 minutes 38 seconds 311 msec
