                         Program Version 4.2.1 -  RELEASE  -
|  1> %pal
|  2>  nprocs 32
|  3> end
|  4> !RI-MP2 aug-cc-pVTZ aug-cc-pVTZ/C TightSCF
|  5> %maxcore 4500
|  6> *xyzfile 0 1  10_51P.xyz
|  7>
|  8>
|  9>                          ****END OF INPUT****

CARTESIAN COORDINATES (ANGSTROEM)
---------------------------------
  C      0.684251    0.866276    1.255497
  N      0.016831   -0.280603    0.620693
  C      0.312434   -1.593860    1.226838
  C      1.178174   -2.571041    0.382684
  C      2.446052   -1.856658    0.061312
  C      2.305009    1.299624   -1.203413
  C      2.049947    2.477009   -0.326121
  C      0.726800    2.176941    0.428538
  C      2.525390   -1.057700   -1.003122
  C      3.074748    0.278562   -0.825033
  C     -1.319598   -0.115909    0.211863
  C     -2.120396    0.949503    0.634360
  C     -3.436420    1.062777    0.205846
  C     -3.993741    0.116043   -0.638590
  C     -3.209964   -0.953369   -1.054566
  C     -1.893252   -1.064815   -0.643859
  H      0.224678    1.075839    2.233657
  H      1.706503    0.550123    1.463716
  H      0.831707   -1.418189    2.174640
  H     -0.629440   -2.087104    1.479660
  H      1.322840   -3.479246    0.976029
  H      0.645781   -2.848296   -0.529477
  H      1.923539    3.413669   -0.876829
  H      2.869097    2.615701    0.385342
  H      0.516139    3.015819    1.098511
  H     -0.080994    2.168207   -0.303698
  H     -1.726057    1.693974    1.311360
  H     -4.032452    1.900068    0.550033
  H     -5.020742    0.207903   -0.968728
  H     -3.623660   -1.703290   -1.718673
  H     -1.289483   -1.888607   -1.000814
  H      1.814828   -1.187504   -1.815005
  H      3.111999   -1.669241    0.902465
  H      3.805074    0.417085   -0.031159
  H      1.536221    1.107014   -1.949279

 Total Charge           Charge          ....    0
 Multiplicity           Mult            ....    1
 Number of Electrons    NEL             ....  116
 Basis Dimension        Dim             .... 1173

ORBITAL ENERGIES
----------------

  NO   OCC          E(Eh)            E(eV)
   0   2.0000     -15.560255      -423.4161
   1   2.0000     -11.270472      -306.6851
   2   2.0000     -11.261055      -306.4289
   3   2.0000     -11.258555      -306.3608
   4   2.0000     -11.232680      -305.6568
   5   2.0000     -11.232534      -305.6528
   6   2.0000     -11.230088      -305.5862
   7   2.0000     -11.229930      -305.5819
   8   2.0000     -11.229756      -305.5772
   9   2.0000     -11.228519      -305.5435
  10   2.0000     -11.227435      -305.5140
  11   2.0000     -11.223030      -305.3942
  12   2.0000     -11.222581      -305.3820
  13   2.0000     -11.222389      -305.3767
  14   2.0000     -11.220982      -305.3385
  15   2.0000     -11.219036      -305.2855
  16   2.0000      -1.249072       -33.9890
  17   2.0000      -1.140747       -31.0413
  18   2.0000      -1.115615       -30.3574
  19   2.0000      -1.086103       -29.5544
  20   2.0000      -1.026675       -27.9373
  21   2.0000      -1.015163       -27.6240
  22   2.0000      -0.990718       -26.9588
  23   2.0000      -0.985530       -26.8176
  24   2.0000      -0.898099       -24.4385
  25   2.0000      -0.856929       -23.3182
  26   2.0000      -0.832328       -22.6488
  27   2.0000      -0.823569       -22.4104
  28   2.0000      -0.778086       -21.1728
  29   2.0000      -0.757734       -20.6190
  30   2.0000      -0.751236       -20.4422
  31   2.0000      -0.700815       -19.0702
  32   2.0000      -0.665201       -18.1010
  33   2.0000      -0.653635       -17.7863
  34   2.0000      -0.640287       -17.4231
  35   2.0000      -0.636729       -17.3263
  36   2.0000      -0.629355       -17.1256
  37   2.0000      -0.605072       -16.4648
  38   2.0000      -0.597189       -16.2503
  39   2.0000      -0.580965       -15.8089
  40   2.0000      -0.577324       -15.7098
  41   2.0000      -0.562465       -15.3055
  42   2.0000      -0.546535       -14.8720
  43   2.0000      -0.540136       -14.6979
  44   2.0000      -0.527846       -14.3634
  45   2.0000      -0.521000       -14.1771
  46   2.0000      -0.512330       -13.9412
  47   2.0000      -0.501737       -13.6530
  48   2.0000      -0.499780       -13.5997
  49   2.0000      -0.482680       -13.1344
  50   2.0000      -0.480170       -13.0661
  51   2.0000      -0.476309       -12.9610
  52   2.0000      -0.462850       -12.5948
  53   2.0000      -0.413218       -11.2442
  54   2.0000      -0.394861       -10.7447
  55   2.0000      -0.336711        -9.1624
  56   2.0000      -0.294732        -8.0201
  57   2.0000      -0.287479        -7.8227
  58   0.0000       0.025044         0.6815
  59   0.0000       0.029415         0.8004
  60   0.0000       0.029663         0.8072
  61   0.0000       0.035014         0.9528
  62   0.0000       0.040496         1.1019

MULLIKEN ATOMIC CHARGES
-----------------------
   0 C :   -0.818232
   1 N :    0.980743
   2 C :   -0.682573
   3 C :   -0.352933
   4 C :   -0.492673
   5 C :   -0.569462
   6 C :   -0.408086
   7 C :   -0.583831
   8 C :   -0.476239
   9 C :   -0.278154
  10 C :    1.782666
  11 C :   -0.722403
  12 C :   -0.818820
  13 C :   -0.506745
  14 C :   -1.032616
  15 C :   -0.685594
  16 H :   -0.011998
  17 H :    0.280708
  18 H :    0.191541
  19 H :    0.282958
  20 H :    0.313796
  21 H :    0.126356
  22 H :    0.318143
  23 H :    0.108802
  24 H :    0.383397
  25 H :    0.316723
  26 H :   -0.096475
  27 H :    0.527817
  28 H :    0.447308
  29 H :    0.539768
  30 H :    0.316638
  31 H :    0.474721
  32 H :    0.328035
  33 H :    0.451402
  34 H :    0.365313
Sum of atomic charges:    0.0000000

LOEWDIN ATOMIC CHARGES
----------------------
   0 C :    0.191506
   1 N :    0.308581
   2 C :    0.205336
   3 C :    0.282331
   4 C :    0.198791
   5 C :    0.204577
   6 C :    0.281093
   7 C :    0.315607
   8 C :    0.183263
   9 C :    0.186533
  10 C :   -0.230436
  11 C :    0.219447
  12 C :    0.198315
  13 C :    0.188135
  14 C :    0.196101
  15 C :    0.223705
  16 H :   -0.134346
  17 H :   -0.172102
  18 H :   -0.143007
  19 H :   -0.146975
  20 H :   -0.146608
  21 H :   -0.169994
  22 H :   -0.147469
  23 H :   -0.150982
  24 H :   -0.139010
  25 H :   -0.176905
  26 H :   -0.200199
  27 H :   -0.179010
  28 H :   -0.190253
  29 H :   -0.179587
  30 H :   -0.193871
  31 H :   -0.171195
  32 H :   -0.171711
  33 H :   -0.173557
  34 H :   -0.166102

  Mayer bond orders larger than 0.100000
B(  0-C ,  1-N ) :   0.8167 B(  0-C ,  2-C ) :   0.1352 B(  0-C ,  7-C ) :   0.8945
B(  0-C , 10-C ) :  -0.1133 B(  0-C , 11-C ) :   0.1456 B(  0-C , 15-C ) :   0.1103
B(  0-C , 16-H ) :   1.3362 B(  0-C , 17-H ) :   0.9187 B(  1-N ,  2-C ) :   0.5670
B(  1-N , 10-C ) :   0.7508 B(  1-N , 11-C ) :  -0.5216 B(  1-N , 12-C ) :   0.2025
B(  1-N , 15-C ) :  -0.1228 B(  1-N , 26-H ) :  -0.1586 B(  1-N , 27-H ) :   0.1081
B(  1-N , 28-H ) :  -0.1307 B(  1-N , 30-H ) :  -0.1933 B(  2-C ,  3-C ) :   0.8342
B(  2-C ,  4-C ) :   0.1088 B(  2-C , 10-C ) :  -0.1547 B(  2-C , 18-H ) :   1.1281
B(  2-C , 19-H ) :   1.0327 B(  3-C ,  4-C ) :   0.9871 B(  3-C , 20-H ) :   0.9153
B(  3-C , 21-H ) :   1.1206 B(  4-C ,  8-C ) :   1.4326 B(  4-C ,  9-C ) :  -0.1255
B(  4-C , 31-H ) :  -0.1084 B(  4-C , 32-H ) :   0.8722 B(  5-C ,  6-C ) :   1.0111
B(  5-C ,  8-C ) :  -0.1370 B(  5-C ,  9-C ) :   1.4576 B(  5-C , 22-H ) :  -0.1291
B(  5-C , 34-H ) :   0.8695 B(  6-C ,  7-C ) :   0.9113 B(  6-C ,  9-C ) :  -0.1020
B(  6-C , 22-H ) :   0.9322 B(  6-C , 23-H ) :   1.1230 B(  7-C , 24-H ) :   0.8674
B(  7-C , 25-H ) :   1.0157 B(  8-C ,  9-C ) :   0.9998 B(  8-C , 31-H ) :   0.7717
B(  9-C , 33-H ) :   0.8018 B( 10-C , 11-C ) :   0.3091 B( 10-C , 12-C ) :  -0.1070
B( 10-C , 13-C ) :  -0.1293 B( 10-C , 14-C ) :  -0.2533 B( 10-C , 15-C ) :   0.3325
B( 10-C , 26-H ) :  -0.2964 B( 11-C , 12-C ) :   1.0791 B( 11-C , 15-C ) :  -0.3564
B( 11-C , 26-H ) :   1.8948 B( 11-C , 27-H ) :  -0.1275 B( 11-C , 28-H ) :   0.1599
B( 11-C , 30-H ) :   0.2486 B( 12-C , 13-C ) :   1.2447 B( 12-C , 14-C ) :   0.3123
B( 12-C , 27-H ) :   0.5981 B( 12-C , 28-H ) :  -0.1866 B( 13-C , 14-C ) :   1.2429
B( 13-C , 28-H ) :   0.7916 B( 14-C , 15-C ) :   1.2170 B( 14-C , 28-H ) :  -0.1947
B( 14-C , 29-H ) :   0.5837 B( 14-C , 30-H ) :  -0.1715 B( 15-C , 28-H ) :   0.1278
B( 15-C , 30-H ) :   1.1076 B( 16-H , 26-H ) :  -0.1077

MP2 TOTAL ENERGY:     -636.357457384 Eh
FINAL SINGLE POINT ENERGY      -636.357457383750

DIPOLE MOMENT
-------------
                                X             Y             Z
Electronic contribution:     -4.20006      -1.72423      -2.81993
Nuclear contribution   :      3.98866       1.92227       3.45732
                        -----------------------------------------
Total Dipole Moment    :     -0.21140       0.19804       0.63740
                        -----------------------------------------
Magnitude (a.u.)       :      0.70013
Magnitude (Debye)      :      1.77960

Rotational constants in cm-1:     0.027985     0.013633     0.010910
Rotational constants in MHz :   838.965541   408.706663   327.078353

                             ****ORCA TERMINATED NORMALLY****
TOTAL RUN TIME: 0 days 0 hours 35 minutes 29 seconds 561 msec
