                         Program Version 4.2.1 -  RELEASE  -
|  1> %pal
|  2>  nprocs 32
|  3> end
|  4> !RI-MP2 aug-cc-pVTZ aug-cc-pVTZ/C TightSCF
|  5> %maxcore 4500
|  6> *xyzfile 0 1  05_24P2.xyz
|  7>
|  8>
|  9>                          ****END OF INPUT****

CARTESIAN COORDINATES (ANGSTROEM)
---------------------------------
  C     -2.897864    1.427774   -0.667339
  C     -1.562634    2.092278   -0.872965
  C     -0.407101    1.504032   -0.584898
  N     -0.331989    0.209708   -0.060111
  C     -1.506182   -0.415890    0.273631
  C     -2.720812    0.091570    0.019719
  C     -3.873749   -0.736863    0.436529
  O     -3.759642   -1.831825    0.965112
  N     -5.106732   -0.208691    0.175539
  C      0.941704   -0.363914    0.275562
  C      1.887869   -0.565180   -0.911178
  C      3.242003   -0.510727   -0.239529
  C      3.031750    0.589353    0.793274
  O      1.652940    0.463214    1.184887
  H      0.735358   -1.336750    0.730935
  C      3.920762    0.510871    2.009058
  H      3.169918    1.554187    0.289859
  H      3.692387    1.320763    2.702783
  H      4.966675    0.594835    1.707051
  H      3.775055   -0.439365    2.526827
  O      4.314056   -0.180624   -1.089932
  H      3.422411   -1.470920    0.261707
  O      1.710515   -1.789130   -1.585504
  H      1.809824    0.277789   -1.607233
  H      0.898759   -1.760996   -2.100102
  H      4.446982   -0.903311   -1.710151
  H     -5.908455   -0.727414    0.493761
  H     -5.237444    0.721360   -0.179266
  H     -1.424398   -1.378853    0.761757
  H     -1.543332    3.102219   -1.262202
  H      0.541273    2.006829   -0.709989
  H     -3.412360    1.308925   -1.631750
  H     -3.539048    2.090674   -0.069670

 Total Charge           Charge          ....    0
 Multiplicity           Mult            ....    1
 Number of Electrons    NEL             ....  128
 Basis Dimension        Dim             .... 1150

ORBITAL ENERGIES
----------------

  NO   OCC          E(Eh)            E(eV)
   0   2.0000     -20.585412      -560.1575
   1   2.0000     -20.576956      -559.9274
   2   2.0000     -20.571459      -559.7779
   3   2.0000     -20.499065      -557.8079
   4   2.0000     -15.604616      -424.6232
   5   2.0000     -15.575177      -423.8221
   6   2.0000     -11.341800      -308.6261
   7   2.0000     -11.335914      -308.4659
   8   2.0000     -11.298029      -307.4350
   9   2.0000     -11.294411      -307.3365
  10   2.0000     -11.292812      -307.2930
  11   2.0000     -11.288646      -307.1797
  12   2.0000     -11.277304      -306.8710
  13   2.0000     -11.247285      -306.0542
  14   2.0000     -11.233032      -305.6663
  15   2.0000     -11.223572      -305.4089
  16   2.0000     -11.221931      -305.3643
  17   2.0000      -1.417218       -38.5645
  18   2.0000      -1.388679       -37.7879
  19   2.0000      -1.378830       -37.5199
  20   2.0000      -1.366989       -37.1977
  21   2.0000      -1.293807       -35.2063
  22   2.0000      -1.201235       -32.6873
  23   2.0000      -1.102975       -30.0135
  24   2.0000      -1.066689       -29.0261
  25   2.0000      -1.054898       -28.7052
  26   2.0000      -1.035254       -28.1707
  27   2.0000      -0.948652       -25.8141
  28   2.0000      -0.902149       -24.5487
  29   2.0000      -0.879279       -23.9264
  30   2.0000      -0.844308       -22.9748
  31   2.0000      -0.816054       -22.2060
  32   2.0000      -0.792292       -21.5594
  33   2.0000      -0.751334       -20.4448
  34   2.0000      -0.743120       -20.2213
  35   2.0000      -0.715487       -19.4694
  36   2.0000      -0.708796       -19.2873
  37   2.0000      -0.691251       -18.8099
  38   2.0000      -0.682154       -18.5624
  39   2.0000      -0.658491       -17.9185
  40   2.0000      -0.642906       -17.4944
  41   2.0000      -0.638322       -17.3696
  42   2.0000      -0.626034       -17.0352
  43   2.0000      -0.617335       -16.7986
  44   2.0000      -0.614743       -16.7280
  45   2.0000      -0.608327       -16.5534
  46   2.0000      -0.590419       -16.0661
  47   2.0000      -0.563019       -15.3205
  48   2.0000      -0.559372       -15.2213
  49   2.0000      -0.555530       -15.1167
  50   2.0000      -0.555238       -15.1088
  51   2.0000      -0.545274       -14.8377
  52   2.0000      -0.533862       -14.5271
  53   2.0000      -0.529723       -14.4145
  54   2.0000      -0.525037       -14.2870
  55   2.0000      -0.503097       -13.6900
  56   2.0000      -0.494733       -13.4624
  57   2.0000      -0.466974       -12.7070
  58   2.0000      -0.447856       -12.1868
  59   2.0000      -0.432466       -11.7680
  60   2.0000      -0.415041       -11.2938
  61   2.0000      -0.406464       -11.0604
  62   2.0000      -0.381877       -10.3914
  63   2.0000      -0.294854        -8.0234
  64   0.0000       0.021671         0.5897
  65   0.0000       0.028056         0.7634
  66   0.0000       0.031901         0.8681
  67   0.0000       0.032688         0.8895
  68   0.0000       0.040513         1.1024

MULLIKEN ATOMIC CHARGES
-----------------------
   0 C :    0.197267
   1 C :   -1.079359
   2 C :   -0.064167
   3 N :   -0.296732
   4 C :   -1.622746
   5 C :    1.570845
   6 C :    0.597219
   7 O :   -1.043628
   8 N :   -0.459837
   9 C :    0.472894
  10 C :    0.328604
  11 C :    0.639828
  12 C :    0.366427
  13 O :   -0.943491
  14 H :    0.527263
  15 C :   -1.094309
  16 H :    0.320597
  17 H :    0.253688
  18 H :    0.290370
  19 H :    0.266917
  20 O :   -0.847450
  21 H :    0.226846
  22 O :   -0.894312
  23 H :    0.232227
  24 H :    0.172066
  25 H :    0.148805
  26 H :    0.135305
  27 H :    0.182353
  28 H :    0.071833
  29 H :    0.348389
  30 H :    0.621387
  31 H :    0.196194
  32 H :    0.178707
Sum of atomic charges:    0.0000000

LOEWDIN ATOMIC CHARGES
----------------------
   0 C :    0.235498
   1 C :    0.258655
   2 C :    0.130031
   3 N :    0.256575
   4 C :    0.143962
   5 C :   -0.068377
   6 C :   -0.706625
   7 O :    0.427887
   8 N :    0.857250
   9 C :   -0.327213
  10 C :   -0.238141
  11 C :   -0.258961
  12 C :   -0.261284
  13 O :    0.630365
  14 H :   -0.135353
  15 C :    0.604735
  16 H :   -0.129321
  17 H :   -0.163262
  18 H :   -0.159920
  19 H :   -0.162602
  20 O :    0.853309
  21 H :   -0.118828
  22 O :    0.854485
  23 H :   -0.132308
  24 H :   -0.464104
  25 H :   -0.468264
  26 H :   -0.289680
  27 H :   -0.331758
  28 H :   -0.170989
  29 H :   -0.185470
  30 H :   -0.171661
  31 H :   -0.149474
  32 H :   -0.159158

  Mayer bond orders larger than 0.100000
B(  0-C ,  1-C ) :   0.5543 B(  0-C ,  2-C ) :   0.1894 B(  0-C ,  4-C ) :  -0.3693
B(  0-C ,  5-C ) :   0.5957 B(  0-C , 28-H ) :  -0.1773 B(  0-C , 31-H ) :   1.0347
B(  0-C , 32-H ) :   1.0718 B(  1-C ,  2-C ) :   1.3238 B(  1-C ,  3-N ) :  -0.2254
B(  1-C ,  4-C ) :   0.2302 B(  1-C ,  5-C ) :   0.2186 B(  1-C ,  9-C ) :   0.1578
B(  1-C , 29-H ) :   1.0558 B(  1-C , 30-H ) :  -0.1790 B(  2-C ,  3-N ) :   0.9624
B(  2-C ,  9-C ) :  -0.1436 B(  2-C , 30-H ) :   0.6140 B(  3-N ,  4-C ) :   1.4879
B(  3-N ,  5-C ) :  -0.4301 B(  3-N ,  9-C ) :   0.9523 B(  3-N , 13-O ) :   0.1342
B(  3-N , 14-H ) :  -0.2135 B(  4-C ,  5-C ) :   0.3224 B(  4-C ,  6-C ) :   0.7725
B(  4-C ,  9-C ) :  -0.6464 B(  4-C , 14-H ) :  -0.3520 B(  4-C , 28-H ) :   1.9077
B(  5-C ,  7-O ) :   0.3476 B(  5-C ,  8-N ) :  -0.2350 B(  5-C ,  9-C ) :   0.2028
B(  5-C , 14-H ) :   0.2821 B(  5-C , 28-H ) :  -0.6407 B(  6-C ,  7-O ) :   0.7334
B(  6-C ,  8-N ) :   0.9866 B(  6-C , 28-H ) :   0.2833 B(  8-N , 26-H ) :   1.0498
B(  8-N , 27-H ) :   1.0110 B(  9-C , 10-C ) :   0.8938 B(  9-C , 13-O ) :   0.5060
B(  9-C , 14-H ) :   0.7092 B(  9-C , 22-O ) :   0.1657 B( 10-C , 11-C ) :   0.9618
B( 10-C , 13-O ) :   0.1293 B( 10-C , 20-O ) :   0.1853 B( 10-C , 22-O ) :   0.1251
B( 10-C , 23-H ) :   1.0417 B( 11-C , 12-C ) :   0.9053 B( 11-C , 21-H ) :   1.0443
B( 12-C , 13-O ) :   0.6011 B( 12-C , 15-C ) :   0.6084 B( 12-C , 16-H ) :   0.9612
B( 15-C , 17-H ) :   1.0283 B( 15-C , 18-H ) :   1.0010 B( 15-C , 19-H ) :   1.0107
B( 20-O , 25-H ) :   1.0518 B( 22-O , 24-H ) :   1.0391

MP2 TOTAL ENERGY:     -837.704207732 Eh
FINAL SINGLE POINT ENERGY      -837.704207732488

DIPOLE MOMENT
-------------
                                X             Y             Z
Electronic contribution:     -6.16328      -3.86695      -1.21622
Nuclear contribution   :      6.42704       4.91010       0.19682
                        -----------------------------------------
Total Dipole Moment    :      0.26375       1.04315      -1.01939
                        -----------------------------------------
Magnitude (a.u.)       :      1.48219
Magnitude (Debye)      :      3.76743

Rotational constants in cm-1:     0.034150     0.007344     0.007172
Rotational constants in MHz :  1023.802380   220.165118   215.001894

                             ****ORCA TERMINATED NORMALLY****
TOTAL RUN TIME: 0 days 0 hours 28 minutes 15 seconds 324 msec
