                         Program Version 4.2.1 -  RELEASE  -
|  1> %pal
|  2>  nprocs 32
|  3> end
|  4> !RI-MP2 aug-cc-pVTZ aug-cc-pVTZ/C TightSCF
|  5> %maxcore 4500
|  6> *xyzfile -1 1  05_3R.xyz
|  7>
|  8>
|  9>                          ****END OF INPUT****

CARTESIAN COORDINATES (ANGSTROEM)
---------------------------------
  O     -0.551508   -1.117024    1.161401
  C     -0.553135   -0.649237    0.037160
  C     -1.707023    0.151072   -0.559668
  O     -2.944508   -0.190015    0.092051
  O     -1.276144    1.393098   -0.384110
  C      0.727715   -0.649104   -0.788271
  H     -1.901634   -0.154497   -1.614407
  C      1.924982   -0.000357   -0.119864
  H      0.555470   -0.098172   -1.717416
  H      1.000252   -1.678154   -1.034277
  O      3.049379   -0.403901   -0.338885
  H     -2.805352    0.058175    1.012946
  C      1.649666    1.170328    0.775779
  H      2.557570    1.757643    0.910372
  H      0.802994    1.746303    0.387072
  H      1.319721    0.775229    1.741232

 Total Charge           Charge          ....   -1
 Multiplicity           Mult            ....    1
 Number of Electrons    NEL             ....   70
 Basis Dimension        Dim             ....  575

ORBITAL ENERGIES
----------------

  NO   OCC          E(Eh)            E(eV)
   0   2.0000     -20.418748      -555.6224
   1   2.0000     -20.394678      -554.9674
   2   2.0000     -20.383605      -554.6661
   3   2.0000     -20.281402      -551.8850
   4   2.0000     -11.206789      -304.9522
   5   2.0000     -11.173174      -304.0375
   6   2.0000     -11.147066      -303.3271
   7   2.0000     -11.105979      -302.2090
   8   2.0000     -11.087942      -301.7182
   9   2.0000      -1.261681       -34.3321
  10   2.0000      -1.241096       -33.7720
  11   2.0000      -1.191991       -32.4357
  12   2.0000      -1.079319       -29.3698
  13   2.0000      -0.919922       -25.0324
  14   2.0000      -0.849158       -23.1068
  15   2.0000      -0.734789       -19.9946
  16   2.0000      -0.627210       -17.0672
  17   2.0000      -0.588132       -16.0039
  18   2.0000      -0.538164       -14.6442
  19   2.0000      -0.519990       -14.1497
  20   2.0000      -0.512526       -13.9465
  21   2.0000      -0.482288       -13.1237
  22   2.0000      -0.464669       -12.6443
  23   2.0000      -0.435753       -11.8574
  24   2.0000      -0.428039       -11.6475
  25   2.0000      -0.425083       -11.5671
  26   2.0000      -0.405802       -11.0424
  27   2.0000      -0.373547       -10.1647
  28   2.0000      -0.361487        -9.8366
  29   2.0000      -0.346210        -9.4209
  30   2.0000      -0.314895        -8.5687
  31   2.0000      -0.289742        -7.8843
  32   2.0000      -0.268902        -7.3172
  33   2.0000      -0.209172        -5.6919
  34   2.0000      -0.178661        -4.8616
  35   0.0000       0.116325         3.1654
  36   0.0000       0.122285         3.3275
  37   0.0000       0.133438         3.6310
  38   0.0000       0.135920         3.6986
  39   0.0000       0.146114         3.9760

MULLIKEN ATOMIC CHARGES
-----------------------
   0 O :   -1.076577
   1 C :    0.681747
   2 C :    0.550778
   3 O :   -0.681823
   4 O :   -1.059618
   5 C :   -0.209965
   6 H :    0.345978
   7 C :    0.472185
   8 H :    0.287246
   9 H :    0.255402
  10 O :   -0.930880
  11 H :    0.165393
  12 C :   -0.798865
  13 H :    0.245002
  14 H :    0.465226
  15 H :    0.288772
Sum of atomic charges:   -1.0000000

LOEWDIN ATOMIC CHARGES
----------------------
   0 O :    0.430489
   1 C :   -0.591140
   2 C :   -0.868763
   3 O :    0.749411
   4 O :    0.280679
   5 C :    0.254469
   6 H :   -0.202447
   7 C :   -0.540862
   8 H :   -0.173000
   9 H :   -0.170043
  10 O :    0.432429
  11 H :   -0.556913
  12 C :    0.569369
  13 H :   -0.187596
  14 H :   -0.248688
  15 H :   -0.177394

  Mayer bond orders larger than 0.100000
B(  0-O ,  1-C ) :   0.9436 B(  1-C ,  2-C ) :   0.7526 B(  1-C ,  5-C ) :   0.8093
B(  1-C ,  7-C ) :   0.1575 B(  2-C ,  3-O ) :   0.6670 B(  2-C ,  4-O ) :   1.1714
B(  2-C ,  6-H ) :   0.9744 B(  3-O , 11-H ) :   0.9781 B(  5-C ,  7-C ) :   0.7864
B(  5-C ,  8-H ) :   0.9386 B(  5-C ,  9-H ) :   0.9494 B(  7-C , 10-O ) :   1.1706
B(  7-C , 12-C ) :   0.7710 B( 12-C , 13-H ) :   1.0242 B( 12-C , 14-H ) :   0.7916
B( 12-C , 15-H ) :   0.9317

MP2 TOTAL ENERGY:     -494.865677969 Eh
FINAL SINGLE POINT ENERGY      -494.865677968831

DIPOLE MOMENT
-------------
                                X             Y             Z
Electronic contribution:     -0.37334      -2.90472       0.20442
Nuclear contribution   :      1.48445       2.37367      -0.30257
                        -----------------------------------------
Total Dipole Moment    :      1.11111      -0.53104      -0.09814
                        -----------------------------------------
Magnitude (a.u.)       :      1.23540
Magnitude (Debye)      :      3.14013

Rotational constants in cm-1:     0.114765     0.032547     0.030420
Rotational constants in MHz :  3440.565442   975.745886   911.958543

                             ****ORCA TERMINATED NORMALLY****
TOTAL RUN TIME: 0 days 0 hours 3 minutes 5 seconds 709 msec
