                         Program Version 4.2.1 -  RELEASE  -
|  1> %pal
|  2>  nprocs 32
|  3> end
|  4> !RI-MP2 aug-cc-pVTZ aug-cc-pVTZ/C TightSCF
|  5> %maxcore 4500
|  6> *xyzfile 0 1  02_25R.xyz
|  7>
|  8>
|  9>                          ****END OF INPUT****

CARTESIAN COORDINATES (ANGSTROEM)
---------------------------------
  C      1.933966    1.073786   -0.414493
  C     -1.486110    0.275761    0.620009
  C     -1.395805   -1.065394    0.694680
  C      3.735779   -2.083160    0.178958
  C      3.442086   -0.785253    0.172569
  C      2.235321   -0.223588   -0.417937
  C      0.689394    1.665614   -0.997578
  C     -0.194363    2.350222    0.053172
  C     -0.679959    1.399023    1.155091
  H      0.958240    2.407136   -1.757162
  H     -1.056563    2.803115   -0.444503
  H      0.169179    1.003360    1.716173
  C     -2.742168    0.296780   -0.250187
  H     -3.640628    0.715929    0.209101
  H     -2.627635    0.696314   -1.260739
  C     -2.605621   -1.247942   -0.140353
  O     -3.237021   -2.166445   -0.575027
  H      0.121485    0.883939   -1.510325
  H      0.359921    3.168882    0.520862
  H     -1.301292    1.964532    1.858542
  H     -0.701003   -1.740290    1.176906
  H      1.547734   -0.926891   -0.883125
  H      2.624704    1.770348    0.059609
  H      4.128852   -0.078886    0.632603
  H      3.073269   -2.813471   -0.273375
  H      4.644779   -2.457544    0.632049

 Total Charge           Charge          ....    0
 Multiplicity           Mult            ....    1
 Number of Electrons    NEL             ....   88
 Basis Dimension        Dim             ....  874

ORBITAL ENERGIES
----------------

  NO   OCC          E(Eh)            E(eV)
   0   2.0000     -20.539889      -558.9188
   1   2.0000     -11.329561      -308.2930
   2   2.0000     -11.277321      -306.8715
   3   2.0000     -11.247810      -306.0685
   4   2.0000     -11.247086      -306.0488
   5   2.0000     -11.244792      -305.9863
   6   2.0000     -11.241483      -305.8963
   7   2.0000     -11.240339      -305.8652
   8   2.0000     -11.239275      -305.8362
   9   2.0000     -11.237596      -305.7905
  10   2.0000     -11.236391      -305.7577
  11   2.0000     -11.229335      -305.5658
  12   2.0000      -1.385096       -37.6904
  13   2.0000      -1.178670       -32.0732
  14   2.0000      -1.118556       -30.4374
  15   2.0000      -1.080583       -29.4042
  16   2.0000      -1.024291       -27.8724
  17   2.0000      -0.960128       -26.1264
  18   2.0000      -0.925746       -25.1908
  19   2.0000      -0.862848       -23.4793
  20   2.0000      -0.798518       -21.7288
  21   2.0000      -0.764314       -20.7980
  22   2.0000      -0.757136       -20.6027
  23   2.0000      -0.716079       -19.4855
  24   2.0000      -0.672881       -18.3100
  25   2.0000      -0.656624       -17.8677
  26   2.0000      -0.651709       -17.7339
  27   2.0000      -0.634400       -17.2629
  28   2.0000      -0.625724       -17.0268
  29   2.0000      -0.611476       -16.6391
  30   2.0000      -0.598144       -16.2763
  31   2.0000      -0.570190       -15.5156
  32   2.0000      -0.560335       -15.2475
  33   2.0000      -0.536951       -14.6112
  34   2.0000      -0.521218       -14.1831
  35   2.0000      -0.517554       -14.0834
  36   2.0000      -0.511656       -13.9229
  37   2.0000      -0.497525       -13.5384
  38   2.0000      -0.489375       -13.3166
  39   2.0000      -0.478809       -13.0291
  40   2.0000      -0.443523       -12.0689
  41   2.0000      -0.398371       -10.8402
  42   2.0000      -0.375823       -10.2267
  43   2.0000      -0.322402        -8.7730
  44   0.0000       0.021660         0.5894
  45   0.0000       0.028230         0.7682
  46   0.0000       0.030366         0.8263
  47   0.0000       0.033010         0.8982
  48   0.0000       0.043057         1.1716

MULLIKEN ATOMIC CHARGES
-----------------------
   0 C :   -0.426549
   1 C :    1.193862
   2 C :   -1.256737
   3 C :   -1.127463
   4 C :   -0.037146
   5 C :    0.170403
   6 C :   -0.374522
   7 C :   -0.403802
   8 C :   -0.330899
   9 H :    0.351804
  10 H :    0.163017
  11 H :    0.209676
  12 C :   -0.939764
  13 H :    0.296653
  14 H :    0.208002
  15 C :    0.807493
  16 O :   -0.881221
  17 H :    0.105331
  18 H :    0.315137
  19 H :    0.287483
  20 H :    0.397267
  21 H :    0.138757
  22 H :    0.086944
  23 H :    0.333423
  24 H :    0.289965
  25 H :    0.422887
Sum of atomic charges:    0.0000000

LOEWDIN ATOMIC CHARGES
----------------------
   0 C :    0.214530
   1 C :   -0.100513
   2 C :    0.303906
   3 C :    0.520997
   4 C :    0.142421
   5 C :    0.177340
   6 C :    0.260979
   7 C :    0.287547
   8 C :    0.302532
   9 H :   -0.140245
  10 H :   -0.140909
  11 H :   -0.148977
  12 C :    0.331148
  13 H :   -0.148166
  14 H :   -0.152952
  15 C :   -0.537599
  16 O :    0.417069
  17 H :   -0.159544
  18 H :   -0.138362
  19 H :   -0.135203
  20 H :   -0.168048
  21 H :   -0.181677
  22 H :   -0.166081
  23 H :   -0.192898
  24 H :   -0.220887
  25 H :   -0.226408

  Mayer bond orders larger than 0.100000
B(  0-C ,  3-C ) :   0.1901 B(  0-C ,  5-C ) :   0.9772 B(  0-C ,  6-C ) :   0.7208
B(  0-C ,  9-H ) :  -0.1736 B(  0-C , 17-H ) :   0.1196 B(  0-C , 22-H ) :   1.4124
B(  1-C ,  2-C ) :   0.3347 B(  1-C ,  7-C ) :   0.1212 B(  1-C ,  8-C ) :   0.5785
B(  1-C , 12-C ) :   0.3875 B(  1-C , 15-C ) :  -0.4035 B(  1-C , 16-O ) :   0.2123
B(  1-C , 19-H ) :  -0.1178 B(  1-C , 20-H ) :  -0.1725 B(  2-C , 12-C ) :   0.4107
B(  2-C , 15-C ) :   1.0583 B(  2-C , 20-H ) :   1.0796 B(  3-C ,  4-C ) :   1.1946
B(  3-C ,  5-C ) :  -0.2198 B(  3-C , 24-H ) :   1.0960 B(  3-C , 25-H ) :   0.8048
B(  4-C ,  5-C ) :   0.4339 B(  4-C , 23-H ) :   1.0075 B(  5-C , 21-H ) :   1.3512
B(  6-C ,  7-C ) :   0.8891 B(  6-C ,  9-H ) :   0.9033 B(  6-C , 17-H ) :   1.1265
B(  7-C ,  8-C ) :   0.8906 B(  7-C , 10-H ) :   1.0285 B(  7-C , 18-H ) :   0.9409
B(  8-C , 11-H ) :   1.0738 B(  8-C , 19-H ) :   0.9619 B( 12-C , 13-H ) :   0.9292
B( 12-C , 14-H ) :   1.0154 B( 12-C , 15-C ) :   1.2457 B( 12-C , 20-H ) :   0.1094
B( 14-H , 15-C ) :   0.1244 B( 15-C , 16-O ) :   0.9909

MP2 TOTAL ENERGY:     -501.705140492 Eh
FINAL SINGLE POINT ENERGY      -501.705140491588

DIPOLE MOMENT
-------------
                                X             Y             Z
Electronic contribution:     -7.45133      -5.84727      -0.10893
Nuclear contribution   :      8.40453       7.50021       0.68006
                        -----------------------------------------
Total Dipole Moment    :      0.95320       1.65293       0.57113
                        -----------------------------------------
Magnitude (a.u.)       :      1.99172
Magnitude (Debye)      :      5.06256

Rotational constants in cm-1:     0.039783     0.017457     0.013420
Rotational constants in MHz :  1192.649562   523.355102   402.327071

                             ****ORCA TERMINATED NORMALLY****
TOTAL RUN TIME: 0 days 0 hours 11 minutes 12 seconds 737 msec
