                         Program Version 4.2.1 -  RELEASE  -
|  1> %pal
|  2>  nprocs 32
|  3> end
|  4> !RI-MP2 aug-cc-pVTZ aug-cc-pVTZ/C TightSCF
|  5> %maxcore 4500
|  6> *xyzfile -1 1  07_4P1.xyz
|  7>
|  8>
|  9>                          ****END OF INPUT****

CARTESIAN COORDINATES (ANGSTROEM)
---------------------------------
  C     -0.091975    0.877286    0.178178
  C     -1.210430    0.162093    0.060254
  C     -2.230213   -0.613845    0.044331
  O      1.136931    0.461416   -0.412876
  C      1.624636   -0.732844    0.137281
  H     -2.940741   -0.496751   -0.780123
  H      0.000025    1.810549    0.721215
  H      2.537047   -1.001784   -0.406491
  H      1.862226   -0.614246    1.205847
  H      0.893884   -1.545233    0.042298

 Total Charge           Charge          ....   -1
 Multiplicity           Mult            ....    1
 Number of Electrons    NEL             ....   38
 Basis Dimension        Dim             ....  345

ORBITAL ENERGIES
----------------

  NO   OCC          E(Eh)            E(eV)
   0   2.0000     -20.388803      -554.8075
   1   2.0000     -11.115751      -302.4750
   2   2.0000     -11.058958      -300.9296
   3   2.0000     -11.026902      -300.0572
   4   2.0000     -10.990850      -299.0762
   5   2.0000      -1.197811       -32.5941
   6   2.0000      -0.838540       -22.8178
   7   2.0000      -0.772665       -21.0253
   8   2.0000      -0.689912       -18.7734
   9   2.0000      -0.521973       -14.2036
  10   2.0000      -0.485187       -13.2026
  11   2.0000      -0.459519       -12.5041
  12   2.0000      -0.416835       -11.3427
  13   2.0000      -0.392663       -10.6849
  14   2.0000      -0.337404        -9.1812
  15   2.0000      -0.272779        -7.4227
  16   2.0000      -0.219559        -5.9745
  17   2.0000      -0.161957        -4.4071
  18   2.0000      -0.073170        -1.9911
  19   0.0000       0.120526         3.2797
  20   0.0000       0.131937         3.5902
  21   0.0000       0.140199         3.8150
  22   0.0000       0.141081         3.8390
  23   0.0000       0.155616         4.2345

MULLIKEN ATOMIC CHARGES
-----------------------
   0 C :   -0.407751
   1 C :    0.632224
   2 C :   -1.513377
   3 O :   -0.518814
   4 C :   -0.725547
   5 H :    0.264301
   6 H :    0.323808
   7 H :    0.279439
   8 H :    0.297272
   9 H :    0.368446
Sum of atomic charges:   -1.0000000

LOEWDIN ATOMIC CHARGES
----------------------
   0 C :   -0.238562
   1 C :   -0.227864
   2 C :    0.168872
   3 O :    0.439952
   4 C :    0.226466
   5 H :   -0.460595
   6 H :   -0.297316
   7 H :   -0.210626
   8 H :   -0.194244
   9 H :   -0.206085

  Mayer bond orders larger than 0.100000
B(  0-C ,  1-C ) :   1.5012 B(  0-C ,  2-C ) :  -0.1632 B(  0-C ,  3-O ) :   0.7421
B(  0-C ,  6-H ) :   0.9558 B(  1-C ,  2-C ) :   1.4356 B(  2-C ,  5-H ) :   0.9953
B(  3-O ,  4-C ) :   0.9221 B(  4-C ,  7-H ) :   0.9382 B(  4-C ,  8-H ) :   0.9195
B(  4-C ,  9-H ) :   0.8555

MP2 TOTAL ENERGY:     -230.103233374 Eh
FINAL SINGLE POINT ENERGY      -230.103233374373

DIPOLE MOMENT
-------------
                                X             Y             Z
Electronic contribution:     -0.31989       2.15173      -1.02430
Nuclear contribution   :      2.38428      -1.85100       0.78080
                        -----------------------------------------
Total Dipole Moment    :      2.06440       0.30073      -0.24351
                        -----------------------------------------
Magnitude (a.u.)       :      2.10035
Magnitude (Debye)      :      5.33866

Rotational constants in cm-1:     0.453046     0.108428     0.093323
Rotational constants in MHz : 13581.964159  3250.580200  2797.758762

                             ****ORCA TERMINATED NORMALLY****
TOTAL RUN TIME: 0 days 0 hours 0 minutes 38 seconds 447 msec
