                         Program Version 4.2.1 -  RELEASE  -
|  1> %pal
|  2>  nprocs 32
|  3> end
|  4> !RI-MP2 aug-cc-pVTZ aug-cc-pVTZ/C TightSCF
|  5> %maxcore 4500
|  6> *xyzfile 0 1  10_6R2.xyz
|  7>
|  8>
|  9>                          ****END OF INPUT****

CARTESIAN COORDINATES (ANGSTROEM)
---------------------------------
  N     -0.389674    0.635177   -0.000004
  N      0.713402    0.103824    0.000007
  N      1.773761   -0.277547   -0.000003
  C     -1.530594   -0.286088    0.000000
  H     -1.535103   -0.919165    0.891960
  H     -2.428884    0.325002   -0.000223
  H     -1.534875   -0.919486   -0.891733

 Total Charge           Charge          ....    0
 Multiplicity           Mult            ....    1
 Number of Electrons    NEL             ....   30
 Basis Dimension        Dim             ....  253

ORBITAL ENERGIES
----------------

  NO   OCC          E(Eh)            E(eV)
   0   2.0000     -15.781234      -429.4292
   1   2.0000     -15.663090      -426.2143
   2   2.0000     -15.606106      -424.6637
   3   2.0000     -11.278443      -306.9020
   4   2.0000      -1.508891       -41.0590
   5   2.0000      -1.296209       -35.2716
   6   2.0000      -0.997730       -27.1496
   7   2.0000      -0.738356       -20.0917
   8   2.0000      -0.712012       -19.3748
   9   2.0000      -0.707195       -19.2437
  10   2.0000      -0.667460       -18.1625
  11   2.0000      -0.593484       -16.1495
  12   2.0000      -0.574420       -15.6308
  13   2.0000      -0.441802       -12.0220
  14   2.0000      -0.377835       -10.2814
  15   0.0000       0.028390         0.7725
  16   0.0000       0.044299         1.2054
  17   0.0000       0.045389         1.2351
  18   0.0000       0.065110         1.7717
  19   0.0000       0.092953         2.5294

MULLIKEN ATOMIC CHARGES
-----------------------
   0 N :   -0.772596
   1 N :    1.272056
   2 N :   -0.798119
   3 C :   -0.725724
   4 H :    0.314615
   5 H :    0.395137
   6 H :    0.314632
Sum of atomic charges:   -0.0000000

LOEWDIN ATOMIC CHARGES
----------------------
   0 N :    0.183640
   1 N :   -0.261255
   2 N :    0.273277
   3 C :    0.379846
   4 H :   -0.188148
   5 H :   -0.199211
   6 H :   -0.188149

  Mayer bond orders larger than 0.100000
B(  0-N ,  1-N ) :   0.8803 B(  0-N ,  2-N ) :   0.5039 B(  0-N ,  3-C ) :   0.8541
B(  1-N ,  2-N ) :   1.4401 B(  3-C ,  4-H ) :   0.9014 B(  3-C ,  5-H ) :   0.8646
B(  3-C ,  6-H ) :   0.9014

MP2 TOTAL ENERGY:     -203.743514439 Eh
FINAL SINGLE POINT ENERGY      -203.743514438547

DIPOLE MOMENT
-------------
                                X             Y             Z
Electronic contribution:      4.75826       1.02467       0.00000
Nuclear contribution   :     -5.41791      -1.49204       0.00000
                        -----------------------------------------
Total Dipole Moment    :     -0.65965      -0.46737       0.00000
                        -----------------------------------------
Magnitude (a.u.)       :      0.80844
Magnitude (Debye)      :      2.05489

Rotational constants in cm-1:     1.507624     0.180684     0.166456
Rotational constants in MHz : 45197.416100  5416.756650  4990.226059

                             ****ORCA TERMINATED NORMALLY****
TOTAL RUN TIME: 0 days 0 hours 0 minutes 19 seconds 445 msec
