                         Program Version 4.2.1 -  RELEASE  -
|  1> %pal
|  2>  nprocs 32
|  3> end
|  4> !RI-MP2 aug-cc-pVTZ aug-cc-pVTZ/C TightSCF
|  5> %maxcore 4500
|  6> *xyzfile 1 1  10_14P.xyz
|  7>
|  8>
|  9>                          ****END OF INPUT****

CARTESIAN COORDINATES (ANGSTROEM)
---------------------------------
  C      2.216789   -0.507831   -0.225816
  N      0.814202   -0.871366   -0.076088
  N      0.079839    0.114804   -0.190236
  C     -1.341224    0.011443   -0.062711
  C     -2.129033    1.119354   -0.358230
  C     -1.899846   -1.197420    0.346287
  C     -3.504949    1.007627   -0.245692
  H     -1.695476    2.055861   -0.679305
  C     -3.273357   -1.288220    0.456694
  H     -1.264119   -2.041401    0.573196
  C     -4.075637   -0.190079    0.161044
  H     -4.130336    1.859862   -0.476212
  H     -3.722672   -2.219082    0.776866
  H     -5.151573   -0.270108    0.250838
  C      2.892193   -0.471532    1.174394
  C      2.841015   -1.352824   -1.315341
  H      2.342165   -1.203061   -2.274873
  H      3.889383   -1.074474   -1.425872
  H      2.789756   -2.411075   -1.056014
  C      2.223755    1.044632   -0.273824
  C      0.775363    1.422377   -0.477108
  C      2.755042    1.071430    1.181341
  H      2.370654   -1.015104    1.961039
  H      3.918818   -0.830846    1.122741
  H      2.031751    1.449181    1.905544
  H      3.686772    1.616098    1.315054
  H      0.516571    1.710845   -1.496380
  H      0.400894    2.168472    0.221518
  H      2.878450    1.487036   -1.020094

 Total Charge           Charge          ....    1
 Multiplicity           Mult            ....    1
 Number of Electrons    NEL             ....  100
 Basis Dimension        Dim             ....  989

ORBITAL ENERGIES
----------------

  NO   OCC          E(Eh)            E(eV)
   0   2.0000     -15.895431      -432.5367
   1   2.0000     -15.838911      -430.9987
   2   2.0000     -11.451921      -311.6226
   3   2.0000     -11.437501      -311.2302
   4   2.0000     -11.435261      -311.1693
   5   2.0000     -11.394532      -310.0610
   6   2.0000     -11.393934      -310.0447
   7   2.0000     -11.387139      -309.8598
   8   2.0000     -11.377034      -309.5848
   9   2.0000     -11.374176      -309.5071
  10   2.0000     -11.373743      -309.4953
  11   2.0000     -11.372886      -309.4720
  12   2.0000     -11.370151      -309.3975
  13   2.0000     -11.363129      -309.2065
  14   2.0000      -1.625624       -44.2355
  15   2.0000      -1.346033       -36.6274
  16   2.0000      -1.299164       -35.3521
  17   2.0000      -1.264423       -34.4067
  18   2.0000      -1.188826       -32.3496
  19   2.0000      -1.169860       -31.8335
  20   2.0000      -1.143980       -31.1293
  21   2.0000      -1.091747       -29.7079
  22   2.0000      -1.041347       -28.3365
  23   2.0000      -0.993938       -27.0464
  24   2.0000      -0.979437       -26.6518
  25   2.0000      -0.952693       -25.9241
  26   2.0000      -0.923383       -25.1265
  27   2.0000      -0.898421       -24.4473
  28   2.0000      -0.858416       -23.3587
  29   2.0000      -0.823755       -22.4155
  30   2.0000      -0.809210       -22.0197
  31   2.0000      -0.783432       -21.3183
  32   2.0000      -0.770707       -20.9720
  33   2.0000      -0.756956       -20.5978
  34   2.0000      -0.743530       -20.2325
  35   2.0000      -0.740823       -20.1588
  36   2.0000      -0.733241       -19.9525
  37   2.0000      -0.725118       -19.7315
  38   2.0000      -0.696662       -18.9571
  39   2.0000      -0.691273       -18.8105
  40   2.0000      -0.667960       -18.1761
  41   2.0000      -0.654976       -17.8228
  42   2.0000      -0.644693       -17.5430
  43   2.0000      -0.638942       -17.3865
  44   2.0000      -0.627635       -17.0788
  45   2.0000      -0.626263       -17.0415
  46   2.0000      -0.587902       -15.9976
  47   2.0000      -0.584943       -15.9171
  48   2.0000      -0.485273       -13.2050
  49   2.0000      -0.481296       -13.0967
  50   0.0000      -0.111892        -3.0447
  51   0.0000      -0.069775        -1.8987
  52   0.0000      -0.055842        -1.5195
  53   0.0000      -0.055052        -1.4980
  54   0.0000      -0.052154        -1.4192

MULLIKEN ATOMIC CHARGES
-----------------------
   0 C :    1.224359
   1 N :   -1.250840
   2 N :    1.052955
   3 C :    0.978467
   4 C :   -0.538919
   5 C :   -0.472592
   6 C :   -0.745251
   7 H :    0.522301
   8 C :   -0.754962
   9 H :    0.599623
  10 C :   -0.359437
  11 H :    0.386103
  12 H :    0.444559
  13 H :    0.527885
  14 C :   -0.926339
  15 C :   -0.908438
  16 H :    0.295848
  17 H :    0.299417
  18 H :    0.301830
  19 C :   -0.429927
  20 C :   -0.702215
  21 C :   -0.697047
  22 H :    0.406354
  23 H :    0.223004
  24 H :    0.204786
  25 H :    0.337658
  26 H :    0.254039
  27 H :    0.363511
  28 H :    0.363269
Sum of atomic charges:    1.0000000

LOEWDIN ATOMIC CHARGES
----------------------
   0 C :   -0.391851
   1 N :    0.500527
   2 N :    0.171956
   3 C :   -0.168746
   4 C :    0.239223
   5 C :    0.243142
   6 C :    0.240624
   7 H :   -0.181609
   8 C :    0.240308
   9 H :   -0.177629
  10 C :    0.244435
  11 H :   -0.164381
  12 H :   -0.163740
  13 H :   -0.159610
  14 C :    0.391720
  15 C :    0.639570
  16 H :   -0.148796
  17 H :   -0.147346
  18 H :   -0.145172
  19 C :    0.085740
  20 C :    0.325993
  21 C :    0.386938
  22 H :   -0.130840
  23 H :   -0.129980
  24 H :   -0.137231
  25 H :   -0.129681
  26 H :   -0.107940
  27 H :   -0.122213
  28 H :   -0.103412

  Mayer bond orders larger than 0.100000
B(  0-C ,  1-N ) :   0.7463 B(  0-C ,  2-N ) :  -0.1659 B(  0-C , 14-C ) :   0.5919
B(  0-C , 15-C ) :   0.4082 B(  0-C , 19-C ) :   0.8933 B(  0-C , 21-C ) :  -0.3823
B(  1-N ,  3-C ) :  -0.1702 B(  1-N ,  4-C ) :   0.2889 B(  1-N ,  5-C ) :   0.1764
B(  1-N ,  9-H ) :  -0.2557 B(  1-N , 10-C ) :   0.1121 B(  1-N , 14-C ) :   0.2741
B(  1-N , 15-C ) :  -0.1592 B(  1-N , 26-H ) :  -0.1121 B(  2-N ,  3-C ) :   0.6828
B(  2-N ,  4-C ) :  -0.9821 B(  2-N ,  5-C ) :  -0.7752 B(  2-N ,  7-H ) :   0.1334
B(  2-N ,  8-C ) :   0.1049 B(  2-N ,  9-H ) :   0.1804 B(  2-N , 10-C ) :  -0.1971
B(  2-N , 11-H ) :  -0.1017 B(  2-N , 19-C ) :   0.1385 B(  2-N , 20-C ) :   0.8280
B(  2-N , 26-H ) :   0.2422 B(  3-C ,  4-C ) :   0.7540 B(  3-C ,  5-C ) :   0.5374
B(  3-C ,  6-C ) :  -0.3526 B(  3-C ,  7-H ) :  -0.2744 B(  3-C ,  8-C ) :  -0.3968
B(  3-C ,  9-H ) :  -0.1380 B(  3-C , 11-H ) :   0.1103 B(  3-C , 20-C ) :  -0.1423
B(  4-C ,  5-C ) :   0.1196 B(  4-C ,  6-C ) :   1.3106 B(  4-C ,  7-H ) :   0.5543
B(  4-C , 10-C ) :   0.2624 B(  5-C ,  8-C ) :   1.3604 B(  5-C ,  9-H ) :   0.6594
B(  5-C , 10-C ) :   0.1642 B(  6-C , 10-C ) :   1.0814 B(  6-C , 11-H ) :   0.9269
B(  8-C , 10-C ) :   1.1464 B(  8-C , 12-H ) :   0.8530 B( 10-C , 13-H ) :   0.6866
B( 14-C , 21-C ) :   1.2440 B( 14-C , 22-H ) :   0.8033 B( 14-C , 23-H ) :   1.0244
B( 15-C , 16-H ) :   1.0244 B( 15-C , 17-H ) :   1.0008 B( 15-C , 18-H ) :   1.0343
B( 19-C , 20-C ) :   0.9460 B( 19-C , 21-C ) :   1.2217 B( 19-C , 28-H ) :   0.7272
B( 20-C , 26-H ) :   0.9761 B( 20-C , 27-H ) :   0.9380 B( 21-C , 24-H ) :   1.0014
B( 21-C , 25-H ) :   0.8895

MP2 TOTAL ENERGY:     -574.337040380 Eh
FINAL SINGLE POINT ENERGY      -574.337040380083

DIPOLE MOMENT
-------------
                                X             Y             Z
Electronic contribution:     -8.39799      -0.68265       0.05369
Nuclear contribution   :      8.98083       1.29427      -0.30744
                        -----------------------------------------
Total Dipole Moment    :      0.58284       0.61162      -0.25375
                        -----------------------------------------
Magnitude (a.u.)       :      0.88214
Magnitude (Debye)      :      2.24222

Rotational constants in cm-1:     0.058952     0.013522     0.012454
Rotational constants in MHz :  1767.349034   405.374262   373.347365

                             ****ORCA TERMINATED NORMALLY****
TOTAL RUN TIME: 0 days 0 hours 21 minutes 9 seconds 688 msec
