                         Program Version 4.2.1 -  RELEASE  -
|  1> %pal
|  2>  nprocs 32
|  3> end
|  4> !RI-MP2 aug-cc-pVTZ aug-cc-pVTZ/C TightSCF
|  5> %maxcore 4500
|  6> *xyzfile 0 1  05_13R1.xyz
|  7>
|  8>
|  9>                          ****END OF INPUT****

CARTESIAN COORDINATES (ANGSTROEM)
---------------------------------
  C     -1.178451   -0.517540    0.000014
  O      0.000000    0.257645   -0.000004
  C      1.178451   -0.517540   -0.000010
  H      1.194853   -1.169151   -0.885849
  H      1.194863   -1.169152    0.885828
  C     -2.370223    0.411913    0.000016
  H     -2.355628    1.050774   -0.884419
  H     -2.355603    1.050799    0.884433
  C      2.370223    0.411913   -0.000017
  H      2.355629    1.050778    0.884415
  H      3.300569   -0.160087   -0.000036
  H      2.355603    1.050795   -0.884436
  H     -3.300569   -0.160087    0.000037
  H     -1.194850   -1.169144    0.885859
  H     -1.194866   -1.169159   -0.885819

 Total Charge           Charge          ....    0
 Multiplicity           Mult            ....    1
 Number of Electrons    NEL             ....   42
 Basis Dimension        Dim             ....  460

ORBITAL ENERGIES
----------------

  NO   OCC          E(Eh)            E(eV)
   0   2.0000     -20.549646      -559.1843
   1   2.0000     -11.270759      -306.6929
   2   2.0000     -11.270739      -306.6924
   3   2.0000     -11.211147      -305.0708
   4   2.0000     -11.211146      -305.0708
   5   2.0000      -1.373017       -37.3617
   6   2.0000      -1.042013       -28.3546
   7   2.0000      -0.982538       -26.7362
   8   2.0000      -0.840983       -22.8843
   9   2.0000      -0.825300       -22.4576
  10   2.0000      -0.675628       -18.3848
  11   2.0000      -0.663444       -18.0532
  12   2.0000      -0.603902       -16.4330
  13   2.0000      -0.597465       -16.2579
  14   2.0000      -0.548689       -14.9306
  15   2.0000      -0.528949       -14.3934
  16   2.0000      -0.520266       -14.1572
  17   2.0000      -0.493216       -13.4211
  18   2.0000      -0.485196       -13.2029
  19   2.0000      -0.470176       -12.7941
  20   2.0000      -0.416789       -11.3414
  21   0.0000       0.031373         0.8537
  22   0.0000       0.036031         0.9804
  23   0.0000       0.040256         1.0954
  24   0.0000       0.040514         1.1025
  25   0.0000       0.054474         1.4823

MULLIKEN ATOMIC CHARGES
-----------------------
   0 C :   -0.199925
   1 O :   -0.500286
   2 C :   -0.199925
   3 H :    0.296406
   4 H :    0.296410
   5 C :   -0.988770
   6 H :    0.260544
   7 H :    0.260545
   8 C :   -0.988770
   9 H :    0.260543
  10 H :    0.324933
  11 H :    0.260546
  12 H :    0.324933
  13 H :    0.296407
  14 H :    0.296408
Sum of atomic charges:    0.0000000

LOEWDIN ATOMIC CHARGES
----------------------
   0 C :   -0.023370
   1 O :    0.567591
   2 C :   -0.023369
   3 H :   -0.154863
   4 H :   -0.154863
   5 C :    0.572727
   6 H :   -0.173738
   7 H :   -0.173738
   8 C :    0.572727
   9 H :   -0.173738
  10 H :   -0.175950
  11 H :   -0.173739
  12 H :   -0.175950
  13 H :   -0.154863
  14 H :   -0.154863

  Mayer bond orders larger than 0.100000
B(  0-C ,  1-O ) :   0.9107 B(  0-C ,  5-C ) :   0.8916 B(  0-C , 13-H ) :   0.8920
B(  0-C , 14-H ) :   0.8920 B(  1-O ,  2-C ) :   0.9107 B(  2-C ,  3-H ) :   0.8920
B(  2-C ,  4-H ) :   0.8920 B(  2-C ,  8-C ) :   0.8916 B(  5-C ,  6-H ) :   0.9686
B(  5-C ,  7-H ) :   0.9686 B(  5-C , 12-H ) :   0.9233 B(  8-C ,  9-H ) :   0.9686
B(  8-C , 10-H ) :   0.9233 B(  8-C , 11-H ) :   0.9686

MP2 TOTAL ENERGY:     -233.197040376 Eh
FINAL SINGLE POINT ENERGY      -233.197040376111

DIPOLE MOMENT
-------------
                                X             Y             Z
Electronic contribution:     -0.00000       0.34703      -0.00001
Nuclear contribution   :      0.00000      -0.84024       0.00001
                        -----------------------------------------
Total Dipole Moment    :      0.00000      -0.49320       0.00000
                        -----------------------------------------
Magnitude (a.u.)       :      0.49320
Magnitude (Debye)      :      1.25362

Rotational constants in cm-1:     0.604289     0.075015     0.070244
Rotational constants in MHz : 18116.132317  2248.886001  2105.876086

                             ****ORCA TERMINATED NORMALLY****
TOTAL RUN TIME: 0 days 0 hours 1 minutes 12 seconds 220 msec
