                         Program Version 4.2.1 -  RELEASE  -
|  1> %pal
|  2>  nprocs 32
|  3> end
|  4> !RI-MP2 aug-cc-pVTZ aug-cc-pVTZ/C TightSCF
|  5> %maxcore 4500
|  6> *xyzfile 0 2  04_82R2.xyz
|  7>
|  8>
|  9>                          ****END OF INPUT****

CARTESIAN COORDINATES (ANGSTROEM)
---------------------------------
  O     -2.045666   -1.294503    0.238245
  C     -3.187056   -0.859298   -0.575979
  C     -3.102700    0.666116   -0.575554
  C     -1.600827    0.903372   -0.489044
  C     -1.178547   -0.222391    0.468251
  C     -4.434339   -1.424489   -0.024790
  H     -3.007929   -1.226148   -1.590994
  H     -4.878467   -0.968576    0.848173
  H     -4.837892   -2.347899   -0.415629
  O     -3.737950    1.191682    0.566222
  O     -1.340906    2.193093   -0.017231
  N      0.191391   -0.671770    0.232780
  H     -1.256502    0.121459    1.504437
  C      1.294214    0.135044    0.142543
  C      0.660708   -1.966095    0.184598
  H     -1.140792    0.728156   -1.469328
  H     -3.533924    1.084569   -1.490381
  H     -3.286203    2.018557    0.780096
  H     -0.370613    2.265534    0.101729
  N      1.955974   -2.040605    0.055306
  C      2.373263   -0.727469    0.029227
  C      3.636453   -0.127829   -0.088591
  N      3.717841    1.208313   -0.081303
  C      2.599523    1.921280    0.033260
  N      1.353323    1.473942    0.148005
  N      4.763653   -0.849996   -0.208464
  H      4.722067   -1.854802   -0.207268
  H      5.645911   -0.372779   -0.280414
  H      2.723575    2.998807    0.031010
  H     -0.022485   -2.797684    0.242886

 Total Charge           Charge          ....    0
 Multiplicity           Mult            ....    2
 Number of Electrons    NEL             ....  131
 Basis Dimension        Dim             .... 1104

ORBITAL ENERGIES
----------------
                 SPIN UP ORBITALS
  NO   OCC          E(Eh)            E(eV)
   0   1.0000     -20.581072      -560.0394
   1   1.0000     -20.562604      -559.5369
   2   1.0000     -20.561986      -559.5201
   3   1.0000     -15.631124      -425.3445
   4   1.0000     -15.592574      -424.2955
   5   1.0000     -15.572112      -423.7387
   6   1.0000     -15.566261      -423.5795
   7   1.0000     -15.558646      -423.3723
   8   1.0000     -11.346156      -308.7446
   9   1.0000     -11.341757      -308.6249
  10   1.0000     -11.322725      -308.1070
  11   1.0000     -11.321424      -308.0716
  12   1.0000     -11.318475      -307.9914
  13   1.0000     -11.301757      -307.5364
  14   1.0000     -11.297437      -307.4189
  15   1.0000     -11.294531      -307.3398
  16   1.0000     -11.255704      -306.2833
  17   1.0000     -11.241800      -305.9049
  18   1.0000      -1.427750       -38.8511
  19   1.0000      -1.386166       -37.7195
  20   1.0000      -1.373551       -37.3762
  21   1.0000      -1.357983       -36.9526
  22   1.0000      -1.313627       -35.7456
  23   1.0000      -1.260648       -34.3040
  24   1.0000      -1.202383       -32.7185
  25   1.0000      -1.167430       -31.7674
  26   1.0000      -1.073033       -29.1987
  27   1.0000      -1.045002       -28.4360
  28   1.0000      -1.038016       -28.2458
  29   1.0000      -0.946281       -25.7496
  30   1.0000      -0.903849       -24.5950
  31   1.0000      -0.888293       -24.1717
  32   1.0000      -0.850689       -23.1484
  33   1.0000      -0.820317       -22.3220
  34   1.0000      -0.796146       -21.6642
  35   1.0000      -0.774609       -21.0782
  36   1.0000      -0.753120       -20.4934
  37   1.0000      -0.737911       -20.0796
  38   1.0000      -0.714098       -19.4316
  39   1.0000      -0.704960       -19.1829
  40   1.0000      -0.688561       -18.7367
  41   1.0000      -0.675789       -18.3891
  42   1.0000      -0.666969       -18.1491
  43   1.0000      -0.645667       -17.5695
  44   1.0000      -0.637259       -17.3407
  45   1.0000      -0.634737       -17.2721
  46   1.0000      -0.616812       -16.7843
  47   1.0000      -0.600865       -16.3504
  48   1.0000      -0.597146       -16.2492
  49   1.0000      -0.587470       -15.9859
  50   1.0000      -0.571802       -15.5595
  51   1.0000      -0.557477       -15.1697
  52   1.0000      -0.542544       -14.7634
  53   1.0000      -0.539557       -14.6821
  54   1.0000      -0.512558       -13.9474
  55   1.0000      -0.503435       -13.6992
  56   1.0000      -0.484724       -13.1900
  57   1.0000      -0.468158       -12.7392
  58   1.0000      -0.460971       -12.5436
  59   1.0000      -0.453748       -12.3471
  60   1.0000      -0.450320       -12.2538
  61   1.0000      -0.422000       -11.4832
  62   1.0000      -0.411582       -11.1997
  63   1.0000      -0.382438       -10.4067
  64   1.0000      -0.377395       -10.2694
  65   1.0000      -0.317318        -8.6347
  66   0.0000       0.025017         0.6807
  67   0.0000       0.028299         0.7701
  68   0.0000       0.032704         0.8899
  69   0.0000       0.035835         0.9751
  70   0.0000       0.041768         1.1366

                 SPIN DOWN ORBITALS
  NO   OCC          E(Eh)            E(eV)
   0   1.0000     -20.577764      -559.9494
   1   1.0000     -20.562656      -559.5383
   2   1.0000     -20.561935      -559.5187
   3   1.0000     -15.630995      -425.3410
   4   1.0000     -15.592573      -424.2955
   5   1.0000     -15.572116      -423.7388
   6   1.0000     -15.566263      -423.5795
   7   1.0000     -15.558649      -423.3724
   8   1.0000     -11.346153      -308.7445
   9   1.0000     -11.341683      -308.6229
  10   1.0000     -11.322724      -308.1070
  11   1.0000     -11.321400      -308.0709
  12   1.0000     -11.318477      -307.9914
  13   1.0000     -11.304737      -307.6175
  14   1.0000     -11.297383      -307.4174
  15   1.0000     -11.293816      -307.3204
  16   1.0000     -11.255702      -306.2832
  17   1.0000     -11.218637      -305.2746
  18   1.0000      -1.422871       -38.7183
  19   1.0000      -1.385168       -37.6923
  20   1.0000      -1.371727       -37.3266
  21   1.0000      -1.357636       -36.9432
  22   1.0000      -1.313419       -35.7400
  23   1.0000      -1.260640       -34.3037
  24   1.0000      -1.201701       -32.6999
  25   1.0000      -1.167227       -31.7619
  26   1.0000      -1.060087       -28.8464
  27   1.0000      -1.044298       -28.4168
  28   1.0000      -1.025338       -27.9009
  29   1.0000      -0.914373       -24.8814
  30   1.0000      -0.902643       -24.5622
  31   1.0000      -0.887728       -24.1563
  32   1.0000      -0.836626       -22.7658
  33   1.0000      -0.814039       -22.1511
  34   1.0000      -0.787507       -21.4291
  35   1.0000      -0.772529       -21.0216
  36   1.0000      -0.752201       -20.4684
  37   1.0000      -0.736363       -20.0375
  38   1.0000      -0.711974       -19.3738
  39   1.0000      -0.701475       -19.0881
  40   1.0000      -0.688280       -18.7290
  41   1.0000      -0.674439       -18.3524
  42   1.0000      -0.663878       -18.0650
  43   1.0000      -0.643890       -17.5211
  44   1.0000      -0.634577       -17.2677
  45   1.0000      -0.631068       -17.1722
  46   1.0000      -0.614499       -16.7214
  47   1.0000      -0.599202       -16.3051
  48   1.0000      -0.593557       -16.1515
  49   1.0000      -0.582387       -15.8475
  50   1.0000      -0.566207       -15.4073
  51   1.0000      -0.556533       -15.1440
  52   1.0000      -0.539284       -14.6747
  53   1.0000      -0.535154       -14.5623
  54   1.0000      -0.512549       -13.9472
  55   1.0000      -0.503111       -13.6904
  56   1.0000      -0.479368       -13.0443
  57   1.0000      -0.465624       -12.6703
  58   1.0000      -0.459072       -12.4920
  59   1.0000      -0.451028       -12.2731
  60   1.0000      -0.449470       -12.2307
  61   1.0000      -0.421937       -11.4815
  62   1.0000      -0.411159       -11.1882
  63   1.0000      -0.378001       -10.2859
  64   1.0000      -0.317320        -8.6347
  65   0.0000       0.025134         0.6839
  66   0.0000       0.028384         0.7724
  67   0.0000       0.032344         0.8801
  68   0.0000       0.035872         0.9761
  69   0.0000       0.040958         1.1145

MULLIKEN ATOMIC CHARGES AND SPIN POPULATIONS
--------------------------------------------
   0 O :   -0.792936    0.035792
   1 C :    0.603274   -0.113183
   2 C :    0.162442    0.021921
   3 C :    0.657045   -0.007979
   4 C :    0.587517    0.014436
   5 C :   -1.297663    1.204270
   6 H :    0.256909    0.009382
   7 H :    0.414778   -0.048190
   8 H :    0.321233   -0.089464
   9 O :   -0.799340   -0.002791
  10 O :   -1.004148    0.000543
  11 N :    0.296579   -0.014107
  12 H :    0.353565   -0.002113
  13 C :   -0.361153   -0.000216
  14 C :   -0.428945   -0.001536
  15 H :    0.337390   -0.000141
  16 H :    0.338817   -0.006071
  17 H :    0.155078    0.000912
  18 H :    0.260606    0.000200
  19 N :   -1.111422   -0.001017
  20 C :    2.008800   -0.000555
  21 C :   -0.155974    0.000152
  22 N :   -0.394591   -0.000055
  23 C :   -0.709342    0.000145
  24 N :   -0.737588   -0.000375
  25 N :   -0.521719   -0.000007
  26 H :    0.104605   -0.000006
  27 H :    0.072920    0.000008
  28 H :    0.638671    0.000008
  29 H :    0.744592    0.000036
Sum of atomic charges         :   -0.0000000

LOEWDIN ATOMIC CHARGES AND SPIN POPULATIONS
-------------------------------------------
   0 O :    0.612348    0.044651
   1 C :   -0.251997    0.121685
   2 C :   -0.240684    0.016485
   3 C :   -0.235711    0.002182
   4 C :   -0.316427    0.003418
   5 C :    0.622405    0.560204
   6 H :   -0.144576    0.005459
   7 H :   -0.225555    0.116518
   8 H :   -0.218476    0.122561
   9 O :    0.851521    0.001206
  10 O :    0.875151    0.000905
  11 N :    0.289297    0.002302
  12 H :   -0.115374   -0.000125
  13 C :   -0.413787    0.000450
  14 C :   -0.029913    0.000344
  15 H :   -0.115870    0.000098
  16 H :   -0.118998    0.001224
  17 H :   -0.528308    0.000033
  18 H :   -0.627332    0.000166
  19 N :    0.400359   -0.000065
  20 C :   -0.303128    0.000056
  21 C :   -0.408814    0.000040
  22 N :    0.397871   -0.000034
  23 C :   -0.139387    0.000023
  24 N :    0.434270   -0.000027
  25 N :    0.876021    0.000018
  26 H :   -0.282347    0.000001
  27 H :   -0.282820    0.000003
  28 H :   -0.191773    0.000007
  29 H :   -0.167965    0.000211

  Mayer bond orders larger than 0.100000
B(  0-O ,  1-C ) :   0.6597 B(  0-O ,  4-C ) :   0.6277 B(  1-C ,  2-C ) :   1.0062
B(  1-C ,  5-C ) :   0.4783 B(  1-C ,  6-H ) :   0.9995 B(  1-C ,  9-O ) :   0.1537
B(  2-C ,  3-C ) :   1.1129 B(  2-C ,  9-O ) :   0.3645 B(  2-C , 10-O ) :   0.1149
B(  2-C , 15-H ) :  -0.1057 B(  2-C , 16-H ) :   0.9599 B(  3-C ,  4-C ) :   0.8008
B(  3-C , 15-H ) :   0.9328 B(  4-C , 10-O ) :   0.1754 B(  4-C , 11-N ) :   0.5719
B(  4-C , 12-H ) :   0.9879 B(  4-C , 13-C ) :  -0.2249 B(  4-C , 14-C ) :  -0.1436
B(  4-C , 24-N ) :   0.1007 B(  5-C ,  7-H ) :   0.8531 B(  5-C ,  8-H ) :   0.9391
B(  9-O , 17-H ) :   1.0231 B( 10-O , 18-H ) :   0.8888 B( 10-O , 24-N ) :  -0.1228
B( 11-N , 13-C ) :   0.9899 B( 11-N , 14-C ) :   1.1623 B( 11-N , 19-N ) :  -0.1316
B( 11-N , 20-C ) :  -0.1712 B( 11-N , 24-N ) :  -0.2797 B( 13-C , 14-C ) :  -0.5229
B( 13-C , 19-N ) :   0.5663 B( 13-C , 20-C ) :   0.9690 B( 13-C , 21-C ) :   1.4248
B( 13-C , 23-C ) :  -0.6039 B( 13-C , 24-N ) :   0.8426 B( 14-C , 19-N ) :   1.1905
B( 14-C , 29-H ) :   0.2836 B( 19-N , 20-C ) :  -0.1142 B( 19-N , 29-H ) :  -0.1560
B( 20-C , 21-C ) :  -1.3159 B( 20-C , 24-N ) :  -0.5253 B( 20-C , 25-N ) :  -0.2745
B( 21-C , 22-N ) :   0.2733 B( 21-C , 23-C ) :  -0.3216 B( 21-C , 24-N ) :   0.3411
B( 21-C , 25-N ) :   1.1022 B( 22-N , 23-C ) :   1.1009 B( 22-N , 25-N ) :  -0.2255
B( 23-C , 24-N ) :   1.7411 B( 23-C , 28-H ) :   0.4272 B( 25-N , 26-H ) :   1.1089
B( 25-N , 27-H ) :   1.1621

MP2 TOTAL ENERGY:     -886.128918334 Eh
FINAL SINGLE POINT ENERGY      -886.128918333776

DIPOLE MOMENT
-------------
                                X             Y             Z
Electronic contribution:      9.48637      -0.07783       1.36579
Nuclear contribution   :     -9.12900      -0.31759      -1.89990
                        -----------------------------------------
Total Dipole Moment    :      0.35737      -0.39542      -0.53411
                        -----------------------------------------
Magnitude (a.u.)       :      0.75455
Magnitude (Debye)      :      1.91791

Rotational constants in cm-1:     0.035772     0.008677     0.007180
Rotational constants in MHz :  1072.427810   260.134078   215.242901

                             ****ORCA TERMINATED NORMALLY****
TOTAL RUN TIME: 0 days 0 hours 37 minutes 41 seconds 670 msec
