                         Program Version 4.2.1 -  RELEASE  -
|  1> %pal
|  2>  nprocs 32
|  3> end
|  4> !RI-MP2 aug-cc-pVTZ aug-cc-pVTZ/C TightSCF
|  5> %maxcore 4500
|  6> *xyzfile 0 2  01_24R.xyz
|  7>
|  8>
|  9>                          ****END OF INPUT****

CARTESIAN COORDINATES (ANGSTROEM)
---------------------------------
  C     -1.682900   -0.530317    1.360102
  C     -1.354901   -0.010926   -0.003259
  C      0.075424   -0.425924   -0.405138
  C      1.194015    0.141000    0.472059
  H      0.251639   -0.128686   -1.444267
  H      0.129873   -1.520564   -0.387039
  C      2.529161   -0.441037    0.125056
  H     -1.393754   -1.535613    1.645524
  H     -2.351737    0.010582    2.018466
  H      0.964413   -0.077749    1.521311
  H      1.239252    1.228607    0.377788
  C     -2.329410   -0.638959   -1.022559
  H     -2.115919   -0.270676   -2.030449
  H     -3.363897   -0.387556   -0.779504
  H     -2.238293   -1.727416   -1.031774
  C     -1.518938    1.513094   -0.044266
  H     -1.250949    1.905831   -1.028699
  H     -0.893850    2.006849    0.701306
  H     -2.556613    1.790838    0.156402
  C      3.574135    0.248689   -0.309628
  H      2.619862   -1.520424    0.235081
  H      3.526637    1.325548   -0.437180
  H      4.513816   -0.233286   -0.551172

 Total Charge           Charge          ....    0
 Multiplicity           Mult            ....    2
 Number of Electrons    NEL             ....   63
 Basis Dimension        Dim             ....  713

ORBITAL ENERGIES
----------------
                 SPIN UP ORBITALS
  NO   OCC          E(Eh)            E(eV)
   0   1.0000     -11.235045      -305.7211
   1   1.0000     -11.228715      -305.5489
   2   1.0000     -11.225600      -305.4641
   3   1.0000     -11.220535      -305.3263
   4   1.0000     -11.218846      -305.2803
   5   1.0000     -11.215693      -305.1945
   6   1.0000     -11.212533      -305.1085
   7   1.0000     -11.211557      -305.0820
   8   1.0000      -1.122435       -30.5430
   9   1.0000      -1.068315       -29.0703
  10   1.0000      -0.977420       -26.5970
  11   1.0000      -0.933164       -25.3927
  12   1.0000      -0.932338       -25.3702
  13   1.0000      -0.861026       -23.4297
  14   1.0000      -0.754849       -20.5405
  15   1.0000      -0.730806       -19.8863
  16   1.0000      -0.649419       -17.6716
  17   1.0000      -0.625955       -17.0331
  18   1.0000      -0.620216       -16.8769
  19   1.0000      -0.601729       -16.3739
  20   1.0000      -0.573220       -15.5981
  21   1.0000      -0.561231       -15.2719
  22   1.0000      -0.556116       -15.1327
  23   1.0000      -0.529683       -14.4134
  24   1.0000      -0.512014       -13.9326
  25   1.0000      -0.501033       -13.6338
  26   1.0000      -0.485719       -13.2171
  27   1.0000      -0.474783       -12.9195
  28   1.0000      -0.462800       -12.5934
  29   1.0000      -0.449141       -12.2218
  30   1.0000      -0.365986        -9.9590
  31   1.0000      -0.342528        -9.3206
  32   0.0000       0.028729         0.7817
  33   0.0000       0.033429         0.9096
  34   0.0000       0.034212         0.9310
  35   0.0000       0.036785         1.0010
  36   0.0000       0.046920         1.2768

                 SPIN DOWN ORBITALS
  NO   OCC          E(Eh)            E(eV)
   0   1.0000     -11.238007      -305.8017
   1   1.0000     -11.229253      -305.5635
   2   1.0000     -11.220291      -305.3196
   3   1.0000     -11.218047      -305.2586
   4   1.0000     -11.215143      -305.1795
   5   1.0000     -11.211072      -305.0688
   6   1.0000     -11.210333      -305.0487
   7   1.0000     -11.202018      -304.8224
   8   1.0000      -1.113393       -30.2970
   9   1.0000      -1.064998       -28.9801
  10   1.0000      -0.974114       -26.5070
  11   1.0000      -0.929661       -25.2974
  12   1.0000      -0.877768       -23.8853
  13   1.0000      -0.850194       -23.1350
  14   1.0000      -0.754798       -20.5391
  15   1.0000      -0.719232       -19.5713
  16   1.0000      -0.647232       -17.6121
  17   1.0000      -0.620068       -16.8729
  18   1.0000      -0.616215       -16.7681
  19   1.0000      -0.598742       -16.2926
  20   1.0000      -0.565444       -15.3865
  21   1.0000      -0.556494       -15.1430
  22   1.0000      -0.551249       -15.0002
  23   1.0000      -0.525021       -14.2865
  24   1.0000      -0.510493       -13.8912
  25   1.0000      -0.499281       -13.5861
  26   1.0000      -0.484549       -13.1853
  27   1.0000      -0.462571       -12.5872
  28   1.0000      -0.455088       -12.3836
  29   1.0000      -0.447127       -12.1669
  30   1.0000      -0.357604        -9.7309
  31   0.0000       0.029003         0.7892
  32   0.0000       0.033219         0.9039
  33   0.0000       0.034258         0.9322
  34   0.0000       0.036219         0.9856
  35   0.0000       0.046578         1.2675

MULLIKEN ATOMIC CHARGES AND SPIN POPULATIONS
--------------------------------------------
   0 C :   -1.378734    1.310090
   1 C :    2.079644   -0.184389
   2 C :   -0.529659    0.015918
   3 C :   -0.119590    0.003907
   4 H :    0.340315   -0.003754
   5 H :    0.204006   -0.006706
   6 C :   -0.215746   -0.030171
   7 H :    0.324192   -0.071205
   8 H :    0.315416   -0.114760
   9 H :    0.267857   -0.010226
  10 H :    0.133919   -0.000672
  11 C :   -1.337442    0.067290
  12 H :    0.227214    0.018204
  13 H :    0.253473   -0.007859
  14 H :    0.266774   -0.006938
  15 C :   -1.292741    0.007111
  16 H :    0.238256   -0.003577
  17 H :    0.279250   -0.001689
  18 H :    0.201609   -0.007861
  19 C :   -1.142569    0.027977
  20 H :    0.194218    0.003083
  21 H :    0.217419   -0.002221
  22 H :    0.472916   -0.001551
Sum of atomic charges         :    0.0000000

LOEWDIN ATOMIC CHARGES AND SPIN POPULATIONS
-------------------------------------------
   0 C :    0.595487    0.558532
   1 C :   -0.401178    0.103396
   2 C :    0.267396    0.012865
   3 C :    0.246358    0.007931
   4 H :   -0.133726    0.000859
   5 H :   -0.141790   -0.000179
   6 C :    0.183168   -0.006747
   7 H :   -0.197832    0.114741
   8 H :   -0.201356    0.119337
   9 H :   -0.146495    0.011375
  10 H :   -0.163205    0.000536
  11 C :    0.577630    0.036141
  12 H :   -0.157231    0.008584
  13 H :   -0.159326    0.005330
  14 H :   -0.158876    0.004194
  15 C :    0.571990    0.007908
  16 H :   -0.150654    0.000189
  17 H :   -0.167538    0.002700
  18 H :   -0.158606   -0.000084
  19 C :    0.524965    0.009270
  20 H :   -0.179486   -0.002065
  21 H :   -0.220485    0.002572
  22 H :   -0.229209    0.002615

  Mayer bond orders larger than 0.100000
B(  0-C ,  7-H ) :   0.9881 B(  0-C ,  8-H ) :   1.0147 B(  1-C ,  2-C ) :   0.7628
B(  1-C , 11-C ) :   0.3284 B(  1-C , 12-H ) :  -0.1124 B(  1-C , 15-C ) :   0.3391
B(  1-C , 18-H ) :  -0.1238 B(  2-C ,  3-C ) :   0.9949 B(  2-C ,  4-H ) :   0.9227
B(  2-C ,  5-H ) :   1.0482 B(  2-C , 10-H ) :   0.1010 B(  2-C , 11-C ) :   0.1071
B(  3-C ,  6-C ) :   0.6252 B(  3-C ,  9-H ) :   0.9657 B(  3-C , 10-H ) :   1.0232
B(  6-C , 19-C ) :   1.2442 B(  6-C , 20-H ) :   1.1241 B( 11-C , 12-H ) :   1.0495
B( 11-C , 13-H ) :   1.0543 B( 11-C , 14-H ) :   1.0343 B( 11-C , 15-C ) :   0.1520
B( 15-C , 16-H ) :   1.0399 B( 15-C , 17-H ) :   1.0551 B( 15-C , 18-H ) :   1.1315
B( 19-C , 21-H ) :   1.1694 B( 19-C , 22-H ) :   0.6729

MP2 TOTAL ENERGY:     -313.092761053 Eh
FINAL SINGLE POINT ENERGY      -313.092761052523

DIPOLE MOMENT
-------------
                                X             Y             Z
Electronic contribution:      2.90404      -0.93780       1.08461
Nuclear contribution   :     -3.10619       0.92167      -1.10033
                        -----------------------------------------
Total Dipole Moment    :     -0.20215      -0.01613      -0.01572
                        -----------------------------------------
Magnitude (a.u.)       :      0.20340
Magnitude (Debye)      :      0.51701

Rotational constants in cm-1:     0.133584     0.031410     0.031089
Rotational constants in MHz :  4004.752197   941.662075   932.027622

                             ****ORCA TERMINATED NORMALLY****
TOTAL RUN TIME: 0 days 0 hours 12 minutes 55 seconds 111 msec
