                         Program Version 4.2.1 -  RELEASE  -
|  1> %pal
|  2>  nprocs 32
|  3> end
|  4> !RI-MP2 aug-cc-pVTZ aug-cc-pVTZ/C TightSCF
|  5> %maxcore 4500
|  6> *xyzfile 0 1  04_70P2.xyz
|  7>
|  8>
|  9>                          ****END OF INPUT****

CARTESIAN COORDINATES (ANGSTROEM)
---------------------------------
  O      0.032088   -0.000009    1.446068
  C     -0.006034    0.000000    0.012723
  C     -1.485089   -0.000063   -0.340696
  C      0.680664   -1.256887   -0.515102
  C      0.680551    1.256957   -0.515082
  H      0.202809   -2.147655   -0.104060
  H      1.736728   -1.271137   -0.229577
  H      0.629918   -1.304919   -1.605253
  H      0.202620    2.147675   -0.104019
  H      0.629794    1.305007   -1.605232
  H      1.736616    1.271295   -0.229563
  H     -1.970700   -0.884339    0.075005
  H     -1.624419   -0.000063   -1.423532
  H     -1.970779    0.884164    0.075014
  H      0.950157    0.000001    1.731615

 Total Charge           Charge          ....    0
 Multiplicity           Mult            ....    1
 Number of Electrons    NEL             ....   42
 Basis Dimension        Dim             ....  460

ORBITAL ENERGIES
----------------

  NO   OCC          E(Eh)            E(eV)
   0   2.0000     -20.548961      -559.1656
   1   2.0000     -11.283803      -307.0479
   2   2.0000     -11.214463      -305.1610
   3   2.0000     -11.214448      -305.1607
   4   2.0000     -11.208478      -304.9982
   5   2.0000      -1.356408       -36.9097
   6   2.0000      -1.065807       -29.0021
   7   2.0000      -0.940727       -25.5985
   8   2.0000      -0.939075       -25.5535
   9   2.0000      -0.771870       -21.0037
  10   2.0000      -0.669530       -18.2188
  11   2.0000      -0.623173       -16.9574
  12   2.0000      -0.621300       -16.9064
  13   2.0000      -0.575708       -15.6658
  14   2.0000      -0.556103       -15.1323
  15   2.0000      -0.530839       -14.4449
  16   2.0000      -0.515967       -14.0402
  17   2.0000      -0.509167       -13.8551
  18   2.0000      -0.503335       -13.6964
  19   2.0000      -0.462026       -12.5724
  20   2.0000      -0.432358       -11.7650
  21   0.0000       0.028558         0.7771
  22   0.0000       0.037737         1.0269
  23   0.0000       0.038457         1.0465
  24   0.0000       0.042203         1.1484
  25   0.0000       0.058622         1.5952

MULLIKEN ATOMIC CHARGES
-----------------------
   0 O :   -0.860157
   1 C :    1.583861
   2 C :   -1.061262
   3 C :   -1.161701
   4 C :   -1.161711
   5 H :    0.263870
   6 H :    0.272870
   7 H :    0.290353
   8 H :    0.263870
   9 H :    0.290352
  10 H :    0.272870
  11 H :    0.273979
  12 H :    0.281739
  13 H :    0.273980
  14 H :    0.177088
Sum of atomic charges:    0.0000000

LOEWDIN ATOMIC CHARGES
----------------------
   0 O :    0.836192
   1 C :   -0.623887
   2 C :    0.572571
   3 C :    0.580188
   4 C :    0.580188
   5 H :   -0.161958
   6 H :   -0.164474
   7 H :   -0.159794
   8 H :   -0.161959
   9 H :   -0.159795
  10 H :   -0.164473
  11 H :   -0.162117
  12 H :   -0.160601
  13 H :   -0.162118
  14 H :   -0.487964

  Mayer bond orders larger than 0.100000
B(  0-O ,  1-C ) :   0.1039 B(  0-O ,  3-C ) :   0.1308 B(  0-O ,  4-C ) :   0.1308
B(  0-O , 14-H ) :   0.9928 B(  1-C ,  2-C ) :   0.5226 B(  1-C ,  3-C ) :   0.7002
B(  1-C ,  4-C ) :   0.7002 B(  2-C , 11-H ) :   0.9987 B(  2-C , 12-H ) :   0.9789
B(  2-C , 13-H ) :   0.9987 B(  3-C ,  5-H ) :   0.9859 B(  3-C ,  6-H ) :   0.9822
B(  3-C ,  7-H ) :   0.9554 B(  4-C ,  8-H ) :   0.9859 B(  4-C ,  9-H ) :   0.9554
B(  4-C , 10-H ) :   0.9823

MP2 TOTAL ENERGY:     -233.220854167 Eh
FINAL SINGLE POINT ENERGY      -233.220854166556

DIPOLE MOMENT
-------------
                                X             Y             Z
Electronic contribution:     -0.07199      -0.00002       3.15266
Nuclear contribution   :      0.55682       0.00003      -3.61476
                        -----------------------------------------
Total Dipole Moment    :      0.48483       0.00001      -0.46210
                        -----------------------------------------
Magnitude (a.u.)       :      0.66977
Magnitude (Debye)      :      1.70242

Rotational constants in cm-1:     0.157755     0.156867     0.151001
Rotational constants in MHz :  4729.366563  4702.754606  4526.903338

                             ****ORCA TERMINATED NORMALLY****
TOTAL RUN TIME: 0 days 0 hours 1 minutes 20 seconds 820 msec
