                         Program Version 4.2.1 -  RELEASE  -
|  1> %pal
|  2>  nprocs 32
|  3> end
|  4> !RI-MP2 aug-cc-pVTZ aug-cc-pVTZ/C TightSCF
|  5> %maxcore 4500
|  6> *xyzfile 0 1  10_49P.xyz
|  7>
|  8>
|  9>                          ****END OF INPUT****

CARTESIAN COORDINATES (ANGSTROEM)
---------------------------------
  C     -1.792588   -0.430864   -0.000057
  C     -0.669467    0.285521    0.000016
  C      0.669467   -0.285521   -0.000018
  C      1.792588    0.430864    0.000055
  C      3.174358   -0.138459    0.000030
  H      3.155360   -1.229770   -0.000081
  H      3.737333    0.192201   -0.878020
  H      3.737292    0.192023    0.878173
  C     -3.174358    0.138459   -0.000027
  H     -3.155360    1.229770    0.000052
  H     -3.737307   -0.192048   -0.878151
  H     -3.737319   -0.192175    0.878042
  H      1.715297    1.516568    0.000144
  H      0.734001   -1.372124   -0.000107
  H     -0.734001    1.372124    0.000105
  H     -1.715297   -1.516568   -0.000148

 Total Charge           Charge          ....    0
 Multiplicity           Mult            ....    1
 Number of Electrons    NEL             ....   46
 Basis Dimension        Dim             ....  506

ORBITAL ENERGIES
----------------

  NO   OCC          E(Eh)            E(eV)
   0   2.0000     -11.227500      -305.5158
   1   2.0000     -11.227473      -305.5151
   2   2.0000     -11.223537      -305.4080
   3   2.0000     -11.222720      -305.3857
   4   2.0000     -11.220049      -305.3131
   5   2.0000     -11.220049      -305.3130
   6   2.0000      -1.099717       -29.9248
   7   2.0000      -1.048667       -28.5357
   8   2.0000      -0.967150       -26.3175
   9   2.0000      -0.895868       -24.3778
  10   2.0000      -0.762965       -20.7613
  11   2.0000      -0.749584       -20.3972
  12   2.0000      -0.646465       -17.5912
  13   2.0000      -0.611914       -16.6510
  14   2.0000      -0.567367       -15.4388
  15   2.0000      -0.564159       -15.3516
  16   2.0000      -0.557101       -15.1595
  17   2.0000      -0.548212       -14.9176
  18   2.0000      -0.513427       -13.9711
  19   2.0000      -0.501867       -13.6565
  20   2.0000      -0.479827       -13.0568
  21   2.0000      -0.424995       -11.5647
  22   2.0000      -0.301932        -8.2160
  23   0.0000       0.030836         0.8391
  24   0.0000       0.031903         0.8681
  25   0.0000       0.034444         0.9373
  26   0.0000       0.046512         1.2657
  27   0.0000       0.050053         1.3620

MULLIKEN ATOMIC CHARGES
-----------------------
   0 C :   -0.477965
   1 C :   -0.053150
   2 C :   -0.053151
   3 C :   -0.477965
   4 C :   -0.801419
   5 H :    0.296054
   6 H :    0.276755
   7 H :    0.276758
   8 C :   -0.801419
   9 H :    0.296054
  10 H :    0.276756
  11 H :    0.276757
  12 H :    0.242260
  13 H :    0.240707
  14 H :    0.240707
  15 H :    0.242260
Sum of atomic charges:   -0.0000000

LOEWDIN ATOMIC CHARGES
----------------------
   0 C :    0.196815
   1 C :    0.169554
   2 C :    0.169554
   3 C :    0.196815
   4 C :    0.546768
   5 H :   -0.183685
   6 H :   -0.177603
   7 H :   -0.177603
   8 C :    0.546768
   9 H :   -0.183685
  10 H :   -0.177603
  11 H :   -0.177603
  12 H :   -0.185466
  13 H :   -0.188779
  14 H :   -0.188779
  15 H :   -0.185466

  Mayer bond orders larger than 0.100000
B(  0-C ,  1-C ) :   1.0481 B(  0-C ,  2-C ) :  -0.1930 B(  0-C ,  3-C ) :   0.1829
B(  0-C ,  8-C ) :   0.7267 B(  0-C , 15-H ) :   1.1752 B(  1-C ,  2-C ) :   0.5139
B(  1-C ,  3-C ) :  -0.1930 B(  1-C , 14-H ) :   1.1470 B(  2-C ,  3-C ) :   1.0481
B(  2-C , 13-H ) :   1.1470 B(  3-C ,  4-C ) :   0.7267 B(  3-C , 12-H ) :   1.1752
B(  4-C ,  5-H ) :   0.9504 B(  4-C ,  6-H ) :   0.9782 B(  4-C ,  7-H ) :   0.9782
B(  8-C ,  9-H ) :   0.9504 B(  8-C , 10-H ) :   0.9782 B(  8-C , 11-H ) :   0.9782

MP2 TOTAL ENERGY:     -234.097163878 Eh
FINAL SINGLE POINT ENERGY      -234.097163877512

DIPOLE MOMENT
-------------
                                X             Y             Z
Electronic contribution:      0.00000      -0.00000      -0.00001
Nuclear contribution   :     -0.00000       0.00000       0.00001
                        -----------------------------------------
Total Dipole Moment    :      0.00000       0.00000       0.00000
                        -----------------------------------------
Magnitude (a.u.)       :      0.00000
Magnitude (Debye)      :      0.00000

Rotational constants in cm-1:     0.780084     0.040471     0.039028
Rotational constants in MHz : 23386.321641  1213.281066  1170.044722

                             ****ORCA TERMINATED NORMALLY****
TOTAL RUN TIME: 0 days 0 hours 1 minutes 25 seconds 598 msec
