                         Program Version 4.2.1 -  RELEASE  -
|  1> %pal
|  2>  nprocs 32
|  3> end
|  4> !RI-MP2 aug-cc-pVTZ aug-cc-pVTZ/C TightSCF
|  5> %maxcore 4500
|  6> *xyzfile 0 2  04_51R2.xyz
|  7>
|  8>
|  9>                          ****END OF INPUT****

CARTESIAN COORDINATES (ANGSTROEM)
---------------------------------
  N      0.000000    0.311563    0.000004
  C     -1.196352   -0.480300    0.000027
  C      1.196352   -0.480300   -0.000024
  C     -2.447818    0.380566   -0.000010
  H      1.190494   -1.149548    0.876127
  H     -1.190493   -1.149474    0.876234
  H     -1.190490   -1.149551   -0.876122
  C      2.447818    0.380566    0.000005
  H      1.190489   -1.149477   -0.876229
  H     -2.469463    1.022447    0.882100
  H      2.469472    1.022369    0.882172
  H     -3.348199   -0.237857    0.000020
  H     -2.469468    1.022366   -0.882179
  H      2.469459    1.022444   -0.882107
  H      3.348199   -0.237857   -0.000028

 Total Charge           Charge          ....    0
 Multiplicity           Mult            ....    2
 Number of Electrons    NEL             ....   41
 Basis Dimension        Dim             ....  460

ORBITAL ENERGIES
----------------
                 SPIN UP ORBITALS
  NO   OCC          E(Eh)            E(eV)
   0   1.0000     -15.573022      -423.7635
   1   1.0000     -11.248109      -306.0766
   2   1.0000     -11.248090      -306.0761
   3   1.0000     -11.210584      -305.0555
   4   1.0000     -11.210583      -305.0555
   5   1.0000      -1.233347       -33.5611
   6   1.0000      -1.032966       -28.1084
   7   1.0000      -0.963703       -26.2237
   8   1.0000      -0.836617       -22.7655
   9   1.0000      -0.799574       -21.7575
  10   1.0000      -0.676162       -18.3993
  11   1.0000      -0.640224       -17.4214
  12   1.0000      -0.601674       -16.3724
  13   1.0000      -0.578095       -15.7308
  14   1.0000      -0.541489       -14.7347
  15   1.0000      -0.529007       -14.3950
  16   1.0000      -0.512917       -13.9572
  17   1.0000      -0.486533       -13.2392
  18   1.0000      -0.485064       -13.1993
  19   1.0000      -0.423596       -11.5266
  20   1.0000      -0.412726       -11.2308
  21   0.0000       0.030585         0.8323
  22   0.0000       0.035416         0.9637
  23   0.0000       0.039779         1.0825
  24   0.0000       0.040424         1.1000
  25   0.0000       0.053931         1.4675

                 SPIN DOWN ORBITALS
  NO   OCC          E(Eh)            E(eV)
   0   1.0000     -15.541281      -422.8998
   1   1.0000     -11.251156      -306.1595
   2   1.0000     -11.251138      -306.1590
   3   1.0000     -11.210467      -305.0523
   4   1.0000     -11.210466      -305.0523
   5   1.0000      -1.161479       -31.6054
   6   1.0000      -1.032525       -28.0964
   7   1.0000      -0.946110       -25.7450
   8   1.0000      -0.834655       -22.7121
   9   1.0000      -0.768202       -20.9038
  10   1.0000      -0.628821       -17.1111
  11   1.0000      -0.626281       -17.0420
  12   1.0000      -0.597080       -16.2474
  13   1.0000      -0.574652       -15.6371
  14   1.0000      -0.536881       -14.6093
  15   1.0000      -0.508801       -13.8452
  16   1.0000      -0.507105       -13.7990
  17   1.0000      -0.482616       -13.1326
  18   1.0000      -0.478541       -13.0218
  19   1.0000      -0.390354       -10.6221
  20   0.0000       0.030793         0.8379
  21   0.0000       0.035410         0.9636
  22   0.0000       0.039692         1.0801
  23   0.0000       0.040503         1.1021
  24   0.0000       0.054023         1.4700

MULLIKEN ATOMIC CHARGES AND SPIN POPULATIONS
--------------------------------------------
   0 N :   -0.503292    1.094156
   1 C :   -0.210895   -0.175544
   2 C :   -0.210894   -0.175545
   3 C :   -0.975367    0.023629
   4 H :    0.287407    0.058572
   5 H :    0.287407    0.058579
   6 H :    0.287407    0.058571
   7 C :   -0.975368    0.023629
   8 H :    0.287407    0.058578
   9 H :    0.265182   -0.004394
  10 H :    0.265181   -0.004394
  11 H :    0.332732   -0.003525
  12 H :    0.265182   -0.004394
  13 H :    0.265181   -0.004394
  14 H :    0.332733   -0.003525
Sum of atomic charges         :    0.0000000

LOEWDIN ATOMIC CHARGES AND SPIN POPULATIONS
-------------------------------------------
   0 N :    0.450880    0.702188
   1 C :    0.050610    0.112237
   2 C :    0.050610    0.112237
   3 C :    0.563944   -0.000904
   4 H :   -0.154328    0.019608
   5 H :   -0.154328    0.019610
   6 H :   -0.154328    0.019607
   7 C :    0.563944   -0.000904
   8 H :   -0.154328    0.019609
   9 H :   -0.177049   -0.000441
  10 H :   -0.177049   -0.000441
  11 H :   -0.177239   -0.000763
  12 H :   -0.177049   -0.000441
  13 H :   -0.177050   -0.000441
  14 H :   -0.177239   -0.000763

  Mayer bond orders larger than 0.100000
B(  0-N ,  1-C ) :   0.9021 B(  0-N ,  2-C ) :   0.9021 B(  1-C ,  3-C ) :   0.8692
B(  1-C ,  5-H ) :   0.9011 B(  1-C ,  6-H ) :   0.9011 B(  2-C ,  4-H ) :   0.9011
B(  2-C ,  7-C ) :   0.8692 B(  2-C ,  8-H ) :   0.9011 B(  3-C ,  9-H ) :   0.9651
B(  3-C , 11-H ) :   0.9136 B(  3-C , 12-H ) :   0.9651 B(  7-C , 10-H ) :   0.9651
B(  7-C , 13-H ) :   0.9651 B(  7-C , 14-H ) :   0.9136

MP2 TOTAL ENERGY:     -212.671464197 Eh
FINAL SINGLE POINT ENERGY      -212.671464196760

DIPOLE MOMENT
-------------
                                X             Y             Z
Electronic contribution:      0.00000       0.43334       0.00001
Nuclear contribution   :      0.00000      -1.04863      -0.00001
                        -----------------------------------------
Total Dipole Moment    :      0.00000      -0.61529      -0.00000
                        -----------------------------------------
Magnitude (a.u.)       :      0.61529
Magnitude (Debye)      :      1.56393

Rotational constants in cm-1:     0.642034     0.070994     0.067097
Rotational constants in MHz : 19247.681518  2128.336854  2011.511757

                             ****ORCA TERMINATED NORMALLY****
TOTAL RUN TIME: 0 days 0 hours 1 minutes 38 seconds 904 msec
