                         Program Version 4.2.1 -  RELEASE  -
|  1> %pal
|  2>  nprocs 32
|  3> end
|  4> !RI-MP2 aug-cc-pVTZ aug-cc-pVTZ/C TightSCF
|  5> %maxcore 4500
|  6> *xyzfile 1 1  05_30P1.xyz
|  7>
|  8>
|  9>                          ****END OF INPUT****

CARTESIAN COORDINATES (ANGSTROEM)
---------------------------------
  C      0.411975   -0.683524   -0.000060
  C     -0.939787   -0.282425   -0.000026
  C     -1.308112    1.078636    0.000060
  C     -1.923881   -1.289429   -0.000082
  C     -2.641396    1.413225    0.000089
  H     -0.541309    1.842348    0.000102
  C     -3.257602   -0.939561   -0.000052
  H     -1.631295   -2.333235   -0.000148
  C     -3.610500    0.406537    0.000033
  H     -2.942722    2.452393    0.000155
  H     -4.023486   -1.703513   -0.000095
  O      1.364138    0.145705   -0.000017
  C      2.793764   -0.310720   -0.000042
  H      2.749581   -1.402704   -0.000188
  H     -4.658735    0.680649    0.000056
  C      3.406430    0.217287    1.272482
  H      2.895472   -0.167379    2.155695
  H      4.449169   -0.100633    1.318939
  H      3.380991    1.307575    1.290718
  C      3.406486    0.217623   -1.272399
  H      2.895558   -0.166801   -2.155735
  H      3.381058    1.307916   -1.290344
  H      4.449223   -0.100295   -1.318901
  H      0.659125   -1.747864   -0.000126

 Total Charge           Charge          ....    1
 Multiplicity           Mult            ....    1
 Number of Electrons    NEL             ....   80
 Basis Dimension        Dim             ....  805

ORBITAL ENERGIES
----------------

  NO   OCC          E(Eh)            E(eV)
   0   2.0000     -20.807762      -566.2080
   1   2.0000     -11.549784      -314.2856
   2   2.0000     -11.464210      -311.9570
   3   2.0000     -11.418810      -310.7216
   4   2.0000     -11.411925      -310.5343
   5   2.0000     -11.409587      -310.4706
   6   2.0000     -11.409475      -310.4676
   7   2.0000     -11.384999      -309.8016
   8   2.0000     -11.384557      -309.7895
   9   2.0000     -11.359982      -309.1208
  10   2.0000     -11.359968      -309.1205
  11   2.0000      -1.647469       -44.8299
  12   2.0000      -1.331771       -36.2393
  13   2.0000      -1.253037       -34.0969
  14   2.0000      -1.204861       -32.7859
  15   2.0000      -1.184819       -32.2406
  16   2.0000      -1.090805       -29.6823
  17   2.0000      -1.085418       -29.5357
  18   2.0000      -1.011713       -27.5301
  19   2.0000      -0.984460       -26.7885
  20   2.0000      -0.971060       -26.4239
  21   2.0000      -0.896436       -24.3933
  22   2.0000      -0.871740       -23.7213
  23   2.0000      -0.832196       -22.6452
  24   2.0000      -0.815362       -22.1871
  25   2.0000      -0.783318       -21.3152
  26   2.0000      -0.777202       -21.1487
  27   2.0000      -0.760296       -20.6887
  28   2.0000      -0.753568       -20.5056
  29   2.0000      -0.719340       -19.5742
  30   2.0000      -0.702359       -19.1122
  31   2.0000      -0.685031       -18.6406
  32   2.0000      -0.681655       -18.5488
  33   2.0000      -0.664603       -18.0848
  34   2.0000      -0.662467       -18.0266
  35   2.0000      -0.654261       -17.8033
  36   2.0000      -0.644257       -17.5311
  37   2.0000      -0.639953       -17.4140
  38   2.0000      -0.511774       -13.9261
  39   2.0000      -0.499124       -13.5819
  40   0.0000      -0.131444        -3.5768
  41   0.0000      -0.074306        -2.0220
  42   0.0000      -0.059924        -1.6306
  43   0.0000      -0.055116        -1.4998
  44   0.0000      -0.053927        -1.4674

MULLIKEN ATOMIC CHARGES
-----------------------
   0 C :   -0.067724
   1 C :    2.134714
   2 C :   -0.456745
   3 C :   -0.932581
   4 C :   -1.019899
   5 H :    0.153309
   6 C :   -0.765822
   7 H :   -0.096563
   8 C :    0.019223
   9 H :    0.576748
  10 H :    0.648168
  11 O :   -0.401023
  12 C :    0.317233
  13 H :    0.440974
  14 H :    0.374074
  15 C :   -1.030258
  16 H :    0.276575
  17 H :    0.319685
  18 H :    0.284159
  19 C :   -1.030268
  20 H :    0.276567
  21 H :    0.284160
  22 H :    0.319677
  23 H :    0.375617
Sum of atomic charges:    1.0000000

LOEWDIN ATOMIC CHARGES
----------------------
   0 C :    0.052880
   1 C :   -0.108079
   2 C :    0.255144
   3 C :    0.242437
   4 C :    0.255515
   5 H :   -0.156173
   6 C :    0.254532
   7 H :   -0.153546
   8 C :    0.265852
   9 H :   -0.164766
  10 H :   -0.165489
  11 O :    0.672668
  12 C :   -0.176220
  13 H :   -0.141719
  14 H :   -0.147497
  15 C :    0.619353
  16 H :   -0.154505
  17 H :   -0.147888
  18 H :   -0.150491
  19 C :    0.619353
  20 H :   -0.154505
  21 H :   -0.150491
  22 H :   -0.147889
  23 H :   -0.118480

  Mayer bond orders larger than 0.100000
B(  0-C ,  2-C ) :   0.2746 B(  0-C ,  3-C ) :   0.2604 B(  0-C ,  5-H ) :  -0.1203
B(  0-C ,  6-C ) :   0.2057 B(  0-C ,  7-H ) :  -0.4121 B(  0-C ,  8-C ) :   0.1950
B(  0-C ,  9-H ) :   0.1723 B(  0-C , 10-H ) :   0.1855 B(  0-C , 11-O ) :   1.5165
B(  0-C , 12-C ) :  -0.1587 B(  0-C , 23-H ) :   0.9341 B(  1-C ,  2-C ) :   0.2876
B(  1-C ,  5-H ) :  -0.4097 B(  1-C ,  7-H ) :  -0.2527 B(  1-C , 11-O ) :  -0.2980
B(  1-C , 23-H ) :  -0.1574 B(  2-C ,  3-C ) :  -0.4214 B(  2-C ,  4-C ) :   1.2809
B(  2-C ,  5-H ) :   1.5020 B(  2-C ,  7-H ) :   0.2235 B(  2-C ,  8-C ) :  -0.1142
B(  3-C ,  4-C ) :   0.1154 B(  3-C ,  5-H ) :   0.3264 B(  3-C ,  6-C ) :   1.2662
B(  3-C ,  7-H ) :   2.1284 B(  3-C ,  8-C ) :  -0.2462 B(  3-C ,  9-H ) :  -0.1251
B(  3-C , 10-H ) :  -0.1803 B(  3-C , 14-H ) :   0.2149 B(  4-C ,  6-C ) :   0.2473
B(  4-C ,  8-C ) :   1.0358 B(  4-C ,  9-H ) :   0.5302 B(  4-C , 14-H ) :  -0.1539
B(  5-H ,  7-H ) :   0.1549 B(  6-C ,  7-H ) :  -0.1343 B(  6-C ,  8-C ) :   1.0831
B(  6-C , 10-H ) :   0.4806 B(  6-C , 14-H ) :  -0.1522 B(  8-C , 14-H ) :   0.9195
B( 11-O , 12-C ) :   0.6149 B( 12-C , 13-H ) :   0.8142 B( 12-C , 15-C ) :   0.8167
B( 12-C , 19-C ) :   0.8167 B( 15-C , 16-H ) :   0.9563 B( 15-C , 17-H ) :   0.9513
B( 15-C , 18-H ) :   0.9511 B( 15-C , 19-C ) :   0.1619 B( 19-C , 20-H ) :   0.9563
B( 19-C , 21-H ) :   0.9511 B( 19-C , 22-H ) :   0.9513

MP2 TOTAL ENERGY:     -462.909421300 Eh
FINAL SINGLE POINT ENERGY      -462.909421299570

DIPOLE MOMENT
-------------
                                X             Y             Z
Electronic contribution:    -10.94517      -0.57564      -0.00018
Nuclear contribution   :     11.30037      -0.13177       0.00013
                        -----------------------------------------
Total Dipole Moment    :      0.35519      -0.70740      -0.00005
                        -----------------------------------------
Magnitude (a.u.)       :      0.79157
Magnitude (Debye)      :      2.01201

Rotational constants in cm-1:     0.104187     0.016211     0.015445
Rotational constants in MHz :  3123.454437   485.993352   463.040576

                             ****ORCA TERMINATED NORMALLY****
TOTAL RUN TIME: 0 days 0 hours 7 minutes 53 seconds 221 msec
