                         Program Version 4.2.1 -  RELEASE  -
|  1> %pal
|  2>  nprocs 32
|  3> end
|  4> !RI-MP2 aug-cc-pVTZ aug-cc-pVTZ/C TightSCF
|  5> %maxcore 4500
|  6> *xyzfile 0 2  04_79P1.xyz
|  7>
|  8>
|  9>                          ****END OF INPUT****

CARTESIAN COORDINATES (ANGSTROEM)
---------------------------------
  O     -1.812277    0.505273   -1.356979
  C     -2.955345   -0.241704   -0.905393
  C     -2.802203   -0.336627    0.626401
  C     -2.101273    0.996023    0.957509
  C     -1.319033    1.345288   -0.346337
  C     -3.018208   -1.523623   -1.629001
  H     -3.860526    0.350094   -1.106564
  H     -3.952280   -2.063805   -1.691535
  H     -2.101355   -1.991607   -1.957963
  O     -2.060509   -1.426446    1.096547
  H     -3.780048   -0.399250    1.103370
  H     -1.192620   -1.480872    0.626742
  O     -1.312293    0.930515    2.104817
  H     -2.852333    1.776953    1.101887
  H     -1.191141   -0.011073    2.301347
  N      0.118643    1.202034   -0.265673
  H     -1.485272    2.392030   -0.616720
  C      1.029484    2.224107   -0.426464
  N      2.268866    1.839773   -0.371093
  C      2.187305    0.478627   -0.166746
  C      0.866451    0.063130   -0.096626
  N      0.465713   -1.198711    0.097247
  C      1.480784   -2.048246    0.214397
  N      2.782363   -1.781108    0.156458
  C      3.169110   -0.514065   -0.031932
  N      4.481971   -0.232553   -0.086738
  H      5.147751   -0.978127    0.023308
  H      4.789951    0.715466   -0.220052
  H      1.216727   -3.087367    0.379441
  H      0.696457    3.239316   -0.584588

 Total Charge           Charge          ....    0
 Multiplicity           Mult            ....    2
 Number of Electrons    NEL             ....  131
 Basis Dimension        Dim             .... 1104

ORBITAL ENERGIES
----------------
                 SPIN UP ORBITALS
  NO   OCC          E(Eh)            E(eV)
   0   1.0000     -20.578217      -559.9617
   1   1.0000     -20.564104      -559.5777
   2   1.0000     -20.548637      -559.1568
   3   1.0000     -15.631372      -425.3513
   4   1.0000     -15.591500      -424.2663
   5   1.0000     -15.570390      -423.6918
   6   1.0000     -15.567914      -423.6245
   7   1.0000     -15.557777      -423.3486
   8   1.0000     -11.345765      -308.7340
   9   1.0000     -11.344933      -308.7113
  10   1.0000     -11.322298      -308.0954
  11   1.0000     -11.321990      -308.0870
  12   1.0000     -11.321878      -308.0840
  13   1.0000     -11.297273      -307.4144
  14   1.0000     -11.297066      -307.4088
  15   1.0000     -11.291850      -307.2669
  16   1.0000     -11.255126      -306.2676
  17   1.0000     -11.238511      -305.8154
  18   1.0000      -1.426559       -38.8186
  19   1.0000      -1.384348       -37.6700
  20   1.0000      -1.372570       -37.3495
  21   1.0000      -1.352096       -36.7924
  22   1.0000      -1.313894       -35.7529
  23   1.0000      -1.260280       -34.2940
  24   1.0000      -1.204066       -32.7643
  25   1.0000      -1.168595       -31.7991
  26   1.0000      -1.065285       -28.9879
  27   1.0000      -1.047830       -28.5129
  28   1.0000      -1.032919       -28.1072
  29   1.0000      -0.948576       -25.8121
  30   1.0000      -0.902786       -24.5661
  31   1.0000      -0.887571       -24.1520
  32   1.0000      -0.850871       -23.1534
  33   1.0000      -0.821673       -22.3589
  34   1.0000      -0.809247       -22.0207
  35   1.0000      -0.772546       -21.0221
  36   1.0000      -0.747380       -20.3372
  37   1.0000      -0.733653       -19.9637
  38   1.0000      -0.713806       -19.4237
  39   1.0000      -0.696674       -18.9575
  40   1.0000      -0.690972       -18.8023
  41   1.0000      -0.684501       -18.6262
  42   1.0000      -0.652632       -17.7590
  43   1.0000      -0.648366       -17.6429
  44   1.0000      -0.635182       -17.2842
  45   1.0000      -0.632094       -17.2001
  46   1.0000      -0.614926       -16.7330
  47   1.0000      -0.600912       -16.3516
  48   1.0000      -0.594397       -16.1744
  49   1.0000      -0.581860       -15.8332
  50   1.0000      -0.573784       -15.6135
  51   1.0000      -0.555175       -15.1071
  52   1.0000      -0.545214       -14.8360
  53   1.0000      -0.531765       -14.4701
  54   1.0000      -0.512940       -13.9578
  55   1.0000      -0.510314       -13.8863
  56   1.0000      -0.484086       -13.1727
  57   1.0000      -0.470053       -12.7908
  58   1.0000      -0.461305       -12.5527
  59   1.0000      -0.453841       -12.3496
  60   1.0000      -0.441563       -12.0156
  61   1.0000      -0.419622       -11.4185
  62   1.0000      -0.413757       -11.2589
  63   1.0000      -0.380217       -10.3462
  64   1.0000      -0.361807        -9.8453
  65   1.0000      -0.317309        -8.6344
  66   0.0000       0.022822         0.6210
  67   0.0000       0.027798         0.7564
  68   0.0000       0.030689         0.8351
  69   0.0000       0.038558         1.0492
  70   0.0000       0.040516         1.1025

                 SPIN DOWN ORBITALS
  NO   OCC          E(Eh)            E(eV)
   0   1.0000     -20.577804      -559.9505
   1   1.0000     -20.563968      -559.5740
   2   1.0000     -20.548733      -559.1595
   3   1.0000     -15.631363      -425.3510
   4   1.0000     -15.591502      -424.2663
   5   1.0000     -15.570361      -423.6911
   6   1.0000     -15.567909      -423.6243
   7   1.0000     -15.557772      -423.3485
   8   1.0000     -11.345786      -308.7345
   9   1.0000     -11.344935      -308.7114
  10   1.0000     -11.322302      -308.0955
  11   1.0000     -11.321993      -308.0871
  12   1.0000     -11.321882      -308.0841
  13   1.0000     -11.300439      -307.5006
  14   1.0000     -11.297238      -307.4135
  15   1.0000     -11.289433      -307.2011
  16   1.0000     -11.255125      -306.2675
  17   1.0000     -11.214857      -305.1718
  18   1.0000      -1.425628       -38.7933
  19   1.0000      -1.383821       -37.6557
  20   1.0000      -1.372291       -37.3419
  21   1.0000      -1.351714       -36.7820
  22   1.0000      -1.313862       -35.7520
  23   1.0000      -1.260257       -34.2933
  24   1.0000      -1.203851       -32.7585
  25   1.0000      -1.168536       -31.7975
  26   1.0000      -1.049848       -28.5678
  27   1.0000      -1.046223       -28.4692
  28   1.0000      -1.024596       -27.8807
  29   1.0000      -0.921783       -25.0830
  30   1.0000      -0.898769       -24.4567
  31   1.0000      -0.881348       -23.9827
  32   1.0000      -0.846478       -23.0338
  33   1.0000      -0.817023       -22.2323
  34   1.0000      -0.790699       -21.5160
  35   1.0000      -0.772277       -21.0147
  36   1.0000      -0.744804       -20.2671
  37   1.0000      -0.732659       -19.9367
  38   1.0000      -0.712534       -19.3890
  39   1.0000      -0.695201       -18.9174
  40   1.0000      -0.690567       -18.7913
  41   1.0000      -0.677421       -18.4336
  42   1.0000      -0.651545       -17.7294
  43   1.0000      -0.644698       -17.5431
  44   1.0000      -0.634412       -17.2632
  45   1.0000      -0.631146       -17.1744
  46   1.0000      -0.614832       -16.7304
  47   1.0000      -0.599434       -16.3114
  48   1.0000      -0.591198       -16.0873
  49   1.0000      -0.578846       -15.7512
  50   1.0000      -0.568056       -15.4576
  51   1.0000      -0.553693       -15.0668
  52   1.0000      -0.537710       -14.6318
  53   1.0000      -0.527121       -14.3437
  54   1.0000      -0.512643       -13.9497
  55   1.0000      -0.509169       -13.8552
  56   1.0000      -0.480667       -13.0796
  57   1.0000      -0.467864       -12.7312
  58   1.0000      -0.459253       -12.4969
  59   1.0000      -0.452051       -12.3009
  60   1.0000      -0.434003       -11.8098
  61   1.0000      -0.418985       -11.4012
  62   1.0000      -0.410761       -11.1774
  63   1.0000      -0.380000       -10.3403
  64   1.0000      -0.317321        -8.6347
  65   0.0000       0.022912         0.6235
  66   0.0000       0.027809         0.7567
  67   0.0000       0.030918         0.8413
  68   0.0000       0.038387         1.0446
  69   0.0000       0.040145         1.0924

MULLIKEN ATOMIC CHARGES AND SPIN POPULATIONS
--------------------------------------------
   0 O :   -0.928647    0.018382
   1 C :    0.556265   -0.182195
   2 C :    0.249958    0.075717
   3 C :    0.218056   -0.014522
   4 C :    0.443720    0.008641
   5 C :   -1.381157    1.233035
   6 H :    0.403476    0.041777
   7 H :    0.286669   -0.094958
   8 H :    0.474544   -0.058976
   9 O :   -1.086768   -0.015244
  10 H :    0.442523   -0.021407
  11 H :    0.477666    0.004973
  12 O :   -0.956972    0.004287
  13 H :    0.431961    0.000907
  14 H :    0.234932    0.000062
  15 N :    0.267041   -0.006857
  16 H :    0.440346    0.000503
  17 C :   -0.402932   -0.000869
  18 N :   -1.149328    0.000193
  19 C :    2.105091   -0.000637
  20 C :   -0.357891    0.002776
  21 N :   -0.473572    0.004669
  22 C :   -0.704008   -0.000166
  23 N :   -0.404294    0.000059
  24 C :   -0.138940   -0.000121
  25 N :   -0.540142   -0.000004
  26 H :    0.068589   -0.000005
  27 H :    0.106811   -0.000010
  28 H :    0.600160    0.000005
  29 H :    0.716843   -0.000014
Sum of atomic charges         :    0.0000000

LOEWDIN ATOMIC CHARGES AND SPIN POPULATIONS
-------------------------------------------
   0 O :    0.611704    0.005673
   1 C :   -0.284230    0.122273
   2 C :   -0.219074    0.036069
   3 C :   -0.208881    0.005190
   4 C :   -0.290694    0.000359
   5 C :    0.614983    0.564999
   6 H :   -0.140270    0.013175
   7 H :   -0.212809    0.119464
   8 H :   -0.212067    0.118854
   9 O :    0.866097    0.004643
  10 H :   -0.133598    0.002282
  11 H :   -0.682985    0.002997
  12 O :    0.856238    0.002694
  13 H :   -0.137339    0.000183
  14 H :   -0.541382    0.000268
  15 N :    0.284569    0.000202
  16 H :   -0.141984   -0.000007
  17 C :   -0.031847   -0.000027
  18 N :    0.407198    0.000097
  19 C :   -0.298371    0.000024
  20 C :   -0.391439    0.000004
  21 N :    0.443573    0.000560
  22 C :   -0.123301    0.000032
  23 N :    0.402426    0.000062
  24 C :   -0.406187   -0.000024
  25 N :    0.877001   -0.000027
  26 H :   -0.282358   -0.000002
  27 H :   -0.282737   -0.000002
  28 H :   -0.186101   -0.000001
  29 H :   -0.156136   -0.000015

  Mayer bond orders larger than 0.100000
B(  0-O ,  1-C ) :   0.7438 B(  0-O ,  4-C ) :   0.5486 B(  0-O , 15-N ) :   0.1549
B(  1-C ,  2-C ) :   1.0322 B(  1-C ,  3-C ) :   0.1118 B(  1-C ,  5-C ) :   0.3452
B(  1-C ,  6-H ) :   0.8124 B(  1-C ,  9-O ) :   0.1429 B(  2-C ,  3-C ) :   1.1379
B(  2-C ,  5-C ) :   0.1368 B(  2-C ,  9-O ) :   0.3391 B(  2-C , 10-H ) :   0.8273
B(  2-C , 11-H ) :   0.1009 B(  2-C , 12-O ) :   0.1386 B(  3-C ,  4-C ) :   0.9944
B(  3-C , 12-O ) :   0.1965 B(  3-C , 13-H ) :   0.8640 B(  4-C , 12-O ) :   0.1267
B(  4-C , 15-N ) :   0.8961 B(  4-C , 16-H ) :   0.7539 B(  4-C , 17-C ) :  -0.1529
B(  4-C , 20-C ) :  -0.2118 B(  5-C ,  6-H ) :  -0.1267 B(  5-C ,  7-H ) :   1.0567
B(  5-C ,  8-H ) :   0.7390 B(  9-O , 10-H ) :  -0.1189 B(  9-O , 11-H ) :   0.5317
B(  9-O , 21-N ) :  -0.1187 B( 12-O , 14-H ) :   0.9328 B( 15-N , 17-C ) :   1.4119
B( 15-N , 18-N ) :  -0.1877 B( 15-N , 20-C ) :   0.5907 B( 15-N , 21-N ) :  -0.4359
B( 17-C , 18-N ) :   1.3594 B( 17-C , 20-C ) :  -0.7409 B( 17-C , 21-N ) :  -0.1356
B( 17-C , 29-H ) :   0.3735 B( 18-N , 19-C ) :  -0.5171 B( 18-N , 20-C ) :   0.7546
B( 18-N , 24-C ) :   0.1343 B( 18-N , 29-H ) :  -0.1419 B( 19-C , 20-C ) :   0.5828
B( 19-C , 21-N ) :  -0.4814 B( 19-C , 23-N ) :   0.1247 B( 19-C , 24-C ) :  -1.6204
B( 19-C , 25-N ) :  -0.2677 B( 20-C , 21-N ) :   1.1278 B( 20-C , 22-C ) :  -0.5409
B( 20-C , 23-N ) :   0.1018 B( 20-C , 24-C ) :   1.6369 B( 21-N , 22-C ) :   1.7571
B( 21-N , 24-C ) :   0.3872 B( 22-C , 23-N ) :   1.0591 B( 22-C , 24-C ) :  -0.3209
B( 22-C , 28-H ) :   0.4865 B( 23-N , 24-C ) :   0.2967 B( 23-N , 25-N ) :  -0.2450
B( 24-C , 25-N ) :   1.0638 B( 25-N , 26-H ) :   1.1691 B( 25-N , 27-H ) :   1.1092

MP2 TOTAL ENERGY:     -886.129113441 Eh
FINAL SINGLE POINT ENERGY      -886.129113441417

DIPOLE MOMENT
-------------
                                X             Y             Z
Electronic contribution:      8.21045       2.08186       0.20522
Nuclear contribution   :     -8.44256      -1.51320      -0.60466
                        -----------------------------------------
Total Dipole Moment    :     -0.23211       0.56866      -0.39944
                        -----------------------------------------
Magnitude (a.u.)       :      0.73267
Magnitude (Debye)      :      1.86231

Rotational constants in cm-1:     0.027797     0.010957     0.009685
Rotational constants in MHz :   833.340817   328.474041   290.341134

                             ****ORCA TERMINATED NORMALLY****
TOTAL RUN TIME: 0 days 0 hours 39 minutes 3 seconds 0 msec
