                         Program Version 4.2.1 -  RELEASE  -
|  1> %pal
|  2>  nprocs 32
|  3> end
|  4> !RI-MP2 aug-cc-pVTZ aug-cc-pVTZ/C TightSCF
|  5> %maxcore 4500
|  6> *xyzfile 0 2  01_27P.xyz
|  7>
|  8>
|  9>                          ****END OF INPUT****

CARTESIAN COORDINATES (ANGSTROEM)
---------------------------------
  C      0.041261   -0.194698    0.578741
  C     -0.133108    1.272496    0.978692
  C     -1.059886    1.884148   -0.080339
  H      0.811322    1.806531    1.089211
  H     -0.618008    1.288399    1.960790
  C     -1.896109    0.704195   -0.625885
  H     -0.473406    2.331289   -0.883640
  H     -1.681344    2.674406    0.343293
  C     -1.407952   -0.553383    0.118568
  H     -1.735045    0.584453   -1.698350
  H     -2.967509    0.846401   -0.476927
  C     -1.564762   -1.822846   -0.629641
  S      1.120252   -0.381627   -0.912289
  C      0.534313   -1.081715    1.710406
  H      1.533227   -0.791628    2.041902
  H      0.573600   -2.126102    1.398825
  H     -0.135387   -0.998631    2.571822
  C      2.644614    0.445526   -0.391838
  H      2.511795    1.521218   -0.282377
  H      3.370162    0.267609   -1.185001
  H      3.038919    0.023929    0.532336
  H     -1.553913   -2.776240   -0.117458
  H     -1.584217   -1.829007   -1.711858
  H     -1.964458   -0.638937    1.061827

 Total Charge           Charge          ....    0
 Multiplicity           Mult            ....    2
 Number of Electrons    NEL             ....   79
 Basis Dimension        Dim             ....  763

ORBITAL ENERGIES
----------------
                 SPIN UP ORBITALS
  NO   OCC          E(Eh)            E(eV)
   0   1.0000     -91.934169     -2501.6559
   1   1.0000     -11.262860      -306.4780
   2   1.0000     -11.246022      -306.0198
   3   1.0000     -11.229843      -305.5796
   4   1.0000     -11.226064      -305.4767
   5   1.0000     -11.220421      -305.3232
   6   1.0000     -11.216621      -305.2198
   7   1.0000     -11.214418      -305.1598
   8   1.0000     -11.213670      -305.1395
   9   1.0000      -8.934641      -243.1239
  10   1.0000      -6.615853      -180.0265
  11   1.0000      -6.614851      -179.9993
  12   1.0000      -6.614053      -179.9775
  13   1.0000      -1.152080       -31.3497
  14   1.0000      -1.040358       -28.3096
  15   1.0000      -1.018008       -27.7014
  16   1.0000      -0.994215       -27.0540
  17   1.0000      -0.913533       -24.8585
  18   1.0000      -0.881399       -23.9841
  19   1.0000      -0.846549       -23.0358
  20   1.0000      -0.773435       -21.0462
  21   1.0000      -0.710922       -19.3452
  22   1.0000      -0.648643       -17.6505
  23   1.0000      -0.634661       -17.2700
  24   1.0000      -0.605911       -16.4877
  25   1.0000      -0.601771       -16.3750
  26   1.0000      -0.587182       -15.9780
  27   1.0000      -0.580593       -15.7987
  28   1.0000      -0.557689       -15.1755
  29   1.0000      -0.544373       -14.8131
  30   1.0000      -0.524675       -14.2771
  31   1.0000      -0.499109       -13.5815
  32   1.0000      -0.480133       -13.0651
  33   1.0000      -0.473150       -12.8751
  34   1.0000      -0.471453       -12.8289
  35   1.0000      -0.455658       -12.3991
  36   1.0000      -0.451027       -12.2731
  37   1.0000      -0.406758       -11.0685
  38   1.0000      -0.346873        -9.4389
  39   1.0000      -0.327998        -8.9253
  40   0.0000       0.029030         0.7900
  41   0.0000       0.033498         0.9115
  42   0.0000       0.034579         0.9409
  43   0.0000       0.037016         1.0073
  44   0.0000       0.049090         1.3358

                 SPIN DOWN ORBITALS
  NO   OCC          E(Eh)            E(eV)
   0   1.0000     -91.934142     -2501.6552
   1   1.0000     -11.260041      -306.4013
   2   1.0000     -11.246001      -306.0192
   3   1.0000     -11.233260      -305.6726
   4   1.0000     -11.220522      -305.3259
   5   1.0000     -11.216776      -305.2240
   6   1.0000     -11.214384      -305.1589
   7   1.0000     -11.213216      -305.1271
   8   1.0000     -11.202778      -304.8431
   9   1.0000      -8.934586      -243.1225
  10   1.0000      -6.615913      -180.0281
  11   1.0000      -6.614867      -179.9997
  12   1.0000      -6.613939      -179.9744
  13   1.0000      -1.146885       -31.2083
  14   1.0000      -1.038164       -28.2499
  15   1.0000      -0.997631       -27.1469
  16   1.0000      -0.989555       -26.9272
  17   1.0000      -0.904264       -24.6063
  18   1.0000      -0.861420       -23.4404
  19   1.0000      -0.825210       -22.4551
  20   1.0000      -0.765881       -20.8407
  21   1.0000      -0.703937       -19.1551
  22   1.0000      -0.645455       -17.5637
  23   1.0000      -0.631957       -17.1964
  24   1.0000      -0.601057       -16.3556
  25   1.0000      -0.597862       -16.2686
  26   1.0000      -0.582397       -15.8478
  27   1.0000      -0.577322       -15.7097
  28   1.0000      -0.556602       -15.1459
  29   1.0000      -0.539530       -14.6813
  30   1.0000      -0.521336       -14.1863
  31   1.0000      -0.490508       -13.3474
  32   1.0000      -0.478750       -13.0274
  33   1.0000      -0.471219       -12.8225
  34   1.0000      -0.467460       -12.7202
  35   1.0000      -0.451168       -12.2769
  36   1.0000      -0.438577       -11.9343
  37   1.0000      -0.404337       -11.0026
  38   1.0000      -0.331480        -9.0200
  39   0.0000       0.029040         0.7902
  40   0.0000       0.033555         0.9131
  41   0.0000       0.034700         0.9442
  42   0.0000       0.037080         1.0090
  43   0.0000       0.049197         1.3387

MULLIKEN ATOMIC CHARGES AND SPIN POPULATIONS
--------------------------------------------
   0 C :    1.570977    0.031682
   1 C :   -0.856601    0.005608
   2 C :   -0.592108   -0.001544
   3 H :    0.311460    0.004925
   4 H :    0.113515   -0.000392
   5 C :   -0.647932    0.037128
   6 H :    0.215199   -0.000676
   7 H :    0.361208    0.000378
   8 C :    0.344983   -0.223858
   9 H :    0.258773    0.004132
  10 H :    0.286768   -0.005619
  11 C :   -1.303007    1.266621
  12 S :   -0.466729    0.001161
  13 C :   -1.241613   -0.006654
  14 H :    0.302606    0.001155
  15 H :    0.272093    0.000823
  16 H :    0.237656   -0.000789
  17 C :   -1.001136   -0.000286
  18 H :    0.297988    0.001046
  19 H :    0.248211   -0.000428
  20 H :    0.304767    0.000020
  21 H :    0.306476   -0.073001
  22 H :    0.379895   -0.067368
  23 H :    0.296551    0.025938
Sum of atomic charges         :    0.0000000

LOEWDIN ATOMIC CHARGES AND SPIN POPULATIONS
-------------------------------------------
   0 C :   -0.604175    0.039313
   1 C :    0.242383    0.005425
   2 C :    0.307215    0.000868
   3 H :   -0.164483    0.001697
   4 H :   -0.139141    0.000193
   5 C :    0.294408    0.009689
   6 H :   -0.155246    0.000126
   7 H :   -0.145912   -0.000036
   8 C :   -0.132549    0.114443
   9 H :   -0.162609    0.000530
  10 H :   -0.140456    0.001135
  11 C :    0.578292    0.555817
  12 S :    1.284334    0.012560
  13 C :    0.526710    0.003833
  14 H :   -0.178561    0.000453
  15 H :   -0.171329    0.002247
  16 H :   -0.161038    0.000261
  17 C :    0.237225    0.002128
  18 H :   -0.247107    0.000694
  19 H :   -0.251813    0.000058
  20 H :   -0.243496    0.000082
  21 H :   -0.211489    0.117646
  22 H :   -0.217005    0.118452
  23 H :   -0.144159    0.012385

  Mayer bond orders larger than 0.100000
B(  0-C ,  1-C ) :   0.6485 B(  0-C ,  2-C ) :  -0.1138 B(  0-C ,  8-C ) :   0.8856
B(  0-C , 11-C ) :   0.2507 B(  0-C , 12-S ) :   0.2798 B(  0-C , 13-C ) :   0.3389
B(  0-C , 17-C ) :  -0.1692 B(  1-C ,  2-C ) :   1.0158 B(  1-C ,  3-H ) :   0.9308
B(  1-C ,  4-H ) :   1.1016 B(  1-C ,  5-C ) :   0.1725 B(  1-C ,  8-C ) :   0.1028
B(  2-C ,  5-C ) :   1.0661 B(  2-C ,  6-H ) :   1.0509 B(  2-C ,  7-H ) :   0.8380
B(  5-C ,  8-C ) :   0.8429 B(  5-C ,  9-H ) :   1.0327 B(  5-C , 10-H ) :   0.8994
B(  5-C , 12-S ) :  -0.1209 B(  8-C , 11-C ) :   0.3192 B(  8-C , 12-S ) :   0.2528
B(  8-C , 23-H ) :   0.9878 B( 11-C , 21-H ) :   0.9331 B( 11-C , 22-H ) :   0.9291
B( 12-S , 17-C ) :   0.9673 B( 13-C , 14-H ) :   1.0103 B( 13-C , 15-H ) :   1.0821
B( 13-C , 16-H ) :   1.0249 B( 17-C , 18-H ) :   0.9099 B( 17-C , 19-H ) :   1.0286
B( 17-C , 20-H ) :   0.9194

MP2 TOTAL ENERGY:     -710.847669705 Eh
FINAL SINGLE POINT ENERGY      -710.847669705214

DIPOLE MOMENT
-------------
                                X             Y             Z
Electronic contribution:      1.02949      -1.93472      -4.24739
Nuclear contribution   :     -0.94118       2.27362       4.83887
                        -----------------------------------------
Total Dipole Moment    :      0.08831       0.33890       0.59148
                        -----------------------------------------
Magnitude (a.u.)       :      0.68738
Magnitude (Debye)      :      1.74718

Rotational constants in cm-1:     0.058448     0.041216     0.036264
Rotational constants in MHz :  1752.225533  1235.631946  1087.169548

                             ****ORCA TERMINATED NORMALLY****
TOTAL RUN TIME: 0 days 0 hours 12 minutes 55 seconds 663 msec
