                         Program Version 4.2.1 -  RELEASE  -
|  1> %pal
|  2>  nprocs 32
|  3> end
|  4> !RI-MP2 aug-cc-pVTZ aug-cc-pVTZ/C TightSCF
|  5> %maxcore 4500
|  6> *xyzfile 0 1  02_44R2.xyz
|  7>
|  8>
|  9>                          ****END OF INPUT****

CARTESIAN COORDINATES (ANGSTROEM)
---------------------------------
  C     -0.995802   -0.640239    0.090876
  C      1.192541   -0.121514    0.011752
  C      0.615914    1.070883    0.053622
  C     -0.877300    0.884390   -0.077330
  H     -1.322294   -0.907241    1.099331
  H     -1.236055    1.223644   -1.054652
  H     -1.449657    1.417588    0.683890
  H     -1.647859   -1.121694   -0.635528
  O      0.334476   -1.175157   -0.087628
  H      2.238616   -0.389801    0.027465
  H      1.129317    2.017636    0.107001

 Total Charge           Charge          ....    0
 Multiplicity           Mult            ....    1
 Number of Electrons    NEL             ....   38
 Basis Dimension        Dim             ....  368

ORBITAL ENERGIES
----------------

  NO   OCC          E(Eh)            E(eV)
   0   2.0000     -20.573034      -559.8207
   1   2.0000     -11.282858      -307.0222
   2   2.0000     -11.281694      -306.9905
   3   2.0000     -11.233973      -305.6920
   4   2.0000     -11.215249      -305.1824
   5   2.0000      -1.404355       -38.2144
   6   2.0000      -1.066346       -29.0167
   7   2.0000      -0.999016       -27.1846
   8   2.0000      -0.829054       -22.5597
   9   2.0000      -0.769110       -20.9285
  10   2.0000      -0.705688       -19.2028
  11   2.0000      -0.669034       -18.2053
  12   2.0000      -0.592715       -16.1286
  13   2.0000      -0.554799       -15.0969
  14   2.0000      -0.541523       -14.7356
  15   2.0000      -0.523966       -14.2578
  16   2.0000      -0.497211       -13.5298
  17   2.0000      -0.491438       -13.3727
  18   2.0000      -0.326410        -8.8821
  19   0.0000       0.029964         0.8154
  20   0.0000       0.037612         1.0235
  21   0.0000       0.040105         1.0913
  22   0.0000       0.042479         1.1559
  23   0.0000       0.054364         1.4793

MULLIKEN ATOMIC CHARGES
-----------------------
   0 C :   -0.289277
   1 C :   -0.644270
   2 C :   -0.508706
   3 C :   -0.324435
   4 H :    0.275234
   5 H :    0.275390
   6 H :    0.301976
   7 H :    0.324276
   8 O :   -0.519236
   9 H :    0.712374
  10 H :    0.396674
Sum of atomic charges:    0.0000000

LOEWDIN ATOMIC CHARGES
----------------------
   0 C :    0.075734
   1 C :   -0.067098
   2 C :    0.208531
   3 C :    0.254758
   4 H :   -0.155097
   5 H :   -0.156929
   6 H :   -0.160130
   7 H :   -0.158622
   8 O :    0.544623
   9 H :   -0.186966
  10 H :   -0.198804

  Mayer bond orders larger than 0.100000
B(  0-C ,  3-C ) :   1.0241 B(  0-C ,  4-H ) :   0.9545 B(  0-C ,  7-H ) :   0.9034
B(  0-C ,  8-O ) :   0.7341 B(  1-C ,  2-C ) :   1.4767 B(  1-C ,  8-O ) :   1.0792
B(  1-C ,  9-H ) :   0.3859 B(  2-C ,  3-C ) :   0.8375 B(  2-C ,  8-O ) :  -0.1307
B(  2-C , 10-H ) :   0.9013 B(  3-C ,  5-H ) :   0.9141 B(  3-C ,  6-H ) :   0.9344

MP2 TOTAL ENERGY:     -230.779710798 Eh
FINAL SINGLE POINT ENERGY      -230.779710797526

DIPOLE MOMENT
-------------
                                X             Y             Z
Electronic contribution:      2.03428      -1.82936      -0.18010
Nuclear contribution   :     -2.32421       2.26204       0.23024
                        -----------------------------------------
Total Dipole Moment    :     -0.28993       0.43269       0.05014
                        -----------------------------------------
Magnitude (a.u.)       :      0.52325
Magnitude (Debye)      :      1.33000

Rotational constants in cm-1:     0.271223     0.262785     0.141435
Rotational constants in MHz :  8131.057038  7878.108454  4240.101883

                             ****ORCA TERMINATED NORMALLY****
TOTAL RUN TIME: 0 days 0 hours 0 minutes 43 seconds 286 msec
