                         Program Version 4.2.1 -  RELEASE  -
|  1> %pal
|  2>  nprocs 32
|  3> end
|  4> !RI-MP2 aug-cc-pVTZ aug-cc-pVTZ/C TightSCF
|  5> %maxcore 4500
|  6> *xyzfile 0 1  09_3R1.xyz
|  7>
|  8>
|  9>                          ****END OF INPUT****

CARTESIAN COORDINATES (ANGSTROEM)
---------------------------------
  C      1.415908    0.000000    0.000000
  C      0.219363    0.000004   -0.000005
  C     -1.236411   -0.000001    0.000002
  H     -1.623862    0.872272    0.529665
  H     -1.623864    0.022561   -1.020240
  H     -1.623856   -0.894841    0.490583
  H      2.478421   -0.000009    0.000011

 Total Charge           Charge          ....    0
 Multiplicity           Mult            ....    1
 Number of Electrons    NEL             ....   22
 Basis Dimension        Dim             ....  230

ORBITAL ENERGIES
----------------

  NO   OCC          E(Eh)            E(eV)
   0   2.0000     -11.250142      -306.1319
   1   2.0000     -11.233293      -305.6734
   2   2.0000     -11.217001      -305.2301
   3   2.0000      -1.059218       -28.8228
   4   2.0000      -0.959373       -26.1059
   5   2.0000      -0.717808       -19.5325
   6   2.0000      -0.623586       -16.9686
   7   2.0000      -0.592278       -16.1167
   8   2.0000      -0.592278       -16.1167
   9   2.0000      -0.386230       -10.5099
  10   2.0000      -0.386230       -10.5099
  11   0.0000       0.029130         0.7927
  12   0.0000       0.034366         0.9352
  13   0.0000       0.048301         1.3143
  14   0.0000       0.048301         1.3143
  15   0.0000       0.077273         2.1027

MULLIKEN ATOMIC CHARGES
-----------------------
   0 C :   -1.430492
   1 C :    0.823761
   2 C :   -0.865537
   3 H :    0.311179
   4 H :    0.311177
   5 H :    0.311180
   6 H :    0.538732
Sum of atomic charges:   -0.0000000

LOEWDIN ATOMIC CHARGES
----------------------
   0 C :    0.371474
   1 C :   -0.005929
   2 C :    0.501834
   3 H :   -0.186362
   4 H :   -0.186362
   5 H :   -0.186361
   6 H :   -0.308294

  Mayer bond orders larger than 0.100000
B(  0-C ,  1-C ) :   1.1264 B(  0-C ,  6-H ) :   0.7778 B(  1-C ,  2-C ) :   1.1018
B(  2-C ,  3-H ) :   0.9164 B(  2-C ,  4-H ) :   0.9164 B(  2-C ,  5-H ) :   0.9164

MP2 TOTAL ENERGY:     -116.397286404 Eh
FINAL SINGLE POINT ENERGY      -116.397286404255

DIPOLE MOMENT
-------------
                                X             Y             Z
Electronic contribution:      2.15932       0.00001      -0.00001
Nuclear contribution   :     -2.46798      -0.00002       0.00002
                        -----------------------------------------
Total Dipole Moment    :     -0.30866      -0.00001       0.00001
                        -----------------------------------------
Magnitude (a.u.)       :      0.30866
Magnitude (Debye)      :      0.78455

Rotational constants in cm-1:     5.352979     0.287584     0.287584
Rotational constants in MHz : 160478.282957  8621.558559  8621.558286

                             ****ORCA TERMINATED NORMALLY****
TOTAL RUN TIME: 0 days 0 hours 0 minutes 13 seconds 808 msec
