                         Program Version 4.2.1 -  RELEASE  -
|  1> %pal
|  2>  nprocs 32
|  3> end
|  4> !RI-MP2 aug-cc-pVTZ aug-cc-pVTZ/C TightSCF
|  5> %maxcore 4500
|  6> *xyzfile 0 1  06_18R1.xyz
|  7>
|  8>
|  9>                          ****END OF INPUT****

CARTESIAN COORDINATES (ANGSTROEM)
---------------------------------
  C     -2.737445    1.214736    0.227099
  C     -1.566251    0.493464    0.037768
  C     -1.607197   -0.889454   -0.153689
  C     -2.808277   -1.565177   -0.140679
  C     -3.991606   -0.852070    0.057331
  C     -3.946652    0.522596    0.237943
  H     -2.724240    2.288337    0.363080
  H     -2.836019   -2.639092   -0.289665
  H     -4.942712   -1.369477    0.063225
  H     -4.868104    1.074130    0.383364
  C     -0.196327   -1.390324   -0.308317
  C      0.594459   -0.090045   -0.587987
  H      0.615802    0.063529   -1.682097
  N     -0.250476    0.966023    0.014567
  H     -0.075991   -2.120399   -1.109111
  C     -0.027275    2.317671   -0.445304
  H     -0.312634    2.448050   -1.501344
  H     -0.602095    3.020759    0.157242
  H      1.023712    2.578258   -0.339843
  Si     2.371169   -0.175179    0.088190
  C      2.298753   -0.263458    1.958171
  H      1.758804    0.597111    2.359209
  H      1.785418   -1.163347    2.304083
  H      3.302548   -0.267597    2.390637
  C      3.413207    1.300373   -0.436157
  H      4.469983    1.094082   -0.245610
  H      3.308252    1.512375   -1.503232
  H      3.157417    2.207667    0.114697
  C      3.145661   -1.730644   -0.627508
  H      3.162316   -1.699703   -1.720302
  H      4.178072   -1.843326   -0.286849
  H      2.599807   -2.628395   -0.328547
  H      0.130338   -1.868617    0.622411

 Total Charge           Charge          ....    0
 Multiplicity           Mult            ....    1
 Number of Electrons    NEL             ....  112
 Basis Dimension        Dim             .... 1085

ORBITAL ENERGIES
----------------

  NO   OCC          E(Eh)            E(eV)
   0   2.0000     -68.750791     -1870.8041
   1   2.0000     -15.561598      -423.4526
   2   2.0000     -11.258174      -306.3505
   3   2.0000     -11.250150      -306.1321
   4   2.0000     -11.240613      -305.8726
   5   2.0000     -11.230924      -305.6090
   6   2.0000     -11.227585      -305.5181
   7   2.0000     -11.226787      -305.4964
   8   2.0000     -11.220309      -305.3201
   9   2.0000     -11.219430      -305.2962
  10   2.0000     -11.215617      -305.1925
  11   2.0000     -11.199928      -304.7655
  12   2.0000     -11.198138      -304.7168
  13   2.0000     -11.193990      -304.6040
  14   2.0000      -6.098853      -165.9582
  15   2.0000      -4.205058      -114.4254
  16   2.0000      -4.204978      -114.4233
  17   2.0000      -4.204922      -114.4217
  18   2.0000      -1.263177       -34.3728
  19   2.0000      -1.133217       -30.8364
  20   2.0000      -1.059734       -28.8368
  21   2.0000      -1.002729       -27.2856
  22   2.0000      -0.983395       -26.7595
  23   2.0000      -0.957570       -26.0568
  24   2.0000      -0.925328       -25.1795
  25   2.0000      -0.923384       -25.1265
  26   2.0000      -0.917766       -24.9737
  27   2.0000      -0.835404       -22.7325
  28   2.0000      -0.797006       -21.6876
  29   2.0000      -0.780324       -21.2337
  30   2.0000      -0.687643       -18.7117
  31   2.0000      -0.663306       -18.0495
  32   2.0000      -0.652362       -17.7517
  33   2.0000      -0.635037       -17.2802
  34   2.0000      -0.606169       -16.4947
  35   2.0000      -0.599390       -16.3102
  36   2.0000      -0.588671       -16.0185
  37   2.0000      -0.574321       -15.6281
  38   2.0000      -0.567528       -15.4432
  39   2.0000      -0.562635       -15.3101
  40   2.0000      -0.553221       -15.0539
  41   2.0000      -0.551980       -15.0201
  42   2.0000      -0.540728       -14.7140
  43   2.0000      -0.539180       -14.6718
  44   2.0000      -0.532285       -14.4842
  45   2.0000      -0.520115       -14.1530
  46   2.0000      -0.514219       -13.9926
  47   2.0000      -0.493398       -13.4260
  48   2.0000      -0.488632       -13.2964
  49   2.0000      -0.474331       -12.9072
  50   2.0000      -0.440580       -11.9888
  51   2.0000      -0.429678       -11.6921
  52   2.0000      -0.428354       -11.6561
  53   2.0000      -0.386112       -10.5066
  54   2.0000      -0.328185        -8.9304
  55   2.0000      -0.278910        -7.5895
  56   0.0000       0.023592         0.6420
  57   0.0000       0.029600         0.8055
  58   0.0000       0.030194         0.8216
  59   0.0000       0.034005         0.9253
  60   0.0000       0.040832         1.1111

MULLIKEN ATOMIC CHARGES
-----------------------
   0 C :   -0.930886
   1 C :    0.481660
   2 C :    1.135508
   3 C :   -1.093180
   4 C :   -0.454742
   5 C :   -0.329543
   6 H :    0.350132
   7 H :    0.066681
   8 H :    0.627830
   9 H :    0.360290
  10 C :   -0.657550
  11 C :    0.127608
  12 H :    0.401464
  13 N :   -0.215537
  14 H :    0.152551
  15 C :   -1.331271
  16 H :    0.294299
  17 H :    0.322545
  18 H :    0.445243
  19 Si:    2.125190
  20 C :   -1.274148
  21 H :    0.337495
  22 H :    0.249329
  23 H :    0.163375
  24 C :   -1.527549
  25 H :    0.078182
  26 H :    0.254211
  27 H :    0.259568
  28 C :   -1.434396
  29 H :    0.251196
  30 H :    0.194819
  31 H :    0.284378
  32 H :    0.285251
Sum of atomic charges:    0.0000000

LOEWDIN ATOMIC CHARGES
----------------------
   0 C :    0.240646
   1 C :   -0.224255
   2 C :   -0.079959
   3 C :    0.227730
   4 C :    0.186820
   5 C :    0.185799
   6 H :   -0.191045
   7 H :   -0.172134
   8 H :   -0.194003
   9 H :   -0.184470
  10 C :    0.269191
  11 C :   -0.072798
  12 H :   -0.163924
  13 N :    0.246135
  14 H :   -0.136122
  15 C :    0.474586
  16 H :   -0.136317
  17 H :   -0.169225
  18 H :   -0.197267
  19 Si:    0.530425
  20 C :    0.592908
  21 H :   -0.223617
  22 H :   -0.229105
  23 H :   -0.226578
  24 C :    0.584393
  25 H :   -0.226884
  26 H :   -0.221989
  27 H :   -0.240971
  28 C :    0.586420
  29 H :   -0.223165
  30 H :   -0.227759
  31 H :   -0.229642
  32 H :   -0.153823

  Mayer bond orders larger than 0.100000
B(  0-C ,  1-C ) :   0.5282 B(  0-C ,  3-C ) :   0.1781 B(  0-C ,  4-C ) :   0.3009
B(  0-C ,  5-C ) :   1.1872 B(  0-C ,  6-H ) :   0.9366 B(  0-C ,  9-H ) :  -0.1511
B(  0-C , 11-C ) :   0.2399 B(  0-C , 13-N ) :  -0.3186 B(  1-C ,  2-C ) :   0.5471
B(  1-C ,  5-C ) :  -0.4088 B(  1-C ,  6-H ) :  -0.1269 B(  1-C ,  7-H ) :   0.4257
B(  1-C ,  9-H ) :   0.1022 B(  1-C , 13-N ) :   0.5801 B(  1-C , 15-C ) :  -0.1739
B(  2-C ,  4-C ) :   0.2991 B(  2-C ,  5-C ) :   0.1734 B(  2-C ,  7-H ) :  -0.3938
B(  2-C , 10-C ) :   0.4601 B(  2-C , 11-C ) :   0.1982 B(  2-C , 13-N ) :  -0.2774
B(  3-C ,  4-C ) :   1.0268 B(  3-C ,  5-C ) :  -0.3176 B(  3-C ,  7-H ) :   1.6405
B(  3-C ,  8-H ) :  -0.1121 B(  3-C ,  9-H ) :   0.1069 B(  3-C , 10-C ) :   0.2390
B(  3-C , 11-C ) :  -0.1027 B(  4-C ,  5-C ) :   1.1102 B(  4-C ,  7-H ) :  -0.1738
B(  4-C ,  8-H ) :   0.5268 B(  4-C ,  9-H ) :  -0.2361 B(  5-C ,  9-H ) :   0.8891
B(  6-H , 13-N ) :   0.1190 B( 10-C , 11-C ) :   0.8984 B( 10-C , 13-N ) :   0.1521
B( 10-C , 14-H ) :   1.1440 B( 10-C , 19-Si) :   0.1118 B( 10-C , 32-H ) :   1.0156
B( 11-C , 12-H ) :   0.7204 B( 11-C , 13-N ) :   1.0683 B( 11-C , 19-Si) :   1.0502
B( 11-C , 20-C ) :   0.1812 B( 13-N , 15-C ) :   1.1793 B( 13-N , 19-Si) :   0.1897
B( 13-N , 28-C ) :   0.1087 B( 15-C , 16-H ) :   0.9404 B( 15-C , 17-H ) :   0.9824
B( 15-C , 18-H ) :   0.7992 B( 19-Si, 20-C ) :   0.3280 B( 19-Si, 25-H ) :  -0.1011
B( 19-Si, 28-C ) :   0.3469 B( 20-C , 21-H ) :   0.9172 B( 20-C , 22-H ) :   1.0183
B( 20-C , 23-H ) :   1.0918 B( 20-C , 24-C ) :   0.1922 B( 20-C , 28-C ) :   0.1723
B( 24-C , 25-H ) :   1.2180 B( 24-C , 26-H ) :   1.0119 B( 24-C , 27-H ) :   1.0054
B( 24-C , 28-C ) :   0.2215 B( 28-C , 29-H ) :   0.9924 B( 28-C , 30-H ) :   1.0801
B( 28-C , 31-H ) :   0.9610

MP2 TOTAL ENERGY:     -811.445118914 Eh
FINAL SINGLE POINT ENERGY      -811.445118913573

DIPOLE MOMENT
-------------
                                X             Y             Z
Electronic contribution:    -12.75343      -1.24463       0.03023
Nuclear contribution   :     13.29931       1.33211      -0.26006
                        -----------------------------------------
Total Dipole Moment    :      0.54588       0.08747      -0.22983
                        -----------------------------------------
Magnitude (a.u.)       :      0.59871
Magnitude (Debye)      :      1.52180

Rotational constants in cm-1:     0.043040     0.012395     0.010758
Rotational constants in MHz :  1290.300935   371.591222   322.512479

                             ****ORCA TERMINATED NORMALLY****
TOTAL RUN TIME: 0 days 0 hours 24 minutes 40 seconds 661 msec
