                         Program Version 4.2.1 -  RELEASE  -
|  1> %pal
|  2>  nprocs 32
|  3> end
|  4> !RI-MP2 aug-cc-pVTZ aug-cc-pVTZ/C TightSCF
|  5> %maxcore 4500
|  6> *xyzfile 1 1  10_27TS.xyz
|  7>
|  8>
|  9>                          ****END OF INPUT****

CARTESIAN COORDINATES (ANGSTROEM)
---------------------------------
  C      1.013015    3.271492   -0.750053
  C      0.003854    2.112874   -0.878749
  C      0.840261    1.792376    1.142193
  C      1.570002    3.073142    0.691868
  H      1.789118    3.221963   -1.515208
  H      0.505699    4.229659   -0.862455
  H      2.651813    2.954447    0.721597
  H      1.302397    3.903587    1.345741
  C     -0.550073    2.005439    0.541994
  H     -1.237923    1.181229    0.692348
  H     -1.001175    2.937288    0.878194
  H     -0.709323    2.174758   -1.696214
  H      0.924958    1.524645    2.191709
  N      1.381230    0.724388    0.277199
  N      0.754694    0.832976   -0.960336
  C     -0.244373   -1.498804   -0.626413
  C     -1.584990   -1.088435   -0.268007
  C     -2.081033   -1.188572    1.038803
  C     -2.431859   -0.594739   -1.270310
  C     -3.370485   -0.782730    1.334245
  H     -1.466722   -1.602054    1.827852
  C     -3.718833   -0.187462   -0.973736
  H     -2.064267   -0.528741   -2.288171
  C     -4.189465   -0.276064    0.332047
  H     -3.745265   -0.872442    2.345966
  H     -4.361953    0.191675   -1.757817
  H     -5.199850    0.035824    0.565423
  H     -0.067455   -1.624692   -1.688986
  C      1.956596   -0.444817    0.616559
  H      2.122332   -0.499333    1.690935
  C      0.750831   -1.940025    0.247784
  H      0.430789   -2.105816    1.272422
  H      1.424241    0.814194   -1.725567
  C      3.130040   -0.982231   -0.181170
  H      4.034484   -0.468850    0.154735
  H      3.001918   -0.768487   -1.246110
  C      1.760556   -2.952891   -0.282844
  H      1.548951   -3.941494    0.126915
  H      1.652595   -3.031944   -1.367584
  C      3.173863   -2.479366    0.049842
  H      3.418663   -2.689250    1.095347
  H      3.927070   -2.972826   -0.563428

 Total Charge           Charge          ....    1
 Multiplicity           Mult            ....    1
 Number of Electrons    NEL             ....  138
 Basis Dimension        Dim             .... 1403

ORBITAL ENERGIES
----------------

  NO   OCC          E(Eh)            E(eV)
   0   2.0000     -15.743753      -428.4093
   1   2.0000     -15.738063      -428.2545
   2   2.0000     -11.450494      -311.5838
   3   2.0000     -11.429810      -311.0209
   4   2.0000     -11.400335      -310.2189
   5   2.0000     -11.392185      -309.9971
   6   2.0000     -11.371691      -309.4395
   7   2.0000     -11.369130      -309.3697
   8   2.0000     -11.368731      -309.3589
   9   2.0000     -11.365356      -309.2671
  10   2.0000     -11.364599      -309.2465
  11   2.0000     -11.360407      -309.1324
  12   2.0000     -11.354481      -308.9711
  13   2.0000     -11.354387      -308.9686
  14   2.0000     -11.349772      -308.8430
  15   2.0000     -11.344098      -308.6886
  16   2.0000     -11.342512      -308.6454
  17   2.0000     -11.341814      -308.6264
  18   2.0000     -11.341789      -308.6258
  19   2.0000      -1.496294       -40.7162
  20   2.0000      -1.298502       -35.3340
  21   2.0000      -1.289821       -35.0978
  22   2.0000      -1.238331       -33.6967
  23   2.0000      -1.237002       -33.6605
  24   2.0000      -1.197052       -32.5734
  25   2.0000      -1.146931       -31.2096
  26   2.0000      -1.132508       -30.8171
  27   2.0000      -1.105675       -30.0870
  28   2.0000      -1.088551       -29.6210
  29   2.0000      -1.046264       -28.4703
  30   2.0000      -0.998742       -27.1772
  31   2.0000      -0.962797       -26.1990
  32   2.0000      -0.947827       -25.7917
  33   2.0000      -0.941604       -25.6224
  34   2.0000      -0.921136       -25.0654
  35   2.0000      -0.899524       -24.4773
  36   2.0000      -0.892705       -24.2917
  37   2.0000      -0.847516       -23.0621
  38   2.0000      -0.832941       -22.6655
  39   2.0000      -0.811033       -22.0693
  40   2.0000      -0.797164       -21.6919
  41   2.0000      -0.779951       -21.2236
  42   2.0000      -0.769837       -20.9483
  43   2.0000      -0.763910       -20.7871
  44   2.0000      -0.751320       -20.4445
  45   2.0000      -0.731298       -19.8996
  46   2.0000      -0.727266       -19.7899
  47   2.0000      -0.715744       -19.4764
  48   2.0000      -0.711600       -19.3636
  49   2.0000      -0.694258       -18.8917
  50   2.0000      -0.682917       -18.5831
  51   2.0000      -0.675107       -18.3706
  52   2.0000      -0.657922       -17.9030
  53   2.0000      -0.648928       -17.6582
  54   2.0000      -0.645653       -17.5691
  55   2.0000      -0.641828       -17.4650
  56   2.0000      -0.633745       -17.2451
  57   2.0000      -0.620306       -16.8794
  58   2.0000      -0.613680       -16.6991
  59   2.0000      -0.611631       -16.6433
  60   2.0000      -0.608434       -16.5563
  61   2.0000      -0.602917       -16.4062
  62   2.0000      -0.599263       -16.3068
  63   2.0000      -0.592210       -16.1149
  64   2.0000      -0.581006       -15.8100
  65   2.0000      -0.524831       -14.2814
  66   2.0000      -0.498425       -13.5628
  67   2.0000      -0.464939       -12.6516
  68   2.0000      -0.422142       -11.4871
  69   0.0000      -0.100270        -2.7285
  70   0.0000      -0.061986        -1.6867
  71   0.0000      -0.058250        -1.5851
  72   0.0000      -0.049694        -1.3523
  73   0.0000      -0.047749        -1.2993

MULLIKEN ATOMIC CHARGES
-----------------------
   0 C :   -0.771876
   1 C :   -0.257518
   2 C :   -0.477936
   3 C :   -0.703065
   4 H :    0.210093
   5 H :    0.269500
   6 H :    0.289530
   7 H :    0.257668
   8 C :   -0.800893
   9 H :    0.445148
  10 H :    0.433493
  11 H :    0.589786
  12 H :    0.415412
  13 N :    0.159078
  14 N :   -0.101571
  15 C :   -0.271480
  16 C :    1.624999
  17 C :   -0.633243
  18 C :   -0.791113
  19 C :   -0.581290
  20 H :    0.047181
  21 C :   -0.612947
  22 H :    0.158872
  23 C :   -0.210213
  24 H :    0.446928
  25 H :    0.557857
  26 H :    0.553528
  27 H :    0.076210
  28 C :    0.460070
  29 H :    0.605505
  30 C :    0.075869
  31 H :    0.531805
  32 H :   -0.235237
  33 C :   -0.776489
  34 H :    0.361931
  35 H :    0.148480
  36 C :   -0.853292
  37 H :    0.376712
  38 H :    0.117834
  39 C :   -0.656014
  40 H :    0.101194
  41 H :    0.419493
Sum of atomic charges:    1.0000000

LOEWDIN ATOMIC CHARGES
----------------------
   0 C :    0.366008
   1 C :   -0.036730
   2 C :   -0.012176
   3 C :    0.362361
   4 H :   -0.136566
   5 H :   -0.131915
   6 H :   -0.135661
   7 H :   -0.132451
   8 C :    0.361047
   9 H :   -0.193855
  10 H :   -0.109639
  11 H :   -0.103776
  12 H :   -0.100078
  13 N :    0.198854
  14 N :    0.537633
  15 C :    0.282522
  16 C :   -0.116007
  17 C :    0.232944
  18 C :    0.228833
  19 C :    0.238953
  20 H :   -0.173494
  21 C :    0.237493
  22 H :   -0.155648
  23 C :    0.239361
  24 H :   -0.167125
  25 H :   -0.167979
  26 H :   -0.160341
  27 H :   -0.139713
  28 C :    0.090769
  29 H :   -0.111418
  30 C :    0.164464
  31 H :   -0.171763
  32 H :   -0.257451
  33 C :    0.316918
  34 H :   -0.117229
  35 H :   -0.132850
  36 C :    0.313158
  37 H :   -0.125308
  38 H :   -0.144890
  39 C :    0.315350
  40 H :   -0.127809
  41 H :   -0.124798

  Mayer bond orders larger than 0.100000
B(  0-C ,  1-C ) :   0.9238 B(  0-C ,  3-C ) :   1.2215 B(  0-C ,  4-H ) :   1.0367
B(  0-C ,  5-H ) :   0.9778 B(  0-C , 11-H ) :  -0.1081 B(  0-C , 13-N ) :  -0.1024
B(  1-C ,  8-C ) :   1.0077 B(  1-C , 11-H ) :   0.6116 B(  1-C , 14-N ) :   1.1958
B(  2-C ,  3-C ) :   0.9785 B(  2-C ,  8-C ) :   1.0655 B(  2-C , 12-H ) :   0.7999
B(  2-C , 13-N ) :   0.9944 B(  2-C , 28-C ) :  -0.1267 B(  3-C ,  6-H ) :   0.9517
B(  3-C ,  7-H ) :   0.9834 B(  3-C , 13-N ) :  -0.1844 B(  8-C ,  9-H ) :   0.8677
B(  8-C , 10-H ) :   0.8458 B(  8-C , 13-N ) :  -0.1331 B( 13-N , 14-N ) :   0.3846
B( 13-N , 28-C ) :   1.2106 B( 13-N , 29-H ) :  -0.1188 B( 13-N , 33-C ) :   0.2350
B( 14-N , 16-C ) :   0.1793 B( 14-N , 28-C ) :   0.1062 B( 14-N , 32-H ) :   1.0788
B( 14-N , 33-C ) :  -0.1138 B( 15-C , 17-C ) :   0.1074 B( 15-C , 18-C ) :   0.1682
B( 15-C , 21-C ) :   0.1793 B( 15-C , 22-H ) :  -0.3566 B( 15-C , 27-H ) :   1.3423
B( 15-C , 28-C ) :   0.1714 B( 15-C , 30-C ) :   1.2414 B( 16-C , 17-C ) :   0.5456
B( 16-C , 18-C ) :   0.5875 B( 16-C , 19-C ) :   0.1599 B( 16-C , 20-H ) :  -0.2553
B( 16-C , 21-C ) :   0.1717 B( 16-C , 27-H ) :  -0.3300 B( 16-C , 30-C ) :   0.1423
B( 17-C , 18-C ) :  -0.1240 B( 17-C , 19-C ) :   1.2916 B( 17-C , 20-H ) :   1.5546
B( 17-C , 22-H ) :   0.1678 B( 17-C , 23-C ) :   0.1460 B( 17-C , 30-C ) :  -0.1950
B( 17-C , 31-H ) :  -0.1005 B( 18-C , 21-C ) :   1.3931 B( 18-C , 22-H ) :   1.2810
B( 18-C , 23-C ) :   0.1682 B( 19-C , 20-H ) :  -0.1844 B( 19-C , 23-C ) :   1.0548
B( 19-C , 24-H ) :   0.8077 B( 20-H , 21-C ) :  -0.1089 B( 20-H , 22-H ) :   0.1170
B( 20-H , 30-C ) :  -0.1155 B( 21-C , 23-C ) :   1.0761 B( 21-C , 25-H ) :   0.6628
B( 21-C , 26-H ) :  -0.1194 B( 22-H , 27-H ) :  -0.1017 B( 23-C , 26-H ) :   0.6391
B( 27-H , 30-C ) :  -0.1797 B( 28-C , 29-H ) :   0.6432 B( 28-C , 30-C ) :   0.5917
B( 28-C , 33-C ) :   0.7222 B( 29-H , 33-C ) :  -0.1220 B( 30-C , 31-H ) :   0.8391
B( 30-C , 36-C ) :   0.7285 B( 30-C , 39-C ) :  -0.1176 B( 31-H , 36-C ) :  -0.2732
B( 33-C , 34-H ) :   0.8458 B( 33-C , 35-H ) :   1.1057 B( 33-C , 39-C ) :   1.1458
B( 36-C , 37-H ) :   0.8595 B( 36-C , 38-H ) :   1.2270 B( 36-C , 39-C ) :   1.1111
B( 39-C , 40-H ) :   1.1316 B( 39-C , 41-H ) :   0.8293

MP2 TOTAL ENERGY:     -769.266141579 Eh
FINAL SINGLE POINT ENERGY      -769.266141579272

DIPOLE MOMENT
-------------
                                X             Y             Z
Electronic contribution:     -8.58782      -2.01291      -0.23451
Nuclear contribution   :      9.09099       2.11847       0.19793
                        -----------------------------------------
Total Dipole Moment    :      0.50316       0.10556      -0.03658
                        -----------------------------------------
Magnitude (a.u.)       :      0.51542
Magnitude (Debye)      :      1.31009

Rotational constants in cm-1:     0.016649     0.011921     0.008166
Rotational constants in MHz :   499.124557   357.391696   244.812694

                             ****ORCA TERMINATED NORMALLY****
TOTAL RUN TIME: 0 days 1 hours 37 minutes 1 seconds 190 msec
