                         Program Version 4.2.1 -  RELEASE  -
|  1> %pal
|  2>  nprocs 32
|  3> end
|  4> !RI-MP2 aug-cc-pVTZ aug-cc-pVTZ/C TightSCF
|  5> %maxcore 4500
|  6> *xyzfile 0 2  06_21R2.xyz
|  7>
|  8>
|  9>                          ****END OF INPUT****

CARTESIAN COORDINATES (ANGSTROEM)
---------------------------------
  S     -1.456914   -0.302030    0.067278
  C     -0.134035    0.878284   -0.256825
  C      1.215005    0.460348    0.312317
  O      1.652915   -0.776189   -0.201351
  H     -0.071722    0.949779   -1.348750
  H     -0.439058    1.862015    0.109158
  H      1.969690    1.196569    0.029097
  H      1.163056    0.436641    1.407647
  H      0.979517   -1.434798    0.004262

 Total Charge           Charge          ....    0
 Multiplicity           Mult            ....    2
 Number of Electrons    NEL             ....   41
 Basis Dimension        Dim             ....  303

ORBITAL ENERGIES
----------------
                 SPIN UP ORBITALS
  NO   OCC          E(Eh)            E(eV)
   0   1.0000     -91.981677     -2502.9487
   1   1.0000     -20.561940      -559.5188
   2   1.0000     -11.288868      -307.1857
   3   1.0000     -11.272974      -306.7532
   4   1.0000      -8.982422      -244.4241
   5   1.0000      -6.677966      -181.7167
   6   1.0000      -6.659572      -181.2162
   7   1.0000      -6.658081      -181.1756
   8   1.0000      -1.369765       -37.2732
   9   1.0000      -1.079781       -29.3823
  10   1.0000      -0.945792       -25.7363
  11   1.0000      -0.823550       -22.4099
  12   1.0000      -0.704820       -19.1791
  13   1.0000      -0.650289       -17.6953
  14   1.0000      -0.611508       -16.6400
  15   1.0000      -0.587150       -15.9772
  16   1.0000      -0.526022       -14.3138
  17   1.0000      -0.479095       -13.0368
  18   1.0000      -0.461535       -12.5590
  19   1.0000      -0.437676       -11.9098
  20   1.0000      -0.382857       -10.4181
  21   0.0000       0.029516         0.8032
  22   0.0000       0.039793         1.0828
  23   0.0000       0.042870         1.1666
  24   0.0000       0.046621         1.2686
  25   0.0000       0.062165         1.6916

                 SPIN DOWN ORBITALS
  NO   OCC          E(Eh)            E(eV)
   0   1.0000     -91.972555     -2502.7005
   1   1.0000     -20.561938      -559.5188
   2   1.0000     -11.288760      -307.1828
   3   1.0000     -11.273978      -306.7805
   4   1.0000      -8.972472      -244.1534
   5   1.0000      -6.654543      -181.0793
   6   1.0000      -6.652874      -181.0339
   7   1.0000      -6.637233      -180.6083
   8   1.0000      -1.369737       -37.2724
   9   1.0000      -1.058753       -28.8101
  10   1.0000      -0.907829       -24.7033
  11   1.0000      -0.784433       -21.3455
  12   1.0000      -0.702343       -19.1117
  13   1.0000      -0.645393       -17.5620
  14   1.0000      -0.607547       -16.5322
  15   1.0000      -0.569422       -15.4948
  16   1.0000      -0.521852       -14.2003
  17   1.0000      -0.469641       -12.7796
  18   1.0000      -0.457673       -12.4539
  19   1.0000      -0.364017        -9.9054
  20   0.0000       0.009756         0.2655
  21   0.0000       0.030207         0.8220
  22   0.0000       0.041601         1.1320
  23   0.0000       0.044089         1.1997
  24   0.0000       0.046884         1.2758

MULLIKEN ATOMIC CHARGES AND SPIN POPULATIONS
--------------------------------------------
   0 S :   -0.233714    1.088293
   1 C :   -0.406089   -0.116294
   2 C :   -0.203759    0.006339
   3 O :   -0.592878   -0.002437
   4 H :    0.290351    0.023152
   5 H :    0.289447    0.006667
   6 H :    0.348625   -0.000993
   7 H :    0.302303   -0.000778
   8 H :    0.205714   -0.003950
Sum of atomic charges         :   -0.0000000

LOEWDIN ATOMIC CHARGES AND SPIN POPULATIONS
-------------------------------------------
   0 S :    0.918180    0.810404
   1 C :   -0.236804    0.148263
   2 C :   -0.081578    0.005713
   3 O :    0.790385    0.000493
   4 H :   -0.240881    0.022942
   5 H :   -0.241860    0.009802
   6 H :   -0.171919   -0.000226
   7 H :   -0.172412    0.002028
   8 H :   -0.563113    0.000582

  Mayer bond orders larger than 0.100000
B(  0-S ,  1-C ) :   0.9762 B(  1-C ,  2-C ) :   0.9401 B(  1-C ,  4-H ) :   0.8942
B(  1-C ,  5-H ) :   0.9024 B(  2-C ,  3-O ) :   0.7657 B(  2-C ,  6-H ) :   0.8939
B(  2-C ,  7-H ) :   0.9308 B(  3-O ,  8-H ) :   0.9737

MP2 TOTAL ENERGY:     -551.836580721 Eh
FINAL SINGLE POINT ENERGY      -551.836580721329

DIPOLE MOMENT
-------------
                                X             Y             Z
Electronic contribution:     -3.80772      -2.40754      -0.01453
Nuclear contribution   :      3.66678       3.00261       0.19586
                        -----------------------------------------
Total Dipole Moment    :     -0.14094       0.59507       0.18132
                        -----------------------------------------
Magnitude (a.u.)       :      0.63785
Magnitude (Debye)      :      1.62128

Rotational constants in cm-1:     0.432850     0.118236     0.100117
Rotational constants in MHz : 12976.508690  3544.639631  3001.428107

                             ****ORCA TERMINATED NORMALLY****
TOTAL RUN TIME: 0 days 0 hours 0 minutes 52 seconds 489 msec
