                         Program Version 4.2.1 -  RELEASE  -
|  1> %pal
|  2>  nprocs 32
|  3> end
|  4> !RI-MP2 aug-cc-pVTZ aug-cc-pVTZ/C TightSCF
|  5> %maxcore 4500
|  6> *xyzfile 1 1  02_33P.xyz
|  7>
|  8>
|  9>                          ****END OF INPUT****

CARTESIAN COORDINATES (ANGSTROEM)
---------------------------------
  C     -1.979865    1.027778    0.188651
  N     -0.939315    0.413523   -0.275084
  N      0.181344    1.190820   -0.576292
  C      1.299479    0.655070   -0.211077
  C      2.527669    1.342494   -0.510875
  C      1.323276   -0.679058    0.475649
  C      3.703080    0.770477   -0.195859
  H      2.463778    2.304427   -1.001715
  C      2.689333   -1.215643    0.753991
  C      3.791043   -0.533782    0.441489
  H      4.625696    1.288521   -0.429325
  H      2.747834   -2.185792    1.234005
  H      4.771073   -0.938380    0.658394
  C     -3.275190    0.324372    0.413778
  C     -1.885234    2.474615    0.512432
  H     -1.597196    3.029419   -0.384276
  H     -2.834802    2.845325    0.891372
  H     -1.099769    2.657402    1.247564
  C     -0.912579   -1.037107   -0.675898
  C      0.477969   -1.627214   -0.394232
  C     -2.028163   -1.789095    0.027582
  C     -3.356756   -1.080153   -0.165570
  H     -3.427150    0.317371    1.500924
  H     -4.063976    0.974036    0.024453
  H     -3.594491   -1.029634   -1.231469
  H     -4.167269   -1.630078    0.311986
  H     -2.058249   -2.800255   -0.381025
  H     -1.791233   -1.882587    1.093192
  H      1.009998   -1.805698   -1.328759
  H      0.369011   -2.589708    0.106444
  H      0.806064   -0.557849    1.439000
  H     -1.097895   -1.023440   -1.751494

 Total Charge           Charge          ....    1
 Multiplicity           Mult            ....    1
 Number of Electrons    NEL             ....  108
 Basis Dimension        Dim             .... 1081

ORBITAL ENERGIES
----------------

  NO   OCC          E(Eh)            E(eV)
   0   2.0000     -15.821645      -430.5289
   1   2.0000     -15.730039      -428.0361
   2   2.0000     -11.488520      -312.6185
   3   2.0000     -11.442399      -311.3635
   4   2.0000     -11.433506      -311.1215
   5   2.0000     -11.394609      -310.0631
   6   2.0000     -11.392678      -310.0105
   7   2.0000     -11.385214      -309.8074
   8   2.0000     -11.382234      -309.7263
   9   2.0000     -11.375094      -309.5321
  10   2.0000     -11.373348      -309.4845
  11   2.0000     -11.372293      -309.4558
  12   2.0000     -11.368892      -309.3633
  13   2.0000     -11.360092      -309.1238
  14   2.0000     -11.359205      -309.0997
  15   2.0000      -1.528875       -41.6028
  16   2.0000      -1.353935       -36.8425
  17   2.0000      -1.279982       -34.8301
  18   2.0000      -1.248537       -33.9744
  19   2.0000      -1.221529       -33.2395
  20   2.0000      -1.186039       -32.2738
  21   2.0000      -1.143171       -31.1073
  22   2.0000      -1.112483       -30.2722
  23   2.0000      -1.070501       -29.1298
  24   2.0000      -1.028450       -27.9855
  25   2.0000      -0.991597       -26.9827
  26   2.0000      -0.964429       -26.2434
  27   2.0000      -0.942477       -25.6461
  28   2.0000      -0.874860       -23.8061
  29   2.0000      -0.867271       -23.5996
  30   2.0000      -0.821057       -22.3421
  31   2.0000      -0.812674       -22.1140
  32   2.0000      -0.803341       -21.8600
  33   2.0000      -0.783110       -21.3095
  34   2.0000      -0.769140       -20.9294
  35   2.0000      -0.762138       -20.7388
  36   2.0000      -0.746428       -20.3114
  37   2.0000      -0.738839       -20.1048
  38   2.0000      -0.727383       -19.7931
  39   2.0000      -0.708552       -19.2807
  40   2.0000      -0.698390       -19.0042
  41   2.0000      -0.691127       -18.8065
  42   2.0000      -0.688469       -18.7342
  43   2.0000      -0.683852       -18.6085
  44   2.0000      -0.654699       -17.8153
  45   2.0000      -0.651872       -17.7383
  46   2.0000      -0.632117       -17.2008
  47   2.0000      -0.623723       -16.9724
  48   2.0000      -0.618778       -16.8378
  49   2.0000      -0.605936       -16.4884
  50   2.0000      -0.594703       -16.1827
  51   2.0000      -0.560365       -15.2483
  52   2.0000      -0.535562       -14.5734
  53   2.0000      -0.442925       -12.0526
  54   0.0000      -0.078253        -2.1294
  55   0.0000      -0.065943        -1.7944
  56   0.0000      -0.058528        -1.5926
  57   0.0000      -0.054240        -1.4759
  58   0.0000      -0.051808        -1.4098

MULLIKEN ATOMIC CHARGES
-----------------------
   0 C :    0.386080
   1 N :    1.050716
   2 N :   -1.717435
   3 C :    0.707746
   4 C :   -1.027537
   5 C :    1.102383
   6 C :   -0.571211
   7 H :    0.422244
   8 C :   -1.004584
   9 C :   -0.374233
  10 H :    0.559490
  11 H :    0.166188
  12 H :    0.575516
  13 C :   -0.531995
  14 C :   -0.671705
  15 H :    0.309654
  16 H :    0.287323
  17 H :    0.289211
  18 C :   -0.166352
  19 C :   -0.538601
  20 C :   -0.334178
  21 C :   -0.605158
  22 H :    0.222750
  23 H :    0.361162
  24 H :    0.118375
  25 H :    0.375995
  26 H :    0.315824
  27 H :    0.247501
  28 H :    0.246797
  29 H :    0.199128
  30 H :    0.279381
  31 H :    0.319529
Sum of atomic charges:    1.0000000

LOEWDIN ATOMIC CHARGES
----------------------
   0 C :   -0.091341
   1 N :    0.180877
   2 N :    0.390059
   3 C :   -0.259093
   4 C :    0.257626
   5 C :   -0.003108
   6 C :    0.250164
   7 H :   -0.170069
   8 C :    0.274018
   9 C :    0.243611
  10 H :   -0.156958
  11 H :   -0.150188
  12 H :   -0.173075
  13 C :    0.353051
  14 C :    0.647828
  15 H :   -0.144536
  16 H :   -0.153689
  17 H :   -0.141618
  18 C :   -0.001737
  19 C :    0.359328
  20 C :    0.320974
  21 C :    0.335234
  22 H :   -0.111327
  23 H :   -0.121809
  24 H :   -0.124848
  25 H :   -0.121626
  26 H :   -0.114712
  27 H :   -0.116997
  28 H :   -0.116364
  29 H :   -0.127677
  30 H :   -0.107738
  31 H :   -0.104257

  Mayer bond orders larger than 0.100000
B(  0-C ,  1-N ) :   1.0313 B(  0-C ,  2-N ) :  -0.2745 B(  0-C ,  3-C ) :   0.1049
B(  0-C , 13-C ) :   0.5417 B(  0-C , 14-C ) :   0.2859 B(  1-N ,  2-N ) :  -1.0459
B(  1-N ,  3-C ) :   0.2455 B(  1-N , 14-C ) :  -0.2400 B(  1-N , 18-C ) :   0.8783
B(  2-N ,  3-C ) :   1.0589 B(  2-N ,  4-C ) :   0.1102 B(  2-N ,  5-C ) :  -0.3322
B(  2-N ,  6-C ) :   0.1921 B(  2-N ,  9-C ) :   0.1002 B(  3-C ,  4-C ) :   0.5071
B(  3-C ,  5-C ) :   0.4810 B(  3-C ,  8-C ) :   0.1558 B(  3-C ,  9-C ) :  -0.2158
B(  3-C , 11-H ) :   0.1399 B(  3-C , 19-C ) :   0.2250 B(  3-C , 30-H ) :  -0.1163
B(  4-C ,  6-C ) :   1.7679 B(  4-C ,  7-H ) :   0.7940 B(  5-C ,  9-C ) :   0.1654
B(  5-C , 11-H ) :  -0.1300 B(  5-C , 19-C ) :   0.9297 B(  5-C , 30-H ) :   1.0312
B(  6-C ,  8-C ) :   0.1408 B(  6-C ,  9-C ) :   0.8890 B(  6-C , 10-H ) :   0.5532
B(  6-C , 12-H ) :  -0.1126 B(  8-C ,  9-C ) :   1.6432 B(  8-C , 11-H ) :   1.3374
B(  8-C , 12-H ) :  -0.1141 B(  8-C , 30-H ) :  -0.2262 B(  9-C , 12-H ) :   0.6057
B( 13-C , 21-C ) :   0.9732 B( 13-C , 22-H ) :   1.0295 B( 13-C , 23-H ) :   0.9111
B( 14-C , 15-H ) :   1.0357 B( 14-C , 16-H ) :   0.9544 B( 14-C , 17-H ) :   1.0307
B( 18-C , 19-C ) :   0.9324 B( 18-C , 20-C ) :   0.7717 B( 18-C , 31-H ) :   0.8695
B( 19-C , 28-H ) :   1.0646 B( 19-C , 29-H ) :   1.0419 B( 20-C , 21-C ) :   0.9830
B( 20-C , 26-H ) :   0.9149 B( 20-C , 27-H ) :   1.0059 B( 21-C , 24-H ) :   1.1309
B( 21-C , 25-H ) :   0.8838

MP2 TOTAL ENERGY:     -613.584073045 Eh
FINAL SINGLE POINT ENERGY      -613.584073044668

DIPOLE MOMENT
-------------
                                X             Y             Z
Electronic contribution:      7.98609       2.80944      -1.56988
Nuclear contribution   :     -9.09483      -3.06873       2.02813
                        -----------------------------------------
Total Dipole Moment    :     -1.10874      -0.25928       0.45825
                        -----------------------------------------
Magnitude (a.u.)       :      1.22741
Magnitude (Debye)      :      3.11983

Rotational constants in cm-1:     0.043737     0.014490     0.011682
Rotational constants in MHz :  1311.203155   434.395323   350.231868

                             ****ORCA TERMINATED NORMALLY****
TOTAL RUN TIME: 0 days 0 hours 22 minutes 49 seconds 728 msec
