                         Program Version 4.2.1 -  RELEASE  -
|  1> %pal
|  2>  nprocs 32
|  3> end
|  4> !RI-MP2 aug-cc-pVTZ aug-cc-pVTZ/C TightSCF
|  5> %maxcore 4500
|  6> *xyzfile 0 1  02_47R2.xyz
|  7>
|  8>
|  9>                          ****END OF INPUT****

CARTESIAN COORDINATES (ANGSTROEM)
---------------------------------
  C      0.000000    0.701249    1.050981
  C      0.000000    1.453649   -0.132376
  C      0.000000    0.618142   -1.229546
  C      0.000000   -0.618142   -1.229546
  C      0.000000   -1.453649   -0.132376
  C      0.000000   -0.701249    1.050981
  H      0.000000    1.224207    2.000751
  H      0.000000    2.534858   -0.135101
  H      0.000000   -2.534858   -0.135101
  H      0.000000   -1.224207    2.000751

 Total Charge           Charge          ....    0
 Multiplicity           Mult            ....    1
 Number of Electrons    NEL             ....   40
 Basis Dimension        Dim             ....  368

ORBITAL ENERGIES
----------------

  NO   OCC          E(Eh)            E(eV)
   0   2.0000     -11.274522      -306.7953
   1   2.0000     -11.274508      -306.7950
   2   2.0000     -11.253628      -306.2268
   3   2.0000     -11.252455      -306.1949
   4   2.0000     -11.249008      -306.1011
   5   2.0000     -11.245796      -306.0137
   6   2.0000      -1.180011       -32.1097
   7   2.0000      -1.033470       -28.1221
   8   2.0000      -1.019304       -27.7367
   9   2.0000      -0.851162       -23.1613
  10   2.0000      -0.796704       -21.6794
  11   2.0000      -0.695801       -18.9337
  12   2.0000      -0.646940       -17.6041
  13   2.0000      -0.637828       -17.3562
  14   2.0000      -0.555452       -15.1146
  15   2.0000      -0.549443       -14.9511
  16   2.0000      -0.532426       -14.4881
  17   2.0000      -0.377367       -10.2687
  18   2.0000      -0.358176        -9.7465
  19   2.0000      -0.355957        -9.6861
  20   0.0000       0.027856         0.7580
  21   0.0000       0.032312         0.8793
  22   0.0000       0.039074         1.0633
  23   0.0000       0.045123         1.2279
  24   0.0000       0.062125         1.6905

MULLIKEN ATOMIC CHARGES
-----------------------
   0 C :   -0.246999
   1 C :   -0.445591
   2 C :   -0.204134
   3 C :   -0.204134
   4 C :   -0.445591
   5 C :   -0.246999
   6 H :    0.403715
   7 H :    0.493009
   8 H :    0.493009
   9 H :    0.403715
Sum of atomic charges:    0.0000000

LOEWDIN ATOMIC CHARGES
----------------------
   0 C :    0.172189
   1 C :    0.141837
   2 C :    0.072640
   3 C :    0.072640
   4 C :    0.141837
   5 C :    0.172189
   6 H :   -0.187792
   7 H :   -0.198873
   8 H :   -0.198873
   9 H :   -0.187792

  Mayer bond orders larger than 0.100000
B(  0-C ,  1-C ) :   1.2261 B(  0-C ,  3-C ) :   0.1249 B(  0-C ,  5-C ) :   1.0275
B(  0-C ,  6-H ) :   0.9127 B(  1-C ,  2-C ) :   1.1902 B(  1-C ,  7-H ) :   0.7235
B(  2-C ,  3-C ) :   2.5783 B(  2-C ,  5-C ) :   0.1249 B(  3-C ,  4-C ) :   1.1902
B(  4-C ,  5-C ) :   1.2261 B(  4-C ,  8-H ) :   0.7235 B(  5-C ,  9-H ) :   0.9127

MP2 TOTAL ENERGY:     -230.426220503 Eh
FINAL SINGLE POINT ENERGY      -230.426220502753

DIPOLE MOMENT
-------------
                                X             Y             Z
Electronic contribution:     -0.00000      -0.00000      -2.96636
Nuclear contribution   :      0.00000      -0.00000       3.68349
                        -----------------------------------------
Total Dipole Moment    :     -0.00000      -0.00000       0.71713
                        -----------------------------------------
Magnitude (a.u.)       :      0.71713
Magnitude (Debye)      :      1.82280

Rotational constants in cm-1:     0.236775     0.192159     0.106073
Rotational constants in MHz :  7098.333285  5760.783620  3179.997695

                             ****ORCA TERMINATED NORMALLY****
TOTAL RUN TIME: 0 days 0 hours 0 minutes 46 seconds 989 msec
