                         Program Version 4.2.1 -  RELEASE  -
|  1> %pal
|  2>  nprocs 32
|  3> end
|  4> !RI-MP2 aug-cc-pVTZ aug-cc-pVTZ/C TightSCF
|  5> %maxcore 4500
|  6> *xyzfile 0 1  09_12R2.xyz
|  7>
|  8>
|  9>                          ****END OF INPUT****

CARTESIAN COORDINATES (ANGSTROEM)
---------------------------------
  C     -1.497326    0.603659    0.000000
  C     -0.195897   -1.081887    0.000000
  C     -0.228392    1.108370    0.000000
  H     -2.428836    1.146809    0.000000
  H      0.150566    2.116690    0.000001
  N     -1.464888   -0.766432    0.000000
  N      0.606343    0.016310    0.000000
  C      2.054010    0.034056    0.000000
  H      2.433516    0.538726    0.889611
  H      2.418409   -0.992023   -0.000028
  H      2.433513    0.538773   -0.889585
  H      0.208273   -2.083318    0.000000

 Total Charge           Charge          ....    0
 Multiplicity           Mult            ....    1
 Number of Electrons    NEL             ....   44
 Basis Dimension        Dim             ....  414

ORBITAL ENERGIES
----------------

  NO   OCC          E(Eh)            E(eV)
   0   2.0000     -15.620561      -425.0571
   1   2.0000     -15.538255      -422.8174
   2   2.0000     -11.289103      -307.1921
   3   2.0000     -11.285431      -307.0922
   4   2.0000     -11.253220      -306.2157
   5   2.0000     -11.238839      -305.8243
   6   2.0000      -1.346316       -36.6351
   7   2.0000      -1.184131       -32.2218
   8   2.0000      -1.014984       -27.6191
   9   2.0000      -0.967236       -26.3198
  10   2.0000      -0.805998       -21.9323
  11   2.0000      -0.784620       -21.3506
  12   2.0000      -0.720797       -19.6139
  13   2.0000      -0.652129       -17.7453
  14   2.0000      -0.619099       -16.8466
  15   2.0000      -0.591557       -16.0971
  16   2.0000      -0.575304       -15.6548
  17   2.0000      -0.557496       -15.1702
  18   2.0000      -0.553639       -15.0653
  19   2.0000      -0.430600       -11.7172
  20   2.0000      -0.383445       -10.4341
  21   2.0000      -0.317701        -8.6451
  22   0.0000       0.022613         0.6153
  23   0.0000       0.034280         0.9328
  24   0.0000       0.040750         1.1089
  25   0.0000       0.041436         1.1275
  26   0.0000       0.051472         1.4006

MULLIKEN ATOMIC CHARGES
-----------------------
   0 C :   -0.286697
   1 C :   -0.457662
   2 C :   -0.852088
   3 H :    0.581678
   4 H :    0.530199
   5 N :   -0.684257
   6 N :    0.371080
   7 C :   -0.864811
   8 H :    0.326985
   9 H :    0.373729
  10 H :    0.326987
  11 H :    0.634858
Sum of atomic charges:   -0.0000000

LOEWDIN ATOMIC CHARGES
----------------------
   0 C :   -0.011895
   1 C :   -0.095904
   2 C :    0.107473
   3 H :   -0.204945
   4 H :   -0.176237
   5 N :    0.339828
   6 N :    0.171712
   7 C :    0.523276
   8 H :   -0.156680
   9 H :   -0.167488
  10 H :   -0.156681
  11 H :   -0.172459

  Mayer bond orders larger than 0.100000
B(  0-C ,  1-C ) :  -0.1433 B(  0-C ,  2-C ) :   1.5381 B(  0-C ,  3-H ) :   0.6650
B(  0-C ,  5-N ) :   0.8663 B(  0-C ,  6-N ) :  -0.2018 B(  1-C ,  5-N ) :   1.3019
B(  1-C ,  6-N ) :   1.2081 B(  1-C , 11-H ) :   0.5407 B(  2-C ,  4-H ) :   0.7649
B(  2-C ,  5-N ) :   0.1128 B(  2-C ,  6-N ) :   1.0286 B(  2-C ,  7-C ) :  -0.1148
B(  5-N ,  6-N ) :  -0.1673 B(  6-N ,  7-C ) :   0.8382 B(  7-C ,  8-H ) :   0.9323
B(  7-C ,  9-H ) :   0.8605 B(  7-C , 10-H ) :   0.9323

MP2 TOTAL ENERGY:     -265.013169315 Eh
FINAL SINGLE POINT ENERGY      -265.013169314775

DIPOLE MOMENT
-------------
                                X             Y             Z
Electronic contribution:     -3.64820      -0.82827       0.00000
Nuclear contribution   :      5.24399       1.26938      -0.00000
                        -----------------------------------------
Total Dipole Moment    :      1.59579       0.44112      -0.00000
                        -----------------------------------------
Magnitude (a.u.)       :      1.65564
Magnitude (Debye)      :      4.20829

Rotational constants in cm-1:     0.308026     0.121198     0.088432
Rotational constants in MHz :  9234.385302  3633.421389  2651.114849

                             ****ORCA TERMINATED NORMALLY****
TOTAL RUN TIME: 0 days 0 hours 1 minutes 1 seconds 295 msec
