                         Program Version 4.2.1 -  RELEASE  -
|  1> %pal
|  2>  nprocs 32
|  3> end
|  4> !RI-MP2 aug-cc-pVTZ aug-cc-pVTZ/C TightSCF
|  5> %maxcore 4500
|  6> *xyzfile 0 1  04_38P2.xyz
|  7>
|  8>
|  9>                          ****END OF INPUT****

CARTESIAN COORDINATES (ANGSTROEM)
---------------------------------
  C     -1.217947   -0.222275   -0.000049
  C      0.082144    0.547875   -0.000086
  H     -1.282813   -0.858415   -0.884363
  H     -2.069344    0.461836   -0.000306
  H     -1.283020   -0.858012    0.884539
  H      0.140487    1.191350    0.886441
  H      0.140606    1.191057   -0.886818
  H      1.985850    0.073502    0.000171
  O      1.147882   -0.394365    0.000143

 Total Charge           Charge          ....    0
 Multiplicity           Mult            ....    1
 Number of Electrons    NEL             ....   26
 Basis Dimension        Dim             ....  276

ORBITAL ENERGIES
----------------

  NO   OCC          E(Eh)            E(eV)
   0   2.0000     -20.555040      -559.3311
   1   2.0000     -11.274802      -306.8030
   2   2.0000     -11.212075      -305.0961
   3   2.0000      -1.357026       -36.9266
   4   2.0000      -1.012651       -27.5556
   5   2.0000      -0.834054       -22.6958
   6   2.0000      -0.699684       -19.0394
   7   2.0000      -0.645065       -17.5531
   8   2.0000      -0.570962       -15.5367
   9   2.0000      -0.533177       -14.5085
  10   2.0000      -0.524896       -14.2831
  11   2.0000      -0.488300       -13.2873
  12   2.0000      -0.441854       -12.0235
  13   0.0000       0.029227         0.7953
  14   0.0000       0.039762         1.0820
  15   0.0000       0.042646         1.1605
  16   0.0000       0.044813         1.2194
  17   0.0000       0.063119         1.7176

MULLIKEN ATOMIC CHARGES
-----------------------
   0 C :   -0.925242
   1 C :   -0.142106
   2 H :    0.295075
   3 H :    0.305088
   4 H :    0.295070
   5 H :    0.280541
   6 H :    0.280532
   7 H :    0.152036
   8 O :   -0.540995
Sum of atomic charges:   -0.0000000

LOEWDIN ATOMIC CHARGES
----------------------
   0 C :    0.559810
   1 C :   -0.002910
   2 H :   -0.176083
   3 H :   -0.177664
   4 H :   -0.176082
   5 H :   -0.162478
   6 H :   -0.162478
   7 H :   -0.500908
   8 O :    0.798792

  Mayer bond orders larger than 0.100000
B(  0-C ,  1-C ) :   0.9043 B(  0-C ,  2-H ) :   0.9185 B(  0-C ,  3-H ) :   0.9250
B(  0-C ,  4-H ) :   0.9185 B(  1-C ,  5-H ) :   0.9215 B(  1-C ,  6-H ) :   0.9215
B(  1-C ,  8-O ) :   0.7733 B(  7-H ,  8-O ) :   1.0188

MP2 TOTAL ENERGY:     -154.758264177 Eh
FINAL SINGLE POINT ENERGY      -154.758264177299

DIPOLE MOMENT
-------------
                                X             Y             Z
Electronic contribution:      2.53370      -0.60211       0.00028
Nuclear contribution   :     -2.49098       1.26672      -0.00035
                        -----------------------------------------
Total Dipole Moment    :      0.04272       0.66462      -0.00008
                        -----------------------------------------
Magnitude (a.u.)       :      0.66599
Magnitude (Debye)      :      1.69281

Rotational constants in cm-1:     1.177623     0.313684     0.273077
Rotational constants in MHz : 35304.260445  9403.996539  8186.636660

                             ****ORCA TERMINATED NORMALLY****
TOTAL RUN TIME: 0 days 0 hours 0 minutes 19 seconds 255 msec
