                         Program Version 4.2.1 -  RELEASE  -
|  1> %pal
|  2>  nprocs 32
|  3> end
|  4> !RI-MP2 aug-cc-pVTZ aug-cc-pVTZ/C TightSCF
|  5> %maxcore 4500
|  6> *xyzfile 0 1  08_1R1.xyz
|  7>
|  8>
|  9>                          ****END OF INPUT****

CARTESIAN COORDINATES (ANGSTROEM)
---------------------------------
  C     -0.461185    0.174945   -0.000014
  O     -0.285321    1.363931    0.000049
  C     -1.793043   -0.514647   -0.000041
  H     -1.878624   -1.153476    0.879999
  H     -1.878367   -1.153998   -0.879721
  H     -2.586075    0.228403   -0.000353
  O      0.546400   -0.713997   -0.000040
  C      1.865869   -0.161884    0.000031
  H      2.540597   -1.013707   -0.000047
  H      2.022004    0.451503   -0.887214
  H      2.021984    0.451323    0.887404

 Total Charge           Charge          ....    0
 Multiplicity           Mult            ....    1
 Number of Electrons    NEL             ....   40
 Basis Dimension        Dim             ....  368

ORBITAL ENERGIES
----------------

  NO   OCC          E(Eh)            E(eV)
   0   2.0000     -20.603097      -560.6388
   1   2.0000     -20.543227      -559.0096
   2   2.0000     -11.378164      -309.6156
   3   2.0000     -11.284798      -307.0750
   4   2.0000     -11.240527      -305.8703
   5   2.0000      -1.463518       -39.8244
   6   2.0000      -1.360489       -37.0208
   7   2.0000      -1.036078       -28.1931
   8   2.0000      -0.948911       -25.8212
   9   2.0000      -0.778136       -21.1741
  10   2.0000      -0.695895       -18.9363
  11   2.0000      -0.678430       -18.4610
  12   2.0000      -0.677735       -18.4421
  13   2.0000      -0.594335       -16.1727
  14   2.0000      -0.592226       -16.1153
  15   2.0000      -0.560202       -15.2439
  16   2.0000      -0.528135       -14.3713
  17   2.0000      -0.523618       -14.2484
  18   2.0000      -0.463372       -12.6090
  19   2.0000      -0.449969       -12.2443
  20   0.0000       0.028294         0.7699
  21   0.0000       0.036001         0.9796
  22   0.0000       0.042913         1.1677
  23   0.0000       0.046356         1.2614
  24   0.0000       0.056599         1.5401

MULLIKEN ATOMIC CHARGES
-----------------------
   0 C :    0.357548
   1 O :   -0.667790
   2 C :   -0.611930
   3 H :    0.289941
   4 H :    0.289967
   5 H :    0.346536
   6 O :   -0.326979
   7 C :   -0.722372
   8 H :    0.354252
   9 H :    0.345425
  10 H :    0.345403
Sum of atomic charges:    0.0000000

LOEWDIN ATOMIC CHARGES
----------------------
   0 C :   -0.849699
   1 O :    0.453050
   2 C :    0.579336
   3 H :   -0.175367
   4 H :   -0.175379
   5 H :   -0.184112
   6 O :    0.554101
   7 C :    0.348879
   8 H :   -0.187554
   9 H :   -0.181630
  10 H :   -0.181626

  Mayer bond orders larger than 0.100000
B(  0-C ,  1-O ) :   1.5984 B(  0-C ,  2-C ) :   0.6751 B(  0-C ,  6-O ) :   1.0516
B(  2-C ,  3-H ) :   0.9409 B(  2-C ,  4-H ) :   0.9410 B(  2-C ,  5-H ) :   0.9080
B(  6-O ,  7-C ) :   0.8218 B(  7-C ,  8-H ) :   0.8976 B(  7-C ,  9-H ) :   0.8878
B(  7-C , 10-H ) :   0.8878

MP2 TOTAL ENERGY:     -267.929920312 Eh
FINAL SINGLE POINT ENERGY      -267.929920312041

DIPOLE MOMENT
-------------
                                X             Y             Z
Electronic contribution:     -0.17153       1.39889      -0.00008
Nuclear contribution   :      0.24910      -2.21042       0.00007
                        -----------------------------------------
Total Dipole Moment    :      0.07757      -0.81153      -0.00001
                        -----------------------------------------
Magnitude (a.u.)       :      0.81523
Magnitude (Debye)      :      2.07215

Rotational constants in cm-1:     0.344536     0.139391     0.103061
Rotational constants in MHz : 10328.920177  4178.849460  3089.679288

                             ****ORCA TERMINATED NORMALLY****
TOTAL RUN TIME: 0 days 0 hours 0 minutes 43 seconds 75 msec
