                         Program Version 4.2.1 -  RELEASE  -
|  1> %pal
|  2>  nprocs 32
|  3> end
|  4> !RI-MP2 aug-cc-pVTZ aug-cc-pVTZ/C TightSCF
|  5> %maxcore 4500
|  6> *xyzfile -1 1  09_22P.xyz
|  7>
|  8>
|  9>                          ****END OF INPUT****

CARTESIAN COORDINATES (ANGSTROEM)
---------------------------------
  C     -5.757048    0.295350   -0.289933
  N     -4.518649    0.064312    0.414157
  H     -5.776703   -0.141149   -1.306459
  H     -5.949282    1.369049   -0.395380
  H     -6.592118   -0.126810    0.276832
  C     -3.333630    0.476864   -0.323049
  C     -2.986758    1.933573   -0.041015
  H     -3.828579    2.583689   -0.302951
  H     -2.122079    2.267859   -0.621688
  H     -2.759366    2.056200    1.016786
  C     -2.212797   -0.558188   -0.014442
  H     -3.508007    0.356828   -1.407453
  N     -1.099009   -0.416066   -1.008608
  O     -2.614760   -1.761468    0.151280
  C      0.040255   -0.964729   -0.309046
  C     -0.273504   -0.734108    1.233447
  O     -1.456810   -0.019639    1.237237
  H      0.512485   -0.161178    1.737447
  H     -0.370416   -1.714751    1.714064
  C      1.312421   -0.280841   -0.667311
  H      0.141896   -2.032732   -0.497250
  O      1.450607    0.812657   -1.155408
  O      2.396123   -1.024634   -0.309053
  C      3.678124   -0.428331   -0.525594
  C      3.826853    0.908118    0.196821
  O      4.444214    1.840725   -0.229139
  O      3.254267    0.883952    1.410452
  N      4.698650   -1.312263   -0.057038
  H      3.813147   -0.222289   -1.586480
  H      3.364846    1.761450    1.801074
  H      4.717302   -2.157541   -0.613777
  H      4.520152   -1.570549    0.907312
  H     -4.368358   -0.932765    0.582595
  H     -0.914490    0.573808   -1.146461

 Total Charge           Charge          ....   -1
 Multiplicity           Mult            ....    1
 Number of Electrons    NEL             ....  140
 Basis Dimension        Dim             .... 1196

ORBITAL ENERGIES
----------------

  NO   OCC          E(Eh)            E(eV)
   0   2.0000     -20.537582      -558.8560
   1   2.0000     -20.514534      -558.2289
   2   2.0000     -20.471872      -557.0679
   3   2.0000     -20.448195      -556.4237
   4   2.0000     -20.373892      -554.4018
   5   2.0000     -20.279472      -551.8325
   6   2.0000     -15.493914      -421.6108
   7   2.0000     -15.393444      -418.8769
   8   2.0000     -15.383995      -418.6198
   9   2.0000     -11.309148      -307.7376
  10   2.0000     -11.276911      -306.8604
  11   2.0000     -11.261281      -306.4350
  12   2.0000     -11.176155      -304.1186
  13   2.0000     -11.134767      -302.9924
  14   2.0000     -11.134019      -302.9721
  15   2.0000     -11.116456      -302.4942
  16   2.0000     -11.097532      -301.9792
  17   2.0000     -11.073848      -301.3347
  18   2.0000      -1.399330       -38.0777
  19   2.0000      -1.371344       -37.3162
  20   2.0000      -1.290250       -35.1095
  21   2.0000      -1.271804       -34.6075
  22   2.0000      -1.222283       -33.2600
  23   2.0000      -1.134280       -30.8653
  24   2.0000      -1.113509       -30.3001
  25   2.0000      -1.054180       -28.6857
  26   2.0000      -1.038634       -28.2627
  27   2.0000      -0.911891       -24.8138
  28   2.0000      -0.880519       -23.9602
  29   2.0000      -0.846052       -23.0223
  30   2.0000      -0.774517       -21.0757
  31   2.0000      -0.769019       -20.9261
  32   2.0000      -0.732491       -19.9321
  33   2.0000      -0.693621       -18.8744
  34   2.0000      -0.675259       -18.3747
  35   2.0000      -0.647949       -17.6316
  36   2.0000      -0.622977       -16.9521
  37   2.0000      -0.620948       -16.8969
  38   2.0000      -0.598836       -16.2951
  39   2.0000      -0.591251       -16.0887
  40   2.0000      -0.581032       -15.8107
  41   2.0000      -0.554555       -15.0902
  42   2.0000      -0.549797       -14.9607
  43   2.0000      -0.522038       -14.2054
  44   2.0000      -0.515107       -14.0168
  45   2.0000      -0.503589       -13.7034
  46   2.0000      -0.494365       -13.4524
  47   2.0000      -0.480360       -13.0713
  48   2.0000      -0.474378       -12.9085
  49   2.0000      -0.460994       -12.5443
  50   2.0000      -0.451945       -12.2980
  51   2.0000      -0.446115       -12.1394
  52   2.0000      -0.424140       -11.5414
  53   2.0000      -0.414908       -11.2902
  54   2.0000      -0.411001       -11.1839
  55   2.0000      -0.407370       -11.0851
  56   2.0000      -0.397481       -10.8160
  57   2.0000      -0.388120       -10.5613
  58   2.0000      -0.380331       -10.3493
  59   2.0000      -0.373034       -10.1508
  60   2.0000      -0.363134        -9.8814
  61   2.0000      -0.348339        -9.4788
  62   2.0000      -0.338684        -9.2161
  63   2.0000      -0.330978        -9.0064
  64   2.0000      -0.320869        -8.7313
  65   2.0000      -0.271762        -7.3950
  66   2.0000      -0.248682        -6.7670
  67   2.0000      -0.223718        -6.0877
  68   2.0000      -0.208156        -5.6642
  69   2.0000      -0.198010        -5.3881
  70   0.0000       0.089451         2.4341
  71   0.0000       0.099501         2.7075
  72   0.0000       0.106832         2.9070
  73   0.0000       0.108393         2.9495
  74   0.0000       0.117579         3.1995

MULLIKEN ATOMIC CHARGES
-----------------------
   0 C :   -1.080814
   1 N :   -0.606212
   2 H :    0.318426
   3 H :    0.332208
   4 H :    0.345577
   5 C :    0.217462
   6 C :   -1.087235
   7 H :    0.229811
   8 H :    0.239307
   9 H :    0.263710
  10 C :    2.374921
  11 H :    0.323091
  12 N :   -0.998575
  13 O :   -1.481656
  14 C :    0.874686
  15 C :   -0.651885
  16 O :   -0.943443
  17 H :    0.439526
  18 H :    0.296034
  19 C :    0.454357
  20 H :    0.271076
  21 O :   -1.068133
  22 O :   -0.559652
  23 C :    1.054645
  24 C :    0.814493
  25 O :   -0.951589
  26 O :   -0.485198
  27 N :   -0.871411
  28 H :    0.443655
  29 H :    0.204199
  30 H :    0.102149
  31 H :    0.080695
  32 H :    0.100975
  33 H :    0.004798
Sum of atomic charges:   -1.0000000

LOEWDIN ATOMIC CHARGES
----------------------
   0 C :    0.419335
   1 N :    0.543771
   2 H :   -0.169252
   3 H :   -0.187346
   4 H :   -0.182636
   5 C :   -0.172515
   6 C :    0.565248
   7 H :   -0.181899
   8 H :   -0.179215
   9 H :   -0.187268
  10 C :   -1.087575
  11 H :   -0.146432
  12 N :    0.574894
  13 O :    0.381436
  14 C :   -0.157716
  15 C :   -0.016583
  16 O :    0.540868
  17 H :   -0.183631
  18 H :   -0.166633
  19 C :   -0.797613
  20 H :   -0.153939
  21 O :    0.499980
  22 O :    0.604027
  23 C :   -0.411970
  24 C :   -0.831698
  25 O :    0.457721
  26 O :    0.841912
  27 N :    0.843273
  28 H :   -0.157630
  29 H :   -0.459477
  30 H :   -0.310067
  31 H :   -0.314022
  32 H :   -0.427487
  33 H :   -0.389861

  Mayer bond orders larger than 0.100000
B(  0-C ,  1-N ) :   1.0472 B(  0-C ,  2-H ) :   0.9248 B(  0-C ,  3-H ) :   0.9115
B(  0-C ,  4-H ) :   0.9340 B(  1-N ,  5-C ) :   0.6720 B(  1-N ,  6-C ) :   0.2266
B(  1-N , 10-C ) :  -0.1601 B(  1-N , 32-H ) :   0.8693 B(  5-C ,  6-C ) :   0.6088
B(  5-C , 10-C ) :   0.9890 B(  5-C , 11-H ) :   0.9188 B(  5-C , 13-O ) :   0.1167
B(  6-C ,  7-H ) :   1.0162 B(  6-C ,  8-H ) :   0.9862 B(  6-C ,  9-H ) :   1.0262
B( 10-C , 12-N ) :   0.5302 B( 10-C , 14-C ) :   0.1080 B( 10-C , 16-O ) :   0.2642
B( 12-N , 13-O ) :   0.1131 B( 12-N , 14-C ) :   0.3785 B( 12-N , 15-C ) :   0.1906
B( 12-N , 19-C ) :   0.2090 B( 12-N , 33-H ) :   0.8700 B( 13-O , 14-C ) :   0.1185
B( 13-O , 15-C ) :   0.1724 B( 14-C , 15-C ) :   0.7773 B( 14-C , 16-O ) :   0.1090
B( 14-C , 19-C ) :   0.3806 B( 14-C , 20-H ) :   0.9378 B( 14-C , 22-O ) :  -0.1313
B( 15-C , 16-O ) :   1.0650 B( 15-C , 17-H ) :   0.7914 B( 15-C , 18-H ) :   0.9421
B( 15-C , 19-C ) :   0.2535 B( 19-C , 21-O ) :   0.8375 B( 19-C , 22-O ) :   0.8636
B( 21-O , 23-C ) :   0.1253 B( 22-O , 23-C ) :   0.7430 B( 22-O , 24-C ) :   0.1086
B( 23-C , 24-C ) :   0.5830 B( 23-C , 27-N ) :   0.3235 B( 23-C , 28-H ) :   0.8466
B( 24-C , 25-O ) :   1.1340 B( 24-C , 26-O ) :   0.9680 B( 24-C , 27-N ) :   0.1104
B( 26-O , 29-H ) :   0.9779 B( 27-N , 30-H ) :   1.0011 B( 27-N , 31-H ) :   1.0435

MP2 TOTAL ENERGY:     -966.645377450 Eh
FINAL SINGLE POINT ENERGY      -966.645377450089

DIPOLE MOMENT
-------------
                                X             Y             Z
Electronic contribution:     22.43562      -1.68784      -0.01147
Nuclear contribution   :    -18.92091       1.90222       0.17103
                        -----------------------------------------
Total Dipole Moment    :      3.51471       0.21438       0.15956
                        -----------------------------------------
Magnitude (a.u.)       :      3.52485
Magnitude (Debye)      :      8.95947

Rotational constants in cm-1:     0.038476     0.005991     0.005704
Rotational constants in MHz :  1153.468809   179.619044   171.014779

                             ****ORCA TERMINATED NORMALLY****
TOTAL RUN TIME: 0 days 0 hours 25 minutes 48 seconds 893 msec
