                         Program Version 4.2.1 -  RELEASE  -
|  1> %pal
|  2>  nprocs 32
|  3> end
|  4> !RI-MP2 aug-cc-pVTZ aug-cc-pVTZ/C TightSCF
|  5> %maxcore 4500
|  6> *xyzfile 0 1  03_22P2.xyz
|  7>
|  8>
|  9>                          ****END OF INPUT****

CARTESIAN COORDINATES (ANGSTROEM)
---------------------------------
  C     -0.447521    0.429391    0.000019
  C      0.497666    0.545560   -1.192127
  C      0.497624    0.545408    1.192211
  C     -1.607712    1.400539    0.000060
  C      1.772140   -0.205188   -0.775713
  C      1.772088   -0.205326    0.775755
  H      0.709381    1.611130   -1.330540
  H      0.051051    0.176180   -2.115021
  H      0.050971    0.175941    2.115052
  H      0.709363    1.610959    1.330743
  H     -2.231351    1.265368   -0.884358
  H     -1.222879    2.423825    0.000136
  H     -2.231387    1.265251    0.884434
  H      2.663647    0.268240   -1.188647
  H      1.748153   -1.227469   -1.153465
  H      2.663594    0.267974    1.188838
  H      1.748011   -1.227675    1.153319
  Cl    -1.150839   -1.274825   -0.000102

 Total Charge           Charge          ....    0
 Multiplicity           Mult            ....    1
 Number of Electrons    NEL             ....   64
 Basis Dimension        Dim             ....  579

ORBITAL ENERGIES
----------------

  NO   OCC          E(Eh)            E(eV)
   0   2.0000    -104.807595     -2851.9596
   1   2.0000     -11.298299      -307.4423
   2   2.0000     -11.228701      -305.5485
   3   2.0000     -11.228684      -305.5480
   4   2.0000     -11.227080      -305.5044
   5   2.0000     -11.221228      -305.3451
   6   2.0000     -11.220674      -305.3301
   7   2.0000     -10.532171      -286.5949
   8   2.0000      -7.998831      -217.6593
   9   2.0000      -7.997273      -217.6169
  10   2.0000      -7.997270      -217.6168
  11   2.0000      -1.171068       -31.8664
  12   2.0000      -1.065233       -28.9865
  13   2.0000      -1.000874       -27.2352
  14   2.0000      -0.977539       -26.6002
  15   2.0000      -0.905764       -24.6471
  16   2.0000      -0.788236       -21.4490
  17   2.0000      -0.743259       -20.2251
  18   2.0000      -0.659453       -17.9446
  19   2.0000      -0.646108       -17.5815
  20   2.0000      -0.603582       -16.4243
  21   2.0000      -0.598617       -16.2892
  22   2.0000      -0.571571       -15.5532
  23   2.0000      -0.540695       -14.7131
  24   2.0000      -0.497126       -13.5275
  25   2.0000      -0.493973       -13.4417
  26   2.0000      -0.478973       -13.0335
  27   2.0000      -0.477251       -12.9867
  28   2.0000      -0.466038       -12.6815
  29   2.0000      -0.462743       -12.5919
  30   2.0000      -0.423319       -11.5191
  31   2.0000      -0.417723       -11.3668
  32   0.0000       0.028146         0.7659
  33   0.0000       0.034436         0.9371
  34   0.0000       0.037615         1.0235
  35   0.0000       0.042213         1.1487
  36   0.0000       0.051798         1.4095

MULLIKEN ATOMIC CHARGES
-----------------------
   0 C :    1.219213
   1 C :   -0.677201
   2 C :   -0.677232
   3 C :   -1.139434
   4 C :   -0.595553
   5 C :   -0.595510
   6 H :    0.147584
   7 H :    0.407548
   8 H :    0.407554
   9 H :    0.147564
  10 H :    0.294664
  11 H :    0.272518
  12 H :    0.294677
  13 H :    0.321467
  14 H :    0.233161
  15 H :    0.321492
  16 H :    0.233154
  17 Cl:   -0.615665
Sum of atomic charges:    0.0000000

LOEWDIN ATOMIC CHARGES
----------------------
   0 C :   -0.817384
   1 C :    0.220963
   2 C :    0.220959
   3 C :    0.508771
   4 C :    0.297124
   5 C :    0.297117
   6 H :   -0.141430
   7 H :   -0.151236
   8 H :   -0.151233
   9 H :   -0.141428
  10 H :   -0.172355
  11 H :   -0.164306
  12 H :   -0.172356
  13 H :   -0.148577
  14 H :   -0.158229
  15 H :   -0.148575
  16 H :   -0.158233
  17 Cl:    0.980409

  Mayer bond orders larger than 0.100000
B(  0-C ,  1-C ) :   0.8440 B(  0-C ,  2-C ) :   0.8440 B(  0-C ,  3-C ) :   0.4101
B(  0-C , 17-Cl) :   0.3966 B(  1-C ,  4-C ) :   1.0277 B(  1-C ,  6-H ) :   1.0380
B(  1-C ,  7-H ) :   0.8438 B(  2-C ,  5-C ) :   1.0276 B(  2-C ,  8-H ) :   0.8438
B(  2-C ,  9-H ) :   1.0380 B(  3-C , 10-H ) :   1.0253 B(  3-C , 11-H ) :   0.9744
B(  3-C , 12-H ) :   1.0253 B(  4-C ,  5-C ) :   0.9963 B(  4-C , 13-H ) :   0.8874
B(  4-C , 14-H ) :   0.9916 B(  5-C , 15-H ) :   0.8874 B(  5-C , 16-H ) :   0.9916

MP2 TOTAL ENERGY:     -694.472565459 Eh
FINAL SINGLE POINT ENERGY      -694.472565459210

DIPOLE MOMENT
-------------
                                X             Y             Z
Electronic contribution:     -5.93774      -7.67365      -0.00058
Nuclear contribution   :      6.38951       8.54659       0.00065
                        -----------------------------------------
Total Dipole Moment    :      0.45177       0.87294       0.00006
                        -----------------------------------------
Magnitude (a.u.)       :      0.98292
Magnitude (Debye)      :      2.49838

Rotational constants in cm-1:     0.096026     0.063828     0.055622
Rotational constants in MHz :  2878.789886  1913.518633  1667.492886

                             ****ORCA TERMINATED NORMALLY****
TOTAL RUN TIME: 0 days 0 hours 3 minutes 14 seconds 935 msec
