                         Program Version 4.2.1 -  RELEASE  -
|  1> %pal
|  2>  nprocs 32
|  3> end
|  4> !RI-MP2 aug-cc-pVTZ aug-cc-pVTZ/C TightSCF
|  5> %maxcore 4500
|  6> *xyzfile 0 1  10_52TS.xyz
|  7>
|  8>
|  9>                          ****END OF INPUT****

CARTESIAN COORDINATES (ANGSTROEM)
---------------------------------
  C      0.291595    1.425092    1.310916
  N     -0.223469    0.095964    1.023211
  C      0.453802   -1.035882    1.623291
  C      1.567583   -1.661149    0.776860
  C      2.703819   -0.713501    0.487421
  C      1.704094    0.305746   -1.213283
  C      1.864174    1.726927   -0.719197
  C      0.664008    2.242765    0.075051
  C      3.553093   -0.808987   -0.648805
  C      2.776769   -0.478293   -1.724801
  H      0.714548    0.166108   -1.663939
  H      3.143291   -0.338312    1.421729
  C     -1.449749   -0.070653    0.399922
  C     -1.842790   -1.324719   -0.097608
  C     -3.072730   -1.496538   -0.709789
  C     -3.951531   -0.433282   -0.864305
  C     -3.569802    0.812120   -0.387638
  C     -2.344855    0.998449    0.232975
  H     -0.426748    1.991100    1.918526
  H      1.178624    1.297665    1.932778
  H      0.883640   -0.705665    2.575057
  H     -0.283559   -1.799780    1.876049
  H      1.961105   -2.504223    1.364457
  H      1.168164   -2.072449   -0.150416
  H      1.949434    2.369630   -1.607108
  H      2.793293    1.846977   -0.160507
  H      0.867188    3.269251    0.395871
  H     -0.199823    2.297213   -0.591792
  H      4.618303   -1.024070   -0.620566
  H      2.867202   -0.814495   -2.754802
  H     -1.174203   -2.170756   -0.022483
  H     -3.340355   -2.479055   -1.081343
  H     -4.909158   -0.571599   -1.349451
  H     -4.237348    1.659776   -0.492440
  H     -2.094191    1.982354    0.601834

 Total Charge           Charge          ....    0
 Multiplicity           Mult            ....    1
 Number of Electrons    NEL             ....  116
 Basis Dimension        Dim             .... 1173

ORBITAL ENERGIES
----------------

  NO   OCC          E(Eh)            E(eV)
   0   2.0000     -15.559297      -423.3900
   1   2.0000     -11.274148      -306.7852
   2   2.0000     -11.256683      -306.3099
   3   2.0000     -11.255632      -306.2813
   4   2.0000     -11.249457      -306.1133
   5   2.0000     -11.244846      -305.9878
   6   2.0000     -11.228820      -305.5517
   7   2.0000     -11.228772      -305.5504
   8   2.0000     -11.224541      -305.4353
   9   2.0000     -11.224271      -305.4280
  10   2.0000     -11.223514      -305.4073
  11   2.0000     -11.220625      -305.3287
  12   2.0000     -11.218492      -305.2707
  13   2.0000     -11.216180      -305.2078
  14   2.0000     -11.216015      -305.2033
  15   2.0000     -11.211898      -305.0913
  16   2.0000      -1.257723       -34.2244
  17   2.0000      -1.138274       -30.9740
  18   2.0000      -1.126640       -30.6574
  19   2.0000      -1.071923       -29.1685
  20   2.0000      -1.029490       -28.0138
  21   2.0000      -1.009755       -27.4768
  22   2.0000      -0.986881       -26.8544
  23   2.0000      -0.968683       -26.3592
  24   2.0000      -0.889801       -24.2127
  25   2.0000      -0.870074       -23.6759
  26   2.0000      -0.834701       -22.7134
  27   2.0000      -0.817767       -22.2526
  28   2.0000      -0.772424       -21.0187
  29   2.0000      -0.767670       -20.8894
  30   2.0000      -0.713043       -19.4029
  31   2.0000      -0.700890       -19.0722
  32   2.0000      -0.678905       -18.4739
  33   2.0000      -0.655431       -17.8352
  34   2.0000      -0.650769       -17.7083
  35   2.0000      -0.634517       -17.2661
  36   2.0000      -0.614779       -16.7290
  37   2.0000      -0.601858       -16.3774
  38   2.0000      -0.592400       -16.1200
  39   2.0000      -0.581875       -15.8336
  40   2.0000      -0.575205       -15.6521
  41   2.0000      -0.569197       -15.4886
  42   2.0000      -0.555372       -15.1124
  43   2.0000      -0.544656       -14.8208
  44   2.0000      -0.524132       -14.2624
  45   2.0000      -0.518827       -14.1180
  46   2.0000      -0.505417       -13.7531
  47   2.0000      -0.497995       -13.5511
  48   2.0000      -0.495961       -13.4958
  49   2.0000      -0.489189       -13.3115
  50   2.0000      -0.479016       -13.0347
  51   2.0000      -0.469980       -12.7888
  52   2.0000      -0.465925       -12.6785
  53   2.0000      -0.398562       -10.8454
  54   2.0000      -0.338850        -9.2206
  55   2.0000      -0.333217        -9.0673
  56   2.0000      -0.295297        -8.0354
  57   2.0000      -0.274259        -7.4630
  58   0.0000       0.025762         0.7010
  59   0.0000       0.029920         0.8142
  60   0.0000       0.030249         0.8231
  61   0.0000       0.032229         0.8770
  62   0.0000       0.040019         1.0890

MULLIKEN ATOMIC CHARGES
-----------------------
   0 C :   -0.624573
   1 N :   -0.015365
   2 C :   -0.786238
   3 C :   -0.239908
   4 C :    0.150325
   5 C :   -0.032461
   6 C :   -0.402130
   7 C :   -0.455325
   8 C :   -0.893335
   9 C :   -1.015940
  10 H :    0.430086
  11 H :    0.109184
  12 C :    1.500716
  13 C :   -0.167774
  14 C :   -0.984408
  15 C :   -0.397616
  16 C :   -0.894458
  17 C :   -0.548059
  18 H :    0.149951
  19 H :    0.254223
  20 H :    0.239929
  21 H :    0.229980
  22 H :    0.373455
  23 H :    0.174548
  24 H :    0.328640
  25 H :    0.162080
  26 H :    0.396573
  27 H :    0.156544
  28 H :    0.578754
  29 H :    0.490689
  30 H :    0.263793
  31 H :    0.349427
  32 H :    0.655174
  33 H :    0.310288
  34 H :    0.153230
Sum of atomic charges:    0.0000000

LOEWDIN ATOMIC CHARGES
----------------------
   0 C :    0.197685
   1 N :    0.293105
   2 C :    0.191450
   3 C :    0.269726
   4 C :    0.182647
   5 C :    0.195743
   6 C :    0.271051
   7 C :    0.302740
   8 C :    0.187285
   9 C :    0.192626
  10 H :   -0.143194
  11 H :   -0.148019
  12 C :   -0.208210
  13 C :    0.224602
  14 C :    0.189805
  15 C :    0.183791
  16 C :    0.190762
  17 C :    0.221815
  18 H :   -0.138492
  19 H :   -0.152591
  20 H :   -0.140024
  21 H :   -0.156014
  22 H :   -0.138248
  23 H :   -0.166583
  24 H :   -0.139600
  25 H :   -0.158591
  26 H :   -0.133911
  27 H :   -0.165332
  28 H :   -0.171676
  29 H :   -0.170468
  30 H :   -0.204125
  31 H :   -0.179073
  32 H :   -0.194019
  33 H :   -0.178780
  34 H :   -0.207883

  Mayer bond orders larger than 0.100000
B(  0-C ,  1-N ) :   1.1381 B(  0-C ,  2-C ) :  -0.1078 B(  0-C ,  7-C ) :   0.7766
B(  0-C , 12-C ) :  -0.1415 B(  0-C , 13-C ) :   0.1305 B(  0-C , 18-H ) :   1.1484
B(  0-C , 19-H ) :   1.0218 B(  1-N ,  2-C ) :   1.0107 B(  1-N ,  4-C ) :  -0.1333
B(  1-N , 12-C ) :   0.6505 B(  1-N , 13-C ) :  -0.4424 B(  1-N , 17-C ) :  -0.3597
B(  1-N , 30-H ) :  -0.1247 B(  1-N , 34-H ) :   0.1059 B(  2-C ,  3-C ) :   0.8676
B(  2-C ,  4-C ) :   0.1395 B(  2-C , 12-C ) :  -0.4075 B(  2-C , 17-C ) :   0.1053
B(  2-C , 20-H ) :   1.0613 B(  2-C , 21-H ) :   1.1306 B(  3-C ,  4-C ) :   0.7066
B(  3-C ,  8-C ) :   0.1096 B(  3-C , 22-H ) :   0.8643 B(  3-C , 23-H ) :   1.0981
B(  4-C ,  5-C ) :   0.4891 B(  4-C ,  8-C ) :   1.0979 B(  4-C , 11-H ) :   1.1113
B(  4-C , 22-H ) :  -0.1035 B(  5-C ,  6-C ) :   0.7913 B(  5-C ,  9-C ) :   0.9777
B(  5-C , 10-H ) :   0.8932 B(  6-C ,  7-C ) :   0.8859 B(  6-C , 24-H ) :   0.9440
B(  6-C , 25-H ) :   1.1218 B(  7-C , 26-H ) :   0.8029 B(  7-C , 27-H ) :   1.1743
B(  8-C ,  9-C ) :   1.3442 B(  8-C , 28-H ) :   0.5561 B(  9-C , 29-H ) :   0.7012
B( 12-C , 13-C ) :   0.6979 B( 12-C , 14-C ) :  -0.2139 B( 12-C , 15-C ) :  -0.1940
B( 12-C , 16-C ) :  -0.1035 B( 12-C , 17-C ) :   0.6194 B( 12-C , 30-H ) :  -0.2594
B( 12-C , 31-H ) :   0.1452 B( 12-C , 33-H ) :   0.1555 B( 12-C , 34-H ) :  -0.4058
B( 13-C , 14-C ) :   1.2107 B( 13-C , 15-C ) :   0.1789 B( 13-C , 17-C ) :  -0.3020
B( 13-C , 30-H ) :   1.1881 B( 14-C , 15-C ) :   1.1946 B( 14-C , 30-H ) :  -0.1103
B( 14-C , 31-H ) :   0.9347 B( 14-C , 32-H ) :  -0.1253 B( 15-C , 16-C ) :   1.1519
B( 15-C , 17-C ) :   0.1719 B( 15-C , 32-H ) :   0.4760 B( 16-C , 17-C ) :   1.0440
B( 16-C , 33-H ) :   0.9731 B( 17-C , 33-H ) :  -0.1250 B( 17-C , 34-H ) :   1.3988

MP2 TOTAL ENERGY:     -636.322885458 Eh
FINAL SINGLE POINT ENERGY      -636.322885457682

DIPOLE MOMENT
-------------
                                X             Y             Z
Electronic contribution:     -5.17055      -2.27157      -1.33149
Nuclear contribution   :      5.59449       2.45123       1.63140
                        -----------------------------------------
Total Dipole Moment    :      0.42394       0.17966       0.29991
                        -----------------------------------------
Magnitude (a.u.)       :      0.54950
Magnitude (Debye)      :      1.39671

Rotational constants in cm-1:     0.032388     0.012450     0.011440
Rotational constants in MHz :   970.970060   373.227968   342.967395

                             ****ORCA TERMINATED NORMALLY****
TOTAL RUN TIME: 0 days 0 hours 33 minutes 50 seconds 747 msec
