                         Program Version 4.2.1 -  RELEASE  -
|  1> %pal
|  2>  nprocs 32
|  3> end
|  4> !RI-MP2 aug-cc-pVTZ aug-cc-pVTZ/C TightSCF
|  5> %maxcore 4500
|  6> *xyzfile 0 1  10_57P.xyz
|  7>
|  8>
|  9>                          ****END OF INPUT****

CARTESIAN COORDINATES (ANGSTROEM)
---------------------------------
  C     -1.122784    0.000000    0.019248
  C     -0.338912   -1.284419    0.040021
  C     -0.338912    1.284419    0.040022
  C      0.204310   -1.597390   -1.326733
  C      0.204310    1.597391   -1.326732
  C      0.575605   -0.732723   -2.274362
  C      0.575606    0.732725   -2.274362
  H      0.307161   -2.655680   -1.542948
  H      0.949680   -1.169256   -3.194906
  H      0.949680    1.169258   -3.194906
  H      0.307161    2.655681   -1.542946
  C      0.799922    1.172809    1.123619
  C      0.799922   -1.172810    1.123618
  H     -1.003990   -2.098366    0.332893
  C      1.673449    0.000000    0.745133
  C      0.179518   -0.665182    2.411412
  H      1.307828   -2.130488    1.211223
  C      0.179518    0.665180    2.411413
  H     -0.269238   -1.305663    3.159584
  H     -0.269238    1.305661    3.159585
  C      2.889735    0.000000    0.211543
  C      3.635567    1.259115   -0.128966
  C      3.635567   -1.259115   -0.128967
  H      3.096595   -2.164309    0.141922
  H      4.607409   -1.276413    0.373464
  H      3.833156   -1.299053   -1.204486
  H      3.096602    2.164309    0.141938
  H      3.833143    1.299062   -1.204487
  H      4.607415    1.276406    0.373452
  C     -2.468305    0.000000   -0.038761
  C     -3.222977   -1.216162   -0.075445
  N     -3.820442   -2.196567   -0.100790
  C     -3.222977    1.216162   -0.075444
  N     -3.820442    2.196567   -0.100789
  H     -1.003990    2.098366    0.332894
  H      1.307828    2.130487    1.211224

 Total Charge           Charge          ....    0
 Multiplicity           Mult            ....    1
 Number of Electrons    NEL             ....  138
 Basis Dimension        Dim             .... 1288

ORBITAL ENERGIES
----------------

  NO   OCC          E(Eh)            E(eV)
   0   2.0000     -15.579752      -423.9466
   1   2.0000     -15.579751      -423.9466
   2   2.0000     -11.319518      -308.0197
   3   2.0000     -11.311488      -307.8012
   4   2.0000     -11.286521      -307.1218
   5   2.0000     -11.286500      -307.1213
   6   2.0000     -11.275348      -306.8178
   7   2.0000     -11.275331      -306.8174
   8   2.0000     -11.264423      -306.5205
   9   2.0000     -11.264413      -306.5203
  10   2.0000     -11.257494      -306.3320
  11   2.0000     -11.257483      -306.3317
  12   2.0000     -11.252988      -306.2094
  13   2.0000     -11.252204      -306.1880
  14   2.0000     -11.249498      -306.1144
  15   2.0000     -11.247737      -306.0665
  16   2.0000     -11.246530      -306.0336
  17   2.0000     -11.237472      -305.7872
  18   2.0000     -11.230665      -305.6019
  19   2.0000     -11.230637      -305.6012
  20   2.0000      -1.248909       -33.9845
  21   2.0000      -1.228907       -33.4403
  22   2.0000      -1.221360       -33.2349
  23   2.0000      -1.152411       -31.3587
  24   2.0000      -1.112714       -30.2785
  25   2.0000      -1.099024       -29.9060
  26   2.0000      -1.093128       -29.7455
  27   2.0000      -1.026600       -27.9352
  28   2.0000      -0.999496       -27.1977
  29   2.0000      -0.969855       -26.3911
  30   2.0000      -0.952966       -25.9315
  31   2.0000      -0.901734       -24.5374
  32   2.0000      -0.887311       -24.1450
  33   2.0000      -0.858521       -23.3616
  34   2.0000      -0.795780       -21.6543
  35   2.0000      -0.782187       -21.2844
  36   2.0000      -0.759451       -20.6657
  37   2.0000      -0.751337       -20.4449
  38   2.0000      -0.708981       -19.2924
  39   2.0000      -0.701049       -19.0765
  40   2.0000      -0.680581       -18.5196
  41   2.0000      -0.661731       -18.0066
  42   2.0000      -0.640297       -17.4234
  43   2.0000      -0.624907       -17.0046
  44   2.0000      -0.619390       -16.8544
  45   2.0000      -0.599430       -16.3113
  46   2.0000      -0.596482       -16.2311
  47   2.0000      -0.585732       -15.9386
  48   2.0000      -0.571908       -15.5624
  49   2.0000      -0.571689       -15.5564
  50   2.0000      -0.567053       -15.4303
  51   2.0000      -0.555215       -15.1082
  52   2.0000      -0.553761       -15.0686
  53   2.0000      -0.548112       -14.9149
  54   2.0000      -0.546648       -14.8750
  55   2.0000      -0.533389       -14.5143
  56   2.0000      -0.524518       -14.2729
  57   2.0000      -0.519200       -14.1282
  58   2.0000      -0.503361       -13.6971
  59   2.0000      -0.490069       -13.3355
  60   2.0000      -0.489186       -13.3114
  61   2.0000      -0.487264       -13.2591
  62   2.0000      -0.475952       -12.9513
  63   2.0000      -0.454469       -12.3667
  64   2.0000      -0.452092       -12.3021
  65   2.0000      -0.384300       -10.4573
  66   2.0000      -0.369515       -10.0550
  67   2.0000      -0.344296        -9.3688
  68   2.0000      -0.335859        -9.1392
  69   0.0000       0.017572         0.4782
  70   0.0000       0.024419         0.6645
  71   0.0000       0.025778         0.7015
  72   0.0000       0.029952         0.8150
  73   0.0000       0.037764         1.0276

MULLIKEN ATOMIC CHARGES
-----------------------
   0 C :   -0.718642
   1 C :   -0.339887
   2 C :   -0.339884
   3 C :    0.057949
   4 C :    0.057950
   5 C :   -0.368859
   6 C :   -0.368812
   7 H :   -0.049881
   8 H :    0.034506
   9 H :    0.034740
  10 H :   -0.049857
  11 C :   -0.180223
  12 C :   -0.180298
  13 H :   -0.262912
  14 C :   -0.459376
  15 C :   -0.824157
  16 H :    0.257446
  17 C :   -0.824293
  18 H :    0.571327
  19 H :    0.571423
  20 C :    2.065783
  21 C :   -1.270365
  22 C :   -1.270453
  23 H :    0.402299
  24 H :    0.195607
  25 H :    0.206978
  26 H :    0.402333
  27 H :    0.206991
  28 H :    0.195594
  29 C :    2.222476
  30 C :    1.073192
  31 N :   -1.058221
  32 C :    1.073184
  33 N :   -1.058211
  34 H :   -0.262837
  35 H :    0.257387
Sum of atomic charges:    0.0000000

LOEWDIN ATOMIC CHARGES
----------------------
   0 C :   -0.076673
   1 C :    0.033525
   2 C :    0.033526
   3 C :    0.265800
   4 C :    0.265800
   5 C :    0.228337
   6 C :    0.228338
   7 H :   -0.159111
   8 H :   -0.187254
   9 H :   -0.187254
  10 H :   -0.159111
  11 C :    0.035775
  12 C :    0.035775
  13 H :   -0.162495
  14 C :   -0.067094
  15 C :    0.283445
  16 H :   -0.134926
  17 C :    0.283445
  18 H :   -0.150659
  19 H :   -0.150659
  20 C :   -0.066853
  21 C :    0.587154
  22 C :    0.587154
  23 H :   -0.187405
  24 H :   -0.157438
  25 H :   -0.155987
  26 H :   -0.187404
  27 H :   -0.155987
  28 H :   -0.157439
  29 C :   -0.168257
  30 C :   -0.252086
  31 N :    0.302763
  32 C :   -0.252086
  33 N :    0.302763
  34 H :   -0.162495
  35 H :   -0.134926

  Mayer bond orders larger than 0.100000
B(  0-C ,  1-C ) :   1.4926 B(  0-C ,  2-C ) :   1.4930 B(  0-C , 11-C ) :   0.2467
B(  0-C , 12-C ) :   0.2469 B(  0-C , 13-H ) :   0.2058 B(  0-C , 14-C ) :  -0.3979
B(  0-C , 15-C ) :  -0.2740 B(  0-C , 17-C ) :  -0.2740 B(  0-C , 20-C ) :   0.1182
B(  0-C , 29-C ) :  -0.3608 B(  0-C , 30-C ) :   0.8231 B(  0-C , 31-N ) :  -0.1024
B(  0-C , 32-C ) :   0.8232 B(  0-C , 33-N ) :  -0.1022 B(  0-C , 34-H ) :   0.2057
B(  1-C ,  2-C ) :   0.3787 B(  1-C ,  3-C ) :   0.7073 B(  1-C ,  4-C ) :   0.1250
B(  1-C ,  7-H ) :  -0.1444 B(  1-C , 11-C ) :   0.1083 B(  1-C , 12-C ) :   1.2093
B(  1-C , 13-H ) :   1.1301 B(  1-C , 14-C ) :   0.3029 B(  1-C , 15-C ) :   0.1171
B(  1-C , 20-C ) :  -0.1655 B(  1-C , 29-C ) :  -0.7648 B(  1-C , 31-N ) :   0.1564
B(  1-C , 32-C ) :  -0.1038 B(  1-C , 34-H ) :   0.3006 B(  2-C ,  3-C ) :   0.1250
B(  2-C ,  4-C ) :   0.7074 B(  2-C , 10-H ) :  -0.1442 B(  2-C , 11-C ) :   1.2093
B(  2-C , 12-C ) :   0.1086 B(  2-C , 13-H ) :   0.3004 B(  2-C , 14-C ) :   0.3027
B(  2-C , 17-C ) :   0.1171 B(  2-C , 20-C ) :  -0.1655 B(  2-C , 29-C ) :  -0.7652
B(  2-C , 30-C ) :  -0.1037 B(  2-C , 33-N ) :   0.1564 B(  2-C , 34-H ) :   1.1300
B(  3-C ,  4-C ) :   0.7184 B(  3-C ,  5-C ) :   1.1719 B(  3-C ,  6-C ) :  -0.2622
B(  3-C ,  7-H ) :   1.3154 B(  3-C ,  8-H ) :  -0.1924 B(  4-C ,  5-C ) :  -0.2623
B(  4-C ,  6-C ) :   1.1721 B(  4-C ,  9-H ) :  -0.1923 B(  4-C , 10-H ) :   1.3153
B(  5-C ,  6-C ) :   1.2845 B(  5-C ,  7-H ) :  -0.1161 B(  5-C ,  8-H ) :   1.1794
B(  5-C ,  9-H ) :  -0.2278 B(  5-C , 13-H ) :  -0.1239 B(  6-C ,  8-H ) :  -0.2278
B(  6-C ,  9-H ) :   1.1790 B(  6-C , 10-H ) :  -0.1161 B(  6-C , 34-H ) :  -0.1239
B( 11-C , 14-C ) :   1.5829 B( 11-C , 17-C ) :   0.9561 B( 11-C , 20-C ) :  -0.4853
B( 11-C , 35-H ) :   0.8696 B( 12-C , 14-C ) :   1.5825 B( 12-C , 15-C ) :   0.9562
B( 12-C , 16-H ) :   0.8696 B( 12-C , 20-C ) :  -0.4851 B( 13-H , 29-C ) :  -0.4722
B( 14-C , 16-H ) :   0.1056 B( 14-C , 20-C ) :   0.7360 B( 14-C , 21-C ) :   0.1679
B( 14-C , 22-C ) :   0.1679 B( 14-C , 35-H ) :   0.1058 B( 15-C , 16-H ) :  -0.1199
B( 15-C , 17-C ) :   1.4367 B( 15-C , 18-H ) :   0.5588 B( 16-H , 20-C ) :  -0.1230
B( 17-C , 19-H ) :   0.5586 B( 17-C , 35-H ) :  -0.1199 B( 20-C , 21-C ) :   0.1110
B( 20-C , 22-C ) :   0.1109 B( 20-C , 24-H ) :  -0.1535 B( 20-C , 25-H ) :  -0.1072
B( 20-C , 27-H ) :  -0.1072 B( 20-C , 28-H ) :  -0.1535 B( 20-C , 35-H ) :  -0.1231
B( 21-C , 26-H ) :   0.8705 B( 21-C , 27-H ) :   1.1826 B( 21-C , 28-H ) :   1.2067
B( 22-C , 23-H ) :   0.8705 B( 22-C , 24-H ) :   1.2067 B( 22-C , 25-H ) :   1.1826
B( 29-C , 30-C ) :   0.4495 B( 29-C , 31-N ) :   0.4133 B( 29-C , 32-C ) :   0.4497
B( 29-C , 33-N ) :   0.4132 B( 29-C , 34-H ) :  -0.4721 B( 30-C , 31-N ) :   1.1654
B( 30-C , 32-C ) :  -0.2459 B( 32-C , 33-N ) :   1.1655

MP2 TOTAL ENERGY:     -803.301048837 Eh
FINAL SINGLE POINT ENERGY      -803.301048836859

DIPOLE MOMENT
-------------
                                X             Y             Z
Electronic contribution:    -22.56150      -0.00000       1.56597
Nuclear contribution   :     25.49765       0.00000      -1.44120
                        -----------------------------------------
Total Dipole Moment    :      2.93615       0.00000       0.12477
                        -----------------------------------------
Magnitude (a.u.)       :      2.93880
Magnitude (Debye)      :      7.46982

Rotational constants in cm-1:     0.020627     0.009804     0.009667
Rotational constants in MHz :   618.372743   293.909639   289.796113

                             ****ORCA TERMINATED NORMALLY****
TOTAL RUN TIME: 0 days 1 hours 1 minutes 57 seconds 907 msec
