                         Program Version 4.2.1 -  RELEASE  -
|  1> %pal
|  2>  nprocs 32
|  3> end
|  4> !RI-MP2 aug-cc-pVTZ aug-cc-pVTZ/C TightSCF
|  5> %maxcore 4500
|  6> *xyzfile 0 1  06_28TS.xyz
|  7>
|  8>
|  9>                          ****END OF INPUT****

CARTESIAN COORDINATES (ANGSTROEM)
---------------------------------
  C      0.672391    2.879273   -0.664082
  C      0.995994    1.686039    0.260341
  C     -2.022595    1.177180   -0.170494
  H      0.881588    2.597284   -1.703591
  C      0.530323    1.902184    1.719124
  H      1.325573    1.566860    2.389722
  H      0.403684    2.970691    1.923013
  H     -3.037444    0.852513   -0.418168
  H      2.092824    1.638815    0.285983
  C     -0.731326    1.138121    2.129393
  H     -0.510130    0.069092    2.078764
  H     -0.926555    1.341900    3.187325
  C     -2.026495    1.406436    1.358984
  H     -2.791053    0.761569    1.803158
  H     -2.365280    2.429145    1.556172
  C     -1.868862    2.489482   -0.965448
  H     -1.774176    2.237216   -2.028008
  C     -0.742944    3.437502   -0.570519
  H     -0.806915    4.323441   -1.210593
  H     -0.919661    3.801844    0.445406
  H     -2.809901    3.043229   -0.870953
  H      1.364698    3.695986   -0.427969
  C     -1.059600    0.059276   -0.659652
  H     -1.055061    0.141133   -1.760246
  Si    -1.822057   -1.664026   -0.492634
  C     -0.839253   -2.913235   -1.508528
  H      0.166298   -3.105556   -1.130927
  H     -1.366436   -3.871055   -1.529381
  H     -0.739241   -2.569062   -2.541106
  C     -3.561438   -1.639967   -1.215606
  H     -3.953874   -2.658101   -1.286300
  H     -4.258945   -1.063974   -0.603746
  H     -3.570218   -1.211807   -2.221530
  C     -1.971649   -2.278997    1.281878
  H     -2.602922   -1.614024    1.875276
  H     -2.435553   -3.269299    1.292568
  H     -1.012853   -2.360277    1.795048
  B      0.476057    0.298580   -0.326479
  C      1.525759   -1.114639    0.582927
  H      0.716508   -1.818508    0.455687
  C      2.247108   -1.165809    1.854816
  H      3.157537   -0.575191    1.909140
  C      1.854286   -1.836480    2.934097
  H      0.958238   -2.446863    2.934526
  H      2.416939   -1.792660    3.857644
  C      2.179143   -0.778145   -0.612949
  O      1.403117   -0.219947   -1.475716
  O      3.478616   -0.771750   -0.776623
  C      4.002878   -0.062845   -1.914384
  H      3.732008   -0.579983   -2.833333
  H      3.612142    0.953213   -1.934647
  H      5.080514   -0.062791   -1.780349

 Total Charge           Charge          ....    0
 Multiplicity           Mult            ....    1
 Number of Electrons    NEL             ....  168
 Basis Dimension        Dim             .... 1683

ORBITAL ENERGIES
----------------

  NO   OCC          E(Eh)            E(eV)
   0   2.0000     -68.741316     -1870.5463
   1   2.0000     -20.637321      -561.5700
   2   2.0000     -20.590414      -560.2936
   3   2.0000     -11.409505      -310.4684
   4   2.0000     -11.308236      -307.7127
   5   2.0000     -11.236272      -305.7545
   6   2.0000     -11.218052      -305.2587
   7   2.0000     -11.214399      -305.1593
   8   2.0000     -11.213471      -305.1341
   9   2.0000     -11.204379      -304.8867
  10   2.0000     -11.203841      -304.8720
  11   2.0000     -11.202524      -304.8362
  12   2.0000     -11.201852      -304.8179
  13   2.0000     -11.201309      -304.8031
  14   2.0000     -11.200706      -304.7867
  15   2.0000     -11.189026      -304.4689
  16   2.0000     -11.188937      -304.4664
  17   2.0000     -11.186579      -304.4023
  18   2.0000     -11.184627      -304.3492
  19   2.0000     -11.170953      -303.9771
  20   2.0000      -7.609280      -207.0590
  21   2.0000      -6.088334      -165.6720
  22   2.0000      -4.194638      -114.1419
  23   2.0000      -4.194608      -114.1411
  24   2.0000      -4.194288      -114.1324
  25   2.0000      -1.502749       -40.8919
  26   2.0000      -1.407652       -38.3042
  27   2.0000      -1.104324       -30.0502
  28   2.0000      -1.091023       -29.6882
  29   2.0000      -1.036884       -28.2151
  30   2.0000      -1.032142       -28.0860
  31   2.0000      -1.017972       -27.7004
  32   2.0000      -0.972125       -26.4529
  33   2.0000      -0.958047       -26.0698
  34   2.0000      -0.942228       -25.6393
  35   2.0000      -0.917083       -24.9551
  36   2.0000      -0.913492       -24.8574
  37   2.0000      -0.905559       -24.6415
  38   2.0000      -0.868396       -23.6303
  39   2.0000      -0.824560       -22.4374
  40   2.0000      -0.793038       -21.5797
  41   2.0000      -0.785364       -21.3708
  42   2.0000      -0.773296       -21.0425
  43   2.0000      -0.726243       -19.7621
  44   2.0000      -0.725069       -19.7301
  45   2.0000      -0.704937       -19.1823
  46   2.0000      -0.694089       -18.8871
  47   2.0000      -0.655910       -17.8482
  48   2.0000      -0.644076       -17.5262
  49   2.0000      -0.625941       -17.0327
  50   2.0000      -0.620446       -16.8832
  51   2.0000      -0.615769       -16.7559
  52   2.0000      -0.609548       -16.5866
  53   2.0000      -0.588621       -16.0172
  54   2.0000      -0.582685       -15.8557
  55   2.0000      -0.573603       -15.6085
  56   2.0000      -0.567295       -15.4369
  57   2.0000      -0.562144       -15.2967
  58   2.0000      -0.558987       -15.2108
  59   2.0000      -0.557246       -15.1634
  60   2.0000      -0.553237       -15.0543
  61   2.0000      -0.546479       -14.8705
  62   2.0000      -0.544435       -14.8148
  63   2.0000      -0.535801       -14.5799
  64   2.0000      -0.530918       -14.4470
  65   2.0000      -0.527526       -14.3547
  66   2.0000      -0.522265       -14.2115
  67   2.0000      -0.514724       -14.0064
  68   2.0000      -0.504645       -13.7321
  69   2.0000      -0.492014       -13.3884
  70   2.0000      -0.479969       -13.0606
  71   2.0000      -0.474924       -12.9233
  72   2.0000      -0.469232       -12.7684
  73   2.0000      -0.459396       -12.5008
  74   2.0000      -0.454662       -12.3720
  75   2.0000      -0.448768       -12.2116
  76   2.0000      -0.428243       -11.6531
  77   2.0000      -0.421127       -11.4594
  78   2.0000      -0.417250       -11.3539
  79   2.0000      -0.410205       -11.1622
  80   2.0000      -0.405145       -11.0246
  81   2.0000      -0.392739       -10.6870
  82   2.0000      -0.370267       -10.0755
  83   2.0000      -0.307001        -8.3539
  84   0.0000       0.020968         0.5706
  85   0.0000       0.026992         0.7345
  86   0.0000       0.029940         0.8147
  87   0.0000       0.030955         0.8423
  88   0.0000       0.038542         1.0488

MULLIKEN ATOMIC CHARGES
-----------------------
   0 C :   -0.915823
   1 C :    0.665939
   2 C :   -0.198554
   3 H :   -0.001163
   4 C :   -0.796789
   5 H :    0.049447
   6 H :   -0.145920
   7 H :    0.211269
   8 H :    0.257557
   9 C :   -0.439661
  10 H :    0.527701
  11 H :    0.535023
  12 C :   -0.561217
  13 H :    0.031463
  14 H :    0.069055
  15 C :   -0.778807
  16 H :    0.042370
  17 C :   -0.448372
  18 H :    0.424852
  19 H :   -0.012758
  20 H :    0.117727
  21 H :    0.166618
  22 C :    1.263071
  23 H :    0.355666
  24 Si:    3.832806
  25 C :   -1.750765
  26 H :    0.225531
  27 H :    0.136436
  28 H :    0.207041
  29 C :   -2.319021
  30 H :   -0.016204
  31 H :    0.238931
  32 H :    0.140715
  33 C :   -1.428229
  34 H :    0.167796
  35 H :    0.036643
  36 H :    0.489671
  37 B :    1.623842
  38 C :    0.487569
  39 H :    0.003792
  40 C :    0.044759
  41 H :    0.293725
  42 C :   -1.466025
  43 H :    0.645060
  44 H :    0.127031
  45 C :    0.412609
  46 O :   -1.724839
  47 O :   -0.908791
  48 C :   -1.145682
  49 H :    0.366989
  50 H :    0.495355
  51 H :    0.364562
Sum of atomic charges:    0.0000000

LOEWDIN ATOMIC CHARGES
----------------------
   0 C :    0.314070
   1 C :    0.126367
   2 C :    0.000697
   3 H :   -0.129519
   4 C :    0.329605
   5 H :   -0.143888
   6 H :   -0.145519
   7 H :   -0.175329
   8 H :   -0.155228
   9 C :    0.316150
  10 H :   -0.178870
  11 H :   -0.125330
  12 C :    0.336975
  13 H :   -0.148319
  14 H :   -0.141471
  15 C :    0.323737
  16 H :   -0.136220
  17 C :    0.302800
  18 H :   -0.134193
  19 H :   -0.164478
  20 H :   -0.133420
  21 H :   -0.133825
  22 C :    0.170654
  23 H :   -0.208352
  24 Si:    0.525084
  25 C :    0.604964
  26 H :   -0.240230
  27 H :   -0.222863
  28 H :   -0.216758
  29 C :    0.593532
  30 H :   -0.225548
  31 H :   -0.228929
  32 H :   -0.217242
  33 C :    0.610807
  34 H :   -0.226776
  35 H :   -0.216401
  36 H :   -0.256541
  37 B :   -0.833263
  38 C :    0.176926
  39 H :   -0.246094
  40 C :    0.181501
  41 H :   -0.176382
  42 C :    0.538376
  43 H :   -0.227199
  44 H :   -0.223470
  45 C :   -0.683463
  46 O :    0.705184
  47 O :    0.637412
  48 C :    0.411835
  49 H :   -0.164640
  50 H :   -0.172560
  51 H :   -0.174355

  Mayer bond orders larger than 0.100000
B(  0-C ,  1-C ) :   0.6669 B(  0-C ,  3-H ) :   1.4278 B(  0-C ,  8-H ) :  -0.1925
B(  0-C , 17-C ) :   0.6758 B(  0-C , 21-H ) :   1.1467 B(  0-C , 46-O ) :   0.1221
B(  1-C ,  2-C ) :   0.3090 B(  1-C ,  4-C ) :   0.6536 B(  1-C ,  5-H ) :  -0.1066
B(  1-C ,  6-H ) :  -0.1111 B(  1-C ,  8-H ) :   1.1213 B(  1-C , 17-C ) :   0.1574
B(  1-C , 21-H ) :  -0.1067 B(  1-C , 22-C ) :   0.1543 B(  1-C , 37-B ) :   0.8742
B(  1-C , 40-C ) :   0.1421 B(  1-C , 45-C ) :  -0.1393 B(  1-C , 46-O ) :  -0.3091
B(  1-C , 47-O ) :   0.1664 B(  2-C ,  7-H ) :   0.9354 B(  2-C , 12-C ) :   0.9457
B(  2-C , 15-C ) :   0.8217 B(  2-C , 17-C ) :   0.1521 B(  2-C , 20-H ) :  -0.1057
B(  2-C , 22-C ) :   0.8261 B(  2-C , 23-H ) :  -0.1013 B(  2-C , 25-C ) :   0.1960
B(  2-C , 37-B ) :   0.3218 B(  3-H , 21-H ) :   0.1329 B(  3-H , 37-B ) :  -0.1917
B(  4-C ,  5-H ) :   1.2753 B(  4-C ,  6-H ) :   1.3497 B(  4-C ,  8-H ) :  -0.3398
B(  4-C ,  9-C ) :   0.6867 B(  4-C , 10-H ) :   0.1647 B(  4-C , 11-H ) :  -0.2074
B(  4-C , 12-C ) :   0.1057 B(  4-C , 37-B ) :   0.3544 B(  5-H ,  8-H ) :  -0.1367
B(  7-H , 12-C ) :  -0.1958 B(  7-H , 15-C ) :  -0.2283 B(  7-H , 22-C ) :  -0.2549
B(  7-H , 24-Si) :  -0.1652 B(  7-H , 29-C ) :   0.4009 B(  7-H , 37-B ) :   0.2051
B(  8-H , 37-B ) :  -0.4697 B(  9-C , 10-H ) :   0.9942 B(  9-C , 11-H ) :   0.7617
B(  9-C , 12-C ) :   0.8238 B( 10-H , 12-C ) :   0.1226 B( 11-H , 12-C ) :  -0.1428
B( 12-C , 13-H ) :   1.2043 B( 12-C , 14-H ) :   1.1657 B( 12-C , 24-Si) :  -0.1080
B( 15-C , 16-H ) :   1.2533 B( 15-C , 17-C ) :   0.7071 B( 15-C , 20-H ) :   1.2113
B( 15-C , 24-Si) :  -0.2105 B( 16-H , 20-H ) :   0.1185 B( 16-H , 22-C ) :  -0.1808
B( 17-C , 18-H ) :   0.8217 B( 17-C , 19-H ) :   1.2867 B( 17-C , 37-B ) :  -0.1057
B( 22-C , 23-H ) :   0.8378 B( 22-C , 24-Si) :   0.7580 B( 22-C , 25-C ) :  -0.2745
B( 22-C , 29-C ) :   0.1153 B( 22-C , 37-B ) :   1.0420 B( 22-C , 38-C ) :  -0.3177
B( 22-C , 39-H ) :  -0.2347 B( 22-C , 40-C ) :   0.1035 B( 22-C , 46-O ) :  -0.3711
B( 23-H , 24-Si) :  -0.4584 B( 23-H , 37-B ) :  -0.1738 B( 23-H , 46-O ) :   0.1027
B( 24-Si, 25-C ) :  -0.6489 B( 24-Si, 27-H ) :  -0.1632 B( 24-Si, 28-H ) :  -0.1877
B( 24-Si, 29-C ) :  -3.2095 B( 24-Si, 30-H ) :  -0.4399 B( 24-Si, 31-H ) :  -0.2358
B( 24-Si, 32-H ) :  -0.3950 B( 24-Si, 34-H ) :  -0.1277 B( 24-Si, 35-H ) :  -0.1748
B( 24-Si, 36-H ) :   0.1539 B( 24-Si, 37-B ) :   0.2258 B( 24-Si, 38-C ) :   0.1094
B( 24-Si, 46-O ) :   0.1310 B( 25-C , 26-H ) :   1.1431 B( 25-C , 27-H ) :   1.1879
B( 25-C , 28-H ) :   1.1382 B( 25-C , 29-C ) :   0.1125 B( 25-C , 33-C ) :   0.1943
B( 25-C , 37-B ) :   0.1653 B( 29-C , 30-H ) :   1.5674 B( 29-C , 31-H ) :   1.1688
B( 29-C , 32-H ) :   1.3540 B( 29-C , 33-C ) :   0.1509 B( 29-C , 37-B ) :   0.2299
B( 33-C , 34-H ) :   1.1544 B( 33-C , 35-H ) :   1.1792 B( 33-C , 36-H ) :   0.9049
B( 33-C , 37-B ) :  -0.1321 B( 37-B , 38-C ) :   0.1877 B( 37-B , 39-H ) :   0.1452
B( 37-B , 41-H ) :  -0.1287 B( 37-B , 42-C ) :   0.2286 B( 37-B , 45-C ) :  -0.6298
B( 37-B , 46-O ) :  -2.0091 B( 37-B , 47-O ) :  -0.3164 B( 38-C , 39-H ) :   1.1696
B( 38-C , 40-C ) :   0.7156 B( 38-C , 41-H ) :  -0.1098 B( 38-C , 42-C ) :   0.5149
B( 38-C , 45-C ) :   0.8163 B( 38-C , 47-O ) :   0.1094 B( 39-H , 40-C ) :  -0.2892
B( 39-H , 42-C ) :   0.1270 B( 39-H , 45-C ) :  -0.1251 B( 39-H , 46-O ) :   0.1818
B( 40-C , 41-H ) :   1.0946 B( 40-C , 42-C ) :   0.5177 B( 40-C , 44-H ) :  -0.1876
B( 40-C , 45-C ) :  -0.1580 B( 41-H , 42-C ) :  -0.2065 B( 42-C , 43-H ) :   0.5378
B( 42-C , 44-H ) :   1.3332 B( 45-C , 46-O ) :   2.0553 B( 45-C , 47-O ) :   0.3192
B( 47-O , 48-C ) :   1.0821 B( 48-C , 49-H ) :   0.8998 B( 48-C , 50-H ) :   0.7311
B( 48-C , 51-H ) :   0.9426

MP2 TOTAL ENERGY:    -1129.125966171 Eh
FINAL SINGLE POINT ENERGY     -1129.125966171089

DIPOLE MOMENT
-------------
                                X             Y             Z
Electronic contribution:     12.44603      -3.28886      -4.43146
Nuclear contribution   :    -11.56032       3.36763       3.87902
                        -----------------------------------------
Total Dipole Moment    :      0.88571       0.07877      -0.55244
                        -----------------------------------------
Magnitude (a.u.)       :      1.04684
Magnitude (Debye)      :      2.66087

Rotational constants in cm-1:     0.010917     0.009158     0.007473
Rotational constants in MHz :   327.270563   274.557130   224.047914

                             ****ORCA TERMINATED NORMALLY****
TOTAL RUN TIME: 0 days 2 hours 11 minutes 46 seconds 451 msec
