                         Program Version 4.2.1 -  RELEASE  -
|  1> %pal
|  2>  nprocs 32
|  3> end
|  4> !RI-MP2 aug-cc-pVTZ aug-cc-pVTZ/C TightSCF
|  5> %maxcore 4500
|  6> *xyzfile 0 2  04_29P1.xyz
|  7>
|  8>
|  9>                          ****END OF INPUT****

CARTESIAN COORDINATES (ANGSTROEM)
---------------------------------
  C     -1.771319   -1.290705   -0.819498
  S     -2.128092    0.306438   -0.038520
  C     -0.654647    0.472683    1.052066
  C      0.594036    0.646301    0.279658
  C      0.877229    1.938375   -0.407345
  C      1.490735   -0.502168    0.174440
  O      1.219479   -1.589562    0.671503
  H     -0.924725   -1.225677   -1.500828
  H     -1.571285   -2.050345   -0.066044
  H     -2.661983   -1.563760   -1.384288
  H      0.005768    2.591516   -0.377261
  H      1.141683    1.793833   -1.459342
  H      1.710618    2.471844    0.068643
  H     -0.872002    1.357330    1.654519
  H     -0.597682   -0.401354    1.696820
  N      2.649932   -0.322685   -0.537494
  H      2.983033    0.590745   -0.790630
  H      3.314490   -1.078777   -0.510762

 Total Charge           Charge          ....    0
 Multiplicity           Mult            ....    2
 Number of Electrons    NEL             ....   71
 Basis Dimension        Dim             ....  602

ORBITAL ENERGIES
----------------
                 SPIN UP ORBITALS
  NO   OCC          E(Eh)            E(eV)
   0   1.0000     -91.945029     -2501.9514
   1   1.0000     -20.530837      -558.6725
   2   1.0000     -15.583323      -424.0438
   3   1.0000     -11.348459      -308.8073
   4   1.0000     -11.268002      -306.6179
   5   1.0000     -11.257895      -306.3429
   6   1.0000     -11.242666      -305.9285
   7   1.0000     -11.241336      -305.8923
   8   1.0000      -8.945173      -243.4105
   9   1.0000      -6.627751      -180.3503
  10   1.0000      -6.625427      -180.2870
  11   1.0000      -6.624230      -180.2545
  12   1.0000      -1.393488       -37.9187
  13   1.0000      -1.214323       -33.0434
  14   1.0000      -1.120831       -30.4994
  15   1.0000      -1.034750       -28.1570
  16   1.0000      -0.955104       -25.9897
  17   1.0000      -0.904218       -24.6050
  18   1.0000      -0.817145       -22.2357
  19   1.0000      -0.759367       -20.6634
  20   1.0000      -0.718101       -19.5405
  21   1.0000      -0.674452       -18.3528
  22   1.0000      -0.641835       -17.4652
  23   1.0000      -0.627421       -17.0730
  24   1.0000      -0.591993       -16.1089
  25   1.0000      -0.582157       -15.8413
  26   1.0000      -0.577019       -15.7015
  27   1.0000      -0.571387       -15.5482
  28   1.0000      -0.559332       -15.2202
  29   1.0000      -0.529162       -14.3992
  30   1.0000      -0.499420       -13.5899
  31   1.0000      -0.447621       -12.1804
  32   1.0000      -0.440706       -11.9922
  33   1.0000      -0.437297       -11.8994
  34   1.0000      -0.354100        -9.6356
  35   1.0000      -0.333707        -9.0806
  36   0.0000       0.021122         0.5748
  37   0.0000       0.033071         0.8999
  38   0.0000       0.037594         1.0230
  39   0.0000       0.039559         1.0765
  40   0.0000       0.049997         1.3605

                 SPIN DOWN ORBITALS
  NO   OCC          E(Eh)            E(eV)
   0   1.0000     -91.943925     -2501.9214
   1   1.0000     -20.520570      -558.3931
   2   1.0000     -15.583348      -424.0445
   3   1.0000     -11.353359      -308.9406
   4   1.0000     -11.261503      -306.4411
   5   1.0000     -11.246511      -306.0331
   6   1.0000     -11.243997      -305.9647
   7   1.0000     -11.242745      -305.9306
   8   1.0000      -8.943919      -243.3764
   9   1.0000      -6.625109      -180.2784
  10   1.0000      -6.623736      -180.2410
  11   1.0000      -6.622678      -180.2122
  12   1.0000      -1.375449       -37.4279
  13   1.0000      -1.208301       -32.8795
  14   1.0000      -1.090680       -29.6789
  15   1.0000      -1.022566       -27.8254
  16   1.0000      -0.954685       -25.9783
  17   1.0000      -0.886650       -24.1270
  18   1.0000      -0.811505       -22.0822
  19   1.0000      -0.754229       -20.5236
  20   1.0000      -0.705608       -19.2006
  21   1.0000      -0.664817       -18.0906
  22   1.0000      -0.621623       -16.9152
  23   1.0000      -0.601953       -16.3800
  24   1.0000      -0.584301       -15.8996
  25   1.0000      -0.576424       -15.6853
  26   1.0000      -0.574323       -15.6281
  27   1.0000      -0.556204       -15.1351
  28   1.0000      -0.550137       -14.9700
  29   1.0000      -0.524079       -14.2609
  30   1.0000      -0.488947       -13.3049
  31   1.0000      -0.432734       -11.7753
  32   1.0000      -0.429875       -11.6975
  33   1.0000      -0.396332       -10.7847
  34   1.0000      -0.336555        -9.1581
  35   0.0000       0.021230         0.5777
  36   0.0000       0.033002         0.8980
  37   0.0000       0.037629         1.0239
  38   0.0000       0.039346         1.0706
  39   0.0000       0.049824         1.3558

MULLIKEN ATOMIC CHARGES AND SPIN POPULATIONS
--------------------------------------------
   0 C :   -0.706634   -0.005394
   1 S :   -0.352877    0.112324
   2 C :   -0.250065   -0.214401
   3 C :    0.578303    1.172807
   4 C :   -0.980374   -0.175823
   5 C :    0.819134   -0.227501
   6 O :   -0.990726    0.224050
   7 H :    0.264499   -0.000462
   8 H :    0.290547   -0.000147
   9 H :    0.293276   -0.000066
  10 H :    0.267034   -0.005776
  11 H :    0.221546    0.036122
  12 H :    0.264667    0.057332
  13 H :    0.324052    0.036965
  14 H :    0.153426   -0.009018
  15 N :   -0.497985    0.004919
  16 H :    0.140161   -0.001383
  17 H :    0.162017   -0.004549
Sum of atomic charges         :   -0.0000000

LOEWDIN ATOMIC CHARGES AND SPIN POPULATIONS
-------------------------------------------
   0 C :    0.218721    0.007706
   1 S :    1.177653    0.062143
   2 C :   -0.076592    0.076740
   3 C :   -0.137267    0.471134
   4 C :    0.549975    0.097966
   5 C :   -0.700398    0.077274
   6 O :    0.454445    0.167398
   7 H :   -0.243856    0.000947
   8 H :   -0.240366   -0.000167
   9 H :   -0.256415    0.002014
  10 H :   -0.179899    0.000359
  11 H :   -0.168346    0.014255
  12 H :   -0.159294    0.021932
  13 H :   -0.225114    0.009993
  14 H :   -0.243841   -0.001267
  15 N :    0.850048   -0.007040
  16 H :   -0.326237   -0.001455
  17 H :   -0.293218    0.000067

  Mayer bond orders larger than 0.100000
B(  0-C ,  1-S ) :   0.8909 B(  0-C ,  7-H ) :   0.9252 B(  0-C ,  8-H ) :   0.9190
B(  0-C ,  9-H ) :   0.9414 B(  1-S ,  2-C ) :   0.7691 B(  1-S ,  3-C ) :   0.2101
B(  1-S , 14-H ) :   0.1003 B(  2-C ,  3-C ) :   0.9230 B(  2-C , 13-H ) :   0.9286
B(  2-C , 14-H ) :   0.9929 B(  3-C ,  4-C ) :   0.6283 B(  3-C ,  5-C ) :   0.8703
B(  3-C , 15-N ) :  -0.2026 B(  4-C , 10-H ) :   1.0182 B(  4-C , 11-H ) :   1.0087
B(  4-C , 12-H ) :   0.9768 B(  5-C ,  6-O ) :   1.1003 B(  5-C , 15-N ) :   0.9539
B( 15-N , 16-H ) :   1.0493 B( 15-N , 17-H ) :   1.0204

MP2 TOTAL ENERGY:     -723.596245789 Eh
FINAL SINGLE POINT ENERGY      -723.596245789406

DIPOLE MOMENT
-------------
                                X             Y             Z
Electronic contribution:     -1.61385      -1.52392       2.21074
Nuclear contribution   :      2.65107       2.47011      -2.68354
                        -----------------------------------------
Total Dipole Moment    :      1.03721       0.94619      -0.47280
                        -----------------------------------------
Magnitude (a.u.)       :      1.48143
Magnitude (Debye)      :      3.76549

Rotational constants in cm-1:     0.085577     0.038686     0.031513
Rotational constants in MHz :  2565.543813  1159.778155   944.725175

                             ****ORCA TERMINATED NORMALLY****
TOTAL RUN TIME: 0 days 0 hours 7 minutes 36 seconds 640 msec
