                         Program Version 4.2.1 -  RELEASE  -
|  1> %pal
|  2>  nprocs 32
|  3> end
|  4> !RI-MP2 aug-cc-pVTZ aug-cc-pVTZ/C TightSCF
|  5> %maxcore 4500
|  6> *xyzfile 0 1  10_5R2.xyz
|  7>
|  8>
|  9>                          ****END OF INPUT****

CARTESIAN COORDINATES (ANGSTROEM)
---------------------------------
  C     -1.362417    0.402101    0.000033
  C     -2.216711   -0.595755    0.000036
  O     -2.978399   -1.469247    0.000038
  C      0.086920    0.136574    0.000000
  C      0.599287   -1.166565    0.000045
  C      0.991926    1.198604   -0.000074
  C      1.963007   -1.394423    0.000010
  H     -0.077278   -2.014696    0.000110
  C      2.361202    0.965565   -0.000106
  H      0.631397    2.218748   -0.000108
  C      2.855918   -0.328327   -0.000065
  H      2.333257   -2.412647    0.000046
  H      3.043153    1.807602   -0.000164
  H      3.923688   -0.508161   -0.000091
  C     -1.919346    1.807247    0.000066
  H     -1.588300    2.354960   -0.885619
  H     -1.588206    2.354950    0.885723
  H     -3.009242    1.803093    0.000123

 Total Charge           Charge          ....    0
 Multiplicity           Mult            ....    1
 Number of Electrons    NEL             ....   70
 Basis Dimension        Dim             ....  644

ORBITAL ENERGIES
----------------

  NO   OCC          E(Eh)            E(eV)
   0   2.0000     -20.628232      -561.3227
   1   2.0000     -11.374296      -309.5103
   2   2.0000     -11.262412      -306.4658
   3   2.0000     -11.251797      -306.1770
   4   2.0000     -11.247238      -306.0529
   5   2.0000     -11.239253      -305.8356
   6   2.0000     -11.238912      -305.8263
   7   2.0000     -11.236168      -305.7517
   8   2.0000     -11.234817      -305.7149
   9   2.0000     -11.231906      -305.6357
  10   2.0000      -1.474960       -40.1357
  11   2.0000      -1.171607       -31.8810
  12   2.0000      -1.107888       -30.1472
  13   2.0000      -1.022576       -27.8257
  14   2.0000      -1.008570       -27.4446
  15   2.0000      -0.938254       -25.5312
  16   2.0000      -0.839280       -22.8380
  17   2.0000      -0.825510       -22.4633
  18   2.0000      -0.747518       -20.3410
  19   2.0000      -0.719886       -19.5891
  20   2.0000      -0.667849       -18.1731
  21   2.0000      -0.651545       -17.7294
  22   2.0000      -0.644384       -17.5346
  23   2.0000      -0.625374       -17.0173
  24   2.0000      -0.603281       -16.4161
  25   2.0000      -0.591051       -16.0833
  26   2.0000      -0.586433       -15.9577
  27   2.0000      -0.557414       -15.1680
  28   2.0000      -0.550353       -14.9759
  29   2.0000      -0.515163       -14.0183
  30   2.0000      -0.503885       -13.7114
  31   2.0000      -0.494054       -13.4439
  32   2.0000      -0.398330       -10.8391
  33   2.0000      -0.344148        -9.3648
  34   2.0000      -0.294744        -8.0204
  35   0.0000       0.026412         0.7187
  36   0.0000       0.030175         0.8211
  37   0.0000       0.035081         0.9546
  38   0.0000       0.044928         1.2226
  39   0.0000       0.045434         1.2363

MULLIKEN ATOMIC CHARGES
-----------------------
   0 C :    0.902740
   1 C :    0.707947
   2 O :   -0.715338
   3 C :    1.644812
   4 C :   -1.171983
   5 C :   -0.782009
   6 C :   -0.848928
   7 H :   -0.056597
   8 C :   -0.802621
   9 H :   -0.000188
  10 C :   -0.220115
  11 H :    0.497642
  12 H :    0.470333
  13 H :    0.435988
  14 C :   -0.827853
  15 H :    0.275564
  16 H :    0.275558
  17 H :    0.215048
Sum of atomic charges:    0.0000000

LOEWDIN ATOMIC CHARGES
----------------------
   0 C :   -0.163696
   1 C :   -0.245394
   2 O :    0.442517
   3 C :   -0.150153
   4 C :    0.207373
   5 C :    0.211394
   6 C :    0.197799
   7 H :   -0.184927
   8 C :    0.198654
   9 H :   -0.195642
  10 C :    0.193143
  11 H :   -0.179301
  12 H :   -0.180065
  13 H :   -0.186458
  14 C :    0.538749
  15 H :   -0.165473
  16 H :   -0.165471
  17 H :   -0.173050

  Mayer bond orders larger than 0.100000
B(  0-C ,  1-C ) :   1.4611 B(  0-C ,  2-O ) :   0.2852 B(  0-C ,  4-C ) :   0.1883
B(  0-C ,  5-C ) :   0.1878 B(  0-C ,  6-C ) :  -0.1471 B(  0-C ,  7-H ) :  -0.3130
B(  0-C ,  8-C ) :  -0.1007 B(  0-C ,  9-H ) :  -0.1792 B(  0-C , 10-C ) :   0.2070
B(  0-C , 12-H ) :   0.1804 B(  0-C , 14-C ) :   0.5845 B(  1-C ,  2-O ) :   1.2041
B(  1-C ,  3-C ) :   0.4713 B(  1-C ,  4-C ) :   0.1555 B(  1-C ,  9-H ) :  -0.1965
B(  1-C , 11-H ) :   0.1242 B(  1-C , 12-H ) :   0.1190 B(  3-C ,  4-C ) :   0.1041
B(  3-C ,  5-C ) :   0.4012 B(  3-C ,  6-C ) :   0.1093 B(  3-C ,  7-H ) :  -0.1270
B(  3-C ,  8-C ) :   0.1114 B(  3-C , 12-H ) :  -0.1244 B(  4-C ,  5-C ) :  -0.3874
B(  4-C ,  6-C ) :   1.2992 B(  4-C ,  7-H ) :   1.8407 B(  4-C ,  8-C ) :   0.1407
B(  4-C ,  9-H ) :   0.1671 B(  4-C , 10-C ) :  -0.2052 B(  4-C , 11-H ) :  -0.1843
B(  4-C , 13-H ) :   0.1331 B(  5-C ,  6-C ) :   0.1036 B(  5-C ,  7-H ) :   0.1876
B(  5-C ,  8-C ) :   1.0027 B(  5-C ,  9-H ) :   1.7535 B(  5-C , 10-C ) :  -0.1962
B(  5-C , 12-H ) :  -0.1773 B(  5-C , 13-H ) :   0.1435 B(  5-C , 14-C ) :  -0.1313
B(  6-C ,  7-H ) :  -0.1157 B(  6-C ,  8-C ) :   0.2287 B(  6-C , 10-C ) :   1.1166
B(  6-C , 11-H ) :   0.6828 B(  6-C , 13-H ) :  -0.1774 B(  8-C ,  9-H ) :  -0.1462
B(  8-C , 10-C ) :   1.1243 B(  8-C , 12-H ) :   0.7309 B(  8-C , 13-H ) :  -0.1663
B( 10-C , 13-H ) :   0.8442 B( 14-C , 15-H ) :   1.0017 B( 14-C , 16-H ) :   1.0017
B( 14-C , 17-H ) :   1.0161

MP2 TOTAL ENERGY:     -422.129985190 Eh
FINAL SINGLE POINT ENERGY      -422.129985190323

DIPOLE MOMENT
-------------
                                X             Y             Z
Electronic contribution:     -3.27344      -4.90103      -0.00001
Nuclear contribution   :      3.60242       5.55126       0.00002
                        -----------------------------------------
Total Dipole Moment    :      0.32898       0.65024       0.00001
                        -----------------------------------------
Magnitude (a.u.)       :      0.72872
Magnitude (Debye)      :      1.85226

Rotational constants in cm-1:     0.091897     0.031111     0.023344
Rotational constants in MHz :  2755.007691   932.689827   699.846376

                             ****ORCA TERMINATED NORMALLY****
TOTAL RUN TIME: 0 days 0 hours 4 minutes 36 seconds 760 msec
