                         Program Version 4.2.1 -  RELEASE  -
|  1> %pal
|  2>  nprocs 32
|  3> end
|  4> !RI-MP2 aug-cc-pVTZ aug-cc-pVTZ/C TightSCF
|  5> %maxcore 4500
|  6> *xyzfile 0 1  05_10P1.xyz
|  7>
|  8>
|  9>                          ****END OF INPUT****

CARTESIAN COORDINATES (ANGSTROEM)
---------------------------------
  C      0.967379   -0.619298    0.000006
  C      0.948115    0.784524    0.000009
  N     -0.226664    1.484204    0.000001
  N     -0.237390   -1.300434   -0.000008
  C     -1.430687   -0.625999   -0.000016
  C     -1.331727    0.831241   -0.000010
  N     -2.539779   -1.297123   -0.000025
  C     -3.745891   -0.632963   -0.000033
  N     -3.720712    0.775899   -0.000032
  C     -2.619230    1.595359   -0.000018
  C     -0.247061   -2.761745   -0.000014
  H      0.257586   -3.134760   -0.891689
  H     -1.282151   -3.085019   -0.000031
  H      0.257557   -3.134767    0.891674
  H     -4.626329    1.227374   -0.000037
  O     -4.813262   -1.194311   -0.000041
  O     -2.692067    2.797887   -0.000015
  C      2.201609   -1.276539    0.000016
  C      3.387302   -0.565387    0.000029
  C      3.372603    0.850269    0.000033
  C      2.157474    1.492619    0.000022
  C      4.694725   -1.303162    0.000039
  H      5.292109   -1.044457    0.877887
  H      5.292120   -1.044460   -0.877803
  H      4.541700   -2.381759    0.000040
  C      4.655957    1.631837    0.000047
  H      5.263939    1.403179   -0.879025
  H      5.263920    1.403176    0.879131
  H      4.456537    2.702824    0.000047
  H      2.091784    2.573776    0.000024
  H      2.242263   -2.356058    0.000015

 Total Charge           Charge          ....    0
 Multiplicity           Mult            ....    1
 Number of Electrons    NEL             ....  134
 Basis Dimension        Dim             .... 1150

ORBITAL ENERGIES
----------------

  NO   OCC          E(Eh)            E(eV)
   0   2.0000     -20.542440      -558.9882
   1   2.0000     -20.523249      -558.4660
   2   2.0000     -15.660121      -426.1336
   3   2.0000     -15.631635      -425.3584
   4   2.0000     -15.610379      -424.7800
   5   2.0000     -15.557881      -423.3515
   6   2.0000     -11.384168      -309.7790
   7   2.0000     -11.376571      -309.5722
   8   2.0000     -11.376518      -309.5708
   9   2.0000     -11.326514      -308.2101
  10   2.0000     -11.318714      -307.9979
  11   2.0000     -11.294326      -307.3342
  12   2.0000     -11.286298      -307.1158
  13   2.0000     -11.283590      -307.0421
  14   2.0000     -11.265261      -306.5433
  15   2.0000     -11.262914      -306.4795
  16   2.0000     -11.261834      -306.4501
  17   2.0000     -11.252321      -306.1912
  18   2.0000     -11.244989      -305.9917
  19   2.0000      -1.421665       -38.6855
  20   2.0000      -1.396723       -38.0068
  21   2.0000      -1.370561       -37.2949
  22   2.0000      -1.291429       -35.1416
  23   2.0000      -1.268300       -34.5122
  24   2.0000      -1.218044       -33.1447
  25   2.0000      -1.184226       -32.2244
  26   2.0000      -1.087823       -29.6012
  27   2.0000      -1.073290       -29.2057
  28   2.0000      -1.024456       -27.8769
  29   2.0000      -0.996062       -27.1042
  30   2.0000      -0.978879       -26.6367
  31   2.0000      -0.928344       -25.2615
  32   2.0000      -0.901501       -24.5311
  33   2.0000      -0.854355       -23.2482
  34   2.0000      -0.852372       -23.1942
  35   2.0000      -0.817517       -22.2458
  36   2.0000      -0.782844       -21.3023
  37   2.0000      -0.764243       -20.7961
  38   2.0000      -0.718052       -19.5392
  39   2.0000      -0.700340       -19.0572
  40   2.0000      -0.687956       -18.7202
  41   2.0000      -0.679353       -18.4861
  42   2.0000      -0.657023       -17.8785
  43   2.0000      -0.640197       -17.4206
  44   2.0000      -0.637451       -17.3459
  45   2.0000      -0.636539       -17.3211
  46   2.0000      -0.626948       -17.0601
  47   2.0000      -0.622719       -16.9450
  48   2.0000      -0.621496       -16.9118
  49   2.0000      -0.583309       -15.8726
  50   2.0000      -0.583083       -15.8665
  51   2.0000      -0.577042       -15.7021
  52   2.0000      -0.575894       -15.6709
  53   2.0000      -0.566566       -15.4171
  54   2.0000      -0.562201       -15.2983
  55   2.0000      -0.531865       -14.4728
  56   2.0000      -0.530425       -14.4336
  57   2.0000      -0.510765       -13.8986
  58   2.0000      -0.496676       -13.5152
  59   2.0000      -0.487993       -13.2790
  60   2.0000      -0.473509       -12.8848
  61   2.0000      -0.436693       -11.8830
  62   2.0000      -0.431702       -11.7472
  63   2.0000      -0.422313       -11.4917
  64   2.0000      -0.419173       -11.4063
  65   2.0000      -0.356541        -9.7020
  66   2.0000      -0.316433        -8.6106
  67   0.0000       0.010720         0.2917
  68   0.0000       0.013577         0.3695
  69   0.0000       0.022038         0.5997
  70   0.0000       0.030013         0.8167
  71   0.0000       0.031392         0.8542

MULLIKEN ATOMIC CHARGES
-----------------------
   0 C :    0.213208
   1 C :    2.536096
   2 N :   -1.417669
   3 N :    0.137727
   4 C :    0.325764
   5 C :    1.284900
   6 N :   -0.472488
   7 C :    0.031247
   8 N :    0.215089
   9 C :    0.040030
  10 C :   -1.112771
  11 H :    0.306353
  12 H :    0.367222
  13 H :    0.306355
  14 H :    0.152476
  15 O :   -0.848993
  16 O :   -0.903058
  17 C :   -0.848794
  18 C :    0.660187
  19 C :    0.665275
  20 C :   -0.875312
  21 C :   -0.996611
  22 H :    0.248789
  23 H :    0.248790
  24 H :    0.229178
  25 C :   -0.996110
  26 H :    0.258841
  27 H :    0.258843
  28 H :    0.232058
  29 H :    0.010742
  30 H :   -0.257362
Sum of atomic charges:   -0.0000000

LOEWDIN ATOMIC CHARGES
----------------------
   0 C :   -0.165903
   1 C :   -0.255799
   2 N :    0.452494
   3 N :    0.295425
   4 C :   -0.361305
   5 C :   -0.219427
   6 N :    0.394115
   7 C :   -0.863849
   8 N :    0.536859
   9 C :   -0.666328
  10 C :    0.536058
  11 H :   -0.144505
  12 H :   -0.212368
  13 H :   -0.144505
  14 H :   -0.273294
  15 O :    0.429718
  16 O :    0.461433
  17 C :    0.266956
  18 C :   -0.074247
  19 C :   -0.081784
  20 C :    0.253102
  21 C :    0.596271
  22 H :   -0.158548
  23 H :   -0.158547
  24 H :   -0.170404
  25 C :    0.582848
  26 H :   -0.163088
  27 H :   -0.163089
  28 H :   -0.171396
  29 H :   -0.159494
  30 H :   -0.197398

  Mayer bond orders larger than 0.100000
B(  0-C ,  1-C ) :  -0.1184 B(  0-C ,  2-N ) :   0.9903 B(  0-C ,  3-N ) :   0.5335
B(  0-C ,  4-C ) :  -0.9011 B(  0-C ,  5-C ) :   0.2970 B(  0-C ,  6-N ) :   0.2330
B(  0-C ,  7-C ) :  -0.1294 B(  0-C , 10-C ) :  -0.3809 B(  0-C , 17-C ) :   0.6436
B(  0-C , 18-C ) :   0.3714 B(  0-C , 19-C ) :   0.1471 B(  0-C , 21-C ) :  -0.1980
B(  0-C , 30-H ) :  -0.6581 B(  1-C ,  2-N ) :  -1.5969 B(  1-C ,  3-N ) :  -0.7293
B(  1-C ,  5-C ) :  -0.1196 B(  1-C ,  7-C ) :   0.1958 B(  1-C ,  9-C ) :   0.2014
B(  1-C , 12-H ) :   0.1250 B(  1-C , 17-C ) :  -0.3720 B(  1-C , 18-C ) :  -0.2130
B(  1-C , 19-C ) :   1.0008 B(  1-C , 20-C ) :  -0.4277 B(  1-C , 25-C ) :  -0.1219
B(  1-C , 30-H ) :   0.1454 B(  2-N ,  3-N ) :  -0.3077 B(  2-N ,  4-C ) :   0.7046
B(  2-N ,  5-C ) :   0.5091 B(  2-N , 19-C ) :  -0.1996 B(  3-N ,  4-C ) :   0.4432
B(  3-N ,  5-C ) :   0.1949 B(  3-N , 10-C ) :   1.2213 B(  3-N , 17-C ) :  -0.5768
B(  3-N , 19-C ) :  -0.1656 B(  4-C ,  5-C ) :   0.4176 B(  4-C ,  6-N ) :   0.1582
B(  4-C ,  7-C ) :  -0.2805 B(  4-C ,  9-C ) :   0.8225 B(  4-C , 17-C ) :  -0.1871
B(  4-C , 18-C ) :  -0.1411 B(  4-C , 19-C ) :   0.1034 B(  4-C , 30-H ) :   0.2174
B(  5-C ,  6-N ) :  -0.2289 B(  5-C ,  7-C ) :  -0.3399 B(  5-C ,  8-N ) :  -0.2146
B(  5-C ,  9-C ) :  -0.7948 B(  5-C , 16-O ) :   0.2588 B(  5-C , 18-C ) :   0.1901
B(  5-C , 20-C ) :   0.5425 B(  6-N ,  7-C ) :   1.1259 B(  6-N , 10-C ) :  -0.1212
B(  6-N , 12-H ) :   0.1339 B(  6-N , 15-O ) :  -0.3015 B(  7-C ,  8-N ) :   0.9699
B(  7-C ,  9-C ) :  -0.2215 B(  7-C , 15-O ) :   1.5979 B(  8-N ,  9-C ) :   0.9581
B(  8-N , 14-H ) :   1.0424 B(  8-N , 15-O ) :  -0.1530 B(  8-N , 16-O ) :  -0.1828
B(  9-C , 16-O ) :   0.9188 B( 10-C , 11-H ) :   0.9685 B( 10-C , 12-H ) :   0.8445
B( 10-C , 13-H ) :   0.9685 B( 10-C , 17-C ) :  -0.1263 B( 17-C , 18-C ) :   1.1082
B( 17-C , 20-C ) :  -0.1102 B( 17-C , 21-C ) :  -0.2726 B( 17-C , 22-H ) :  -0.1065
B( 17-C , 23-H ) :  -0.1065 B( 17-C , 25-C ) :   0.1867 B( 17-C , 30-H ) :   2.0114
B( 18-C , 19-C ) :   0.5929 B( 18-C , 20-C ) :  -0.1936 B( 18-C , 21-C ) :   0.1442
B( 18-C , 22-H ) :  -0.1623 B( 18-C , 23-H ) :  -0.1623 B( 18-C , 25-C ) :   0.5899
B( 18-C , 28-H ) :   0.1968 B( 18-C , 30-H ) :  -0.2814 B( 19-C , 20-C ) :   0.6182
B( 19-C , 21-C ) :   0.4614 B( 19-C , 24-H ) :   0.1394 B( 19-C , 25-C ) :   0.2301
B( 19-C , 26-H ) :  -0.1716 B( 19-C , 27-H ) :  -0.1717 B( 19-C , 29-H ) :  -0.1519
B( 20-C , 21-C ) :   0.2000 B( 20-C , 25-C ) :  -0.4435 B( 20-C , 28-H ) :  -0.1870
B( 20-C , 29-H ) :   1.6287 B( 21-C , 22-H ) :   1.0773 B( 21-C , 23-H ) :   1.0773
B( 21-C , 24-H ) :   1.0344 B( 25-C , 26-H ) :   1.0609 B( 25-C , 27-H ) :   1.0609
B( 25-C , 28-H ) :   1.0478

MP2 TOTAL ENERGY:     -870.512331017 Eh
FINAL SINGLE POINT ENERGY      -870.512331016574

DIPOLE MOMENT
-------------
                                X             Y             Z
Electronic contribution:    -24.64835       5.74424      -0.00020
Nuclear contribution   :     28.37425      -6.72465       0.00023
                        -----------------------------------------
Total Dipole Moment    :      3.72590      -0.98041       0.00003
                        -----------------------------------------
Magnitude (a.u.)       :      3.85273
Magnitude (Debye)      :      9.79285

Rotational constants in cm-1:     0.029846     0.007687     0.006133
Rotational constants in MHz :   894.762679   230.440869   183.875380

                             ****ORCA TERMINATED NORMALLY****
TOTAL RUN TIME: 0 days 0 hours 34 minutes 23 seconds 412 msec
