                         Program Version 4.2.1 -  RELEASE  -
|  1> %pal
|  2>  nprocs 32
|  3> end
|  4> !RI-MP2 aug-cc-pVTZ aug-cc-pVTZ/C TightSCF
|  5> %maxcore 4500
|  6> *xyzfile 0 1  10_90TS.xyz
|  7>
|  8>
|  9>                          ****END OF INPUT****

CARTESIAN COORDINATES (ANGSTROEM)
---------------------------------
  C      0.676492    1.821733   -0.634720
  C     -0.618164    1.967859   -0.248788
  C     -1.506869    0.858938   -0.144540
  C     -1.008736   -0.389332   -0.460607
  C      0.340199   -0.593489   -0.815323
  C      1.207434    0.530538   -0.990160
  C     -2.894279    0.958364    0.247346
  C     -3.109043   -1.472940   -0.023351
  C     -3.639732   -0.165496    0.299514
  O     -1.773993   -1.505170   -0.401615
  O     -3.702561   -2.514190    0.007556
  O      2.417149    0.366035   -1.313969
  C      3.483320   -0.324850    0.480248
  C      2.591180   -1.363388    0.715258
  C      1.294217   -1.172354    1.141933
  C      4.780863   -0.607115   -0.200047
  C      3.399648    0.990634    1.183892
  C     -3.483062    2.293314    0.586713
  H      1.335685    2.675170   -0.729958
  H     -0.994296    2.956748   -0.017499
  H      0.617127   -1.543454   -1.248192
  H     -4.681780   -0.149679    0.587514
  H      2.842980   -2.330160    0.292330
  H      0.989135   -0.268416    1.651062
  H      0.635955   -2.021680    1.271426
  H      4.961603    0.151131   -0.962790
  H      5.601634   -0.557236    0.523321
  H      4.786358   -1.587752   -0.673281
  H      2.379341    1.293738    1.409245
  H      3.944089    0.915204    2.131343
  H      3.868359    1.771512    0.586165
  H     -2.945628    2.756378    1.417761
  H     -3.415314    2.974653   -0.264762
  H     -4.530821    2.195938    0.866335

 Total Charge           Charge          ....    0
 Multiplicity           Mult            ....    1
 Number of Electrons    NEL             ....  130
 Basis Dimension        Dim             .... 1196

ORBITAL ENERGIES
----------------

  NO   OCC          E(Eh)            E(eV)
   0   2.0000     -20.623356      -561.1901
   1   2.0000     -20.528587      -558.6113
   2   2.0000     -20.517603      -558.3124
   3   2.0000     -11.376987      -309.5836
   4   2.0000     -11.326916      -308.2211
   5   2.0000     -11.316510      -307.9379
   6   2.0000     -11.300554      -307.5037
   7   2.0000     -11.296617      -307.3966
   8   2.0000     -11.285312      -307.0890
   9   2.0000     -11.258212      -306.3515
  10   2.0000     -11.246454      -306.0316
  11   2.0000     -11.243003      -305.9377
  12   2.0000     -11.241110      -305.8862
  13   2.0000     -11.238325      -305.8104
  14   2.0000     -11.236207      -305.7527
  15   2.0000     -11.233277      -305.6730
  16   2.0000     -11.231152      -305.6152
  17   2.0000     -11.226312      -305.4835
  18   2.0000      -1.473070       -40.0843
  19   2.0000      -1.368394       -37.2359
  20   2.0000      -1.346557       -36.6417
  21   2.0000      -1.168148       -31.7869
  22   2.0000      -1.140171       -31.0256
  23   2.0000      -1.115403       -30.3517
  24   2.0000      -1.046351       -28.4727
  25   2.0000      -1.025912       -27.9165
  26   2.0000      -0.993158       -27.0252
  27   2.0000      -0.988959       -26.9109
  28   2.0000      -0.970591       -26.4111
  29   2.0000      -0.881584       -23.9891
  30   2.0000      -0.873759       -23.7762
  31   2.0000      -0.849920       -23.1275
  32   2.0000      -0.826766       -22.4975
  33   2.0000      -0.746648       -20.3173
  34   2.0000      -0.737077       -20.0569
  35   2.0000      -0.725861       -19.7517
  36   2.0000      -0.698673       -19.0119
  37   2.0000      -0.677410       -18.4333
  38   2.0000      -0.662135       -18.0176
  39   2.0000      -0.650127       -17.6908
  40   2.0000      -0.644628       -17.5412
  41   2.0000      -0.635577       -17.2949
  42   2.0000      -0.629972       -17.1424
  43   2.0000      -0.620057       -16.8726
  44   2.0000      -0.599218       -16.3055
  45   2.0000      -0.597783       -16.2665
  46   2.0000      -0.593451       -16.1486
  47   2.0000      -0.582411       -15.8482
  48   2.0000      -0.573061       -15.5938
  49   2.0000      -0.559672       -15.2294
  50   2.0000      -0.558355       -15.1936
  51   2.0000      -0.550377       -14.9765
  52   2.0000      -0.548520       -14.9260
  53   2.0000      -0.533508       -14.5175
  54   2.0000      -0.527125       -14.3438
  55   2.0000      -0.517172       -14.0730
  56   2.0000      -0.508830       -13.8460
  57   2.0000      -0.506359       -13.7787
  58   2.0000      -0.468539       -12.7496
  59   2.0000      -0.443907       -12.0793
  60   2.0000      -0.422495       -11.4967
  61   2.0000      -0.404860       -11.0168
  62   2.0000      -0.390001       -10.6125
  63   2.0000      -0.321074        -8.7369
  64   2.0000      -0.283917        -7.7258
  65   0.0000       0.019226         0.5232
  66   0.0000       0.023970         0.6523
  67   0.0000       0.029736         0.8092
  68   0.0000       0.031916         0.8685
  69   0.0000       0.038280         1.0417

MULLIKEN ATOMIC CHARGES
-----------------------
   0 C :   -0.552161
   1 C :   -0.785816
   2 C :    1.641611
   3 C :   -0.375640
   4 C :   -0.102689
   5 C :    1.438167
   6 C :    0.824076
   7 C :    0.679356
   8 C :   -0.543575
   9 O :   -0.916079
  10 O :   -1.066128
  11 O :   -1.480852
  12 C :    1.461811
  13 C :   -0.859468
  14 C :   -0.426895
  15 C :   -1.196244
  16 C :   -1.205560
  17 C :   -0.929549
  18 H :    0.512032
  19 H :   -0.295259
  20 H :    0.472831
  21 H :    0.251807
  22 H :   -0.009413
  23 H :    0.363011
  24 H :    0.482176
  25 H :    0.306941
  26 H :    0.259909
  27 H :    0.287089
  28 H :    0.435050
  29 H :    0.291134
  30 H :    0.242946
  31 H :    0.262302
  32 H :    0.277830
  33 H :    0.255248
Sum of atomic charges:   -0.0000000

LOEWDIN ATOMIC CHARGES
----------------------
   0 C :    0.213508
   1 C :    0.213256
   2 C :   -0.103669
   3 C :   -0.368519
   4 C :    0.157474
   5 C :   -0.598813
   6 C :   -0.112523
   7 C :   -0.800445
   8 C :    0.224765
   9 O :    0.618749
  10 O :    0.427073
  11 O :    0.499282
  12 C :   -0.182816
  13 C :    0.189939
  14 C :    0.514405
  15 C :    0.599323
  16 C :    0.590390
  17 C :    0.593104
  18 H :   -0.181600
  19 H :   -0.180928
  20 H :   -0.164246
  21 H :   -0.193049
  22 H :   -0.176859
  23 H :   -0.179144
  24 H :   -0.153666
  25 H :   -0.162921
  26 H :   -0.149165
  27 H :   -0.162113
  28 H :   -0.196476
  29 H :   -0.140695
  30 H :   -0.151549
  31 H :   -0.157260
  32 H :   -0.155691
  33 H :   -0.169121

  Mayer bond orders larger than 0.100000
B(  0-C ,  1-C ) :   1.3233 B(  0-C ,  2-C ) :   0.2893 B(  0-C ,  3-C ) :   0.2102
B(  0-C ,  4-C ) :   0.3871 B(  0-C ,  5-C ) :   0.5270 B(  0-C ,  6-C ) :  -0.1859
B(  0-C , 11-O ) :   0.1522 B(  0-C , 18-H ) :   0.6273 B(  0-C , 19-H ) :  -0.2885
B(  1-C ,  2-C ) :   0.5628 B(  1-C ,  3-C ) :  -0.9223 B(  1-C ,  5-C ) :  -0.1842
B(  1-C ,  6-C ) :   0.7230 B(  1-C , 11-O ) :   0.1237 B(  1-C , 17-C ) :  -0.1276
B(  1-C , 19-H ) :   2.2565 B(  2-C ,  3-C ) :   0.6624 B(  2-C ,  5-C ) :  -0.3425
B(  2-C ,  7-C ) :  -0.4476 B(  2-C ,  8-C ) :   0.1290 B(  2-C ,  9-O ) :  -0.2663
B(  2-C , 14-C ) :  -0.1006 B(  2-C , 17-C ) :   0.3242 B(  2-C , 18-H ) :  -0.1168
B(  2-C , 19-H ) :  -0.2547 B(  3-C ,  4-C ) :   1.2583 B(  3-C ,  5-C ) :   0.1630
B(  3-C ,  6-C ) :   0.6706 B(  3-C ,  7-C ) :   0.2860 B(  3-C ,  9-O ) :   0.1878
B(  3-C , 11-O ) :   0.1970 B(  3-C , 14-C ) :   0.1476 B(  3-C , 19-H ) :   0.1983
B(  3-C , 20-H ) :  -0.1913 B(  4-C ,  5-C ) :   0.9293 B(  4-C ,  6-C ) :  -0.1995
B(  4-C ,  8-C ) :  -0.1009 B(  4-C ,  9-O ) :   0.3120 B(  4-C , 11-O ) :  -0.1822
B(  4-C , 20-H ) :   0.7791 B(  5-C ,  6-C ) :   0.2016 B(  5-C , 11-O ) :   0.1102
B(  5-C , 13-C ) :  -0.1070 B(  5-C , 14-C ) :   0.1028 B(  6-C ,  7-C ) :   0.1599
B(  6-C ,  8-C ) :   1.3048 B(  6-C , 17-C ) :   0.4264 B(  6-C , 18-H ) :   0.1447
B(  6-C , 19-H ) :  -0.2661 B(  6-C , 31-H ) :  -0.1118 B(  7-C ,  8-C ) :   0.8975
B(  7-C ,  9-O ) :   1.4666 B(  7-C , 10-O ) :   0.8787 B(  8-C ,  9-O ) :  -0.1355
B(  8-C , 21-H ) :   0.9373 B(  9-O , 10-O ) :  -0.1194 B( 10-O , 21-H ) :   0.1492
B( 12-C , 13-C ) :   1.1154 B( 12-C , 15-C ) :   0.3841 B( 12-C , 16-C ) :   0.5559
B( 13-C , 14-C ) :   0.9725 B( 13-C , 22-H ) :   1.3835 B( 13-C , 24-H ) :  -0.1487
B( 14-C , 22-H ) :  -0.1282 B( 14-C , 23-H ) :   0.9783 B( 14-C , 24-H ) :   0.7288
B( 15-C , 25-H ) :   1.0268 B( 15-C , 26-H ) :   1.0546 B( 15-C , 27-H ) :   1.0544
B( 16-C , 28-H ) :   0.9204 B( 16-C , 29-H ) :   0.9739 B( 16-C , 30-H ) :   1.1152
B( 17-C , 31-H ) :   1.0618 B( 17-C , 32-H ) :   1.0444 B( 17-C , 33-H ) :   0.9882

MP2 TOTAL ENERGY:     -805.316396532 Eh
FINAL SINGLE POINT ENERGY      -805.316396531738

DIPOLE MOMENT
-------------
                                X             Y             Z
Electronic contribution:    -13.94273      -7.43209      -5.49258
Nuclear contribution   :     15.33737       9.16923       6.80917
                        -----------------------------------------
Total Dipole Moment    :      1.39464       1.73714       1.31660
                        -----------------------------------------
Magnitude (a.u.)       :      2.58768
Magnitude (Debye)      :      6.57737

Rotational constants in cm-1:     0.028940     0.008739     0.007449
Rotational constants in MHz :   867.585038   261.981437   223.311468

                             ****ORCA TERMINATED NORMALLY****
TOTAL RUN TIME: 0 days 0 hours 38 minutes 1 seconds 781 msec
