                         Program Version 4.2.1 -  RELEASE  -
|  1> %pal
|  2>  nprocs 32
|  3> end
|  4> !RI-MP2 aug-cc-pVTZ aug-cc-pVTZ/C TightSCF
|  5> %maxcore 4500
|  6> *xyzfile 0 1  10_18R1.xyz
|  7>
|  8>
|  9>                          ****END OF INPUT****

CARTESIAN COORDINATES (ANGSTROEM)
---------------------------------
  N     -3.050770    0.811848   -0.079788
  N     -3.950974   -0.037483   -0.094663
  N     -4.884842   -0.653374   -0.114255
  C     -1.716727    0.420364   -0.018226
  C     -0.769933    1.439739    0.071104
  C     -1.239466   -0.887092   -0.045967
  C      0.579500    1.157434    0.125300
  C      0.111055   -1.163870    0.023379
  C      1.053248   -0.148679    0.104886
  F     -1.173252    2.706247    0.113049
  F      1.422969    2.180579    0.237759
  F      0.488692   -2.436566   -0.028829
  F     -2.109407   -1.899517   -0.151542
  C      2.507458   -0.477654    0.210445
  O      2.951016   -1.319220    0.939768
  O      3.234565    0.275728   -0.611171
  C      4.652971    0.069563   -0.553905
  H      4.894698   -0.958043   -0.822656
  H      5.075430    0.766782   -1.271266
  H      5.021683    0.276736    0.450068

 Total Charge           Charge          ....    0
 Multiplicity           Mult            ....    1
 Number of Electrons    NEL             ....  124
 Basis Dimension        Dim             ....  851

ORBITAL ENERGIES
----------------

  NO   OCC          E(Eh)            E(eV)
   0   2.0000     -26.355057      -717.1576
   1   2.0000     -26.348098      -716.9682
   2   2.0000     -26.347736      -716.9584
   3   2.0000     -26.342650      -716.8200
   4   2.0000     -20.623317      -561.1890
   5   2.0000     -20.565703      -559.6212
   6   2.0000     -15.821006      -430.5115
   7   2.0000     -15.712718      -427.5648
   8   2.0000     -15.652635      -425.9299
   9   2.0000     -11.409503      -310.4684
  10   2.0000     -11.380950      -309.6914
  11   2.0000     -11.379719      -309.6579
  12   2.0000     -11.368881      -309.3630
  13   2.0000     -11.365337      -309.2666
  14   2.0000     -11.352657      -308.9215
  15   2.0000     -11.298106      -307.4371
  16   2.0000     -11.296208      -307.3855
  17   2.0000      -1.680555       -45.7302
  18   2.0000      -1.675238       -45.5856
  19   2.0000      -1.664294       -45.2877
  20   2.0000      -1.658342       -45.1258
  21   2.0000      -1.552553       -42.2471
  22   2.0000      -1.488033       -40.4914
  23   2.0000      -1.385404       -37.6988
  24   2.0000      -1.348554       -36.6960
  25   2.0000      -1.221890       -33.2493
  26   2.0000      -1.110578       -30.2204
  27   2.0000      -1.071427       -29.1550
  28   2.0000      -1.010702       -27.5026
  29   2.0000      -0.960182       -26.1279
  30   2.0000      -0.913626       -24.8610
  31   2.0000      -0.858912       -23.3722
  32   2.0000      -0.837109       -22.7789
  33   2.0000      -0.831022       -22.6133
  34   2.0000      -0.792276       -21.5589
  35   2.0000      -0.780782       -21.2462
  36   2.0000      -0.762692       -20.7539
  37   2.0000      -0.759810       -20.6755
  38   2.0000      -0.754021       -20.5180
  39   2.0000      -0.744071       -20.2472
  40   2.0000      -0.742649       -20.2085
  41   2.0000      -0.740163       -20.1409
  42   2.0000      -0.723824       -19.6963
  43   2.0000      -0.720254       -19.5991
  44   2.0000      -0.714865       -19.4525
  45   2.0000      -0.702307       -19.1107
  46   2.0000      -0.695236       -18.9183
  47   2.0000      -0.693782       -18.8788
  48   2.0000      -0.684703       -18.6317
  49   2.0000      -0.653065       -17.7708
  50   2.0000      -0.638596       -17.3771
  51   2.0000      -0.611829       -16.6487
  52   2.0000      -0.598825       -16.2948
  53   2.0000      -0.572127       -15.5684
  54   2.0000      -0.556109       -15.1325
  55   2.0000      -0.545667       -14.8484
  56   2.0000      -0.492132       -13.3916
  57   2.0000      -0.485545       -13.2123
  58   2.0000      -0.478937       -13.0325
  59   2.0000      -0.470787       -12.8108
  60   2.0000      -0.375973       -10.2307
  61   2.0000      -0.353730        -9.6255
  62   0.0000       0.027685         0.7534
  63   0.0000       0.041899         1.1401
  64   0.0000       0.045707         1.2437
  65   0.0000       0.047010         1.2792
  66   0.0000       0.051342         1.3971

MULLIKEN ATOMIC CHARGES
-----------------------
   0 N :   -1.030767
   1 N :    1.295311
   2 N :   -0.890321
   3 C :    0.762714
   4 C :    0.219651
   5 C :    0.517886
   6 C :    0.677513
   7 C :    0.491175
   8 C :    0.664276
   9 F :   -0.419541
  10 F :   -0.583418
  11 F :   -0.557796
  12 F :   -0.475734
  13 C :    0.275329
  14 O :   -0.781141
  15 O :   -0.388780
  16 C :   -0.856387
  17 H :    0.360994
  18 H :    0.337166
  19 H :    0.381870
Sum of atomic charges:   -0.0000000

LOEWDIN ATOMIC CHARGES
----------------------
   0 N :    0.232756
   1 N :   -0.197543
   2 N :    0.343663
   3 C :   -0.350383
   4 C :   -0.524527
   5 C :   -0.512000
   6 C :   -0.519910
   7 C :   -0.524270
   8 C :   -0.149556
   9 F :    0.538097
  10 F :    0.549196
  11 F :    0.553300
  12 F :    0.523120
  13 C :   -0.848669
  14 O :    0.482175
  15 O :    0.566232
  16 C :    0.374033
  17 H :   -0.177230
  18 H :   -0.182048
  19 H :   -0.176435

  Mayer bond orders larger than 0.100000
B(  0-N ,  1-N ) :   0.6657 B(  0-N ,  2-N ) :   0.8552 B(  0-N ,  3-C ) :   0.4036
B(  0-N ,  4-C ) :   0.1182 B(  0-N ,  5-C ) :  -0.3961 B(  0-N ,  6-C ) :   0.1079
B(  1-N ,  2-N ) :   0.8391 B(  1-N ,  5-C ) :   0.1052 B(  2-N ,  3-C ) :   0.1726
B(  2-N ,  5-C ) :  -0.2017 B(  3-C ,  4-C ) :   0.7955 B(  3-C ,  5-C ) :   1.1003
B(  3-C ,  9-F ) :   0.3994 B(  3-C , 12-F ) :   0.1606 B(  4-C ,  6-C ) :   1.1078
B(  4-C , 10-F ) :   0.2055 B(  4-C , 13-C ) :   0.1886 B(  5-C ,  7-C ) :   1.1869
B(  5-C , 11-F ) :   0.1487 B(  5-C , 12-F ) :   0.1048 B(  6-C ,  7-C ) :  -0.3517
B(  6-C ,  8-C ) :   1.3694 B(  6-C ,  9-F ) :   0.2233 B(  6-C , 10-F ) :   0.2526
B(  7-C ,  8-C ) :   1.3428 B(  7-C , 11-F ) :   0.2198 B(  7-C , 12-F ) :   0.2283
B(  8-C , 10-F ) :   0.1680 B(  8-C , 11-F ) :   0.2673 B(  8-C , 15-O ) :  -0.1137
B(  9-F , 10-F ) :   0.1123 B( 11-F , 12-F ) :   0.1076 B( 13-C , 14-O ) :   1.4969
B( 13-C , 15-O ) :   1.1352 B( 15-O , 16-C ) :   0.9100 B( 16-C , 17-H ) :   0.8669
B( 16-C , 18-H ) :   0.9119 B( 16-C , 19-H ) :   0.8559

MP2 TOTAL ENERGY:    -1019.123280864 Eh
FINAL SINGLE POINT ENERGY     -1019.123280863549

DIPOLE MOMENT
-------------
                                X             Y             Z
Electronic contribution:    -15.19891       0.67204       1.17900
Nuclear contribution   :     15.30604      -0.44326      -1.69077
                        -----------------------------------------
Total Dipole Moment    :      0.10712       0.22878      -0.51177
                        -----------------------------------------
Magnitude (a.u.)       :      0.57073
Magnitude (Debye)      :      1.45067

Rotational constants in cm-1:     0.030214     0.010146     0.007802
Rotational constants in MHz :   905.786700   304.157945   233.885522

                             ****ORCA TERMINATED NORMALLY****
TOTAL RUN TIME: 0 days 0 hours 11 minutes 20 seconds 64 msec
