                         Program Version 4.2.1 -  RELEASE  -
|  1> %pal
|  2>  nprocs 32
|  3> end
|  4> !RI-MP2 aug-cc-pVTZ aug-cc-pVTZ/C TightSCF
|  5> %maxcore 4500
|  6> *xyzfile -1 1  08_5TS.xyz
|  7>
|  8>
|  9>                          ****END OF INPUT****

CARTESIAN COORDINATES (ANGSTROEM)
---------------------------------
  C      2.188345    0.188457    0.898730
  O      1.992218   -0.454821    1.893569
  O      2.288680    1.525558    0.897043
  C      2.289595   -0.390133   -0.482416
  C      2.224088    0.477722   -1.699327
  H      2.182709   -0.142349   -2.593553
  H      1.338986    1.109616   -1.642368
  H      3.103727    1.113860   -1.744262
  Cl     4.706514   -0.335642   -0.178092
  H      2.509823   -1.435894   -0.524842
  O      0.430266   -1.048322   -0.582451
  C     -0.590866   -0.358509   -0.312340
  O     -0.579422    0.832420    0.057735
  C     -1.919826   -1.086038   -0.488676
  C     -3.069970   -0.608966    0.409898
  H     -1.748712   -2.141834   -0.284025
  H     -2.200120   -1.005148   -1.545202
  N     -4.036668   -1.688298    0.551603
  C     -3.724884    0.701256   -0.072383
  H     -2.653982   -0.396263    1.400516
  O     -4.915993    0.773630   -0.271523
  O     -2.924027    1.735517   -0.219627
  H     -1.955593    1.465136   -0.056016
  H      2.169615    1.807037    1.812269
  H     -4.871798   -1.321468    0.996043
  H     -4.341391   -1.983287   -0.371112

 Total Charge           Charge          ....   -1
 Multiplicity           Mult            ....    1
 Number of Electrons    NEL             ....  126
 Basis Dimension        Dim             ....  947

ORBITAL ENERGIES
----------------

  NO   OCC          E(Eh)            E(eV)
   0   2.0000    -104.604175     -2846.4243
   1   2.0000     -20.499219      -557.8121
   2   2.0000     -20.474708      -557.1451
   3   2.0000     -20.436116      -556.0950
   4   2.0000     -20.432707      -556.0022
   5   2.0000     -20.432109      -555.9860
   6   2.0000     -20.424370      -555.7754
   7   2.0000     -15.459561      -420.6760
   8   2.0000     -11.286353      -307.1173
   9   2.0000     -11.268356      -306.6276
  10   2.0000     -11.261138      -306.4311
  11   2.0000     -11.243772      -305.9586
  12   2.0000     -11.184943      -304.3578
  13   2.0000     -11.148051      -303.3539
  14   2.0000     -11.125971      -302.7531
  15   2.0000     -10.329117      -281.0696
  16   2.0000      -7.795313      -212.1213
  17   2.0000      -7.794830      -212.1081
  18   2.0000      -7.794814      -212.1077
  19   2.0000      -1.359532       -36.9947
  20   2.0000      -1.344358       -36.5818
  21   2.0000      -1.314710       -35.7751
  22   2.0000      -1.253300       -34.1040
  23   2.0000      -1.246055       -33.9069
  24   2.0000      -1.210226       -32.9319
  25   2.0000      -1.108451       -30.1625
  26   2.0000      -0.975463       -26.5437
  27   2.0000      -0.936553       -25.4849
  28   2.0000      -0.843784       -22.9605
  29   2.0000      -0.814511       -22.1640
  30   2.0000      -0.806293       -21.9403
  31   2.0000      -0.719842       -19.5879
  32   2.0000      -0.704923       -19.1819
  33   2.0000      -0.647526       -17.6201
  34   2.0000      -0.636799       -17.3282
  35   2.0000      -0.599535       -16.3142
  36   2.0000      -0.590870       -16.0784
  37   2.0000      -0.578572       -15.7437
  38   2.0000      -0.560287       -15.2462
  39   2.0000      -0.549605       -14.9555
  40   2.0000      -0.539573       -14.6825
  41   2.0000      -0.530717       -14.4415
  42   2.0000      -0.512507       -13.9460
  43   2.0000      -0.508521       -13.8376
  44   2.0000      -0.498435       -13.5631
  45   2.0000      -0.480020       -13.0620
  46   2.0000      -0.473547       -12.8859
  47   2.0000      -0.472465       -12.8564
  48   2.0000      -0.461396       -12.5552
  49   2.0000      -0.444242       -12.0885
  50   2.0000      -0.436148       -11.8682
  51   2.0000      -0.412674       -11.2294
  52   2.0000      -0.377718       -10.2782
  53   2.0000      -0.362944        -9.8762
  54   2.0000      -0.351130        -9.5547
  55   2.0000      -0.349765        -9.5176
  56   2.0000      -0.344207        -9.3664
  57   2.0000      -0.335190        -9.1210
  58   2.0000      -0.330164        -8.9842
  59   2.0000      -0.311031        -8.4636
  60   2.0000      -0.250676        -6.8213
  61   2.0000      -0.249276        -6.7831
  62   2.0000      -0.246545        -6.7088
  63   0.0000       0.099075         2.6960
  64   0.0000       0.107678         2.9301
  65   0.0000       0.112437         3.0596
  66   0.0000       0.117892         3.2080
  67   0.0000       0.121441         3.3046

MULLIKEN ATOMIC CHARGES
-----------------------
   0 C :    1.209006
   1 O :   -1.082073
   2 O :   -0.561111
   3 C :    0.296582
   4 C :   -0.910240
   5 H :    0.248622
   6 H :    0.360949
   7 H :    0.311885
   8 Cl:   -0.807291
   9 H :    0.552134
  10 O :   -0.874216
  11 C :    0.427744
  12 O :   -0.736789
  13 C :   -0.096073
  14 C :    0.769908
  15 H :    0.295327
  16 H :    0.284408
  17 N :   -0.740037
  18 C :    0.515544
  19 H :    0.274221
  20 O :   -0.892515
  21 O :   -0.546991
  22 H :    0.330281
  23 H :    0.207010
  24 H :    0.081025
  25 H :    0.082691
Sum of atomic charges:   -1.0000000

LOEWDIN ATOMIC CHARGES
----------------------
   0 C :   -0.984730
   1 O :    0.451419
   2 O :    0.830963
   3 C :   -0.169986
   4 C :    0.504976
   5 H :   -0.164109
   6 H :   -0.202072
   7 H :   -0.235541
   8 Cl:    0.092680
   9 H :   -0.283879
  10 O :    0.515261
  11 C :   -0.901351
  12 O :    0.558858
  13 C :    0.280542
  14 C :   -0.160744
  15 H :   -0.168481
  16 H :   -0.141341
  17 N :    0.835770
  18 C :   -0.809279
  19 H :   -0.141787
  20 O :    0.408003
  21 O :    0.826234
  22 H :   -0.807298
  23 H :   -0.468607
  24 H :   -0.344433
  25 H :   -0.321065

  Mayer bond orders larger than 0.100000
B(  0-C ,  1-O ) :   1.0058 B(  0-C ,  2-O ) :   0.8149 B(  0-C ,  3-C ) :   0.7798
B(  0-C ,  4-C ) :   0.1646 B(  0-C , 10-O ) :   0.1202 B(  1-O ,  2-O ) :   0.1299
B(  2-O ,  3-C ) :  -0.1606 B(  2-O , 23-H ) :   0.9614 B(  3-C ,  4-C ) :   0.7569
B(  3-C ,  8-Cl) :   0.3962 B(  3-C ,  9-H ) :   0.6485 B(  3-C , 10-O ) :   0.1236
B(  4-C ,  5-H ) :   1.0137 B(  4-C ,  6-H ) :   0.8397 B(  4-C ,  7-H ) :   0.9829
B( 10-O , 11-C ) :   1.2166 B( 10-O , 13-C ) :  -0.1057 B( 11-C , 12-O ) :   1.2846
B( 11-C , 13-C ) :   0.3034 B( 12-O , 13-C ) :  -0.1415 B( 12-O , 22-H ) :   0.2462
B( 13-C , 14-C ) :   0.8860 B( 13-C , 15-H ) :   0.9960 B( 13-C , 16-H ) :   0.9376
B( 13-C , 18-C ) :   0.1998 B( 14-C , 17-N ) :   0.3108 B( 14-C , 18-C ) :   0.6271
B( 14-C , 19-H ) :   0.9255 B( 17-N , 24-H ) :   1.0015 B( 17-N , 25-H ) :   0.9763
B( 18-C , 20-O ) :   1.3450 B( 18-C , 21-O ) :   0.9946 B( 21-O , 22-H ) :   0.6425

MP2 TOTAL ENERGY:    -1238.048782930 Eh
FINAL SINGLE POINT ENERGY     -1238.048782930481

DIPOLE MOMENT
-------------
                                X             Y             Z
Electronic contribution:     10.77990       2.29417       3.71163
Nuclear contribution   :    -12.95882      -2.34866      -4.16264
                        -----------------------------------------
Total Dipole Moment    :     -2.17892      -0.05449      -0.45101
                        -----------------------------------------
Magnitude (a.u.)       :      2.22577
Magnitude (Debye)      :      5.65746

Rotational constants in cm-1:     0.044228     0.006887     0.006708
Rotational constants in MHz :  1325.909324   206.468230   201.106853

                             ****ORCA TERMINATED NORMALLY****
TOTAL RUN TIME: 0 days 0 hours 13 minutes 47 seconds 401 msec
