                         Program Version 4.2.1 -  RELEASE  -
|  1> %pal
|  2>  nprocs 32
|  3> end
|  4> !RI-MP2 aug-cc-pVTZ aug-cc-pVTZ/C TightSCF
|  5> %maxcore 4500
|  6> *xyzfile 0 1  04_33R1.xyz
|  7>
|  8>
|  9>                          ****END OF INPUT****

CARTESIAN COORDINATES (ANGSTROEM)
---------------------------------
  H      3.116786   -0.788260    0.000560
  O      2.735639    0.093683    0.000440
  C      1.373199    0.017748    0.000224
  C      0.668712    1.215805    0.000100
  C     -0.716148    1.204908   -0.000127
  C     -1.376998   -0.007949   -0.000224
  C     -0.698956   -1.207093   -0.000104
  C      0.690067   -1.191393    0.000121
  H      1.238308   -2.127366    0.000215
  H     -1.285478    2.125134   -0.000227
  H      1.218927    2.147554    0.000183
  H     -1.250748   -2.137793   -0.000186
  F     -2.729130   -0.017877   -0.000445

 Total Charge           Charge          ....    0
 Multiplicity           Mult            ....    1
 Number of Electrons    NEL             ....   58
 Basis Dimension        Dim             ....  483

ORBITAL ENERGIES
----------------

  NO   OCC          E(Eh)            E(eV)
   0   2.0000     -26.304114      -715.7713
   1   2.0000     -20.597007      -560.4731
   2   2.0000     -11.319866      -308.0292
   3   2.0000     -11.308871      -307.7300
   4   2.0000     -11.251475      -306.1682
   5   2.0000     -11.250022      -306.1287
   6   2.0000     -11.249072      -306.1028
   7   2.0000     -11.243587      -305.9535
   8   2.0000      -1.619816       -44.0774
   9   2.0000      -1.413824       -38.4721
  10   2.0000      -1.167041       -31.7568
  11   2.0000      -1.040913       -28.3247
  12   2.0000      -1.016523       -27.6610
  13   2.0000      -0.874445       -23.7949
  14   2.0000      -0.843012       -22.9395
  15   2.0000      -0.751967       -20.4621
  16   2.0000      -0.743661       -20.2360
  17   2.0000      -0.707071       -19.2404
  18   2.0000      -0.689357       -18.7584
  19   2.0000      -0.643627       -17.5140
  20   2.0000      -0.626609       -17.0509
  21   2.0000      -0.610061       -16.6006
  22   2.0000      -0.599912       -16.3244
  23   2.0000      -0.584502       -15.9051
  24   2.0000      -0.559872       -15.2349
  25   2.0000      -0.509621       -13.8675
  26   2.0000      -0.493650       -13.4329
  27   2.0000      -0.359774        -9.7900
  28   2.0000      -0.321872        -8.7586
  29   0.0000       0.023944         0.6516
  30   0.0000       0.034149         0.9292
  31   0.0000       0.036489         0.9929
  32   0.0000       0.048973         1.3326
  33   0.0000       0.055087         1.4990

MULLIKEN ATOMIC CHARGES
-----------------------
   0 H :    0.152584
   1 O :   -0.729885
   2 C :    0.857379
   3 C :   -0.881447
   4 C :   -0.617348
   5 C :    0.779751
   6 C :   -0.575880
   7 C :   -0.633731
   8 H :    0.619456
   9 H :    0.426453
  10 H :    0.693541
  11 H :    0.423080
  12 F :   -0.513951
Sum of atomic charges:    0.0000000

LOEWDIN ATOMIC CHARGES
----------------------
   0 H :   -0.481612
   1 O :    0.837843
   2 C :   -0.386318
   3 C :    0.203849
   4 C :    0.188536
   5 C :   -0.523135
   6 C :    0.185918
   7 C :    0.202792
   8 H :   -0.180595
   9 H :   -0.176963
  10 H :   -0.177374
  11 H :   -0.177791
  12 F :    0.484848

  Mayer bond orders larger than 0.100000
B(  0-H ,  1-O ) :   1.0546 B(  1-O ,  2-C ) :   0.6552 B(  1-O ,  7-C ) :  -0.1478
B(  2-C ,  3-C ) :   1.0323 B(  2-C ,  4-C ) :  -0.2515 B(  2-C ,  6-C ) :  -0.1401
B(  2-C ,  7-C ) :   1.0925 B(  3-C ,  4-C ) :   1.3987 B(  3-C ,  7-C ) :   0.3388
B(  3-C , 10-H ) :   0.3013 B(  4-C ,  5-C ) :   1.3065 B(  4-C ,  6-C ) :   0.1419
B(  4-C ,  9-H ) :   0.7317 B(  4-C , 12-F ) :   0.1058 B(  5-C ,  6-C ) :   1.2459
B(  5-C , 12-F ) :   0.2871 B(  6-C ,  7-C ) :   1.2148 B(  6-C , 11-H ) :   0.7293
B(  6-C , 12-F ) :   0.1333 B(  7-C ,  8-H ) :   0.4253 B(  9-H , 12-F ) :   0.1398
B( 11-H , 12-F ) :   0.1265

MP2 TOTAL ENERGY:     -406.012109650 Eh
FINAL SINGLE POINT ENERGY      -406.012109649638

DIPOLE MOMENT
-------------
                                X             Y             Z
Electronic contribution:     -4.97829       0.21979      -0.00082
Nuclear contribution   :      5.61260      -0.74003       0.00096
                        -----------------------------------------
Total Dipole Moment    :      0.63431      -0.52024       0.00014
                        -----------------------------------------
Magnitude (a.u.)       :      0.82036
Magnitude (Debye)      :      2.08520

Rotational constants in cm-1:     0.189716     0.048780     0.038803
Rotational constants in MHz :  5687.537655  1462.392584  1163.285880

                             ****ORCA TERMINATED NORMALLY****
TOTAL RUN TIME: 0 days 0 hours 1 minutes 49 seconds 48 msec
