                         Program Version 4.2.1 -  RELEASE  -
|  1> %pal
|  2>  nprocs 32
|  3> end
|  4> !RI-MP2 aug-cc-pVTZ aug-cc-pVTZ/C TightSCF
|  5> %maxcore 4500
|  6> *xyzfile 0 1  02_3P.xyz
|  7>
|  8>
|  9>                          ****END OF INPUT****

CARTESIAN COORDINATES (ANGSTROEM)
---------------------------------
  C      1.876157   -0.630663   -1.455050
  C      2.786145   -0.096086   -0.390471
  C      2.492934    0.874283    0.471526
  C      3.497939    1.382082    1.465560
  C      1.124999    1.519514    0.505776
  C      0.371725    1.105520    1.778944
  C      0.362015    1.289776   -0.822203
  C      0.437074   -0.159369   -1.317320
  C     -0.435897   -1.083371   -0.500207
  O     -0.084724   -2.225206   -0.224323
  C     -1.768706   -0.583498   -0.144476
  C     -2.108079    0.773276   -0.326129
  C     -1.067311    1.772015   -0.722834
  O     -1.352058    2.931328   -0.918590
  C     -3.387727    1.218211   -0.062212
  C     -4.347880    0.316281    0.393529
  C     -4.032959   -1.009385    0.603686
  C     -2.739482   -1.473058    0.349715
  O     -2.479167   -2.762437    0.579691
  H      3.237470    1.095401    2.488267
  H      4.491074    0.995867    1.245903
  H      3.538651    2.474924    1.440642
  H      0.957803    1.377311    2.657198
  H     -0.592335    1.609302    1.865410
  H      0.203177    0.028271    1.822440
  H     -3.613988    2.266864   -0.199515
  H     -5.353448    0.662457    0.600252
  H     -4.765561   -1.716745    0.970492
  H     -1.528359   -2.914329    0.382718
  O      4.052199   -0.645490   -0.431641
  C      4.174595   -1.877342    0.262753
  H      4.026381   -1.732881    1.337771
  H      5.183723   -2.242939    0.080425
  H      3.452737   -2.616846   -0.097099
  H      0.842811    1.924445   -1.569229
  H      1.273581    2.602843    0.568455
  H     -0.033656   -0.187355   -2.308985
  H      1.898541   -1.721728   -1.445365
  H      2.278155   -0.319548   -2.424406

 Total Charge           Charge          ....    0
 Multiplicity           Mult            ....    1
 Number of Electrons    NEL             ....  152
 Basis Dimension        Dim             .... 1380

ORBITAL ENERGIES
----------------

  NO   OCC          E(Eh)            E(eV)
   0   2.0000     -20.588519      -560.2421
   1   2.0000     -20.571388      -559.7759
   2   2.0000     -20.568088      -559.6861
   3   2.0000     -20.559224      -559.4449
   4   2.0000     -11.359717      -309.1136
   5   2.0000     -11.344738      -308.7060
   6   2.0000     -11.331653      -308.3500
   7   2.0000     -11.282338      -307.0080
   8   2.0000     -11.277304      -306.8710
   9   2.0000     -11.271109      -306.7025
  10   2.0000     -11.266878      -306.5874
  11   2.0000     -11.263630      -306.4989
  12   2.0000     -11.260034      -306.4011
  13   2.0000     -11.256881      -306.3153
  14   2.0000     -11.252951      -306.2084
  15   2.0000     -11.250158      -306.1324
  16   2.0000     -11.247424      -306.0580
  17   2.0000     -11.238733      -305.8215
  18   2.0000     -11.231274      -305.6185
  19   2.0000     -11.226097      -305.4776
  20   2.0000     -11.220124      -305.3151
  21   2.0000      -1.432984       -38.9935
  22   2.0000      -1.404790       -38.2263
  23   2.0000      -1.402765       -38.1712
  24   2.0000      -1.394351       -37.9422
  25   2.0000      -1.188629       -32.3442
  26   2.0000      -1.159943       -31.5636
  27   2.0000      -1.092235       -29.7212
  28   2.0000      -1.064127       -28.9564
  29   2.0000      -1.043209       -28.3872
  30   2.0000      -1.037476       -28.2311
  31   2.0000      -0.975018       -26.5316
  32   2.0000      -0.961528       -26.1645
  33   2.0000      -0.932085       -25.3633
  34   2.0000      -0.912053       -24.8182
  35   2.0000      -0.876480       -23.8502
  36   2.0000      -0.866653       -23.5828
  37   2.0000      -0.828912       -22.5558
  38   2.0000      -0.802726       -21.8433
  39   2.0000      -0.752018       -20.4635
  40   2.0000      -0.737371       -20.0649
  41   2.0000      -0.721574       -19.6350
  42   2.0000      -0.705377       -19.1943
  43   2.0000      -0.696613       -18.9558
  44   2.0000      -0.683933       -18.6108
  45   2.0000      -0.670646       -18.2492
  46   2.0000      -0.651444       -17.7267
  47   2.0000      -0.645354       -17.5610
  48   2.0000      -0.639247       -17.3948
  49   2.0000      -0.636787       -17.3279
  50   2.0000      -0.622839       -16.9483
  51   2.0000      -0.612205       -16.6589
  52   2.0000      -0.609570       -16.5872
  53   2.0000      -0.605787       -16.4843
  54   2.0000      -0.584457       -15.9039
  55   2.0000      -0.578583       -15.7441
  56   2.0000      -0.573532       -15.6066
  57   2.0000      -0.562686       -15.3115
  58   2.0000      -0.555450       -15.1146
  59   2.0000      -0.553151       -15.0520
  60   2.0000      -0.548471       -14.9247
  61   2.0000      -0.542206       -14.7542
  62   2.0000      -0.534934       -14.5563
  63   2.0000      -0.531043       -14.4504
  64   2.0000      -0.522504       -14.2181
  65   2.0000      -0.516880       -14.0650
  66   2.0000      -0.501049       -13.6342
  67   2.0000      -0.491478       -13.3738
  68   2.0000      -0.482633       -13.1331
  69   2.0000      -0.467067       -12.7095
  70   2.0000      -0.436254       -11.8711
  71   2.0000      -0.432921       -11.7804
  72   2.0000      -0.416592       -11.3360
  73   2.0000      -0.371486       -10.1086
  74   2.0000      -0.338537        -9.2121
  75   2.0000      -0.331807        -9.0289
  76   0.0000       0.024207         0.6587
  77   0.0000       0.027939         0.7603
  78   0.0000       0.030093         0.8189
  79   0.0000       0.034015         0.9256
  80   0.0000       0.037255         1.0138

MULLIKEN ATOMIC CHARGES
-----------------------
   0 C :   -0.490646
   1 C :    1.348933
   2 C :    0.164592
   3 C :   -1.402486
   4 C :    0.331386
   5 C :   -1.099746
   6 C :    0.263397
   7 C :   -0.041813
   8 C :    0.484136
   9 O :   -1.355538
  10 C :    1.208381
  11 C :    1.496379
  12 C :    1.064222
  13 O :   -1.491510
  14 C :   -1.320852
  15 C :   -0.231343
  16 C :   -0.828252
  17 C :    0.164174
  18 O :   -1.163508
  19 H :    0.235058
  20 H :    0.362824
  21 H :    0.199135
  22 H :    0.153372
  23 H :    0.352449
  24 H :    0.332897
  25 H :    0.027427
  26 H :    0.665270
  27 H :    0.539669
  28 H :    0.125850
  29 O :   -1.229129
  30 C :   -0.989565
  31 H :    0.314337
  32 H :    0.382387
  33 H :    0.343764
  34 H :    0.245294
  35 H :    0.181439
  36 H :    0.354727
  37 H :    0.170628
  38 H :    0.132262
Sum of atomic charges:   -0.0000000

LOEWDIN ATOMIC CHARGES
----------------------
   0 C :    0.305901
   1 C :   -0.319390
   2 C :   -0.056757
   3 C :    0.584815
   4 C :    0.011609
   5 C :    0.617204
   6 C :    0.031190
   7 C :    0.025523
   8 C :   -0.425752
   9 O :    0.601819
  10 C :   -0.065799
  11 C :   -0.105150
  12 C :   -0.485250
  13 O :    0.517016
  14 C :    0.224541
  15 C :    0.222148
  16 C :    0.243618
  17 C :   -0.339656
  18 O :    0.876326
  19 H :   -0.167203
  20 H :   -0.185627
  21 H :   -0.158388
  22 H :   -0.160852
  23 H :   -0.160010
  24 H :   -0.162383
  25 H :   -0.185836
  26 H :   -0.168221
  27 H :   -0.173623
  28 H :   -0.681286
  29 O :    0.571720
  30 C :    0.354306
  31 H :   -0.168348
  32 H :   -0.177359
  33 H :   -0.178282
  34 H :   -0.121721
  35 H :   -0.126804
  36 H :   -0.109930
  37 H :   -0.179800
  38 H :   -0.124310

  Mayer bond orders larger than 0.100000
B(  0-C ,  1-C ) :   0.7562 B(  0-C ,  2-C ) :   0.3139 B(  0-C ,  7-C ) :   0.7742
B(  0-C ,  9-O ) :  -0.1643 B(  0-C , 36-H ) :  -0.1467 B(  0-C , 37-H ) :   1.0159
B(  0-C , 38-H ) :   1.1479 B(  1-C ,  2-C ) :   1.7562 B(  1-C , 29-O ) :  -0.4403
B(  1-C , 30-C ) :  -0.1485 B(  1-C , 38-H ) :  -0.1374 B(  2-C ,  3-C ) :   0.4239
B(  2-C ,  4-C ) :   0.9358 B(  2-C ,  5-C ) :   0.1621 B(  2-C ,  6-C ) :   0.2488
B(  2-C , 19-H ) :  -0.1900 B(  2-C , 21-H ) :  -0.1330 B(  2-C , 35-H ) :  -0.2075
B(  3-C , 19-H ) :   1.1280 B(  3-C , 20-H ) :   0.9103 B(  3-C , 21-H ) :   1.1949
B(  4-C ,  5-C ) :   0.5816 B(  4-C ,  6-C ) :   0.9781 B(  4-C ,  7-C ) :   0.1528
B(  4-C ,  8-C ) :   0.1043 B(  4-C , 12-C ) :   0.1074 B(  4-C , 13-O ) :   0.2585
B(  4-C , 34-H ) :  -0.1153 B(  4-C , 35-H ) :   1.0107 B(  5-C , 22-H ) :   1.1461
B(  5-C , 23-H ) :   0.9172 B(  5-C , 24-H ) :   0.9208 B(  6-C ,  7-C ) :   1.0471
B(  6-C , 10-C ) :  -0.1166 B(  6-C , 11-C ) :   0.3963 B(  6-C , 12-C ) :   0.4069
B(  6-C , 34-H ) :   0.8748 B(  7-C ,  8-C ) :   1.5400 B(  7-C ,  9-O ) :   0.4682
B(  7-C , 10-C ) :  -0.1315 B(  7-C , 36-H ) :   0.9957 B(  8-C ,  9-O ) :  -0.2128
B(  8-C , 10-C ) :   1.3587 B(  8-C , 11-C ) :  -0.7829 B(  8-C , 14-C ) :   0.3120
B(  8-C , 15-C ) :  -0.1392 B(  8-C , 16-C ) :   0.2645 B(  8-C , 17-C ) :   0.8509
B(  8-C , 18-O ) :   0.1779 B(  9-O , 10-C ) :  -0.1213 B(  9-O , 17-C ) :   0.1983
B(  9-O , 28-H ) :   0.2625 B( 10-C , 11-C ) :   1.4921 B( 10-C , 12-C ) :   0.1707
B( 10-C , 14-C ) :  -0.5692 B( 10-C , 16-C ) :   0.3521 B( 10-C , 17-C ) :   0.2693
B( 10-C , 25-H ) :   0.1054 B( 10-C , 27-H ) :   0.1576 B( 11-C , 12-C ) :   0.3775
B( 11-C , 13-O ) :   0.1815 B( 11-C , 14-C ) :   0.2652 B( 11-C , 15-C ) :   0.1503
B( 11-C , 16-C ) :  -0.3220 B( 11-C , 17-C ) :  -0.9283 B( 11-C , 18-O ) :  -0.1178
B( 12-C , 13-O ) :  -0.4377 B( 12-C , 14-C ) :   0.1956 B( 12-C , 17-C ) :  -0.1351
B( 12-C , 36-H ) :  -0.1054 B( 13-O , 25-H ) :   0.1805 B( 14-C , 15-C ) :   1.0961
B( 14-C , 16-C ) :  -0.1132 B( 14-C , 17-C ) :   0.5052 B( 14-C , 25-H ) :   1.5728
B( 14-C , 26-H ) :  -0.1553 B( 14-C , 27-H ) :   0.1168 B( 15-C , 16-C ) :   1.1126
B( 15-C , 25-H ) :  -0.1890 B( 15-C , 26-H ) :   0.4360 B( 16-C , 17-C ) :   0.8655
B( 16-C , 18-O ) :   0.2889 B( 16-C , 27-H ) :   0.5919 B( 17-C , 28-H ) :   0.1172
B( 18-O , 28-H ) :   0.8838 B( 29-O , 30-C ) :   1.2039 B( 30-C , 31-H ) :   0.9126
B( 30-C , 32-H ) :   0.9209 B( 30-C , 33-H ) :   0.8855

MP2 TOTAL ENERGY:     -957.765439666 Eh
FINAL SINGLE POINT ENERGY      -957.765439665841

DIPOLE MOMENT
-------------
                                X             Y             Z
Electronic contribution:    -15.54641      -1.71351      -7.11110
Nuclear contribution   :     15.45236       1.53809       7.37747
                        -----------------------------------------
Total Dipole Moment    :     -0.09405      -0.17542       0.26636
                        -----------------------------------------
Magnitude (a.u.)       :      0.33252
Magnitude (Debye)      :      0.84519

Rotational constants in cm-1:     0.019209     0.007938     0.006534
Rotational constants in MHz :   575.885433   237.972564   195.896049

                             ****ORCA TERMINATED NORMALLY****
TOTAL RUN TIME: 0 days 1 hours 4 minutes 21 seconds 558 msec
