                         Program Version 4.2.1 -  RELEASE  -
|  1> %pal
|  2>  nprocs 32
|  3> end
|  4> !RI-MP2 aug-cc-pVTZ aug-cc-pVTZ/C TightSCF
|  5> %maxcore 4500
|  6> *xyzfile 0 1  10_88R.xyz
|  7>
|  8>
|  9>                          ****END OF INPUT****

CARTESIAN COORDINATES (ANGSTROEM)
---------------------------------
  O     -1.355376   -0.794393   -0.522865
  C     -2.553465   -0.266110   -0.191103
  C     -2.820687    0.706578    0.674325
  C      1.517189    1.405280   -0.321375
  C      0.239692    1.037513   -0.407673
  C     -0.190506   -0.300196    0.135330
  C      2.523462    0.488998    0.224020
  C      2.243658   -0.807478    0.357348
  C      0.896762   -1.344875   -0.044719
  H      3.505556    0.874251    0.471289
  H      2.998677   -1.506576    0.697404
  H      0.925540   -1.635436   -1.103794
  H      0.637952   -2.240621    0.521050
  H     -3.338945   -0.762433   -0.748889
  H     -2.066493    1.238240    1.236317
  H     -3.851800    0.991702    0.826279
  H     -0.416916   -0.197883    1.206302
  H      1.833284    2.383552   -0.664814
  H     -0.520474    1.692088   -0.815148

 Total Charge           Charge          ....    0
 Multiplicity           Mult            ....    1
 Number of Electrons    NEL             ....   66
 Basis Dimension        Dim             ....  644

ORBITAL ENERGIES
----------------

  NO   OCC          E(Eh)            E(eV)
   0   2.0000     -20.585468      -560.1591
   1   2.0000     -11.294753      -307.3458
   2   2.0000     -11.294215      -307.3312
   3   2.0000     -11.237336      -305.7835
   4   2.0000     -11.235166      -305.7244
   5   2.0000     -11.232098      -305.6409
   6   2.0000     -11.231980      -305.6377
   7   2.0000     -11.231658      -305.6290
   8   2.0000     -11.211120      -305.0701
   9   2.0000      -1.414185       -38.4819
  10   2.0000      -1.141710       -31.0675
  11   2.0000      -1.040044       -28.3010
  12   2.0000      -1.020428       -27.7672
  13   2.0000      -0.996702       -27.1217
  14   2.0000      -0.869290       -23.6546
  15   2.0000      -0.824684       -22.4408
  16   2.0000      -0.773372       -21.0445
  17   2.0000      -0.713251       -19.4085
  18   2.0000      -0.690866       -18.7994
  19   2.0000      -0.679671       -18.4948
  20   2.0000      -0.655636       -17.8408
  21   2.0000      -0.626827       -17.0568
  22   2.0000      -0.589036       -16.0285
  23   2.0000      -0.574269       -15.6267
  24   2.0000      -0.561466       -15.2783
  25   2.0000      -0.542715       -14.7680
  26   2.0000      -0.536052       -14.5867
  27   2.0000      -0.499536       -13.5931
  28   2.0000      -0.493984       -13.4420
  29   2.0000      -0.463914       -12.6237
  30   2.0000      -0.432305       -11.7636
  31   2.0000      -0.347866        -9.4659
  32   2.0000      -0.312346        -8.4994
  33   0.0000       0.028279         0.7695
  34   0.0000       0.033242         0.9046
  35   0.0000       0.034075         0.9272
  36   0.0000       0.039581         1.0771
  37   0.0000       0.046000         1.2517

MULLIKEN ATOMIC CHARGES
-----------------------
   0 O :   -0.773528
   1 C :   -0.364757
   2 C :   -1.099362
   3 C :   -0.764491
   4 C :   -0.722234
   5 C :    0.895169
   6 C :   -0.671950
   7 C :   -0.437528
   8 C :   -0.188549
   9 H :    0.409329
  10 H :    0.453573
  11 H :    0.279662
  12 H :    0.225195
  13 H :    0.747519
  14 H :    0.556258
  15 H :    0.264626
  16 H :    0.319786
  17 H :    0.336531
  18 H :    0.534753
Sum of atomic charges:   -0.0000000

LOEWDIN ATOMIC CHARGES
----------------------
   0 O :    0.583332
   1 C :   -0.087385
   2 C :    0.497234
   3 C :    0.201549
   4 C :    0.238809
   5 C :   -0.292929
   6 C :    0.197228
   7 C :    0.235559
   8 C :    0.275165
   9 H :   -0.190677
  10 H :   -0.177429
  11 H :   -0.137023
  12 H :   -0.145661
  13 H :   -0.197944
  14 H :   -0.240311
  15 H :   -0.243030
  16 H :   -0.148103
  17 H :   -0.187136
  18 H :   -0.181249

  Mayer bond orders larger than 0.100000
B(  0-O ,  1-C ) :   1.1994 B(  0-O ,  2-C ) :  -0.1723 B(  0-O ,  4-C ) :   0.1295
B(  0-O ,  5-C ) :   0.4226 B(  0-O , 13-H ) :  -0.1833 B(  1-C ,  2-C ) :   1.5126
B(  1-C , 13-H ) :   0.4066 B(  2-C , 14-H ) :   0.6322 B(  2-C , 15-H ) :   1.1003
B(  3-C ,  4-C ) :   1.3746 B(  3-C ,  6-C ) :   1.2059 B(  3-C , 17-H ) :   1.0576
B(  4-C ,  5-C ) :   0.6255 B(  4-C ,  8-C ) :   0.2577 B(  4-C , 18-H ) :   0.6446
B(  5-C ,  8-C ) :   0.7994 B(  5-C , 16-H ) :   0.9359 B(  6-C ,  7-C ) :   1.4785
B(  6-C ,  9-H ) :   0.8871 B(  7-C ,  8-C ) :   0.6897 B(  7-C , 10-H ) :   0.7681
B(  8-C , 11-H ) :   0.9263 B(  8-C , 12-H ) :   1.0250

MP2 TOTAL ENERGY:     -385.247180282 Eh
FINAL SINGLE POINT ENERGY      -385.247180281698

DIPOLE MOMENT
-------------
                                X             Y             Z
Electronic contribution:      0.56851      -0.76212      -1.46323
Nuclear contribution   :     -0.31959       0.83641       1.64140
                        -----------------------------------------
Total Dipole Moment    :      0.24892       0.07429       0.17817
                        -----------------------------------------
Magnitude (a.u.)       :      0.31500
Magnitude (Debye)      :      0.80066

Rotational constants in cm-1:     0.126674     0.036708     0.030909
Rotational constants in MHz :  3797.603999  1100.486615   926.625001

                             ****ORCA TERMINATED NORMALLY****
TOTAL RUN TIME: 0 days 0 hours 4 minutes 19 seconds 467 msec
