                         Program Version 4.2.1 -  RELEASE  -
|  1> %pal
|  2>  nprocs 32
|  3> end
|  4> !RI-MP2 aug-cc-pVTZ aug-cc-pVTZ/C TightSCF
|  5> %maxcore 4500
|  6> *xyzfile 1 1  10_27R.xyz
|  7>
|  8>
|  9>                          ****END OF INPUT****

CARTESIAN COORDINATES (ANGSTROEM)
---------------------------------
  C      1.030703    3.281379   -0.850488
  C      0.108449    2.055749   -0.893491
  C      1.002583    1.892993    1.121254
  C      1.669007    3.162803    0.564673
  H      1.767714    3.250290   -1.650686
  H      0.452767    4.198991   -0.954528
  H      2.755370    3.080205    0.543995
  H      1.412475    4.007011    1.204369
  C     -0.408946    1.968398    0.546788
  H     -1.020669    1.091014    0.746791
  H     -0.928792    2.868361    0.870925
  H     -0.621999    2.028270   -1.695891
  H      1.142488    1.676954    2.176499
  N      1.548473    0.769527    0.292727
  N      0.994458    0.865395   -0.991133
  C     -0.572554   -2.013677   -0.646107
  C     -1.792733   -1.284559   -0.266360
  C     -2.481260   -0.566403   -1.245982
  C     -2.275663   -1.254363    1.044871
  C     -3.596829    0.192806   -0.922220
  H     -2.143353   -0.611055   -2.276353
  C     -3.392309   -0.500968    1.367927
  H     -1.792402   -1.843694    1.814415
  C     -4.051188    0.233695    0.388152
  H     -4.120306    0.740265   -1.696385
  H     -3.762129   -0.498086    2.385909
  H     -4.928244    0.815366    0.642680
  C      2.430739   -0.086559    0.639253
  C      0.387893   -2.437987    0.176762
  H      0.473710    0.002540   -1.160166
  C      3.089410   -1.072109   -0.249548
  H      4.155435   -0.819311   -0.204380
  H      2.766109   -0.938353   -1.281477
  C      1.611645   -3.175137   -0.263935
  H      1.578786   -4.197326    0.126768
  H      1.617310   -3.259861   -1.354153
  C      2.919872   -2.534046    0.208640
  H      2.996349   -2.591516    1.298940
  H      3.758105   -3.110268   -0.184587
  H      2.740254   -0.026028    1.678630
  H     -0.460362   -2.211821   -1.711301
  H      0.287955   -2.268490    1.247707

 Total Charge           Charge          ....    1
 Multiplicity           Mult            ....    1
 Number of Electrons    NEL             ....  138
 Basis Dimension        Dim             .... 1403

ORBITAL ENERGIES
----------------

  NO   OCC          E(Eh)            E(eV)
   0   2.0000     -15.836663      -430.9375
   1   2.0000     -15.746064      -428.4722
   2   2.0000     -11.484363      -312.5054
   3   2.0000     -11.430970      -311.0525
   4   2.0000     -11.402668      -310.2824
   5   2.0000     -11.387528      -309.8704
   6   2.0000     -11.365138      -309.2611
   7   2.0000     -11.364342      -309.2395
   8   2.0000     -11.360590      -309.1374
   9   2.0000     -11.356028      -309.0132
  10   2.0000     -11.354323      -308.9668
  11   2.0000     -11.353525      -308.9451
  12   2.0000     -11.351183      -308.8814
  13   2.0000     -11.349729      -308.8418
  14   2.0000     -11.341904      -308.6289
  15   2.0000     -11.340442      -308.5891
  16   2.0000     -11.338720      -308.5423
  17   2.0000     -11.338298      -308.5308
  18   2.0000     -11.336048      -308.4695
  19   2.0000      -1.543067       -41.9890
  20   2.0000      -1.331529       -36.2327
  21   2.0000      -1.271876       -34.6095
  22   2.0000      -1.262168       -34.3453
  23   2.0000      -1.233937       -33.5771
  24   2.0000      -1.192922       -32.4611
  25   2.0000      -1.144099       -31.1325
  26   2.0000      -1.124362       -30.5954
  27   2.0000      -1.116852       -30.3911
  28   2.0000      -1.097689       -29.8696
  29   2.0000      -1.067208       -29.0402
  30   2.0000      -0.996699       -27.1216
  31   2.0000      -0.969950       -26.3937
  32   2.0000      -0.966849       -26.3093
  33   2.0000      -0.939964       -25.5777
  34   2.0000      -0.920183       -25.0394
  35   2.0000      -0.904810       -24.6211
  36   2.0000      -0.884838       -24.0777
  37   2.0000      -0.870904       -23.6985
  38   2.0000      -0.829802       -22.5801
  39   2.0000      -0.812902       -22.1202
  40   2.0000      -0.801985       -21.8231
  41   2.0000      -0.786879       -21.4121
  42   2.0000      -0.769792       -20.9471
  43   2.0000      -0.757331       -20.6080
  44   2.0000      -0.755894       -20.5689
  45   2.0000      -0.742738       -20.2109
  46   2.0000      -0.737465       -20.0674
  47   2.0000      -0.718542       -19.5525
  48   2.0000      -0.709917       -19.3178
  49   2.0000      -0.695986       -18.9387
  50   2.0000      -0.692620       -18.8472
  51   2.0000      -0.681557       -18.5461
  52   2.0000      -0.672785       -18.3074
  53   2.0000      -0.659456       -17.9447
  54   2.0000      -0.651465       -17.7273
  55   2.0000      -0.643253       -17.5038
  56   2.0000      -0.636788       -17.3279
  57   2.0000      -0.627937       -17.0870
  58   2.0000      -0.621057       -16.8998
  59   2.0000      -0.617199       -16.7949
  60   2.0000      -0.610289       -16.6068
  61   2.0000      -0.605567       -16.4783
  62   2.0000      -0.597809       -16.2672
  63   2.0000      -0.595826       -16.2133
  64   2.0000      -0.591927       -16.1072
  65   2.0000      -0.527603       -14.3568
  66   2.0000      -0.517393       -14.0790
  67   2.0000      -0.446639       -12.1537
  68   2.0000      -0.416781       -11.3412
  69   0.0000      -0.068260        -1.8574
  70   0.0000      -0.058314        -1.5868
  71   0.0000      -0.054227        -1.4756
  72   0.0000      -0.052465        -1.4277
  73   0.0000      -0.045759        -1.2452

MULLIKEN ATOMIC CHARGES
-----------------------
   0 C :   -0.869399
   1 C :    0.143827
   2 C :   -0.551583
   3 C :   -0.651804
   4 H :    0.300425
   5 H :    0.266140
   6 H :    0.261372
   7 H :    0.282864
   8 C :   -0.936587
   9 H :    0.608724
  10 H :    0.299149
  11 H :    0.675079
  12 H :    0.395197
  13 N :    0.535455
  14 N :   -0.836489
  15 C :   -0.398620
  16 C :    1.474775
  17 C :   -0.703605
  18 C :   -0.642180
  19 C :   -0.401648
  20 H :    0.080281
  21 C :   -0.688623
  22 H :    0.142887
  23 C :   -0.209076
  24 H :    0.471019
  25 H :    0.425157
  26 H :    0.562653
  27 C :   -0.045508
  28 C :   -0.202175
  29 H :    0.141004
  30 C :   -0.256646
  31 H :    0.344503
  32 H :    0.263931
  33 C :   -0.399547
  34 H :    0.371394
  35 H :    0.134898
  36 C :   -0.536597
  37 H :    0.135206
  38 H :    0.314820
  39 H :    0.494900
  40 H :    0.048388
  41 H :    0.156039
Sum of atomic charges:    1.0000000

LOEWDIN ATOMIC CHARGES
----------------------
   0 C :    0.365093
   1 C :   -0.042035
   2 C :    0.011385
   3 C :    0.368486
   4 H :   -0.134235
   5 H :   -0.129188
   6 H :   -0.132220
   7 H :   -0.127001
   8 C :    0.369900
   9 H :   -0.175646
  10 H :   -0.105145
  11 H :   -0.101392
  12 H :   -0.098502
  13 N :    0.226409
  14 N :    0.597583
  15 C :    0.213843
  16 C :   -0.148708
  17 C :    0.201928
  18 C :    0.212048
  19 C :    0.214242
  20 H :   -0.167314
  21 C :    0.215221
  22 H :   -0.178463
  23 C :    0.214917
  24 H :   -0.170787
  25 H :   -0.170004
  26 H :   -0.171829
  27 C :    0.259015
  28 C :    0.231412
  29 H :   -0.346699
  30 C :    0.341885
  31 H :   -0.123838
  32 H :   -0.141309
  33 C :    0.284213
  34 H :   -0.130978
  35 H :   -0.144587
  36 C :    0.317175
  37 H :   -0.136380
  38 H :   -0.131566
  39 H :   -0.104533
  40 H :   -0.163806
  41 H :   -0.168591

  Mayer bond orders larger than 0.100000
B(  0-C ,  1-C ) :   0.8724 B(  0-C ,  3-C ) :   1.1958 B(  0-C ,  4-H ) :   0.9810
B(  0-C ,  5-H ) :   1.0002 B(  0-C , 11-H ) :  -0.1868 B(  0-C , 13-N ) :  -0.1568
B(  0-C , 14-N ) :   0.1421 B(  1-C ,  2-C ) :  -0.1159 B(  1-C ,  8-C ) :   0.9598
B(  1-C , 11-H ) :   0.6114 B(  1-C , 14-N ) :   0.8255 B(  2-C ,  3-C ) :   0.9655
B(  2-C ,  8-C ) :   1.1736 B(  2-C , 12-H ) :   0.8089 B(  2-C , 13-N ) :   1.1666
B(  2-C , 27-C ) :  -0.1666 B(  3-C ,  6-H ) :   0.9721 B(  3-C ,  7-H ) :   0.9527
B(  3-C , 13-N ) :  -0.1300 B(  8-C ,  9-H ) :   0.6023 B(  8-C , 10-H ) :   0.9764
B( 11-H , 14-N ) :  -0.1366 B( 13-N , 14-N ) :   0.1598 B( 13-N , 27-C ) :   1.7593
B( 13-N , 30-C ) :   0.1402 B( 14-N , 29-H ) :   0.8822 B( 14-N , 30-C ) :  -0.1176
B( 15-C , 16-C ) :   0.5848 B( 15-C , 17-C ) :  -0.1040 B( 15-C , 18-C ) :   0.1982
B( 15-C , 20-H ) :  -0.1174 B( 15-C , 28-C ) :   1.2489 B( 15-C , 40-H ) :   1.2697
B( 16-C , 17-C ) :   0.8835 B( 16-C , 18-C ) :   0.9009 B( 16-C , 19-C ) :   0.1978
B( 16-C , 20-H ) :  -0.1025 B( 16-C , 22-H ) :  -0.1275 B( 16-C , 28-C ) :   0.1027
B( 16-C , 40-H ) :  -0.2338 B( 16-C , 41-H ) :  -0.1565 B( 17-C , 19-C ) :   1.3107
B( 17-C , 20-H ) :   1.3868 B( 17-C , 21-C ) :   0.1312 B( 17-C , 23-C ) :   0.1354
B( 18-C , 21-C ) :   1.2562 B( 18-C , 22-H ) :   1.3244 B( 18-C , 23-C ) :   0.1289
B( 19-C , 23-C ) :   1.1551 B( 19-C , 24-H ) :   0.8517 B( 21-C , 22-H ) :  -0.1545
B( 21-C , 23-C ) :   1.1499 B( 21-C , 25-H ) :   0.8874 B( 22-H , 28-C ) :  -0.2334
B( 23-C , 26-H ) :   0.6336 B( 27-C , 30-C ) :   0.5606 B( 27-C , 39-H ) :   0.6661
B( 28-C , 33-C ) :   0.7187 B( 28-C , 41-H ) :   1.3993 B( 30-C , 31-H ) :   0.8620
B( 30-C , 32-H ) :   0.9955 B( 30-C , 36-C ) :   0.9433 B( 33-C , 34-H ) :   0.8882
B( 33-C , 35-H ) :   1.1088 B( 33-C , 36-C ) :   0.9732 B( 36-C , 37-H ) :   1.0730
B( 36-C , 38-H ) :   0.9402

MP2 TOTAL ENERGY:     -769.290404032 Eh
FINAL SINGLE POINT ENERGY      -769.290404032060

DIPOLE MOMENT
-------------
                                X             Y             Z
Electronic contribution:     -6.29617      -0.69220       0.13270
Nuclear contribution   :      8.32216       1.42397       0.57613
                        -----------------------------------------
Total Dipole Moment    :      2.02599       0.73176       0.70882
                        -----------------------------------------
Magnitude (a.u.)       :      2.26772
Magnitude (Debye)      :      5.76407

Rotational constants in cm-1:     0.015321     0.011851     0.007804
Rotational constants in MHz :   459.313861   355.278044   233.954836

                             ****ORCA TERMINATED NORMALLY****
TOTAL RUN TIME: 0 days 0 hours 53 minutes 23 seconds 318 msec
