                         Program Version 4.2.1 -  RELEASE  -
|  1> %pal
|  2>  nprocs 32
|  3> end
|  4> !RI-MP2 aug-cc-pVTZ aug-cc-pVTZ/C TightSCF
|  5> %maxcore 4500
|  6> *xyzfile 0 1  04_59P2.xyz
|  7>
|  8>
|  9>                          ****END OF INPUT****

CARTESIAN COORDINATES (ANGSTROEM)
---------------------------------
  C     -0.691964    1.188907   -0.000000
  C      0.691964    1.188907    0.000001
  C      1.413079   -0.005357    0.000001
  C      0.695332   -1.193912    0.000001
  C     -0.695332   -1.193912   -0.000000
  C     -1.413079   -0.005357   -0.000001
  H     -1.225787    2.133677   -0.000000
  H     -1.227802   -2.138860   -0.000001
  H      1.227802   -2.138860    0.000002
  H      1.225787    2.133677    0.000001
  C      2.917851    0.005520   -0.000001
  H      3.309163    0.521154   -0.880514
  H      3.320400   -1.008127    0.000029
  C     -2.917851    0.005520   -0.000000
  H     -3.320400   -1.008127   -0.000017
  H     -3.309163    0.521166    0.880506
  H     -3.309164    0.521196   -0.880488
  H      3.309165    0.521208    0.880480

 Total Charge           Charge          ....    0
 Multiplicity           Mult            ....    1
 Number of Electrons    NEL             ....   58
 Basis Dimension        Dim             ....  598

ORBITAL ENERGIES
----------------

  NO   OCC          E(Eh)            E(eV)
   0   2.0000     -11.233011      -305.6658
   1   2.0000     -11.233001      -305.6655
   2   2.0000     -11.225608      -305.4643
   3   2.0000     -11.224872      -305.4443
   4   2.0000     -11.224324      -305.4294
   5   2.0000     -11.223642      -305.4108
   6   2.0000     -11.220381      -305.3221
   7   2.0000     -11.220380      -305.3221
   8   2.0000      -1.155432       -31.4409
   9   2.0000      -1.061324       -28.8801
  10   2.0000      -1.008826       -27.4516
  11   2.0000      -0.972119       -26.4527
  12   2.0000      -0.893925       -24.3249
  13   2.0000      -0.825542       -22.4641
  14   2.0000      -0.780999       -21.2521
  15   2.0000      -0.667412       -18.1612
  16   2.0000      -0.644298       -17.5322
  17   2.0000      -0.623610       -16.9693
  18   2.0000      -0.577972       -15.7274
  19   2.0000      -0.577500       -15.7146
  20   2.0000      -0.568052       -15.4575
  21   2.0000      -0.552989       -15.0476
  22   2.0000      -0.547387       -14.8952
  23   2.0000      -0.522061       -14.2060
  24   2.0000      -0.480725       -13.0812
  25   2.0000      -0.477621       -12.9967
  26   2.0000      -0.476139       -12.9564
  27   2.0000      -0.332759        -9.0548
  28   2.0000      -0.312892        -8.5142
  29   0.0000       0.030484         0.8295
  30   0.0000       0.030575         0.8320
  31   0.0000       0.034987         0.9520
  32   0.0000       0.044806         1.2192
  33   0.0000       0.045500         1.2381

MULLIKEN ATOMIC CHARGES
-----------------------
   0 C :   -1.146726
   1 C :   -1.146722
   2 C :    1.610598
   3 C :   -0.750216
   4 C :   -0.750217
   5 C :    1.610600
   6 H :    0.253816
   7 H :    0.167716
   8 H :    0.167714
   9 H :    0.253815
  10 C :   -0.927907
  11 H :    0.283201
  12 H :    0.226321
  13 C :   -0.927908
  14 H :    0.226322
  15 H :    0.283200
  16 H :    0.283197
  17 H :    0.283196
Sum of atomic charges:    0.0000000

LOEWDIN ATOMIC CHARGES
----------------------
   0 C :    0.212100
   1 C :    0.212100
   2 C :   -0.131044
   3 C :    0.214146
   4 C :    0.214146
   5 C :   -0.131044
   6 H :   -0.173398
   7 H :   -0.180187
   8 H :   -0.180187
   9 H :   -0.173398
  10 C :    0.574125
  11 H :   -0.167496
  12 H :   -0.180749
  13 C :    0.574126
  14 H :   -0.180749
  15 H :   -0.167496
  16 H :   -0.167497
  17 H :   -0.167496

  Mayer bond orders larger than 0.100000
B(  0-C ,  1-C ) :   1.4811 B(  0-C ,  5-C ) :   0.6071 B(  0-C ,  6-H ) :   1.1530
B(  1-C ,  2-C ) :   0.6071 B(  1-C ,  9-H ) :   1.1530 B(  2-C ,  3-C ) :   0.6144
B(  2-C ,  8-H ) :  -0.1235 B(  2-C , 10-C ) :   0.3105 B(  2-C , 11-H ) :  -0.1167
B(  2-C , 13-C ) :   0.1099 B(  2-C , 17-H ) :  -0.1167 B(  3-C ,  4-C ) :   1.2946
B(  3-C ,  8-H ) :   1.3071 B(  4-C ,  5-C ) :   0.6144 B(  4-C ,  7-H ) :   1.3071
B(  5-C ,  7-H ) :  -0.1235 B(  5-C , 10-C ) :   0.1099 B(  5-C , 13-C ) :   0.3105
B(  5-C , 15-H ) :  -0.1167 B(  5-C , 16-H ) :  -0.1167 B( 10-C , 11-H ) :   1.0173
B( 10-C , 12-H ) :   1.0419 B( 10-C , 17-H ) :   1.0173 B( 13-C , 14-H ) :   1.0419
B( 13-C , 15-H ) :   1.0173 B( 13-C , 16-H ) :   1.0173

MP2 TOTAL ENERGY:     -310.203501203 Eh
FINAL SINGLE POINT ENERGY      -310.203501202735

DIPOLE MOMENT
-------------
                                X             Y             Z
Electronic contribution:     -0.00000      -0.02958       0.00000
Nuclear contribution   :      0.00000       0.05961      -0.00000
                        -----------------------------------------
Total Dipole Moment    :     -0.00000       0.03003      -0.00000
                        -----------------------------------------
Magnitude (a.u.)       :      0.03003
Magnitude (Debye)      :      0.07634

Rotational constants in cm-1:     0.181521     0.048003     0.038506
Rotational constants in MHz :  5441.869757  1439.103896  1154.378910

                             ****ORCA TERMINATED NORMALLY****
TOTAL RUN TIME: 0 days 0 hours 3 minutes 15 seconds 811 msec
