                         Program Version 4.2.1 -  RELEASE  -
|  1> %pal
|  2>  nprocs 32
|  3> end
|  4> !RI-MP2 aug-cc-pVTZ aug-cc-pVTZ/C TightSCF
|  5> %maxcore 4500
|  6> *xyzfile 1 1  05_41P1.xyz
|  7>
|  8>
|  9>                          ****END OF INPUT****

CARTESIAN COORDINATES (ANGSTROEM)
---------------------------------
  C     -0.709979    0.387617    0.041305
  C      0.710261    0.070069    0.043415
  C      1.572673    0.839980   -0.750496
  C      1.217066   -1.017977    0.764818
  C      2.914108    0.515507   -0.827596
  H      1.187649    1.657437   -1.346785
  C      2.568848   -1.301580    0.719879
  H      0.567885   -1.616372    1.387358
  C      3.414688   -0.544724   -0.082482
  H      3.570763    1.091722   -1.466268
  H      2.963939   -2.122745    1.303574
  H      4.469312   -0.785643   -0.130338
  O     -1.120750    1.580985    0.208431
  C     -0.324348    2.711252    0.672500
  H     -0.070246    3.318706   -0.191601
  H     -0.991597    3.256739    1.332908
  H      0.563628    2.362234    1.191650
  C     -1.815457   -0.611643   -0.178391
  C     -2.277733   -1.065143    1.231337
  H     -2.623776   -0.219650    1.827091
  H     -3.114798   -1.751715    1.098784
  H     -1.502596   -1.594296    1.784722
  C     -2.997137    0.070544   -0.888105
  H     -2.703821    0.460929   -1.864379
  H     -3.776760   -0.674262   -1.046745
  H     -3.418312    0.883700   -0.300316
  C     -1.343694   -1.812328   -1.008054
  H     -0.953587   -1.497925   -1.977795
  H     -0.578803   -2.402545   -0.507901
  H     -2.198655   -2.463638   -1.190198

 Total Charge           Charge          ....    1
 Multiplicity           Mult            ....    1
 Number of Electrons    NEL             ....   96
 Basis Dimension        Dim             ....  989

ORBITAL ENERGIES
----------------

  NO   OCC          E(Eh)            E(eV)
   0   2.0000     -20.815801      -566.4267
   1   2.0000     -11.556512      -314.4687
   2   2.0000     -11.455303      -311.7146
   3   2.0000     -11.410765      -310.5027
   4   2.0000     -11.408474      -310.4404
   5   2.0000     -11.405134      -310.3495
   6   2.0000     -11.402723      -310.2839
   7   2.0000     -11.390369      -309.9477
   8   2.0000     -11.381258      -309.6998
   9   2.0000     -11.380468      -309.6783
  10   2.0000     -11.366557      -309.2997
  11   2.0000     -11.353272      -308.9382
  12   2.0000     -11.351734      -308.8964
  13   2.0000      -1.654501       -45.0213
  14   2.0000      -1.326705       -36.1015
  15   2.0000      -1.278155       -34.7804
  16   2.0000      -1.202366       -32.7180
  17   2.0000      -1.177191       -32.0330
  18   2.0000      -1.167325       -31.7645
  19   2.0000      -1.082524       -29.4570
  20   2.0000      -1.076103       -29.2822
  21   2.0000      -1.049223       -28.5508
  22   2.0000      -0.990940       -26.9648
  23   2.0000      -0.975516       -26.5451
  24   2.0000      -0.928705       -25.2713
  25   2.0000      -0.888434       -24.1755
  26   2.0000      -0.848993       -23.1023
  27   2.0000      -0.838813       -22.8253
  28   2.0000      -0.824257       -22.4292
  29   2.0000      -0.784813       -21.3559
  30   2.0000      -0.775782       -21.1101
  31   2.0000      -0.754064       -20.5191
  32   2.0000      -0.748090       -20.3566
  33   2.0000      -0.744703       -20.2644
  34   2.0000      -0.732419       -19.9301
  35   2.0000      -0.711121       -19.3506
  36   2.0000      -0.700895       -19.0723
  37   2.0000      -0.680518       -18.5178
  38   2.0000      -0.671172       -18.2635
  39   2.0000      -0.669542       -18.2192
  40   2.0000      -0.660805       -17.9814
  41   2.0000      -0.653971       -17.7955
  42   2.0000      -0.647816       -17.6280
  43   2.0000      -0.632052       -17.1990
  44   2.0000      -0.614874       -16.7316
  45   2.0000      -0.612275       -16.6609
  46   2.0000      -0.499635       -13.5958
  47   2.0000      -0.492730       -13.4079
  48   0.0000      -0.104720        -2.8496
  49   0.0000      -0.069882        -1.9016
  50   0.0000      -0.057355        -1.5607
  51   0.0000      -0.054630        -1.4866
  52   0.0000      -0.053213        -1.4480

MULLIKEN ATOMIC CHARGES
-----------------------
   0 C :    1.289903
   1 C :    2.412093
   2 C :   -0.752645
   3 C :   -1.050139
   4 C :   -0.949153
   5 H :   -0.125647
   6 C :   -0.932938
   7 H :    0.163528
   8 C :   -0.120091
   9 H :    0.543942
  10 H :    0.473277
  11 H :    0.571317
  12 O :   -0.652493
  13 C :   -0.993646
  14 H :    0.389004
  15 H :    0.297818
  16 H :    0.548803
  17 C :    1.216297
  18 C :   -1.292038
  19 H :    0.244884
  20 H :    0.217693
  21 H :    0.405444
  22 C :   -1.363475
  23 H :    0.250154
  24 H :    0.240959
  25 H :    0.289512
  26 C :   -1.185699
  27 H :    0.298242
  28 H :    0.364954
  29 H :    0.200139
Sum of atomic charges:    1.0000000

LOEWDIN ATOMIC CHARGES
----------------------
   0 C :   -0.231402
   1 C :   -0.090247
   2 C :    0.227350
   3 C :    0.240608
   4 C :    0.251719
   5 H :   -0.165427
   6 C :    0.257585
   7 H :   -0.182008
   8 C :    0.254205
   9 H :   -0.162723
  10 H :   -0.161297
  11 H :   -0.154406
  12 O :    0.688281
  13 C :    0.499931
  14 H :   -0.153062
  15 H :   -0.148909
  16 H :   -0.169075
  17 C :   -0.316589
  18 C :    0.634599
  19 H :   -0.141962
  20 H :   -0.134878
  21 H :   -0.167363
  22 C :    0.605021
  23 H :   -0.140702
  24 H :   -0.145548
  25 H :   -0.160143
  26 C :    0.614612
  27 H :   -0.136338
  28 H :   -0.171204
  29 H :   -0.140629

  Mayer bond orders larger than 0.100000
B(  0-C ,  1-C ) :   0.5295 B(  0-C ,  3-C ) :   0.1481 B(  0-C ,  4-C ) :   0.2273
B(  0-C ,  5-H ) :  -0.4445 B(  0-C ,  8-C ) :   0.1624 B(  0-C ,  9-H ) :   0.1029
B(  0-C , 10-H ) :  -0.1353 B(  0-C , 12-O ) :   0.4686 B(  0-C , 17-C ) :   0.8936
B(  0-C , 22-C ) :  -0.1042 B(  1-C ,  2-C ) :   0.3666 B(  1-C ,  3-C ) :   0.2391
B(  1-C ,  4-C ) :  -0.2033 B(  1-C ,  5-H ) :  -0.3208 B(  1-C ,  6-C ) :  -0.2831
B(  1-C ,  7-H ) :  -0.2265 B(  1-C , 12-O ) :  -0.2449 B(  2-C ,  3-C ) :  -0.7100
B(  2-C ,  4-C ) :   1.5988 B(  2-C ,  5-H ) :   1.9342 B(  2-C ,  6-C ) :   0.1280
B(  3-C ,  4-C ) :   0.1702 B(  3-C ,  5-H ) :   0.3195 B(  3-C ,  6-C ) :   1.5031
B(  3-C ,  7-H ) :   1.6858 B(  3-C , 11-H ) :   0.1409 B(  4-C ,  6-C ) :   0.2982
B(  4-C ,  7-H ) :  -0.1389 B(  4-C ,  8-C ) :   1.1556 B(  4-C ,  9-H ) :   0.6197
B(  4-C , 11-H ) :  -0.2583 B(  5-H ,  7-H ) :   0.2588 B(  6-C ,  8-C ) :   1.1130
B(  6-C , 10-H ) :   0.6583 B(  6-C , 11-H ) :  -0.2078 B(  7-H ,  8-C ) :  -0.1614
B(  8-C , 11-H ) :   0.6425 B( 12-O , 13-C ) :   0.8782 B( 13-C , 14-H ) :   0.8697
B( 13-C , 15-H ) :   1.0003 B( 13-C , 16-H ) :   0.7201 B( 17-C , 18-C ) :   0.5531
B( 17-C , 22-C ) :   0.4589 B( 17-C , 26-C ) :   0.4626 B( 18-C , 19-H ) :   1.0387
B( 18-C , 20-H ) :   1.1507 B( 18-C , 21-H ) :   0.8585 B( 22-C , 23-H ) :   1.0350
B( 22-C , 24-H ) :   1.1073 B( 22-C , 25-H ) :   1.0219 B( 26-C , 27-H ) :   0.9951
B( 26-C , 28-H ) :   0.9462 B( 26-C , 29-H ) :   1.1417

MP2 TOTAL ENERGY:     -541.357177379 Eh
FINAL SINGLE POINT ENERGY      -541.357177379233

DIPOLE MOMENT
-------------
                                X             Y             Z
Electronic contribution:      8.96938       2.84979       0.38113
Nuclear contribution   :     -8.86622      -2.12976      -0.09552
                        -----------------------------------------
Total Dipole Moment    :      0.10316       0.72003       0.28561
                        -----------------------------------------
Magnitude (a.u.)       :      0.78145
Magnitude (Debye)      :      1.98628

Rotational constants in cm-1:     0.042145     0.020048     0.016316
Rotational constants in MHz :  1263.472305   601.033000   489.129028

                             ****ORCA TERMINATED NORMALLY****
TOTAL RUN TIME: 0 days 0 hours 20 minutes 40 seconds 85 msec
