                         Program Version 4.2.1 -  RELEASE  -
|  1> %pal
|  2>  nprocs 32
|  3> end
|  4> !RI-MP2 aug-cc-pVTZ aug-cc-pVTZ/C TightSCF
|  5> %maxcore 4500
|  6> *xyzfile 0 1  10_1TS.xyz
|  7>
|  8>
|  9>                          ****END OF INPUT****

CARTESIAN COORDINATES (ANGSTROEM)
---------------------------------
  C      1.632472    1.094286    0.620386
  C      0.503210    0.003578    0.601711
  C      0.863163    2.415193    0.666106
  C      2.542487    1.063931   -0.607415
  C      0.998869   -1.319287    0.027001
  C     -0.609922    0.679432   -0.247704
  C      0.034207   -0.203196    2.060160
  C      1.925892   -1.269340   -1.164023
  C      3.104671   -0.320992   -0.917182
  C      4.035269   -0.847340    0.174150
  C     -0.377228    2.147180   -0.168716
  C     -2.195121    0.030599    1.136200
  C     -1.395460   -0.742964    2.125696
  N     -2.935452   -0.508480    0.162649
  O     -3.212717    0.364211   -0.784169
  C     -1.563494   -1.207865   -1.649158
  C     -2.502286   -1.731618   -0.505134
  H      2.237732    0.951945    1.518387
  H      1.417110    3.260780    0.258490
  H      0.553905    2.689225    1.678138
  H      3.356090    1.778848   -0.453740
  H      1.981371    1.417995   -1.479457
  O      0.674558   -2.376462    0.522551
  H      0.061077    0.765168    2.564895
  H      0.720010   -0.862317    2.594993
  H      1.360066   -0.904597   -2.026184
  H      2.250751   -2.289045   -1.374302
  H      3.678364   -0.255662   -1.846295
  H      4.462068   -1.811102   -0.111279
  H      3.514755   -0.994800    1.123812
  H      4.859544   -0.152732    0.351506
  O     -1.044534    2.998328   -0.707126
  H     -1.399917   -1.807514    1.911047
  H     -1.801137   -0.601760    3.131050
  H     -2.002127   -2.414761    0.174765
  H     -3.380626   -2.211989   -0.928680
  C     -1.324136    0.247982   -1.384766
  H     -2.056968   -1.326644   -2.611337
  H     -0.656915   -1.808710   -1.660707
  H     -1.484030    0.966783   -2.176828
  H     -2.496973    1.044154    1.369261

 Total Charge           Charge          ....    0
 Multiplicity           Mult            ....    1
 Number of Electrons    NEL             ....  148
 Basis Dimension        Dim             .... 1403

ORBITAL ENERGIES
----------------

  NO   OCC          E(Eh)            E(eV)
   0   2.0000     -20.557632      -559.4016
   1   2.0000     -20.536733      -558.8329
   2   2.0000     -20.525830      -558.5362
   3   2.0000     -15.651938      -425.9109
   4   2.0000     -11.338925      -308.5478
   5   2.0000     -11.315716      -307.9163
   6   2.0000     -11.313715      -307.8618
   7   2.0000     -11.288096      -307.1647
   8   2.0000     -11.273562      -306.7692
   9   2.0000     -11.267037      -306.5917
  10   2.0000     -11.250692      -306.1469
  11   2.0000     -11.249293      -306.1088
  12   2.0000     -11.248698      -306.0926
  13   2.0000     -11.243808      -305.9596
  14   2.0000     -11.242534      -305.9249
  15   2.0000     -11.241470      -305.8960
  16   2.0000     -11.235878      -305.7438
  17   2.0000     -11.233129      -305.6690
  18   2.0000     -11.229586      -305.5726
  19   2.0000     -11.229043      -305.5578
  20   2.0000      -1.431740       -38.9596
  21   2.0000      -1.404338       -38.2140
  22   2.0000      -1.372089       -37.3364
  23   2.0000      -1.180648       -32.1271
  24   2.0000      -1.147614       -31.2282
  25   2.0000      -1.110348       -30.2141
  26   2.0000      -1.092578       -29.7306
  27   2.0000      -1.063553       -28.9407
  28   2.0000      -1.016866       -27.6703
  29   2.0000      -1.004080       -27.3224
  30   2.0000      -0.965537       -26.2736
  31   2.0000      -0.963538       -26.2192
  32   2.0000      -0.908081       -24.7101
  33   2.0000      -0.868471       -23.6323
  34   2.0000      -0.841784       -22.9061
  35   2.0000      -0.813705       -22.1420
  36   2.0000      -0.791791       -21.5457
  37   2.0000      -0.769609       -20.9421
  38   2.0000      -0.735581       -20.0162
  39   2.0000      -0.712438       -19.3864
  40   2.0000      -0.703008       -19.1298
  41   2.0000      -0.689600       -18.7650
  42   2.0000      -0.676813       -18.4170
  43   2.0000      -0.665618       -18.1124
  44   2.0000      -0.653389       -17.7796
  45   2.0000      -0.644812       -17.5462
  46   2.0000      -0.633459       -17.2373
  47   2.0000      -0.626387       -17.0448
  48   2.0000      -0.609890       -16.5960
  49   2.0000      -0.608199       -16.5499
  50   2.0000      -0.601459       -16.3665
  51   2.0000      -0.594472       -16.1764
  52   2.0000      -0.586705       -15.9651
  53   2.0000      -0.574888       -15.6435
  54   2.0000      -0.564528       -15.3616
  55   2.0000      -0.550082       -14.9685
  56   2.0000      -0.544671       -14.8212
  57   2.0000      -0.535750       -14.5785
  58   2.0000      -0.530935       -14.4475
  59   2.0000      -0.522374       -14.2145
  60   2.0000      -0.514543       -14.0014
  61   2.0000      -0.509742       -13.8708
  62   2.0000      -0.505764       -13.7625
  63   2.0000      -0.497836       -13.5468
  64   2.0000      -0.491435       -13.3726
  65   2.0000      -0.485602       -13.2139
  66   2.0000      -0.477817       -13.0021
  67   2.0000      -0.461808       -12.5664
  68   2.0000      -0.454394       -12.3647
  69   2.0000      -0.431490       -11.7415
  70   2.0000      -0.414957       -11.2915
  71   2.0000      -0.385864       -10.4999
  72   2.0000      -0.358370        -9.7518
  73   2.0000      -0.330194        -8.9850
  74   0.0000       0.020467         0.5569
  75   0.0000       0.023873         0.6496
  76   0.0000       0.028192         0.7672
  77   0.0000       0.032611         0.8874
  78   0.0000       0.037379         1.0171

MULLIKEN ATOMIC CHARGES
-----------------------
   0 C :   -0.089898
   1 C :    3.172880
   2 C :   -0.872920
   3 C :   -0.698426
   4 C :    1.458806
   5 C :    0.650406
   6 C :   -1.537399
   7 C :   -0.812802
   8 C :   -0.085047
   9 C :   -1.117298
  10 C :    0.544823
  11 C :    0.375652
  12 C :   -0.648670
  13 N :   -0.465161
  14 O :   -0.889341
  15 C :   -0.641913
  16 C :   -0.420957
  17 H :    0.341295
  18 H :    0.156511
  19 H :    0.274759
  20 H :    0.415004
  21 H :    0.069396
  22 O :   -1.718829
  23 H :    0.195641
  24 H :    0.163372
  25 H :    0.209562
  26 H :    0.389776
  27 H :    0.445478
  28 H :    0.179330
  29 H :    0.393360
  30 H :    0.211860
  31 O :   -1.425446
  32 H :    0.052549
  33 H :    0.416880
  34 H :    0.358272
  35 H :    0.397575
  36 C :   -0.738807
  37 H :    0.340388
  38 H :    0.034182
  39 H :    0.318437
  40 H :    0.596722
Sum of atomic charges:   -0.0000000

LOEWDIN ATOMIC CHARGES
----------------------
   0 C :    0.022367
   1 C :   -0.227643
   2 C :    0.333308
   3 C :    0.319490
   4 C :   -0.480311
   5 C :   -0.091856
   6 C :    0.307812
   7 C :    0.319396
   8 C :   -0.005774
   9 C :    0.607103
  10 C :   -0.524439
  11 C :    0.116448
  12 C :    0.340559
  13 N :   -0.143239
  14 O :    0.431866
  15 C :    0.328433
  16 C :    0.254179
  17 H :   -0.123567
  18 H :   -0.133675
  19 H :   -0.138151
  20 H :   -0.120822
  21 H :   -0.126200
  22 O :    0.543393
  23 H :   -0.152861
  24 H :   -0.128083
  25 H :   -0.145003
  26 H :   -0.136627
  27 H :   -0.117978
  28 H :   -0.153460
  29 H :   -0.164328
  30 H :   -0.152279
  31 O :    0.484225
  32 H :   -0.184412
  33 H :   -0.123610
  34 H :   -0.177457
  35 H :   -0.133382
  36 C :    0.103479
  37 H :   -0.139345
  38 H :   -0.200871
  39 H :   -0.157829
  40 H :   -0.128856

  Mayer bond orders larger than 0.100000
B(  0-C ,  1-C ) :   0.3878 B(  0-C ,  2-C ) :   0.9876 B(  0-C ,  3-C ) :   0.7482
B(  0-C ,  4-C ) :  -0.1779 B(  0-C ,  5-C ) :   0.2980 B(  0-C ,  6-C ) :  -0.1190
B(  0-C , 10-C ) :   0.2294 B(  0-C , 17-H ) :   1.0119 B(  1-C ,  2-C ) :  -0.2330
B(  1-C ,  3-C ) :  -0.1422 B(  1-C ,  4-C ) :   0.9635 B(  1-C ,  5-C ) :   0.7744
B(  1-C ,  6-C ) :  -0.3705 B(  1-C ,  7-C ) :  -0.1312 B(  1-C ,  9-C ) :  -0.1825
B(  1-C , 12-C ) :  -0.3390 B(  1-C , 13-N ) :  -0.1796 B(  1-C , 15-C ) :  -0.1536
B(  1-C , 16-C ) :  -0.1915 B(  1-C , 17-H ) :   0.1297 B(  1-C , 22-O ) :  -0.3038
B(  1-C , 23-H ) :  -0.1815 B(  1-C , 24-H ) :  -0.4012 B(  1-C , 32-H ) :  -0.2306
B(  1-C , 36-C ) :   0.2421 B(  2-C , 10-C ) :   0.9371 B(  2-C , 17-H ) :  -0.1999
B(  2-C , 18-H ) :   1.0229 B(  2-C , 19-H ) :   1.1408 B(  3-C ,  8-C ) :   1.0271
B(  3-C , 17-H ) :  -0.1258 B(  3-C , 20-H ) :   0.8254 B(  3-C , 21-H ) :   1.3331
B(  4-C ,  7-C ) :   1.0134 B(  4-C , 15-C ) :  -0.1111 B(  4-C , 22-O ) :  -0.4587
B(  5-C ,  6-C ) :   0.1262 B(  5-C , 10-C ) :   1.1579 B(  5-C , 11-C ) :   0.1820
B(  5-C , 12-C ) :   0.1158 B(  5-C , 13-N ) :   0.4403 B(  5-C , 14-O ) :  -0.1679
B(  5-C , 15-C ) :   0.2793 B(  5-C , 16-C ) :   0.1092 B(  5-C , 17-H ) :  -0.1112
B(  5-C , 23-H ) :   0.1226 B(  5-C , 31-O ) :   0.5049 B(  5-C , 36-C ) :  -0.1883
B(  5-C , 39-H ) :  -0.1070 B(  6-C , 11-C ) :   0.2143 B(  6-C , 12-C ) :   1.2513
B(  6-C , 22-O ) :   0.2658 B(  6-C , 23-H ) :   1.1355 B(  6-C , 24-H ) :   1.2998
B(  6-C , 32-H ) :   0.1472 B(  7-C ,  8-C ) :   0.9891 B(  7-C ,  9-C ) :   0.1041
B(  7-C , 22-O ) :   0.3648 B(  7-C , 25-H ) :   1.1633 B(  7-C , 26-H ) :   0.7239
B(  8-C ,  9-C ) :   0.7677 B(  8-C , 27-H ) :   0.8186 B(  9-C , 28-H ) :   1.1076
B(  9-C , 29-H ) :   0.8913 B(  9-C , 30-H ) :   1.0539 B( 10-C , 31-O ) :  -0.6630
B( 10-C , 36-C ) :  -0.1305 B( 11-C , 12-C ) :   0.8313 B( 11-C , 13-N ) :   0.6881
B( 11-C , 33-H ) :  -0.1216 B( 11-C , 40-H ) :   0.6391 B( 12-C , 32-H ) :   1.2836
B( 12-C , 33-H ) :   0.7746 B( 13-N , 14-O ) :   0.9242 B( 13-N , 15-C ) :   0.1415
B( 13-N , 16-C ) :   0.7883 B( 13-N , 36-C ) :  -0.1697 B( 13-N , 40-H ) :  -0.1638
B( 14-O , 15-C ) :   0.1347 B( 14-O , 36-C ) :   0.3489 B( 14-O , 39-H ) :  -0.1206
B( 15-C , 16-C ) :   1.0421 B( 15-C , 36-C ) :   0.7329 B( 15-C , 37-H ) :   0.7953
B( 15-C , 38-H ) :   1.1456 B( 15-C , 39-H ) :  -0.1259 B( 16-C , 34-H ) :   0.9644
B( 16-C , 35-H ) :   0.8455 B( 16-C , 38-H ) :   0.1332 B( 22-O , 38-H ) :   0.1564
B( 31-O , 36-C ) :   0.2418 B( 36-C , 39-H ) :   0.9444

MP2 TOTAL ENERGY:     -900.967995240 Eh
FINAL SINGLE POINT ENERGY      -900.967995239577

DIPOLE MOMENT
-------------
                                X             Y             Z
Electronic contribution:    -13.43118       3.58287      -1.32919
Nuclear contribution   :     15.24340      -4.59729       2.01209
                        -----------------------------------------
Total Dipole Moment    :      1.81223      -1.01442       0.68290
                        -----------------------------------------
Magnitude (a.u.)       :      2.18622
Magnitude (Debye)      :      5.55693

Rotational constants in cm-1:     0.019178     0.011564     0.009830
Rotational constants in MHz :   574.944823   346.678646   294.709390

                             ****ORCA TERMINATED NORMALLY****
TOTAL RUN TIME: 0 days 1 hours 20 minutes 58 seconds 871 msec
