                         Program Version 4.2.1 -  RELEASE  -
|  1> %pal
|  2>  nprocs 32
|  3> end
|  4> !RI-MP2 aug-cc-pVTZ aug-cc-pVTZ/C TightSCF
|  5> %maxcore 4500
|  6> *xyzfile 0 1  03_41R1.xyz
|  7>
|  8>
|  9>                          ****END OF INPUT****

CARTESIAN COORDINATES (ANGSTROEM)
---------------------------------
  Cl     2.042366   -1.579995   -0.237173
  C      1.134534   -0.021336    0.160634
  C     -0.304996   -0.444918    0.469572
  C      1.185284    0.804298   -1.092980
  C      1.707756    2.014736   -1.211298
  H     -0.282564   -1.180878    1.278014
  H     -0.710084   -0.952347   -0.408668
  C     -1.221358    0.714474    0.851465
  H     -0.905419    1.150578    1.802174
  C     -2.683738    0.272113    0.996363
  H     -1.161242    1.505331    0.100094
  H     -3.281713    1.106749    1.371666
  H     -2.758053   -0.524069    1.743921
  C     -3.267713   -0.197666   -0.256165
  C     -3.729174   -0.575047   -1.294147
  H     -4.144950   -0.913051   -2.211880
  C      1.833151    0.600642    1.356102
  H      1.361122    1.548631    1.620432
  H      2.885006    0.785731    1.141987
  H      1.769146   -0.067898    2.214862
  H      0.724008    0.330759   -1.954841
  H      2.180750    2.529050   -0.383890
  H      1.681286    2.537543   -2.159195

 Total Charge           Charge          ....    0
 Multiplicity           Mult            ....    1
 Number of Electrons    NEL             ....   84
 Basis Dimension        Dim             ....  763

ORBITAL ENERGIES
----------------

  NO   OCC          E(Eh)            E(eV)
   0   2.0000    -104.812197     -2852.0849
   1   2.0000     -11.311379      -307.7983
   2   2.0000     -11.258096      -306.3484
   3   2.0000     -11.244507      -305.9786
   4   2.0000     -11.238707      -305.8208
   5   2.0000     -11.235005      -305.7200
   6   2.0000     -11.234748      -305.7130
   7   2.0000     -11.233361      -305.6753
   8   2.0000     -11.230882      -305.6078
   9   2.0000     -11.221454      -305.3513
  10   2.0000     -10.536629      -286.7162
  11   2.0000      -8.003259      -217.7797
  12   2.0000      -8.001641      -217.7357
  13   2.0000      -8.001623      -217.7352
  14   2.0000      -1.166912       -31.7533
  15   2.0000      -1.098735       -29.8981
  16   2.0000      -1.049833       -28.5674
  17   2.0000      -1.027587       -27.9621
  18   2.0000      -0.989553       -26.9271
  19   2.0000      -0.952846       -25.9283
  20   2.0000      -0.869425       -23.6583
  21   2.0000      -0.825082       -22.4516
  22   2.0000      -0.732995       -19.9458
  23   2.0000      -0.720788       -19.6136
  24   2.0000      -0.669467       -18.2171
  25   2.0000      -0.657810       -17.8999
  26   2.0000      -0.631644       -17.1879
  27   2.0000      -0.626462       -17.0469
  28   2.0000      -0.612441       -16.6654
  29   2.0000      -0.571213       -15.5435
  30   2.0000      -0.560915       -15.2633
  31   2.0000      -0.554331       -15.0841
  32   2.0000      -0.534696       -14.5498
  33   2.0000      -0.511914       -13.9299
  34   2.0000      -0.498983       -13.5780
  35   2.0000      -0.485996       -13.2246
  36   2.0000      -0.477766       -13.0007
  37   2.0000      -0.433231       -11.7888
  38   2.0000      -0.425363       -11.5747
  39   2.0000      -0.389699       -10.6042
  40   2.0000      -0.388627       -10.5751
  41   2.0000      -0.375390       -10.2149
  42   0.0000       0.025287         0.6881
  43   0.0000       0.029849         0.8122
  44   0.0000       0.032201         0.8762
  45   0.0000       0.037688         1.0255
  46   0.0000       0.043322         1.1789

MULLIKEN ATOMIC CHARGES
-----------------------
   0 Cl:   -0.592635
   1 C :    1.133919
   2 C :   -0.448687
   3 C :   -0.188783
   4 C :   -1.048786
   5 H :    0.267215
   6 H :    0.329780
   7 C :   -0.668570
   8 H :    0.210379
   9 C :   -0.204054
  10 H :    0.315525
  11 H :    0.282752
  12 H :    0.210711
  13 C :    1.043492
  14 C :   -1.702087
  15 H :    0.433670
  16 C :   -1.140598
  17 H :    0.289575
  18 H :    0.294607
  19 H :    0.236103
  20 H :    0.267562
  21 H :    0.229651
  22 H :    0.449259
Sum of atomic charges:   -0.0000000

LOEWDIN ATOMIC CHARGES
----------------------
   0 Cl:    0.965757
   1 C :   -0.830033
   2 C :    0.187175
   3 C :    0.090468
   4 C :    0.538413
   5 H :   -0.152928
   6 H :   -0.173449
   7 C :    0.270805
   8 H :   -0.145536
   9 C :    0.224994
  10 H :   -0.143256
  11 H :   -0.154630
  12 H :   -0.151969
  13 C :    0.017657
  14 C :    0.405177
  15 H :   -0.298952
  16 C :    0.484453
  17 H :   -0.172931
  18 H :   -0.174498
  19 H :   -0.166652
  20 H :   -0.185972
  21 H :   -0.220621
  22 H :   -0.213471

  Mayer bond orders larger than 0.100000
B(  0-Cl,  1-C ) :   0.4519 B(  0-Cl,  3-C ) :   0.1129 B(  1-C ,  2-C ) :   0.9469
B(  1-C ,  3-C ) :   0.8575 B(  1-C , 16-C ) :   0.5157 B(  2-C ,  5-H ) :   0.9781
B(  2-C ,  6-H ) :   0.9688 B(  2-C ,  7-C ) :   0.8110 B(  2-C , 14-C ) :   0.1113
B(  3-C ,  4-C ) :   1.1542 B(  3-C , 16-C ) :   0.2156 B(  3-C , 20-H ) :   1.0249
B(  4-C , 16-C ) :  -0.1052 B(  4-C , 21-H ) :   1.2770 B(  4-C , 22-H ) :   0.6436
B(  7-C ,  8-H ) :   1.0074 B(  7-C ,  9-C ) :   1.0273 B(  7-C , 10-H ) :   0.9019
B(  7-C , 13-C ) :   0.2285 B(  7-C , 14-C ) :   0.1041 B(  9-C , 11-H ) :   0.9543
B(  9-C , 12-H ) :   0.9732 B(  9-C , 13-C ) :   0.8235 B(  9-C , 14-C ) :  -0.2776
B( 13-C , 14-C ) :   0.3389 B( 13-C , 15-H ) :  -0.2644 B( 14-C , 15-H ) :   1.1764
B( 16-C , 17-H ) :   0.9836 B( 16-C , 18-H ) :   1.0329 B( 16-C , 19-H ) :   1.0471

MP2 TOTAL ENERGY:     -809.654517227 Eh
FINAL SINGLE POINT ENERGY      -809.654517226504

DIPOLE MOMENT
-------------
                                X             Y             Z
Electronic contribution:      5.22128      -9.30255      -4.07895
Nuclear contribution   :     -5.60378      10.18773       4.52560
                        -----------------------------------------
Total Dipole Moment    :     -0.38250       0.88518       0.44665
                        -----------------------------------------
Magnitude (a.u.)       :      1.06271
Magnitude (Debye)      :      2.70119

Rotational constants in cm-1:     0.052791     0.019830     0.018660
Rotational constants in MHz :  1582.630292   594.501707   559.421261

                             ****ORCA TERMINATED NORMALLY****
TOTAL RUN TIME: 0 days 0 hours 7 minutes 51 seconds 129 msec
