                         Program Version 4.2.1 -  RELEASE  -
|  1> %pal
|  2>  nprocs 32
|  3> end
|  4> !RI-MP2 aug-cc-pVTZ aug-cc-pVTZ/C TightSCF
|  5> %maxcore 4500
|  6> *xyzfile 0 1  10_64P.xyz
|  7>
|  8>
|  9>                          ****END OF INPUT****

CARTESIAN COORDINATES (ANGSTROEM)
---------------------------------
  C      0.565476    0.234457    0.054422
  C     -0.396540    1.396929   -0.036986
  C     -0.057892   -1.133176    0.180768
  C     -0.934491    1.524117   -1.435796
  C     -0.509185   -1.626142   -1.166448
  C     -1.158010    0.545237   -2.316264
  C     -0.961399   -0.901907   -2.193518
  H     -1.172868    2.538131   -1.739982
  H     -1.559931    0.852520   -3.276677
  H     -1.243176   -1.458502   -3.081880
  H     -0.459654   -2.702544   -1.294298
  C     -1.240146   -1.082801    1.218600
  C     -1.545292    1.229168    1.024609
  H      0.137936    2.317023    0.198898
  C     -2.249941   -0.073125    0.730306
  C     -0.905929    0.915281    2.363891
  H     -2.172885    2.117668    1.018594
  C     -0.733260   -0.399070    2.474080
  H     -0.566293    1.668374    3.063140
  H     -0.227133   -0.913982    3.280446
  C     -3.438478   -0.276142    0.173757
  C     -4.002099   -1.646254   -0.078039
  C     -4.330050    0.842239   -0.287178
  H     -3.922939    1.828979   -0.077392
  H     -5.313458    0.769864    0.187486
  H     -4.492353    0.772806   -1.367236
  H     -3.358342   -2.446605    0.280249
  H     -4.154889   -1.798293   -1.150993
  H     -4.980284   -1.753178    0.400903
  C      1.896183    0.446678   -0.022993
  C      2.388035    1.787675   -0.158634
  N      2.749545    2.872645   -0.268147
  C      2.933886   -0.622604    0.006662
  O      2.739631   -1.811785    0.033474
  O      4.157774   -0.087563   -0.003723
  C      5.249347   -1.011493    0.008572
  H      5.220845   -1.618885    0.912815
  H      5.202225   -1.663473   -0.863186
  H      6.146241   -0.399290   -0.015937
  H      0.688917   -1.828319    0.550836
  H     -1.619326   -2.090428    1.374368

 Total Charge           Charge          ....    0
 Multiplicity           Mult            ....    1
 Number of Electrons    NEL             ....  156
 Basis Dimension        Dim             .... 1449

ORBITAL ENERGIES
----------------

  NO   OCC          E(Eh)            E(eV)
   0   2.0000     -20.610380      -560.8370
   1   2.0000     -20.549726      -559.1865
   2   2.0000     -15.557810      -423.3495
   3   2.0000     -11.395785      -310.0951
   4   2.0000     -11.304133      -307.6011
   5   2.0000     -11.288671      -307.1804
   6   2.0000     -11.277216      -306.8686
   7   2.0000     -11.266890      -306.5877
   8   2.0000     -11.260398      -306.4110
   9   2.0000     -11.253778      -306.2309
  10   2.0000     -11.252487      -306.1957
  11   2.0000     -11.251088      -306.1577
  12   2.0000     -11.245217      -305.9979
  13   2.0000     -11.244756      -305.9854
  14   2.0000     -11.240958      -305.8820
  15   2.0000     -11.239271      -305.8361
  16   2.0000     -11.239162      -305.8331
  17   2.0000     -11.237393      -305.7850
  18   2.0000     -11.235544      -305.7347
  19   2.0000     -11.226758      -305.4956
  20   2.0000     -11.221966      -305.3652
  21   2.0000     -11.221899      -305.3634
  22   2.0000      -1.475587       -40.1528
  23   2.0000      -1.370506       -37.2934
  24   2.0000      -1.222318       -33.2610
  25   2.0000      -1.206458       -32.8294
  26   2.0000      -1.137987       -30.9662
  27   2.0000      -1.098902       -29.9026
  28   2.0000      -1.084401       -29.5081
  29   2.0000      -1.082893       -29.4670
  30   2.0000      -1.023773       -27.8583
  31   2.0000      -0.987028       -26.8584
  32   2.0000      -0.979059       -26.6416
  33   2.0000      -0.950746       -25.8711
  34   2.0000      -0.943593       -25.6765
  35   2.0000      -0.886348       -24.1187
  36   2.0000      -0.866968       -23.5914
  37   2.0000      -0.847207       -23.0537
  38   2.0000      -0.802462       -21.8361
  39   2.0000      -0.769732       -20.9455
  40   2.0000      -0.760469       -20.6934
  41   2.0000      -0.741135       -20.1673
  42   2.0000      -0.733443       -19.9580
  43   2.0000      -0.696386       -18.9496
  44   2.0000      -0.689870       -18.7723
  45   2.0000      -0.681462       -18.5435
  46   2.0000      -0.677030       -18.4229
  47   2.0000      -0.668879       -18.2011
  48   2.0000      -0.648127       -17.6364
  49   2.0000      -0.626581       -17.0501
  50   2.0000      -0.617257       -16.7964
  51   2.0000      -0.608987       -16.5714
  52   2.0000      -0.599281       -16.3073
  53   2.0000      -0.588083       -16.0026
  54   2.0000      -0.581503       -15.8235
  55   2.0000      -0.574151       -15.6234
  56   2.0000      -0.563648       -15.3376
  57   2.0000      -0.554371       -15.0852
  58   2.0000      -0.553122       -15.0512
  59   2.0000      -0.543727       -14.7956
  60   2.0000      -0.538399       -14.6506
  61   2.0000      -0.536579       -14.6010
  62   2.0000      -0.534161       -14.5353
  63   2.0000      -0.522800       -14.2261
  64   2.0000      -0.515901       -14.0384
  65   2.0000      -0.509559       -13.8658
  66   2.0000      -0.505002       -13.7418
  67   2.0000      -0.490022       -13.3342
  68   2.0000      -0.482863       -13.1394
  69   2.0000      -0.471920       -12.8416
  70   2.0000      -0.469581       -12.7780
  71   2.0000      -0.454191       -12.3592
  72   2.0000      -0.442274       -12.0349
  73   2.0000      -0.429665       -11.6918
  74   2.0000      -0.376536       -10.2461
  75   2.0000      -0.357995        -9.7415
  76   2.0000      -0.334089        -9.0910
  77   2.0000      -0.323025        -8.7900
  78   0.0000       0.021836         0.5942
  79   0.0000       0.027421         0.7462
  80   0.0000       0.029079         0.7913
  81   0.0000       0.030792         0.8379
  82   0.0000       0.036364         0.9895

MULLIKEN ATOMIC CHARGES
-----------------------
   0 C :   -1.130815
   1 C :   -0.381467
   2 C :    0.190256
   3 C :    0.134590
   4 C :   -0.000182
   5 C :   -0.432252
   6 C :   -0.326822
   7 H :   -0.100017
   8 H :    0.058295
   9 H :    0.030192
  10 H :   -0.096326
  11 C :   -0.136296
  12 C :   -0.227169
  13 H :   -0.323718
  14 C :   -0.428445
  15 C :   -0.812724
  16 H :    0.225153
  17 C :   -0.812168
  18 H :    0.578195
  19 H :    0.563533
  20 C :    2.081736
  21 C :   -1.258445
  22 C :   -1.267167
  23 H :    0.405786
  24 H :    0.193726
  25 H :    0.204950
  26 H :    0.402929
  27 H :    0.205604
  28 H :    0.200390
  29 C :    2.455844
  30 C :    1.744898
  31 N :   -1.226977
  32 C :    0.727142
  33 O :   -1.071247
  34 O :   -0.482779
  35 C :   -0.987881
  36 H :    0.405457
  37 H :    0.417642
  38 H :    0.338124
  39 H :   -0.273274
  40 H :    0.211731
Sum of atomic charges:    0.0000000

LOEWDIN ATOMIC CHARGES
----------------------
   0 C :   -0.048346
   1 C :    0.029149
   2 C :    0.037348
   3 C :    0.263583
   4 C :    0.264459
   5 C :    0.225189
   6 C :    0.225868
   7 H :   -0.159159
   8 H :   -0.188665
   9 H :   -0.189881
  10 H :   -0.157874
  11 C :    0.032724
  12 C :    0.033375
  13 H :   -0.179265
  14 C :   -0.067368
  15 C :    0.282350
  16 H :   -0.134960
  17 C :    0.281991
  18 H :   -0.152133
  19 H :   -0.152200
  20 C :   -0.067779
  21 C :    0.584771
  22 C :    0.584751
  23 H :   -0.187976
  24 H :   -0.158716
  25 H :   -0.156743
  26 H :   -0.188013
  27 H :   -0.156777
  28 H :   -0.158754
  29 C :   -0.097623
  30 C :   -0.282607
  31 N :    0.307989
  32 C :   -0.822325
  33 O :    0.513193
  34 O :    0.570335
  35 C :    0.371053
  36 H :   -0.177645
  37 H :   -0.177692
  38 H :   -0.181251
  39 H :   -0.229048
  40 H :   -0.135326

  Mayer bond orders larger than 0.100000
B(  0-C ,  1-C ) :   1.4134 B(  0-C ,  2-C ) :   1.4780 B(  0-C ,  4-C ) :   0.2398
B(  0-C ,  5-C ) :  -0.1117 B(  0-C , 11-C ) :   0.3332 B(  0-C , 12-C ) :   0.3201
B(  0-C , 13-H ) :   0.2446 B(  0-C , 14-C ) :  -0.1539 B(  0-C , 15-C ) :  -0.4630
B(  0-C , 16-H ) :  -0.1047 B(  0-C , 17-C ) :  -0.2148 B(  0-C , 29-C ) :  -0.3580
B(  0-C , 32-C ) :   1.5768 B(  0-C , 33-O ) :   0.2267 B(  0-C , 34-O ) :   0.1039
B(  0-C , 39-H ) :   0.3496 B(  0-C , 40-H ) :  -0.1859 B(  1-C ,  2-C ) :   0.3947
B(  1-C ,  3-C ) :   0.7015 B(  1-C ,  4-C ) :   0.2366 B(  1-C ,  7-H ) :  -0.1681
B(  1-C , 12-C ) :   1.1865 B(  1-C , 13-H ) :   1.2124 B(  1-C , 14-C ) :   0.1521
B(  1-C , 15-C ) :   0.2367 B(  1-C , 17-C ) :   0.1330 B(  1-C , 20-C ) :  -0.1691
B(  1-C , 29-C ) :  -0.6322 B(  1-C , 30-C ) :  -0.1222 B(  1-C , 31-N ) :   0.2002
B(  1-C , 32-C ) :  -0.3047 B(  1-C , 39-H ) :   0.3996 B(  2-C ,  3-C ) :   0.1709
B(  2-C ,  4-C ) :   0.5185 B(  2-C , 10-H ) :  -0.1694 B(  2-C , 11-C ) :   1.2821
B(  2-C , 12-C ) :   0.1940 B(  2-C , 13-H ) :   0.2312 B(  2-C , 14-C ) :   0.3092
B(  2-C , 17-C ) :   0.1089 B(  2-C , 20-C ) :  -0.2207 B(  2-C , 29-C ) :  -0.3310
B(  2-C , 30-C ) :  -0.3282 B(  2-C , 33-O ) :  -0.3283 B(  2-C , 39-H ) :   0.8180
B(  3-C ,  4-C ) :   0.7325 B(  3-C ,  5-C ) :   1.0968 B(  3-C ,  6-C ) :  -0.3189
B(  3-C ,  7-H ) :   1.3230 B(  3-C ,  8-H ) :  -0.1504 B(  4-C ,  5-C ) :  -0.2421
B(  4-C ,  6-C ) :   1.1724 B(  4-C ,  9-H ) :  -0.1925 B(  4-C , 10-H ) :   1.3774
B(  4-C , 11-C ) :  -0.1312 B(  4-C , 33-O ) :   0.1207 B(  5-C ,  6-C ) :   1.3239
B(  5-C ,  7-H ) :  -0.1021 B(  5-C ,  8-H ) :   1.1232 B(  5-C ,  9-H ) :  -0.2828
B(  6-C ,  8-H ) :  -0.2600 B(  6-C ,  9-H ) :   1.1450 B(  6-C , 20-C ) :   0.1402
B(  6-C , 39-H ) :  -0.1535 B( 11-C , 14-C ) :   1.4897 B( 11-C , 17-C ) :   0.9669
B( 11-C , 20-C ) :  -0.4427 B( 11-C , 29-C ) :  -0.2492 B( 11-C , 40-H ) :   0.9303
B( 12-C , 14-C ) :   1.6669 B( 12-C , 15-C ) :   0.9331 B( 12-C , 16-H ) :   0.8873
B( 12-C , 20-C ) :  -0.5663 B( 12-C , 29-C ) :  -0.2016 B( 13-H , 29-C ) :  -0.6783
B( 14-C , 16-H ) :   0.1079 B( 14-C , 20-C ) :   0.7912 B( 14-C , 21-C ) :   0.1997
B( 14-C , 22-C ) :   0.1643 B( 14-C , 32-C ) :   0.1383 B( 15-C , 16-H ) :  -0.1034
B( 15-C , 17-C ) :   1.4224 B( 15-C , 18-H ) :   0.5402 B( 15-C , 29-C ) :   0.1415
B( 16-H , 20-C ) :  -0.1284 B( 16-H , 29-C ) :   0.1449 B( 17-C , 19-H ) :   0.5858
B( 17-C , 39-H ) :   0.1427 B( 17-C , 40-H ) :  -0.1290 B( 20-C , 22-C ) :   0.1120
B( 20-C , 24-H ) :  -0.1580 B( 20-C , 25-H ) :  -0.1050 B( 20-C , 27-H ) :  -0.1054
B( 20-C , 28-H ) :  -0.1580 B( 20-C , 40-H ) :  -0.1219 B( 21-C , 26-H ) :   0.8759
B( 21-C , 27-H ) :   1.1874 B( 21-C , 28-H ) :   1.1970 B( 22-C , 23-H ) :   0.8657
B( 22-C , 24-H ) :   1.2083 B( 22-C , 25-H ) :   1.1872 B( 29-C , 30-C ) :   1.6359
B( 29-C , 31-N ) :   0.5117 B( 29-C , 32-C ) :  -0.8144 B( 29-C , 33-O ) :   0.1378
B( 29-C , 34-O ) :  -0.1004 B( 29-C , 35-C ) :   0.1397 B( 29-C , 39-H ) :  -0.3205
B( 29-C , 40-H ) :   0.1049 B( 30-C , 31-N ) :   0.7470 B( 30-C , 32-C ) :  -0.3141
B( 30-C , 33-O ) :  -0.1273 B( 30-C , 34-O ) :  -0.1118 B( 30-C , 39-H ) :  -0.3558
B( 31-N , 32-C ) :   0.1117 B( 32-C , 33-O ) :   0.9081 B( 32-C , 34-O ) :   0.9505
B( 32-C , 35-C ) :  -0.2380 B( 32-C , 39-H ) :   0.2036 B( 34-O , 35-C ) :   0.9267
B( 35-C , 36-H ) :   0.8634 B( 35-C , 37-H ) :   0.8551 B( 35-C , 38-H ) :   0.9305

MP2 TOTAL ENERGY:     -938.736169792 Eh
FINAL SINGLE POINT ENERGY      -938.736169791813

DIPOLE MOMENT
-------------
                                X             Y             Z
Electronic contribution:     16.59734       4.78090       1.78723
Nuclear contribution   :    -17.69914      -5.81354      -1.59884
                        -----------------------------------------
Total Dipole Moment    :     -1.10180      -1.03264       0.18838
                        -----------------------------------------
Magnitude (a.u.)       :      1.52177
Magnitude (Debye)      :      3.86804

Rotational constants in cm-1:     0.019094     0.007022     0.006775
Rotational constants in MHz :   572.413455   210.510557   203.114823

                             ****ORCA TERMINATED NORMALLY****
TOTAL RUN TIME: 0 days 1 hours 21 minutes 59 seconds 544 msec
