                         Program Version 4.2.1 -  RELEASE  -
|  1> %pal
|  2>  nprocs 32
|  3> end
|  4> !RI-MP2 aug-cc-pVTZ aug-cc-pVTZ/C TightSCF
|  5> %maxcore 4500
|  6> *xyzfile 0 1  04_81P2.xyz
|  7>
|  8>
|  9>                          ****END OF INPUT****

CARTESIAN COORDINATES (ANGSTROEM)
---------------------------------
  C     -1.133138    0.013007   -0.018881
  C     -0.357699   -1.129821   -0.115854
  C      1.018759   -0.994846   -0.173343
  C      1.610039    0.265497   -0.129201
  C      0.802460    1.394978   -0.025922
  C     -0.576278    1.278945    0.026324
  H     -0.835879   -2.098372   -0.148377
  H      1.648502   -1.871802   -0.250081
  H      1.255369    2.378815    0.019264
  H     -1.218787    2.143789    0.108932
  C      3.109996    0.409334   -0.227678
  O      3.820244   -0.678457    0.329290
  H      3.419018    1.359494    0.222108
  H      3.404157    0.439786   -1.279297
  N     -2.598233   -0.122375    0.044345
  O     -3.063475   -1.244689    0.005284
  O     -3.255841    0.896564    0.131291
  H      3.663003   -0.704992    1.277449

 Total Charge           Charge          ....    0
 Multiplicity           Mult            ....    1
 Number of Electrons    NEL             ....   80
 Basis Dimension        Dim             ....  667

ORBITAL ENERGIES
----------------

  NO   OCC          E(Eh)            E(eV)
   0   2.0000     -20.601495      -560.5952
   1   2.0000     -20.601279      -560.5893
   2   2.0000     -20.582908      -560.0894
   3   2.0000     -15.853784      -431.4034
   4   2.0000     -11.308039      -307.7074
   5   2.0000     -11.307244      -307.6858
   6   2.0000     -11.276865      -306.8591
   7   2.0000     -11.275554      -306.8234
   8   2.0000     -11.274338      -306.7903
   9   2.0000     -11.264167      -306.5136
  10   2.0000     -11.259918      -306.3979
  11   2.0000      -1.614087       -43.9216
  12   2.0000      -1.405232       -38.2383
  13   2.0000      -1.388638       -37.7868
  14   2.0000      -1.205302       -32.7979
  15   2.0000      -1.106726       -30.1155
  16   2.0000      -1.055291       -28.7159
  17   2.0000      -0.998398       -27.1678
  18   2.0000      -0.913439       -24.8559
  19   2.0000      -0.870925       -23.6991
  20   2.0000      -0.820788       -22.3348
  21   2.0000      -0.784191       -21.3389
  22   2.0000      -0.734584       -19.9891
  23   2.0000      -0.724873       -19.7248
  24   2.0000      -0.724387       -19.7116
  25   2.0000      -0.690970       -18.8023
  26   2.0000      -0.656224       -17.8568
  27   2.0000      -0.650501       -17.7010
  28   2.0000      -0.631657       -17.1883
  29   2.0000      -0.625205       -17.0127
  30   2.0000      -0.586610       -15.9625
  31   2.0000      -0.544350       -14.8125
  32   2.0000      -0.531590       -14.4653
  33   2.0000      -0.515506       -14.0276
  34   2.0000      -0.495206       -13.4752
  35   2.0000      -0.494553       -13.4575
  36   2.0000      -0.478933       -13.0324
  37   2.0000      -0.456792       -12.4299
  38   2.0000      -0.372669       -10.1408
  39   2.0000      -0.371072       -10.0974
  40   0.0000       0.021093         0.5740
  41   0.0000       0.029897         0.8135
  42   0.0000       0.033045         0.8992
  43   0.0000       0.034838         0.9480
  44   0.0000       0.041041         1.1168

MULLIKEN ATOMIC CHARGES
-----------------------
   0 C :    0.629137
   1 C :   -0.763778
   2 C :   -0.778043
   3 C :    1.157659
   4 C :   -0.714496
   5 C :   -0.517115
   6 H :    0.565989
   7 H :    0.269761
   8 H :    0.193878
   9 H :    0.586883
  10 C :   -0.193310
  11 O :   -0.625576
  12 H :    0.304161
  13 H :    0.391347
  14 N :    0.704928
  15 O :   -0.686172
  16 O :   -0.690971
  17 H :    0.165717
Sum of atomic charges:    0.0000000

LOEWDIN ATOMIC CHARGES
----------------------
   0 C :   -0.217804
   1 C :    0.220251
   2 C :    0.232653
   3 C :   -0.098051
   4 C :    0.230019
   5 C :    0.218118
   6 H :   -0.189619
   7 H :   -0.177200
   8 H :   -0.171857
   9 H :   -0.189911
  10 C :    0.041163
  11 O :    0.818594
  12 H :   -0.158862
  13 H :   -0.151726
  14 N :   -0.720612
  15 O :    0.397646
  16 O :    0.396730
  17 H :   -0.479532

  Mayer bond orders larger than 0.100000
B(  0-C ,  1-C ) :   0.9387 B(  0-C ,  2-C ) :  -0.1919 B(  0-C ,  4-C ) :  -0.2587
B(  0-C ,  5-C ) :   0.9257 B(  0-C , 14-N ) :   1.2766 B(  0-C , 15-O ) :   0.3494
B(  0-C , 16-O ) :   0.3908 B(  1-C ,  2-C ) :   1.3817 B(  1-C ,  3-C ) :   0.2296
B(  1-C ,  5-C ) :   0.1009 B(  1-C ,  6-H ) :   0.6067 B(  1-C , 14-N ) :  -0.1986
B(  1-C , 15-O ) :  -0.1058 B(  2-C ,  3-C ) :   0.5334 B(  2-C ,  7-H ) :   1.1237
B(  2-C , 10-C ) :   0.1481 B(  3-C ,  4-C ) :   0.5108 B(  3-C ,  5-C ) :   0.1877
B(  3-C ,  8-H ) :  -0.1260 B(  3-C , 10-C ) :   0.5519 B(  4-C ,  5-C ) :   1.3428
B(  4-C ,  8-H ) :   1.2500 B(  5-C ,  9-H ) :   0.5745 B(  5-C , 14-N ) :  -0.2070
B(  5-C , 16-O ) :  -0.1315 B( 10-C , 11-O ) :   0.7693 B( 10-C , 12-H ) :   0.9885
B( 10-C , 13-H ) :   0.8894 B( 11-O , 17-H ) :   1.0044 B( 14-N , 15-O ) :   1.0446
B( 14-N , 16-O ) :   1.0273 B( 15-O , 16-O ) :   0.1005

MP2 TOTAL ENERGY:     -550.332489310 Eh
FINAL SINGLE POINT ENERGY      -550.332489310042

DIPOLE MOMENT
-------------
                                X             Y             Z
Electronic contribution:     -9.31876      -1.03644       0.27009
Nuclear contribution   :     11.06776       1.59905      -0.04160
                        -----------------------------------------
Total Dipole Moment    :      1.74900       0.56260       0.22849
                        -----------------------------------------
Magnitude (a.u.)       :      1.85141
Magnitude (Debye)      :      4.70592

Rotational constants in cm-1:     0.115459     0.019031     0.016558
Rotational constants in MHz :  3461.367767   570.530175   496.384525

                             ****ORCA TERMINATED NORMALLY****
TOTAL RUN TIME: 0 days 0 hours 4 minutes 58 seconds 673 msec
