                         Program Version 4.2.1 -  RELEASE  -
|  1> %pal
|  2>  nprocs 32
|  3> end
|  4> !RI-MP2 aug-cc-pVTZ aug-cc-pVTZ/C TightSCF
|  5> %maxcore 4500
|  6> *xyzfile 1 1  05_38P1.xyz
|  7>
|  8>
|  9>                          ****END OF INPUT****

CARTESIAN COORDINATES (ANGSTROEM)
---------------------------------
  C      0.019010   -0.507931   -0.755808
  C      1.314225   -0.181239   -0.309660
  C      2.115269    0.617672   -1.148623
  C      1.805525   -0.631798    0.933318
  C      3.389907    0.959700   -0.750124
  H      1.728626    0.959213   -2.101999
  C      3.078380   -0.283574    1.317599
  H      1.179366   -1.245409    1.567899
  C      3.865411    0.509169    0.477874
  H      4.015757    1.572322   -1.385094
  H      3.472738   -0.620819    2.267016
  O     -0.767208   -1.229342   -0.075608
  C     -2.145824   -1.489681   -0.539301
  H     -2.291474   -2.547182   -0.333894
  H     -2.164528   -1.312140   -1.616653
  H      4.867433    0.778267    0.790164
  C     -3.104811   -0.604893    0.219060
  H     -3.012589   -0.808235    1.289537
  H     -4.109787   -0.929676   -0.069535
  C     -2.940629    0.885628   -0.064530
  H     -1.941465    1.217721    0.240385
  H     -3.018326    1.061184   -1.143552
  C     -3.981058    1.728796    0.664479
  H     -3.910956    1.592535    1.745796
  H     -3.844681    2.789591    0.452856
  H     -4.992646    1.455240    0.357748
  H     -0.332224   -0.138975   -1.721506

 Total Charge           Charge          ....    1
 Multiplicity           Mult            ....    1
 Number of Electrons    NEL             ....   88
 Basis Dimension        Dim             ....  897

ORBITAL ENERGIES
----------------

  NO   OCC          E(Eh)            E(eV)
   0   2.0000     -20.811244      -566.3027
   1   2.0000     -11.551260      -314.3258
   2   2.0000     -11.455512      -311.7203
   3   2.0000     -11.420266      -310.7612
   4   2.0000     -11.413335      -310.5726
   5   2.0000     -11.411230      -310.5153
   6   2.0000     -11.410678      -310.5003
   7   2.0000     -11.386033      -309.8297
   8   2.0000     -11.385633      -309.8188
   9   2.0000     -11.363186      -309.2080
  10   2.0000     -11.350479      -308.8622
  11   2.0000     -11.320361      -308.0427
  12   2.0000      -1.651174       -44.9307
  13   2.0000      -1.332929       -36.2708
  14   2.0000      -1.246800       -33.9272
  15   2.0000      -1.209676       -32.9170
  16   2.0000      -1.186554       -32.2878
  17   2.0000      -1.142344       -31.0848
  18   2.0000      -1.079118       -29.3643
  19   2.0000      -1.022491       -27.8234
  20   2.0000      -0.996280       -27.1101
  21   2.0000      -0.974719       -26.5235
  22   2.0000      -0.937492       -25.5104
  23   2.0000      -0.896588       -24.3974
  24   2.0000      -0.879475       -23.9317
  25   2.0000      -0.837026       -22.7766
  26   2.0000      -0.825937       -22.4749
  27   2.0000      -0.783965       -21.3328
  28   2.0000      -0.780417       -21.2362
  29   2.0000      -0.762205       -20.7407
  30   2.0000      -0.754976       -20.5439
  31   2.0000      -0.740442       -20.1484
  32   2.0000      -0.709361       -19.3027
  33   2.0000      -0.703159       -19.1339
  34   2.0000      -0.675092       -18.3702
  35   2.0000      -0.667351       -18.1595
  36   2.0000      -0.659081       -17.9345
  37   2.0000      -0.655259       -17.8305
  38   2.0000      -0.650035       -17.6884
  39   2.0000      -0.610541       -16.6137
  40   2.0000      -0.597519       -16.2593
  41   2.0000      -0.597195       -16.2505
  42   2.0000      -0.513093       -13.9620
  43   2.0000      -0.500322       -13.6144
  44   0.0000      -0.133054        -3.6206
  45   0.0000      -0.071946        -1.9577
  46   0.0000      -0.060224        -1.6388
  47   0.0000      -0.057289        -1.5589
  48   0.0000      -0.049477        -1.3463

MULLIKEN ATOMIC CHARGES
-----------------------
   0 C :    0.002380
   1 C :    2.233725
   2 C :   -0.959817
   3 C :   -0.554012
   4 C :   -0.750321
   5 H :   -0.101893
   6 C :   -0.945775
   7 H :    0.088205
   8 C :    0.037309
   9 H :    0.650039
  10 H :    0.592226
  11 O :   -0.657231
  12 C :   -0.344531
  13 H :    0.362247
  14 H :    0.321605
  15 H :    0.384666
  16 C :   -0.359516
  17 H :    0.258169
  18 H :    0.326594
  19 C :   -0.449244
  20 H :    0.389058
  21 H :    0.251276
  22 C :   -1.021532
  23 H :    0.272327
  24 H :    0.274558
  25 H :    0.268970
  26 H :    0.430517
Sum of atomic charges:    1.0000000

LOEWDIN ATOMIC CHARGES
----------------------
   0 C :    0.040858
   1 C :   -0.107337
   2 C :    0.243990
   3 C :    0.256958
   4 C :    0.255482
   5 H :   -0.152471
   6 C :    0.256512
   7 H :   -0.155416
   8 C :    0.267007
   9 H :   -0.165314
  10 H :   -0.164463
  11 O :    0.668080
  12 C :    0.184311
  13 H :   -0.130314
  14 H :   -0.143582
  15 H :   -0.146984
  16 C :    0.293350
  17 H :   -0.130915
  18 H :   -0.129034
  19 C :    0.252906
  20 H :   -0.154891
  21 H :   -0.140690
  22 C :    0.601113
  23 H :   -0.160331
  24 H :   -0.161913
  25 H :   -0.160320
  26 H :   -0.116595

  Mayer bond orders larger than 0.100000
B(  0-C ,  2-C ) :   0.2550 B(  0-C ,  3-C ) :   0.2983 B(  0-C ,  4-C ) :   0.2016
B(  0-C ,  5-H ) :  -0.3532 B(  0-C ,  8-C ) :   0.1775 B(  0-C ,  9-H ) :   0.1653
B(  0-C , 10-H ) :   0.1719 B(  0-C , 11-O ) :   1.2162 B(  0-C , 26-H ) :   0.8528
B(  1-C ,  3-C ) :   0.2096 B(  1-C ,  5-H ) :  -0.2980 B(  1-C ,  7-H ) :  -0.4023
B(  1-C , 11-O ) :  -0.2638 B(  1-C , 26-H ) :  -0.1312 B(  2-C ,  3-C ) :  -0.4408
B(  2-C ,  4-C ) :   1.3553 B(  2-C ,  5-H ) :   2.1344 B(  2-C ,  6-C ) :   0.1333
B(  2-C ,  7-H ) :   0.3201 B(  2-C ,  8-C ) :  -0.2255 B(  2-C ,  9-H ) :  -0.1852
B(  2-C , 10-H ) :  -0.1264 B(  2-C , 15-H ) :   0.2183 B(  3-C ,  5-H ) :   0.2163
B(  3-C ,  6-C ) :   1.3565 B(  3-C ,  7-H ) :   1.5606 B(  3-C ,  8-C ) :  -0.1274
B(  4-C ,  5-H ) :  -0.1373 B(  4-C ,  6-C ) :   0.2359 B(  4-C ,  8-C ) :   1.0818
B(  4-C ,  9-H ) :   0.4928 B(  4-C , 15-H ) :  -0.1721 B(  5-H ,  7-H ) :   0.1647
B(  6-C ,  8-C ) :   1.0477 B(  6-C , 10-H ) :   0.5226 B(  6-C , 15-H ) :  -0.1622
B(  8-C , 15-H ) :   0.9011 B( 11-O , 12-C ) :   0.7183 B( 12-C , 13-H ) :   0.9011
B( 12-C , 14-H ) :   0.9312 B( 12-C , 16-C ) :   1.0095 B( 16-C , 17-H ) :   0.9329
B( 16-C , 18-H ) :   0.9032 B( 16-C , 19-C ) :   0.7991 B( 19-C , 20-H ) :   0.8766
B( 19-C , 21-H ) :   0.9672 B( 19-C , 22-C ) :   0.8856 B( 22-C , 23-H ) :   0.9682
B( 22-C , 24-H ) :   0.9877 B( 22-C , 25-H ) :   0.9760

MP2 TOTAL ENERGY:     -502.127747972 Eh
FINAL SINGLE POINT ENERGY      -502.127747972213

DIPOLE MOMENT
-------------
                                X             Y             Z
Electronic contribution:     15.10364      -4.25474      -1.08653
Nuclear contribution   :    -14.71084       3.89534       0.34607
                        -----------------------------------------
Total Dipole Moment    :      0.39280      -0.35940      -0.74046
                        -----------------------------------------
Magnitude (a.u.)       :      0.91200
Magnitude (Debye)      :      2.31812

Rotational constants in cm-1:     0.064723     0.013160     0.012587
Rotational constants in MHz :  1940.361059   394.531700   377.337116

                             ****ORCA TERMINATED NORMALLY****
TOTAL RUN TIME: 0 days 0 hours 11 minutes 41 seconds 970 msec
