                         Program Version 4.2.1 -  RELEASE  -
|  1> %pal
|  2>  nprocs 32
|  3> end
|  4> !RI-MP2 aug-cc-pVTZ aug-cc-pVTZ/C TightSCF
|  5> %maxcore 4500
|  6> *xyzfile 0 1  02_6P.xyz
|  7>
|  8>
|  9>                          ****END OF INPUT****

CARTESIAN COORDINATES (ANGSTROEM)
---------------------------------
  C     -1.713542   -1.620539   -0.092079
  C     -3.056674   -0.911449    0.193453
  C     -2.810151    0.586945   -0.094344
  C     -1.313243    0.706089   -0.021438
  C     -0.722617   -0.491630   -0.022205
  H     -1.501410   -2.415315    0.627634
  H     -1.695350   -2.081695   -1.086238
  H     -3.312208   -1.036490    1.247514
  H     -3.881204   -1.320818   -0.390830
  H     -3.162460    0.876358   -1.092083
  H     -3.323279    1.240208    0.617033
  C      0.720045   -0.551117   -0.009634
  C     -0.558789    1.996101   -0.007099
  C      1.603093   -1.555029   -0.021639
  C      3.029620   -1.068499   -0.001440
  H      3.574723   -1.413324   -0.885261
  H      3.569174   -1.464114    0.864113
  C      2.910041    0.471178    0.041496
  H      3.351741    0.896779    0.943639
  H      3.393437    0.953245   -0.809033
  C      1.422541    0.749454    0.018123
  N      0.897227    1.900664    0.019298
  H     -0.867284    2.599527    0.855983
  H     -0.835855    2.599548   -0.881199
  H      1.347440   -2.607577   -0.045513

 Total Charge           Charge          ....    0
 Multiplicity           Mult            ....    1
 Number of Electrons    NEL             ....   86
 Basis Dimension        Dim             ....  851

ORBITAL ENERGIES
----------------

  NO   OCC          E(Eh)            E(eV)
   0   2.0000     -15.537093      -422.7858
   1   2.0000     -11.269283      -306.6528
   2   2.0000     -11.250713      -306.1475
   3   2.0000     -11.237699      -305.7933
   4   2.0000     -11.232752      -305.6587
   5   2.0000     -11.231976      -305.6376
   6   2.0000     -11.228844      -305.5524
   7   2.0000     -11.227123      -305.5056
   8   2.0000     -11.225776      -305.4689
   9   2.0000     -11.224006      -305.4207
  10   2.0000     -11.223838      -305.4162
  11   2.0000     -11.222086      -305.3685
  12   2.0000      -1.238146       -33.6917
  13   2.0000      -1.142885       -31.0995
  14   2.0000      -1.124799       -30.6073
  15   2.0000      -1.017717       -27.6935
  16   2.0000      -0.996254       -27.1095
  17   2.0000      -0.946440       -25.7539
  18   2.0000      -0.938312       -25.5328
  19   2.0000      -0.865679       -23.5563
  20   2.0000      -0.808942       -22.0124
  21   2.0000      -0.760086       -20.6830
  22   2.0000      -0.755213       -20.5504
  23   2.0000      -0.688145       -18.7254
  24   2.0000      -0.648365       -17.6429
  25   2.0000      -0.632187       -17.2027
  26   2.0000      -0.628601       -17.1051
  27   2.0000      -0.608358       -16.5543
  28   2.0000      -0.593377       -16.1466
  29   2.0000      -0.579366       -15.7654
  30   2.0000      -0.556293       -15.1375
  31   2.0000      -0.534514       -14.5449
  32   2.0000      -0.516509       -14.0549
  33   2.0000      -0.508414       -13.8347
  34   2.0000      -0.503064       -13.6891
  35   2.0000      -0.492418       -13.3994
  36   2.0000      -0.488744       -13.2994
  37   2.0000      -0.484342       -13.1796
  38   2.0000      -0.481463       -13.1013
  39   2.0000      -0.448566       -12.2061
  40   2.0000      -0.378595       -10.3021
  41   2.0000      -0.374797       -10.1987
  42   2.0000      -0.293751        -7.9934
  43   0.0000       0.027742         0.7549
  44   0.0000       0.029930         0.8144
  45   0.0000       0.034853         0.9484
  46   0.0000       0.036930         1.0049
  47   0.0000       0.043859         1.1935

MULLIKEN ATOMIC CHARGES
-----------------------
   0 C :   -0.988752
   1 C :   -0.505300
   2 C :   -0.684091
   3 C :    0.219054
   4 C :    0.671760
   5 H :    0.215398
   6 H :    0.228128
   7 H :    0.207240
   8 H :    0.297007
   9 H :    0.195790
  10 H :    0.302526
  11 C :    1.132201
  12 C :   -0.445694
  13 C :   -1.334529
  14 C :   -0.207596
  15 H :    0.289636
  16 H :    0.289503
  17 C :   -0.494402
  18 H :    0.292887
  19 H :    0.293822
  20 C :    0.376292
  21 N :   -1.123194
  22 H :    0.265098
  23 H :    0.261478
  24 H :    0.245738
Sum of atomic charges:    0.0000000

LOEWDIN ATOMIC CHARGES
----------------------
   0 C :    0.306894
   1 C :    0.318853
   2 C :    0.312208
   3 C :   -0.049141
   4 C :   -0.065269
   5 H :   -0.143874
   6 H :   -0.139002
   7 H :   -0.147449
   8 H :   -0.146668
   9 H :   -0.138039
  10 H :   -0.141767
  11 C :   -0.073856
  12 C :    0.128929
  13 C :    0.285299
  14 C :    0.283475
  15 H :   -0.151649
  16 H :   -0.151797
  17 C :    0.313809
  18 H :   -0.144064
  19 H :   -0.144379
  20 C :   -0.278406
  21 N :    0.436618
  22 H :   -0.155844
  23 H :   -0.154329
  24 H :   -0.160553

  Mayer bond orders larger than 0.100000
B(  0-C ,  1-C ) :   1.0999 B(  0-C ,  2-C ) :   0.2418 B(  0-C ,  3-C ) :   0.2491
B(  0-C ,  4-C ) :   0.3292 B(  0-C ,  5-H ) :   1.0805 B(  0-C ,  6-H ) :   1.0275
B(  0-C , 11-C ) :  -0.2126 B(  1-C ,  2-C ) :   1.0534 B(  1-C ,  4-C ) :  -0.1086
B(  1-C ,  7-H ) :   1.0261 B(  1-C ,  8-H ) :   0.9390 B(  2-C ,  3-C ) :   0.4347
B(  2-C ,  9-H ) :   1.0347 B(  2-C , 10-H ) :   0.9567 B(  3-C ,  4-C ) :   1.4110
B(  3-C , 11-C ) :   0.1013 B(  3-C , 12-C ) :   0.5749 B(  3-C , 13-C ) :   0.2660
B(  3-C , 21-N ) :   0.1949 B(  4-C , 11-C ) :   0.4687 B(  4-C , 12-C ) :   0.2468
B(  4-C , 17-C ) :  -0.1465 B(  4-C , 20-C ) :   0.7967 B( 11-C , 12-C ) :  -0.2176
B( 11-C , 13-C ) :   0.6276 B( 11-C , 17-C ) :   0.3452 B( 11-C , 20-C ) :   0.6090
B( 11-C , 24-H ) :  -0.1289 B( 12-C , 20-C ) :   0.1796 B( 12-C , 21-N ) :   0.7754
B( 12-C , 22-H ) :   0.9891 B( 12-C , 23-H ) :   0.9930 B( 13-C , 14-C ) :   0.5656
B( 13-C , 17-C ) :   0.2763 B( 13-C , 20-C ) :  -0.2666 B( 13-C , 24-H ) :   1.2385
B( 14-C , 15-H ) :   0.9526 B( 14-C , 16-H ) :   0.9568 B( 14-C , 17-C ) :   1.1117
B( 17-C , 18-H ) :   0.9895 B( 17-C , 19-H ) :   0.9916 B( 18-H , 20-C ) :  -0.1217
B( 19-H , 20-C ) :  -0.1161 B( 20-C , 21-N ) :   0.4986

MP2 TOTAL ENERGY:     -480.713265393 Eh
FINAL SINGLE POINT ENERGY      -480.713265392843

DIPOLE MOMENT
-------------
                                X             Y             Z
Electronic contribution:      3.09712       2.38796      -0.00340
Nuclear contribution   :     -3.38510      -3.20784      -0.03462
                        -----------------------------------------
Total Dipole Moment    :     -0.28798      -0.81988      -0.03802
                        -----------------------------------------
Magnitude (a.u.)       :      0.86982
Magnitude (Debye)      :      2.21091

Rotational constants in cm-1:     0.064649     0.025069     0.018469
Rotational constants in MHz :  1938.115761   751.538558   553.678317

                             ****ORCA TERMINATED NORMALLY****
TOTAL RUN TIME: 0 days 0 hours 10 minutes 56 seconds 145 msec
