                         Program Version 4.2.1 -  RELEASE  -
|  1> %pal
|  2>  nprocs 32
|  3> end
|  4> !RI-MP2 aug-cc-pVTZ aug-cc-pVTZ/C TightSCF
|  5> %maxcore 4500
|  6> *xyzfile 0 2  06_32P.xyz
|  7>
|  8>
|  9>                          ****END OF INPUT****

CARTESIAN COORDINATES (ANGSTROEM)
---------------------------------
  C      0.997667   -0.203641   -1.566773
  C      2.370922   -0.276744   -1.014786
  F      2.639817   -1.477058   -0.401432
  Si    -0.303791    0.011911   -0.147047
  Si     0.028332    2.120006    0.839169
  Si    -0.118639   -1.653094    1.503288
  Si    -2.462150   -0.039737   -1.082438
  C     -0.567230    3.487145   -0.317913
  H     -0.364709    4.471730    0.113388
  H     -0.062783    3.441231   -1.286471
  H     -1.641919    3.420890   -0.501193
  C     -0.938243    2.236092    2.453624
  H     -0.837650    3.235558    2.886321
  H     -2.002653    2.042881    2.306146
  H     -0.569063    1.519350    3.190594
  C      1.849336    2.426327    1.212912
  H      1.973556    3.375979    1.741890
  H      2.270636    1.634669    1.835510
  H      2.440505    2.475050    0.296399
  C     -1.702654   -1.637888    2.530710
  H     -2.575269   -1.910350    1.932796
  H     -1.627643   -2.358483    3.350256
  H     -1.892900   -0.656222    2.969937
  C      0.084713   -3.365084    0.747323
  H      1.029839   -3.438279    0.206704
  H      0.084457   -4.128726    1.530632
  H     -0.725839   -3.599727    0.053577
  C      1.333721   -1.308682    2.651075
  H      2.271270   -1.283731    2.093364
  H      1.219312   -0.353658    3.169121
  H      1.413314   -2.090306    3.412247
  C     -3.023186   -1.806677   -1.429786
  H     -3.073037   -2.395225   -0.510870
  H     -4.020073   -1.810943   -1.880079
  H     -2.346220   -2.321707   -2.114481
  C     -3.699922    0.744687    0.104341
  H     -4.711699    0.680505   -0.306221
  H     -3.702855    0.243189    1.074362
  H     -3.480225    1.800720    0.275677
  C     -2.492819    0.935307   -2.697577
  H     -3.497647    0.929699   -3.129787
  H     -2.205759    1.976976   -2.537750
  H     -1.812292    0.515206   -3.441654
  C      0.687207   -1.387384   -2.504916
  H      1.439578   -1.471517   -3.294180
  H      0.671658   -2.330020   -1.957817
  H     -0.283976   -1.262081   -2.984986
  C      3.581469    0.343330   -1.612529
  C      4.769832    0.419351   -0.655763
  H      3.305744    1.342895   -1.959347
  H      3.876459   -0.220409   -2.513255
  H      5.633688    0.868478   -1.148912
  H      4.525531    1.019792    0.222261
  H      5.054539   -0.575879   -0.313123
  H      0.948378    0.721944   -2.149416

 Total Charge           Charge          ....    0
 Multiplicity           Mult            ....    2
 Number of Electrons    NEL             ....  185
 Basis Dimension        Dim             .... 1718

ORBITAL ENERGIES
----------------
                 SPIN UP ORBITALS
  NO   OCC          E(Eh)            E(eV)
   0   1.0000     -68.747436     -1870.7129
   1   1.0000     -68.746572     -1870.6893
   2   1.0000     -68.743059     -1870.5937
   3   1.0000     -68.727972     -1870.1832
   4   1.0000     -26.288133      -715.3365
   5   1.0000     -11.304292      -307.6054
   6   1.0000     -11.232761      -305.6590
   7   1.0000     -11.223530      -305.4078
   8   1.0000     -11.221454      -305.3513
   9   1.0000     -11.216050      -305.2042
  10   1.0000     -11.197829      -304.7084
  11   1.0000     -11.197074      -304.6879
  12   1.0000     -11.196522      -304.6729
  13   1.0000     -11.196280      -304.6663
  14   1.0000     -11.195798      -304.6532
  15   1.0000     -11.194914      -304.6291
  16   1.0000     -11.192788      -304.5712
  17   1.0000     -11.188696      -304.4599
  18   1.0000     -11.188388      -304.4515
  19   1.0000      -6.095295      -165.8614
  20   1.0000      -6.094492      -165.8395
  21   1.0000      -6.090778      -165.7385
  22   1.0000      -6.079706      -165.4372
  23   1.0000      -4.201551      -114.3300
  24   1.0000      -4.201262      -114.3222
  25   1.0000      -4.201219      -114.3210
  26   1.0000      -4.200643      -114.3053
  27   1.0000      -4.200498      -114.3014
  28   1.0000      -4.200458      -114.3003
  29   1.0000      -4.197000      -114.2062
  30   1.0000      -4.196785      -114.2003
  31   1.0000      -4.196687      -114.1976
  32   1.0000      -4.185416      -113.8910
  33   1.0000      -4.185184      -113.8846
  34   1.0000      -4.185120      -113.8829
  35   1.0000      -1.604768       -43.6680
  36   1.0000      -1.093764       -29.7628
  37   1.0000      -1.031277       -28.0625
  38   1.0000      -0.968162       -26.3450
  39   1.0000      -0.962360       -26.1871
  40   1.0000      -0.957820       -26.0636
  41   1.0000      -0.933032       -25.3891
  42   1.0000      -0.923752       -25.1366
  43   1.0000      -0.922481       -25.1020
  44   1.0000      -0.920665       -25.0526
  45   1.0000      -0.919399       -25.0181
  46   1.0000      -0.915748       -24.9188
  47   1.0000      -0.913706       -24.8632
  48   1.0000      -0.851787       -23.1783
  49   1.0000      -0.792785       -21.5728
  50   1.0000      -0.715829       -19.4787
  51   1.0000      -0.698888       -19.0177
  52   1.0000      -0.695651       -18.9296
  53   1.0000      -0.645511       -17.5653
  54   1.0000      -0.624524       -16.9942
  55   1.0000      -0.620025       -16.8717
  56   1.0000      -0.609351       -16.5813
  57   1.0000      -0.596972       -16.2444
  58   1.0000      -0.582518       -15.8511
  59   1.0000      -0.579502       -15.7691
  60   1.0000      -0.572966       -15.5912
  61   1.0000      -0.572790       -15.5864
  62   1.0000      -0.565690       -15.3932
  63   1.0000      -0.563207       -15.3257
  64   1.0000      -0.559347       -15.2206
  65   1.0000      -0.554506       -15.0889
  66   1.0000      -0.551996       -15.0206
  67   1.0000      -0.550035       -14.9672
  68   1.0000      -0.546389       -14.8680
  69   1.0000      -0.540120       -14.6974
  70   1.0000      -0.538647       -14.6573
  71   1.0000      -0.536857       -14.6086
  72   1.0000      -0.534763       -14.5516
  73   1.0000      -0.532219       -14.4824
  74   1.0000      -0.531181       -14.4542
  75   1.0000      -0.529265       -14.4020
  76   1.0000      -0.527625       -14.3574
  77   1.0000      -0.526094       -14.3158
  78   1.0000      -0.522608       -14.2209
  79   1.0000      -0.517212       -14.0741
  80   1.0000      -0.505898       -13.7662
  81   1.0000      -0.497030       -13.5249
  82   1.0000      -0.492140       -13.3918
  83   1.0000      -0.435635       -11.8542
  84   1.0000      -0.431455       -11.7405
  85   1.0000      -0.428430       -11.6582
  86   1.0000      -0.425543       -11.5796
  87   1.0000      -0.421535       -11.4705
  88   1.0000      -0.420183       -11.4338
  89   1.0000      -0.402324       -10.9478
  90   1.0000      -0.338529        -9.2119
  91   1.0000      -0.334532        -9.1031
  92   1.0000      -0.320071        -8.7096
  93   0.0000       0.021759         0.5921
  94   0.0000       0.027422         0.7462
  95   0.0000       0.028086         0.7643
  96   0.0000       0.029341         0.7984
  97   0.0000       0.037327         1.0157

                 SPIN DOWN ORBITALS
  NO   OCC          E(Eh)            E(eV)
   0   1.0000     -68.747366     -1870.7109
   1   1.0000     -68.746590     -1870.6898
   2   1.0000     -68.743073     -1870.5941
   3   1.0000     -68.727594     -1870.1729
   4   1.0000     -26.284798      -715.2457
   5   1.0000     -11.277821      -306.8851
   6   1.0000     -11.235122      -305.7232
   7   1.0000     -11.225649      -305.4654
   8   1.0000     -11.219403      -305.2955
   9   1.0000     -11.215305      -305.1840
  10   1.0000     -11.197825      -304.7083
  11   1.0000     -11.197091      -304.6883
  12   1.0000     -11.196475      -304.6716
  13   1.0000     -11.196274      -304.6661
  14   1.0000     -11.195814      -304.6536
  15   1.0000     -11.194832      -304.6269
  16   1.0000     -11.192782      -304.5711
  17   1.0000     -11.188698      -304.4599
  18   1.0000     -11.188404      -304.4519
  19   1.0000      -6.095189      -165.8585
  20   1.0000      -6.094520      -165.8403
  21   1.0000      -6.090800      -165.7391
  22   1.0000      -6.079110      -165.4210
  23   1.0000      -4.201289      -114.3229
  24   1.0000      -4.201221      -114.3210
  25   1.0000      -4.201170      -114.3197
  26   1.0000      -4.200702      -114.3069
  27   1.0000      -4.200509      -114.3017
  28   1.0000      -4.200473      -114.3007
  29   1.0000      -4.197049      -114.2075
  30   1.0000      -4.196796      -114.2006
  31   1.0000      -4.196696      -114.1979
  32   1.0000      -4.184980      -113.8791
  33   1.0000      -4.184820      -113.8747
  34   1.0000      -4.184153      -113.8566
  35   1.0000      -1.593825       -43.3702
  36   1.0000      -1.070138       -29.1199
  37   1.0000      -1.028395       -27.9840
  38   1.0000      -0.967971       -26.3398
  39   1.0000      -0.962173       -26.1821
  40   1.0000      -0.957807       -26.0633
  41   1.0000      -0.923886       -25.1402
  42   1.0000      -0.922397       -25.0997
  43   1.0000      -0.920627       -25.0515
  44   1.0000      -0.919522       -25.0215
  45   1.0000      -0.916029       -24.9264
  46   1.0000      -0.913952       -24.8699
  47   1.0000      -0.908743       -24.7282
  48   1.0000      -0.848320       -23.0840
  49   1.0000      -0.778891       -21.1947
  50   1.0000      -0.703874       -19.1534
  51   1.0000      -0.694628       -18.9018
  52   1.0000      -0.652826       -17.7643
  53   1.0000      -0.629417       -17.1273
  54   1.0000      -0.623488       -16.9660
  55   1.0000      -0.619627       -16.8609
  56   1.0000      -0.602427       -16.3929
  57   1.0000      -0.595603       -16.2072
  58   1.0000      -0.581714       -15.8292
  59   1.0000      -0.577711       -15.7203
  60   1.0000      -0.572803       -15.5868
  61   1.0000      -0.572491       -15.5783
  62   1.0000      -0.563011       -15.3203
  63   1.0000      -0.562553       -15.3078
  64   1.0000      -0.558289       -15.1918
  65   1.0000      -0.553245       -15.0546
  66   1.0000      -0.551831       -15.0161
  67   1.0000      -0.549476       -14.9520
  68   1.0000      -0.542327       -14.7575
  69   1.0000      -0.539256       -14.6739
  70   1.0000      -0.538156       -14.6440
  71   1.0000      -0.535196       -14.5634
  72   1.0000      -0.533946       -14.5294
  73   1.0000      -0.532076       -14.4785
  74   1.0000      -0.529310       -14.4032
  75   1.0000      -0.527565       -14.3558
  76   1.0000      -0.526059       -14.3148
  77   1.0000      -0.523085       -14.2339
  78   1.0000      -0.522360       -14.2141
  79   1.0000      -0.510155       -13.8820
  80   1.0000      -0.503061       -13.6890
  81   1.0000      -0.493379       -13.4255
  82   1.0000      -0.484237       -13.1768
  83   1.0000      -0.434444       -11.8218
  84   1.0000      -0.431344       -11.7375
  85   1.0000      -0.428386       -11.6570
  86   1.0000      -0.425389       -11.5754
  87   1.0000      -0.421306       -11.4643
  88   1.0000      -0.420168       -11.4333
  89   1.0000      -0.384239       -10.4557
  90   1.0000      -0.335672        -9.1341
  91   1.0000      -0.334161        -9.0930
  92   0.0000       0.021713         0.5908
  93   0.0000       0.027393         0.7454
  94   0.0000       0.028080         0.7641
  95   0.0000       0.029309         0.7975
  96   0.0000       0.037203         1.0123

MULLIKEN ATOMIC CHARGES AND SPIN POPULATIONS
--------------------------------------------
   0 C :    0.371688   -0.159730
   1 C :    0.866331    1.170727
   2 F :   -0.864352   -0.010095
   3 Si:    1.758853   -0.000737
   4 Si:    2.132177   -0.006038
   5 Si:    2.749108    0.014726
   6 Si:    3.141862    0.017874
   7 C :   -1.539390    0.000115
   8 H :    0.048181    0.000041
   9 H :    0.229459    0.000171
  10 H :    0.318690   -0.000077
  11 C :   -1.369760   -0.001418
  12 H :    0.126573   -0.000325
  13 H :    0.265927   -0.000129
  14 H :    0.278923    0.000018
  15 C :   -1.656218   -0.001082
  16 H :    0.028029    0.003297
  17 H :    0.332697    0.005668
  18 H :    0.179736    0.005753
  19 C :   -1.668614   -0.001681
  20 H :    0.310443   -0.000229
  21 H :    0.033198    0.000024
  22 H :    0.304604   -0.000722
  23 C :   -1.681134   -0.000168
  24 H :    0.356462   -0.000820
  25 H :   -0.077404    0.000095
  26 H :    0.329755   -0.000140
  27 C :   -1.599763    0.000935
  28 H :    0.422101    0.001543
  29 H :    0.325658    0.000082
  30 H :   -0.045251    0.000363
  31 C :   -1.595812    0.000400
  32 H :    0.321064    0.000211
  33 H :   -0.008169    0.000073
  34 H :    0.264062    0.000020
  35 C :   -1.842569    0.001707
  36 H :   -0.034004    0.000635
  37 H :    0.309112   -0.001084
  38 H :    0.303575   -0.000603
  39 C :   -1.712881   -0.001805
  40 H :    0.003562    0.000047
  41 H :    0.353481   -0.000239
  42 H :    0.285432    0.000115
  43 C :   -1.402471    0.117873
  44 H :    0.166444   -0.001081
  45 H :    0.367945   -0.004461
  46 H :    0.325778    0.004252
  47 C :   -0.727553   -0.233286
  48 C :   -1.129398    0.034414
  49 H :    0.126561   -0.009918
  50 H :    0.364128    0.088999
  51 H :    0.280990   -0.005734
  52 H :    0.384927    0.001238
  53 H :    0.250217    0.001062
  54 H :   -0.062993   -0.030875
Sum of atomic charges         :   -0.0000000

LOEWDIN ATOMIC CHARGES AND SPIN POPULATIONS
-------------------------------------------
   0 C :   -0.131694    0.096746
   1 C :   -0.464369    0.566706
   2 F :    0.488443    0.097224
   3 Si:    0.534669    0.026027
   4 Si:    0.432367    0.002396
   5 Si:    0.426331    0.000715
   6 Si:    0.425370    0.005503
   7 C :    0.544167    0.000042
   8 H :   -0.226870    0.000002
   9 H :   -0.231055    0.000033
  10 H :   -0.247538    0.000003
  11 C :    0.546992   -0.000473
  12 H :   -0.224268   -0.000104
  13 H :   -0.245142   -0.000008
  14 H :   -0.243184    0.000006
  15 C :    0.549056    0.006690
  16 H :   -0.222424    0.000831
  17 H :   -0.238074    0.001854
  18 H :   -0.247262    0.004421
  19 C :    0.543904    0.000153
  20 H :   -0.245453    0.000039
  21 H :   -0.224225    0.000029
  22 H :   -0.244243    0.000034
  23 C :    0.547852   -0.000140
  24 H :   -0.250302   -0.000054
  25 H :   -0.226761   -0.000030
  26 H :   -0.238616   -0.000024
  27 C :    0.547397    0.000156
  28 H :   -0.249579   -0.000083
  29 H :   -0.245199    0.000055
  30 H :   -0.225761   -0.000007
  31 C :    0.547664    0.000833
  32 H :   -0.243923    0.000052
  33 H :   -0.226097    0.000140
  34 H :   -0.239014    0.000134
  35 C :    0.545682    0.001901
  36 H :   -0.223912    0.000425
  37 H :   -0.241881    0.000108
  38 H :   -0.244998    0.000052
  39 C :    0.551974   -0.000168
  40 H :   -0.226298   -0.000023
  41 H :   -0.242535   -0.000009
  42 H :   -0.240194   -0.000010
  43 C :    0.536094    0.027459
  44 H :   -0.154350    0.002586
  45 H :   -0.184437    0.001119
  46 H :   -0.198585    0.005502
  47 C :    0.227228    0.104507
  48 C :    0.576951    0.010922
  49 H :   -0.160640    0.002947
  50 H :   -0.139961    0.028714
  51 H :   -0.168873    0.000747
  52 H :   -0.178681    0.002872
  53 H :   -0.174511    0.000741
  54 H :   -0.211234   -0.000292

  Mayer bond orders larger than 0.100000
B(  0-C ,  1-C ) :   1.2205 B(  0-C ,  2-F ) :   0.1630 B(  0-C ,  3-Si) :   1.1045
B(  0-C ,  4-Si) :  -0.1406 B(  0-C ,  5-Si) :   0.1193 B(  0-C , 15-C ) :  -0.1136
B(  0-C , 43-C ) :   0.4686 B(  0-C , 44-H ) :  -0.1025 B(  0-C , 47-C ) :   0.1147
B(  0-C , 54-H ) :   1.1044 B(  1-C ,  2-F ) :  -0.2011 B(  1-C ,  3-Si) :   0.2770
B(  1-C ,  4-Si) :   0.1400 B(  1-C ,  5-Si) :   0.1188 B(  1-C , 27-C ) :  -0.1099
B(  1-C , 43-C ) :   0.1391 B(  1-C , 47-C ) :   0.4492 B(  1-C , 49-H ) :  -0.1133
B(  1-C , 54-H ) :  -0.1231 B(  2-F ,  3-Si) :   0.2478 B(  2-F ,  5-Si) :  -0.1583
B(  2-F , 47-C ) :   0.1138 B(  3-Si,  4-Si) :  -0.1084 B(  3-Si,  5-Si) :  -0.2678
B(  3-Si,  6-Si) :  -0.4191 B(  3-Si,  7-C ) :   0.2380 B(  3-Si, 11-C ) :  -0.1790
B(  3-Si, 15-C ) :   0.1683 B(  3-Si, 19-C ) :   0.1260 B(  3-Si, 23-C ) :   0.1652
B(  3-Si, 27-C ) :   0.3163 B(  3-Si, 31-C ) :   0.2179 B(  3-Si, 39-C ) :   0.3099
B(  3-Si, 43-C ) :  -0.3261 B(  4-Si,  5-Si) :   0.3742 B(  4-Si,  6-Si) :   0.2578
B(  4-Si,  7-C ) :  -0.2808 B(  4-Si,  8-H ) :  -0.1042 B(  4-Si, 11-C ) :   0.3766
B(  4-Si, 15-C ) :  -0.2026 B(  4-Si, 27-C ) :  -0.1213 B(  4-Si, 31-C ) :  -0.1007
B(  4-Si, 54-H ) :  -0.1011 B(  5-Si,  6-Si) :   0.5621 B(  5-Si,  7-C ) :  -0.1134
B(  5-Si, 19-C ) :  -0.2946 B(  5-Si, 23-C ) :  -0.2846 B(  5-Si, 25-H ) :  -0.1807
B(  5-Si, 27-C ) :  -0.1626 B(  5-Si, 30-H ) :  -0.1203 B(  5-Si, 31-C ) :  -0.1045
B(  5-Si, 39-C ) :  -0.1122 B(  5-Si, 54-H ) :  -0.1265 B(  6-Si, 27-C ) :  -0.1512
B(  6-Si, 31-C ) :  -0.1746 B(  6-Si, 33-H ) :  -0.1245 B(  6-Si, 35-C ) :  -0.8775
B(  6-Si, 36-H ) :  -0.1443 B(  6-Si, 39-C ) :  -0.3498 B(  6-Si, 40-H ) :  -0.1311
B(  6-Si, 46-H ) :  -0.1021 B(  6-Si, 54-H ) :  -0.1073 B(  7-C ,  8-H ) :   1.2598
B(  7-C ,  9-H ) :   1.0749 B(  7-C , 10-H ) :   1.0041 B( 11-C , 12-H ) :   1.0470
B( 11-C , 13-H ) :   1.0618 B( 11-C , 14-H ) :   1.0571 B( 11-C , 15-C ) :   0.1637
B( 15-C , 16-H ) :   1.2170 B( 15-C , 17-H ) :   0.9744 B( 15-C , 18-H ) :   1.2465
B( 19-C , 20-H ) :   1.0152 B( 19-C , 21-H ) :   1.2738 B( 19-C , 22-H ) :   1.0448
B( 19-C , 23-C ) :   0.1179 B( 23-C , 24-H ) :   0.9781 B( 23-C , 25-H ) :   1.4449
B( 23-C , 26-H ) :   0.9724 B( 27-C , 28-H ) :   0.8857 B( 27-C , 29-H ) :   0.9871
B( 27-C , 30-H ) :   1.3665 B( 31-C , 32-H ) :   1.0003 B( 31-C , 33-H ) :   1.3232
B( 31-C , 34-H ) :   1.0750 B( 31-C , 35-C ) :   0.1242 B( 31-C , 39-C ) :   0.1024
B( 35-C , 36-H ) :   1.4061 B( 35-C , 37-H ) :   1.0685 B( 35-C , 38-H ) :   1.0546
B( 35-C , 39-C ) :   0.1793 B( 39-C , 40-H ) :   1.3458 B( 39-C , 41-H ) :   0.9508
B( 39-C , 42-H ) :   1.0736 B( 43-C , 44-H ) :   1.1829 B( 43-C , 45-H ) :   0.9990
B( 43-C , 46-H ) :   0.9875 B( 47-C , 48-C ) :   0.8619 B( 47-C , 49-H ) :   1.1993
B( 47-C , 50-H ) :   0.8784 B( 48-C , 51-H ) :   1.0076 B( 48-C , 52-H ) :   0.8785
B( 48-C , 53-H ) :   1.0251

MP2 TOTAL ENERGY:    -1809.917662525 Eh
FINAL SINGLE POINT ENERGY     -1809.917662525234

DIPOLE MOMENT
-------------
                                X             Y             Z
Electronic contribution:      5.88929      -4.67630      -1.42166
Nuclear contribution   :     -5.90766       5.11314       0.99387
                        -----------------------------------------
Total Dipole Moment    :     -0.01837       0.43684      -0.42779
                        -----------------------------------------
Magnitude (a.u.)       :      0.61169
Magnitude (Debye)      :      1.55480

Rotational constants in cm-1:     0.009478     0.007198     0.006731
Rotational constants in MHz :   284.136649   215.797601   201.790548

                             ****ORCA TERMINATED NORMALLY****
TOTAL RUN TIME: 0 days 3 hours 1 minutes 34 seconds 797 msec
