                         Program Version 4.2.1 -  RELEASE  -
|  1> %pal
|  2>  nprocs 32
|  3> end
|  4> !RI-MP2 aug-cc-pVTZ aug-cc-pVTZ/C TightSCF
|  5> %maxcore 4500
|  6> *xyzfile 0 1  10_3TS.xyz
|  7>
|  8>
|  9>                          ****END OF INPUT****

CARTESIAN COORDINATES (ANGSTROEM)
---------------------------------
  C     -1.086380    2.422865   -0.956908
  N     -0.192176    1.265578   -0.875992
  C      0.762693    1.237440    0.078087
  H      0.986815    2.221422    0.477854
  O     -0.699881    0.129382   -1.200216
  C     -1.118558   -0.593047    0.740688
  C     -2.557507   -0.374908    0.532573
  C     -0.365097    0.295783    1.495939
  H     -0.890898    1.129138    1.950272
  H      0.477067   -0.089981    2.054072
  H     -0.760203   -1.590951    0.534890
  C      1.948766    0.353021   -0.012231
  H     -1.807296    2.395620   -0.138488
  H     -0.495792    3.336991   -0.928038
  H     -1.615587    2.356815   -1.904279
  C      3.077029    0.724257    0.721201
  C      4.227608   -0.047542    0.697926
  C      4.271125   -1.202828   -0.070074
  C      3.156096   -1.575181   -0.808203
  C      1.997421   -0.812925   -0.777651
  H      3.053781    1.632101    1.314611
  H      5.092447    0.257548    1.274541
  H      5.168952   -1.808344   -0.093904
  H      3.183586   -2.474068   -1.412465
  H      1.127249   -1.109306   -1.344691
  O     -3.152676   -1.474524    0.044664
  O     -3.162354    0.646023    0.770566
  C     -4.544863   -1.349319   -0.243559
  H     -4.856462   -2.321511   -0.616579
  H     -5.101135   -1.086881    0.656328
  H     -4.707985   -0.580388   -0.999033

 Total Charge           Charge          ....    0
 Multiplicity           Mult            ....    1
 Number of Electrons    NEL             ....  118
 Basis Dimension        Dim             .... 1081

ORBITAL ENERGIES
----------------

  NO   OCC          E(Eh)            E(eV)
   0   2.0000     -20.593580      -560.3798
   1   2.0000     -20.565286      -559.6099
   2   2.0000     -20.527560      -558.5833
   3   2.0000     -15.664287      -426.2469
   4   2.0000     -11.370586      -309.4094
   5   2.0000     -11.307589      -307.6951
   6   2.0000     -11.276051      -306.8369
   7   2.0000     -11.261393      -306.4381
   8   2.0000     -11.258846      -306.3688
   9   2.0000     -11.254409      -306.2481
  10   2.0000     -11.243723      -305.9573
  11   2.0000     -11.241084      -305.8854
  12   2.0000     -11.239609      -305.8453
  13   2.0000     -11.237981      -305.8010
  14   2.0000     -11.233795      -305.6871
  15   2.0000     -11.232671      -305.6565
  16   2.0000      -1.454518       -39.5794
  17   2.0000      -1.445604       -39.3369
  18   2.0000      -1.347414       -36.6650
  19   2.0000      -1.173944       -31.9446
  20   2.0000      -1.140850       -31.0441
  21   2.0000      -1.073072       -29.1998
  22   2.0000      -1.045106       -28.4388
  23   2.0000      -1.023577       -27.8530
  24   2.0000      -0.977679       -26.6040
  25   2.0000      -0.964357       -26.2415
  26   2.0000      -0.861726       -23.4488
  27   2.0000      -0.850140       -23.1335
  28   2.0000      -0.835120       -22.7248
  29   2.0000      -0.787393       -21.4261
  30   2.0000      -0.754528       -20.5318
  31   2.0000      -0.713983       -19.4285
  32   2.0000      -0.708864       -19.2892
  33   2.0000      -0.692586       -18.8462
  34   2.0000      -0.673740       -18.3334
  35   2.0000      -0.669130       -18.2080
  36   2.0000      -0.664729       -18.0882
  37   2.0000      -0.654500       -17.8099
  38   2.0000      -0.628811       -17.1108
  39   2.0000      -0.617625       -16.8064
  40   2.0000      -0.613153       -16.6847
  41   2.0000      -0.592780       -16.1304
  42   2.0000      -0.573543       -15.6069
  43   2.0000      -0.570156       -15.5147
  44   2.0000      -0.563353       -15.3296
  45   2.0000      -0.552215       -15.0265
  46   2.0000      -0.537334       -14.6216
  47   2.0000      -0.536746       -14.6056
  48   2.0000      -0.519246       -14.1294
  49   2.0000      -0.511405       -13.9160
  50   2.0000      -0.507592       -13.8123
  51   2.0000      -0.499834       -13.6012
  52   2.0000      -0.454529       -12.3684
  53   2.0000      -0.452004       -12.2996
  54   2.0000      -0.441355       -12.0099
  55   2.0000      -0.404339       -11.0026
  56   2.0000      -0.344659        -9.3787
  57   2.0000      -0.327052        -8.8995
  58   2.0000      -0.313487        -8.5304
  59   0.0000       0.023068         0.6277
  60   0.0000       0.029611         0.8058
  61   0.0000       0.032683         0.8893
  62   0.0000       0.037615         1.0236
  63   0.0000       0.040904         1.1130

MULLIKEN ATOMIC CHARGES
-----------------------
   0 C :   -1.064525
   1 N :    0.082563
   2 C :    0.424615
   3 H :    0.455211
   4 O :   -0.874050
   5 C :    0.338888
   6 C :    0.776386
   7 C :   -0.774912
   8 H :    0.240706
   9 H :    0.478987
  10 H :    0.414709
  11 C :    1.778067
  12 H :    0.441799
  13 H :    0.324568
  14 H :    0.338287
  15 C :   -0.958091
  16 C :   -0.650426
  17 C :   -0.141009
  18 C :   -0.861828
  19 C :   -0.927266
  20 H :   -0.220570
  21 H :    0.559431
  22 H :    0.516984
  23 H :    0.412052
  24 H :    0.143077
  25 O :   -0.423885
  26 O :   -1.055002
  27 C :   -0.897861
  28 H :    0.347458
  29 H :    0.396176
  30 H :    0.379463
Sum of atomic charges:   -0.0000000

LOEWDIN ATOMIC CHARGES
----------------------
   0 C :    0.518511
   1 N :   -0.193906
   2 C :    0.017739
   3 H :   -0.153559
   4 O :    0.446041
   5 C :    0.070927
   6 C :   -0.875518
   7 C :    0.414535
   8 H :   -0.183175
   9 H :   -0.190813
  10 H :   -0.178641
  11 C :   -0.117997
  12 H :   -0.199031
  13 H :   -0.163431
  14 H :   -0.159354
  15 C :    0.210041
  16 C :    0.201735
  17 C :    0.198275
  18 C :    0.209699
  19 C :    0.227063
  20 H :   -0.173163
  21 H :   -0.181305
  22 H :   -0.181909
  23 H :   -0.179613
  24 H :   -0.231802
  25 O :    0.569516
  26 O :    0.475557
  27 C :    0.351206
  28 H :   -0.186480
  29 H :   -0.182607
  30 H :   -0.178542

  Mayer bond orders larger than 0.100000
B(  0-C ,  1-N ) :   0.8783 B(  0-C , 12-H ) :   0.8302 B(  0-C , 13-H ) :   0.9345
B(  0-C , 14-H ) :   0.9215 B(  1-N ,  2-C ) :   1.5559 B(  1-N ,  3-H ) :  -0.1422
B(  1-N ,  4-O ) :   0.7431 B(  1-N ,  5-C ) :   0.1712 B(  2-C ,  3-H ) :   0.8995
B(  2-C ,  7-C ) :   0.6034 B(  2-C , 11-C ) :   0.1861 B(  2-C , 15-C ) :   0.1626
B(  2-C , 17-C ) :   0.1142 B(  2-C , 19-C ) :   0.1218 B(  2-C , 20-H ) :  -0.3373
B(  2-C , 24-H ) :  -0.1652 B(  3-H , 11-C ) :  -0.2026 B(  3-H , 15-C ) :  -0.1523
B(  4-O ,  5-C ) :   0.2444 B(  4-O , 11-C ) :   0.1335 B(  4-O , 24-H ) :  -0.1536
B(  5-C ,  6-C ) :   0.7223 B(  5-C ,  7-C ) :   1.2709 B(  5-C ,  9-H ) :  -0.1409
B(  5-C , 10-H ) :   0.8749 B(  5-C , 26-O ) :  -0.1597 B(  6-C ,  7-C ) :   0.1311
B(  6-C , 25-O ) :   0.8786 B(  6-C , 26-O ) :   1.2511 B(  7-C ,  8-H ) :   1.0254
B(  7-C ,  9-H ) :   0.7338 B( 11-C , 15-C ) :   0.5177 B( 11-C , 16-C ) :   0.1297
B( 11-C , 20-H ) :  -0.4201 B( 11-C , 24-H ) :  -0.1824 B( 15-C , 16-C ) :   1.2289
B( 15-C , 17-C ) :  -0.1602 B( 15-C , 18-C ) :   0.1136 B( 15-C , 19-C ) :  -0.4856
B( 15-C , 20-H ) :   2.0850 B( 15-C , 22-H ) :   0.1144 B( 15-C , 24-H ) :   0.1379
B( 16-C , 17-C ) :   1.0990 B( 16-C , 18-C ) :   0.1896 B( 16-C , 20-H ) :  -0.1576
B( 16-C , 21-H ) :   0.6347 B( 16-C , 22-H ) :  -0.2100 B( 16-C , 24-H ) :  -0.1171
B( 17-C , 18-C ) :   1.1778 B( 17-C , 19-C ) :  -0.1828 B( 17-C , 22-H ) :   0.7121
B( 18-C , 19-C ) :   1.3517 B( 18-C , 22-H ) :  -0.1964 B( 18-C , 23-H ) :   0.8628
B( 19-C , 20-H ) :   0.3882 B( 19-C , 24-H ) :   1.7095 B( 20-H , 24-H ) :   0.2577
B( 25-O , 27-C ) :   0.9077 B( 27-C , 28-H ) :   0.9142 B( 27-C , 29-H ) :   0.8652
B( 27-C , 30-H ) :   0.8727

MP2 TOTAL ENERGY:     -745.255486854 Eh
FINAL SINGLE POINT ENERGY      -745.255486854374

DIPOLE MOMENT
-------------
                                X             Y             Z
Electronic contribution:      2.00437      -1.97026      -0.56434
Nuclear contribution   :     -1.25920       2.26826       0.81519
                        -----------------------------------------
Total Dipole Moment    :      0.74517       0.29800       0.25085
                        -----------------------------------------
Magnitude (a.u.)       :      0.84084
Magnitude (Debye)      :      2.13725

Rotational constants in cm-1:     0.038486     0.009639     0.008852
Rotational constants in MHz :  1153.783374   288.961918   265.376186

                             ****ORCA TERMINATED NORMALLY****
TOTAL RUN TIME: 0 days 0 hours 24 minutes 6 seconds 319 msec
