                         Program Version 4.2.1 -  RELEASE  -
|  1> %pal
|  2>  nprocs 32
|  3> end
|  4> !RI-MP2 aug-cc-pVTZ aug-cc-pVTZ/C TightSCF
|  5> %maxcore 4500
|  6> *xyzfile 0 1  05_37R1.xyz
|  7>
|  8>
|  9>                          ****END OF INPUT****

CARTESIAN COORDINATES (ANGSTROEM)
---------------------------------
  C     -2.518899    1.293054    0.108455
  C     -3.654872    0.551141    0.394266
  C     -3.637593   -0.828040    0.235813
  C     -2.482938   -1.459421   -0.210153
  C     -1.343465   -0.717292   -0.475264
  C     -1.345811    0.664947   -0.305011
  H     -2.533489    2.372426    0.215345
  H     -4.556049    1.048257    0.732048
  H     -4.526477   -1.409905    0.447603
  H     -2.474427   -2.532818   -0.356505
  H     -0.452267   -1.208270   -0.841533
  C     -0.149808    1.503527   -0.579916
  N      1.066950    1.204892   -0.485045
  Si     2.101428   -0.079687    0.086022
  C      2.453358   -1.232724   -1.350611
  H      2.826142   -0.669428   -2.209029
  H      3.219352   -1.961675   -1.072509
  H      1.571033   -1.787918   -1.675554
  C      3.688391    0.754893    0.616829
  H      3.499814    1.468982    1.422222
  H      4.423503    0.029723    0.976208
  H      4.129543    1.306655   -0.215920
  C      1.415267   -1.011922    1.566353
  H      0.554032   -1.636173    1.328246
  H      2.192347   -1.656467    1.987341
  H      1.110274   -0.313932    2.350436
  H     -0.413743    2.522943   -0.901948

 Total Charge           Charge          ....    0
 Multiplicity           Mult            ....    1
 Number of Electrons    NEL             ....   96
 Basis Dimension        Dim             ....  901

ORBITAL ENERGIES
----------------

  NO   OCC          E(Eh)            E(eV)
   0   2.0000     -68.760549     -1871.0697
   1   2.0000     -15.522390      -422.3857
   2   2.0000     -11.292126      -307.2744
   3   2.0000     -11.247769      -306.0674
   4   2.0000     -11.246682      -306.0378
   5   2.0000     -11.246575      -306.0349
   6   2.0000     -11.245340      -306.0013
   7   2.0000     -11.243549      -305.9525
   8   2.0000     -11.243223      -305.9437
   9   2.0000     -11.193800      -304.5988
  10   2.0000     -11.190370      -304.5054
  11   2.0000     -11.184914      -304.3570
  12   2.0000      -6.105348      -166.1350
  13   2.0000      -4.212361      -114.6242
  14   2.0000      -4.211815      -114.6093
  15   2.0000      -4.211486      -114.6004
  16   2.0000      -1.200540       -32.6684
  17   2.0000      -1.158737       -31.5308
  18   2.0000      -1.036203       -28.1965
  19   2.0000      -1.028599       -27.9896
  20   2.0000      -0.962312       -26.1858
  21   2.0000      -0.920635       -25.0518
  22   2.0000      -0.914472       -24.8841
  23   2.0000      -0.873634       -23.7728
  24   2.0000      -0.839347       -22.8398
  25   2.0000      -0.787674       -21.4337
  26   2.0000      -0.719036       -19.5660
  27   2.0000      -0.668860       -18.2006
  28   2.0000      -0.656762       -17.8714
  29   2.0000      -0.624078       -16.9820
  30   2.0000      -0.606043       -16.4913
  31   2.0000      -0.597327       -16.2541
  32   2.0000      -0.575810       -15.6686
  33   2.0000      -0.556013       -15.1299
  34   2.0000      -0.554763       -15.0959
  35   2.0000      -0.543806       -14.7977
  36   2.0000      -0.535619       -14.5749
  37   2.0000      -0.526878       -14.3371
  38   2.0000      -0.523677       -14.2500
  39   2.0000      -0.518314       -14.1040
  40   2.0000      -0.515507       -14.0277
  41   2.0000      -0.502378       -13.6704
  42   2.0000      -0.463349       -12.6084
  43   2.0000      -0.430449       -11.7131
  44   2.0000      -0.416238       -11.3264
  45   2.0000      -0.360125        -9.7995
  46   2.0000      -0.348237        -9.4760
  47   2.0000      -0.337498        -9.1838
  48   0.0000       0.023691         0.6447
  49   0.0000       0.029995         0.8162
  50   0.0000       0.031184         0.8486
  51   0.0000       0.037887         1.0310
  52   0.0000       0.041547         1.1305

MULLIKEN ATOMIC CHARGES
-----------------------
   0 C :   -1.098662
   1 C :   -0.567612
   2 C :   -0.092366
   3 C :   -1.193682
   4 C :   -0.662691
   5 C :    1.990362
   6 H :    0.017052
   7 H :    0.531059
   8 H :    0.530959
   9 H :    0.429926
  10 H :    0.399868
  11 C :   -0.420191
  12 N :   -0.761610
  13 Si:    2.241508
  14 C :   -1.298228
  15 H :    0.255930
  16 H :    0.213328
  17 H :    0.392868
  18 C :   -1.636428
  19 H :    0.228294
  20 H :    0.234000
  21 H :    0.217358
  22 C :   -1.315179
  23 H :    0.433120
  24 H :    0.179412
  25 H :    0.258083
  26 H :    0.493520
Sum of atomic charges:   -0.0000000

LOEWDIN ATOMIC CHARGES
----------------------
   0 C :    0.205244
   1 C :    0.204830
   2 C :    0.201972
   3 C :    0.214023
   4 C :    0.199758
   5 C :   -0.127181
   6 H :   -0.174303
   7 H :   -0.181120
   8 H :   -0.179920
   9 H :   -0.177688
  10 H :   -0.211151
  11 C :   -0.064733
  12 N :    0.295704
  13 Si:    0.339610
  14 C :    0.583959
  15 H :   -0.227176
  16 H :   -0.228634
  17 H :   -0.242755
  18 C :    0.571053
  19 H :   -0.230473
  20 H :   -0.231420
  21 H :   -0.231767
  22 C :    0.583643
  23 H :   -0.250409
  24 H :   -0.228677
  25 H :   -0.223549
  26 H :   -0.188840

  Mayer bond orders larger than 0.100000
B(  0-C ,  1-C ) :   1.1683 B(  0-C ,  2-C ) :  -0.2863 B(  0-C ,  3-C ) :   0.1578
B(  0-C ,  4-C ) :  -0.4131 B(  0-C ,  5-C ) :   0.4324 B(  0-C ,  6-H ) :   1.8140
B(  0-C , 11-C ) :   0.3719 B(  1-C ,  2-C ) :   1.1150 B(  1-C ,  3-C ) :   0.1867
B(  1-C ,  5-C ) :   0.1524 B(  1-C ,  7-H ) :   0.6431 B(  1-C ,  8-H ) :  -0.1337
B(  2-C ,  3-C ) :   1.0320 B(  2-C ,  4-C ) :  -0.1695 B(  2-C ,  5-C ) :   0.1177
B(  2-C ,  8-H ) :   0.6968 B(  3-C ,  4-C ) :   1.1801 B(  3-C ,  8-H ) :  -0.1916
B(  3-C ,  9-H ) :   0.7772 B(  4-C ,  5-C ) :   0.6225 B(  4-C ,  6-H ) :   0.2420
B(  4-C ,  8-H ) :  -0.1258 B(  4-C ,  9-H ) :   0.1173 B(  4-C , 10-H ) :   0.8575
B(  4-C , 11-C ) :   0.2358 B(  4-C , 12-N ) :   0.1811 B(  5-C ,  6-H ) :  -0.3229
B(  5-C ,  8-H ) :   0.2042 B(  5-C ,  9-H ) :  -0.2161 B(  5-C , 11-C ) :  -0.2485
B(  6-H , 10-H ) :   0.1594 B(  6-H , 11-C ) :  -0.2217 B( 11-C , 12-N ) :   0.9359
B( 11-C , 13-Si) :  -0.1396 B( 11-C , 26-H ) :   0.6727 B( 12-N , 13-Si) :   0.9312
B( 12-N , 14-C ) :   0.1450 B( 12-N , 18-C ) :   0.2827 B( 12-N , 22-C ) :   0.1901
B( 12-N , 26-H ) :  -0.1411 B( 13-Si, 14-C ) :   0.5772 B( 13-Si, 18-C ) :  -0.1712
B( 13-Si, 22-C ) :   0.5542 B( 14-C , 15-H ) :   0.9610 B( 14-C , 16-H ) :   0.9916
B( 14-C , 17-H ) :   0.8596 B( 14-C , 18-C ) :   0.2546 B( 14-C , 22-C ) :   0.2189
B( 18-C , 19-H ) :   1.0205 B( 18-C , 20-H ) :   1.0339 B( 18-C , 21-H ) :   1.0467
B( 18-C , 22-C ) :   0.2219 B( 22-C , 23-H ) :   0.8348 B( 22-C , 24-H ) :   1.0597
B( 22-C , 25-H ) :   0.9514

MP2 TOTAL ENERGY:     -732.996740869 Eh
FINAL SINGLE POINT ENERGY      -732.996740868625

DIPOLE MOMENT
-------------
                                X             Y             Z
Electronic contribution:     -9.35768       4.13795      -2.06073
Nuclear contribution   :      8.58987      -4.48970       2.21489
                        -----------------------------------------
Total Dipole Moment    :     -0.76780      -0.35175       0.15416
                        -----------------------------------------
Magnitude (a.u.)       :      0.85850
Magnitude (Debye)      :      2.18212

Rotational constants in cm-1:     0.058058     0.014786     0.013616
Rotational constants in MHz :  1740.527771   443.278647   408.188017

                             ****ORCA TERMINATED NORMALLY****
TOTAL RUN TIME: 0 days 0 hours 14 minutes 26 seconds 754 msec
