                         Program Version 4.2.1 -  RELEASE  -
|  1> %pal
|  2>  nprocs 32
|  3> end
|  4> !RI-MP2 aug-cc-pVTZ aug-cc-pVTZ/C TightSCF
|  5> %maxcore 4500
|  6> *xyzfile 0 2  04_12P1.xyz
|  7>
|  8>
|  9>                          ****END OF INPUT****

CARTESIAN COORDINATES (ANGSTROEM)
---------------------------------
  N     -0.641872   -1.093621   -0.298929
  H      0.013284   -1.512445   -0.946766
  C     -0.107384   -0.113245    0.630670
  H     -0.743867   -0.131447    1.518681
  C      1.321067   -0.458200    1.022266
  C     -0.158801    1.300075    0.021932
  H      1.702474    0.285839    1.719720
  H      1.333813   -1.430677    1.524681
  S      2.444592   -0.605012   -0.378702
  O      0.853669    1.869001   -0.338325
  N     -1.397656    1.822720   -0.066387
  H     -1.509064    2.712287   -0.526635
  H     -2.208402    1.257120    0.155853
  C     -1.962301   -1.323785   -0.428765
  H     -2.197881   -2.110129   -1.161544
  O     -2.826497   -0.734392    0.195304

 Total Charge           Charge          ....    0
 Multiplicity           Mult            ....    2
 Number of Electrons    NEL             ....   77
 Basis Dimension        Dim             ....  579

ORBITAL ENERGIES
----------------
                 SPIN UP ORBITALS
  NO   OCC          E(Eh)            E(eV)
   0   1.0000     -91.977058     -2502.8230
   1   1.0000     -20.549499      -559.1803
   2   1.0000     -20.533355      -558.7410
   3   1.0000     -15.615275      -424.9132
   4   1.0000     -15.585508      -424.1032
   5   1.0000     -11.373483      -309.4882
   6   1.0000     -11.360192      -309.1265
   7   1.0000     -11.306192      -307.6571
   8   1.0000     -11.281119      -306.9749
   9   1.0000      -8.977542      -244.2913
  10   1.0000      -6.673242      -181.5881
  11   1.0000      -6.654597      -181.0808
  12   1.0000      -6.653067      -181.0392
  13   1.0000      -1.412543       -38.4373
  14   1.0000      -1.397864       -38.0378
  15   1.0000      -1.269455       -34.5436
  16   1.0000      -1.219079       -33.1728
  17   1.0000      -1.095250       -29.8033
  18   1.0000      -0.988810       -26.9069
  19   1.0000      -0.867315       -23.6008
  20   1.0000      -0.856127       -23.2964
  21   1.0000      -0.795348       -21.6425
  22   1.0000      -0.757588       -20.6150
  23   1.0000      -0.738341       -20.0913
  24   1.0000      -0.692238       -18.8368
  25   1.0000      -0.675877       -18.3916
  26   1.0000      -0.635388       -17.2898
  27   1.0000      -0.622740       -16.9456
  28   1.0000      -0.593051       -16.1377
  29   1.0000      -0.586072       -15.9478
  30   1.0000      -0.570397       -15.5213
  31   1.0000      -0.563561       -15.3353
  32   1.0000      -0.494319       -13.4511
  33   1.0000      -0.473596       -12.8872
  34   1.0000      -0.457907       -12.4603
  35   1.0000      -0.438835       -11.9413
  36   1.0000      -0.418941       -11.4000
  37   1.0000      -0.401497       -10.9253
  38   1.0000      -0.378337       -10.2951
  39   0.0000       0.023905         0.6505
  40   0.0000       0.031524         0.8578
  41   0.0000       0.033813         0.9201
  42   0.0000       0.045295         1.2325
  43   0.0000       0.051196         1.3931

                 SPIN DOWN ORBITALS
  NO   OCC          E(Eh)            E(eV)
   0   1.0000     -91.967630     -2502.5664
   1   1.0000     -20.549486      -559.1799
   2   1.0000     -20.531788      -558.6984
   3   1.0000     -15.615333      -424.9148
   4   1.0000     -15.585496      -424.1029
   5   1.0000     -11.373482      -309.4882
   6   1.0000     -11.360396      -309.1321
   7   1.0000     -11.305861      -307.6481
   8   1.0000     -11.282209      -307.0045
   9   1.0000      -8.967224      -244.0106
  10   1.0000      -6.649395      -180.9392
  11   1.0000      -6.647620      -180.8909
  12   1.0000      -6.631540      -180.4534
  13   1.0000      -1.412354       -38.4321
  14   1.0000      -1.395426       -37.9715
  15   1.0000      -1.269165       -34.5357
  16   1.0000      -1.218457       -33.1559
  17   1.0000      -1.082951       -29.4686
  18   1.0000      -0.958706       -26.0877
  19   1.0000      -0.858911       -23.3722
  20   1.0000      -0.822480       -22.3808
  21   1.0000      -0.786840       -21.4110
  22   1.0000      -0.755186       -20.5496
  23   1.0000      -0.735276       -20.0079
  24   1.0000      -0.690167       -18.7804
  25   1.0000      -0.672490       -18.2994
  26   1.0000      -0.629801       -17.1378
  27   1.0000      -0.621713       -16.9177
  28   1.0000      -0.587546       -15.9879
  29   1.0000      -0.584016       -15.8919
  30   1.0000      -0.561557       -15.2807
  31   1.0000      -0.560666       -15.2565
  32   1.0000      -0.481588       -13.1047
  33   1.0000      -0.464077       -12.6282
  34   1.0000      -0.454918       -12.3790
  35   1.0000      -0.421665       -11.4741
  36   1.0000      -0.408976       -11.1288
  37   1.0000      -0.359495        -9.7823
  38   0.0000       0.021742         0.5916
  39   0.0000       0.026031         0.7083
  40   0.0000       0.031621         0.8605
  41   0.0000       0.036080         0.9818
  42   0.0000       0.046833         1.2744

MULLIKEN ATOMIC CHARGES AND SPIN POPULATIONS
--------------------------------------------
   0 N :   -0.135074   -0.006231
   1 H :    0.126102   -0.005182
   2 C :    0.493038    0.007850
   3 H :    0.375814   -0.002227
   4 C :   -0.362300   -0.121210
   5 C :    0.608462   -0.006912
   6 H :    0.247762    0.001863
   7 H :    0.256965    0.031740
   8 S :   -0.282050    1.096191
   9 O :   -0.865092    0.006687
  10 N :   -0.447817   -0.002768
  11 H :    0.136067    0.000593
  12 H :    0.237373    0.000177
  13 C :   -0.248995   -0.000880
  14 H :    0.624595    0.000163
  15 O :   -0.764850    0.000148
Sum of atomic charges         :   -0.0000000

LOEWDIN ATOMIC CHARGES AND SPIN POPULATIONS
-------------------------------------------
   0 N :    0.518111   -0.000636
   1 H :   -0.344759   -0.000970
   2 C :   -0.209241    0.005930
   3 H :   -0.148436   -0.000114
   4 C :   -0.215264    0.132893
   5 C :   -0.681159    0.003333
   6 H :   -0.230290    0.002513
   7 H :   -0.224740    0.024000
   8 S :    0.960016    0.802451
   9 O :    0.434511    0.031378
  10 N :    0.866041   -0.000956
  11 H :   -0.275913    0.000011
  12 H :   -0.397530   -0.000063
  13 C :   -0.336992   -0.000012
  14 H :   -0.165637   -0.000006
  15 O :    0.451282    0.000247

  Mayer bond orders larger than 0.100000
B(  0-N ,  1-H ) :   1.0198 B(  0-N ,  2-C ) :   0.8161 B(  0-N ,  5-C ) :   0.1174
B(  0-N , 13-C ) :   1.2363 B(  2-C ,  3-H ) :   0.8491 B(  2-C ,  4-C ) :   0.9609
B(  2-C ,  5-C ) :   0.4930 B(  2-C ,  8-S ) :   0.1564 B(  4-C ,  6-H ) :   0.9648
B(  4-C ,  7-H ) :   0.9339 B(  4-C ,  8-S ) :   0.8322 B(  5-C ,  9-O ) :   1.2988
B(  5-C , 10-N ) :   0.9193 B( 10-N , 11-H ) :   1.0503 B( 10-N , 12-H ) :   0.9729
B( 13-C , 14-H ) :   0.5466 B( 13-C , 15-O ) :   1.6630

MP2 TOTAL ENERGY:     -813.595175170 Eh
FINAL SINGLE POINT ENERGY      -813.595175170089

DIPOLE MOMENT
-------------
                                X             Y             Z
Electronic contribution:      3.20775      -0.00430      -2.14713
Nuclear contribution   :     -3.66329      -0.87316       2.25142
                        -----------------------------------------
Total Dipole Moment    :     -0.45553      -0.87746       0.10429
                        -----------------------------------------
Magnitude (a.u.)       :      0.99414
Magnitude (Debye)      :      2.52691

Rotational constants in cm-1:     0.070404     0.034598     0.025905
Rotational constants in MHz :  2110.647336  1037.235188   776.608756

                             ****ORCA TERMINATED NORMALLY****
TOTAL RUN TIME: 0 days 0 hours 6 minutes 47 seconds 416 msec
