                         Program Version 4.2.1 -  RELEASE  -
|  1> %pal
|  2>  nprocs 32
|  3> end
|  4> !RI-MP2 aug-cc-pVTZ aug-cc-pVTZ/C TightSCF
|  5> %maxcore 4500
|  6> *xyzfile 0 1  05_27R1.xyz
|  7>
|  8>
|  9>                          ****END OF INPUT****

CARTESIAN COORDINATES (ANGSTROEM)
---------------------------------
  C      3.273571    0.239752    0.257116
  C      2.380549    1.296040    0.372134
  C      1.029606    1.103617    0.115857
  C      0.558417   -0.149140   -0.257921
  C      1.459911   -1.201757   -0.385040
  C      2.809082   -1.012124   -0.124409
  H      4.327662    0.392308    0.455201
  H      2.738239    2.278401    0.657469
  H      0.330119    1.926335    0.185025
  H      1.103427   -2.178733   -0.695167
  H      3.500229   -1.840305   -0.226934
  C     -0.910138   -0.398226   -0.481072
  O     -1.597601    0.813972   -0.782623
  C     -1.635368   -0.975228    0.739502
  C     -2.855524    0.863517   -0.108146
  C     -3.070969   -0.521854    0.494253
  H     -1.234164   -0.521435    1.649410
  H     -1.518660   -2.056232    0.817239
  H     -2.808779    1.632765    0.670799
  H     -3.626206    1.147455   -0.827048
  H     -3.679090   -0.495134    1.398900
  H     -3.561141   -1.181082   -0.226509
  H     -1.025657   -1.083696   -1.331064

 Total Charge           Charge          ....    0
 Multiplicity           Mult            ....    1
 Number of Electrons    NEL             ....   80
 Basis Dimension        Dim             ....  782

ORBITAL ENERGIES
----------------

  NO   OCC          E(Eh)            E(eV)
   0   2.0000     -20.549509      -559.1806
   1   2.0000     -11.282499      -307.0124
   2   2.0000     -11.273167      -306.7585
   3   2.0000     -11.233603      -305.6819
   4   2.0000     -11.230664      -305.6019
   5   2.0000     -11.228966      -305.5557
   6   2.0000     -11.228281      -305.5371
   7   2.0000     -11.228023      -305.5300
   8   2.0000     -11.227308      -305.5106
   9   2.0000     -11.226491      -305.4884
  10   2.0000     -11.222712      -305.3855
  11   2.0000      -1.376339       -37.4521
  12   2.0000      -1.153573       -31.3903
  13   2.0000      -1.068330       -29.0707
  14   2.0000      -1.043826       -28.4039
  15   2.0000      -1.011154       -27.5149
  16   2.0000      -0.969294       -26.3758
  17   2.0000      -0.844837       -22.9892
  18   2.0000      -0.826152       -22.4807
  19   2.0000      -0.812939       -22.1212
  20   2.0000      -0.776769       -21.1370
  21   2.0000      -0.706093       -19.2138
  22   2.0000      -0.687533       -18.7087
  23   2.0000      -0.661216       -17.9926
  24   2.0000      -0.626094       -17.0369
  25   2.0000      -0.624571       -16.9954
  26   2.0000      -0.595711       -16.2101
  27   2.0000      -0.587081       -15.9753
  28   2.0000      -0.581443       -15.8219
  29   2.0000      -0.560067       -15.2402
  30   2.0000      -0.532447       -14.4886
  31   2.0000      -0.507468       -13.8089
  32   2.0000      -0.497557       -13.5392
  33   2.0000      -0.490335       -13.3427
  34   2.0000      -0.481704       -13.1078
  35   2.0000      -0.475304       -12.9337
  36   2.0000      -0.464703       -12.6452
  37   2.0000      -0.416129       -11.3234
  38   2.0000      -0.333385        -9.0719
  39   2.0000      -0.323574        -8.8049
  40   0.0000       0.027770         0.7557
  41   0.0000       0.031114         0.8467
  42   0.0000       0.033385         0.9084
  43   0.0000       0.038380         1.0444
  44   0.0000       0.043465         1.1828

MULLIKEN ATOMIC CHARGES
-----------------------
   0 C :   -0.132731
   1 C :   -0.670154
   2 C :   -0.786760
   3 C :    1.691807
   4 C :   -1.233193
   5 C :   -0.588274
   6 H :    0.503192
   7 H :    0.442833
   8 H :   -0.016989
   9 H :    0.039723
  10 H :    0.460844
  11 C :    0.508229
  12 O :   -0.816385
  13 C :   -0.560876
  14 C :   -0.367812
  15 C :   -0.597204
  16 H :    0.246348
  17 H :    0.343968
  18 H :    0.273118
  19 H :    0.344833
  20 H :    0.346510
  21 H :    0.217285
  22 H :    0.351685
Sum of atomic charges:   -0.0000000

LOEWDIN ATOMIC CHARGES
----------------------
   0 C :    0.189706
   1 C :    0.198913
   2 C :    0.218883
   3 C :   -0.106229
   4 C :    0.213247
   5 C :    0.195260
   6 H :   -0.186306
   7 H :   -0.182916
   8 H :   -0.187613
   9 H :   -0.171480
  10 H :   -0.183440
  11 C :   -0.264089
  12 O :    0.594181
  13 C :    0.302970
  14 C :    0.064374
  15 C :    0.297794
  16 H :   -0.135615
  17 H :   -0.132593
  18 H :   -0.151120
  19 H :   -0.155268
  20 H :   -0.141965
  21 H :   -0.143650
  22 H :   -0.133046

  Mayer bond orders larger than 0.100000
B(  0-C ,  1-C ) :   1.1078 B(  0-C ,  2-C ) :  -0.1492 B(  0-C ,  5-C ) :   1.1110
B(  0-C ,  6-H ) :   0.7589 B(  1-C ,  2-C ) :   1.1351 B(  1-C ,  4-C ) :   0.1110
B(  1-C ,  6-H ) :  -0.1890 B(  1-C ,  7-H ) :   0.8885 B(  1-C ,  8-H ) :  -0.1521
B(  2-C ,  3-C ) :   0.3897 B(  2-C ,  4-C ) :  -0.2589 B(  2-C ,  8-H ) :   1.6598
B(  2-C ,  9-H ) :   0.1608 B(  3-C ,  4-C ) :   0.2689 B(  3-C ,  8-H ) :  -0.2699
B(  3-C ,  9-H ) :  -0.2645 B(  3-C , 11-C ) :   0.5559 B(  3-C , 12-O ) :  -0.1547
B(  3-C , 22-H ) :  -0.1013 B(  4-C ,  5-C ) :   1.4033 B(  4-C ,  6-H ) :   0.1090
B(  4-C ,  8-H ) :   0.2180 B(  4-C ,  9-H ) :   1.5928 B(  4-C , 10-H ) :  -0.1181
B(  5-C ,  6-H ) :  -0.1522 B(  5-C ,  9-H ) :  -0.1234 B(  5-C , 10-H ) :   0.8209
B(  8-H ,  9-H ) :   0.1474 B(  8-H , 11-C ) :  -0.1750 B(  9-H , 11-C ) :  -0.1448
B( 11-C , 12-O ) :   0.7666 B( 11-C , 13-C ) :   0.7775 B( 11-C , 22-H ) :   1.0422
B( 12-O , 13-C ) :   0.1053 B( 12-O , 14-C ) :   0.8381 B( 13-C , 15-C ) :   0.9921
B( 13-C , 16-H ) :   0.9774 B( 13-C , 17-H ) :   0.8878 B( 14-C , 15-C ) :   0.9885
B( 14-C , 18-H ) :   0.9857 B( 14-C , 19-H ) :   0.8873 B( 15-C , 20-H ) :   0.8777
B( 15-C , 21-H ) :   0.9840

MP2 TOTAL ENERGY:     -462.569277681 Eh
FINAL SINGLE POINT ENERGY      -462.569277680850

DIPOLE MOMENT
-------------
                                X             Y             Z
Electronic contribution:      5.11414       1.53446      -2.11468
Nuclear contribution   :     -5.55465      -1.99360       2.54962
                        -----------------------------------------
Total Dipole Moment    :     -0.44052      -0.45914       0.43493
                        -----------------------------------------
Magnitude (a.u.)       :      0.77074
Magnitude (Debye)      :      1.95906

Rotational constants in cm-1:     0.100710     0.022260     0.019819
Rotational constants in MHz :  3019.204472   667.325662   594.166835

                             ****ORCA TERMINATED NORMALLY****
TOTAL RUN TIME: 0 days 0 hours 7 minutes 12 seconds 992 msec
