                         Program Version 4.2.1 -  RELEASE  -
|  1> %pal
|  2>  nprocs 32
|  3> end
|  4> !RI-MP2 aug-cc-pVTZ aug-cc-pVTZ/C TightSCF
|  5> %maxcore 4500
|  6> *xyzfile 0 1  04_89R1.xyz
|  7>
|  8>
|  9>                          ****END OF INPUT****

CARTESIAN COORDINATES (ANGSTROEM)
---------------------------------
  C      1.500402    0.412505   -0.419197
  C      0.260592   -0.239331    0.210778
  C     -1.041855    0.267776   -0.394859
  C     -2.275382   -0.308418    0.290644
  H     -1.063802    0.009753   -1.460378
  H     -1.056962    1.358787   -0.339842
  C     -3.582540    0.183871   -0.328701
  H     -2.262208   -0.041996    1.354381
  H     -2.249550   -1.404169    0.246707
  N     -4.807636   -0.320047    0.279907
  H     -3.603415   -0.080202   -1.390540
  H     -3.613511    1.276844   -0.288902
  C      2.740317   -0.322856    0.064232
  N      1.535452    1.831769   -0.130314
  H      1.444592    0.275683   -1.502774
  H      1.783090    1.982453    0.842178
  H     -4.855083   -1.331042    0.231659
  H     -4.869677   -0.056953    1.256421
  O      3.510540    0.083873    0.891500
  O      2.881379   -1.525197   -0.526552
  H      2.237895    2.302599   -0.687540
  H      3.665483   -1.946960   -0.147414
  H      0.275647   -0.033364    1.287478
  H      0.328233   -1.324172    0.094453

 Total Charge           Charge          ....    0
 Multiplicity           Mult            ....    1
 Number of Electrons    NEL             ....   80
 Basis Dimension        Dim             ....  782

ORBITAL ENERGIES
----------------

  NO   OCC          E(Eh)            E(eV)
   0   2.0000     -20.617999      -561.0443
   1   2.0000     -20.554325      -559.3116
   2   2.0000     -15.549109      -423.1128
   3   2.0000     -15.536512      -422.7700
   4   2.0000     -11.383643      -309.7647
   5   2.0000     -11.279695      -306.9361
   6   2.0000     -11.244634      -305.9820
   7   2.0000     -11.233229      -305.6717
   8   2.0000     -11.219815      -305.3067
   9   2.0000     -11.218155      -305.2615
  10   2.0000      -1.473525       -40.0966
  11   2.0000      -1.369280       -37.2600
  12   2.0000      -1.203622       -32.7522
  13   2.0000      -1.176821       -32.0229
  14   2.0000      -1.074947       -29.2508
  15   2.0000      -1.006087       -27.3770
  16   2.0000      -0.932428       -25.3727
  17   2.0000      -0.849584       -23.1184
  18   2.0000      -0.802203       -21.8291
  19   2.0000      -0.795836       -21.6558
  20   2.0000      -0.715534       -19.4707
  21   2.0000      -0.706689       -19.2300
  22   2.0000      -0.682578       -18.5739
  23   2.0000      -0.673396       -18.3240
  24   2.0000      -0.642311       -17.4782
  25   2.0000      -0.626329       -17.0433
  26   2.0000      -0.605961       -16.4890
  27   2.0000      -0.592370       -16.1192
  28   2.0000      -0.591935       -16.1074
  29   2.0000      -0.564820       -15.3695
  30   2.0000      -0.541257       -14.7283
  31   2.0000      -0.515305       -14.0222
  32   2.0000      -0.511464       -13.9176
  33   2.0000      -0.493284       -13.4229
  34   2.0000      -0.486718       -13.2443
  35   2.0000      -0.474577       -12.9139
  36   2.0000      -0.469474       -12.7750
  37   2.0000      -0.459628       -12.5071
  38   2.0000      -0.408247       -11.1090
  39   2.0000      -0.380551       -10.3553
  40   0.0000       0.026524         0.7217
  41   0.0000       0.030994         0.8434
  42   0.0000       0.034059         0.9268
  43   0.0000       0.036505         0.9933
  44   0.0000       0.046222         1.2578

MULLIKEN ATOMIC CHARGES
-----------------------
   0 C :    0.945905
   1 C :   -0.608058
   2 C :   -0.332237
   3 C :   -0.436527
   4 H :    0.221504
   5 H :    0.297685
   6 C :   -0.098941
   7 H :    0.205828
   8 H :    0.212521
   9 N :   -0.712461
  10 H :    0.243709
  11 H :    0.240592
  12 C :    0.425844
  13 N :   -0.693138
  14 H :    0.413418
  15 H :    0.081546
  16 H :    0.089096
  17 H :    0.093376
  18 O :   -0.900096
  19 O :   -0.488643
  20 H :    0.043926
  21 H :    0.239305
  22 H :    0.273398
  23 H :    0.242446
Sum of atomic charges:    0.0000000

LOEWDIN ATOMIC CHARGES
----------------------
   0 C :   -0.159499
   1 C :    0.281777
   2 C :    0.274204
   3 C :    0.276357
   4 H :   -0.134257
   5 H :   -0.148225
   6 C :    0.145701
   7 H :   -0.142521
   8 H :   -0.142351
   9 N :    0.833828
  10 H :   -0.149407
  11 H :   -0.148521
  12 C :   -0.781003
  13 N :    0.853494
  14 H :   -0.139396
  15 H :   -0.318581
  16 H :   -0.327302
  17 H :   -0.327059
  18 O :    0.460697
  19 O :    0.842238
  20 H :   -0.306820
  21 H :   -0.465456
  22 H :   -0.132032
  23 H :   -0.145867

  Mayer bond orders larger than 0.100000
B(  0-C ,  1-C ) :   0.8075 B(  0-C , 12-C ) :   0.3941 B(  0-C , 13-N ) :   0.3423
B(  0-C , 14-H ) :   0.8904 B(  0-C , 18-O ) :  -0.1261 B(  1-C ,  2-C ) :   0.9104
B(  1-C , 12-C ) :   0.1425 B(  1-C , 14-H ) :   0.1037 B(  1-C , 18-O ) :   0.1341
B(  1-C , 22-H ) :   0.9517 B(  1-C , 23-H ) :   0.9792 B(  2-C ,  3-C ) :   0.9036
B(  2-C ,  4-H ) :   0.9637 B(  2-C ,  5-H ) :   0.9247 B(  3-C ,  6-C ) :   0.9160
B(  3-C ,  7-H ) :   0.9793 B(  3-C ,  8-H ) :   0.9580 B(  6-C ,  9-N ) :   0.5983
B(  6-C , 10-H ) :   0.9883 B(  6-C , 11-H ) :   0.9922 B(  9-N , 16-H ) :   1.0122
B(  9-N , 17-H ) :   1.0078 B( 12-C , 13-N ) :   0.1758 B( 12-C , 14-H ) :  -0.1168
B( 12-C , 18-O ) :   1.2715 B( 12-C , 19-O ) :   0.9287 B( 13-N , 15-H ) :   1.0336
B( 13-N , 20-H ) :   1.0237 B( 19-O , 21-H ) :   0.9565

MP2 TOTAL ENERGY:     -496.144895773 Eh
FINAL SINGLE POINT ENERGY      -496.144895773128

DIPOLE MOMENT
-------------
                                X             Y             Z
Electronic contribution:     14.47913      -1.58960       0.39096
Nuclear contribution   :    -14.13940       1.00042      -0.51128
                        -----------------------------------------
Total Dipole Moment    :      0.33973      -0.58918      -0.12033
                        -----------------------------------------
Magnitude (a.u.)       :      0.69067
Magnitude (Debye)      :      1.75555

Rotational constants in cm-1:     0.110364     0.014264     0.013401
Rotational constants in MHz :  3308.617608   427.626095   401.757353

                             ****ORCA TERMINATED NORMALLY****
TOTAL RUN TIME: 0 days 0 hours 6 minutes 44 seconds 788 msec
