                         Program Version 4.2.1 -  RELEASE  -
|  1> %pal
|  2>  nprocs 32
|  3> end
|  4> !RI-MP2 aug-cc-pVTZ aug-cc-pVTZ/C TightSCF
|  5> %maxcore 4500
|  6> *xyzfile 1 1  05_5TS.xyz
|  7>
|  8>
|  9>                          ****END OF INPUT****

CARTESIAN COORDINATES (ANGSTROEM)
---------------------------------
  H     -2.492676   -2.186040   -0.307569
  C     -0.981816    0.332651    1.229137
  C     -1.728350    1.339224    0.696064
  H     -3.319556    1.857156   -0.712125
  H     -3.760620   -0.522592   -1.285577
  H     -0.093345   -1.175779   -0.056413
  H     -0.268157    0.524895    2.019127
  H     -1.599836    2.352331    1.057372
  C     -1.111689   -1.019768    0.735168
  C     -2.719518    1.069055   -0.283018
  N     -2.253411   -1.236278   -0.064019
  C     -2.967691   -0.230259   -0.610005
  H     -0.917123   -1.831003    1.438125
  C      2.994191   -0.466098    0.442116
  H      1.768136    2.368939   -0.769186
  H      0.126575    0.756206   -1.702476
  H      3.872109   -0.782618    0.986128
  H      3.529993    1.528736    0.566718
  C      2.096614   -1.332402   -0.076400
  C      1.811197    1.312749   -0.543826
  N      0.988133   -0.931222   -0.800225
  C      0.922091    0.418764   -1.052275
  H      2.228118   -2.398046    0.054065
  N      2.841879    0.876688    0.219964

 Total Charge           Charge          ....    1
 Multiplicity           Mult            ....    1
 Number of Electrons    NEL             ....   86
 Basis Dimension        Dim             ....  828

ORBITAL ENERGIES
----------------

  NO   OCC          E(Eh)            E(eV)
   0   2.0000     -15.790023      -429.6684
   1   2.0000     -15.759149      -428.8282
   2   2.0000     -15.752199      -428.6391
   3   2.0000     -11.456942      -311.7592
   4   2.0000     -11.444298      -311.4152
   5   2.0000     -11.429738      -311.0190
   6   2.0000     -11.428365      -310.9816
   7   2.0000     -11.417594      -310.6885
   8   2.0000     -11.415124      -310.6213
   9   2.0000     -11.390578      -309.9534
  10   2.0000     -11.375342      -309.5388
  11   2.0000     -11.354123      -308.9614
  12   2.0000      -1.478091       -40.2209
  13   2.0000      -1.429200       -38.8905
  14   2.0000      -1.385168       -37.6923
  15   2.0000      -1.232155       -33.5286
  16   2.0000      -1.216014       -33.0894
  17   2.0000      -1.185604       -32.2619
  18   2.0000      -1.102189       -29.9921
  19   2.0000      -1.039635       -28.2899
  20   2.0000      -1.031012       -28.0553
  21   2.0000      -0.996097       -27.1052
  22   2.0000      -0.933810       -25.4102
  23   2.0000      -0.897388       -24.4192
  24   2.0000      -0.860687       -23.4205
  25   2.0000      -0.849701       -23.1215
  26   2.0000      -0.823682       -22.4135
  27   2.0000      -0.803862       -21.8742
  28   2.0000      -0.798837       -21.7375
  29   2.0000      -0.775710       -21.1081
  30   2.0000      -0.773220       -21.0404
  31   2.0000      -0.767517       -20.8852
  32   2.0000      -0.744695       -20.2642
  33   2.0000      -0.728532       -19.8244
  34   2.0000      -0.695297       -18.9200
  35   2.0000      -0.669498       -18.2180
  36   2.0000      -0.658855       -17.9283
  37   2.0000      -0.646226       -17.5847
  38   2.0000      -0.614507       -16.7216
  39   2.0000      -0.553446       -15.0600
  40   2.0000      -0.525535       -14.3005
  41   2.0000      -0.506969       -13.7953
  42   2.0000      -0.376439       -10.2434
  43   0.0000      -0.123979        -3.3736
  44   0.0000      -0.074965        -2.0399
  45   0.0000      -0.062588        -1.7031
  46   0.0000      -0.057602        -1.5674
  47   0.0000      -0.051628        -1.4049

MULLIKEN ATOMIC CHARGES
-----------------------
   0 H :    0.066223
   1 C :   -0.237582
   2 C :   -0.590534
   3 H :    0.237288
   4 H :    0.750685
   5 H :    0.069807
   6 H :    0.220611
   7 H :    0.411675
   8 C :   -0.154532
   9 C :   -0.194105
  10 N :   -0.395762
  11 C :   -0.165495
  12 H :    0.472060
  13 C :   -0.590781
  14 H :    0.617880
  15 H :    0.643497
  16 H :    0.653583
  17 H :    0.094030
  18 C :   -0.358117
  19 C :   -0.444129
  20 N :   -0.508321
  21 C :   -0.024708
  22 H :    0.575431
  23 N :   -0.148703
Sum of atomic charges:    1.0000000

LOEWDIN ATOMIC CHARGES
----------------------
   0 H :   -0.228969
   1 C :    0.240318
   2 C :    0.215899
   3 H :   -0.187000
   4 H :   -0.136955
   5 H :   -0.436426
   6 H :   -0.156723
   7 H :   -0.154819
   8 C :    0.155997
   9 C :    0.229294
  10 N :    0.593126
  11 C :    0.165108
  12 H :   -0.105280
  13 C :    0.187772
  14 H :   -0.131598
  15 H :   -0.162856
  16 H :   -0.143715
  17 H :   -0.227194
  18 C :    0.126678
  19 C :    0.194798
  20 N :    0.475663
  21 C :    0.096118
  22 H :   -0.165278
  23 N :    0.556041

  Mayer bond orders larger than 0.100000
B(  0-H , 10-N ) :   1.1546 B(  1-C ,  2-C ) :   1.4588 B(  1-C ,  5-H ) :   0.1628
B(  1-C ,  6-H ) :   1.1001 B(  1-C ,  8-C ) :   1.0243 B(  1-C , 12-H ) :  -0.1288
B(  2-C ,  7-H ) :   0.9110 B(  2-C ,  8-C ) :   0.1343 B(  2-C ,  9-C ) :   1.1512
B(  2-C , 11-C ) :   0.1445 B(  3-H ,  9-C ) :   1.2251 B(  3-H , 11-C ) :  -0.1258
B(  4-H , 11-C ) :   0.3272 B(  5-H ,  8-C ) :   0.5894 B(  5-H , 20-N ) :   0.5294
B(  6-H ,  8-C ) :  -0.1013 B(  8-C , 10-N ) :   0.9639 B(  8-C , 12-H ) :   0.8301
B(  9-C , 10-N ) :  -0.2456 B(  9-C , 11-C ) :   0.9444 B( 10-N , 11-C ) :   1.2976
B( 13-C , 16-H ) :   0.4926 B( 13-C , 18-C ) :   1.3646 B( 13-C , 19-C ) :  -0.2308
B( 13-C , 21-C ) :   0.1712 B( 13-C , 23-N ) :   0.9970 B( 14-H , 19-C ) :   0.5886
B( 15-H , 20-N ) :  -0.1685 B( 15-H , 21-C ) :   0.6848 B( 17-H , 23-N ) :   1.1825
B( 18-C , 19-C ) :   0.1157 B( 18-C , 20-N ) :   0.8708 B( 18-C , 22-H ) :   0.6638
B( 18-C , 23-N ) :  -0.1282 B( 19-C , 21-C ) :   1.1525 B( 19-C , 23-N ) :   1.0313
B( 20-N , 21-C ) :   0.6481 B( 20-N , 23-N ) :  -0.1115

MP2 TOTAL ENERGY:     -513.103088653 Eh
FINAL SINGLE POINT ENERGY      -513.103088652642

DIPOLE MOMENT
-------------
                                X             Y             Z
Electronic contribution:      1.88431      -0.18026      -0.91321
Nuclear contribution   :     -0.92378       0.48812       1.29372
                        -----------------------------------------
Total Dipole Moment    :      0.96053       0.30787       0.38051
                        -----------------------------------------
Magnitude (a.u.)       :      1.07805
Magnitude (Debye)      :      2.74019

Rotational constants in cm-1:     0.066332     0.020681     0.018503
Rotational constants in MHz :  1988.586645   619.992856   554.719840

                             ****ORCA TERMINATED NORMALLY****
TOTAL RUN TIME: 0 days 0 hours 13 minutes 13 seconds 98 msec
