                         Program Version 4.2.1 -  RELEASE  -
|  1> %pal
|  2>  nprocs 32
|  3> end
|  4> !RI-MP2 aug-cc-pVTZ aug-cc-pVTZ/C TightSCF
|  5> %maxcore 4500
|  6> *xyzfile 0 2  01_13P.xyz
|  7>
|  8>
|  9>                          ****END OF INPUT****

CARTESIAN COORDINATES (ANGSTROEM)
---------------------------------
  C     -1.751028   -0.897076   -0.459836
  N     -0.584272   -0.676683    0.381914
  H     -1.668730   -1.869713   -0.947607
  H     -1.893823   -0.133820   -1.242160
  H     -2.646791   -0.912978    0.162830
  C     -0.617542    0.624996    1.052060
  C     -0.060834    1.659681    0.045578
  H      0.029174    0.576714    1.931234
  H     -1.627486    0.850396    1.395804
  C      0.769789    0.814823   -0.944287
  H      0.538782    2.418383    0.549564
  H     -0.868070    2.180448   -0.471848
  C      0.665906   -0.635268   -0.389353
  H      1.806997    1.143769   -1.011853
  H      0.348462    0.867069   -1.949448
  C      1.823738   -1.003744    0.468603
  H      2.834385   -0.771409    0.156444
  H      1.667826   -1.636514    1.332266
  H      0.589007   -1.356039   -1.215210

 Total Charge           Charge          ....    0
 Multiplicity           Mult            ....    2
 Number of Electrons    NEL             ....   55
 Basis Dimension        Dim             ....  598

ORBITAL ENERGIES
----------------
                 SPIN UP ORBITALS
  NO   OCC          E(Eh)            E(eV)
   0   1.0000     -15.539043      -422.8389
   1   1.0000     -11.249321      -306.1096
   2   1.0000     -11.238788      -305.8230
   3   1.0000     -11.238637      -305.8189
   4   1.0000     -11.222865      -305.3897
   5   1.0000     -11.216724      -305.2226
   6   1.0000     -11.214974      -305.1749
   7   1.0000      -1.239444       -33.7270
   8   1.0000      -1.046633       -28.4803
   9   1.0000      -1.012731       -27.5578
  10   1.0000      -0.936829       -25.4924
  11   1.0000      -0.885557       -24.0972
  12   1.0000      -0.788925       -21.4677
  13   1.0000      -0.755892       -20.5689
  14   1.0000      -0.665071       -18.0975
  15   1.0000      -0.650655       -17.7052
  16   1.0000      -0.619679       -16.8623
  17   1.0000      -0.597786       -16.2666
  18   1.0000      -0.557161       -15.1611
  19   1.0000      -0.548788       -14.9333
  20   1.0000      -0.544661       -14.8210
  21   1.0000      -0.501549       -13.6478
  22   1.0000      -0.489581       -13.3222
  23   1.0000      -0.476340       -12.9619
  24   1.0000      -0.473788       -12.8924
  25   1.0000      -0.459405       -12.5011
  26   1.0000      -0.355124        -9.6634
  27   1.0000      -0.347639        -9.4597
  28   0.0000       0.029887         0.8133
  29   0.0000       0.036421         0.9911
  30   0.0000       0.037104         1.0096
  31   0.0000       0.039913         1.0861
  32   0.0000       0.052674         1.4333

                 SPIN DOWN ORBITALS
  NO   OCC          E(Eh)            E(eV)
   0   1.0000     -15.538644      -422.8280
   1   1.0000     -11.252520      -306.1966
   2   1.0000     -11.238713      -305.8209
   3   1.0000     -11.238682      -305.8201
   4   1.0000     -11.215696      -305.1946
   5   1.0000     -11.214976      -305.1750
   6   1.0000     -11.199622      -304.7572
   7   1.0000      -1.237514       -33.6745
   8   1.0000      -1.040151       -28.3040
   9   1.0000      -0.993125       -27.0243
  10   1.0000      -0.929475       -25.2923
  11   1.0000      -0.845163       -22.9981
  12   1.0000      -0.787249       -21.4221
  13   1.0000      -0.740127       -20.1399
  14   1.0000      -0.657845       -17.9009
  15   1.0000      -0.648901       -17.6575
  16   1.0000      -0.613876       -16.7044
  17   1.0000      -0.592719       -16.1287
  18   1.0000      -0.556330       -15.1385
  19   1.0000      -0.542898       -14.7730
  20   1.0000      -0.539598       -14.6832
  21   1.0000      -0.487646       -13.2695
  22   1.0000      -0.484745       -13.1906
  23   1.0000      -0.474989       -12.9251
  24   1.0000      -0.468867       -12.7585
  25   1.0000      -0.455795       -12.4028
  26   1.0000      -0.353532        -9.6201
  27   0.0000       0.030066         0.8181
  28   0.0000       0.036364         0.9895
  29   0.0000       0.037321         1.0156
  30   0.0000       0.039920         1.0863
  31   0.0000       0.052498         1.4286

MULLIKEN ATOMIC CHARGES AND SPIN POPULATIONS
--------------------------------------------
   0 C :   -1.017982   -0.001746
   1 N :   -0.387357    0.017606
   2 H :    0.351600   -0.000740
   3 H :    0.305387   -0.001498
   4 H :    0.336071    0.000325
   5 C :   -0.462970   -0.003136
   6 C :   -0.548446    0.007107
   7 H :    0.255195   -0.016608
   8 H :    0.354493    0.002037
   9 C :   -0.557498    0.031332
  10 H :    0.347514    0.002038
  11 H :    0.182994   -0.001003
  12 C :    0.510618   -0.229898
  13 H :    0.350737   -0.002115
  14 H :    0.172107    0.003511
  15 C :   -1.365615    1.237027
  16 H :    0.330463   -0.077033
  17 H :    0.385795   -0.066056
  18 H :    0.456893    0.098848
Sum of atomic charges         :   -0.0000000

LOEWDIN ATOMIC CHARGES AND SPIN POPULATIONS
-------------------------------------------
   0 C :    0.449356    0.001510
   1 N :    0.269454    0.003798
   2 H :   -0.164823    0.001059
   3 H :   -0.153477    0.000145
   4 H :   -0.165586    0.000068
   5 C :    0.175579    0.010344
   6 C :    0.321795    0.003460
   7 H :   -0.147411    0.007925
   8 H :   -0.144538    0.000840
   9 C :    0.315349    0.016883
  10 H :   -0.149857    0.000692
  11 H :   -0.153227   -0.000072
  12 C :   -0.190323    0.121109
  13 H :   -0.156782    0.002895
  14 H :   -0.150697    0.002070
  15 C :    0.615578    0.558385
  16 H :   -0.216526    0.119887
  17 H :   -0.212793    0.119026
  18 H :   -0.141074    0.029976

  Mayer bond orders larger than 0.100000
B(  0-C ,  1-N ) :   0.8334 B(  0-C ,  2-H ) :   0.9180 B(  0-C ,  3-H ) :   0.9439
B(  0-C ,  4-H ) :   0.9278 B(  0-C , 12-C ) :   0.1009 B(  1-N ,  5-C ) :   0.8180
B(  1-N , 12-C ) :   0.7555 B(  1-N , 15-C ) :   0.1636 B(  1-N , 18-H ) :  -0.1403
B(  5-C ,  6-C ) :   0.9698 B(  5-C ,  7-H ) :   1.0724 B(  5-C ,  8-H ) :   0.8414
B(  6-C ,  9-C ) :   0.9903 B(  6-C , 10-H ) :   0.8171 B(  6-C , 11-H ) :   1.0583
B(  9-C , 12-C ) :   1.0027 B(  9-C , 13-H ) :   0.8340 B(  9-C , 14-H ) :   1.0657
B( 12-C , 15-C ) :   0.4450 B( 12-C , 18-H ) :   0.8456 B( 15-C , 16-H ) :   0.9776
B( 15-C , 17-H ) :   0.8647 B( 15-C , 18-H ) :  -0.1771

MP2 TOTAL ENERGY:     -289.911651150 Eh
FINAL SINGLE POINT ENERGY      -289.911651149663

DIPOLE MOMENT
-------------
                                X             Y             Z
Electronic contribution:      0.89712      -1.12983       1.07198
Nuclear contribution   :     -0.94035       1.42293      -1.37602
                        -----------------------------------------
Total Dipole Moment    :     -0.04323       0.29310      -0.30403
                        -----------------------------------------
Magnitude (a.u.)       :      0.42452
Magnitude (Debye)      :      1.07903

Rotational constants in cm-1:     0.110870     0.093425     0.072458
Rotational constants in MHz :  3323.805215  2800.817154  2172.235310

                             ****ORCA TERMINATED NORMALLY****
TOTAL RUN TIME: 0 days 0 hours 5 minutes 27 seconds 57 msec
