                         Program Version 4.2.1 -  RELEASE  -
|  1> %pal
|  2>  nprocs 32
|  3> end
|  4> !RI-MP2 aug-cc-pVTZ aug-cc-pVTZ/C TightSCF
|  5> %maxcore 4500
|  6> *xyzfile 0 1  03_9R1.xyz
|  7>
|  8>
|  9>                          ****END OF INPUT****

CARTESIAN COORDINATES (ANGSTROEM)
---------------------------------
  S      1.890726    0.000000   -0.542786
  C      0.154917    0.000000   -0.242244
  C     -0.532581    1.208642   -0.134014
  C     -1.901143    1.205659    0.083679
  C     -2.582590    0.000000    0.192611
  C     -1.901143   -1.205660    0.083678
  C     -0.532580   -1.208641   -0.134015
  H     -2.437001    2.142895    0.168165
  H     -3.652707    0.000000    0.361736
  H      0.013077    2.139375   -0.221273
  H      0.013078   -2.139375   -0.221274
  H     -2.437000   -2.142895    0.168164
  F      2.446629   -0.000001    1.036765

 Total Charge           Charge          ....    0
 Multiplicity           Mult            ....    1
 Number of Electrons    NEL             ....   66
 Basis Dimension        Dim             ....  487

ORBITAL ENERGIES
----------------

  NO   OCC          E(Eh)            E(eV)
   0   2.0000     -92.030320     -2504.2723
   1   2.0000     -26.289085      -715.3624
   2   2.0000     -11.277297      -306.8708
   3   2.0000     -11.262561      -306.4699
   4   2.0000     -11.262501      -306.4682
   5   2.0000     -11.262114      -306.4577
   6   2.0000     -11.252525      -306.1968
   7   2.0000     -11.252435      -306.1943
   8   2.0000      -9.023030      -245.5291
   9   2.0000      -6.704226      -182.4313
  10   2.0000      -6.702349      -182.3802
  11   2.0000      -6.701009      -182.3437
  12   2.0000      -1.573115       -42.8066
  13   2.0000      -1.182939       -32.1894
  14   2.0000      -1.067227       -29.0407
  15   2.0000      -1.041359       -28.3368
  16   2.0000      -0.946410       -25.7531
  17   2.0000      -0.851796       -23.1786
  18   2.0000      -0.821850       -22.3637
  19   2.0000      -0.724573       -19.7166
  20   2.0000      -0.673134       -18.3169
  21   2.0000      -0.666660       -18.1407
  22   2.0000      -0.652364       -17.7517
  23   2.0000      -0.645933       -17.5767
  24   2.0000      -0.632065       -17.1994
  25   2.0000      -0.611484       -16.6393
  26   2.0000      -0.557905       -15.1814
  27   2.0000      -0.527130       -14.3439
  28   2.0000      -0.519268       -14.1300
  29   2.0000      -0.479089       -13.0367
  30   2.0000      -0.374582       -10.1929
  31   2.0000      -0.367175        -9.9913
  32   2.0000      -0.359015        -9.7693
  33   0.0000       0.024813         0.6752
  34   0.0000       0.031691         0.8624
  35   0.0000       0.037828         1.0293
  36   0.0000       0.049509         1.3472
  37   0.0000       0.052308         1.4234

MULLIKEN ATOMIC CHARGES
-----------------------
   0 S :   -0.014503
   1 C :    0.855641
   2 C :   -0.867714
   3 C :   -0.345731
   4 C :   -0.322887
   5 C :   -0.345721
   6 C :   -0.867697
   7 H :    0.447695
   8 H :    0.462386
   9 H :    0.565062
  10 H :    0.565058
  11 H :    0.447701
  12 F :   -0.579289
Sum of atomic charges:    0.0000000

LOEWDIN ATOMIC CHARGES
----------------------
   0 S :    0.836894
   1 C :   -0.583786
   2 C :    0.112875
   3 C :    0.197662
   4 C :    0.201974
   5 C :    0.197664
   6 C :    0.112874
   7 H :   -0.182422
   8 H :   -0.175546
   9 H :   -0.198085
  10 H :   -0.198084
  11 H :   -0.182424
  12 F :   -0.139595

  Mayer bond orders larger than 0.100000
B(  0-S ,  1-C ) :   0.7661 B(  0-S ,  9-H ) :  -0.1860 B(  0-S , 10-H ) :  -0.1860
B(  0-S , 12-F ) :   0.6763 B(  1-C ,  2-C ) :   1.0001 B(  1-C ,  6-C ) :   1.0001
B(  1-C , 12-F ) :  -0.1036 B(  2-C ,  3-C ) :   1.1675 B(  2-C ,  6-C ) :   0.3512
B(  2-C ,  9-H ) :   0.6879 B(  3-C ,  4-C ) :   1.0751 B(  3-C ,  7-H ) :   0.8751
B(  4-C ,  5-C ) :   1.0751 B(  4-C ,  8-H ) :   0.8127 B(  5-C ,  6-C ) :   1.1675
B(  5-C , 11-H ) :   0.8751 B(  6-C , 10-H ) :   0.6879

MP2 TOTAL ENERGY:     -728.580868747 Eh
FINAL SINGLE POINT ENERGY      -728.580868747499

DIPOLE MOMENT
-------------
                                X             Y             Z
Electronic contribution:      9.29646      -0.00000       0.36219
Nuclear contribution   :    -10.61454       0.00000      -0.72693
                        -----------------------------------------
Total Dipole Moment    :     -1.31808      -0.00000      -0.36474
                        -----------------------------------------
Magnitude (a.u.)       :      1.36762
Magnitude (Debye)      :      3.47620

Rotational constants in cm-1:     0.140081     0.036746     0.032707
Rotational constants in MHz :  4199.513034  1101.617967   980.541336

                             ****ORCA TERMINATED NORMALLY****
TOTAL RUN TIME: 0 days 0 hours 1 minutes 57 seconds 820 msec
