                         Program Version 4.2.1 -  RELEASE  -
|  1> %pal
|  2>  nprocs 32
|  3> end
|  4> !RI-MP2 aug-cc-pVTZ aug-cc-pVTZ/C TightSCF
|  5> %maxcore 4500
|  6> *xyzfile -1 1  09_15P.xyz
|  7>
|  8>
|  9>                          ****END OF INPUT****

CARTESIAN COORDINATES (ANGSTROEM)
---------------------------------
  C     -1.037318   -0.914662   -0.338961
  C     -1.534596    0.361263   -0.082840
  C     -2.890173    0.518121    0.193777
  C     -3.740532   -0.576835    0.210187
  C     -3.239189   -1.846405   -0.049670
  C     -1.887090   -2.011295   -0.321899
  C     -0.670057    1.597233   -0.130867
  O     -1.142438    2.658648    0.226086
  C      0.716173    1.487270   -0.694798
  C      1.696835    0.676128    0.177675
  C      1.611301    0.446799    1.495625
  C      2.817110    0.180468   -0.726994
  O      3.917858   -0.469754   -0.134500
  C      3.590204   -1.708326    0.453467
  H      2.392684   -0.491297   -1.505412
  H      3.251708    1.029802   -1.272097
  H      0.704448    0.934014    1.904471
  H      4.525744   -2.148020    0.808932
  H      2.893649   -1.555997    1.281411
  H      3.145664   -2.385760   -0.296829
  H     -3.254445    1.517324    0.397436
  H     -4.794248   -0.442233    0.428066
  H     -3.899506   -2.706642   -0.032411
  H     -1.487339   -3.001561   -0.507668
  H      0.024257   -1.046333   -0.498425
  H      1.077663    2.507595   -0.859701
  H      0.620358    1.019396   -1.688671

 Total Charge           Charge          ....   -1
 Multiplicity           Mult            ....    1
 Number of Electrons    NEL             ....  102
 Basis Dimension        Dim             ....  943

ORBITAL ENERGIES
----------------

  NO   OCC          E(Eh)            E(eV)
   0   2.0000     -20.415282      -555.5281
   1   2.0000     -20.404872      -555.2448
   2   2.0000     -11.203277      -304.8567
   3   2.0000     -11.145242      -303.2774
   4   2.0000     -11.137996      -303.0803
   5   2.0000     -11.135350      -303.0083
   6   2.0000     -11.134511      -302.9855
   7   2.0000     -11.132009      -302.9174
   8   2.0000     -11.129815      -302.8577
   9   2.0000     -11.122463      -302.6576
  10   2.0000     -11.117026      -302.5096
  11   2.0000     -11.087916      -301.7175
  12   2.0000     -11.034988      -300.2773
  13   2.0000     -10.981801      -298.8300
  14   2.0000      -1.259214       -34.2650
  15   2.0000      -1.222660       -33.2703
  16   2.0000      -1.057749       -28.7828
  17   2.0000      -0.942121       -25.6364
  18   2.0000      -0.919328       -25.0162
  19   2.0000      -0.906112       -24.6566
  20   2.0000      -0.825121       -22.4527
  21   2.0000      -0.777762       -21.1640
  22   2.0000      -0.740814       -20.1586
  23   2.0000      -0.726063       -19.7572
  24   2.0000      -0.707152       -19.2426
  25   2.0000      -0.643701       -17.5160
  26   2.0000      -0.595402       -16.2017
  27   2.0000      -0.550203       -14.9718
  28   2.0000      -0.533533       -14.5182
  29   2.0000      -0.520714       -14.1693
  30   2.0000      -0.513991       -13.9864
  31   2.0000      -0.505874       -13.7655
  32   2.0000      -0.500642       -13.6232
  33   2.0000      -0.489181       -13.3113
  34   2.0000      -0.462391       -12.5823
  35   2.0000      -0.458476       -12.4758
  36   2.0000      -0.436450       -11.8764
  37   2.0000      -0.423086       -11.5127
  38   2.0000      -0.407291       -11.0829
  39   2.0000      -0.398182       -10.8351
  40   2.0000      -0.390437       -10.6243
  41   2.0000      -0.378912       -10.3107
  42   2.0000      -0.363015        -9.8781
  43   2.0000      -0.339061        -9.2263
  44   2.0000      -0.321634        -8.7521
  45   2.0000      -0.290576        -7.9070
  46   2.0000      -0.259514        -7.0617
  47   2.0000      -0.240205        -6.5363
  48   2.0000      -0.238122        -6.4796
  49   2.0000      -0.144803        -3.9403
  50   2.0000      -0.110575        -3.0089
  51   0.0000       0.088982         2.4213
  52   0.0000       0.098868         2.6903
  53   0.0000       0.107382         2.9220
  54   0.0000       0.116460         3.1690
  55   0.0000       0.117983         3.2105

MULLIKEN ATOMIC CHARGES
-----------------------
   0 C :   -0.392252
   1 C :    1.620003
   2 C :   -1.011422
   3 C :   -0.594805
   4 C :   -0.128148
   5 C :   -1.353096
   6 C :    0.928042
   7 O :   -1.268234
   8 C :   -0.279477
   9 C :    1.211198
  10 C :   -2.096453
  11 C :   -0.185834
  12 O :   -0.741718
  13 C :   -0.891086
  14 H :    0.214566
  15 H :    0.302203
  16 H :    0.222686
  17 H :    0.335752
  18 H :    0.380292
  19 H :    0.277360
  20 H :    0.005139
  21 H :    0.541691
  22 H :    0.510141
  23 H :    0.366210
  24 H :    0.439418
  25 H :    0.457806
  26 H :    0.130020
Sum of atomic charges:   -1.0000000

LOEWDIN ATOMIC CHARGES
----------------------
   0 C :    0.216645
   1 C :   -0.102514
   2 C :    0.197439
   3 C :    0.185584
   4 C :    0.177746
   5 C :    0.203179
   6 C :   -0.542101
   7 O :    0.471381
   8 C :    0.193316
   9 C :   -0.319099
  10 C :    0.333943
  11 C :   -0.092035
  12 O :    0.537552
  13 C :    0.266380
  14 H :   -0.178122
  15 H :   -0.177959
  16 H :   -0.395048
  17 H :   -0.200043
  18 H :   -0.273089
  19 H :   -0.188057
  20 H :   -0.197307
  21 H :   -0.193729
  22 H :   -0.190734
  23 H :   -0.188059
  24 H :   -0.208287
  25 H :   -0.165876
  26 H :   -0.171105

  Mayer bond orders larger than 0.100000
B(  0-C ,  1-C ) :   0.4704 B(  0-C ,  2-C ) :  -0.6071 B(  0-C ,  4-C ) :  -0.2001
B(  0-C ,  5-C ) :   1.0381 B(  0-C , 20-H ) :   0.2773 B(  0-C , 22-H ) :  -0.1905
B(  0-C , 23-H ) :   0.1168 B(  0-C , 24-H ) :   0.8378 B(  1-C ,  2-C ) :   0.4079
B(  1-C ,  3-C ) :   0.2131 B(  1-C ,  6-C ) :   0.6434 B(  1-C , 20-H ) :  -0.3721
B(  1-C , 22-H ) :   0.1683 B(  1-C , 23-H ) :  -0.1425 B(  2-C ,  3-C ) :   1.0950
B(  2-C ,  4-C ) :  -0.2631 B(  2-C ,  5-C ) :   0.1712 B(  2-C ,  6-C ) :   0.3498
B(  2-C , 20-H ) :   1.6563 B(  2-C , 21-H ) :  -0.1658 B(  2-C , 22-H ) :   0.2104
B(  2-C , 24-H ) :   0.1139 B(  3-C ,  4-C ) :   1.0313 B(  3-C ,  5-C ) :   0.2523
B(  3-C ,  6-C ) :   0.1084 B(  3-C , 21-H ) :   0.6209 B(  3-C , 22-H ) :  -0.1685
B(  4-C ,  5-C ) :   1.0625 B(  4-C ,  6-C ) :   0.1833 B(  4-C , 22-H ) :   0.7342
B(  5-C , 22-H ) :  -0.2284 B(  5-C , 23-H ) :   0.8456 B(  5-C , 24-H ) :  -0.1234
B(  6-C ,  7-O ) :   0.2692 B(  6-C ,  8-C ) :   0.7750 B(  6-C ,  9-C ) :   0.3341
B(  6-C , 20-H ) :  -0.2711 B(  6-C , 21-H ) :   0.1877 B(  6-C , 24-H ) :  -0.1182
B(  6-C , 25-H ) :  -0.1014 B(  6-C , 26-H ) :   0.1123 B(  7-O , 20-H ) :   0.1824
B(  8-C ,  9-C ) :   0.6711 B(  8-C , 11-C ) :   0.1121 B(  8-C , 25-H ) :   0.8336
B(  8-C , 26-H ) :   1.1128 B(  9-C , 10-C ) :  -0.3474 B(  9-C , 11-C ) :   0.8059
B(  9-C , 25-H ) :  -0.1489 B( 10-C , 16-H ) :   0.9910 B( 10-C , 18-H ) :   0.1497
B( 11-C , 12-O ) :   0.6161 B( 11-C , 14-H ) :   1.0539 B( 11-C , 15-H ) :   1.0158
B( 12-O , 13-C ) :   1.0322 B( 13-C , 17-H ) :   0.9496 B( 13-C , 18-H ) :   0.7882
B( 13-C , 19-H ) :   0.9373 B( 20-H , 24-H ) :   0.1799

MP2 TOTAL ENERGY:     -614.274238273 Eh
FINAL SINGLE POINT ENERGY      -614.274238272993

DIPOLE MOMENT
-------------
                                X             Y             Z
Electronic contribution:     -8.18174       5.16408      -0.20508
Nuclear contribution   :      5.25690      -6.75127      -1.84384
                        -----------------------------------------
Total Dipole Moment    :     -2.92484      -1.58719      -2.04892
                        -----------------------------------------
Magnitude (a.u.)       :      3.90793
Magnitude (Debye)      :      9.93317

Rotational constants in cm-1:     0.039288     0.013568     0.010883
Rotational constants in MHz :  1177.815038   406.768653   326.272162

                             ****ORCA TERMINATED NORMALLY****
TOTAL RUN TIME: 0 days 0 hours 16 minutes 12 seconds 115 msec
