                         Program Version 4.2.1 -  RELEASE  -
|  1> %pal
|  2>  nprocs 32
|  3> end
|  4> !RI-MP2 aug-cc-pVTZ aug-cc-pVTZ/C TightSCF
|  5> %maxcore 4500
|  6> *xyzfile 0 1  04_46P2.xyz
|  7>
|  8>
|  9>                          ****END OF INPUT****

CARTESIAN COORDINATES (ANGSTROEM)
---------------------------------
  C      0.436791   -1.197103    0.150177
  C     -0.348044   -0.000099   -0.384956
  S     -2.134554   -0.000020   -0.030783
  C      1.907046   -0.777126   -0.013910
  C      1.907143    0.777079   -0.013306
  C      0.436734    1.197209    0.149634
  H      0.188551   -2.126623   -0.362561
  H      0.194297   -1.333514    1.208641
  H     -0.306557   -0.000384   -1.478477
  H      2.305839   -1.154779   -0.957468
  H      2.532984   -1.189156    0.778542
  H      2.307176    1.155476   -0.956029
  H      2.532185    1.188313    0.780267
  H      0.188816    2.126351   -0.363944
  H      0.193691    1.334496    1.207849
  H     -2.022137    0.000381    1.309870

 Total Charge           Charge          ....    0
 Multiplicity           Mult            ....    1
 Number of Electrons    NEL             ....   56
 Basis Dimension        Dim             ....  510

ORBITAL ENERGIES
----------------

  NO   OCC          E(Eh)            E(eV)
   0   2.0000     -91.947077     -2502.0072
   1   2.0000     -11.260691      -306.4190
   2   2.0000     -11.224619      -305.4374
   3   2.0000     -11.224611      -305.4372
   4   2.0000     -11.223067      -305.3952
   5   2.0000     -11.222531      -305.3806
   6   2.0000      -8.948176      -243.4923
   7   2.0000      -6.629566      -180.3997
   8   2.0000      -6.628473      -180.3699
   9   2.0000      -6.627525      -180.3441
  10   2.0000      -1.138520       -30.9807
  11   2.0000      -1.013235       -27.5715
  12   2.0000      -0.971805       -26.4442
  13   2.0000      -0.903754       -24.5924
  14   2.0000      -0.782631       -21.2965
  15   2.0000      -0.778329       -21.1794
  16   2.0000      -0.664573       -18.0840
  17   2.0000      -0.634752       -17.2725
  18   2.0000      -0.582569       -15.8525
  19   2.0000      -0.579482       -15.7685
  20   2.0000      -0.525547       -14.3009
  21   2.0000      -0.497485       -13.5373
  22   2.0000      -0.487853       -13.2752
  23   2.0000      -0.478364       -13.0169
  24   2.0000      -0.472866       -12.8673
  25   2.0000      -0.461069       -12.5463
  26   2.0000      -0.436112       -11.8672
  27   2.0000      -0.349094        -9.4993
  28   0.0000       0.029520         0.8033
  29   0.0000       0.035014         0.9528
  30   0.0000       0.038067         1.0359
  31   0.0000       0.041180         1.1206
  32   0.0000       0.054653         1.4872

MULLIKEN ATOMIC CHARGES
-----------------------
   0 C :   -0.561376
   1 C :    0.153866
   2 S :   -0.525232
   3 C :   -0.563863
   4 C :   -0.564691
   5 C :   -0.560981
   6 H :    0.387861
   7 H :    0.171100
   8 H :    0.341760
   9 H :    0.201912
  10 H :    0.322465
  11 H :    0.202237
  12 H :    0.322051
  13 H :    0.387906
  14 H :    0.171249
  15 H :    0.113736
Sum of atomic charges:   -0.0000000

LOEWDIN ATOMIC CHARGES
----------------------
   0 C :    0.230934
   1 C :   -0.423511
   2 S :    1.313666
   3 C :    0.313373
   4 C :    0.313442
   5 C :    0.231000
   6 H :   -0.146888
   7 H :   -0.158817
   8 H :   -0.203243
   9 H :   -0.151083
  10 H :   -0.149671
  11 H :   -0.151096
  12 H :   -0.149694
  13 H :   -0.146902
  14 H :   -0.158878
  15 H :   -0.562631

  Mayer bond orders larger than 0.100000
B(  0-C ,  1-C ) :   0.8911 B(  0-C ,  3-C ) :   0.9359 B(  0-C ,  6-H ) :   0.8360
B(  0-C ,  7-H ) :   1.0860 B(  1-C ,  2-S ) :   0.7578 B(  1-C ,  5-C ) :   0.8909
B(  1-C ,  8-H ) :   0.8908 B(  2-S , 15-H ) :   1.0781 B(  3-C ,  4-C ) :   0.9825
B(  3-C ,  9-H ) :   1.0236 B(  3-C , 10-H ) :   0.8893 B(  4-C ,  5-C ) :   0.9360
B(  4-C , 11-H ) :   1.0233 B(  4-C , 12-H ) :   0.8898 B(  5-C , 13-H ) :   0.8358
B(  5-C , 14-H ) :   1.0860

MP2 TOTAL ENERGY:     -593.835219739 Eh
FINAL SINGLE POINT ENERGY      -593.835219738704

DIPOLE MOMENT
-------------
                                X             Y             Z
Electronic contribution:     -7.65339      -0.00054      -1.03485
Nuclear contribution   :      8.41903       0.00058       1.20166
                        -----------------------------------------
Total Dipole Moment    :      0.76564       0.00004       0.16681
                        -----------------------------------------
Magnitude (a.u.)       :      0.78360
Magnitude (Debye)      :      1.99175

Rotational constants in cm-1:     0.211484     0.060334     0.050464
Rotational constants in MHz :  6340.140921  1808.753051  1512.881694

                             ****ORCA TERMINATED NORMALLY****
TOTAL RUN TIME: 0 days 0 hours 2 minutes 9 seconds 156 msec
