                         Program Version 4.2.1 -  RELEASE  -
|  1> %pal
|  2>  nprocs 32
|  3> end
|  4> !RI-MP2 aug-cc-pVTZ aug-cc-pVTZ/C TightSCF
|  5> %maxcore 4500
|  6> *xyzfile 0 1  10_28R2.xyz
|  7>
|  8>
|  9>                          ****END OF INPUT****

CARTESIAN COORDINATES (ANGSTROEM)
---------------------------------
  C     -1.122765    0.782590    0.665872
  C     -1.122765    0.782590   -0.665872
  C      0.222155    0.249458   -1.123047
  C      0.222155    0.249458    1.123047
  C      1.126197    0.789278    0.000000
  H      0.507704    0.478099   -2.148359
  H      2.126289    0.347730    0.000000
  H      1.199751    1.877257    0.000000
  H      0.507704    0.478099    2.148359
  C      0.222155   -1.270273   -0.776822
  C      0.222155   -1.270273    0.776822
  H      1.119929   -1.749885   -1.172362
  H     -0.641864   -1.782525   -1.200646
  H      1.119929   -1.749885    1.172362
  H     -0.641864   -1.782525    1.200646
  H     -1.956651    1.003335   -1.319501
  H     -1.956651    1.003335    1.319501

 Total Charge           Charge          ....    0
 Multiplicity           Mult            ....    1
 Number of Electrons    NEL             ....   52
 Basis Dimension        Dim             ....  552

ORBITAL ENERGIES
----------------

  NO   OCC          E(Eh)            E(eV)
   0   2.0000     -11.225413      -305.4590
   1   2.0000     -11.225411      -305.4590
   2   2.0000     -11.217039      -305.2311
   3   2.0000     -11.216331      -305.2119
   4   2.0000     -11.215774      -305.1967
   5   2.0000     -11.215290      -305.1835
   6   2.0000     -11.214631      -305.1656
   7   2.0000      -1.176606       -32.0171
   8   2.0000      -1.005230       -27.3537
   9   2.0000      -0.969428       -26.3795
  10   2.0000      -0.943224       -25.6664
  11   2.0000      -0.794804       -21.6277
  12   2.0000      -0.763640       -20.7797
  13   2.0000      -0.702153       -19.1066
  14   2.0000      -0.693137       -18.8612
  15   2.0000      -0.641768       -17.4634
  16   2.0000      -0.600680       -16.3453
  17   2.0000      -0.550700       -14.9853
  18   2.0000      -0.529856       -14.4181
  19   2.0000      -0.491180       -13.3657
  20   2.0000      -0.484614       -13.1870
  21   2.0000      -0.483250       -13.1499
  22   2.0000      -0.465531       -12.6677
  23   2.0000      -0.451274       -12.2798
  24   2.0000      -0.430489       -11.7142
  25   2.0000      -0.337104        -9.1731
  26   0.0000       0.029007         0.7893
  27   0.0000       0.034003         0.9253
  28   0.0000       0.035991         0.9794
  29   0.0000       0.039770         1.0822
  30   0.0000       0.049464         1.3460

MULLIKEN ATOMIC CHARGES
-----------------------
   0 C :   -0.771734
   1 C :   -0.771734
   2 C :   -0.208421
   3 C :   -0.208421
   4 C :   -0.717271
   5 H :    0.498813
   6 H :    0.239117
   7 H :    0.367899
   8 H :    0.498813
   9 C :   -0.588700
  10 C :   -0.588700
  11 H :    0.222998
  12 H :    0.345897
  13 H :    0.222998
  14 H :    0.345897
  15 H :    0.556274
  16 H :    0.556274
Sum of atomic charges:    0.0000000

LOEWDIN ATOMIC CHARGES
----------------------
   0 C :    0.245705
   1 C :    0.245705
   2 C :   -0.000130
   3 C :   -0.000130
   4 C :    0.304528
   5 H :   -0.127728
   6 H :   -0.130308
   7 H :   -0.137067
   8 H :   -0.127728
   9 C :    0.321822
  10 C :    0.321822
  11 H :   -0.146219
  12 H :   -0.145840
  13 H :   -0.146219
  14 H :   -0.145840
  15 H :   -0.166187
  16 H :   -0.166187

  Mayer bond orders larger than 0.100000
B(  0-C ,  1-C ) :   1.5947 B(  0-C ,  3-C ) :   0.9637 B(  0-C ,  8-H ) :  -0.1170
B(  0-C , 16-H ) :   0.6592 B(  1-C ,  2-C ) :   0.9637 B(  1-C ,  5-H ) :  -0.1170
B(  1-C , 15-H ) :   0.6592 B(  2-C ,  4-C ) :   1.0586 B(  2-C ,  5-H ) :   0.7546
B(  2-C ,  9-C ) :   0.9068 B(  3-C ,  4-C ) :   1.0586 B(  3-C ,  8-H ) :   0.7546
B(  3-C , 10-C ) :   0.9068 B(  4-C ,  6-H ) :   0.9977 B(  4-C ,  7-H ) :   0.8355
B(  9-C , 10-C ) :   1.0741 B(  9-C , 11-H ) :   0.9716 B(  9-C , 12-H ) :   0.8703
B( 10-C , 13-H ) :   0.9716 B( 10-C , 14-H ) :   0.8703

MP2 TOTAL ENERGY:     -272.137389524 Eh
FINAL SINGLE POINT ENERGY      -272.137389524059

DIPOLE MOMENT
-------------
                                X             Y             Z
Electronic contribution:     -1.36558       1.83237       0.00000
Nuclear contribution   :      1.43577      -1.94679      -0.00000
                        -----------------------------------------
Total Dipole Moment    :      0.07019      -0.11442       0.00000
                        -----------------------------------------
Magnitude (a.u.)       :      0.13424
Magnitude (Debye)      :      0.34120

Rotational constants in cm-1:     0.132047     0.114968     0.101042
Rotational constants in MHz :  3958.668735  3446.639145  3029.158271

                             ****ORCA TERMINATED NORMALLY****
TOTAL RUN TIME: 0 days 0 hours 2 minutes 43 seconds 455 msec
