                         Program Version 4.2.1 -  RELEASE  -
|  1> %pal
|  2>  nprocs 32
|  3> end
|  4> !RI-MP2 aug-cc-pVTZ aug-cc-pVTZ/C TightSCF
|  5> %maxcore 4500
|  6> *xyzfile 0 1  10_82R.xyz
|  7>
|  8>
|  9>                          ****END OF INPUT****

CARTESIAN COORDINATES (ANGSTROEM)
---------------------------------
  C     -0.875436    2.441920   -1.060996
  C     -0.790732    0.947441   -1.009344
  C     -1.504503    0.195021   -0.181678
  C     -2.519572    0.768390    0.775293
  C     -2.901692    2.197274    0.396172
  C     -1.652434    3.025437    0.115837
  H     -1.342541    2.732784   -2.009911
  H      0.143577    2.834908   -1.088665
  H     -3.412436    0.135856    0.798547
  H     -2.107630    0.761683    1.791568
  H     -3.534607    2.176793   -0.496958
  H     -3.494870    2.643653    1.197314
  H     -1.013957    3.022673    1.005544
  H     -1.913869    4.066908   -0.083604
  C     -1.305856   -1.322100   -0.103258
  C     -0.277914   -1.783788   -1.048771
  C     -0.866709   -1.760843    1.338285
  C     -2.570230   -2.011950   -0.416308
  N      0.553985   -2.138011   -1.752146
  N     -3.569744   -2.535665   -0.616541
  C      0.388190   -1.121876    1.692184
  C      1.429243   -0.552689    1.838794
  C      2.727955    0.105457    1.877252
  H      2.609645    1.185169    1.973831
  H      3.338925   -0.269891    2.696147
  O      3.469612   -0.196780    0.686023
  C      3.083303    0.454567   -0.433056
  C      3.752170   -0.106128   -1.646768
  O      2.276176    1.345222   -0.421645
  H      3.171435   -0.973287   -1.972943
  H      3.751760    0.637285   -2.440411
  H      4.764328   -0.437239   -1.421257
  H     -1.661312   -1.486136    2.032765
  H     -0.773019   -2.848092    1.363556
  H     -0.076120    0.488334   -1.681561

 Total Charge           Charge          ....    0
 Multiplicity           Mult            ....    1
 Number of Electrons    NEL             ....  136
 Basis Dimension        Dim             .... 1242

ORBITAL ENERGIES
----------------

  NO   OCC          E(Eh)            E(eV)
   0   2.0000     -20.616725      -561.0096
   1   2.0000     -20.553338      -559.2847
   2   2.0000     -15.589316      -424.2069
   3   2.0000     -15.589244      -424.2049
   4   2.0000     -11.389523      -309.9247
   5   2.0000     -11.353593      -308.9470
   6   2.0000     -11.328706      -308.2698
   7   2.0000     -11.299880      -307.4854
   8   2.0000     -11.294203      -307.3309
   9   2.0000     -11.291664      -307.2618
  10   2.0000     -11.256658      -306.3092
  11   2.0000     -11.250332      -306.1371
  12   2.0000     -11.245937      -306.0175
  13   2.0000     -11.242072      -305.9123
  14   2.0000     -11.240888      -305.8801
  15   2.0000     -11.240829      -305.8785
  16   2.0000     -11.228719      -305.5490
  17   2.0000     -11.227201      -305.5077
  18   2.0000     -11.224367      -305.4305
  19   2.0000      -1.475820       -40.1591
  20   2.0000      -1.373726       -37.3810
  21   2.0000      -1.259056       -34.2607
  22   2.0000      -1.239070       -33.7168
  23   2.0000      -1.175813       -31.9955
  24   2.0000      -1.124438       -30.5975
  25   2.0000      -1.085176       -29.5291
  26   2.0000      -1.044120       -28.4120
  27   2.0000      -1.022937       -27.8355
  28   2.0000      -1.013293       -27.5731
  29   2.0000      -0.983458       -26.7613
  30   2.0000      -0.938811       -25.5463
  31   2.0000      -0.868544       -23.6343
  32   2.0000      -0.834932       -22.7197
  33   2.0000      -0.804281       -21.8856
  34   2.0000      -0.784750       -21.3541
  35   2.0000      -0.734348       -19.9826
  36   2.0000      -0.719037       -19.5660
  37   2.0000      -0.710666       -19.3382
  38   2.0000      -0.702634       -19.1196
  39   2.0000      -0.695505       -18.9256
  40   2.0000      -0.667647       -18.1676
  41   2.0000      -0.653999       -17.7962
  42   2.0000      -0.632923       -17.2227
  43   2.0000      -0.620597       -16.8873
  44   2.0000      -0.616904       -16.7868
  45   2.0000      -0.613343       -16.6899
  46   2.0000      -0.597416       -16.2565
  47   2.0000      -0.587954       -15.9990
  48   2.0000      -0.584175       -15.8962
  49   2.0000      -0.574740       -15.6395
  50   2.0000      -0.569568       -15.4987
  51   2.0000      -0.557477       -15.1697
  52   2.0000      -0.556759       -15.1502
  53   2.0000      -0.547678       -14.9031
  54   2.0000      -0.541195       -14.7267
  55   2.0000      -0.534958       -14.5570
  56   2.0000      -0.496745       -13.5171
  57   2.0000      -0.494697       -13.4614
  58   2.0000      -0.484442       -13.1823
  59   2.0000      -0.484145       -13.1742
  60   2.0000      -0.480707       -13.0807
  61   2.0000      -0.474233       -12.9045
  62   2.0000      -0.462755       -12.5922
  63   2.0000      -0.460995       -12.5443
  64   2.0000      -0.454152       -12.3581
  65   2.0000      -0.407726       -11.0948
  66   2.0000      -0.399882       -10.8814
  67   2.0000      -0.363891        -9.9020
  68   0.0000       0.022881         0.6226
  69   0.0000       0.028107         0.7648
  70   0.0000       0.029712         0.8085
  71   0.0000       0.034252         0.9320
  72   0.0000       0.039853         1.0845

MULLIKEN ATOMIC CHARGES
-----------------------
   0 C :   -0.375469
   1 C :   -1.309447
   2 C :    1.450069
   3 C :   -0.684158
   4 C :   -0.608824
   5 C :   -0.558749
   6 H :    0.258075
   7 H :    0.352945
   8 H :    0.326571
   9 H :    0.183338
  10 H :    0.139892
  11 H :    0.322784
  12 H :    0.161138
  13 H :    0.317003
  14 C :    0.297945
  15 C :    1.099488
  16 C :   -0.482426
  17 C :    0.988673
  18 N :   -1.100719
  19 N :   -1.104815
  20 C :    0.115576
  21 C :    0.023750
  22 C :   -0.331071
  23 H :    0.299155
  24 H :    0.316369
  25 O :   -0.579112
  26 C :    0.674617
  27 C :   -0.734000
  28 O :   -0.713978
  29 H :    0.330880
  30 H :    0.338532
  31 H :    0.307023
  32 H :    0.160706
  33 H :    0.260233
  34 H :   -0.141994
Sum of atomic charges:   -0.0000000

LOEWDIN ATOMIC CHARGES
----------------------
   0 C :    0.295765
   1 C :    0.260516
   2 C :   -0.074047
   3 C :    0.283807
   4 C :    0.301876
   5 C :    0.296419
   6 H :   -0.136263
   7 H :   -0.159203
   8 H :   -0.147625
   9 H :   -0.139393
  10 H :   -0.131872
  11 H :   -0.135359
  12 H :   -0.135445
  13 H :   -0.137489
  14 C :   -0.390082
  15 C :   -0.237067
  16 C :    0.236200
  17 C :   -0.215317
  18 N :    0.354593
  19 N :    0.323336
  20 C :    0.105478
  21 C :    0.120495
  22 C :    0.004435
  23 H :   -0.182123
  24 H :   -0.167687
  25 O :    0.582565
  26 C :   -0.826614
  27 C :    0.589995
  28 O :    0.491031
  29 H :   -0.183576
  30 H :   -0.177005
  31 H :   -0.177780
  32 H :   -0.154127
  33 H :   -0.138496
  34 H :   -0.199944

  Mayer bond orders larger than 0.100000
B(  0-C ,  1-C ) :   0.6352 B(  0-C ,  4-C ) :   0.1007 B(  0-C ,  5-C ) :   0.9106
B(  0-C ,  6-H ) :   0.9994 B(  0-C ,  7-H ) :   0.9346 B(  1-C ,  2-C ) :   0.1684
B(  1-C ,  5-C ) :   0.1661 B(  1-C ,  6-H ) :  -0.1246 B(  1-C , 34-H ) :   2.0559
B(  2-C ,  3-C ) :   0.5261 B(  2-C ,  5-C ) :  -0.1519 B(  2-C , 14-C ) :   0.6633
B(  2-C , 15-C ) :   0.5116 B(  2-C , 16-C ) :   0.1798 B(  2-C , 17-C ) :   0.4974
B(  2-C , 19-N ) :   0.1198 B(  2-C , 34-H ) :  -0.6744 B(  3-C ,  4-C ) :   0.9460
B(  3-C ,  8-H ) :   0.9205 B(  3-C ,  9-H ) :   1.1241 B(  4-C ,  5-C ) :   0.9173
B(  4-C , 10-H ) :   1.1122 B(  4-C , 11-H ) :   0.8843 B(  5-C , 12-H ) :   1.0921
B(  5-C , 13-H ) :   0.9089 B(  8-H , 14-C ) :  -0.1212 B( 14-C , 15-C ) :   0.8065
B( 14-C , 16-C ) :   0.7910 B( 14-C , 17-C ) :   1.4005 B( 14-C , 18-N ) :   0.4066
B( 14-C , 19-N ) :   0.5695 B( 14-C , 21-C ) :   0.2173 B( 14-C , 33-H ) :  -0.1008
B( 15-C , 16-C ) :   0.1145 B( 15-C , 17-C ) :  -0.1349 B( 15-C , 18-N ) :   1.3627
B( 16-C , 20-C ) :   0.7666 B( 16-C , 21-C ) :   0.1034 B( 16-C , 32-H ) :   1.0924
B( 16-C , 33-H ) :   0.9803 B( 17-C , 19-N ) :   0.8821 B( 17-C , 20-C ) :   0.2478
B( 17-C , 21-C ) :  -0.2908 B( 20-C , 21-C ) :   2.5559 B( 20-C , 33-H ) :  -0.1113
B( 21-C , 22-C ) :   0.8708 B( 22-C , 23-H ) :   0.9985 B( 22-C , 24-H ) :   0.9749
B( 22-C , 25-O ) :   0.8624 B( 25-O , 26-C ) :   0.9372 B( 26-C , 27-C ) :   0.5971
B( 26-C , 28-O ) :   1.4281 B( 27-C , 28-O ) :  -0.1115 B( 27-C , 29-H ) :   0.9040
B( 27-C , 30-H ) :   0.9471 B( 27-C , 31-H ) :   0.9597

MP2 TOTAL ENERGY:     -839.489955397 Eh
FINAL SINGLE POINT ENERGY      -839.489955396701

DIPOLE MOMENT
-------------
                                X             Y             Z
Electronic contribution:      2.37533     -13.49459      -0.46854
Nuclear contribution   :     -1.47270      14.61133       1.64850
                        -----------------------------------------
Total Dipole Moment    :      0.90263       1.11673       1.17997
                        -----------------------------------------
Magnitude (a.u.)       :      1.85853
Magnitude (Debye)      :      4.72402

Rotational constants in cm-1:     0.016850     0.010120     0.008374
Rotational constants in MHz :   505.140266   303.378726   251.060660

                             ****ORCA TERMINATED NORMALLY****
TOTAL RUN TIME: 0 days 0 hours 41 minutes 26 seconds 989 msec
