                         Program Version 4.2.1 -  RELEASE  -
|  1> %pal
|  2>  nprocs 32
|  3> end
|  4> !RI-MP2 aug-cc-pVTZ aug-cc-pVTZ/C TightSCF
|  5> %maxcore 4500
|  6> *xyzfile 1 1  10_28P.xyz
|  7>
|  8>
|  9>                          ****END OF INPUT****

CARTESIAN COORDINATES (ANGSTROEM)
---------------------------------
  C     -0.710283    3.312647   -0.689516
  C     -0.950470    1.963663   -0.001823
  C      1.094298    2.477468    0.674018
  C      0.751179    3.636090   -0.266857
  H     -0.833789    3.234050   -1.767365
  H     -1.407778    4.063110   -0.317087
  H      1.442180    3.698344   -1.110267
  H      0.828545    4.577322    0.276401
  C     -0.237353    2.152881    1.341003
  H     -0.223119    1.266602    1.973313
  H     -0.615087    2.998315    1.913675
  H     -1.977919    1.620253    0.015975
  H      1.986732    2.587224    1.284869
  N      1.247192    1.241528   -0.200853
  N     -0.097011    0.980672   -0.715164
  C     -0.339671   -0.492186   -0.648804
  C     -1.756065   -0.832221   -0.250222
  C     -2.698013   -1.028789   -1.255476
  C     -2.163406   -0.923268    1.079165
  C     -4.022367   -1.303220   -0.943488
  H     -2.391836   -0.968585   -2.293920
  C     -3.485625   -1.196637    1.394180
  H     -1.453941   -0.786464    1.886416
  C     -4.418707   -1.385405    0.382884
  H     -4.742019   -1.458720   -1.737370
  H     -3.787863   -1.269666    2.431460
  H     -5.449872   -1.604225    0.630121
  C      1.791341    0.016849    0.504472
  C      0.776536   -1.108669    0.217288
  C      1.635629   -2.149004   -0.529830
  C      3.096664   -0.477047   -0.122595
  C      2.576896   -1.249813   -1.347506
  H      1.041312   -2.869251   -1.089660
  H      3.364896   -1.802923   -1.858200
  H      2.064490   -0.632319   -2.091004
  H      3.833800    0.308886   -0.296170
  C      2.607372   -2.776715    0.482041
  C      3.603281   -1.619333    0.779179
  H      3.120677   -3.630547    0.040162
  H      2.094964   -3.134064    1.376090
  H      4.621025   -1.888411    0.498414
  H      3.625707   -1.334158    1.832385
  H      0.369298   -1.520361    1.137453
  H     -0.204940   -0.849726   -1.670885
  H      1.887093    0.278011    1.555971
  H      1.848754    1.458154   -0.997339

 Total Charge           Charge          ....    1
 Multiplicity           Mult            ....    1
 Number of Electrons    NEL             ....  152
 Basis Dimension        Dim             .... 1541

ORBITAL ENERGIES
----------------

  NO   OCC          E(Eh)            E(eV)
   0   2.0000     -15.842921      -431.1078
   1   2.0000     -15.741795      -428.3560
   2   2.0000     -11.434242      -311.1415
   3   2.0000     -11.422332      -310.8175
   4   2.0000     -11.403948      -310.3172
   5   2.0000     -11.400150      -310.2138
   6   2.0000     -11.371243      -309.4272
   7   2.0000     -11.368243      -309.3456
   8   2.0000     -11.368224      -309.3451
   9   2.0000     -11.367840      -309.3347
  10   2.0000     -11.353433      -308.9426
  11   2.0000     -11.351336      -308.8855
  12   2.0000     -11.351333      -308.8855
  13   2.0000     -11.347847      -308.7906
  14   2.0000     -11.343929      -308.6840
  15   2.0000     -11.341492      -308.6177
  16   2.0000     -11.340595      -308.5933
  17   2.0000     -11.338041      -308.5238
  18   2.0000     -11.335929      -308.4663
  19   2.0000     -11.334574      -308.4295
  20   2.0000     -11.333415      -308.3979
  21   2.0000      -1.527828       -41.5743
  22   2.0000      -1.324771       -36.0488
  23   2.0000      -1.303779       -35.4776
  24   2.0000      -1.270875       -34.5823
  25   2.0000      -1.257736       -34.2247
  26   2.0000      -1.174419       -31.9576
  27   2.0000      -1.135557       -30.9001
  28   2.0000      -1.125452       -30.6251
  29   2.0000      -1.124236       -30.5920
  30   2.0000      -1.120567       -30.4922
  31   2.0000      -1.084859       -29.5205
  32   2.0000      -1.077026       -29.3074
  33   2.0000      -1.004054       -27.3217
  34   2.0000      -0.967680       -26.3319
  35   2.0000      -0.965611       -26.2756
  36   2.0000      -0.938288       -25.5321
  37   2.0000      -0.936290       -25.4777
  38   2.0000      -0.909219       -24.7411
  39   2.0000      -0.899225       -24.4692
  40   2.0000      -0.875145       -23.8139
  41   2.0000      -0.856105       -23.2958
  42   2.0000      -0.834082       -22.6965
  43   2.0000      -0.827724       -22.5235
  44   2.0000      -0.810067       -22.0431
  45   2.0000      -0.798098       -21.7174
  46   2.0000      -0.778118       -21.1737
  47   2.0000      -0.756820       -20.5941
  48   2.0000      -0.751144       -20.4397
  49   2.0000      -0.740348       -20.1459
  50   2.0000      -0.735617       -20.0171
  51   2.0000      -0.719922       -19.5901
  52   2.0000      -0.711286       -19.3551
  53   2.0000      -0.699219       -19.0267
  54   2.0000      -0.692089       -18.8327
  55   2.0000      -0.688369       -18.7315
  56   2.0000      -0.672767       -18.3069
  57   2.0000      -0.663116       -18.0443
  58   2.0000      -0.649605       -17.6766
  59   2.0000      -0.643043       -17.4981
  60   2.0000      -0.637164       -17.3381
  61   2.0000      -0.626029       -17.0351
  62   2.0000      -0.622326       -16.9344
  63   2.0000      -0.617833       -16.8121
  64   2.0000      -0.611937       -16.6517
  65   2.0000      -0.608345       -16.5539
  66   2.0000      -0.606670       -16.5083
  67   2.0000      -0.602839       -16.4041
  68   2.0000      -0.600120       -16.3301
  69   2.0000      -0.591280       -16.0895
  70   2.0000      -0.584188       -15.8966
  71   2.0000      -0.571301       -15.5459
  72   2.0000      -0.561437       -15.2775
  73   2.0000      -0.522231       -14.2106
  74   2.0000      -0.444504       -12.0956
  75   2.0000      -0.442719       -12.0470
  76   0.0000      -0.066205        -1.8015
  77   0.0000      -0.058105        -1.5811
  78   0.0000      -0.050237        -1.3670
  79   0.0000      -0.048564        -1.3215
  80   0.0000      -0.038572        -1.0496

MULLIKEN ATOMIC CHARGES
-----------------------
   0 C :   -1.036438
   1 C :   -0.229776
   2 C :   -0.389351
   3 C :   -0.767885
   4 H :    0.327578
   5 H :    0.239521
   6 H :    0.248133
   7 H :    0.278459
   8 C :   -0.614804
   9 H :    0.149065
  10 H :    0.519094
  11 H :    0.853150
  12 H :    0.486518
  13 N :    0.818829
  14 N :   -0.846742
  15 C :    0.694482
  16 C :    2.132915
  17 C :   -1.138275
  18 C :   -0.318542
  19 C :   -0.688771
  20 H :   -0.088669
  21 C :   -1.000137
  22 H :   -0.054737
  23 C :   -0.176635
  24 H :    0.555685
  25 H :    0.347904
  26 H :    0.672657
  27 C :    0.554875
  28 C :    0.292471
  29 C :   -0.710720
  30 C :   -1.038657
  31 C :   -0.562090
  32 H :    0.496905
  33 H :    0.634714
  34 H :    0.024876
  35 H :    0.430567
  36 C :   -0.856288
  37 C :   -0.748272
  38 H :    0.273587
  39 H :    0.214862
  40 H :    0.309265
  41 H :    0.210873
  42 H :    0.648598
  43 H :   -0.460595
  44 H :    0.566396
  45 H :   -0.254598
Sum of atomic charges:    1.0000000

LOEWDIN ATOMIC CHARGES
----------------------
   0 C :    0.370766
   1 C :   -0.049439
   2 C :    0.045059
   3 C :    0.378538
   4 H :   -0.131600
   5 H :   -0.126527
   6 H :   -0.127876
   7 H :   -0.123095
   8 C :    0.380866
   9 H :   -0.136163
  10 H :   -0.104006
  11 H :   -0.127285
  12 H :   -0.086730
  13 N :    0.457261
  14 N :    0.398353
  15 C :   -0.029356
  16 C :   -0.096081
  17 C :    0.238665
  18 C :    0.218734
  19 C :    0.227243
  20 H :   -0.162962
  21 C :    0.228376
  22 H :   -0.183689
  23 C :    0.221917
  24 H :   -0.170240
  25 H :   -0.170826
  26 H :   -0.170198
  27 C :    0.061011
  28 C :    0.103176
  29 C :    0.068519
  30 C :    0.072018
  31 C :    0.359944
  32 H :   -0.096294
  33 H :   -0.109508
  34 H :   -0.128991
  35 H :   -0.099200
  36 C :    0.363728
  37 C :    0.363662
  38 H :   -0.127914
  39 H :   -0.132067
  40 H :   -0.127360
  41 H :   -0.131861
  42 H :   -0.141374
  43 H :   -0.158458
  44 H :   -0.111228
  45 H :   -0.197507

  Mayer bond orders larger than 0.100000
B(  0-C ,  1-C ) :   0.7995 B(  0-C ,  3-C ) :   1.2016 B(  0-C ,  4-H ) :   0.9835
B(  0-C ,  5-H ) :   1.0697 B(  0-C , 11-H ) :  -0.2345 B(  0-C , 14-N ) :  -0.1680
B(  1-C ,  8-C ) :   0.9310 B(  1-C , 11-H ) :   0.4136 B(  1-C , 14-N ) :   1.2038
B(  2-C ,  3-C ) :   0.9280 B(  2-C ,  8-C ) :   1.0155 B(  2-C , 12-H ) :   0.7257
B(  2-C , 13-N ) :   1.1164 B(  2-C , 27-C ) :  -0.1431 B(  3-C ,  6-H ) :   1.0161
B(  3-C ,  7-H ) :   0.9958 B(  3-C , 13-N ) :  -0.2066 B(  3-C , 14-N ) :   0.1153
B(  4-H , 14-N ) :  -0.1174 B(  6-H , 13-N ) :  -0.1056 B(  8-C ,  9-H ) :   1.1522
B(  8-C , 10-H ) :   0.7151 B( 11-H , 14-N ) :  -0.1388 B( 13-N , 14-N ) :   0.3143
B( 13-N , 15-C ) :   0.2531 B( 13-N , 27-C ) :   1.2783 B( 13-N , 30-C ) :  -0.1586
B( 13-N , 31-C ) :  -0.1453 B( 13-N , 34-H ) :  -0.1195 B( 13-N , 45-H ) :   0.8541
B( 14-N , 15-C ) :   0.6921 B( 14-N , 17-C ) :   0.1008 B( 14-N , 27-C ) :  -0.1969
B( 14-N , 28-C ) :  -0.2710 B( 14-N , 43-H ) :   0.3669 B( 15-C , 16-C ) :   0.2541
B( 15-C , 18-C ) :   0.2511 B( 15-C , 19-C ) :   0.1350 B( 15-C , 20-H ) :  -0.1872
B( 15-C , 22-H ) :  -0.1619 B( 15-C , 28-C ) :   1.0397 B( 15-C , 31-C ) :  -0.1003
B( 15-C , 33-H ) :   0.1139 B( 15-C , 34-H ) :  -0.1546 B( 15-C , 42-H ) :   0.1258
B( 15-C , 43-H ) :   1.2763 B( 16-C , 17-C ) :  -0.4431 B( 16-C , 18-C ) :   0.5761
B( 16-C , 19-C ) :   0.1386 B( 16-C , 20-H ) :  -0.3123 B( 16-C , 22-H ) :  -0.1166
B( 16-C , 28-C ) :   0.3987 B( 16-C , 29-C ) :  -0.1193 B( 16-C , 42-H ) :   0.1083
B( 16-C , 43-H ) :  -0.3814 B( 17-C , 18-C ) :  -0.4537 B( 17-C , 19-C ) :   1.2230
B( 17-C , 20-H ) :   1.7836 B( 17-C , 21-C ) :   0.1091 B( 17-C , 22-H ) :   0.2023
B( 17-C , 24-H ) :  -0.1060 B( 17-C , 43-H ) :   0.1400 B( 18-C , 20-H ) :   0.1427
B( 18-C , 21-C ) :   1.3467 B( 18-C , 22-H ) :   1.5501 B( 18-C , 23-C ) :   0.2441
B( 18-C , 26-H ) :  -0.1449 B( 18-C , 27-C ) :   0.1027 B( 19-C , 21-C ) :   0.1110
B( 19-C , 22-H ) :  -0.1462 B( 19-C , 23-C ) :   1.1689 B( 19-C , 24-H ) :   0.6300
B( 19-C , 26-H ) :  -0.1605 B( 20-H , 22-H ) :   0.1195 B( 21-C , 22-H ) :  -0.1467
B( 21-C , 23-C ) :   1.1074 B( 21-C , 25-H ) :   0.9720 B( 21-C , 26-H ) :  -0.1152
B( 21-C , 28-C ) :   0.1129 B( 22-H , 23-C ) :  -0.1099 B( 22-H , 28-C ) :  -0.1200
B( 23-C , 26-H ) :   0.4361 B( 27-C , 28-C ) :   1.3779 B( 27-C , 30-C ) :   0.9937
B( 27-C , 31-C ) :  -0.1651 B( 27-C , 37-C ) :  -0.2643 B( 27-C , 42-H ) :  -0.3664
B( 27-C , 44-H ) :   0.6196 B( 28-C , 29-C ) :   1.0665 B( 28-C , 36-C ) :  -0.2547
B( 28-C , 39-H ) :  -0.1042 B( 28-C , 42-H ) :   0.5346 B( 29-C , 31-C ) :   1.0073
B( 29-C , 32-H ) :   0.7129 B( 29-C , 36-C ) :   1.0679 B( 29-C , 42-H ) :  -0.3549
B( 30-C , 31-C ) :   1.0669 B( 30-C , 35-H ) :   0.7880 B( 30-C , 37-C ) :   1.1186
B( 30-C , 44-H ) :  -0.3014 B( 31-C , 33-H ) :   0.5848 B( 31-C , 34-H ) :   1.2839
B( 36-C , 37-C ) :   1.1237 B( 36-C , 38-H ) :   0.9579 B( 36-C , 39-H ) :   1.0803
B( 37-C , 40-H ) :   0.9182 B( 37-C , 41-H ) :   1.0853 B( 37-C , 44-H ) :  -0.1090

MP2 TOTAL ENERGY:     -846.579947086 Eh
FINAL SINGLE POINT ENERGY      -846.579947085761

DIPOLE MOMENT
-------------
                                X             Y             Z
Electronic contribution:     -7.93507      -1.01306      -1.33793
Nuclear contribution   :      9.23847       2.40343       1.65211
                        -----------------------------------------
Total Dipole Moment    :      1.30339       1.39037       0.31418
                        -----------------------------------------
Magnitude (a.u.)       :      1.93149
Magnitude (Debye)      :      4.90947

Rotational constants in cm-1:     0.014569     0.009835     0.006874
Rotational constants in MHz :   436.768697   294.852572   206.077484

                             ****ORCA TERMINATED NORMALLY****
TOTAL RUN TIME: 0 days 1 hours 21 minutes 10 seconds 448 msec
