                         Program Version 4.2.1 -  RELEASE  -
|  1> %pal
|  2>  nprocs 32
|  3> end
|  4> !RI-MP2 aug-cc-pVTZ aug-cc-pVTZ/C TightSCF
|  5> %maxcore 4500
|  6> *xyzfile 0 1  03_26P2.xyz
|  7>
|  8>
|  9>                          ****END OF INPUT****

CARTESIAN COORDINATES (ANGSTROEM)
---------------------------------
  C      0.467353    0.363625   -0.295774
  C     -0.706433    0.185539    0.615292
  C     -1.910357   -0.050217    0.183904
  C      1.188485    1.679834   -0.081060
  H     -0.519117    0.271093    1.682191
  H      1.530080    1.769066    0.951505
  H      0.504027    2.504522   -0.292786
  H      2.052702    1.761805   -0.740143
  C     -3.108564   -0.286996   -0.256468
  H     -3.463153   -1.302897   -0.390869
  H     -3.788966    0.521509   -0.499267
  Cl     1.643980   -1.007616   -0.022058
  H      0.153862    0.253673   -1.331015

 Total Charge           Charge          ....    0
 Multiplicity           Mult            ....    1
 Number of Electrons    NEL             ....   54
 Basis Dimension        Dim             ....  441

ORBITAL ENERGIES
----------------

  NO   OCC          E(Eh)            E(eV)
   0   2.0000    -104.817927     -2852.2408
   1   2.0000     -11.310570      -307.7763
   2   2.0000     -11.266332      -306.5725
   3   2.0000     -11.251958      -306.1813
   4   2.0000     -11.246342      -306.0285
   5   2.0000     -11.234898      -305.7171
   6   2.0000     -10.542278      -286.8700
   7   2.0000      -8.008979      -217.9354
   8   2.0000      -8.007293      -217.8895
   9   2.0000      -8.007271      -217.8889
  10   2.0000      -1.154845       -31.4249
  11   2.0000      -1.081222       -29.4215
  12   2.0000      -1.011919       -27.5357
  13   2.0000      -0.964862       -26.2552
  14   2.0000      -0.829635       -22.5755
  15   2.0000      -0.733521       -19.9601
  16   2.0000      -0.662511       -18.0278
  17   2.0000      -0.621701       -16.9173
  18   2.0000      -0.617737       -16.8095
  19   2.0000      -0.597170       -16.2498
  20   2.0000      -0.570221       -15.5165
  21   2.0000      -0.533887       -14.5278
  22   2.0000      -0.509628       -13.8677
  23   2.0000      -0.439817       -11.9680
  24   2.0000      -0.431453       -11.7404
  25   2.0000      -0.388768       -10.5789
  26   2.0000      -0.376502       -10.2452
  27   0.0000       0.027820         0.7570
  28   0.0000       0.034700         0.9442
  29   0.0000       0.038404         1.0450
  30   0.0000       0.042369         1.1529
  31   0.0000       0.052736         1.4350

MULLIKEN ATOMIC CHARGES
-----------------------
   0 C :    0.191055
   1 C :   -0.801684
   2 C :    1.019313
   3 C :   -1.011415
   4 H :    0.256266
   5 H :    0.293471
   6 H :    0.298401
   7 H :    0.299927
   8 C :   -1.068395
   9 H :    0.383011
  10 H :    0.350116
  11 Cl:   -0.445869
  12 H :    0.235802
Sum of atomic charges:    0.0000000

LOEWDIN ATOMIC CHARGES
----------------------
   0 C :   -0.609629
   1 C :    0.061263
   2 C :    0.117231
   3 C :    0.490478
   4 H :   -0.202070
   5 H :   -0.179705
   6 H :   -0.167512
   7 H :   -0.183311
   8 C :    0.482418
   9 H :   -0.237790
  10 H :   -0.239117
  11 Cl:    0.899715
  12 H :   -0.231970

  Mayer bond orders larger than 0.100000
B(  0-C ,  1-C ) :   1.2224 B(  0-C ,  3-C ) :   0.8760 B(  0-C , 11-Cl) :   0.7142
B(  0-C , 12-H ) :   0.9187 B(  1-C ,  2-C ) :   1.3130 B(  1-C ,  4-H ) :   1.0846
B(  1-C ,  8-C ) :  -0.2431 B(  2-C ,  8-C ) :   1.4685 B(  3-C ,  5-H ) :   0.9466
B(  3-C ,  6-H ) :   0.9191 B(  3-C ,  7-H ) :   0.9658 B(  8-C ,  9-H ) :   0.9171
B(  8-C , 10-H ) :   0.9716

MP2 TOTAL ENERGY:     -653.969904391 Eh
FINAL SINGLE POINT ENERGY      -653.969904391093

DIPOLE MOMENT
-------------
                                X             Y             Z
Electronic contribution:      5.19320      -6.42495       0.43548
Nuclear contribution   :     -5.81669       7.13950      -0.58223
                        -----------------------------------------
Total Dipole Moment    :     -0.62349       0.71455      -0.14675
                        -----------------------------------------
Magnitude (a.u.)       :      0.95961
Magnitude (Debye)      :      2.43914

Rotational constants in cm-1:     0.168602     0.051272     0.041952
Rotational constants in MHz :  5054.566772  1537.100491  1257.675050

                             ****ORCA TERMINATED NORMALLY****
TOTAL RUN TIME: 0 days 0 hours 1 minutes 14 seconds 47 msec
