                         Program Version 4.2.1 -  RELEASE  -
|  1> %pal
|  2>  nprocs 32
|  3> end
|  4> !RI-MP2 aug-cc-pVTZ aug-cc-pVTZ/C TightSCF
|  5> %maxcore 4500
|  6> *xyzfile -1 1  09_21P.xyz
|  7>
|  8>
|  9>                          ****END OF INPUT****

CARTESIAN COORDINATES (ANGSTROEM)
---------------------------------
  C     -2.285945    1.689378   -0.337256
  N     -1.201140    1.216987    0.317846
  C     -1.234566   -0.033594    0.838114
  C     -2.347020   -0.812707    0.724622
  C     -3.513825   -0.355756    0.051171
  C     -3.422574    0.960036   -0.489628
  C      0.056328    2.032497    0.469177
  C      1.270067    1.421636   -0.114972
  C      2.008325    0.534859    0.643931
  O      1.675577    0.122029    1.797479
  C     -4.660094   -1.157327   -0.060716
  N     -5.741040   -0.688477   -0.694557
  O     -6.734680   -1.445597   -0.761890
  C      3.293386   -0.024289    0.071153
  C      3.817443   -1.178430    0.649723
  C      4.988822   -1.750100    0.173932
  C      5.668774   -1.169119   -0.889183
  C      5.165531   -0.008667   -1.464714
  C      3.991408    0.557014   -0.987096
  H     -4.267430    1.370731   -1.022335
  H     -2.189685    2.690087   -0.738095
  H      3.620423    1.472381   -1.430332
  H      5.694728    0.462315   -2.286295
  H      6.586381   -1.611165   -1.261573
  H      5.375719   -2.652393    0.635639
  H      3.276356   -1.599183    1.487941
  H     -0.182382    2.999234    0.021333
  H      0.188837    2.163971    1.545664
  H     -0.319482   -0.333803    1.344287
  H     -2.332971   -1.803230    1.160581
  H     -4.690249   -2.160545    0.362526
  H      1.531481    1.657982   -1.136634

 Total Charge           Charge          ....   -1
 Multiplicity           Mult            ....    1
 Number of Electrons    NEL             ....  134
 Basis Dimension        Dim             .... 1173

ORBITAL ENERGIES
----------------

  NO   OCC          E(Eh)            E(eV)
   0   2.0000     -20.414139      -555.4970
   1   2.0000     -20.346591      -553.6589
   2   2.0000     -15.527636      -422.5284
   3   2.0000     -15.526366      -422.4939
   4   2.0000     -11.202769      -304.8428
   5   2.0000     -11.187649      -304.4314
   6   2.0000     -11.176553      -304.1295
   7   2.0000     -11.164281      -303.7955
   8   2.0000     -11.160410      -303.6902
   9   2.0000     -11.140266      -303.1421
  10   2.0000     -11.138299      -303.0885
  11   2.0000     -11.136282      -303.0336
  12   2.0000     -11.136070      -303.0279
  13   2.0000     -11.132326      -302.9260
  14   2.0000     -11.132014      -302.9175
  15   2.0000     -11.126791      -302.7754
  16   2.0000     -11.123640      -302.6896
  17   2.0000     -11.105567      -302.1978
  18   2.0000     -11.055675      -300.8402
  19   2.0000      -1.299675       -35.3660
  20   2.0000      -1.217264       -33.1234
  21   2.0000      -1.183057       -32.1926
  22   2.0000      -1.053055       -28.6551
  23   2.0000      -1.035652       -28.1815
  24   2.0000      -0.957067       -26.0431
  25   2.0000      -0.953383       -25.9429
  26   2.0000      -0.928638       -25.2695
  27   2.0000      -0.915243       -24.9050
  28   2.0000      -0.898233       -24.4422
  29   2.0000      -0.812053       -22.0971
  30   2.0000      -0.780294       -21.2329
  31   2.0000      -0.767568       -20.8866
  32   2.0000      -0.729311       -19.8456
  33   2.0000      -0.712439       -19.3865
  34   2.0000      -0.673361       -18.3231
  35   2.0000      -0.628564       -17.1041
  36   2.0000      -0.604962       -16.4619
  37   2.0000      -0.593162       -16.1408
  38   2.0000      -0.581213       -15.8156
  39   2.0000      -0.562333       -15.3019
  40   2.0000      -0.542689       -14.7673
  41   2.0000      -0.530490       -14.4354
  42   2.0000      -0.525002       -14.2860
  43   2.0000      -0.520292       -14.1579
  44   2.0000      -0.511917       -13.9300
  45   2.0000      -0.499796       -13.6001
  46   2.0000      -0.496379       -13.5072
  47   2.0000      -0.486269       -13.2320
  48   2.0000      -0.452850       -12.3227
  49   2.0000      -0.452316       -12.3081
  50   2.0000      -0.440524       -11.9873
  51   2.0000      -0.433110       -11.7855
  52   2.0000      -0.418828       -11.3969
  53   2.0000      -0.414389       -11.2761
  54   2.0000      -0.401829       -10.9343
  55   2.0000      -0.398428       -10.8418
  56   2.0000      -0.390014       -10.6128
  57   2.0000      -0.377785       -10.2801
  58   2.0000      -0.365358        -9.9419
  59   2.0000      -0.317678        -8.6445
  60   2.0000      -0.274478        -7.4689
  61   2.0000      -0.261389        -7.1128
  62   2.0000      -0.240533        -6.5452
  63   2.0000      -0.239406        -6.5146
  64   2.0000      -0.232286        -6.3208
  65   2.0000      -0.166504        -4.5308
  66   2.0000      -0.155089        -4.2202
  67   0.0000       0.085563         2.3283
  68   0.0000       0.093273         2.5381
  69   0.0000       0.097308         2.6479
  70   0.0000       0.103408         2.8139
  71   0.0000       0.109811         2.9881

MULLIKEN ATOMIC CHARGES
-----------------------
   0 C :   -0.409775
   1 N :   -0.051814
   2 C :   -0.311043
   3 C :   -1.015783
   4 C :    1.562204
   5 C :   -0.548454
   6 C :   -0.189605
   7 C :   -0.802404
   8 C :    1.379274
   9 O :   -1.379944
  10 C :   -0.564045
  11 N :   -0.283089
  12 O :   -0.657452
  13 C :    1.841858
  14 C :   -1.008468
  15 C :   -0.752265
  16 C :   -0.066361
  17 C :   -0.894470
  18 C :   -0.651965
  19 H :   -0.116069
  20 H :    0.652008
  21 H :   -0.069351
  22 H :    0.449974
  23 H :    0.414807
  24 H :    0.542071
  25 H :   -0.035496
  26 H :    0.337312
  27 H :    0.129424
  28 H :    1.246869
  29 H :   -0.252567
  30 H :    0.469230
  31 H :    0.035390
Sum of atomic charges:   -1.0000000

LOEWDIN ATOMIC CHARGES
----------------------
   0 C :    0.140428
   1 N :    0.263523
   2 C :    0.161258
   3 C :    0.239765
   4 C :   -0.190284
   5 C :    0.222940
   6 C :    0.167445
   7 C :    0.173664
   8 C :   -0.642572
   9 O :    0.389970
  10 C :   -0.051335
  11 N :   -0.173990
  12 O :    0.115952
  13 C :   -0.120616
  14 C :    0.195973
  15 C :    0.180010
  16 C :    0.166576
  17 C :    0.177216
  18 C :    0.196441
  19 H :   -0.208707
  20 H :   -0.161784
  21 H :   -0.203137
  22 H :   -0.194193
  23 H :   -0.196466
  24 H :   -0.193456
  25 H :   -0.206686
  26 H :   -0.172404
  27 H :   -0.160443
  28 H :   -0.247115
  29 H :   -0.187652
  30 H :   -0.229758
  31 H :   -0.250567

  Mayer bond orders larger than 0.100000
B(  0-C ,  1-N ) :   1.2531 B(  0-C ,  2-C ) :   0.3247 B(  0-C ,  3-C ) :  -0.3664
B(  0-C ,  4-C ) :   0.1321 B(  0-C ,  5-C ) :   0.5541 B(  0-C ,  6-C ) :  -0.1891
B(  0-C , 19-H ) :  -0.2788 B(  0-C , 20-H ) :   0.4437 B(  0-C , 29-H ) :   0.1165
B(  1-N ,  2-C ) :   1.4569 B(  1-N ,  3-C ) :  -0.3093 B(  1-N ,  5-C ) :  -0.2925
B(  1-N ,  6-C ) :   1.1445 B(  1-N , 28-H ) :  -0.1967 B(  1-N , 29-H ) :   0.1728
B(  2-C ,  3-C ) :   0.3631 B(  2-C ,  4-C ) :   0.2471 B(  2-C ,  5-C ) :  -0.4212
B(  2-C , 10-C ) :   0.1279 B(  2-C , 27-H ) :   0.1035 B(  2-C , 28-H ) :  -0.4993
B(  2-C , 29-H ) :  -0.5002 B(  3-C ,  4-C ) :   0.7626 B(  3-C ,  5-C ) :   0.1063
B(  3-C , 28-H ) :  -0.3680 B(  3-C , 29-H ) :   2.3793 B(  4-C ,  5-C ) :   0.8863
B(  4-C , 10-C ) :   0.3253 B(  4-C , 11-N ) :  -0.2480 B(  4-C , 19-H ) :  -0.1099
B(  4-C , 28-H ) :   0.1258 B(  4-C , 29-H ) :  -0.3299 B(  5-C , 10-C ) :   0.1750
B(  5-C , 19-H ) :   1.7393 B(  6-C ,  7-C ) :   0.5650 B(  6-C , 26-H ) :   0.9536
B(  6-C , 27-H ) :   1.0342 B(  7-C ,  8-C ) :   0.9632 B(  7-C , 14-C ) :   0.1267
B(  7-C , 21-H ) :  -0.1101 B(  7-C , 26-H ) :  -0.1552 B(  7-C , 27-H ) :   0.1088
B(  7-C , 31-H ) :   1.5571 B(  8-C ,  9-O ) :   0.5274 B(  8-C , 13-C ) :   0.6317
B(  8-C , 16-C ) :   0.1542 B(  8-C , 18-C ) :   0.1844 B(  8-C , 21-H ) :  -0.1125
B(  8-C , 24-H ) :   0.1183 B(  8-C , 25-H ) :  -0.2568 B(  8-C , 31-H ) :  -0.2653
B(  9-O , 25-H ) :   0.1354 B( 10-C , 11-N ) :   1.0849 B( 10-C , 30-H ) :   0.6282
B( 11-N , 12-O ) :   1.1425 B( 11-N , 19-H ) :   0.1124 B( 13-C , 14-C ) :   0.1623
B( 13-C , 15-C ) :   0.1011 B( 13-C , 18-C ) :   0.3783 B( 13-C , 21-H ) :  -0.3902
B( 13-C , 25-H ) :  -0.3662 B( 14-C , 15-C ) :   1.2134 B( 14-C , 16-C ) :  -0.2662
B( 14-C , 17-C ) :   0.1524 B( 14-C , 18-C ) :  -0.4625 B( 14-C , 21-H ) :   0.2236
B( 14-C , 23-H ) :   0.2262 B( 14-C , 24-H ) :  -0.2068 B( 14-C , 25-H ) :   1.7617
B( 15-C , 16-C ) :   1.0770 B( 15-C , 17-C ) :   0.2588 B( 15-C , 23-H ) :  -0.1998
B( 15-C , 24-H ) :   0.6022 B( 16-C , 17-C ) :   1.1073 B( 16-C , 18-C ) :  -0.2493
B( 16-C , 23-H ) :   0.8759 B( 17-C , 18-C ) :   1.1930 B( 17-C , 21-H ) :  -0.1147
B( 17-C , 22-H ) :   0.7778 B( 17-C , 23-H ) :  -0.2206 B( 18-C , 21-H ) :   1.8340
B( 18-C , 25-H ) :   0.1841 B( 21-H , 25-H ) :   0.1453 B( 28-H , 29-H ) :  -0.3140

MP2 TOTAL ENERGY:     -837.737526412 Eh
FINAL SINGLE POINT ENERGY      -837.737526411821

DIPOLE MOMENT
-------------
                                X             Y             Z
Electronic contribution:     -8.76982      -1.34485       0.81511
Nuclear contribution   :     12.00317       2.60219      -1.28518
                        -----------------------------------------
Total Dipole Moment    :      3.23335       1.25734      -0.47007
                        -----------------------------------------
Magnitude (a.u.)       :      3.50091
Magnitude (Debye)      :      8.89862

Rotational constants in cm-1:     0.033723     0.004356     0.004179
Rotational constants in MHz :  1010.987572   130.592204   125.281470

                             ****ORCA TERMINATED NORMALLY****
TOTAL RUN TIME: 0 days 0 hours 28 minutes 27 seconds 859 msec
