                         Program Version 4.2.1 -  RELEASE  -
|  1> %pal
|  2>  nprocs 32
|  3> end
|  4> !RI-MP2 aug-cc-pVTZ aug-cc-pVTZ/C TightSCF
|  5> %maxcore 4500
|  6> *xyzfile 0 1  02_10R.xyz
|  7>
|  8>
|  9>                          ****END OF INPUT****

CARTESIAN COORDINATES (ANGSTROEM)
---------------------------------
  C      2.910393   -0.281075   -0.691851
  C      4.089179   -0.387817   -0.065942
  C     -4.254581    0.803958    0.279346
  C     -3.072288    0.515197    0.815199
  C      0.707428   -1.219164   -1.275763
  C      1.888890   -1.312466   -0.664657
  C     -2.712167   -0.756134    1.514499
  H     -3.571125   -1.432556    1.474078
  C     -0.364449   -2.261412   -1.252454
  H     -0.562849   -2.594018   -2.278097
  H     -0.016221   -3.141549   -0.700364
  C     -1.689199   -1.767397   -0.646212
  C     -1.507113   -1.421353    0.833205
  H     -0.642423   -0.758980    0.941088
  H     -1.260614   -2.337546    1.383571
  C     -4.505204    2.103769   -0.395275
  O     -3.645260    2.950250   -0.508050
  H     -1.972860   -0.852353   -1.179686
  C     -2.790674   -2.801584   -0.863280
  H     -2.888406   -3.051621   -1.922211
  H     -3.761928   -2.440559   -0.520737
  H     -2.567461   -3.726093   -0.321369
  C      5.155578    0.613126   -0.049741
  C      6.276904    0.338533    0.631376
  H      6.319393   -0.625340    1.134041
  C      7.497054    1.184500    0.800021
  H      8.381247    0.662455    0.421390
  H      7.682708    1.383247    1.860084
  H      7.431734    2.143044    0.288086
  C      4.917362    1.891077   -0.804118
  H      5.758803    2.576444   -0.737959
  H      4.033664    2.406884   -0.419273
  H      4.734597    1.685518   -1.862178
  C     -5.896487    2.312221   -0.939150
  H     -5.971044    3.290982   -1.407924
  H     -6.629921    2.230003   -0.132328
  H     -6.133054    1.532642   -1.668607
  C     -2.395924   -0.471276    2.986819
  H     -3.253247   -0.030418    3.498525
  H     -1.555750    0.222404    3.076451
  H     -2.124908   -1.394318    3.504350
  H      0.480262   -0.311640   -1.834029
  H      2.121436   -2.213481   -0.099714
  H      4.293859   -1.299730    0.490725
  H      2.673176    0.615370   -1.257054
  H     -2.292135    1.272184    0.741075
  H     -5.073077    0.090810    0.320325

 Total Charge           Charge          ....    0
 Multiplicity           Mult            ....    1
 Number of Electrons    NEL             ....  144
 Basis Dimension        Dim             .... 1518

ORBITAL ENERGIES
----------------

  NO   OCC          E(Eh)            E(eV)
   0   2.0000     -20.532290      -558.7120
   1   2.0000     -11.324316      -308.1503
   2   2.0000     -11.250897      -306.1525
   3   2.0000     -11.238393      -305.8122
   4   2.0000     -11.232600      -305.6546
   5   2.0000     -11.229032      -305.5575
   6   2.0000     -11.227555      -305.5173
   7   2.0000     -11.226743      -305.4952
   8   2.0000     -11.226245      -305.4817
   9   2.0000     -11.226139      -305.4788
  10   2.0000     -11.225912      -305.4726
  11   2.0000     -11.224827      -305.4431
  12   2.0000     -11.224195      -305.4259
  13   2.0000     -11.223370      -305.4034
  14   2.0000     -11.220780      -305.3329
  15   2.0000     -11.220344      -305.3211
  16   2.0000     -11.220117      -305.3149
  17   2.0000     -11.216285      -305.2106
  18   2.0000     -11.214542      -305.1632
  19   2.0000      -1.377535       -37.4846
  20   2.0000      -1.130614       -30.7656
  21   2.0000      -1.118280       -30.4299
  22   2.0000      -1.095194       -29.8017
  23   2.0000      -1.065801       -29.0019
  24   2.0000      -1.037877       -28.2421
  25   2.0000      -1.012220       -27.5439
  26   2.0000      -0.994114       -27.0512
  27   2.0000      -0.973478       -26.4897
  28   2.0000      -0.929746       -25.2997
  29   2.0000      -0.928362       -25.2620
  30   2.0000      -0.897968       -24.4349
  31   2.0000      -0.864220       -23.5166
  32   2.0000      -0.806419       -21.9438
  33   2.0000      -0.781728       -21.2719
  34   2.0000      -0.759237       -20.6599
  35   2.0000      -0.749784       -20.4027
  36   2.0000      -0.730986       -19.8911
  37   2.0000      -0.708728       -19.2855
  38   2.0000      -0.665461       -18.1081
  39   2.0000      -0.658235       -17.9115
  40   2.0000      -0.654492       -17.8096
  41   2.0000      -0.635441       -17.2912
  42   2.0000      -0.627944       -17.0872
  43   2.0000      -0.601569       -16.3695
  44   2.0000      -0.599078       -16.3017
  45   2.0000      -0.595387       -16.2013
  46   2.0000      -0.591587       -16.0979
  47   2.0000      -0.582192       -15.8423
  48   2.0000      -0.578316       -15.7368
  49   2.0000      -0.562848       -15.3159
  50   2.0000      -0.555730       -15.1222
  51   2.0000      -0.553408       -15.0590
  52   2.0000      -0.552552       -15.0357
  53   2.0000      -0.541451       -14.7336
  54   2.0000      -0.541100       -14.7241
  55   2.0000      -0.534610       -14.5475
  56   2.0000      -0.521676       -14.1955
  57   2.0000      -0.514436       -13.9985
  58   2.0000      -0.513500       -13.9730
  59   2.0000      -0.501196       -13.6382
  60   2.0000      -0.499416       -13.5898
  61   2.0000      -0.493767       -13.4361
  62   2.0000      -0.485124       -13.2009
  63   2.0000      -0.472481       -12.8569
  64   2.0000      -0.464478       -12.6391
  65   2.0000      -0.460695       -12.5361
  66   2.0000      -0.453703       -12.3459
  67   2.0000      -0.440563       -11.9883
  68   2.0000      -0.407936       -11.1005
  69   2.0000      -0.369459       -10.0535
  70   2.0000      -0.367737       -10.0066
  71   2.0000      -0.279014        -7.5924
  72   0.0000       0.023425         0.6374
  73   0.0000       0.026600         0.7238
  74   0.0000       0.029404         0.8001
  75   0.0000       0.031659         0.8615
  76   0.0000       0.035885         0.9765

MULLIKEN ATOMIC CHARGES
-----------------------
   0 C :    0.511855
   1 C :   -1.079670
   2 C :   -0.418663
   3 C :    0.055576
   4 C :   -0.230017
   5 C :    0.163717
   6 C :    0.154460
   7 H :   -0.006075
   8 C :   -0.574545
   9 H :    0.317483
  10 H :    0.070175
  11 C :    0.606895
  12 C :   -0.421478
  13 H :    0.477138
  14 H :    0.309657
  15 C :    0.869181
  16 O :   -0.967865
  17 H :    0.482250
  18 C :   -1.372201
  19 H :    0.194808
  20 H :    0.355321
  21 H :    0.231836
  22 C :    2.129821
  23 C :   -0.866578
  24 H :    0.120937
  25 C :   -0.918344
  26 H :    0.219964
  27 H :    0.218934
  28 H :    0.387955
  29 C :   -0.750760
  30 H :    0.296815
  31 H :    0.168122
  32 H :    0.167664
  33 C :   -0.832812
  34 H :    0.340136
  35 H :    0.309661
  36 H :    0.293466
  37 C :   -1.150760
  38 H :    0.277901
  39 H :    0.273495
  40 H :    0.229351
  41 H :   -0.148130
  42 H :   -0.028769
  43 H :   -0.559736
  44 H :   -0.075882
  45 H :    0.013833
  46 H :    0.153879
Sum of atomic charges:   -0.0000000

LOEWDIN ATOMIC CHARGES
----------------------
   0 C :    0.194110
   1 C :    0.199648
   2 C :    0.222516
   3 C :    0.220044
   4 C :    0.224326
   5 C :    0.196865
   6 C :   -0.043218
   7 H :   -0.150347
   8 C :    0.267182
   9 H :   -0.143344
  10 H :   -0.144003
  11 C :   -0.030697
  12 C :    0.294365
  13 H :   -0.145549
  14 H :   -0.126165
  15 C :   -0.569150
  16 O :    0.460149
  17 H :   -0.136037
  18 C :    0.597651
  19 H :   -0.159578
  20 H :   -0.173032
  21 H :   -0.150259
  22 C :   -0.120067
  23 C :    0.231822
  24 H :   -0.191312
  25 C :    0.567691
  26 H :   -0.170828
  27 H :   -0.170804
  28 H :   -0.201606
  29 C :    0.566623
  30 H :   -0.198132
  31 H :   -0.161326
  32 H :   -0.161408
  33 C :    0.574860
  34 H :   -0.181997
  35 H :   -0.172596
  36 H :   -0.172915
  37 C :    0.602804
  38 H :   -0.159156
  39 H :   -0.157083
  40 H :   -0.158988
  41 H :   -0.163564
  42 H :   -0.178706
  43 H :   -0.190574
  44 H :   -0.196150
  45 H :   -0.152717
  46 H :   -0.189348

  Mayer bond orders larger than 0.100000
B(  0-C ,  1-C ) :   0.8426 B(  0-C ,  4-C ) :  -0.1575 B(  0-C ,  5-C ) :   0.1051
B(  0-C ,  8-C ) :  -0.1158 B(  0-C , 22-C ) :   0.2327 B(  0-C , 29-C ) :  -0.2335
B(  0-C , 41-H ) :  -0.2121 B(  0-C , 42-H ) :  -0.3076 B(  0-C , 43-H ) :  -0.4009
B(  0-C , 44-H ) :   1.9750 B(  1-C ,  4-C ) :   0.4497 B(  1-C ,  5-C ) :  -0.3221
B(  1-C , 22-C ) :   0.1344 B(  1-C , 23-C ) :   0.4533 B(  1-C , 24-H ) :  -0.1853
B(  1-C , 29-C ) :   0.1335 B(  1-C , 41-H ) :  -0.1412 B(  1-C , 42-H ) :  -0.2259
B(  1-C , 43-H ) :   2.8711 B(  1-C , 44-H ) :  -0.1774 B(  2-C ,  3-C ) :   1.0714
B(  2-C ,  6-C ) :   0.2099 B(  2-C , 15-C ) :   0.5929 B(  2-C , 46-H ) :   1.1656
B(  3-C ,  6-C ) :   0.8854 B(  3-C ,  7-H ) :   0.1939 B(  3-C , 15-C ) :   0.1979
B(  3-C , 45-H ) :   1.2258 B(  4-C ,  5-C ) :   0.8499 B(  4-C ,  8-C ) :   0.5885
B(  4-C ,  9-H ) :  -0.1491 B(  4-C , 41-H ) :   1.7281 B(  4-C , 42-H ) :  -0.1693
B(  4-C , 43-H ) :  -0.1846 B(  4-C , 44-H ) :  -0.1064 B(  5-C ,  8-C ) :   0.1915
B(  5-C , 23-C ) :   0.2235 B(  5-C , 24-H ) :   0.1875 B(  5-C , 41-H ) :  -0.2837
B(  5-C , 42-H ) :   1.6556 B(  5-C , 43-H ) :  -0.3218 B(  5-C , 44-H ) :  -0.1387
B(  6-C ,  7-H ) :   1.0512 B(  6-C , 11-C ) :   0.1386 B(  6-C , 12-C ) :   1.0211
B(  6-C , 37-C ) :   0.5789 B(  6-C , 39-H ) :  -0.1071 B(  8-C ,  9-H ) :   0.9589
B(  8-C , 10-H ) :   1.2233 B(  8-C , 11-C ) :   0.6744 B(  8-C , 18-C ) :   0.2098
B(  8-C , 22-C ) :   0.1119 B( 11-C , 12-C ) :   0.8126 B( 11-C , 17-H ) :   0.8712
B( 11-C , 18-C ) :   0.3820 B( 11-C , 21-H ) :  -0.1019 B( 12-C , 13-H ) :   0.8543
B( 12-C , 14-H ) :   0.9710 B( 12-C , 18-C ) :   0.1496 B( 15-C , 16-O ) :   1.0048
B( 15-C , 33-C ) :   0.8981 B( 16-O , 45-H ) :   0.1152 B( 18-C , 19-H ) :   1.1006
B( 18-C , 20-H ) :   0.9109 B( 18-C , 21-H ) :   1.0923 B( 22-C , 24-H ) :  -0.3299
B( 22-C , 29-C ) :   0.5231 B( 22-C , 41-H ) :   0.1595 B( 22-C , 42-H ) :  -0.1752
B( 22-C , 43-H ) :  -0.3448 B( 23-C , 24-H ) :   1.4184 B( 23-C , 25-C ) :   0.6188
B( 23-C , 29-C ) :  -0.1322 B( 23-C , 41-H ) :   0.1354 B( 23-C , 42-H ) :   0.2341
B( 23-C , 43-H ) :  -0.3356 B( 23-C , 44-H ) :  -0.1589 B( 24-H , 25-C ) :  -0.1315
B( 24-H , 42-H ) :   0.1047 B( 24-H , 43-H ) :  -0.2819 B( 25-C , 26-H ) :   1.1061
B( 25-C , 27-H ) :   1.1034 B( 25-C , 28-H ) :   0.8274 B( 29-C , 30-H ) :   0.8559
B( 29-C , 31-H ) :   1.1148 B( 29-C , 32-H ) :   1.1222 B( 33-C , 34-H ) :   0.9437
B( 33-C , 35-H ) :   0.9356 B( 33-C , 36-H ) :   0.9579 B( 37-C , 38-H ) :   1.0326
B( 37-C , 39-H ) :   1.0567 B( 37-C , 40-H ) :   1.0595 B( 43-H , 44-H ) :   0.2462

MP2 TOTAL ENERGY:     -776.306435059 Eh
FINAL SINGLE POINT ENERGY      -776.306435059176

DIPOLE MOMENT
-------------
                                X             Y             Z
Electronic contribution:     -4.11226       5.26123      -2.57146
Nuclear contribution   :      3.71402      -6.28459       2.89140
                        -----------------------------------------
Total Dipole Moment    :     -0.39824      -1.02336       0.31994
                        -----------------------------------------
Magnitude (a.u.)       :      1.14377
Magnitude (Debye)      :      2.90724

Rotational constants in cm-1:     0.016360     0.003749     0.003454
Rotational constants in MHz :   490.452234   112.401570   103.535514

                             ****ORCA TERMINATED NORMALLY****
TOTAL RUN TIME: 0 days 0 hours 55 minutes 59 seconds 773 msec
