                         Program Version 4.2.1 -  RELEASE  -
|  1> %pal
|  2>  nprocs 32
|  3> end
|  4> !RI-MP2 aug-cc-pVTZ aug-cc-pVTZ/C TightSCF
|  5> %maxcore 4500
|  6> *xyzfile 0 1  10_76R.xyz
|  7>
|  8>
|  9>                          ****END OF INPUT****

CARTESIAN COORDINATES (ANGSTROEM)
---------------------------------
  C      0.473483   -1.811928   -0.056208
  C      1.567633   -1.497379    0.637601
  C     -0.883397   -1.514411    0.384031
  C     -1.990058   -1.834275   -0.287732
  C     -2.990511    1.303814   -0.315869
  C     -3.397865   -1.656662    0.201221
  C      2.249191    1.362320   -0.694765
  C      1.381196    1.958223    0.123741
  H      1.849043    0.730361   -1.485223
  C      3.736073    1.431075   -0.613275
  C     -0.042470    1.722361    0.022593
  C     -0.986592    2.196066    0.844660
  C     -2.390035    1.798999    0.766375
  C     -4.347943    0.684587   -0.334313
  C     -4.305530   -0.807019   -0.708049
  H     -3.384364   -1.233432    1.210057
  H     -3.842204   -2.654163    0.292698
  H     -5.327609   -1.193469   -0.669425
  H     -3.978888   -0.912378   -1.747992
  H     -4.992991    1.201014   -1.054036
  H     -4.814710    0.795977    0.649343
  C      2.966351   -1.926221    0.309998
  H      1.446386   -0.947855    1.569521
  C      4.402615    0.050131   -0.652491
  H      4.036446    1.964068    0.294349
  H      4.120581    2.013867   -1.459270
  C      4.088223   -0.892186    0.522434
  H      5.483694    0.209615   -0.691152
  H      4.140989   -0.445688   -1.594076
  H      3.007493   -2.315999   -0.712283
  H      3.190545   -2.780147    0.961506
  H      3.873103   -0.303249    1.421007
  H      4.999075   -1.452492    0.747487
  H      0.575299   -2.353060   -0.995656
  H      1.739760    2.590658    0.933172
  H     -0.977858   -1.015168    1.345390
  H     -1.886385   -2.317041   -1.259426
  H     -0.697371    2.847521    1.665331
  H     -0.338028    1.026840   -0.756235
  H     -2.959694    1.860799    1.691344
  H     -2.444505    1.278449   -1.256145

 Total Charge           Charge          ....    0
 Multiplicity           Mult            ....    1
 Number of Electrons    NEL             ....  126
 Basis Dimension        Dim             .... 1334

ORBITAL ENERGIES
----------------

  NO   OCC          E(Eh)            E(eV)
   0   2.0000     -11.223769      -305.4143
   1   2.0000     -11.223341      -305.4026
   2   2.0000     -11.222858      -305.3895
   3   2.0000     -11.222142      -305.3700
   4   2.0000     -11.221881      -305.3629
   5   2.0000     -11.221632      -305.3561
   6   2.0000     -11.221061      -305.3406
   7   2.0000     -11.220999      -305.3389
   8   2.0000     -11.220304      -305.3200
   9   2.0000     -11.220115      -305.3148
  10   2.0000     -11.220054      -305.3132
  11   2.0000     -11.219987      -305.3114
  12   2.0000     -11.219333      -305.2936
  13   2.0000     -11.219312      -305.2930
  14   2.0000     -11.217908      -305.2548
  15   2.0000     -11.217627      -305.2472
  16   2.0000     -11.216563      -305.2182
  17   2.0000      -1.115533       -30.3552
  18   2.0000      -1.099379       -29.9156
  19   2.0000      -1.097344       -29.8602
  20   2.0000      -1.063459       -28.9382
  21   2.0000      -1.059225       -28.8230
  22   2.0000      -1.008709       -27.4484
  23   2.0000      -1.001421       -27.2501
  24   2.0000      -0.941407       -25.6170
  25   2.0000      -0.927676       -25.2433
  26   2.0000      -0.866222       -23.5711
  27   2.0000      -0.840477       -22.8705
  28   2.0000      -0.789211       -21.4755
  29   2.0000      -0.784492       -21.3471
  30   2.0000      -0.755292       -20.5525
  31   2.0000      -0.751982       -20.4625
  32   2.0000      -0.746470       -20.3125
  33   2.0000      -0.718270       -19.5451
  34   2.0000      -0.651515       -17.7286
  35   2.0000      -0.641058       -17.4441
  36   2.0000      -0.634933       -17.2774
  37   2.0000      -0.628014       -17.0891
  38   2.0000      -0.618357       -16.8264
  39   2.0000      -0.609299       -16.5799
  40   2.0000      -0.599225       -16.3057
  41   2.0000      -0.584826       -15.9139
  42   2.0000      -0.570630       -15.5276
  43   2.0000      -0.561444       -15.2777
  44   2.0000      -0.546295       -14.8654
  45   2.0000      -0.539694       -14.6858
  46   2.0000      -0.525790       -14.3075
  47   2.0000      -0.513103       -13.9622
  48   2.0000      -0.505141       -13.7456
  49   2.0000      -0.501268       -13.6402
  50   2.0000      -0.494111       -13.4454
  51   2.0000      -0.486948       -13.2505
  52   2.0000      -0.483073       -13.1451
  53   2.0000      -0.471798       -12.8383
  54   2.0000      -0.467804       -12.7296
  55   2.0000      -0.467100       -12.7104
  56   2.0000      -0.459329       -12.4990
  57   2.0000      -0.452865       -12.3231
  58   2.0000      -0.444874       -12.1056
  59   2.0000      -0.409309       -11.1379
  60   2.0000      -0.373753       -10.1703
  61   2.0000      -0.292425        -7.9573
  62   2.0000      -0.276723        -7.5300
  63   0.0000       0.027136         0.7384
  64   0.0000       0.028448         0.7741
  65   0.0000       0.030186         0.8214
  66   0.0000       0.033903         0.9225
  67   0.0000       0.038482         1.0471

MULLIKEN ATOMIC CHARGES
-----------------------
   0 C :   -0.029266
   1 C :    0.311760
   2 C :    0.274465
   3 C :   -0.164071
   4 C :    0.106190
   5 C :   -0.249137
   6 C :   -0.043693
   7 C :   -0.317857
   8 H :   -0.222791
   9 C :   -0.257019
  10 C :    0.466532
  11 C :   -0.539450
  12 C :   -0.142462
  13 C :   -0.217709
  14 C :   -0.433991
  15 H :    0.103088
  16 H :    0.365540
  17 H :    0.273969
  18 H :    0.175484
  19 H :    0.339894
  20 H :    0.171391
  21 C :   -0.238091
  22 H :   -0.254659
  23 C :   -0.416188
  24 H :    0.140672
  25 H :    0.332767
  26 C :   -0.490726
  27 H :    0.291277
  28 H :    0.162718
  29 H :    0.130877
  30 H :    0.319951
  31 H :    0.156288
  32 H :    0.199306
  33 H :   -0.092664
  34 H :   -0.045403
  35 H :   -0.185167
  36 H :   -0.321914
  37 H :    0.313422
  38 H :    0.262767
  39 H :   -0.121827
  40 H :   -0.114271
Sum of atomic charges:    0.0000000

LOEWDIN ATOMIC CHARGES
----------------------
   0 C :    0.186204
   1 C :    0.208871
   2 C :    0.170735
   3 C :    0.221033
   4 C :    0.204144
   5 C :    0.263577
   6 C :    0.209347
   7 C :    0.197568
   8 H :   -0.167773
   9 C :    0.261994
  10 C :    0.161620
  11 C :    0.199389
  12 C :    0.188563
  13 C :    0.260199
  14 C :    0.289669
  15 H :   -0.156250
  16 H :   -0.150121
  17 H :   -0.148297
  18 H :   -0.149110
  19 H :   -0.145597
  20 H :   -0.155044
  21 C :    0.271769
  22 H :   -0.166560
  23 C :    0.292461
  24 H :   -0.151305
  25 H :   -0.144355
  26 C :    0.302128
  27 H :   -0.148473
  28 H :   -0.149355
  29 H :   -0.156222
  30 H :   -0.149085
  31 H :   -0.146656
  32 H :   -0.153303
  33 H :   -0.177794
  34 H :   -0.173458
  35 H :   -0.178316
  36 H :   -0.172519
  37 H :   -0.188146
  38 H :   -0.207340
  39 H :   -0.184388
  40 H :   -0.169803

  Mayer bond orders larger than 0.100000
B(  0-C ,  1-C ) :   1.2239 B(  0-C ,  2-C ) :   0.3379 B(  0-C ,  3-C ) :   0.1879
B(  0-C , 22-H ) :  -0.1487 B(  0-C , 33-H ) :   1.6675 B(  0-C , 35-H ) :  -0.1358
B(  1-C ,  3-C ) :   0.3770 B(  1-C , 21-C ) :   0.3959 B(  1-C , 22-H ) :   1.7208
B(  1-C , 30-H ) :  -0.1636 B(  1-C , 33-H ) :  -0.2722 B(  1-C , 35-H ) :  -0.1318
B(  1-C , 36-H ) :  -0.1567 B(  2-C ,  3-C ) :   1.1165 B(  2-C , 22-H ) :  -0.2061
B(  2-C , 33-H ) :  -0.1689 B(  2-C , 35-H ) :   1.7867 B(  2-C , 36-H ) :  -0.2964
B(  3-C ,  5-C ) :   0.5177 B(  3-C , 16-H ) :  -0.1881 B(  3-C , 35-H ) :  -0.1850
B(  3-C , 36-H ) :   1.8280 B(  4-C , 10-C ) :  -0.1258 B(  4-C , 11-C ) :   0.1516
B(  4-C , 12-C ) :   1.2950 B(  4-C , 13-C ) :   0.6813 B(  4-C , 19-H ) :  -0.1385
B(  4-C , 40-H ) :   1.3899 B(  5-C , 14-C ) :   0.8651 B(  5-C , 15-H ) :   1.1291
B(  5-C , 16-H ) :   0.9243 B(  6-C ,  7-C ) :   1.2125 B(  6-C ,  8-H ) :   1.7470
B(  6-C ,  9-C ) :   0.3690 B(  6-C , 11-C ) :   0.2612 B(  6-C , 25-H ) :  -0.1972
B(  6-C , 38-H ) :  -0.1105 B(  7-C , 10-C ) :   0.4441 B(  7-C , 11-C ) :   0.1141
B(  7-C , 34-H ) :   1.5519 B(  8-H , 10-C ) :  -0.1290 B(  8-H , 34-H ) :   0.1708
B(  8-H , 38-H ) :  -0.1137 B(  9-C , 23-C ) :   0.9792 B(  9-C , 24-H ) :   1.0935
B(  9-C , 25-H ) :   0.9658 B( 10-C , 11-C ) :   0.8924 B( 10-C , 12-C ) :  -0.1006
B( 10-C , 38-H ) :   1.5464 B( 10-C , 40-H ) :  -0.1882 B( 11-C , 12-C ) :   0.7040
B( 11-C , 37-H ) :   0.9408 B( 11-C , 39-H ) :  -0.1502 B( 11-C , 40-H ) :   0.1168
B( 12-C , 39-H ) :   1.5106 B( 13-C , 14-C ) :   0.9293 B( 13-C , 19-H ) :   0.9519
B( 13-C , 20-H ) :   1.0559 B( 14-C , 17-H ) :   0.9531 B( 14-C , 18-H ) :   1.0513
B( 21-C , 26-C ) :   0.8613 B( 21-C , 29-H ) :   1.1369 B( 21-C , 30-H ) :   0.9824
B( 22-H , 33-H ) :   0.1820 B( 23-C , 26-C ) :   0.8888 B( 23-C , 27-H ) :   0.9263
B( 23-C , 28-H ) :   1.0766 B( 26-C , 31-H ) :   1.0828 B( 26-C , 32-H ) :   1.0175
B( 35-H , 36-H ) :   0.3126 B( 39-H , 40-H ) :   0.1836

MP2 TOTAL ENERGY:     -660.726427266 Eh
FINAL SINGLE POINT ENERGY      -660.726427265518

DIPOLE MOMENT
-------------
                                X             Y             Z
Electronic contribution:     -2.67917       3.26714       0.91796
Nuclear contribution   :      2.91970      -3.52810      -0.93225
                        -----------------------------------------
Total Dipole Moment    :      0.24054      -0.26096      -0.01428
                        -----------------------------------------
Magnitude (a.u.)       :      0.35519
Magnitude (Debye)      :      0.90282

Rotational constants in cm-1:     0.026418     0.008299     0.006751
Rotational constants in MHz :   792.005879   248.799983   202.393514

                             ****ORCA TERMINATED NORMALLY****
TOTAL RUN TIME: 0 days 0 hours 45 minutes 57 seconds 554 msec
