                         Program Version 4.2.1 -  RELEASE  -
|  1> %pal
|  2>  nprocs 32
|  3> end
|  4> !RI-MP2 aug-cc-pVTZ aug-cc-pVTZ/C TightSCF
|  5> %maxcore 4500
|  6> *xyzfile 0 1  10_62TS.xyz
|  7>
|  8>
|  9>                          ****END OF INPUT****

CARTESIAN COORDINATES (ANGSTROEM)
---------------------------------
  C      0.382644    1.516687    0.000008
  C     -0.951206    1.068845    0.000009
  C     -1.351848    0.382723   -1.211237
  C     -0.452675   -1.100698   -1.209523
  C      0.355786   -1.099664   -0.000008
  C      1.354140   -0.123185   -0.000005
  C      2.658572    0.046176   -0.000007
  C     -0.452668   -1.100713    1.209512
  H      0.122559   -1.098901   -2.132576
  H     -1.074008    0.893984   -2.130685
  C     -1.351842    0.382708    1.211249
  H      0.763693    1.972176    0.909506
  H     -1.202442   -1.889513   -1.224862
  H     -2.399566    0.090369   -1.240682
  H      3.106801    1.032926   -0.000002
  H      3.327265   -0.806361   -0.000014
  H      0.763688    1.972188   -0.909487
  H      0.122571   -1.098927    2.132562
  H     -1.202435   -1.889528    1.224845
  H     -1.073996    0.893958    2.130701
  H     -2.399559    0.090354    1.240697

 Total Charge           Charge          ....    0
 Multiplicity           Mult            ....    1
 Number of Electrons    NEL             ....   66
 Basis Dimension        Dim             ....  690

ORBITAL ENERGIES
----------------

  NO   OCC          E(Eh)            E(eV)
   0   2.0000     -11.253356      -306.2194
   1   2.0000     -11.235527      -305.7342
   2   2.0000     -11.234493      -305.7061
   3   2.0000     -11.234479      -305.7057
   4   2.0000     -11.232762      -305.6590
   5   2.0000     -11.232720      -305.6578
   6   2.0000     -11.225253      -305.4547
   7   2.0000     -11.221484      -305.3521
   8   2.0000     -11.220453      -305.3240
   9   2.0000      -1.161273       -31.5999
  10   2.0000      -1.058775       -28.8107
  11   2.0000      -1.019264       -27.7356
  12   2.0000      -0.987092       -26.8601
  13   2.0000      -0.922145       -25.0928
  14   2.0000      -0.857288       -23.3280
  15   2.0000      -0.822077       -22.3698
  16   2.0000      -0.737498       -20.0683
  17   2.0000      -0.667796       -18.1717
  18   2.0000      -0.656301       -17.8589
  19   2.0000      -0.645133       -17.5550
  20   2.0000      -0.612679       -16.6718
  21   2.0000      -0.587705       -15.9923
  22   2.0000      -0.572463       -15.5775
  23   2.0000      -0.562912       -15.3176
  24   2.0000      -0.543784       -14.7971
  25   2.0000      -0.538572       -14.6553
  26   2.0000      -0.513824       -13.9819
  27   2.0000      -0.479798       -13.0560
  28   2.0000      -0.470336       -12.7985
  29   2.0000      -0.437425       -11.9029
  30   2.0000      -0.393449       -10.7063
  31   2.0000      -0.363336        -9.8869
  32   2.0000      -0.272731        -7.4214
  33   0.0000       0.028804         0.7838
  34   0.0000       0.032544         0.8856
  35   0.0000       0.036742         0.9998
  36   0.0000       0.039322         1.0700
  37   0.0000       0.049360         1.3432

MULLIKEN ATOMIC CHARGES
-----------------------
   0 C :   -0.784634
   1 C :   -0.071024
   2 C :   -0.575294
   3 C :   -0.629519
   4 C :   -0.190287
   5 C :    1.369703
   6 C :   -1.690230
   7 C :   -0.629519
   8 H :    0.348869
   9 H :    0.291460
  10 C :   -0.575302
  11 H :    0.331530
  12 H :    0.267606
  13 H :    0.308666
  14 H :    0.464527
  15 H :    0.215330
  16 H :    0.331522
  17 H :    0.348868
  18 H :    0.267605
  19 H :    0.291473
  20 H :    0.308652
Sum of atomic charges:    0.0000000

LOEWDIN ATOMIC CHARGES
----------------------
   0 C :    0.390663
   1 C :   -0.139254
   2 C :    0.357410
   3 C :    0.352963
   4 C :   -0.133126
   5 C :   -0.025509
   6 C :    0.523742
   7 C :    0.352963
   8 H :   -0.155363
   9 H :   -0.157611
  10 C :    0.357411
  11 H :   -0.165125
  12 H :   -0.159018
  13 H :   -0.157963
  14 H :   -0.225010
  15 H :   -0.222094
  16 H :   -0.165124
  17 H :   -0.155363
  18 H :   -0.159018
  19 H :   -0.157611
  20 H :   -0.157964

  Mayer bond orders larger than 0.100000
B(  0-C ,  1-C ) :   1.2539 B(  0-C ,  5-C ) :   0.5780 B(  0-C ,  6-C ) :  -0.2026
B(  0-C , 11-H ) :   0.9346 B(  0-C , 16-H ) :   0.9346 B(  1-C ,  2-C ) :   1.0198
B(  1-C ,  4-C ) :   0.2774 B(  1-C , 10-C ) :   1.0198 B(  2-C ,  3-C ) :   0.7124
B(  2-C ,  9-H ) :   0.9335 B(  2-C , 13-H ) :   0.9408 B(  3-C ,  4-C ) :   1.1722
B(  3-C ,  8-H ) :   0.8452 B(  3-C , 12-H ) :   1.0062 B(  4-C ,  5-C ) :   0.6239
B(  4-C ,  7-C ) :   1.1722 B(  5-C ,  6-C ) :   0.1479 B(  5-C , 15-H ) :  -0.2315
B(  6-C , 14-H ) :   0.7635 B(  6-C , 15-H ) :   1.3669 B(  7-C , 10-C ) :   0.7124
B(  7-C , 17-H ) :   0.8452 B(  7-C , 18-H ) :   1.0062 B( 10-C , 19-H ) :   0.9334
B( 10-C , 20-H ) :   0.9408

MP2 TOTAL ENERGY:     -349.298085962 Eh
FINAL SINGLE POINT ENERGY      -349.298085961604

DIPOLE MOMENT
-------------
                                X             Y             Z
Electronic contribution:      0.98133      -0.14632      -0.00000
Nuclear contribution   :     -1.18124       0.16781       0.00000
                        -----------------------------------------
Total Dipole Moment    :     -0.19990       0.02150       0.00000
                        -----------------------------------------
Magnitude (a.u.)       :      0.20106
Magnitude (Debye)      :      0.51104

Rotational constants in cm-1:     0.081935     0.055160     0.052952
Rotational constants in MHz :  2456.352786  1653.640474  1587.462474

                             ****ORCA TERMINATED NORMALLY****
TOTAL RUN TIME: 0 days 0 hours 6 minutes 39 seconds 596 msec
