                         Program Version 4.2.1 -  RELEASE  -
|  1> %pal
|  2>  nprocs 32
|  3> end
|  4> !RI-MP2 aug-cc-pVTZ aug-cc-pVTZ/C TightSCF
|  5> %maxcore 4500
|  6> *xyzfile 0 1  10_81P.xyz
|  7>
|  8>
|  9>                          ****END OF INPUT****

CARTESIAN COORDINATES (ANGSTROEM)
---------------------------------
  C      1.837832    2.078807   -0.381962
  C      1.512303    0.993393   -1.400633
  C      0.724731   -0.176299   -0.776203
  C     -0.495438    0.364142   -0.077271
  C     -0.280110    1.505147    0.869139
  C      0.554393    2.625229    0.234120
  H      2.398361    2.884107   -0.861965
  H      2.480041    1.669428    0.405273
  H      2.416311    0.608980   -1.874240
  H      0.902833    1.421561   -2.202790
  H     -1.231267    1.887810    1.237669
  H      0.262307    1.107630    1.732783
  H      0.774476    3.376899    0.994683
  H     -0.038532    3.122808   -0.540193
  C     -1.717451   -0.157842   -0.303456
  C     -1.916491   -1.265820   -1.189300
  C     -2.890792    0.346846    0.344703
  N     -2.071959   -2.154222   -1.900152
  N     -3.830677    0.753622    0.864073
  C      0.743502   -1.759186    2.512267
  C      1.161519   -1.398382    1.335805
  C      1.575025   -1.041068    0.154035
  H      0.133317   -2.646389    2.643698
  H      0.990014   -1.187823    3.401298
  C      2.884546   -1.545153   -0.398156
  H      0.407619   -0.834275   -1.590210
  H      3.310631   -2.302996    0.256863
  H      3.612243   -0.736416   -0.500453
  H      2.738677   -1.986006   -1.388405

 Total Charge           Charge          ....    0
 Multiplicity           Mult            ....    1
 Number of Electrons    NEL             ....  106
 Basis Dimension        Dim             .... 1012

ORBITAL ENERGIES
----------------

  NO   OCC          E(Eh)            E(eV)
   0   2.0000     -15.581266      -423.9878
   1   2.0000     -15.580628      -423.9704
   2   2.0000     -11.318598      -307.9947
   3   2.0000     -11.314029      -307.8704
   4   2.0000     -11.287812      -307.1570
   5   2.0000     -11.287133      -307.1385
   6   2.0000     -11.276992      -306.8626
   7   2.0000     -11.269659      -306.6630
   8   2.0000     -11.262270      -306.4620
   9   2.0000     -11.258011      -306.3461
  10   2.0000     -11.251727      -306.1751
  11   2.0000     -11.249534      -306.1154
  12   2.0000     -11.249304      -306.1091
  13   2.0000     -11.245488      -306.0053
  14   2.0000     -11.244043      -305.9660
  15   2.0000      -1.247799       -33.9543
  16   2.0000      -1.229896       -33.4672
  17   2.0000      -1.192637       -32.4533
  18   2.0000      -1.122821       -30.5535
  19   2.0000      -1.104023       -30.0420
  20   2.0000      -1.051486       -28.6124
  21   2.0000      -1.014794       -27.6139
  22   2.0000      -0.998310       -27.1654
  23   2.0000      -0.917844       -24.9758
  24   2.0000      -0.875549       -23.8249
  25   2.0000      -0.860153       -23.4059
  26   2.0000      -0.790034       -21.4979
  27   2.0000      -0.785366       -21.3709
  28   2.0000      -0.726147       -19.7595
  29   2.0000      -0.691330       -18.8120
  30   2.0000      -0.661511       -18.0006
  31   2.0000      -0.648614       -17.6497
  32   2.0000      -0.632388       -17.2081
  33   2.0000      -0.622326       -16.9344
  34   2.0000      -0.611000       -16.6262
  35   2.0000      -0.591960       -16.1081
  36   2.0000      -0.585168       -15.9232
  37   2.0000      -0.573719       -15.6117
  38   2.0000      -0.573422       -15.6036
  39   2.0000      -0.572379       -15.5752
  40   2.0000      -0.563293       -15.3280
  41   2.0000      -0.550212       -14.9720
  42   2.0000      -0.542563       -14.7639
  43   2.0000      -0.520898       -14.1743
  44   2.0000      -0.499103       -13.5813
  45   2.0000      -0.491827       -13.3833
  46   2.0000      -0.489925       -13.3315
  47   2.0000      -0.486788       -13.2462
  48   2.0000      -0.482210       -13.1216
  49   2.0000      -0.468277       -12.7425
  50   2.0000      -0.391212       -10.6454
  51   2.0000      -0.381467       -10.3803
  52   2.0000      -0.372324       -10.1314
  53   0.0000       0.017412         0.4738
  54   0.0000       0.025111         0.6833
  55   0.0000       0.026545         0.7223
  56   0.0000       0.033817         0.9202
  57   0.0000       0.040529         1.1029

MULLIKEN ATOMIC CHARGES
-----------------------
   0 C :   -0.507227
   1 C :   -0.585593
   2 C :   -0.597107
   3 C :   -0.495768
   4 C :   -0.955277
   5 C :   -0.479083
   6 H :    0.326613
   7 H :    0.168370
   8 H :    0.146894
   9 H :    0.310619
  10 H :    0.111716
  11 H :    0.204992
  12 H :    0.331669
  13 H :    0.121937
  14 C :    1.683079
  15 C :    1.080482
  16 C :    0.836972
  17 N :   -1.016282
  18 N :   -1.022463
  19 C :   -1.603900
  20 C :    1.074014
  21 C :    0.572185
  22 H :    0.362222
  23 H :    0.250133
  24 C :   -1.140300
  25 H :    0.078345
  26 H :    0.209148
  27 H :    0.273891
  28 H :    0.259719
Sum of atomic charges:    0.0000000

LOEWDIN ATOMIC CHARGES
----------------------
   0 C :    0.305093
   1 C :    0.319956
   2 C :    0.000633
   3 C :   -0.071463
   4 C :    0.322136
   5 C :    0.322071
   6 H :   -0.130990
   7 H :   -0.134530
   8 H :   -0.147038
   9 H :   -0.123688
  10 H :   -0.162277
  11 H :   -0.142222
  12 H :   -0.131031
  13 H :   -0.131464
  14 C :   -0.175889
  15 C :   -0.256325
  16 C :   -0.257584
  17 N :    0.304417
  18 N :    0.298673
  19 C :    0.506702
  20 C :    0.128708
  21 C :   -0.114379
  22 H :   -0.226867
  23 H :   -0.228109
  24 C :    0.579327
  25 H :   -0.165111
  26 H :   -0.167516
  27 H :   -0.168653
  28 H :   -0.152579

  Mayer bond orders larger than 0.100000
B(  0-C ,  1-C ) :   0.8885 B(  0-C ,  5-C ) :   0.8975 B(  0-C ,  6-H ) :   0.8914
B(  0-C ,  7-H ) :   1.1074 B(  1-C ,  2-C ) :   0.7463 B(  1-C ,  8-H ) :   1.0945
B(  1-C ,  9-H ) :   0.9638 B(  1-C , 21-C ) :   0.1017 B(  2-C ,  3-C ) :   1.9665
B(  2-C ,  4-C ) :   0.3390 B(  2-C , 14-C ) :  -0.6785 B(  2-C , 15-C ) :   0.1794
B(  2-C , 17-N ) :   0.1756 B(  2-C , 19-C ) :  -0.3044 B(  2-C , 20-C ) :  -0.2866
B(  2-C , 21-C ) :   1.7825 B(  2-C , 24-C ) :   0.2101 B(  2-C , 25-H ) :   1.0995
B(  3-C ,  4-C ) :   1.0184 B(  3-C , 10-H ) :   0.2110 B(  3-C , 14-C ) :   0.5994
B(  3-C , 15-C ) :   0.1170 B(  3-C , 16-C ) :   0.9555 B(  3-C , 20-C ) :   0.3575
B(  3-C , 21-C ) :   0.2085 B(  3-C , 25-H ) :   0.1342 B(  4-C ,  5-C ) :   0.9426
B(  4-C , 10-H ) :   1.0304 B(  4-C , 11-H ) :   1.0634 B(  4-C , 14-C ) :  -0.4582
B(  4-C , 25-H ) :   0.1286 B(  5-C , 12-H ) :   0.8929 B(  5-C , 13-H ) :   1.1048
B( 10-H , 14-C ) :  -0.3105 B( 14-C , 15-C ) :   0.8437 B( 14-C , 17-N ) :   0.4072
B( 14-C , 18-N ) :   0.2328 B( 14-C , 25-H ) :  -0.3126 B( 15-C , 16-C ) :  -0.2636
B( 15-C , 17-N ) :   1.2705 B( 16-C , 18-N ) :   1.4331 B( 16-C , 25-H ) :   0.1078
B( 19-C , 20-C ) :   0.6597 B( 19-C , 22-H ) :   0.9684 B( 19-C , 23-H ) :   1.2596
B( 20-C , 21-C ) :   0.8669 B( 20-C , 23-H ) :  -0.3078 B( 20-C , 25-H ) :  -0.1088
B( 21-C , 23-H ) :   0.1106 B( 21-C , 24-C ) :   0.5049 B( 21-C , 27-H ) :  -0.1151
B( 21-C , 28-H ) :  -0.1000 B( 24-C , 26-H ) :   1.0373 B( 24-C , 27-H ) :   1.0534
B( 24-C , 28-H ) :   1.0996

MP2 TOTAL ENERGY:     -611.973739088 Eh
FINAL SINGLE POINT ENERGY      -611.973739088490

DIPOLE MOMENT
-------------
                                X             Y             Z
Electronic contribution:    -16.58785      -5.38773      -1.37432
Nuclear contribution   :     19.20019       6.40304       1.71488
                        -----------------------------------------
Total Dipole Moment    :      2.61234       1.01532       0.34057
                        -----------------------------------------
Magnitude (a.u.)       :      2.82333
Magnitude (Debye)      :      7.17633

Rotational constants in cm-1:     0.024380     0.016978     0.014492
Rotational constants in MHz :   730.892385   508.997872   434.465951

                             ****ORCA TERMINATED NORMALLY****
TOTAL RUN TIME: 0 days 0 hours 21 minutes 23 seconds 410 msec
