                         Program Version 4.2.1 -  RELEASE  -
|  1> %pal
|  2>  nprocs 32
|  3> end
|  4> !RI-MP2 aug-cc-pVTZ aug-cc-pVTZ/C TightSCF
|  5> %maxcore 4500
|  6> *xyzfile 0 1  10_77P.xyz
|  7>
|  8>
|  9>                          ****END OF INPUT****

CARTESIAN COORDINATES (ANGSTROEM)
---------------------------------
  C     -0.434101   -1.141411    0.267627
  C     -1.790261   -0.719860   -0.218860
  C      0.696034   -0.903438   -0.388290
  C      2.078639   -1.001990    0.170719
  C      2.663671    0.348917    0.711780
  C      3.149361   -1.486285   -0.823459
  C     -2.118200    0.755774    0.234173
  C     -1.066024    1.671857   -0.307755
  C     -3.529694    1.150451   -0.206489
  C      0.111053    1.823320    0.293739
  C      1.353194    2.228370   -0.363891
  C      2.486850    1.539922   -0.202137
  C      4.141206   -0.020618    0.885231
  C      4.486890   -0.865413   -0.355923
  H      2.896695   -1.138224   -1.828171
  H      3.183272   -2.575991   -0.867823
  H      4.907183   -0.235565   -1.142845
  H      5.239644   -1.621369   -0.127689
  H      4.255638   -0.622337    1.790710
  H      4.783318    0.855409    0.995844
  C     -2.887457   -1.678499    0.254068
  C     -4.594007    0.169124    0.273474
  H     -3.552889    1.199758   -1.302442
  H     -3.749525    2.159278    0.153521
  C     -4.280936   -1.249293   -0.192895
  H     -5.579668    0.480451   -0.082911
  H     -4.637409    0.188117    1.368968
  H     -2.859365   -1.728561    1.349927
  H     -2.664019   -2.685996   -0.107369
  H     -4.339722   -1.291156   -1.287005
  H     -5.029114   -1.950566    0.186532
  H      1.320729    3.042525   -1.082010
  H      3.355881    1.840916   -0.781306
  H     -1.782112   -0.712610   -1.315758
  H     -2.073025    0.767717    1.330213
  H      0.630929   -0.480748   -1.388826
  H     -0.386293   -1.533704    1.283801
  H     -1.194419    2.012560   -1.334516
  H      0.217568    1.412025    1.293231
  H      2.197685    0.569122    1.675634
  H      2.061703   -1.676605    1.033620

 Total Charge           Charge          ....    0
 Multiplicity           Mult            ....    1
 Number of Electrons    NEL             ....  126
 Basis Dimension        Dim             .... 1334

ORBITAL ENERGIES
----------------

  NO   OCC          E(Eh)            E(eV)
   0   2.0000     -11.227209      -305.5079
   1   2.0000     -11.227118      -305.5054
   2   2.0000     -11.225936      -305.4732
   3   2.0000     -11.225884      -305.4718
   4   2.0000     -11.225746      -305.4681
   5   2.0000     -11.222250      -305.3729
   6   2.0000     -11.219558      -305.2997
   7   2.0000     -11.215726      -305.1954
   8   2.0000     -11.215546      -305.1905
   9   2.0000     -11.214908      -305.1732
  10   2.0000     -11.214803      -305.1703
  11   2.0000     -11.214545      -305.1633
  12   2.0000     -11.214456      -305.1609
  13   2.0000     -11.214043      -305.1496
  14   2.0000     -11.213507      -305.1350
  15   2.0000     -11.213182      -305.1262
  16   2.0000     -11.210888      -305.0638
  17   2.0000      -1.146423       -31.1958
  18   2.0000      -1.129996       -30.7488
  19   2.0000      -1.084310       -29.5056
  20   2.0000      -1.060674       -28.8624
  21   2.0000      -1.033432       -28.1211
  22   2.0000      -1.002448       -27.2780
  23   2.0000      -0.983175       -26.7536
  24   2.0000      -0.944141       -25.6914
  25   2.0000      -0.937923       -25.5222
  26   2.0000      -0.845397       -23.0044
  27   2.0000      -0.837390       -22.7865
  28   2.0000      -0.801057       -21.7979
  29   2.0000      -0.774690       -21.0804
  30   2.0000      -0.768195       -20.9037
  31   2.0000      -0.755914       -20.5695
  32   2.0000      -0.747349       -20.3364
  33   2.0000      -0.703726       -19.1494
  34   2.0000      -0.665238       -18.1020
  35   2.0000      -0.649932       -17.6855
  36   2.0000      -0.636711       -17.3258
  37   2.0000      -0.624562       -16.9952
  38   2.0000      -0.611710       -16.6455
  39   2.0000      -0.608060       -16.5462
  40   2.0000      -0.595747       -16.2111
  41   2.0000      -0.586003       -15.9460
  42   2.0000      -0.564254       -15.3541
  43   2.0000      -0.552299       -15.0288
  44   2.0000      -0.542932       -14.7739
  45   2.0000      -0.533802       -14.5255
  46   2.0000      -0.526677       -14.3316
  47   2.0000      -0.515133       -14.0175
  48   2.0000      -0.499439       -13.5904
  49   2.0000      -0.492362       -13.3979
  50   2.0000      -0.480181       -13.0664
  51   2.0000      -0.476611       -12.9692
  52   2.0000      -0.474840       -12.9211
  53   2.0000      -0.473224       -12.8771
  54   2.0000      -0.464447       -12.6382
  55   2.0000      -0.454801       -12.3758
  56   2.0000      -0.454022       -12.3546
  57   2.0000      -0.449734       -12.2379
  58   2.0000      -0.433553       -11.7976
  59   2.0000      -0.428087       -11.6488
  60   2.0000      -0.391012       -10.6400
  61   2.0000      -0.337664        -9.1883
  62   2.0000      -0.298625        -8.1260
  63   0.0000       0.027802         0.7565
  64   0.0000       0.028737         0.7820
  65   0.0000       0.030088         0.8187
  66   0.0000       0.033480         0.9110
  67   0.0000       0.039249         1.0680

MULLIKEN ATOMIC CHARGES
-----------------------
   0 C :   -0.577311
   1 C :    0.984332
   2 C :   -0.290900
   3 C :    0.758353
   4 C :    0.242377
   5 C :   -0.907229
   6 C :    0.838932
   7 C :   -1.106289
   8 C :   -0.802518
   9 C :    0.221167
  10 C :   -0.326998
  11 C :   -0.791732
  12 C :   -0.971369
  13 C :   -0.620399
  14 H :    0.200736
  15 H :    0.321993
  16 H :    0.123561
  17 H :    0.364512
  18 H :    0.094019
  19 H :    0.367177
  20 C :   -0.769267
  21 C :   -0.572813
  22 H :    0.143838
  23 H :    0.394953
  24 C :   -0.612028
  25 H :    0.314290
  26 H :    0.112945
  27 H :    0.165403
  28 H :    0.390518
  29 H :    0.115765
  30 H :    0.309321
  31 H :    0.713673
  32 H :    0.086619
  33 H :    0.272783
  34 H :    0.292244
  35 H :   -0.153897
  36 H :   -0.271599
  37 H :   -0.092874
  38 H :    0.357209
  39 H :    0.372071
  40 H :    0.308434
Sum of atomic charges:   -0.0000000

LOEWDIN ATOMIC CHARGES
----------------------
   0 C :    0.240375
   1 C :   -0.000385
   2 C :    0.230116
   3 C :    0.004855
   4 C :    0.003693
   5 C :    0.328150
   6 C :   -0.006240
   7 C :    0.229135
   8 C :    0.295101
   9 C :    0.180237
  10 C :    0.217212
  11 C :    0.245129
  12 C :    0.305157
  13 C :    0.323323
  14 H :   -0.147426
  15 H :   -0.137797
  16 H :   -0.150054
  17 H :   -0.146505
  18 H :   -0.137879
  19 H :   -0.139232
  20 C :    0.294797
  21 C :    0.293260
  22 H :   -0.135672
  23 H :   -0.132749
  24 C :    0.293437
  25 H :   -0.139215
  26 H :   -0.136846
  27 H :   -0.135485
  28 H :   -0.132699
  29 H :   -0.136793
  30 H :   -0.139215
  31 H :   -0.179585
  32 H :   -0.177215
  33 H :   -0.127819
  34 H :   -0.126373
  35 H :   -0.159642
  36 H :   -0.152418
  37 H :   -0.152999
  38 H :   -0.184519
  39 H :   -0.138647
  40 H :   -0.130567

  Mayer bond orders larger than 0.100000
B(  0-C ,  1-C ) :   0.6291 B(  0-C ,  2-C ) :   1.5479 B(  0-C ,  3-C ) :   0.1100
B(  0-C ,  6-C ) :   0.1180 B(  0-C ,  9-C ) :  -0.1169 B(  0-C , 20-C ) :  -0.1924
B(  0-C , 28-H ) :  -0.1216 B(  0-C , 36-H ) :   1.8045 B(  1-C ,  2-C ) :  -0.1077
B(  1-C ,  3-C ) :   0.1263 B(  1-C ,  6-C ) :   0.8705 B(  1-C ,  8-C ) :   0.2247
B(  1-C , 20-C ) :   0.5261 B(  1-C , 33-H ) :   0.8384 B(  1-C , 35-H ) :  -0.1991
B(  1-C , 36-H ) :  -0.1363 B(  2-C ,  3-C ) :   0.5489 B(  2-C ,  5-C ) :  -0.1129
B(  2-C ,  9-C ) :   0.1185 B(  2-C , 10-C ) :  -0.1611 B(  2-C , 11-C ) :   0.1563
B(  2-C , 35-H ) :   1.5967 B(  2-C , 36-H ) :  -0.2497 B(  2-C , 39-H ) :   0.1257
B(  3-C ,  4-C ) :   0.9178 B(  3-C ,  5-C ) :   0.6553 B(  3-C , 11-C ) :   0.1809
B(  3-C , 12-C ) :  -0.1009 B(  3-C , 40-H ) :   0.9674 B(  4-C ,  5-C ) :   0.2103
B(  4-C , 11-C ) :   0.8030 B(  4-C , 12-C ) :   1.0617 B(  4-C , 39-H ) :   0.8072
B(  5-C , 12-C ) :   0.2634 B(  5-C , 13-C ) :   1.1021 B(  5-C , 14-H ) :   1.1227
B(  5-C , 15-H ) :   0.8670 B(  5-C , 40-H ) :  -0.1238 B(  6-C ,  7-C ) :   0.4681
B(  6-C ,  8-C ) :   0.5476 B(  6-C ,  9-C ) :   0.1208 B(  6-C , 20-C ) :   0.1928
B(  6-C , 34-H ) :   0.8035 B(  7-C ,  8-C ) :  -0.1237 B(  7-C ,  9-C ) :   1.2651
B(  7-C , 10-C ) :   0.1259 B(  7-C , 11-C ) :   0.1860 B(  7-C , 23-H ) :  -0.1080
B(  7-C , 31-H ) :  -0.1417 B(  7-C , 37-H ) :   1.7543 B(  7-C , 38-H ) :  -0.1144
B(  8-C , 21-C ) :   0.9922 B(  8-C , 22-H ) :   1.1616 B(  8-C , 23-H ) :   0.8702
B(  9-C , 10-C ) :   0.4790 B(  9-C , 11-C ) :  -0.1580 B(  9-C , 38-H ) :   0.9180
B( 10-C , 11-C ) :   1.8994 B( 10-C , 31-H ) :   0.3212 B( 10-C , 32-H ) :  -0.1345
B( 10-C , 37-H ) :  -0.2290 B( 10-C , 38-H ) :  -0.1766 B( 11-C , 32-H ) :   1.1970
B( 11-C , 37-H ) :   0.1902 B( 11-C , 38-H ) :   0.2182 B( 12-C , 13-C ) :   1.0477
B( 12-C , 16-H ) :   0.1287 B( 12-C , 18-H ) :   1.2048 B( 12-C , 19-H ) :   0.9027
B( 12-C , 39-H ) :  -0.1958 B( 13-C , 16-H ) :   1.1380 B( 13-C , 17-H ) :   0.8461
B( 20-C , 24-C ) :   1.0291 B( 20-C , 27-H ) :   1.1436 B( 20-C , 28-H ) :   0.8795
B( 21-C , 24-C ) :   0.8587 B( 21-C , 25-H ) :   0.9189 B( 21-C , 26-H ) :   1.1270
B( 24-C , 29-H ) :   1.1363 B( 24-C , 30-H ) :   0.9224 B( 31-H , 37-H ) :  -0.1192
B( 35-H , 36-H ) :   0.1979 B( 35-H , 38-H ) :   0.1337

MP2 TOTAL ENERGY:     -660.775884118 Eh
FINAL SINGLE POINT ENERGY      -660.775884118332

DIPOLE MOMENT
-------------
                                X             Y             Z
Electronic contribution:      2.88813       3.64687       0.20091
Nuclear contribution   :     -2.89846      -3.86027      -0.19342
                        -----------------------------------------
Total Dipole Moment    :     -0.01034      -0.21340       0.00749
                        -----------------------------------------
Magnitude (a.u.)       :      0.21378
Magnitude (Debye)      :      0.54339

Rotational constants in cm-1:     0.037693     0.008467     0.007332
Rotational constants in MHz :  1130.004083   253.830491   219.796488

                             ****ORCA TERMINATED NORMALLY****
TOTAL RUN TIME: 0 days 0 hours 44 minutes 37 seconds 123 msec
