                         Program Version 4.2.1 -  RELEASE  -
|  1> %pal
|  2>  nprocs 32
|  3> end
|  4> !RI-MP2 aug-cc-pVTZ aug-cc-pVTZ/C TightSCF
|  5> %maxcore 4500
|  6> *xyzfile -1 1  09_22TS.xyz
|  7>
|  8>
|  9>                          ****END OF INPUT****

CARTESIAN COORDINATES (ANGSTROEM)
---------------------------------
  C     -5.810851    0.210345   -0.263172
  N     -4.543720    0.022550    0.401710
  H     -5.863788   -0.259604   -1.263269
  H     -6.020803    1.277207   -0.395604
  H     -6.616649   -0.202864    0.349831
  C     -3.394249    0.452743   -0.379033
  C     -3.035972    1.902960   -0.080760
  H     -3.916986    2.538323   -0.217388
  H     -2.257532    2.279453   -0.751271
  H     -2.679996    1.978516    0.944180
  C     -2.266224   -0.578666   -0.172003
  H     -3.625470    0.362614   -1.457914
  N     -1.087231   -0.319462   -0.946897
  O     -2.582813   -1.759123    0.046144
  C      0.027804   -0.898462   -0.238372
  C     -0.253963   -0.614360    1.338230
  O     -1.403994    0.086686    1.413081
  H      0.608171   -0.070015    1.761365
  H     -0.288504   -1.607182    1.822847
  C      1.304034   -0.261815   -0.632479
  H      0.078869   -1.972300   -0.403842
  O      1.462445    0.826839   -1.130295
  O      2.375909   -1.030224   -0.287304
  C      3.667430   -0.472798   -0.541471
  C      3.870764    0.874199    0.147017
  O      4.489929    1.785741   -0.321313
  O      3.348538    0.882373    1.382046
  N      4.673016   -1.374989   -0.072492
  H      3.787200   -0.294313   -1.609281
  H      3.483435    1.765786    1.750712
  H      4.648298   -2.236090   -0.604403
  H      4.506848   -1.600628    0.902363
  H     -4.379576   -0.958915    0.615422
  H     -0.930723    0.680118   -1.006624

 Total Charge           Charge          ....   -1
 Multiplicity           Mult            ....    1
 Number of Electrons    NEL             ....  140
 Basis Dimension        Dim             .... 1196

ORBITAL ENERGIES
----------------

  NO   OCC          E(Eh)            E(eV)
   0   2.0000     -20.531312      -558.6854
   1   2.0000     -20.508747      -558.0714
   2   2.0000     -20.466253      -556.9151
   3   2.0000     -20.441294      -556.2359
   4   2.0000     -20.329049      -553.1815
   5   2.0000     -20.311397      -552.7012
   6   2.0000     -15.489277      -421.4847
   7   2.0000     -15.410712      -419.3468
   8   2.0000     -15.397800      -418.9954
   9   2.0000     -11.303693      -307.5891
  10   2.0000     -11.271122      -306.7028
  11   2.0000     -11.256036      -306.2923
  12   2.0000     -11.196807      -304.6806
  13   2.0000     -11.127409      -302.7922
  14   2.0000     -11.126896      -302.7782
  15   2.0000     -11.116766      -302.5026
  16   2.0000     -11.115045      -302.4558
  17   2.0000     -11.076980      -301.4200
  18   2.0000      -1.393415       -37.9168
  19   2.0000      -1.365020       -37.1441
  20   2.0000      -1.284429       -34.9511
  21   2.0000      -1.265028       -34.4232
  22   2.0000      -1.206448       -32.8291
  23   2.0000      -1.129441       -30.7337
  24   2.0000      -1.121588       -30.5200
  25   2.0000      -1.069910       -29.1137
  26   2.0000      -1.053330       -28.6626
  27   2.0000      -0.910174       -24.7671
  28   2.0000      -0.884436       -24.0667
  29   2.0000      -0.844817       -22.9886
  30   2.0000      -0.783072       -21.3085
  31   2.0000      -0.759094       -20.6560
  32   2.0000      -0.715455       -19.4685
  33   2.0000      -0.704919       -19.1818
  34   2.0000      -0.667103       -18.1528
  35   2.0000      -0.642420       -17.4811
  36   2.0000      -0.617457       -16.8019
  37   2.0000      -0.615559       -16.7502
  38   2.0000      -0.598691       -16.2912
  39   2.0000      -0.588835       -16.0230
  40   2.0000      -0.578526       -15.7425
  41   2.0000      -0.551307       -15.0018
  42   2.0000      -0.548829       -14.9344
  43   2.0000      -0.520762       -14.1707
  44   2.0000      -0.514350       -13.9962
  45   2.0000      -0.502742       -13.6803
  46   2.0000      -0.487067       -13.2538
  47   2.0000      -0.480172       -13.0661
  48   2.0000      -0.472223       -12.8498
  49   2.0000      -0.458817       -12.4850
  50   2.0000      -0.452960       -12.3257
  51   2.0000      -0.442676       -12.0458
  52   2.0000      -0.430038       -11.7019
  53   2.0000      -0.425907       -11.5895
  54   2.0000      -0.407335       -11.0841
  55   2.0000      -0.403508       -10.9800
  56   2.0000      -0.389883       -10.6092
  57   2.0000      -0.388945       -10.5837
  58   2.0000      -0.381819       -10.3898
  59   2.0000      -0.373720       -10.1694
  60   2.0000      -0.360551        -9.8111
  61   2.0000      -0.357714        -9.7339
  62   2.0000      -0.353022        -9.6062
  63   2.0000      -0.335926        -9.1410
  64   2.0000      -0.311538        -8.4774
  65   2.0000      -0.258682        -7.0391
  66   2.0000      -0.243907        -6.6371
  67   2.0000      -0.231918        -6.3108
  68   2.0000      -0.215105        -5.8533
  69   2.0000      -0.196962        -5.3596
  70   0.0000       0.091865         2.4998
  71   0.0000       0.102642         2.7930
  72   0.0000       0.104867         2.8536
  73   0.0000       0.109262         2.9732
  74   0.0000       0.115637         3.1466

MULLIKEN ATOMIC CHARGES
-----------------------
   0 C :   -1.066615
   1 N :   -0.580876
   2 H :    0.314310
   3 H :    0.329388
   4 H :    0.357566
   5 C :    0.334025
   6 C :   -1.089805
   7 H :    0.227256
   8 H :    0.225472
   9 H :    0.341287
  10 C :    2.117628
  11 H :    0.359317
  12 N :   -0.955447
  13 O :   -1.376833
  14 C :    0.864657
  15 C :   -0.585157
  16 O :   -1.067402
  17 H :    0.405810
  18 H :    0.268162
  19 C :    0.446892
  20 H :    0.264619
  21 O :   -1.091322
  22 O :   -0.554362
  23 C :    1.056240
  24 C :    0.823331
  25 O :   -0.956617
  26 O :   -0.481729
  27 N :   -0.876417
  28 H :    0.443170
  29 H :    0.201429
  30 H :    0.101862
  31 H :    0.081368
  32 H :    0.071139
  33 H :    0.047655
Sum of atomic charges:   -1.0000000

LOEWDIN ATOMIC CHARGES
----------------------
   0 C :    0.424355
   1 N :    0.548293
   2 H :   -0.168520
   3 H :   -0.184720
   4 H :   -0.180241
   5 C :   -0.165195
   6 C :    0.570472
   7 H :   -0.179703
   8 H :   -0.176469
   9 H :   -0.205973
  10 C :   -0.874329
  11 H :   -0.142201
  12 N :    0.553289
  13 O :    0.443375
  14 C :   -0.152345
  15 C :   -0.152072
  16 O :    0.425495
  17 H :   -0.203509
  18 H :   -0.181372
  19 C :   -0.806468
  20 H :   -0.161705
  21 O :    0.496246
  22 O :    0.605253
  23 C :   -0.413544
  24 C :   -0.834246
  25 O :    0.455513
  26 O :    0.843374
  27 N :    0.842541
  28 H :   -0.158096
  29 H :   -0.458355
  30 H :   -0.311166
  31 H :   -0.314982
  32 H :   -0.404117
  33 H :   -0.378879

  Mayer bond orders larger than 0.100000
B(  0-C ,  1-N ) :   1.0506 B(  0-C ,  2-H ) :   0.9277 B(  0-C ,  3-H ) :   0.9181
B(  0-C ,  4-H ) :   0.9155 B(  0-C ,  5-C ) :  -0.1047 B(  1-N ,  5-C ) :   0.6102
B(  1-N ,  6-C ) :   0.2379 B(  1-N , 32-H ) :   0.8977 B(  5-C ,  6-C ) :   0.6327
B(  5-C , 10-C ) :   1.1047 B(  5-C , 11-H ) :   0.9044 B(  5-C , 12-N ) :   0.1379
B(  6-C ,  7-H ) :   1.0141 B(  6-C ,  8-H ) :   1.0095 B(  6-C ,  9-H ) :   0.9589
B( 10-C , 12-N ) :   0.6051 B( 10-C , 13-O ) :   0.2415 B( 12-N , 14-C ) :   0.5160
B( 12-N , 15-C ) :   0.1676 B( 12-N , 19-C ) :   0.2315 B( 12-N , 33-H ) :   0.8569
B( 13-O , 15-C ) :   0.1357 B( 14-C , 15-C ) :   0.6174 B( 14-C , 19-C ) :   0.3749
B( 14-C , 20-H ) :   0.9721 B( 14-C , 22-O ) :  -0.1549 B( 15-C , 16-O ) :   1.2632
B( 15-C , 17-H ) :   0.7960 B( 15-C , 18-H ) :   0.9848 B( 15-C , 19-C ) :   0.2324
B( 19-C , 21-O ) :   0.8529 B( 19-C , 22-O ) :   0.8785 B( 21-O , 23-C ) :   0.1140
B( 22-O , 23-C ) :   0.7514 B( 22-O , 24-C ) :   0.1117 B( 23-C , 24-C ) :   0.5857
B( 23-C , 27-N ) :   0.3133 B( 23-C , 28-H ) :   0.8456 B( 24-C , 25-O ) :   1.1260
B( 24-C , 26-O ) :   0.9669 B( 24-C , 27-N ) :   0.1086 B( 26-O , 29-H ) :   0.9787
B( 27-N , 30-H ) :   0.9987 B( 27-N , 31-H ) :   1.0411

MP2 TOTAL ENERGY:     -966.640386861 Eh
FINAL SINGLE POINT ENERGY      -966.640386861150

DIPOLE MOMENT
-------------
                                X             Y             Z
Electronic contribution:     21.94152      -1.79192      -0.86905
Nuclear contribution   :    -19.26380       1.67515       0.44883
                        -----------------------------------------
Total Dipole Moment    :      2.67772      -0.11678      -0.42022
                        -----------------------------------------
Magnitude (a.u.)       :      2.71301
Magnitude (Debye)      :      6.89593

Rotational constants in cm-1:     0.038556     0.005903     0.005652
Rotational constants in MHz :  1155.886690   176.979168   169.432481

                             ****ORCA TERMINATED NORMALLY****
TOTAL RUN TIME: 0 days 0 hours 26 minutes 41 seconds 743 msec
