                         Program Version 4.2.1 -  RELEASE  -
|  1> %pal
|  2>  nprocs 32
|  3> end
|  4> !RI-MP2 aug-cc-pVTZ aug-cc-pVTZ/C TightSCF
|  5> %maxcore 4500
|  6> *xyzfile 0 2  01_20P.xyz
|  7>
|  8>
|  9>                          ****END OF INPUT****

CARTESIAN COORDINATES (ANGSTROEM)
---------------------------------
  C     -0.032764    0.808712    0.519375
  C     -1.422193    1.163322    0.116795
  C     -2.235029   -0.056408   -0.171777
  C     -1.177954   -1.154553   -0.366158
  H     -2.897577    0.056515   -1.035356
  H     -2.888514   -0.299612    0.681146
  C     -0.006218   -0.745262    0.543302
  H     -0.844522   -1.153735   -1.408385
  H     -1.552795   -2.156378   -0.147380
  C      1.397801   -1.167555    0.057503
  H     -1.823007    2.168735    0.137054
  C      1.110565    1.182705   -0.448648
  C      2.184433    0.143379   -0.125565
  H      1.448881    2.213253   -0.325675
  H      0.770738    1.068224   -1.482676
  H      2.682386    0.414231    0.810814
  H      2.957576    0.070013   -0.892995
  H      1.319195   -1.693957   -0.897811
  H      1.894346   -1.848104    0.751112
  H     -0.199294   -1.106334    1.556579
  H      0.220741    1.221106    1.504611

 Total Charge           Charge          ....    0
 Multiplicity           Mult            ....    2
 Number of Electrons    NEL             ....   61
 Basis Dimension        Dim             ....  667

ORBITAL ENERGIES
----------------
                 SPIN UP ORBITALS
  NO   OCC          E(Eh)            E(eV)
   0   1.0000     -11.216618      -305.2197
   1   1.0000     -11.214931      -305.1738
   2   1.0000     -11.214126      -305.1519
   3   1.0000     -11.213830      -305.1438
   4   1.0000     -11.212185      -305.0991
   5   1.0000     -11.212126      -305.0975
   6   1.0000     -11.211571      -305.0824
   7   1.0000     -11.210391      -305.0503
   8   1.0000      -1.149548       -31.2808
   9   1.0000      -1.060595       -28.8603
  10   1.0000      -0.990094       -26.9418
  11   1.0000      -0.934105       -25.4183
  12   1.0000      -0.900013       -24.4906
  13   1.0000      -0.782140       -21.2831
  14   1.0000      -0.771132       -20.9836
  15   1.0000      -0.725151       -19.7324
  16   1.0000      -0.673985       -18.3401
  17   1.0000      -0.640402       -17.4262
  18   1.0000      -0.607009       -16.5175
  19   1.0000      -0.584350       -15.9010
  20   1.0000      -0.570638       -15.5278
  21   1.0000      -0.529419       -14.4062
  22   1.0000      -0.512128       -13.9357
  23   1.0000      -0.488951       -13.3050
  24   1.0000      -0.476874       -12.9764
  25   1.0000      -0.466495       -12.6940
  26   1.0000      -0.463203       -12.6044
  27   1.0000      -0.444799       -12.1036
  28   1.0000      -0.441655       -12.0180
  29   1.0000      -0.433940       -11.8081
  30   1.0000      -0.316585        -8.6147
  31   0.0000       0.029857         0.8125
  32   0.0000       0.035200         0.9578
  33   0.0000       0.035681         0.9709
  34   0.0000       0.036049         0.9809
  35   0.0000       0.049424         1.3449

                 SPIN DOWN ORBITALS
  NO   OCC          E(Eh)            E(eV)
   0   1.0000     -11.217362      -305.2399
   1   1.0000     -11.217278      -305.2377
   2   1.0000     -11.214607      -305.1650
   3   1.0000     -11.211961      -305.0930
   4   1.0000     -11.211798      -305.0885
   5   1.0000     -11.210429      -305.0513
   6   1.0000     -11.209452      -305.0247
   7   1.0000     -11.192630      -304.5670
   8   1.0000      -1.140088       -31.0234
   9   1.0000      -1.050101       -28.5747
  10   1.0000      -0.975771       -26.5521
  11   1.0000      -0.933504       -25.4019
  12   1.0000      -0.877216       -23.8703
  13   1.0000      -0.778342       -21.1798
  14   1.0000      -0.754337       -20.5266
  15   1.0000      -0.710552       -19.3351
  16   1.0000      -0.668067       -18.1790
  17   1.0000      -0.633434       -17.2366
  18   1.0000      -0.599215       -16.3055
  19   1.0000      -0.579218       -15.7613
  20   1.0000      -0.562888       -15.3169
  21   1.0000      -0.520724       -14.1696
  22   1.0000      -0.494234       -13.4488
  23   1.0000      -0.482798       -13.1376
  24   1.0000      -0.471037       -12.8176
  25   1.0000      -0.462597       -12.5879
  26   1.0000      -0.460048       -12.5186
  27   1.0000      -0.440192       -11.9782
  28   1.0000      -0.438671       -11.9368
  29   1.0000      -0.432796       -11.7770
  30   0.0000       0.029898         0.8136
  31   0.0000       0.035353         0.9620
  32   0.0000       0.035737         0.9724
  33   0.0000       0.036068         0.9815
  34   0.0000       0.049456         1.3458

MULLIKEN ATOMIC CHARGES AND SPIN POPULATIONS
--------------------------------------------
   0 C :    0.225100   -0.274464
   1 C :   -1.084297    1.348689
   2 C :   -0.407265   -0.237683
   3 C :   -0.493924    0.026909
   4 H :    0.297654    0.033300
   5 H :    0.219386    0.069344
   6 C :   -0.099598    0.033923
   7 H :    0.171067   -0.003906
   8 H :    0.336734   -0.000612
   9 C :   -0.577804    0.003831
  10 H :    0.363387   -0.116505
  11 C :   -0.499115    0.072214
  12 C :   -0.667164   -0.005889
  13 H :    0.366857   -0.006270
  14 H :    0.173453   -0.002111
  15 H :    0.080084   -0.001952
  16 H :    0.372303    0.001202
  17 H :    0.156609   -0.000795
  18 H :    0.320389    0.000761
  19 H :    0.367380   -0.003530
  20 H :    0.378763    0.063544
Sum of atomic charges         :   -0.0000000

LOEWDIN ATOMIC CHARGES AND SPIN POPULATIONS
-------------------------------------------
   0 C :   -0.015978    0.106243
   1 C :    0.331090    0.543707
   2 C :    0.271686    0.117055
   3 C :    0.304919    0.007982
   4 H :   -0.151973    0.012979
   5 H :   -0.146046    0.029742
   6 C :    0.029528    0.004355
   7 H :   -0.148589    0.001111
   8 H :   -0.135081    0.000441
   9 C :    0.330181    0.000521
  10 H :   -0.177651    0.111607
  11 C :    0.307524    0.030086
  12 C :    0.303872    0.005036
  13 H :   -0.137194    0.002344
  14 H :   -0.138879    0.007240
  15 H :   -0.142711    0.000621
  16 H :   -0.142317    0.001034
  17 H :   -0.152050    0.000037
  18 H :   -0.143429   -0.000089
  19 H :   -0.121564    0.000181
  20 H :   -0.125340    0.017767

  Mayer bond orders larger than 0.100000
B(  0-C ,  1-C ) :   0.6692 B(  0-C ,  6-C ) :   1.0027 B(  0-C , 11-C ) :   0.8200
B(  0-C , 20-H ) :   0.8460 B(  1-C ,  2-C ) :   0.6839 B(  1-C ,  3-C ) :   0.1019
B(  1-C , 10-H ) :   0.8680 B(  1-C , 20-H ) :  -0.1248 B(  2-C ,  3-C ) :   1.0088
B(  2-C ,  4-H ) :   0.9384 B(  2-C ,  5-H ) :   0.9811 B(  3-C ,  6-C ) :   0.8827
B(  3-C ,  7-H ) :   1.0487 B(  3-C ,  8-H ) :   0.9021 B(  6-C ,  9-C ) :   0.9386
B(  6-C , 19-H ) :   0.7671 B(  9-C , 12-C ) :   0.9431 B(  9-C , 17-H ) :   1.0876
B(  9-C , 18-H ) :   0.9039 B( 11-C , 12-C ) :   0.9999 B( 11-C , 13-H ) :   0.8541
B( 11-C , 14-H ) :   1.0511 B( 12-C , 15-H ) :   1.1452 B( 12-C , 16-H ) :   0.8489

MP2 TOTAL ENERGY:     -311.929079859 Eh
FINAL SINGLE POINT ENERGY      -311.929079859265

DIPOLE MOMENT
-------------
                                X             Y             Z
Electronic contribution:     -1.12011       1.05801       0.83871
Nuclear contribution   :      1.14167      -1.09749      -0.78580
                        -----------------------------------------
Total Dipole Moment    :      0.02156      -0.03948       0.05291
                        -----------------------------------------
Magnitude (a.u.)       :      0.06945
Magnitude (Debye)      :      0.17652

Rotational constants in cm-1:     0.128223     0.062616     0.048080
Rotational constants in MHz :  3844.034065  1877.177986  1441.393464

                             ****ORCA TERMINATED NORMALLY****
TOTAL RUN TIME: 0 days 0 hours 7 minutes 36 seconds 388 msec
