                         Program Version 4.2.1 -  RELEASE  -
|  1> %pal
|  2>  nprocs 32
|  3> end
|  4> !RI-MP2 aug-cc-pVTZ aug-cc-pVTZ/C TightSCF
|  5> %maxcore 4500
|  6> *xyzfile 0 1  02_39P.xyz
|  7>
|  8>
|  9>                          ****END OF INPUT****

CARTESIAN COORDINATES (ANGSTROEM)
---------------------------------
  C     -5.159048   -0.866899    1.045864
  C     -4.006184   -1.437200    1.561183
  C     -2.761811   -1.113110    1.040439
  C     -2.652125   -0.198739   -0.017097
  C     -3.827033    0.378567   -0.527510
  C     -5.060078    0.042775   -0.000542
  H     -6.128266   -1.126054    1.454781
  H     -4.069391   -2.145775    2.378502
  H     -1.871853   -1.570417    1.440285
  H     -3.760620    1.093079   -1.334289
  H     -5.953629    0.497596   -0.410907
  C     -1.364930    0.182333   -0.574749
  C     -1.135736    1.202542   -1.595512
  O     -1.894813    1.936558   -2.155165
  O      0.201872    1.165924   -1.942207
  N     -0.196679   -0.434522   -0.368247
  N      0.030041   -1.496037    0.320762
  C      0.887042    0.444754   -0.953132
  C      2.021605   -0.364463   -1.476213
  C      1.378039    1.414746    0.124037
  C      1.860006    2.652332   -0.289936
  C      1.400760    1.084389    1.473547
  C      2.366205    3.548748    0.639698
  H      1.819149    2.918899   -1.338020
  C      1.899872    1.987522    2.400484
  H      1.011519    0.131278    1.808467
  C      2.388980    3.218693    1.987090
  H      2.735306    4.511689    0.308505
  H      1.899399    1.728248    3.452227
  H      2.778613    3.921387    2.713455
  C      2.191491   -1.588658   -1.010695
  C      3.404366   -2.477013   -1.070642
  C      1.223237   -2.223528   -0.062808
  C      3.348078   -3.274036    0.267045
  H      4.315082   -1.885885   -1.169919
  C      2.156975   -2.692926    1.056447
  H      0.845960   -3.136425   -0.553244
  H      3.180736   -4.333713    0.066678
  H      4.280887   -3.198720    0.824904
  H      1.686535   -3.416823    1.721625
  H      2.467351   -1.831790    1.653179
  H      3.360284   -3.149048   -1.930932
  H      2.754655    0.161548   -2.075921

 Total Charge           Charge          ....    0
 Multiplicity           Mult            ....    1
 Number of Electrons    NEL             ....  174
 Basis Dimension        Dim             .... 1564

ORBITAL ENERGIES
----------------

  NO   OCC          E(Eh)            E(eV)
   0   2.0000     -20.615817      -560.9849
   1   2.0000     -20.544869      -559.0543
   2   2.0000     -15.732096      -428.0921
   3   2.0000     -15.588217      -424.1769
   4   2.0000     -11.389295      -309.9185
   5   2.0000     -11.379739      -309.6584
   6   2.0000     -11.288474      -307.1750
   7   2.0000     -11.277298      -306.8709
   8   2.0000     -11.260969      -306.4266
   9   2.0000     -11.260343      -306.4095
  10   2.0000     -11.250914      -306.1529
  11   2.0000     -11.248500      -306.0872
  12   2.0000     -11.246474      -306.0321
  13   2.0000     -11.246096      -306.0218
  14   2.0000     -11.246007      -306.0194
  15   2.0000     -11.245263      -305.9992
  16   2.0000     -11.244645      -305.9823
  17   2.0000     -11.243798      -305.9593
  18   2.0000     -11.240406      -305.8670
  19   2.0000     -11.237625      -305.7913
  20   2.0000     -11.230501      -305.5975
  21   2.0000     -11.227545      -305.5170
  22   2.0000     -11.226905      -305.4996
  23   2.0000     -11.226286      -305.4828
  24   2.0000     -11.225615      -305.4645
  25   2.0000      -1.494914       -40.6787
  26   2.0000      -1.407764       -38.3072
  27   2.0000      -1.374500       -37.4020
  28   2.0000      -1.191873       -32.4325
  29   2.0000      -1.175751       -31.9938
  30   2.0000      -1.154987       -31.4288
  31   2.0000      -1.127768       -30.6881
  32   2.0000      -1.099848       -29.9284
  33   2.0000      -1.038639       -28.2628
  34   2.0000      -1.032075       -28.0842
  35   2.0000      -1.029258       -28.0075
  36   2.0000      -1.011993       -27.5377
  37   2.0000      -0.986695       -26.8493
  38   2.0000      -0.975312       -26.5396
  39   2.0000      -0.898266       -24.4430
  40   2.0000      -0.876602       -23.8536
  41   2.0000      -0.861858       -23.4524
  42   2.0000      -0.839625       -22.8474
  43   2.0000      -0.833876       -22.6909
  44   2.0000      -0.818717       -22.2784
  45   2.0000      -0.803905       -21.8754
  46   2.0000      -0.794679       -21.6243
  47   2.0000      -0.750152       -20.4127
  48   2.0000      -0.738307       -20.0904
  49   2.0000      -0.720551       -19.6072
  50   2.0000      -0.703009       -19.1298
  51   2.0000      -0.686592       -18.6831
  52   2.0000      -0.675213       -18.3735
  53   2.0000      -0.663445       -18.0533
  54   2.0000      -0.653690       -17.7878
  55   2.0000      -0.649780       -17.6814
  56   2.0000      -0.640057       -17.4168
  57   2.0000      -0.630967       -17.1695
  58   2.0000      -0.625339       -17.0163
  59   2.0000      -0.615971       -16.7614
  60   2.0000      -0.604959       -16.4618
  61   2.0000      -0.600208       -16.3325
  62   2.0000      -0.597604       -16.2616
  63   2.0000      -0.587373       -15.9832
  64   2.0000      -0.580773       -15.8036
  65   2.0000      -0.575391       -15.6572
  66   2.0000      -0.569333       -15.4924
  67   2.0000      -0.558865       -15.2075
  68   2.0000      -0.537193       -14.6178
  69   2.0000      -0.522263       -14.2115
  70   2.0000      -0.519829       -14.1453
  71   2.0000      -0.511514       -13.9190
  72   2.0000      -0.506750       -13.7894
  73   2.0000      -0.504809       -13.7365
  74   2.0000      -0.498055       -13.5528
  75   2.0000      -0.495034       -13.4706
  76   2.0000      -0.490301       -13.3418
  77   2.0000      -0.484506       -13.1841
  78   2.0000      -0.467240       -12.7142
  79   2.0000      -0.448636       -12.2080
  80   2.0000      -0.419981       -11.4283
  81   2.0000      -0.383867       -10.4456
  82   2.0000      -0.370573       -10.0838
  83   2.0000      -0.350107        -9.5269
  84   2.0000      -0.343432        -9.3453
  85   2.0000      -0.332203        -9.0397
  86   2.0000      -0.274375        -7.4661
  87   0.0000       0.019951         0.5429
  88   0.0000       0.025956         0.7063
  89   0.0000       0.027174         0.7395
  90   0.0000       0.031593         0.8597
  91   0.0000       0.035952         0.9783

MULLIKEN ATOMIC CHARGES
-----------------------
   0 C :   -0.129844
   1 C :   -1.242902
   2 C :   -0.725118
   3 C :    2.769185
   4 C :   -1.055686
   5 C :   -0.874262
   6 H :    0.419118
   7 H :    0.556176
   8 H :   -0.056962
   9 H :   -0.178895
  10 H :    0.522842
  11 C :   -0.073897
  12 C :    1.006545
  13 O :   -1.184676
  14 O :   -1.009104
  15 N :    1.016791
  16 N :   -1.457348
  17 C :    2.052462
  18 C :   -1.350128
  19 C :    1.769001
  20 C :   -1.119292
  21 C :   -0.465798
  22 C :   -0.807995
  23 H :   -0.001708
  24 C :   -1.195205
  25 H :    0.161270
  26 C :   -0.148415
  27 H :    0.558927
  28 H :    0.420868
  29 H :    0.533569
  30 C :    0.701322
  31 C :   -0.853211
  32 C :    0.733206
  33 C :   -0.504806
  34 H :    0.157754
  35 C :   -0.861436
  36 H :    0.417142
  37 H :    0.177811
  38 H :    0.330025
  39 H :    0.285575
  40 H :    0.303302
  41 H :    0.301318
  42 H :    0.102480
Sum of atomic charges:    0.0000000

LOEWDIN ATOMIC CHARGES
----------------------
   0 C :    0.195339
   1 C :    0.202085
   2 C :    0.224743
   3 C :   -0.086957
   4 C :    0.221630
   5 C :    0.204551
   6 H :   -0.182645
   7 H :   -0.183378
   8 H :   -0.257991
   9 H :   -0.244596
  10 H :   -0.181468
  11 C :   -0.140771
  12 C :   -0.764695
  13 O :    0.483415
  14 O :    0.624693
  15 N :    0.090168
  16 N :    0.409512
  17 C :   -0.619762
  18 C :    0.302487
  19 C :   -0.088852
  20 C :    0.225138
  21 C :    0.227008
  22 C :    0.212942
  23 H :   -0.175653
  24 C :    0.216934
  25 H :   -0.211195
  26 C :    0.204361
  27 H :   -0.177987
  28 H :   -0.177384
  29 H :   -0.179862
  30 C :   -0.063994
  31 C :    0.337315
  32 C :   -0.179242
  33 C :    0.333814
  34 H :   -0.142692
  35 C :    0.321348
  36 H :   -0.122709
  37 H :   -0.146373
  38 H :   -0.144228
  39 H :   -0.131393
  40 H :   -0.146718
  41 H :   -0.137757
  42 H :   -0.149185

  Mayer bond orders larger than 0.100000
B(  0-C ,  1-C ) :   1.0699 B(  0-C ,  2-C ) :  -0.2950 B(  0-C ,  4-C ) :  -0.3030
B(  0-C ,  5-C ) :   1.0104 B(  0-C ,  6-H ) :   0.8803 B(  0-C ,  8-H ) :  -0.1785
B(  0-C ,  9-H ) :  -0.1733 B(  0-C , 11-C ) :   0.2710 B(  1-C ,  2-C ) :   1.0130
B(  1-C ,  5-C ) :   0.4602 B(  1-C ,  6-H ) :  -0.2115 B(  1-C ,  7-H ) :   0.4045
B(  1-C , 11-C ) :   0.2111 B(  1-C , 15-N ) :  -0.1103 B(  2-C ,  4-C ) :  -1.1834
B(  2-C ,  5-C ) :   0.1228 B(  2-C ,  8-H ) :   2.1589 B(  2-C ,  9-H ) :   0.2538
B(  2-C , 11-C ) :   0.5327 B(  2-C , 16-N ) :  -0.2323 B(  3-C ,  4-C ) :  -0.2598
B(  3-C ,  5-C ) :  -0.1766 B(  3-C ,  6-H ) :   0.1257 B(  3-C ,  8-H ) :  -0.2187
B(  3-C ,  9-H ) :  -0.3369 B(  3-C , 11-C ) :  -0.5783 B(  3-C , 17-C ) :   0.1513
B(  4-C ,  5-C ) :   1.1827 B(  4-C ,  6-H ) :   0.3188 B(  4-C ,  8-H ) :   0.2089
B(  4-C ,  9-H ) :   2.3961 B(  4-C , 10-H ) :  -0.2242 B(  4-C , 11-C ) :   0.8578
B(  4-C , 12-C ) :   0.1075 B(  5-C ,  6-H ) :  -0.2160 B(  5-C , 10-H ) :   0.6174
B(  5-C , 15-N ) :   0.1115 B(  6-H ,  8-H ) :   0.1160 B(  6-H , 11-C ) :  -0.4234
B(  6-H , 15-N ) :   0.1407 B(  7-H ,  9-H ) :  -0.1765 B(  7-H , 11-C ) :   0.5007
B(  7-H , 15-N ) :  -0.1223 B(  8-H ,  9-H ) :   0.5912 B(  8-H , 10-H ) :  -0.1404
B(  8-H , 11-C ) :  -0.7187 B(  9-H , 11-C ) :  -0.6875 B(  9-H , 15-N ) :  -0.2492
B( 10-H , 11-C ) :   0.2287 B( 11-C , 12-C ) :   1.1554 B( 11-C , 15-N ) :   0.9014
B( 11-C , 16-N ) :   0.1399 B( 11-C , 18-C ) :  -0.1408 B( 11-C , 19-C ) :  -0.2200
B( 11-C , 20-C ) :   0.1206 B( 11-C , 21-C ) :   0.2258 B( 12-C , 13-O ) :   0.6424
B( 12-C , 14-O ) :   1.0728 B( 12-C , 15-N ) :  -0.2383 B( 12-C , 17-C ) :   0.2287
B( 12-C , 21-C ) :  -0.1180 B( 13-O , 14-O ) :  -0.2556 B( 13-O , 15-N ) :  -0.1127
B( 13-O , 17-C ) :   0.4190 B( 14-O , 17-C ) :  -0.9014 B( 14-O , 18-C ) :   0.2750
B( 14-O , 19-C ) :   0.2952 B( 14-O , 20-C ) :   0.2014 B( 15-N , 16-N ) :  -0.2999
B( 15-N , 17-C ) :   0.7607 B( 15-N , 21-C ) :  -0.1506 B( 15-N , 30-C ) :  -0.2260
B( 15-N , 32-C ) :   0.1387 B( 16-N , 19-C ) :   0.1338 B( 16-N , 21-C ) :  -0.1012
B( 16-N , 30-C ) :   0.2822 B( 16-N , 32-C ) :   0.8365 B( 16-N , 35-C ) :   0.1362
B( 17-C , 18-C ) :   0.4004 B( 17-C , 19-C ) :   0.3531 B( 17-C , 20-C ) :  -0.4926
B( 17-C , 23-H ) :  -0.5299 B( 17-C , 25-H ) :  -0.2385 B( 17-C , 26-C ) :   0.1903
B( 17-C , 27-H ) :   0.1048 B( 17-C , 30-C ) :  -0.3353 B( 17-C , 32-C ) :  -0.1757
B( 18-C , 20-C ) :   0.1925 B( 18-C , 23-H ) :   0.1188 B( 18-C , 30-C ) :   1.2566
B( 18-C , 31-C ) :  -0.1484 B( 18-C , 40-H ) :  -0.1238 B( 18-C , 42-H ) :   1.4451
B( 19-C , 21-C ) :   0.3714 B( 19-C , 23-H ) :  -0.3580 B( 19-C , 24-C ) :  -0.1179
B( 19-C , 30-C ) :   0.1505 B( 19-C , 32-C ) :   0.2451 B( 20-C , 21-C ) :  -0.6861
B( 20-C , 22-C ) :   1.4939 B( 20-C , 23-H ) :   1.8907 B( 20-C , 24-C ) :   0.1365
B( 20-C , 29-H ) :   0.1181 B( 20-C , 30-C ) :  -0.1063 B( 21-C , 23-H ) :   0.2375
B( 21-C , 24-C ) :   1.2036 B( 21-C , 25-H ) :   1.5355 B( 21-C , 26-C ) :  -0.1407
B( 21-C , 30-C ) :   0.1559 B( 22-C , 23-H ) :  -0.1104 B( 22-C , 24-C ) :   0.2440
B( 22-C , 26-C ) :   1.1582 B( 22-C , 27-H ) :   0.6307 B( 22-C , 29-H ) :  -0.2048
B( 23-H , 24-C ) :  -0.1278 B( 23-H , 25-H ) :   0.2126 B( 24-C , 26-C ) :   1.1417
B( 24-C , 28-H ) :   0.8223 B( 24-C , 29-H ) :  -0.2045 B( 25-H , 26-C ) :  -0.1100
B( 26-C , 29-H ) :   0.6897 B( 30-C , 31-C ) :   0.4773 B( 30-C , 32-C ) :   1.0264
B( 30-C , 35-C ) :   0.2010 B( 30-C , 36-H ) :  -0.1611 B( 30-C , 41-H ) :  -0.1178
B( 30-C , 42-H ) :  -0.1622 B( 31-C , 33-C ) :   1.0678 B( 31-C , 34-H ) :   1.1255
B( 31-C , 35-C ) :   0.2031 B( 31-C , 41-H ) :   0.9969 B( 32-C , 35-C ) :   0.5653
B( 32-C , 36-H ) :   0.8787 B( 33-C , 35-C ) :   1.0616 B( 33-C , 37-H ) :   1.0453
B( 33-C , 38-H ) :   0.8989 B( 35-C , 39-H ) :   0.9286 B( 35-C , 40-H ) :   0.9631

MP2 TOTAL ENERGY:    -1068.896689715 Eh
FINAL SINGLE POINT ENERGY     -1068.896689714737

DIPOLE MOMENT
-------------
                                X             Y             Z
Electronic contribution:     -9.39485       9.68699      -7.92070
Nuclear contribution   :     11.20058     -10.67567       8.84698
                        -----------------------------------------
Total Dipole Moment    :      1.80573      -0.98867       0.92628
                        -----------------------------------------
Magnitude (a.u.)       :      2.25746
Magnitude (Debye)      :      5.73802

Rotational constants in cm-1:     0.010227     0.006204     0.005039
Rotational constants in MHz :   306.596751   186.004999   151.072639

                             ****ORCA TERMINATED NORMALLY****
TOTAL RUN TIME: 0 days 1 hours 34 minutes 12 seconds 917 msec
