                         Program Version 4.2.1 -  RELEASE  -
|  1> %pal
|  2>  nprocs 32
|  3> end
|  4> !RI-MP2 aug-cc-pVTZ aug-cc-pVTZ/C TightSCF
|  5> %maxcore 4500
|  6> *xyzfile 0 2  03_6R2.xyz
|  7>
|  8>
|  9>                          ****END OF INPUT****

CARTESIAN COORDINATES (ANGSTROEM)
---------------------------------
  C     -0.009278    0.027567   -0.227698
  C      1.221978   -0.769494    0.033070
  C     -1.359003   -0.536358    0.025966
  O      0.052491    1.372689    0.058964
  H      1.127506   -1.773936   -0.381751
  H      1.420487   -0.871963    1.112632
  H      2.106283   -0.307894   -0.418496
  H     -1.448472   -1.535882   -0.402134
  H     -2.130280    0.100700   -0.410591
  H     -1.568901   -0.613393    1.104607
  H      0.951273    1.690564   -0.064007

 Total Charge           Charge          ....    0
 Multiplicity           Mult            ....    2
 Number of Electrons    NEL             ....   33
 Basis Dimension        Dim             ....  345

ORBITAL ENERGIES
----------------
                 SPIN UP ORBITALS
  NO   OCC          E(Eh)            E(eV)
   0   1.0000     -20.573397      -559.8306
   1   1.0000     -11.275733      -306.8283
   2   1.0000     -11.224605      -305.4370
   3   1.0000     -11.213334      -305.1303
   4   1.0000      -1.389539       -37.8113
   5   1.0000      -1.049941       -28.5703
   6   1.0000      -0.951021       -25.8786
   7   1.0000      -0.797856       -21.7108
   8   1.0000      -0.682798       -18.5799
   9   1.0000      -0.640504       -17.4290
  10   1.0000      -0.623102       -16.9555
  11   1.0000      -0.551592       -15.0096
  12   1.0000      -0.541854       -14.7446
  13   1.0000      -0.538329       -14.6487
  14   1.0000      -0.523102       -14.2343
  15   1.0000      -0.491985       -13.3876
  16   1.0000      -0.308279        -8.3887
  17   0.0000       0.028345         0.7713
  18   0.0000       0.038546         1.0489
  19   0.0000       0.042388         1.1534
  20   0.0000       0.045651         1.2422
  21   0.0000       0.060427         1.6443

                 SPIN DOWN ORBITALS
  NO   OCC          E(Eh)            E(eV)
   0   1.0000     -20.568724      -559.7034
   1   1.0000     -11.250806      -306.1500
   2   1.0000     -11.226783      -305.4963
   3   1.0000     -11.215771      -305.1966
   4   1.0000      -1.372674       -37.3524
   5   1.0000      -1.021752       -27.8033
   6   1.0000      -0.949658       -25.8415
   7   1.0000      -0.773773       -21.0554
   8   1.0000      -0.660732       -17.9794
   9   1.0000      -0.614233       -16.7141
  10   1.0000      -0.583714       -15.8837
  11   1.0000      -0.540251       -14.7010
  12   1.0000      -0.536052       -14.5867
  13   1.0000      -0.526031       -14.3140
  14   1.0000      -0.501222       -13.6389
  15   1.0000      -0.481254       -13.0956
  16   0.0000       0.027961         0.7609
  17   0.0000       0.038482         1.0472
  18   0.0000       0.042454         1.1552
  19   0.0000       0.045501         1.2381
  20   0.0000       0.060486         1.6459

MULLIKEN ATOMIC CHARGES AND SPIN POPULATIONS
--------------------------------------------
   0 C :    0.279596    1.108683
   1 C :   -0.815208   -0.155013
   2 C :   -0.809367   -0.171120
   3 O :   -0.563515    0.053298
   4 H :    0.313307    0.001452
   5 H :    0.266113    0.075724
   6 H :    0.271073    0.011770
   7 H :    0.308455    0.001059
   8 H :    0.297786    0.013542
   9 H :    0.267952    0.070282
  10 H :    0.183808   -0.009677
Sum of atomic charges         :    0.0000000

LOEWDIN ATOMIC CHARGES AND SPIN POPULATIONS
-------------------------------------------
   0 C :   -0.319185    0.555984
   1 C :    0.546602    0.108558
   2 C :    0.538061    0.103731
   3 O :    0.798986    0.146688
   4 H :   -0.183073    0.004080
   5 H :   -0.164217    0.029045
   6 H :   -0.183273    0.007679
   7 H :   -0.186263    0.004482
   8 H :   -0.183612    0.007331
   9 H :   -0.166946    0.027307
  10 H :   -0.497081    0.005116

  Mayer bond orders larger than 0.100000
B(  0-C ,  1-C ) :   0.8408 B(  0-C ,  2-C ) :   0.7458 B(  0-C ,  3-O ) :   0.7518
B(  1-C ,  4-H ) :   0.9281 B(  1-C ,  5-H ) :   0.8985 B(  1-C ,  6-H ) :   0.9828
B(  2-C ,  7-H ) :   0.9447 B(  2-C ,  8-H ) :   0.9719 B(  2-C ,  9-H ) :   0.8982
B(  3-O , 10-H ) :   0.9883

MP2 TOTAL ENERGY:     -193.329012902 Eh
FINAL SINGLE POINT ENERGY      -193.329012902282

DIPOLE MOMENT
-------------
                                X             Y             Z
Electronic contribution:      0.05004       3.12276      -0.59412
Nuclear contribution   :      0.48115      -3.45100       0.56764
                        -----------------------------------------
Total Dipole Moment    :      0.53119      -0.32824      -0.02648
                        -----------------------------------------
Magnitude (a.u.)       :      0.62498
Magnitude (Debye)      :      1.58858

Rotational constants in cm-1:     0.312174     0.272269     0.155718
Rotational constants in MHz :  9358.738631  8162.429007  4668.319090

                             ****ORCA TERMINATED NORMALLY****
TOTAL RUN TIME: 0 days 0 hours 0 minutes 49 seconds 484 msec
