                         Program Version 4.2.1 -  RELEASE  -
|  1> %pal
|  2>  nprocs 32
|  3> end
|  4> !RI-MP2 aug-cc-pVTZ aug-cc-pVTZ/C TightSCF
|  5> %maxcore 4500
|  6> *xyzfile 0 2  01_35R.xyz
|  7>
|  8>
|  9>                          ****END OF INPUT****

CARTESIAN COORDINATES (ANGSTROEM)
---------------------------------
  C      3.311503   -0.839728    0.716715
  C      3.763021    0.289278   -0.217667
  C      2.714045    1.395879   -0.281273
  C      1.358708    0.855171   -0.732215
  C      0.850846   -0.268690    0.186230
  C      1.921825   -1.284194    0.417917
  C     -0.434243   -0.922852   -0.328258
  C     -1.634885    0.013261   -0.453112
  C     -2.894585   -0.676232   -0.921462
  C     -3.966166   -0.289495   -0.242171
  C     -2.086231    0.648836    0.881118
  H     -1.389231    0.801201   -1.176859
  C     -3.623215    0.740045    0.803979
  H     -1.612670    1.611956    1.076682
  H     -1.807483   -0.022932    1.698669
  H     -3.955158    1.733729    0.480482
  H     -4.104113    0.549415    1.766531
  H     -0.226650   -1.379900   -1.302641
  H     -0.706306   -1.742601    0.346609
  H      4.005750   -1.682258    0.668695
  H      3.362062   -0.464881    1.754110
  H      3.917253   -0.117205   -1.222957
  H      4.724364    0.689633    0.115294
  H      0.628713    1.667543   -0.767887
  H      1.446589    0.461942   -1.752277
  H      2.609549    1.854254    0.709910
  H      3.042409    2.189531   -0.957870
  H      1.635767   -2.314293    0.602544
  H      0.622787    0.202409    1.159967
  H     -2.899051   -1.378008   -1.747846
  H     -4.978320   -0.627203   -0.429956

 Total Charge           Charge          ....    0
 Multiplicity           Mult            ....    2
 Number of Electrons    NEL             ....   91
 Basis Dimension        Dim             ....  989

ORBITAL ENERGIES
----------------
                 SPIN UP ORBITALS
  NO   OCC          E(Eh)            E(eV)
   0   1.0000     -11.221711      -305.3583
   1   1.0000     -11.219558      -305.2997
   2   1.0000     -11.219249      -305.2913
   3   1.0000     -11.218763      -305.2781
   4   1.0000     -11.217348      -305.2396
   5   1.0000     -11.215134      -305.1793
   6   1.0000     -11.215109      -305.1786
   7   1.0000     -11.214722      -305.1681
   8   1.0000     -11.214230      -305.1547
   9   1.0000     -11.213523      -305.1355
  10   1.0000     -11.212922      -305.1191
  11   1.0000     -11.212785      -305.1154
  12   1.0000      -1.141496       -31.0617
  13   1.0000      -1.121059       -30.5056
  14   1.0000      -1.042869       -28.3779
  15   1.0000      -1.005371       -27.3575
  16   1.0000      -0.973626       -26.4937
  17   1.0000      -0.961755       -26.1707
  18   1.0000      -0.884154       -24.0590
  19   1.0000      -0.830311       -22.5939
  20   1.0000      -0.809899       -22.0385
  21   1.0000      -0.765824       -20.8391
  22   1.0000      -0.737473       -20.0677
  23   1.0000      -0.719303       -19.5732
  24   1.0000      -0.668161       -18.1816
  25   1.0000      -0.648845       -17.6560
  26   1.0000      -0.636237       -17.3129
  27   1.0000      -0.606220       -16.4961
  28   1.0000      -0.594433       -16.1753
  29   1.0000      -0.586482       -15.9590
  30   1.0000      -0.556714       -15.1490
  31   1.0000      -0.549011       -14.9394
  32   1.0000      -0.537717       -14.6320
  33   1.0000      -0.528980       -14.3943
  34   1.0000      -0.514902       -14.0112
  35   1.0000      -0.495806       -13.4916
  36   1.0000      -0.489259       -13.3134
  37   1.0000      -0.478341       -13.0163
  38   1.0000      -0.474563       -12.9135
  39   1.0000      -0.470993       -12.8164
  40   1.0000      -0.464322       -12.6348
  41   1.0000      -0.447846       -12.1865
  42   1.0000      -0.432782       -11.7766
  43   1.0000      -0.427127       -11.6227
  44   1.0000      -0.339291        -9.2326
  45   1.0000      -0.321039        -8.7359
  46   0.0000       0.028688         0.7806
  47   0.0000       0.030425         0.8279
  48   0.0000       0.032565         0.8861
  49   0.0000       0.034125         0.9286
  50   0.0000       0.041624         1.1327

                 SPIN DOWN ORBITALS
  NO   OCC          E(Eh)            E(eV)
   0   1.0000     -11.222343      -305.3755
   1   1.0000     -11.221788      -305.3604
   2   1.0000     -11.219223      -305.2906
   3   1.0000     -11.218130      -305.2608
   4   1.0000     -11.217352      -305.2397
   5   1.0000     -11.215106      -305.1785
   6   1.0000     -11.214718      -305.1680
   7   1.0000     -11.213817      -305.1435
   8   1.0000     -11.213037      -305.1222
   9   1.0000     -11.212367      -305.1040
  10   1.0000     -11.212085      -305.0963
  11   1.0000     -11.195343      -304.6408
  12   1.0000      -1.139324       -31.0026
  13   1.0000      -1.109664       -30.1955
  14   1.0000      -1.042071       -28.3562
  15   1.0000      -0.988021       -26.8854
  16   1.0000      -0.964686       -26.2504
  17   1.0000      -0.961677       -26.1686
  18   1.0000      -0.879482       -23.9319
  19   1.0000      -0.817776       -22.2528
  20   1.0000      -0.800352       -21.7787
  21   1.0000      -0.762739       -20.7552
  22   1.0000      -0.724081       -19.7033
  23   1.0000      -0.710809       -19.3421
  24   1.0000      -0.667519       -18.1641
  25   1.0000      -0.644139       -17.5279
  26   1.0000      -0.632604       -17.2140
  27   1.0000      -0.602232       -16.3876
  28   1.0000      -0.592266       -16.1164
  29   1.0000      -0.575355       -15.6562
  30   1.0000      -0.551877       -15.0173
  31   1.0000      -0.541565       -14.7367
  32   1.0000      -0.535247       -14.5648
  33   1.0000      -0.517784       -14.0896
  34   1.0000      -0.513719       -13.9790
  35   1.0000      -0.493540       -13.4299
  36   1.0000      -0.486892       -13.2490
  37   1.0000      -0.477441       -12.9918
  38   1.0000      -0.471884       -12.8406
  39   1.0000      -0.468859       -12.7583
  40   1.0000      -0.459258       -12.4971
  41   1.0000      -0.444376       -12.0921
  42   1.0000      -0.428619       -11.6633
  43   1.0000      -0.424252       -11.5445
  44   1.0000      -0.339053        -9.2261
  45   0.0000       0.028418         0.7733
  46   0.0000       0.030381         0.8267
  47   0.0000       0.032707         0.8900
  48   0.0000       0.034164         0.9296
  49   0.0000       0.041682         1.1342

MULLIKEN ATOMIC CHARGES AND SPIN POPULATIONS
--------------------------------------------
   0 C :   -0.239994   -0.232623
   1 C :   -0.559433    0.037967
   2 C :   -0.590446   -0.027785
   3 C :   -0.524088    0.052043
   4 C :    1.120343   -0.337078
   5 C :   -1.490083    1.390904
   6 C :   -0.625793    0.061674
   7 C :    0.858249   -0.010238
   8 C :   -1.476709    0.000359
   9 C :   -0.729162   -0.000368
  10 C :   -0.528873    0.001818
  11 H :    0.329554   -0.000620
  12 C :   -0.416450    0.002009
  13 H :    0.270353   -0.001558
  14 H :    0.176372   -0.000339
  15 H :    0.200104   -0.000034
  16 H :    0.268509   -0.000067
  17 H :    0.343558   -0.006881
  18 H :    0.321289    0.005742
  19 H :    0.338891    0.009280
  20 H :    0.191491    0.085606
  21 H :    0.163026   -0.006672
  22 H :    0.311923    0.001545
  23 H :    0.284108    0.002251
  24 H :    0.262939    0.003102
  25 H :    0.124600   -0.000225
  26 H :    0.320744    0.001382
  27 H :    0.124586   -0.161762
  28 H :    0.305013    0.130413
  29 H :    0.298550    0.000186
  30 H :    0.566830   -0.000031
Sum of atomic charges         :   -0.0000000

LOEWDIN ATOMIC CHARGES AND SPIN POPULATIONS
-------------------------------------------
   0 C :    0.264044    0.112591
   1 C :    0.283007    0.016417
   2 C :    0.291061    0.001439
   3 C :    0.296072    0.016224
   4 C :   -0.036187    0.109342
   5 C :    0.325452    0.543222
   6 C :    0.288981    0.008637
   7 C :   -0.026923    0.000612
   8 C :    0.248522   -0.000035
   9 C :    0.242630   -0.000066
  10 C :    0.304498    0.001613
  11 H :   -0.137913    0.000126
  12 C :    0.280784    0.000356
  13 H :   -0.135778    0.000782
  14 H :   -0.143584    0.000773
  15 H :   -0.149226    0.000034
  16 H :   -0.152538    0.000034
  17 H :   -0.130124    0.003426
  18 H :   -0.137907   -0.000232
  19 H :   -0.154404    0.004054
  20 H :   -0.141043    0.029354
  21 H :   -0.141468    0.003619
  22 H :   -0.142138    0.001981
  23 H :   -0.147619    0.001841
  24 H :   -0.128330    0.003662
  25 H :   -0.136328    0.000881
  26 H :   -0.139684    0.000606
  27 H :   -0.171929    0.112328
  28 H :   -0.128802    0.026372
  29 H :   -0.165724    0.000037
  30 H :   -0.177402   -0.000030

  Mayer bond orders larger than 0.100000
B(  0-C ,  1-C ) :   0.9289 B(  0-C ,  5-C ) :   0.7529 B(  0-C , 19-H ) :   0.8880
B(  0-C , 20-H ) :   1.0092 B(  1-C ,  2-C ) :   0.9061 B(  1-C ,  5-C ) :   0.1530
B(  1-C , 21-H ) :   1.0426 B(  1-C , 22-H ) :   0.9216 B(  2-C ,  3-C ) :   0.9445
B(  2-C , 25-H ) :   1.1051 B(  2-C , 26-H ) :   0.8901 B(  3-C ,  4-C ) :   0.7433
B(  3-C ,  5-C ) :   0.1548 B(  3-C , 23-H ) :   0.9438 B(  3-C , 24-H ) :   0.9796
B(  4-C ,  5-C ) :   0.3074 B(  4-C ,  6-C ) :   0.7325 B(  4-C ,  7-C ) :   0.1082
B(  4-C , 28-H ) :   0.9622 B(  5-C , 27-H ) :   1.1867 B(  5-C , 28-H ) :  -0.3131
B(  6-C ,  7-C ) :   0.8436 B(  6-C , 10-C ) :   0.1337 B(  6-C , 17-H ) :   0.9455
B(  6-C , 18-H ) :   1.0113 B(  7-C ,  8-C ) :   0.2154 B(  7-C ,  9-C ) :  -0.1997
B(  7-C , 10-C ) :   0.7214 B(  7-C , 11-H ) :   1.1100 B(  8-C ,  9-C ) :   1.8656
B(  8-C , 10-C ) :   0.2640 B(  8-C , 11-H ) :  -0.4218 B(  8-C , 18-H ) :  -0.1326
B(  8-C , 29-H ) :   1.1552 B(  9-C , 10-C ) :   0.1196 B(  9-C , 12-C ) :   0.7192
B(  9-C , 30-H ) :   0.5926 B( 10-C , 12-C ) :   0.9756 B( 10-C , 13-H ) :   0.9700
B( 10-C , 14-H ) :   1.0616 B( 12-C , 15-H ) :   1.0050 B( 12-C , 16-H ) :   0.9810

MP2 TOTAL ENERGY:     -467.615316462 Eh
FINAL SINGLE POINT ENERGY      -467.615316462273

DIPOLE MOMENT
-------------
                                X             Y             Z
Electronic contribution:     -4.44366      -1.98234      -1.00089
Nuclear contribution   :      4.51771       2.12718       1.06886
                        -----------------------------------------
Total Dipole Moment    :      0.07405       0.14485       0.06797
                        -----------------------------------------
Magnitude (a.u.)       :      0.17630
Magnitude (Debye)      :      0.44813

Rotational constants in cm-1:     0.084654     0.013645     0.013107
Rotational constants in MHz :  2537.874621   409.060160   392.947120

                             ****ORCA TERMINATED NORMALLY****
TOTAL RUN TIME: 0 days 0 hours 25 minutes 40 seconds 771 msec
