                         Program Version 4.2.1 -  RELEASE  -
|  1> %pal
|  2>  nprocs 32
|  3> end
|  4> !RI-MP2 aug-cc-pVTZ aug-cc-pVTZ/C TightSCF
|  5> %maxcore 4500
|  6> *xyzfile 0 1  04_82P2.xyz
|  7>
|  8>
|  9>                          ****END OF INPUT****

CARTESIAN COORDINATES (ANGSTROEM)
---------------------------------
  O      2.030534   -1.248345   -0.277783
  C      3.127511   -0.824056    0.570058
  C      3.055743    0.697802    0.579816
  C      1.554947    0.936393    0.474728
  C      1.142514   -0.190432   -0.488051
  C      4.412122   -1.419842    0.052382
  H      2.920260   -1.186716    1.583700
  O      3.709730    1.231358   -0.548127
  O      1.295093    2.225232    0.000550
  N     -0.219942   -0.658642   -0.243840
  H      1.205591    0.161516   -1.522319
  C     -1.330316    0.136659   -0.147929
  C     -0.674784   -1.957443   -0.189070
  H      1.084363    0.760642    1.449796
  H      3.473147    1.110802    1.504302
  H      3.267212    2.063373   -0.760456
  H      0.325553    2.295480   -0.119444
  N     -1.968443   -2.045507   -0.050452
  C     -2.399524   -0.736785   -0.024870
  C     -3.667911   -0.149617    0.099945
  N     -3.762711    1.185557    0.089508
  C     -2.652370    1.909625   -0.034689
  N     -1.402429    1.474969   -0.156706
  N     -4.787052   -0.882699    0.229618
  H     -4.735483   -1.887027    0.230752
  H     -5.673517   -0.414072    0.306090
  H     -2.787722    2.985808   -0.034575
  H      0.016557   -2.782062   -0.250328
  H      4.329053   -2.506594    0.013438
  H      5.240308   -1.159041    0.714842
  H      4.628265   -1.037630   -0.943726

 Total Charge           Charge          ....    0
 Multiplicity           Mult            ....    1
 Number of Electrons    NEL             ....  132
 Basis Dimension        Dim             .... 1127

ORBITAL ENERGIES
----------------

  NO   OCC          E(Eh)            E(eV)
   0   2.0000     -20.579303      -559.9913
   1   2.0000     -20.561681      -559.5118
   2   2.0000     -20.560916      -559.4910
   3   2.0000     -15.630795      -425.3356
   4   2.0000     -15.592414      -424.2912
   5   2.0000     -15.571766      -423.7293
   6   2.0000     -15.566237      -423.5788
   7   2.0000     -15.558415      -423.3660
   8   2.0000     -11.345968      -308.7395
   9   2.0000     -11.341619      -308.6211
  10   2.0000     -11.322407      -308.0984
  11   2.0000     -11.321025      -308.0608
  12   2.0000     -11.318531      -307.9929
  13   2.0000     -11.296618      -307.3966
  14   2.0000     -11.296569      -307.3953
  15   2.0000     -11.291078      -307.2459
  16   2.0000     -11.255571      -306.2796
  17   2.0000     -11.218766      -305.2781
  18   2.0000      -1.427526       -38.8450
  19   2.0000      -1.384814       -37.6827
  20   2.0000      -1.373409       -37.3724
  21   2.0000      -1.356850       -36.9218
  22   2.0000      -1.313382       -35.7389
  23   2.0000      -1.260387       -34.2969
  24   2.0000      -1.202129       -32.7116
  25   2.0000      -1.167054       -31.7571
  26   2.0000      -1.065488       -28.9934
  27   2.0000      -1.044509       -28.4225
  28   2.0000      -1.034949       -28.1624
  29   2.0000      -0.943890       -25.6845
  30   2.0000      -0.903632       -24.5891
  31   2.0000      -0.887957       -24.1625
  32   2.0000      -0.850320       -23.1384
  33   2.0000      -0.819818       -22.3084
  34   2.0000      -0.795689       -21.6518
  35   2.0000      -0.773856       -21.0577
  36   2.0000      -0.752509       -20.4768
  37   2.0000      -0.735280       -20.0080
  38   2.0000      -0.713410       -19.4129
  39   2.0000      -0.704643       -19.1743
  40   2.0000      -0.688212       -18.7272
  41   2.0000      -0.674914       -18.3653
  42   2.0000      -0.665545       -18.1104
  43   2.0000      -0.642655       -17.4875
  44   2.0000      -0.635951       -17.3051
  45   2.0000      -0.632868       -17.2212
  46   2.0000      -0.615320       -16.7437
  47   2.0000      -0.600741       -16.3470
  48   2.0000      -0.590134       -16.0584
  49   2.0000      -0.575528       -15.6609
  50   2.0000      -0.568900       -15.4805
  51   2.0000      -0.556008       -15.1297
  52   2.0000      -0.541836       -14.7441
  53   2.0000      -0.535509       -14.5720
  54   2.0000      -0.523525       -14.2458
  55   2.0000      -0.512241       -13.9388
  56   2.0000      -0.502116       -13.6633
  57   2.0000      -0.473449       -12.8832
  58   2.0000      -0.463731       -12.6188
  59   2.0000      -0.458019       -12.4633
  60   2.0000      -0.449630       -12.2351
  61   2.0000      -0.447695       -12.1824
  62   2.0000      -0.421695       -11.4749
  63   2.0000      -0.410956       -11.1827
  64   2.0000      -0.377697       -10.2777
  65   2.0000      -0.317159        -8.6303
  66   0.0000       0.025072         0.6822
  67   0.0000       0.028380         0.7723
  68   0.0000       0.032772         0.8918
  69   0.0000       0.035973         0.9789
  70   0.0000       0.040050         1.0898

MULLIKEN ATOMIC CHARGES
-----------------------
   0 O :   -0.865104
   1 C :    0.274316
   2 C :    0.162278
   3 C :    0.675342
   4 C :    0.487218
   5 C :   -1.045598
   6 H :    0.438311
   7 O :   -0.799497
   8 O :   -0.996677
   9 N :    0.305685
  10 H :    0.356453
  11 C :   -0.364554
  12 C :   -0.439175
  13 H :    0.329625
  14 H :    0.331175
  15 H :    0.146712
  16 H :    0.252550
  17 N :   -1.119127
  18 C :    1.999409
  19 C :   -0.168478
  20 N :   -0.394147
  21 C :   -0.710506
  22 N :   -0.744561
  23 N :   -0.519239
  24 H :    0.102590
  25 H :    0.072782
  26 H :    0.638899
  27 H :    0.763674
  28 H :    0.254393
  29 H :    0.270580
  30 H :    0.304672
Sum of atomic charges:    0.0000000

LOEWDIN ATOMIC CHARGES
----------------------
   0 O :    0.626619
   1 C :   -0.234483
   2 C :   -0.231126
   3 C :   -0.233170
   4 C :   -0.306401
   5 C :    0.598158
   6 H :   -0.127132
   7 O :    0.855725
   8 O :    0.874676
   9 N :    0.289857
  10 H :   -0.114373
  11 C :   -0.415423
  12 C :   -0.029588
  13 H :   -0.116575
  14 H :   -0.116881
  15 H :   -0.526797
  16 H :   -0.623145
  17 N :    0.400252
  18 C :   -0.303057
  19 C :   -0.408945
  20 N :    0.397726
  21 C :   -0.140425
  22 N :    0.433790
  23 N :    0.875954
  24 H :   -0.282405
  25 H :   -0.282898
  26 H :   -0.192058
  27 H :   -0.167201
  28 H :   -0.165792
  29 H :   -0.158540
  30 H :   -0.176340

  Mayer bond orders larger than 0.100000
B(  0-O ,  1-C ) :   0.6694 B(  0-O ,  3-C ) :   0.1174 B(  0-O ,  4-C ) :   0.7276
B(  0-O ,  9-N ) :  -0.1165 B(  1-C ,  2-C ) :   0.9412 B(  1-C ,  5-C ) :   0.7186
B(  1-C ,  6-H ) :   0.8374 B(  1-C ,  7-O ) :   0.1078 B(  2-C ,  3-C ) :   1.1368
B(  2-C ,  7-O ) :   0.3727 B(  2-C ,  8-O ) :   0.1088 B(  2-C , 13-H ) :  -0.1011
B(  2-C , 14-H ) :   0.9644 B(  3-C ,  4-C ) :   0.8044 B(  3-C , 13-H ) :   0.9280
B(  4-C ,  8-O ) :   0.1757 B(  4-C ,  9-N ) :   0.6179 B(  4-C , 10-H ) :   0.9766
B(  4-C , 11-C ) :  -0.2202 B(  4-C , 12-C ) :  -0.1339 B(  4-C , 22-N ) :   0.1010
B(  5-C , 28-H ) :   1.0193 B(  5-C , 29-H ) :   0.9965 B(  5-C , 30-H ) :   0.9522
B(  7-O , 15-H ) :   1.0331 B(  8-O , 16-H ) :   0.9007 B(  8-O , 22-N ) :  -0.1223
B(  9-N , 11-C ) :   0.9677 B(  9-N , 12-C ) :   1.1542 B(  9-N , 17-N ) :  -0.1466
B(  9-N , 18-C ) :  -0.1850 B(  9-N , 22-N ) :  -0.2702 B( 11-C , 12-C ) :  -0.5472
B( 11-C , 17-N ) :   0.5903 B( 11-C , 18-C ) :   0.9696 B( 11-C , 19-C ) :   1.4469
B( 11-C , 21-C ) :  -0.5991 B( 11-C , 22-N ) :   0.8449 B( 12-C , 17-N ) :   1.1709
B( 12-C , 27-H ) :   0.2422 B( 17-N , 27-H ) :  -0.1673 B( 18-C , 19-C ) :  -1.3267
B( 18-C , 22-N ) :  -0.5289 B( 18-C , 23-N ) :  -0.2863 B( 19-C , 20-N ) :   0.2724
B( 19-C , 21-C ) :  -0.3221 B( 19-C , 22-N ) :   0.3440 B( 19-C , 23-N ) :   1.1147
B( 20-N , 21-C ) :   1.1010 B( 20-N , 23-N ) :  -0.2288 B( 21-C , 22-N ) :   1.7391
B( 21-C , 26-H ) :   0.4278 B( 23-N , 24-H ) :   1.1119 B( 23-N , 25-H ) :   1.1618

MP2 TOTAL ENERGY:     -886.804018465 Eh
FINAL SINGLE POINT ENERGY      -886.804018464549

DIPOLE MOMENT
-------------
                                X             Y             Z
Electronic contribution:    -13.48807       1.14417      -1.57213
Nuclear contribution   :     13.15596      -1.54533       2.12959
                        -----------------------------------------
Total Dipole Moment    :     -0.33211      -0.40116       0.55746
                        -----------------------------------------
Magnitude (a.u.)       :      0.76288
Magnitude (Debye)      :      1.93908

Rotational constants in cm-1:     0.035396     0.008585     0.007107
Rotational constants in MHz :  1061.154121   257.380680   213.067097

                             ****ORCA TERMINATED NORMALLY****
TOTAL RUN TIME: 0 days 0 hours 26 minutes 19 seconds 974 msec
