                         Program Version 4.2.1 -  RELEASE  -
|  1> %pal
|  2>  nprocs 32
|  3> end
|  4> !RI-MP2 aug-cc-pVTZ aug-cc-pVTZ/C TightSCF
|  5> %maxcore 4500
|  6> *xyzfile 0 1  10_82TS.xyz
|  7>
|  8>
|  9>                          ****END OF INPUT****

CARTESIAN COORDINATES (ANGSTROEM)
---------------------------------
  C      0.050794    2.125408   -0.964355
  C     -0.308423    0.676883   -0.763438
  C     -1.584704    0.306169   -0.385083
  C     -2.523604    1.300975    0.248101
  C     -2.233110    2.742164   -0.162445
  C     -0.745004    3.056151   -0.057133
  H     -0.164648    2.368407   -2.012408
  H      1.125525    2.267548   -0.854021
  H     -3.556924    1.039251    0.013872
  H     -2.428557    1.202030    1.338185
  H     -2.560799    2.898064   -1.195463
  H     -2.819233    3.421721    0.459501
  H     -0.421628    2.929862    0.982308
  H     -0.551055    4.096700   -0.326070
  C     -1.907985   -1.069178   -0.305273
  H      0.283686   -0.038551   -1.321972
  C     -3.257174   -1.465341   -0.013873
  C     -0.985010   -1.696389    1.584744
  C     -1.170445   -1.994133   -1.121847
  N     -4.329225   -1.777119    0.255836
  N     -0.548504   -2.719354   -1.759094
  H     -1.789664   -1.482707    2.280915
  C      0.092900   -0.873681    1.552622
  H     -0.864312   -2.739905    1.316731
  C      0.773196    0.055907    1.100943
  C      1.998577    0.863279    1.155589
  H      1.786211    1.929705    1.179114
  H      2.562547    0.585127    2.045996
  O      2.804938    0.656936   -0.011271
  C      3.659831   -0.397077    0.026443
  C      4.321444   -0.593895   -1.301816
  O      3.826471   -1.066419    1.005706
  H      4.610749    0.362296   -1.736045
  H      5.185436   -1.242733   -1.183709
  H      3.607788   -1.069095   -1.978673

 Total Charge           Charge          ....    0
 Multiplicity           Mult            ....    1
 Number of Electrons    NEL             ....  136
 Basis Dimension        Dim             .... 1242

ORBITAL ENERGIES
----------------

  NO   OCC          E(Eh)            E(eV)
   0   2.0000     -20.621807      -561.1479
   1   2.0000     -20.557971      -559.4108
   2   2.0000     -15.581207      -423.9862
   3   2.0000     -15.579988      -423.9530
   4   2.0000     -11.393786      -310.0407
   5   2.0000     -11.331812      -308.3543
   6   2.0000     -11.329904      -308.3024
   7   2.0000     -11.300082      -307.4909
   8   2.0000     -11.289234      -307.1957
   9   2.0000     -11.288294      -307.1701
  10   2.0000     -11.279410      -306.9283
  11   2.0000     -11.279213      -306.9230
  12   2.0000     -11.273646      -306.7715
  13   2.0000     -11.257929      -306.3438
  14   2.0000     -11.250533      -306.1426
  15   2.0000     -11.250092      -306.1306
  16   2.0000     -11.248044      -306.0748
  17   2.0000     -11.242182      -305.9153
  18   2.0000     -11.241399      -305.8940
  19   2.0000      -1.480007       -40.2730
  20   2.0000      -1.379606       -37.5410
  21   2.0000      -1.248718       -33.9793
  22   2.0000      -1.231125       -33.5006
  23   2.0000      -1.177987       -32.0547
  24   2.0000      -1.117211       -30.4009
  25   2.0000      -1.101032       -29.9606
  26   2.0000      -1.056820       -28.7575
  27   2.0000      -1.038385       -28.2559
  28   2.0000      -1.014149       -27.5964
  29   2.0000      -0.996483       -27.1157
  30   2.0000      -0.933913       -25.4131
  31   2.0000      -0.883384       -24.0381
  32   2.0000      -0.852964       -23.2103
  33   2.0000      -0.805552       -21.9202
  34   2.0000      -0.780198       -21.2303
  35   2.0000      -0.756272       -20.5792
  36   2.0000      -0.731283       -19.8992
  37   2.0000      -0.718858       -19.5611
  38   2.0000      -0.708659       -19.2836
  39   2.0000      -0.701264       -19.0824
  40   2.0000      -0.680052       -18.5051
  41   2.0000      -0.655740       -17.8436
  42   2.0000      -0.642701       -17.4888
  43   2.0000      -0.629508       -17.1298
  44   2.0000      -0.624103       -16.9827
  45   2.0000      -0.612524       -16.6676
  46   2.0000      -0.602860       -16.4047
  47   2.0000      -0.593661       -16.1543
  48   2.0000      -0.582486       -15.8503
  49   2.0000      -0.575883       -15.6706
  50   2.0000      -0.574665       -15.6374
  51   2.0000      -0.567822       -15.4512
  52   2.0000      -0.559329       -15.2201
  53   2.0000      -0.556608       -15.1461
  54   2.0000      -0.551357       -15.0032
  55   2.0000      -0.541748       -14.7417
  56   2.0000      -0.495495       -13.4831
  57   2.0000      -0.493757       -13.4358
  58   2.0000      -0.488518       -13.2932
  59   2.0000      -0.487598       -13.2682
  60   2.0000      -0.484014       -13.1707
  61   2.0000      -0.480245       -13.0681
  62   2.0000      -0.473838       -12.8938
  63   2.0000      -0.469403       -12.7731
  64   2.0000      -0.464947       -12.6519
  65   2.0000      -0.408531       -11.1167
  66   2.0000      -0.352573        -9.5940
  67   2.0000      -0.342935        -9.3317
  68   0.0000       0.017324         0.4714
  69   0.0000       0.025070         0.6822
  70   0.0000       0.027839         0.7575
  71   0.0000       0.031920         0.8686
  72   0.0000       0.037818         1.0291

MULLIKEN ATOMIC CHARGES
-----------------------
   0 C :   -0.623215
   1 C :   -0.138184
   2 C :   -0.196868
   3 C :   -0.783624
   4 C :   -0.621133
   5 C :   -0.398249
   6 H :    0.384764
   7 H :    0.233219
   8 H :    0.308588
   9 H :    0.176296
  10 H :    0.104513
  11 H :    0.332412
  12 H :    0.183152
  13 H :    0.282853
  14 C :    0.171390
  15 H :    0.182081
  16 C :    1.203799
  17 C :   -0.512003
  18 C :    1.297322
  19 N :   -1.177615
  20 N :   -1.139831
  21 H :    0.356419
  22 C :   -0.993145
  23 H :    0.319570
  24 C :    1.036765
  25 C :   -0.096493
  26 H :    0.179788
  27 H :    0.449102
  28 O :   -0.334754
  29 C :    0.410588
  30 C :   -0.664934
  31 O :   -0.854670
  32 H :    0.280555
  33 H :    0.339534
  34 H :    0.302010
Sum of atomic charges:   -0.0000000

LOEWDIN ATOMIC CHARGES
----------------------
   0 C :    0.292263
   1 C :    0.195672
   2 C :   -0.125542
   3 C :    0.301962
   4 C :    0.311497
   5 C :    0.298865
   6 H :   -0.125726
   7 H :   -0.182661
   8 H :   -0.155845
   9 H :   -0.121399
  10 H :   -0.131974
  11 H :   -0.132976
  12 H :   -0.140717
  13 H :   -0.131362
  14 C :   -0.285002
  15 H :   -0.177403
  16 C :   -0.267669
  17 C :    0.434278
  18 C :   -0.278325
  19 N :    0.312672
  20 N :    0.324525
  21 H :   -0.177058
  22 C :    0.085883
  23 H :   -0.185894
  24 C :    0.080944
  25 C :    0.013136
  26 H :   -0.180645
  27 H :   -0.178973
  28 O :    0.589874
  29 C :   -0.812647
  30 C :    0.591203
  31 O :    0.480859
  32 H :   -0.176533
  33 H :   -0.178599
  34 H :   -0.166684

  Mayer bond orders larger than 0.100000
B(  0-C ,  1-C ) :   0.9656 B(  0-C ,  2-C ) :   0.1243 B(  0-C ,  4-C ) :   0.1210
B(  0-C ,  5-C ) :   0.8779 B(  0-C ,  6-H ) :   0.8165 B(  0-C ,  7-H ) :   1.0617
B(  1-C ,  2-C ) :   1.1923 B(  1-C , 14-C ) :  -0.1132 B(  1-C , 15-H ) :   1.0493
B(  1-C , 17-C ) :   0.1649 B(  1-C , 20-N ) :   0.1077 B(  1-C , 24-C ) :   0.2518
B(  1-C , 28-O ) :  -0.1541 B(  2-C ,  3-C ) :   0.9635 B(  2-C , 14-C ) :   0.7457
B(  2-C , 15-H ) :  -0.1253 B(  2-C , 16-C ) :   0.3993 B(  2-C , 18-C ) :   1.0523
B(  2-C , 24-C ) :   0.2494 B(  3-C ,  4-C ) :   0.9540 B(  3-C ,  8-H ) :   0.8876
B(  3-C ,  9-H ) :   1.1146 B(  3-C , 14-C ) :  -0.3060 B(  3-C , 18-C ) :   0.1401
B(  4-C ,  5-C ) :   0.9129 B(  4-C , 10-H ) :   1.1558 B(  4-C , 11-H ) :   0.8994
B(  5-C , 12-H ) :   1.1102 B(  5-C , 13-H ) :   0.9244 B( 14-C , 15-H ) :  -0.1565
B( 14-C , 16-C ) :   0.7642 B( 14-C , 17-C ) :   0.2890 B( 14-C , 18-C ) :   0.3155
B( 14-C , 19-N ) :   1.0146 B( 14-C , 20-N ) :   0.8715 B( 14-C , 22-C ) :   0.1357
B( 14-C , 24-C ) :   0.1840 B( 15-H , 16-C ) :   0.1275 B( 16-C , 17-C ) :   0.1401
B( 16-C , 18-C ) :  -0.2627 B( 16-C , 19-N ) :   0.7737 B( 17-C , 21-H ) :   0.9544
B( 17-C , 22-C ) :   0.8685 B( 17-C , 23-H ) :   1.0645 B( 18-C , 20-N ) :   0.8255
B( 21-H , 24-C ) :  -0.1017 B( 22-C , 24-C ) :   0.6065 B( 22-C , 25-C ) :  -0.3227
B( 22-C , 26-H ) :   0.1096 B( 23-H , 24-C ) :  -0.1152 B( 24-C , 25-C ) :   0.8111
B( 25-C , 26-H ) :   1.0942 B( 25-C , 27-H ) :   0.9621 B( 25-C , 28-O ) :   0.7321
B( 25-C , 31-O ) :   0.1081 B( 27-H , 31-O ) :  -0.1179 B( 28-O , 29-C ) :   0.9606
B( 29-C , 30-C ) :   0.6830 B( 29-C , 31-O ) :   1.4872 B( 30-C , 32-H ) :   0.9613
B( 30-C , 33-H ) :   0.9387 B( 30-C , 34-H ) :   0.9233

MP2 TOTAL ENERGY:     -839.450135206 Eh
FINAL SINGLE POINT ENERGY      -839.450135205703

DIPOLE MOMENT
-------------
                                X             Y             Z
Electronic contribution:     -3.08176     -13.96496       1.13419
Nuclear contribution   :      4.06691      16.43778      -0.98148
                        -----------------------------------------
Total Dipole Moment    :      0.98515       2.47282       0.15271
                        -----------------------------------------
Magnitude (a.u.)       :      2.66621
Magnitude (Debye)      :      6.77697

Rotational constants in cm-1:     0.018391     0.009407     0.007561
Rotational constants in MHz :   551.356566   282.012901   226.662947

                             ****ORCA TERMINATED NORMALLY****
TOTAL RUN TIME: 0 days 0 hours 44 minutes 29 seconds 727 msec
