                         Program Version 4.2.1 -  RELEASE  -
|  1> %pal
|  2>  nprocs 32
|  3> end
|  4> !RI-MP2 aug-cc-pVTZ aug-cc-pVTZ/C TightSCF
|  5> %maxcore 4500
|  6> *xyzfile 0 1  02_43TS.xyz
|  7>
|  8>
|  9>                          ****END OF INPUT****

CARTESIAN COORDINATES (ANGSTROEM)
---------------------------------
  C      0.759371   -1.174278    0.472785
  C      0.500566   -0.462347    1.613797
  C      1.107667    1.239166    0.163792
  C      0.715334    0.917159    1.444358
  H      1.476047    2.209984   -0.139796
  H      0.504345    1.654274    2.208504
  H      0.077339   -0.902050    2.507436
  H      0.719815   -2.248872    0.365421
  S      1.857157   -0.225319   -0.639042
  C     -2.467681    0.547166    0.467290
  C     -0.844192   -0.452945   -1.016072
  C     -0.641352    0.923569   -1.062520
  C     -1.761011    1.648386   -0.332240
  H     -2.135821    0.529652    1.509222
  H     -0.501374   -1.157061   -1.760276
  H     -0.154951    1.395400   -1.906405
  H     -2.436864    2.077251   -1.077645
  H     -1.406168    2.470786    0.288308
  H     -3.554490    0.619955    0.474545
  O      3.268425   -0.368785   -0.159778
  C     -2.027563   -0.758601   -0.180026
  O     -2.562077   -1.832197   -0.049175

 Total Charge           Charge          ....    0
 Multiplicity           Mult            ....    1
 Number of Electrons    NEL             ....   96
 Basis Dimension        Dim             ....  786

ORBITAL ENERGIES
----------------

  NO   OCC          E(Eh)            E(eV)
   0   2.0000     -92.086936     -2505.8129
   1   2.0000     -20.543784      -559.0248
   2   2.0000     -20.517019      -558.2965
   3   2.0000     -11.334610      -308.4304
   4   2.0000     -11.296548      -307.3947
   5   2.0000     -11.289126      -307.1927
   6   2.0000     -11.287298      -307.1430
   7   2.0000     -11.273438      -306.7658
   8   2.0000     -11.264710      -306.5283
   9   2.0000     -11.260804      -306.4220
  10   2.0000     -11.257739      -306.3387
  11   2.0000     -11.246971      -306.0456
  12   2.0000      -9.071965      -246.8607
  13   2.0000      -6.753144      -183.7624
  14   2.0000      -6.753099      -183.7612
  15   2.0000      -6.751767      -183.7249
  16   2.0000      -1.389624       -37.8136
  17   2.0000      -1.345652       -36.6171
  18   2.0000      -1.187810       -32.3220
  19   2.0000      -1.146534       -31.1988
  20   2.0000      -1.017289       -27.6818
  21   2.0000      -1.013733       -27.5851
  22   2.0000      -0.966329       -26.2951
  23   2.0000      -0.945583       -25.7306
  24   2.0000      -0.812428       -22.1073
  25   2.0000      -0.800632       -21.7863
  26   2.0000      -0.769231       -20.9318
  27   2.0000      -0.741466       -20.1763
  28   2.0000      -0.726733       -19.7754
  29   2.0000      -0.689298       -18.7568
  30   2.0000      -0.667397       -18.1608
  31   2.0000      -0.615497       -16.7485
  32   2.0000      -0.602427       -16.3929
  33   2.0000      -0.597987       -16.2721
  34   2.0000      -0.593014       -16.1367
  35   2.0000      -0.582965       -15.8633
  36   2.0000      -0.577603       -15.7174
  37   2.0000      -0.569146       -15.4873
  38   2.0000      -0.558384       -15.1944
  39   2.0000      -0.550680       -14.9848
  40   2.0000      -0.529437       -14.4067
  41   2.0000      -0.509000       -13.8506
  42   2.0000      -0.480790       -13.0829
  43   2.0000      -0.432158       -11.7596
  44   2.0000      -0.413629       -11.2554
  45   2.0000      -0.387632       -10.5480
  46   2.0000      -0.354288        -9.6407
  47   2.0000      -0.345139        -9.3917
  48   0.0000       0.018536         0.5044
  49   0.0000       0.025872         0.7040
  50   0.0000       0.031413         0.8548
  51   0.0000       0.034187         0.9303
  52   0.0000       0.039288         1.0691

MULLIKEN ATOMIC CHARGES
-----------------------
   0 C :   -0.067360
   1 C :   -0.624114
   2 C :   -0.072927
   3 C :   -0.633615
   4 H :    0.554825
   5 H :    0.305922
   6 H :    0.394900
   7 H :    0.527971
   8 S :    0.587706
   9 C :   -0.344493
  10 C :   -0.621860
  11 C :   -0.499090
  12 C :   -0.470930
  13 H :    0.161620
  14 H :    0.411935
  15 H :    0.564844
  16 H :    0.199152
  17 H :    0.304834
  18 H :    0.386462
  19 O :   -1.031882
  20 C :    1.084202
  21 O :   -1.118101
Sum of atomic charges:   -0.0000000

LOEWDIN ATOMIC CHARGES
----------------------
   0 C :    0.007736
   1 C :    0.120819
   2 C :   -0.034290
   3 C :    0.120289
   4 H :   -0.197443
   5 H :   -0.156685
   6 H :   -0.160514
   7 H :   -0.193141
   8 S :    0.867934
   9 C :    0.309233
  10 C :    0.108437
  11 C :    0.102524
  12 C :    0.291681
  13 H :   -0.155195
  14 H :   -0.177960
  15 H :   -0.158288
  16 H :   -0.139175
  17 H :   -0.151925
  18 H :   -0.139430
  19 O :   -0.168543
  20 C :   -0.552488
  21 O :    0.456423

  Mayer bond orders larger than 0.100000
B(  0-C ,  1-C ) :   1.4371 B(  0-C ,  7-H ) :   0.7389 B(  0-C ,  8-S ) :   0.9464
B(  0-C , 10-C ) :   0.2458 B(  1-C ,  3-C ) :   1.2507 B(  1-C ,  6-H ) :   0.9259
B(  1-C ,  8-S ) :   0.1047 B(  2-C ,  3-C ) :   1.3806 B(  2-C ,  4-H ) :   0.6884
B(  2-C ,  8-S ) :   0.9921 B(  2-C , 11-C ) :   0.3368 B(  3-C ,  5-H ) :   1.0385
B(  3-C ,  8-S ) :   0.1185 B(  3-C , 11-C ) :   0.1054 B(  8-S , 19-O ) :   1.0157
B(  9-C , 12-C ) :   1.0246 B(  9-C , 13-H ) :   0.9921 B(  9-C , 18-H ) :   0.8552
B(  9-C , 20-C ) :   0.7601 B( 10-C , 11-C ) :   1.5982 B( 10-C , 12-C ) :   0.1788
B( 10-C , 14-H ) :   0.8601 B( 10-C , 20-C ) :   0.9321 B( 10-C , 21-O ) :   0.1363
B( 11-C , 12-C ) :   0.8361 B( 11-C , 15-H ) :   0.6296 B( 11-C , 20-C ) :   0.1029
B( 12-C , 16-H ) :   0.9539 B( 12-C , 17-H ) :   0.9643 B( 13-H , 20-C ) :   0.1593
B( 20-C , 21-O ) :   0.5158

MP2 TOTAL ENERGY:     -896.088660573 Eh
FINAL SINGLE POINT ENERGY      -896.088660573072

DIPOLE MOMENT
-------------
                                X             Y             Z
Electronic contribution:      6.28689      -4.84727      -2.34267
Nuclear contribution   :     -7.37881       6.55101       2.45925
                        -----------------------------------------
Total Dipole Moment    :     -1.09192       1.70374       0.11658
                        -----------------------------------------
Magnitude (a.u.)       :      2.02697
Magnitude (Debye)      :      5.15216

Rotational constants in cm-1:     0.053719     0.022653     0.020870
Rotational constants in MHz :  1610.457001   679.114465   625.656520

                             ****ORCA TERMINATED NORMALLY****
TOTAL RUN TIME: 0 days 0 hours 11 minutes 51 seconds 377 msec
