                         Program Version 4.2.1 -  RELEASE  -
|  1> %pal
|  2>  nprocs 32
|  3> end
|  4> !RI-MP2 aug-cc-pVTZ aug-cc-pVTZ/C TightSCF
|  5> %maxcore 4500
|  6> *xyzfile 0 1  07_10P1.xyz
|  7>
|  8>
|  9>                          ****END OF INPUT****

CARTESIAN COORDINATES (ANGSTROEM)
---------------------------------
  C      1.451593    1.125865   -0.069617
  C      1.260153   -0.261683   -0.140660
  C      0.002083   -0.810011   -0.341972
  C     -1.113022    0.011422   -0.473566
  C     -0.937978    1.394309   -0.416813
  C      0.327877    1.927646   -0.215237
  H     -0.110420   -1.883938   -0.401932
  H      0.447351    3.004436   -0.179733
  N     -2.371080   -0.570275   -0.705746
  C     -3.301439   -0.408895    0.137648
  O     -4.514978   -0.919979   -0.052365
  N      2.331873   -1.145067   -0.012312
  C      3.513263   -1.223160    0.147713
  O      4.652966   -1.417814    0.299949
  H     -4.490169   -1.381462   -0.900018
  O     -3.266949    0.233989    1.304868
  H     -2.382648    0.606041    1.429437
  C      2.814856    1.715056    0.143444
  H      3.256752    1.380993    1.086243
  H      3.505217    1.435265   -0.657062
  H      2.763556    2.802987    0.169663
  H     -1.787818    2.050208   -0.565448

 Total Charge           Charge          ....    0
 Multiplicity           Mult            ....    1
 Number of Electrons    NEL             ....  100
 Basis Dimension        Dim             ....  828

ORBITAL ENERGIES
----------------

  NO   OCC          E(Eh)            E(eV)
   0   2.0000     -20.628247      -561.3231
   1   2.0000     -20.621953      -561.1519
   2   2.0000     -20.612748      -560.9014
   3   2.0000     -15.602294      -424.5600
   4   2.0000     -15.554717      -423.2654
   5   2.0000     -11.420821      -310.7763
   6   2.0000     -11.408824      -310.4499
   7   2.0000     -11.311748      -307.8083
   8   2.0000     -11.289706      -307.2085
   9   2.0000     -11.256868      -306.3149
  10   2.0000     -11.253021      -306.2103
  11   2.0000     -11.245021      -305.9926
  12   2.0000     -11.244115      -305.9679
  13   2.0000     -11.241298      -305.8913
  14   2.0000      -1.502454       -40.8839
  15   2.0000      -1.468846       -39.9693
  16   2.0000      -1.411880       -38.4192
  17   2.0000      -1.299414       -35.3589
  18   2.0000      -1.251127       -34.0449
  19   2.0000      -1.163564       -31.6622
  20   2.0000      -1.060605       -28.8605
  21   2.0000      -1.046515       -28.4771
  22   2.0000      -0.963297       -26.2127
  23   2.0000      -0.898536       -24.4504
  24   2.0000      -0.884677       -24.0733
  25   2.0000      -0.840509       -22.8714
  26   2.0000      -0.800386       -21.7796
  27   2.0000      -0.735980       -20.0270
  28   2.0000      -0.730972       -19.8908
  29   2.0000      -0.699236       -19.0272
  30   2.0000      -0.693480       -18.8706
  31   2.0000      -0.674202       -18.3460
  32   2.0000      -0.669875       -18.2282
  33   2.0000      -0.664878       -18.0923
  34   2.0000      -0.659114       -17.9354
  35   2.0000      -0.633854       -17.2481
  36   2.0000      -0.617128       -16.7929
  37   2.0000      -0.600569       -16.3423
  38   2.0000      -0.596358       -16.2277
  39   2.0000      -0.567092       -15.4313
  40   2.0000      -0.553158       -15.0522
  41   2.0000      -0.542831       -14.7712
  42   2.0000      -0.531961       -14.4754
  43   2.0000      -0.528839       -14.3904
  44   2.0000      -0.494356       -13.4521
  45   2.0000      -0.458314       -12.4714
  46   2.0000      -0.448899       -12.2152
  47   2.0000      -0.418647       -11.3920
  48   2.0000      -0.343167        -9.3380
  49   2.0000      -0.321655        -8.7527
  50   0.0000       0.023626         0.6429
  51   0.0000       0.029922         0.8142
  52   0.0000       0.033701         0.9171
  53   0.0000       0.038222         1.0401
  54   0.0000       0.043647         1.1877

MULLIKEN ATOMIC CHARGES
-----------------------
   0 C :    1.283428
   1 C :    0.756148
   2 C :   -0.977888
   3 C :    1.795085
   4 C :   -0.483811
   5 C :   -0.888118
   6 H :    0.632332
   7 H :    0.094786
   8 N :   -0.919001
   9 C :    0.107911
  10 O :   -0.395918
  11 N :   -0.375650
  12 C :   -0.290441
  13 O :   -0.642822
  14 H :    0.199030
  15 O :   -0.467177
  16 H :    0.309933
  17 C :   -1.006640
  18 H :    0.270805
  19 H :    0.275887
  20 H :    0.234375
  21 H :    0.487745
Sum of atomic charges:   -0.0000000

LOEWDIN ATOMIC CHARGES
----------------------
   0 C :   -0.103593
   1 C :   -0.289883
   2 C :    0.228747
   3 C :   -0.347767
   4 C :    0.207142
   5 C :    0.218398
   6 H :   -0.170255
   7 H :   -0.173530
   8 N :    0.380726
   9 C :   -0.828471
  10 O :    0.846093
  11 N :    0.315619
  12 C :   -0.473691
  13 O :    0.391547
  14 H :   -0.474541
  15 O :    0.871966
  16 H :   -0.499463
  17 C :    0.574152
  18 H :   -0.164300
  19 H :   -0.163756
  20 H :   -0.172146
  21 H :   -0.172992

  Mayer bond orders larger than 0.100000
B(  0-C ,  1-C ) :   1.5075 B(  0-C ,  2-C ) :   0.4562 B(  0-C ,  5-C ) :   0.7189
B(  0-C ,  7-H ) :  -0.1766 B(  0-C , 11-N ) :  -0.5908 B(  0-C , 12-C ) :  -0.3607
B(  0-C , 17-C ) :   0.3486 B(  1-C ,  2-C ) :   0.8277 B(  1-C ,  4-C ) :   0.1643
B(  1-C ,  5-C ) :  -0.2811 B(  1-C ,  7-H ) :   0.1200 B(  1-C , 11-N ) :  -0.2700
B(  1-C , 12-C ) :  -0.8072 B(  1-C , 13-O ) :   0.1192 B(  1-C , 17-C ) :   0.2727
B(  2-C ,  3-C ) :   0.6063 B(  2-C ,  4-C ) :   0.3708 B(  2-C ,  6-H ) :   0.3626
B(  2-C , 11-N ) :  -0.2535 B(  2-C , 12-C ) :   0.1478 B(  3-C ,  4-C ) :   0.9359
B(  3-C ,  6-H ) :   0.1254 B(  3-C ,  8-N ) :  -0.3917 B(  3-C ,  9-C ) :  -0.4794
B(  3-C , 15-O ) :  -0.1011 B(  4-C ,  5-C ) :   1.1477 B(  4-C , 21-H ) :   0.7921
B(  5-C ,  7-H ) :   1.4106 B(  5-C , 21-H ) :  -0.1247 B(  8-N ,  9-C ) :   2.0884
B(  8-N , 10-O ) :  -0.2569 B(  9-C , 10-O ) :   0.9763 B(  9-C , 14-H ) :   0.1006
B(  9-C , 15-O ) :   1.1056 B( 10-O , 14-H ) :   0.9754 B( 10-O , 15-O ) :  -0.1353
B( 11-N , 12-C ) :   2.7575 B( 11-N , 13-O ) :  -0.3088 B( 12-C , 13-O ) :   1.8581
B( 15-O , 16-H ) :   0.8456 B( 17-C , 18-H ) :   0.9940 B( 17-C , 19-H ) :   0.9981
B( 17-C , 20-H ) :   1.0634

MP2 TOTAL ENERGY:     -681.775178628 Eh
FINAL SINGLE POINT ENERGY      -681.775178628220

DIPOLE MOMENT
-------------
                                X             Y             Z
Electronic contribution:     -1.45515      -6.96206      -0.08972
Nuclear contribution   :      1.12608       7.79017       0.00138
                        -----------------------------------------
Total Dipole Moment    :     -0.32906       0.82810      -0.08835
                        -----------------------------------------
Magnitude (a.u.)       :      0.89546
Magnitude (Debye)      :      2.27607

Rotational constants in cm-1:     0.057005     0.010857     0.009625
Rotational constants in MHz :  1708.966219   325.483720   288.550732

                             ****ORCA TERMINATED NORMALLY****
TOTAL RUN TIME: 0 days 0 hours 9 minutes 41 seconds 588 msec
