                         Program Version 4.2.1 -  RELEASE  -
|  1> %pal
|  2>  nprocs 32
|  3> end
|  4> !RI-MP2 aug-cc-pVTZ aug-cc-pVTZ/C TightSCF
|  5> %maxcore 4500
|  6> *xyzfile 0 1  10_59P.xyz
|  7>
|  8>
|  9>                          ****END OF INPUT****

CARTESIAN COORDINATES (ANGSTROEM)
---------------------------------
  C      1.427847    0.432251    0.233945
  C     -0.008448    0.806700    0.477619
  C      2.438641    1.303475    0.181273
  C     -0.448696    1.613008   -0.715217
  C      2.271132    2.736751    0.198208
  C      0.082290    2.811641   -0.988046
  C      1.215544    3.406653   -0.316435
  H     -1.232613    1.218673   -1.348321
  H     -0.348778    3.390662   -1.799002
  H      1.282163    4.489641   -0.347312
  H      3.118191    3.317901    0.547033
  C     -1.756041   -1.457759   -1.211017
  C     -0.764702   -0.525424    0.741895
  H     -0.063430    1.452403    1.360992
  C     -2.075085   -0.673990   -0.012756
  C      0.129285   -1.648151    0.159900
  H     -0.893025   -0.649301    1.816018
  C     -0.517634   -1.949334   -1.166390
  C     -3.256226   -0.157137    0.341792
  C     -4.509352   -0.340830   -0.464444
  C     -3.432464    0.678743    1.576142
  H     -2.523674    0.762666    2.169379
  H     -4.219897    0.265526    2.213858
  H     -3.748186    1.691355    1.304371
  H     -4.363817   -0.952771   -1.352140
  H     -4.906207    0.629173   -0.780341
  H     -5.286112   -0.813176    0.144759
  C      1.590464   -1.089726    0.145280
  C      2.295608   -1.563800    1.346571
  N      2.807744   -1.921580    2.307812
  C      2.338367   -1.506757   -1.044698
  N      2.904200   -1.830319   -1.987417
  H      3.455812    0.929313    0.107344
  H      0.113577   -2.549273    0.777622
  H     -2.440628   -1.616389   -2.032639
  H     -0.050180   -2.561001   -1.926134

 Total Charge           Charge          ....    0
 Multiplicity           Mult            ....    1
 Number of Electrons    NEL             ....  138
 Basis Dimension        Dim             .... 1288

ORBITAL ENERGIES
----------------

  NO   OCC          E(Eh)            E(eV)
   0   2.0000     -15.585494      -424.1029
   1   2.0000     -15.585492      -424.1028
   2   2.0000     -11.345837      -308.7359
   3   2.0000     -11.289570      -307.2048
   4   2.0000     -11.289390      -307.1999
   5   2.0000     -11.279022      -306.9178
   6   2.0000     -11.274232      -306.7874
   7   2.0000     -11.261454      -306.4397
   8   2.0000     -11.260213      -306.4060
   9   2.0000     -11.254159      -306.2412
  10   2.0000     -11.253445      -306.2218
  11   2.0000     -11.253124      -306.2131
  12   2.0000     -11.251765      -306.1761
  13   2.0000     -11.250754      -306.1486
  14   2.0000     -11.250413      -306.1393
  15   2.0000     -11.250032      -306.1289
  16   2.0000     -11.245158      -305.9963
  17   2.0000     -11.239854      -305.8520
  18   2.0000     -11.235117      -305.7231
  19   2.0000     -11.234746      -305.7130
  20   2.0000      -1.257825       -34.2272
  21   2.0000      -1.234652       -33.5966
  22   2.0000      -1.210279       -32.9334
  23   2.0000      -1.157439       -31.4955
  24   2.0000      -1.126634       -30.6573
  25   2.0000      -1.088682       -29.6246
  26   2.0000      -1.070758       -29.1368
  27   2.0000      -1.044129       -28.4122
  28   2.0000      -1.000209       -27.2171
  29   2.0000      -0.959964       -26.1220
  30   2.0000      -0.956140       -26.0179
  31   2.0000      -0.908536       -24.7225
  32   2.0000      -0.874068       -23.7846
  33   2.0000      -0.839475       -22.8433
  34   2.0000      -0.800436       -21.7810
  35   2.0000      -0.779464       -21.2103
  36   2.0000      -0.754241       -20.5240
  37   2.0000      -0.746539       -20.3144
  38   2.0000      -0.709330       -19.3019
  39   2.0000      -0.705751       -19.2045
  40   2.0000      -0.677379       -18.4324
  41   2.0000      -0.666136       -18.1265
  42   2.0000      -0.646547       -17.5934
  43   2.0000      -0.614206       -16.7134
  44   2.0000      -0.608180       -16.5494
  45   2.0000      -0.604326       -16.4445
  46   2.0000      -0.602464       -16.3939
  47   2.0000      -0.588125       -16.0037
  48   2.0000      -0.579620       -15.7723
  49   2.0000      -0.576176       -15.6785
  50   2.0000      -0.569578       -15.4990
  51   2.0000      -0.560071       -15.2403
  52   2.0000      -0.552104       -15.0235
  53   2.0000      -0.550474       -14.9792
  54   2.0000      -0.536342       -14.5946
  55   2.0000      -0.526053       -14.3146
  56   2.0000      -0.516737       -14.0611
  57   2.0000      -0.513008       -13.9596
  58   2.0000      -0.502565       -13.6755
  59   2.0000      -0.493769       -13.4361
  60   2.0000      -0.484244       -13.1770
  61   2.0000      -0.477709       -12.9991
  62   2.0000      -0.476375       -12.9628
  63   2.0000      -0.464284       -12.6338
  64   2.0000      -0.451171       -12.2770
  65   2.0000      -0.432229       -11.7616
  66   2.0000      -0.371173       -10.1001
  67   2.0000      -0.328552        -8.9404
  68   2.0000      -0.315902        -8.5961
  69   0.0000       0.018678         0.5082
  70   0.0000       0.025328         0.6892
  71   0.0000       0.027838         0.7575
  72   0.0000       0.032329         0.8797
  73   0.0000       0.037325         1.0157

MULLIKEN ATOMIC CHARGES
-----------------------
   0 C :    0.543076
   1 C :    0.512419
   2 C :   -0.413306
   3 C :   -0.844563
   4 C :   -0.573329
   5 C :   -0.447160
   6 C :   -0.079179
   7 H :    0.393117
   8 H :    0.305092
   9 H :    0.283209
  10 H :    0.380694
  11 C :   -0.936772
  12 C :   -0.157774
  13 H :    0.084789
  14 C :    1.320724
  15 C :    0.101670
  16 H :   -0.130310
  17 C :   -1.209385
  18 C :    1.067001
  19 C :   -1.405604
  20 C :   -1.212646
  21 H :    0.384155
  22 H :    0.241408
  23 H :    0.206438
  24 H :    0.365406
  25 H :    0.233903
  26 H :    0.222184
  27 C :   -0.117670
  28 C :    1.088683
  29 N :   -1.141207
  30 C :    0.984037
  31 N :   -1.115793
  32 H :    0.113448
  33 H :    0.288970
  34 H :    0.188797
  35 H :    0.475477
Sum of atomic charges:   -0.0000000

LOEWDIN ATOMIC CHARGES
----------------------
   0 C :   -0.071163
   1 C :    0.024782
   2 C :    0.239998
   3 C :    0.269497
   4 C :    0.224557
   5 C :    0.217124
   6 C :    0.214573
   7 H :   -0.188983
   8 H :   -0.184860
   9 H :   -0.185441
  10 H :   -0.185247
  11 C :    0.252606
  12 C :    0.053133
  13 H :   -0.121807
  14 C :   -0.081113
  15 C :    0.018756
  16 H :   -0.123544
  17 C :    0.285352
  18 C :   -0.069810
  19 C :    0.584476
  20 C :    0.589878
  21 H :   -0.185694
  22 H :   -0.155865
  23 H :   -0.153778
  24 H :   -0.192508
  25 H :   -0.157709
  26 H :   -0.158854
  27 C :   -0.358406
  28 C :   -0.208015
  29 N :    0.316480
  30 C :   -0.216585
  31 N :    0.322713
  32 H :   -0.161406
  33 H :   -0.120746
  34 H :   -0.168691
  35 H :   -0.163698

  Mayer bond orders larger than 0.100000
B(  0-C ,  1-C ) :   0.5938 B(  0-C ,  2-C ) :   0.5405 B(  0-C ,  3-C ) :   0.7172
B(  0-C ,  4-C ) :   0.2365 B(  0-C ,  5-C ) :   0.1983 B(  0-C , 12-C ) :  -0.1167
B(  0-C , 13-H ) :   0.1112 B(  0-C , 27-C ) :   0.6986 B(  0-C , 28-C ) :   0.4610
B(  0-C , 29-N ) :   0.1089 B(  0-C , 30-C ) :   0.3369 B(  0-C , 31-N ) :   0.1272
B(  0-C , 32-H ) :  -0.3335 B(  1-C ,  3-C ) :   0.8358 B(  1-C ,  5-C ) :  -0.4015
B(  1-C ,  6-C ) :   0.1582 B(  1-C , 12-C ) :   0.8354 B(  1-C , 13-H ) :   1.0307
B(  1-C , 27-C ) :   0.1048 B(  1-C , 32-H ) :   0.1950 B(  2-C ,  4-C ) :   0.6638
B(  2-C ,  7-H ) :  -0.1160 B(  2-C , 12-C ) :   0.1745 B(  2-C , 27-C ) :   0.1773
B(  2-C , 28-C ) :   0.1174 B(  2-C , 30-C ) :   0.1658 B(  2-C , 32-H ) :   1.2329
B(  3-C ,  4-C ) :   0.2887 B(  3-C ,  5-C ) :   1.6165 B(  3-C ,  6-C ) :   0.3338
B(  3-C ,  7-H ) :   0.8806 B(  3-C , 13-H ) :  -0.1211 B(  3-C , 14-C ) :  -0.1593
B(  3-C , 28-C ) :  -0.1076 B(  4-C ,  6-C ) :   1.4052 B(  4-C ,  9-H ) :  -0.1760
B(  4-C , 10-H ) :   0.8739 B(  4-C , 32-H ) :  -0.1653 B(  5-C ,  6-C ) :   0.6523
B(  5-C ,  8-H ) :   0.8716 B(  5-C ,  9-H ) :  -0.1762 B(  5-C , 13-H ) :  -0.1320
B(  5-C , 14-C ) :   0.1116 B(  5-C , 17-C ) :  -0.1264 B(  5-C , 18-C ) :  -0.1014
B(  6-C ,  8-H ) :  -0.1265 B(  6-C ,  9-H ) :   1.0150 B(  6-C , 13-H ) :  -0.1386
B(  7-H , 14-C ) :  -0.1283 B(  7-H , 17-C ) :   0.1118 B( 11-C , 12-C ) :   0.1462
B( 11-C , 14-C ) :  -0.3941 B( 11-C , 17-C ) :   1.6746 B( 11-C , 18-C ) :   0.6401
B( 11-C , 19-C ) :   0.1095 B( 11-C , 34-H ) :   1.4973 B( 12-C , 14-C ) :   1.1909
B( 12-C , 15-C ) :   0.9606 B( 12-C , 16-H ) :   1.3278 B( 12-C , 17-C ) :   0.2169
B( 12-C , 18-C ) :   0.1478 B( 12-C , 27-C ) :  -0.1540 B( 12-C , 30-C ) :   0.1303
B( 12-C , 34-H ) :   0.2363 B( 13-H , 14-C ) :  -0.1169 B( 13-H , 18-C ) :   0.1056
B( 14-C , 15-C ) :  -0.1249 B( 14-C , 16-H ) :  -0.2552 B( 14-C , 17-C ) :   0.4025
B( 14-C , 18-C ) :   0.6299 B( 14-C , 19-C ) :   0.1517 B( 14-C , 24-H ) :   0.1061
B( 14-C , 27-C ) :   0.1086 B( 14-C , 30-C ) :  -0.1204 B( 14-C , 35-H ) :   0.1054
B( 15-C , 16-H ) :  -0.2584 B( 15-C , 17-C ) :   0.7127 B( 15-C , 18-C ) :   0.1154
B( 15-C , 27-C ) :   0.7943 B( 15-C , 30-C ) :   0.1413 B( 15-C , 33-H ) :   0.9259
B( 17-C , 18-C ) :  -0.2075 B( 17-C , 27-C ) :   0.1659 B( 17-C , 33-H ) :  -0.1810
B( 17-C , 35-H ) :   0.6603 B( 18-C , 19-C ) :   0.1402 B( 18-C , 20-C ) :   0.3959
B( 18-C , 25-H ) :  -0.1088 B( 18-C , 26-H ) :  -0.1606 B( 18-C , 34-H ) :  -0.2782
B( 19-C , 24-H ) :   0.8984 B( 19-C , 25-H ) :   1.1322 B( 19-C , 26-H ) :   1.2035
B( 20-C , 21-H ) :   0.9023 B( 20-C , 22-H ) :   1.1254 B( 20-C , 23-H ) :   1.1631
B( 27-C , 28-C ) :   0.7295 B( 27-C , 29-N ) :   0.3804 B( 27-C , 30-C ) :   0.5843
B( 27-C , 31-N ) :   0.6231 B( 27-C , 32-H ) :  -0.1026 B( 27-C , 33-H ) :  -0.1011
B( 28-C , 29-N ) :   1.2602 B( 28-C , 32-H ) :   0.1068 B( 30-C , 31-N ) :   1.0463

MP2 TOTAL ENERGY:     -803.309254278 Eh
FINAL SINGLE POINT ENERGY      -803.309254277687

DIPOLE MOMENT
-------------
                                X             Y             Z
Electronic contribution:     19.80437      -7.72012      -0.89347
Nuclear contribution   :    -21.97442       8.94315       0.85353
                        -----------------------------------------
Total Dipole Moment    :     -2.17005       1.22302      -0.03994
                        -----------------------------------------
Magnitude (a.u.)       :      2.49129
Magnitude (Debye)      :      6.33234

Rotational constants in cm-1:     0.016208     0.010437     0.008172
Rotational constants in MHz :   485.915885   312.883064   244.976514

                             ****ORCA TERMINATED NORMALLY****
TOTAL RUN TIME: 0 days 0 hours 53 minutes 10 seconds 118 msec
