                         Program Version 4.2.1 -  RELEASE  -
|  1> %pal
|  2>  nprocs 32
|  3> end
|  4> !RI-MP2 aug-cc-pVTZ aug-cc-pVTZ/C TightSCF
|  5> %maxcore 4500
|  6> *xyzfile 0 2  04_90P1.xyz
|  7>
|  8>
|  9>                          ****END OF INPUT****

CARTESIAN COORDINATES (ANGSTROEM)
---------------------------------
  C     -1.911264   -0.178165    0.079621
  C     -3.248721    0.265794   -0.110000
  O     -3.574527    1.423684   -0.315779
  O     -4.170932   -0.736615   -0.034280
  H     -5.029809   -0.322435   -0.186029
  N     -0.937948    0.763004    0.068003
  C      0.407723    0.419459    0.069736
  C      0.782588   -0.902557   -0.047678
  N     -0.180422   -1.859472   -0.128420
  C     -1.509137   -1.580945    0.413858
  H     -2.227611   -2.276922   -0.013358
  H     -1.512201   -1.723575    1.505130
  C      1.392689    1.443648    0.104560
  N      2.704238    0.932067    0.040274
  C      2.991643   -0.391343   -0.076238
  N      2.078042   -1.312738   -0.125310
  O      1.201244    2.645590    0.172761
  N      4.311416   -0.744401   -0.095784
  H      4.988098   -0.084335   -0.443039
  H      4.479757   -1.709626   -0.331972
  H      3.435473    1.624938    0.122044
  H     -1.197588    1.735234   -0.057181
  H      0.157190   -2.809114   -0.091721

 Total Charge           Charge          ....    0
 Multiplicity           Mult            ....    2
 Number of Electrons    NEL             ....  109
 Basis Dimension        Dim             ....  874

ORBITAL ENERGIES
----------------
                 SPIN UP ORBITALS
  NO   OCC          E(Eh)            E(eV)
   0   1.0000     -20.598402      -560.5110
   1   1.0000     -20.533065      -558.7331
   2   1.0000     -20.521619      -558.4216
   3   1.0000     -15.633777      -425.4167
   4   1.0000     -15.614463      -424.8912
   5   1.0000     -15.604217      -424.6123
   6   1.0000     -15.593412      -424.3183
   7   1.0000     -15.563135      -423.4944
   8   1.0000     -11.398393      -310.1660
   9   1.0000     -11.366110      -309.2876
  10   1.0000     -11.363397      -309.2137
  11   1.0000     -11.338848      -308.5457
  12   1.0000     -11.287118      -307.1381
  13   1.0000     -11.280859      -306.9678
  14   1.0000     -11.256283      -306.2990
  15   1.0000      -1.449578       -39.4450
  16   1.0000      -1.402576       -38.1660
  17   1.0000      -1.354182       -36.8492
  18   1.0000      -1.349445       -36.7203
  19   1.0000      -1.314325       -35.7646
  20   1.0000      -1.257281       -34.2124
  21   1.0000      -1.229660       -33.4608
  22   1.0000      -1.199484       -32.6396
  23   1.0000      -1.080616       -29.4051
  24   1.0000      -0.993097       -27.0236
  25   1.0000      -0.952040       -25.9063
  26   1.0000      -0.892629       -24.2897
  27   1.0000      -0.876961       -23.8633
  28   1.0000      -0.815011       -22.1776
  29   1.0000      -0.798999       -21.7419
  30   1.0000      -0.748505       -20.3679
  31   1.0000      -0.727264       -19.7899
  32   1.0000      -0.715488       -19.4694
  33   1.0000      -0.703062       -19.1313
  34   1.0000      -0.697385       -18.9768
  35   1.0000      -0.685563       -18.6551
  36   1.0000      -0.675051       -18.3691
  37   1.0000      -0.657365       -17.8878
  38   1.0000      -0.648503       -17.6467
  39   1.0000      -0.625861       -17.0305
  40   1.0000      -0.620175       -16.8758
  41   1.0000      -0.608106       -16.5474
  42   1.0000      -0.587996       -16.0002
  43   1.0000      -0.576512       -15.6877
  44   1.0000      -0.554853       -15.0983
  45   1.0000      -0.539384       -14.6774
  46   1.0000      -0.520406       -14.1610
  47   1.0000      -0.497129       -13.5276
  48   1.0000      -0.466623       -12.6975
  49   1.0000      -0.453234       -12.3331
  50   1.0000      -0.448039       -12.1918
  51   1.0000      -0.442530       -12.0419
  52   1.0000      -0.398028       -10.8309
  53   1.0000      -0.338386        -9.2080
  54   1.0000      -0.258717        -7.0400
  55   0.0000       0.013423         0.3653
  56   0.0000       0.026268         0.7148
  57   0.0000       0.034039         0.9262
  58   0.0000       0.040291         1.0964
  59   0.0000       0.043532         1.1846

                 SPIN DOWN ORBITALS
  NO   OCC          E(Eh)            E(eV)
   0   1.0000     -20.597756      -560.4934
   1   1.0000     -20.523884      -558.4833
   2   1.0000     -20.522316      -558.4406
   3   1.0000     -15.634388      -425.4333
   4   1.0000     -15.614088      -424.8809
   5   1.0000     -15.593540      -424.3218
   6   1.0000     -15.591759      -424.2733
   7   1.0000     -15.564486      -423.5312
   8   1.0000     -11.397100      -310.1309
   9   1.0000     -11.368487      -309.3522
  10   1.0000     -11.362799      -309.1975
  11   1.0000     -11.335966      -308.4673
  12   1.0000     -11.288936      -307.1876
  13   1.0000     -11.266928      -306.5887
  14   1.0000     -11.259788      -306.3944
  15   1.0000      -1.443561       -39.2813
  16   1.0000      -1.402744       -38.1706
  17   1.0000      -1.353670       -36.8352
  18   1.0000      -1.334034       -36.3009
  19   1.0000      -1.303454       -35.4688
  20   1.0000      -1.240889       -33.7663
  21   1.0000      -1.229577       -33.4585
  22   1.0000      -1.198412       -32.6105
  23   1.0000      -1.065673       -28.9984
  24   1.0000      -0.981533       -26.7089
  25   1.0000      -0.938619       -25.5411
  26   1.0000      -0.889656       -24.2088
  27   1.0000      -0.872890       -23.7525
  28   1.0000      -0.811113       -22.0715
  29   1.0000      -0.796797       -21.6820
  30   1.0000      -0.746074       -20.3017
  31   1.0000      -0.721443       -19.6315
  32   1.0000      -0.712627       -19.3916
  33   1.0000      -0.699269       -19.0281
  34   1.0000      -0.690129       -18.7794
  35   1.0000      -0.681917       -18.5559
  36   1.0000      -0.661899       -18.0112
  37   1.0000      -0.649467       -17.6729
  38   1.0000      -0.636376       -17.3167
  39   1.0000      -0.622116       -16.9286
  40   1.0000      -0.605889       -16.4871
  41   1.0000      -0.603654       -16.4263
  42   1.0000      -0.582255       -15.8440
  43   1.0000      -0.560385       -15.2489
  44   1.0000      -0.548571       -14.9274
  45   1.0000      -0.521669       -14.1953
  46   1.0000      -0.480416       -13.0728
  47   1.0000      -0.467018       -12.7082
  48   1.0000      -0.449740       -12.2380
  49   1.0000      -0.445209       -12.1147
  50   1.0000      -0.442776       -12.0486
  51   1.0000      -0.436346       -11.8736
  52   1.0000      -0.395950       -10.7743
  53   1.0000      -0.293059        -7.9746
  54   0.0000       0.013429         0.3654
  55   0.0000       0.026236         0.7139
  56   0.0000       0.034051         0.9266
  57   0.0000       0.040294         1.0964
  58   0.0000       0.043584         1.1860

MULLIKEN ATOMIC CHARGES AND SPIN POPULATIONS
--------------------------------------------
   0 C :    0.384627    0.754716
   1 C :    0.413293   -0.166758
   2 O :   -0.936164    0.201372
   3 O :   -0.495398    0.015736
   4 H :    0.250560   -0.006353
   5 N :   -0.517741    0.253210
   6 C :    1.382057   -0.143824
   7 C :    0.509331    0.154904
   8 N :   -0.184822    0.030058
   9 C :   -0.026066   -0.114878
  10 H :    0.278562    0.004577
  11 H :    0.295844    0.028767
  12 C :    0.124460    0.026021
  13 N :    0.198092   -0.010771
  14 C :   -0.069228    0.039141
  15 N :   -0.520341   -0.041772
  16 O :   -0.992434   -0.013235
  17 N :   -0.554499    0.007257
  18 H :    0.130656    0.000824
  19 H :    0.115235   -0.000150
  20 H :    0.126469    0.001110
  21 H :    0.061537   -0.019686
  22 H :    0.025973   -0.000265
Sum of atomic charges         :   -0.0000000

LOEWDIN ATOMIC CHARGES AND SPIN POPULATIONS
-------------------------------------------
   0 C :   -0.171612    0.336149
   1 C :   -0.823485    0.093931
   2 O :    0.440347    0.153758
   3 O :    0.825183    0.014136
   4 H :   -0.481924   -0.000789
   5 N :    0.538305    0.219195
   6 C :   -0.190630   -0.019549
   7 C :   -0.408218    0.047894
   8 N :    0.583310    0.036090
   9 C :    0.212063    0.064342
  10 H :   -0.161370    0.004078
  11 H :   -0.126497    0.015239
  12 C :   -0.665182   -0.005934
  13 N :    0.584410   -0.002332
  14 C :   -0.516776    0.024394
  15 N :    0.429839   -0.003461
  16 O :    0.437249   -0.010333
  17 N :    0.879061    0.012453
  18 H :   -0.288578    0.001245
  19 H :   -0.291729    0.000816
  20 H :   -0.257839   -0.000866
  21 H :   -0.272206    0.015877
  22 H :   -0.273719    0.003666

  Mayer bond orders larger than 0.100000
B(  0-C ,  1-C ) :   0.6000 B(  0-C ,  2-O ) :   0.1080 B(  0-C ,  5-N ) :   1.0146
B(  0-C ,  6-C ) :  -0.2397 B(  0-C ,  9-C ) :   0.5227 B(  0-C , 12-C ) :   0.1099
B(  1-C ,  2-O ) :   1.0709 B(  1-C ,  3-O ) :   0.9103 B(  3-O ,  4-H ) :   0.9407
B(  5-N ,  6-C ) :   0.3583 B(  5-N ,  8-N ) :  -0.1244 B(  5-N , 21-H ) :   1.3133
B(  6-C ,  7-C ) :   0.4707 B(  6-C ,  8-N ) :   0.1061 B(  6-C , 12-C ) :  -0.3524
B(  6-C , 13-N ) :  -0.3115 B(  6-C , 15-N ) :  -0.1683 B(  6-C , 16-O ) :   0.3169
B(  6-C , 21-H ) :  -0.1270 B(  7-C ,  8-N ) :   0.8033 B(  7-C , 12-C ) :   0.9212
B(  7-C , 14-C ) :  -0.8079 B(  7-C , 16-O ) :   0.1012 B(  8-N ,  9-C ) :   0.8640
B(  8-N , 15-N ) :  -0.3696 B(  8-N , 22-H ) :   1.1176 B(  9-C , 10-H ) :   0.9680
B(  9-C , 11-H ) :   0.9224 B( 12-C , 13-N ) :   1.0015 B( 12-C , 14-C ) :  -0.4172
B( 12-C , 16-O ) :   0.6397 B( 13-N , 14-C ) :   0.8218 B( 13-N , 16-O ) :  -0.2273
B( 13-N , 17-N ) :  -0.1560 B( 13-N , 20-H ) :   1.0919 B( 14-C , 15-N ) :   1.7633
B( 14-C , 17-N ) :   1.0494 B( 15-N , 17-N ) :  -0.3240 B( 17-N , 18-H ) :   1.0692
B( 17-N , 19-H ) :   1.0659

MP2 TOTAL ENERGY:     -769.720576969 Eh
FINAL SINGLE POINT ENERGY      -769.720576969402

DIPOLE MOMENT
-------------
                                X             Y             Z
Electronic contribution:     -0.87964       3.36778      -0.55955
Nuclear contribution   :      2.95802      -5.38269       0.48668
                        -----------------------------------------
Total Dipole Moment    :      2.07838      -2.01491      -0.07287
                        -----------------------------------------
Magnitude (a.u.)       :      2.89566
Magnitude (Debye)      :      7.36018

Rotational constants in cm-1:     0.047287     0.012220     0.009801
Rotational constants in MHz :  1417.641323   366.356779   293.815760

                             ****ORCA TERMINATED NORMALLY****
TOTAL RUN TIME: 0 days 0 hours 25 minutes 0 seconds 459 msec
