                         Program Version 4.2.1 -  RELEASE  -
|  1> %pal
|  2>  nprocs 32
|  3> end
|  4> !RI-MP2 aug-cc-pVTZ aug-cc-pVTZ/C TightSCF
|  5> %maxcore 4500
|  6> *xyzfile 0 2  04_16TS.xyz
|  7>
|  8>
|  9>                          ****END OF INPUT****

CARTESIAN COORDINATES (ANGSTROEM)
---------------------------------
  N      0.672592   -1.572215   -0.493794
  H      0.262715   -2.499578   -0.399269
  C     -0.227289   -0.523804   -0.172736
  H      0.279385    0.036233    0.941748
  C     -0.251339    0.603497   -1.198354
  C     -1.536663   -1.158507    0.261943
  H      0.761890    0.792219   -1.542127
  H     -0.840388    0.285219   -2.062413
  S     -0.982402    2.187475   -0.660679
  O     -1.625829   -2.374745    0.320239
  H     -0.003188    2.499953    0.208864
  N     -2.539739   -0.322496    0.574005
  H     -3.407855   -0.725197    0.889325
  H     -2.420712    0.681433    0.530460
  C      2.012310   -1.454618   -0.621932
  H      2.502339   -2.412047   -0.847459
  O      2.646834   -0.419643   -0.516303
  O      0.950518    0.518858    1.790105
  O      1.695061    1.503174    1.161227
  H      2.339476    0.984586    0.634588

 Total Charge           Charge          ....    0
 Multiplicity           Mult            ....    2
 Number of Electrons    NEL             ....   95
 Basis Dimension        Dim             ....  717

ORBITAL ENERGIES
----------------
                 SPIN UP ORBITALS
  NO   OCC          E(Eh)            E(eV)
   0   1.0000     -91.970194     -2502.6362
   1   1.0000     -20.659340      -562.1692
   2   1.0000     -20.626760      -561.2827
   3   1.0000     -20.562462      -559.5330
   4   1.0000     -20.549956      -559.1927
   5   1.0000     -15.622879      -425.1202
   6   1.0000     -15.601753      -424.5453
   7   1.0000     -11.384930      -309.7997
   8   1.0000     -11.381721      -309.7124
   9   1.0000     -11.334491      -308.4272
  10   1.0000     -11.292610      -307.2875
  11   1.0000      -8.971737      -244.1334
  12   1.0000      -6.653086      -181.0397
  13   1.0000      -6.652213      -181.0159
  14   1.0000      -6.651179      -180.9878
  15   1.0000      -1.515760       -41.2459
  16   1.0000      -1.426597       -38.8197
  17   1.0000      -1.416045       -38.5325
  18   1.0000      -1.284460       -34.9519
  19   1.0000      -1.239846       -33.7379
  20   1.0000      -1.199751       -32.6469
  21   1.0000      -1.100511       -29.9464
  22   1.0000      -1.005743       -27.3677
  23   1.0000      -0.891885       -24.2694
  24   1.0000      -0.864596       -23.5269
  25   1.0000      -0.820345       -22.3227
  26   1.0000      -0.788504       -21.4563
  27   1.0000      -0.769423       -20.9371
  28   1.0000      -0.742197       -20.1962
  29   1.0000      -0.713515       -19.4157
  30   1.0000      -0.679835       -18.4993
  31   1.0000      -0.669919       -18.2294
  32   1.0000      -0.649827       -17.6827
  33   1.0000      -0.647394       -17.6165
  34   1.0000      -0.632894       -17.2219
  35   1.0000      -0.622520       -16.9396
  36   1.0000      -0.602235       -16.3876
  37   1.0000      -0.593162       -16.1408
  38   1.0000      -0.564333       -15.3563
  39   1.0000      -0.532346       -14.4859
  40   1.0000      -0.498101       -13.5540
  41   1.0000      -0.489578       -13.3221
  42   1.0000      -0.477767       -13.0007
  43   1.0000      -0.463507       -12.6127
  44   1.0000      -0.460635       -12.5345
  45   1.0000      -0.443613       -12.0713
  46   1.0000      -0.391110       -10.6427
  47   1.0000      -0.380907       -10.3650
  48   0.0000       0.024318         0.6617
  49   0.0000       0.029477         0.8021
  50   0.0000       0.038023         1.0347
  51   0.0000       0.043546         1.1850
  52   0.0000       0.054548         1.4843

                 SPIN DOWN ORBITALS
  NO   OCC          E(Eh)            E(eV)
   0   1.0000     -91.970127     -2502.6344
   1   1.0000     -20.631088      -561.4004
   2   1.0000     -20.625676      -561.2532
   3   1.0000     -20.560711      -559.4854
   4   1.0000     -20.547783      -559.1336
   5   1.0000     -15.623209      -425.1291
   6   1.0000     -15.601418      -424.5362
   7   1.0000     -11.384994      -309.8014
   8   1.0000     -11.383272      -309.7546
   9   1.0000     -11.317443      -307.9633
  10   1.0000     -11.293796      -307.3198
  11   1.0000      -8.971650      -244.1310
  12   1.0000      -6.652947      -181.0359
  13   1.0000      -6.652019      -181.0106
  14   1.0000      -6.651184      -180.9879
  15   1.0000      -1.475321       -40.1455
  16   1.0000      -1.422106       -38.6975
  17   1.0000      -1.412110       -38.4255
  18   1.0000      -1.275704       -34.7137
  19   1.0000      -1.237937       -33.6860
  20   1.0000      -1.144963       -31.1560
  21   1.0000      -1.088165       -29.6105
  22   1.0000      -0.988505       -26.8986
  23   1.0000      -0.890014       -24.2185
  24   1.0000      -0.862419       -23.4676
  25   1.0000      -0.792085       -21.5537
  26   1.0000      -0.783501       -21.3201
  27   1.0000      -0.748019       -20.3546
  28   1.0000      -0.731555       -19.9066
  29   1.0000      -0.684948       -18.6384
  30   1.0000      -0.670100       -18.2343
  31   1.0000      -0.656905       -17.8753
  32   1.0000      -0.644158       -17.5284
  33   1.0000      -0.619584       -16.8597
  34   1.0000      -0.616775       -16.7833
  35   1.0000      -0.602564       -16.3966
  36   1.0000      -0.584772       -15.9125
  37   1.0000      -0.580604       -15.7990
  38   1.0000      -0.551682       -15.0120
  39   1.0000      -0.500990       -13.6326
  40   1.0000      -0.482947       -13.1417
  41   1.0000      -0.470424       -12.8009
  42   1.0000      -0.465003       -12.6534
  43   1.0000      -0.455337       -12.3903
  44   1.0000      -0.433725       -11.8023
  45   1.0000      -0.413977       -11.2649
  46   1.0000      -0.380798       -10.3620
  47   0.0000       0.019339         0.5262
  48   0.0000       0.028116         0.7651
  49   0.0000       0.029512         0.8031
  50   0.0000       0.038872         1.0578
  51   0.0000       0.043622         1.1870

MULLIKEN ATOMIC CHARGES AND SPIN POPULATIONS
--------------------------------------------
   0 N :   -0.447878   -0.039731
   1 H :    0.154078    0.006442
   2 C :    1.238176    0.888083
   3 H :    0.504805   -0.449370
   4 C :   -0.379290   -0.091778
   5 C :    0.514128   -0.056900
   6 H :    0.307264    0.001381
   7 H :    0.300226    0.029651
   8 S :   -0.613944    0.008946
   9 O :   -0.977586    0.048469
  10 H :    0.297973   -0.000199
  11 N :   -0.414972    0.006262
  12 H :    0.139136   -0.001811
  13 H :    0.242732   -0.000628
  14 C :   -0.332378   -0.019125
  15 H :    0.657433    0.000146
  16 O :   -0.763041    0.038022
  17 O :   -0.360448    0.667523
  18 O :   -0.410682   -0.035180
  19 H :    0.344267   -0.000203
Sum of atomic charges         :    0.0000000

LOEWDIN ATOMIC CHARGES AND SPIN POPULATIONS
-------------------------------------------
   0 N :    0.537656    0.046739
   1 H :   -0.358684    0.004141
   2 C :   -0.219555    0.265678
   3 H :   -0.662907    0.048655
   4 C :   -0.052010    0.033342
   5 C :   -0.638352    0.025649
   6 H :   -0.245553    0.000425
   7 H :   -0.210838    0.013566
   8 S :    1.382293   -0.000134
   9 O :    0.483726    0.034181
  10 H :   -0.601738   -0.000828
  11 N :    0.856937    0.002931
  12 H :   -0.272448    0.000456
  13 H :   -0.431337   -0.000186
  14 C :   -0.284612    0.006438
  15 H :   -0.160089    0.000399
  16 O :    0.505826    0.028638
  17 O :    0.510064    0.463530
  18 O :    0.565701    0.032661
  19 H :   -0.704081   -0.006283

  Mayer bond orders larger than 0.100000
B(  0-N ,  1-H ) :   1.0002 B(  0-N ,  2-C ) :   0.3672 B(  0-N ,  4-C ) :   0.1282
B(  0-N , 14-C ) :   1.4451 B(  2-C ,  3-H ) :   0.2370 B(  2-C ,  4-C ) :   0.8400
B(  2-C ,  5-C ) :   0.4990 B(  2-C ,  9-O ) :   0.1101 B(  2-C , 14-C ) :  -0.3169
B(  3-H , 17-O ) :   0.1303 B(  4-C ,  6-H ) :   0.9361 B(  4-C ,  7-H ) :   0.9617
B(  4-C ,  8-S ) :   0.9390 B(  5-C ,  9-O ) :   0.9733 B(  5-C , 11-N ) :   1.0756
B(  7-H ,  8-S ) :  -0.1093 B(  8-S , 10-H ) :   0.9499 B( 11-N , 12-H ) :   1.0350
B( 11-N , 13-H ) :   0.9991 B( 14-C , 15-H ) :   0.4792 B( 14-C , 16-O ) :   1.6380
B( 17-O , 18-O ) :   0.8258 B( 18-O , 19-H ) :   0.8620

MP2 TOTAL ENERGY:     -964.916696711 Eh
FINAL SINGLE POINT ENERGY      -964.916696710890

DIPOLE MOMENT
-------------
                                X             Y             Z
Electronic contribution:     -0.12730       0.00102       0.78886
Nuclear contribution   :     -0.44232      -0.44113      -1.55781
                        -----------------------------------------
Total Dipole Moment    :     -0.56962      -0.44011      -0.76895
                        -----------------------------------------
Magnitude (a.u.)       :      1.05330
Magnitude (Debye)      :      2.67729

Rotational constants in cm-1:     0.031990     0.028784     0.019947
Rotational constants in MHz :   959.035997   862.932050   598.003732

                             ****ORCA TERMINATED NORMALLY****
TOTAL RUN TIME: 0 days 0 hours 15 minutes 25 seconds 205 msec
