                         Program Version 4.2.1 -  RELEASE  -
|  1> %pal
|  2>  nprocs 32
|  3> end
|  4> !RI-MP2 aug-cc-pVTZ aug-cc-pVTZ/C TightSCF
|  5> %maxcore 4500
|  6> *xyzfile 0 1  06_27P.xyz
|  7>
|  8>
|  9>                          ****END OF INPUT****

CARTESIAN COORDINATES (ANGSTROEM)
---------------------------------
  C     -0.108499   -2.759245    0.227597
  C      0.663781   -1.813588    1.192889
  C      1.510873   -0.503658   -1.489653
  H     -1.029150   -3.078417    0.722265
  C      2.181618   -2.094358    1.221262
  H      2.690648   -1.300294    1.779086
  H      2.341165   -3.010996    1.800325
  H      1.741064    0.142004   -2.342302
  H      0.308556   -2.036506    2.204783
  C      2.868003   -2.281015   -0.127497
  H      3.907401   -2.571377    0.056155
  H      2.418295   -3.132192   -0.645747
  C      2.873036   -1.073144   -1.057316
  H      3.470837   -0.277790   -0.603301
  H      3.411172   -1.361409   -1.967040
  C      0.568654   -1.602266   -2.045798
  H      0.051548   -1.195471   -2.920011
  C     -0.523083   -2.145216   -1.116593
  H     -1.237502   -1.338130   -0.923018
  H     -1.088692   -2.898513   -1.674196
  H      1.176074   -2.431502   -2.424028
  H      0.472912   -3.671516    0.060750
  C      0.817963    0.386187   -0.432338
  H     -0.066185    0.853761   -0.892794
  Si     1.801795    1.956827    0.030537
  C      2.977721    1.695735    1.479919
  H      3.763153    0.969787    1.262893
  H      3.463674    2.639687    1.742247
  H      2.443372    1.348959    2.368886
  C      0.623817    3.342974    0.508503
  H      1.163297    4.294045    0.531313
  H     -0.195951    3.439838   -0.207144
  H      0.185238    3.193289    1.496577
  C      2.784378    2.536699   -1.464493
  H      2.124819    2.734309   -2.313510
  H      3.305556    3.468416   -1.228079
  H      3.532878    1.810517   -1.786287
  B      0.260908   -0.331206    0.823558
  C     -3.137885   -0.500676    1.327349
  C     -3.421731    0.294421    0.125203
  O     -2.646835    0.998814   -0.480589
  O     -4.700343    0.132320   -0.264566
  C     -5.085587    0.845019   -1.440499
  H     -4.475759    0.537325   -2.290134
  H     -6.129518    0.593332   -1.608002
  H     -4.969517    1.918648   -1.292010
  C     -1.994906   -0.437922    2.017772
  C     -0.809212    0.419923    1.741304
  H     -0.303256    0.625688    2.694488
  H     -1.115565    1.361847    1.295061
  H     -3.929498   -1.167632    1.643000
  H     -1.916964   -1.107529    2.870041

 Total Charge           Charge          ....    0
 Multiplicity           Mult            ....    1
 Number of Electrons    NEL             ....  168
 Basis Dimension        Dim             .... 1683

ORBITAL ENERGIES
----------------

  NO   OCC          E(Eh)            E(eV)
   0   2.0000     -68.747479     -1870.7140
   1   2.0000     -20.599013      -560.5277
   2   2.0000     -20.535840      -558.8086
   3   2.0000     -11.375101      -309.5322
   4   2.0000     -11.281503      -306.9853
   5   2.0000     -11.265088      -306.5386
   6   2.0000     -11.229510      -305.5705
   7   2.0000     -11.216569      -305.2184
   8   2.0000     -11.213621      -305.1381
   9   2.0000     -11.211698      -305.0858
  10   2.0000     -11.209327      -305.0213
  11   2.0000     -11.208047      -304.9865
  12   2.0000     -11.207404      -304.9690
  13   2.0000     -11.206855      -304.9540
  14   2.0000     -11.200797      -304.7892
  15   2.0000     -11.192918      -304.5748
  16   2.0000     -11.191105      -304.5255
  17   2.0000     -11.189386      -304.4787
  18   2.0000     -11.186725      -304.4063
  19   2.0000     -11.171069      -303.9802
  20   2.0000      -7.575296      -206.1343
  21   2.0000      -6.094098      -165.8288
  22   2.0000      -4.200385      -114.2983
  23   2.0000      -4.200327      -114.2967
  24   2.0000      -4.200209      -114.2935
  25   2.0000      -1.458313       -39.6827
  26   2.0000      -1.354048       -36.8455
  27   2.0000      -1.111383       -30.2423
  28   2.0000      -1.093076       -29.7441
  29   2.0000      -1.041993       -28.3541
  30   2.0000      -1.038686       -28.2641
  31   2.0000      -0.999280       -27.1918
  32   2.0000      -0.973211       -26.4824
  33   2.0000      -0.949100       -25.8263
  34   2.0000      -0.931647       -25.3514
  35   2.0000      -0.918874       -25.0038
  36   2.0000      -0.915446       -24.9106
  37   2.0000      -0.910800       -24.7841
  38   2.0000      -0.872655       -23.7462
  39   2.0000      -0.826925       -22.5018
  40   2.0000      -0.791999       -21.5514
  41   2.0000      -0.780681       -21.2434
  42   2.0000      -0.753677       -20.5086
  43   2.0000      -0.710975       -19.3466
  44   2.0000      -0.692354       -18.8399
  45   2.0000      -0.669538       -18.2191
  46   2.0000      -0.664098       -18.0710
  47   2.0000      -0.654424       -17.8078
  48   2.0000      -0.643721       -17.5165
  49   2.0000      -0.638703       -17.3800
  50   2.0000      -0.614496       -16.7213
  51   2.0000      -0.608523       -16.5587
  52   2.0000      -0.594189       -16.1687
  53   2.0000      -0.583417       -15.8756
  54   2.0000      -0.576438       -15.6857
  55   2.0000      -0.568902       -15.4806
  56   2.0000      -0.567303       -15.4371
  57   2.0000      -0.562975       -15.3193
  58   2.0000      -0.558468       -15.1967
  59   2.0000      -0.552533       -15.0352
  60   2.0000      -0.548152       -14.9160
  61   2.0000      -0.543951       -14.8017
  62   2.0000      -0.535866       -14.5817
  63   2.0000      -0.529850       -14.4179
  64   2.0000      -0.528755       -14.3881
  65   2.0000      -0.527679       -14.3589
  66   2.0000      -0.523506       -14.2453
  67   2.0000      -0.517073       -14.0703
  68   2.0000      -0.514755       -14.0072
  69   2.0000      -0.487091       -13.2544
  70   2.0000      -0.480811       -13.0835
  71   2.0000      -0.472196       -12.8491
  72   2.0000      -0.460785       -12.5386
  73   2.0000      -0.459247       -12.4967
  74   2.0000      -0.447307       -12.1718
  75   2.0000      -0.443050       -12.0560
  76   2.0000      -0.435879       -11.8609
  77   2.0000      -0.426614       -11.6088
  78   2.0000      -0.426219       -11.5980
  79   2.0000      -0.411979       -11.2105
  80   2.0000      -0.408825       -11.1247
  81   2.0000      -0.400883       -10.9086
  82   2.0000      -0.375614       -10.2210
  83   2.0000      -0.358553        -9.7567
  84   0.0000       0.022700         0.6177
  85   0.0000       0.028715         0.7814
  86   0.0000       0.028965         0.7882
  87   0.0000       0.030285         0.8241
  88   0.0000       0.038056         1.0356

MULLIKEN ATOMIC CHARGES
-----------------------
   0 C :   -0.719842
   1 C :    0.659436
   2 C :   -0.094694
   3 H :    0.063696
   4 C :   -0.808033
   5 H :    0.036905
   6 H :    0.125986
   7 H :   -0.005972
   8 H :    0.145233
   9 C :   -0.398492
  10 H :    0.433393
  11 H :   -0.067952
  12 C :   -0.421414
  13 H :    0.145438
  14 H :    0.117130
  15 C :   -0.976815
  16 H :    0.191796
  17 C :   -0.437600
  18 H :    0.285088
  19 H :    0.467085
  20 H :   -0.077156
  21 H :   -0.061841
  22 C :    1.724573
  23 H :    0.797964
  24 Si:    3.641934
  25 C :   -1.315023
  26 H :    0.174330
  27 H :    0.202130
  28 H :    0.239184
  29 C :   -2.091147
  30 H :   -0.042544
  31 H :    0.169409
  32 H :    0.250130
  33 C :   -1.837805
  34 H :    0.179981
  35 H :    0.089552
  36 H :    0.275111
  37 B :   -0.323570
  38 C :   -0.225209
  39 C :    1.117384
  40 O :   -0.707098
  41 O :   -0.578026
  42 C :   -0.924046
  43 H :    0.359897
  44 H :    0.400148
  45 H :    0.340708
  46 C :   -0.478170
  47 C :   -0.587766
  48 H :    0.027228
  49 H :    0.225903
  50 H :    0.238759
  51 H :    0.054702
Sum of atomic charges:   -0.0000000

LOEWDIN ATOMIC CHARGES
----------------------
   0 C :    0.335575
   1 C :    0.150475
   2 C :    0.006190
   3 H :   -0.139020
   4 C :    0.320829
   5 H :   -0.142800
   6 H :   -0.132327
   7 H :   -0.154802
   8 H :   -0.153435
   9 C :    0.310679
  10 H :   -0.131322
  11 H :   -0.164054
  12 C :    0.314428
  13 H :   -0.176140
  14 H :   -0.125892
  15 C :    0.346610
  16 H :   -0.134142
  17 C :    0.322498
  18 H :   -0.169202
  19 H :   -0.128258
  20 H :   -0.144494
  21 H :   -0.145625
  22 C :    0.173451
  23 H :   -0.207384
  24 Si:    0.538509
  25 C :    0.601223
  26 H :   -0.234979
  27 H :   -0.219294
  28 H :   -0.221880
  29 C :    0.598570
  30 H :   -0.223468
  31 H :   -0.214845
  32 H :   -0.234470
  33 C :    0.596448
  34 H :   -0.216608
  35 H :   -0.224067
  36 H :   -0.230632
  37 B :   -0.498154
  38 C :    0.220886
  39 C :   -0.847538
  40 O :    0.504828
  41 O :    0.562101
  42 C :    0.350040
  43 H :   -0.181387
  44 H :   -0.186513
  45 H :   -0.180427
  46 C :    0.233206
  47 C :    0.396338
  48 H :   -0.136609
  49 H :   -0.225134
  50 H :   -0.206026
  51 H :   -0.151957

  Mayer bond orders larger than 0.100000
B(  0-C ,  1-C ) :   0.6825 B(  0-C ,  3-H ) :   1.2594 B(  0-C ,  8-H ) :  -0.3142
B(  0-C , 17-C ) :   0.7147 B(  0-C , 18-H ) :   0.1233 B(  0-C , 19-H ) :  -0.1958
B(  0-C , 21-H ) :   1.3137 B(  0-C , 37-B ) :   0.1965 B(  1-C ,  2-C ) :   0.2250
B(  1-C ,  3-H ) :  -0.1317 B(  1-C ,  4-C ) :   0.5838 B(  1-C ,  6-H ) :  -0.1323
B(  1-C ,  8-H ) :   1.1831 B(  1-C ,  9-C ) :   0.1066 B(  1-C , 17-C ) :   0.1138
B(  1-C , 22-C ) :  -0.1557 B(  1-C , 23-H ) :  -0.1641 B(  1-C , 37-B ) :   1.1319
B(  1-C , 47-C ) :   0.1441 B(  2-C ,  7-H ) :   1.1738 B(  2-C ,  9-C ) :   0.1513
B(  2-C , 12-C ) :   0.8166 B(  2-C , 15-C ) :   0.5652 B(  2-C , 20-H ) :  -0.1361
B(  2-C , 22-C ) :   0.8194 B(  2-C , 23-H ) :  -0.2772 B(  2-C , 37-B ) :   0.3974
B(  4-C ,  5-H ) :   1.3445 B(  4-C ,  6-H ) :   1.1595 B(  4-C ,  8-H ) :  -0.2171
B(  4-C ,  9-C ) :   0.7568 B(  4-C , 11-H ) :   0.1207 B(  5-H , 24-Si) :  -0.1026
B(  6-H ,  9-C ) :  -0.1010 B(  7-H , 15-C ) :  -0.2588 B(  7-H , 22-C ) :  -0.2130
B(  8-H , 37-B ) :  -0.1566 B(  9-C , 10-H ) :   0.7803 B(  9-C , 11-H ) :   1.3745
B(  9-C , 12-C ) :   0.7570 B(  9-C , 13-H ) :   0.1014 B(  9-C , 14-H ) :  -0.1152
B(  9-C , 37-B ) :  -0.1415 B( 11-H , 37-B ) :  -0.1568 B( 12-C , 13-H ) :   0.9595
B( 12-C , 14-H ) :   1.1871 B( 12-C , 22-C ) :   0.1192 B( 12-C , 37-B ) :  -0.1304
B( 13-H , 37-B ) :   0.1273 B( 15-C , 16-H ) :   1.0764 B( 15-C , 17-C ) :   0.8129
B( 15-C , 18-H ) :   0.1311 B( 15-C , 19-H ) :  -0.1069 B( 15-C , 20-H ) :   1.4518
B( 15-C , 22-C ) :   0.1965 B( 15-C , 37-B ) :  -0.1259 B( 17-C , 18-H ) :   1.0803
B( 17-C , 19-H ) :   0.8236 B( 17-C , 37-B ) :  -0.1387 B( 18-H , 37-B ) :  -0.1339
B( 18-H , 38-C ) :   0.1153 B( 22-C , 23-H ) :   0.7719 B( 22-C , 24-Si) :   0.8050
B( 22-C , 25-C ) :   0.1435 B( 22-C , 29-C ) :  -0.2189 B( 22-C , 47-C ) :  -0.1445
B( 23-H , 24-Si) :  -0.2848 B( 23-H , 37-B ) :  -0.6744 B( 24-Si, 27-H ) :  -0.2039
B( 24-Si, 29-C ) :  -1.4863 B( 24-Si, 30-H ) :  -0.2825 B( 24-Si, 31-H ) :  -0.1834
B( 24-Si, 33-C ) :  -1.3537 B( 24-Si, 34-H ) :  -0.1963 B( 24-Si, 35-H ) :  -0.1697
B( 24-Si, 37-B ) :   0.4235 B( 25-C , 26-H ) :   1.1866 B( 25-C , 27-H ) :   0.9557
B( 25-C , 28-H ) :   1.0668 B( 25-C , 29-C ) :   0.1348 B( 25-C , 33-C ) :   0.2469
B( 26-H , 28-H ) :   0.1149 B( 29-C , 30-H ) :   1.4754 B( 29-C , 31-H ) :   1.2500
B( 29-C , 32-H ) :   1.0701 B( 29-C , 33-C ) :   0.1989 B( 29-C , 37-B ) :   0.3106
B( 33-C , 34-H ) :   1.1935 B( 33-C , 35-H ) :   1.2301 B( 33-C , 36-H ) :   1.0877
B( 33-C , 37-B ) :   0.1717 B( 37-B , 40-O ) :  -0.4106 B( 37-B , 46-C ) :   0.3045
B( 37-B , 47-C ) :   0.2756 B( 37-B , 48-H ) :  -0.1645 B( 37-B , 49-H ) :   0.2348
B( 37-B , 51-H ) :   0.2248 B( 38-C , 39-C ) :   0.6784 B( 38-C , 46-C ) :   1.7037
B( 38-C , 47-C ) :   0.2248 B( 38-C , 50-H ) :   1.0753 B( 38-C , 51-H ) :  -0.1218
B( 39-C , 40-O ) :   1.4861 B( 39-C , 41-O ) :   0.7703 B( 39-C , 42-C ) :  -0.1067
B( 39-C , 46-C ) :   0.1799 B( 39-C , 50-H ) :  -0.1380 B( 40-O , 41-O ) :  -0.2108
B( 41-O , 42-C ) :   0.9909 B( 42-C , 43-H ) :   0.8899 B( 42-C , 44-H ) :   0.8685
B( 42-C , 45-H ) :   0.9245 B( 46-C , 47-C ) :   0.8862 B( 46-C , 48-H ) :  -0.1778
B( 46-C , 51-H ) :   1.3012 B( 47-C , 48-H ) :   1.3786 B( 47-C , 49-H ) :   0.9657

MP2 TOTAL ENERGY:    -1129.148719391 Eh
FINAL SINGLE POINT ENERGY     -1129.148719391010

DIPOLE MOMENT
-------------
                                X             Y             Z
Electronic contribution:    -15.74512       0.24646       3.53503
Nuclear contribution   :     15.53089      -0.49635      -3.36494
                        -----------------------------------------
Total Dipole Moment    :     -0.21423      -0.24989       0.17010
                        -----------------------------------------
Magnitude (a.u.)       :      0.37050
Magnitude (Debye)      :      0.94174

Rotational constants in cm-1:     0.012648     0.007150     0.005981
Rotational constants in MHz :   379.165599   214.364856   179.312695

                             ****ORCA TERMINATED NORMALLY****
TOTAL RUN TIME: 0 days 1 hours 53 minutes 48 seconds 918 msec
