                         Program Version 4.2.1 -  RELEASE  -
|  1> %pal
|  2>  nprocs 32
|  3> end
|  4> !RI-MP2 aug-cc-pVTZ aug-cc-pVTZ/C TightSCF
|  5> %maxcore 4500
|  6> *xyzfile -1 1  09_22R.xyz
|  7>
|  8>
|  9>                          ****END OF INPUT****

CARTESIAN COORDINATES (ANGSTROEM)
---------------------------------
  C     -5.233485   -1.865563   -0.548938
  N     -4.261605   -1.235019    0.315533
  H     -4.794317   -2.301509   -1.463800
  H     -5.992705   -1.143366   -0.863857
  H     -5.749309   -2.660337   -0.005074
  C     -3.443984   -0.227149   -0.340256
  C     -4.106550    1.145705   -0.295452
  H     -5.116694    1.083986   -0.708173
  H     -3.553037    1.888021   -0.872137
  H     -4.181561    1.494179    0.735734
  C     -2.041719   -0.266794    0.286835
  H     -3.278523   -0.498208   -1.398755
  N     -1.287219    0.807642    0.089494
  O     -1.663891   -1.283012    0.875311
  C      0.021467    0.974219    0.634236
  C      0.392680    2.508845    0.210198
  O     -0.730411    3.197260   -0.012892
  H      1.060455    2.420623   -0.676945
  H      1.025160    2.885269    1.040329
  C      1.014933    0.021715    0.074738
  H      0.019848    0.883805    1.722679
  O      1.025382   -0.497503   -1.011278
  O      2.052989   -0.161381    0.944508
  C      3.084719   -1.043473    0.508408
  C      3.761313   -0.564135   -0.772437
  O      4.166988   -1.287004   -1.637059
  O      3.932320    0.767159   -0.777948
  N      4.080870   -1.152180    1.531251
  H      2.661473   -2.022110    0.286229
  H      4.339057    1.000894   -1.622950
  H      3.687298   -1.598308    2.350716
  H      4.398839   -0.227071    1.799689
  H     -3.620787   -1.913621    0.717132
  H     -1.592798    1.780273   -0.183890

 Total Charge           Charge          ....   -1
 Multiplicity           Mult            ....    1
 Number of Electrons    NEL             ....  140
 Basis Dimension        Dim             .... 1196

ORBITAL ENERGIES
----------------

  NO   OCC          E(Eh)            E(eV)
   0   2.0000     -20.524193      -558.4917
   1   2.0000     -20.496161      -557.7289
   2   2.0000     -20.458363      -556.7004
   3   2.0000     -20.425541      -555.8072
   4   2.0000     -20.388253      -554.7926
   5   2.0000     -20.285439      -551.9949
   6   2.0000     -15.480230      -421.2385
   7   2.0000     -15.430765      -419.8925
   8   2.0000     -15.427147      -419.7940
   9   2.0000     -11.295246      -307.3593
  10   2.0000     -11.257313      -306.3271
  11   2.0000     -11.244688      -305.9835
  12   2.0000     -11.213790      -305.1427
  13   2.0000     -11.151145      -303.4381
  14   2.0000     -11.150902      -303.4315
  15   2.0000     -11.126298      -302.7620
  16   2.0000     -11.114381      -302.4377
  17   2.0000     -11.107449      -302.2491
  18   2.0000      -1.384846       -37.6836
  19   2.0000      -1.352900       -36.8143
  20   2.0000      -1.276191       -34.7269
  21   2.0000      -1.253647       -34.1135
  22   2.0000      -1.247375       -33.9428
  23   2.0000      -1.123254       -30.5653
  24   2.0000      -1.117904       -30.4197
  25   2.0000      -1.102080       -29.9891
  26   2.0000      -1.068998       -29.0889
  27   2.0000      -0.922850       -25.1120
  28   2.0000      -0.893972       -24.3262
  29   2.0000      -0.849388       -23.1130
  30   2.0000      -0.812416       -22.1070
  31   2.0000      -0.757387       -20.6095
  32   2.0000      -0.733273       -19.9534
  33   2.0000      -0.703202       -19.1351
  34   2.0000      -0.666957       -18.1488
  35   2.0000      -0.644983       -17.5509
  36   2.0000      -0.632842       -17.2205
  37   2.0000      -0.608278       -16.5521
  38   2.0000      -0.598644       -16.2899
  39   2.0000      -0.587464       -15.9857
  40   2.0000      -0.579394       -15.7661
  41   2.0000      -0.561091       -15.2681
  42   2.0000      -0.543957       -14.8018
  43   2.0000      -0.538893       -14.6640
  44   2.0000      -0.521959       -14.2032
  45   2.0000      -0.516348       -14.0505
  46   2.0000      -0.502096       -13.6627
  47   2.0000      -0.498092       -13.5538
  48   2.0000      -0.485022       -13.1981
  49   2.0000      -0.468675       -12.7533
  50   2.0000      -0.460015       -12.5177
  51   2.0000      -0.446704       -12.1554
  52   2.0000      -0.434727       -11.8295
  53   2.0000      -0.429355       -11.6833
  54   2.0000      -0.417355       -11.3568
  55   2.0000      -0.402088       -10.9414
  56   2.0000      -0.397738       -10.8230
  57   2.0000      -0.393665       -10.7122
  58   2.0000      -0.384512       -10.4631
  59   2.0000      -0.382237       -10.4012
  60   2.0000      -0.376222       -10.2375
  61   2.0000      -0.362381        -9.8609
  62   2.0000      -0.348667        -9.4877
  63   2.0000      -0.347297        -9.4504
  64   2.0000      -0.320869        -8.7313
  65   2.0000      -0.293863        -7.9964
  66   2.0000      -0.269929        -7.3452
  67   2.0000      -0.254197        -6.9170
  68   2.0000      -0.198870        -5.4115
  69   2.0000      -0.190587        -5.1861
  70   0.0000       0.095388         2.5956
  71   0.0000       0.097046         2.6407
  72   0.0000       0.105585         2.8731
  73   0.0000       0.109270         2.9734
  74   0.0000       0.112787         3.0691

MULLIKEN ATOMIC CHARGES
-----------------------
   0 C :   -1.030595
   1 N :   -0.547846
   2 H :    0.318955
   3 H :    0.347866
   4 H :    0.344881
   5 C :    0.754941
   6 C :   -1.011982
   7 H :    0.235029
   8 H :    0.301065
   9 H :    0.278511
  10 C :   -0.020434
  11 H :    0.313768
  12 N :   -0.257447
  13 O :   -1.100584
  14 C :    0.646496
  15 C :   -0.220424
  16 O :   -1.099916
  17 H :    0.249443
  18 H :    0.218558
  19 C :    0.915226
  20 H :    0.346876
  21 O :   -1.143080
  22 O :   -0.681070
  23 C :    1.039985
  24 C :    0.795763
  25 O :   -0.946301
  26 O :   -0.515463
  27 N :   -0.867971
  28 H :    0.437391
  29 H :    0.217997
  30 H :    0.101403
  31 H :    0.077606
  32 H :    0.070420
  33 H :    0.430933
Sum of atomic charges:   -1.0000000

LOEWDIN ATOMIC CHARGES
----------------------
   0 C :    0.435134
   1 N :    0.541430
   2 H :   -0.165652
   3 H :   -0.183493
   4 H :   -0.177354
   5 C :   -0.151455
   6 C :    0.589757
   7 H :   -0.176468
   8 H :   -0.175284
   9 H :   -0.154944
  10 C :   -0.633608
  11 H :   -0.133750
  12 N :    0.517414
  13 O :    0.460665
  14 C :   -0.124665
  15 C :   -0.219678
  16 O :    0.333883
  17 H :   -0.198558
  18 H :   -0.198010
  19 C :   -0.819075
  20 H :   -0.153882
  21 O :    0.489273
  22 O :    0.603380
  23 C :   -0.418530
  24 C :   -0.831046
  25 O :    0.453398
  26 O :    0.841225
  27 N :    0.841661
  28 H :   -0.157949
  29 H :   -0.465066
  30 H :   -0.311935
  31 H :   -0.317318
  32 H :   -0.404373
  33 H :   -0.535127

  Mayer bond orders larger than 0.100000
B(  0-C ,  1-N ) :   1.0205 B(  0-C ,  2-H ) :   0.9175 B(  0-C ,  3-H ) :   0.8886
B(  0-C ,  4-H ) :   0.9316 B(  1-N ,  5-C ) :   0.6788 B(  1-N ,  6-C ) :   0.1354
B(  1-N , 10-C ) :   0.1098 B(  1-N , 13-O ) :  -0.1227 B(  1-N , 32-H ) :   0.9104
B(  5-C ,  6-C ) :   0.6640 B(  5-C , 10-C ) :   0.5253 B(  5-C , 11-H ) :   0.8835
B(  6-C ,  7-H ) :   1.0277 B(  6-C ,  8-H ) :   0.9341 B(  6-C ,  9-H ) :   0.9773
B(  6-C , 10-C ) :   0.1263 B( 10-C , 12-N ) :   1.0749 B( 10-C , 13-O ) :   1.0899
B( 10-C , 14-C ) :  -0.2508 B( 12-N , 13-O ) :  -0.1384 B( 12-N , 14-C ) :   0.3332
B( 12-N , 15-C ) :   0.2036 B( 12-N , 19-C ) :   0.2102 B( 12-N , 20-H ) :  -0.1195
B( 12-N , 33-H ) :   0.7300 B( 13-O , 14-C ) :   0.1049 B( 14-C , 15-C ) :   0.6363
B( 14-C , 19-C ) :   0.6129 B( 14-C , 20-H ) :   1.0185 B( 14-C , 22-O ) :  -0.2015
B( 15-C , 16-O ) :   1.0232 B( 15-C , 17-H ) :   0.9781 B( 15-C , 18-H ) :   1.0387
B( 15-C , 19-C ) :   0.1729 B( 19-C , 21-O ) :   0.7431 B( 19-C , 22-O ) :   0.6536
B( 21-O , 23-C ) :   0.1464 B( 22-O , 23-C ) :   0.7719 B( 22-O , 24-C ) :   0.1203
B( 23-C , 24-C ) :   0.5709 B( 23-C , 27-N ) :   0.3367 B( 23-C , 28-H ) :   0.8432
B( 24-C , 25-O ) :   1.1347 B( 24-C , 26-O ) :   0.9224 B( 24-C , 27-N ) :   0.1023
B( 26-O , 29-H ) :   0.9670 B( 27-N , 30-H ) :   0.9997 B( 27-N , 31-H ) :   1.0445

MP2 TOTAL ENERGY:     -966.658392915 Eh
FINAL SINGLE POINT ENERGY      -966.658392915267

DIPOLE MOMENT
-------------
                                X             Y             Z
Electronic contribution:     21.43308      -2.75053      -0.38764
Nuclear contribution   :    -20.46448       1.06997       0.83894
                        -----------------------------------------
Total Dipole Moment    :      0.96860      -1.68056       0.45130
                        -----------------------------------------
Magnitude (a.u.)       :      1.99152
Magnitude (Debye)      :      5.06204

Rotational constants in cm-1:     0.025220     0.006465     0.005763
Rotational constants in MHz :   756.085923   193.803895   172.779983

                             ****ORCA TERMINATED NORMALLY****
TOTAL RUN TIME: 0 days 0 hours 26 minutes 13 seconds 868 msec
