                         Program Version 4.2.1 -  RELEASE  -
|  1> %pal
|  2>  nprocs 32
|  3> end
|  4> !RI-MP2 aug-cc-pVTZ aug-cc-pVTZ/C TightSCF
|  5> %maxcore 4500
|  6> *xyzfile -1 1  02_13R.xyz
|  7>
|  8>
|  9>                          ****END OF INPUT****

CARTESIAN COORDINATES (ANGSTROEM)
---------------------------------
  C      4.957057   -1.808000   -0.059909
  C      3.807836   -2.582513   -0.730649
  H      4.145861   -3.610392   -0.908532
  H      3.590452   -2.152577   -1.711789
  H      5.817660   -1.789882   -0.739669
  H      5.278509   -2.356885    0.832247
  C      2.559111   -2.590098    0.097418
  C      1.438756   -1.957357   -0.230943
  C      3.657433    1.848126   -0.332544
  C      2.369389    2.190200   -0.369385
  C      1.826665    3.427708    0.172042
  C      0.521347    3.691104    0.232320
  C     -0.072713    4.935246    0.811312
  H      0.699773    5.619824    1.170143
  H     -0.735291    4.698392    1.649991
  H     -0.681413    5.465698    0.071421
  C      0.258087   -1.920554    0.697073
  C     -0.758504   -0.931831    0.427523
  O      0.216256   -2.701297    1.645251
  C     -0.770328    0.021606   -0.663995
  C     -1.940888   -0.733240    1.209825
  O     -2.382569   -1.299069    2.200884
  O     -0.014114    0.174536   -1.628022
  C     -2.740270    0.420900    0.564354
  H     -2.867442    1.199172    1.326111
  C     -4.132028   -0.037457    0.109047
  C     -4.057033   -1.165705   -0.924331
  H     -3.591376   -0.790408   -1.842028
  H     -3.390501   -1.941276   -0.541436
  C     -5.407776   -1.793801   -1.255150
  H     -5.899342   -2.157828   -0.348216
  H     -5.285595   -2.645307   -1.929127
  H     -6.085444   -1.087353   -1.741328
  N     -1.859341    0.871561   -0.490215
  H     -2.198168    1.334335   -1.318912
  C     -4.963288    1.148712   -0.380600
  H     -5.998405    0.865409   -0.582925
  H     -4.553898    1.566387   -1.307029
  H     -4.977851    1.946858    0.366205
  H     -4.598415   -0.442134    1.014425
  C      4.167459    0.522466   -0.809162
  H      3.374340    0.039030   -1.381377
  H      5.019361    0.655898   -1.488982
  C      4.589097   -0.382928    0.354103
  H      3.764542   -0.422158    1.069917
  H      5.437029    0.072157    0.879064
  H     -0.176246    2.944226   -0.140939
  H      2.538795    4.153699    0.565040
  H      4.380111    2.525991    0.123218
  H      1.650588    1.501672   -0.810637
  H      2.589404   -3.104345    1.056617
  H      1.355307   -1.397999   -1.154974

 Total Charge           Charge          ....   -1
 Multiplicity           Mult            ....    1
 Number of Electrons    NEL             ....  180
 Basis Dimension        Dim             .... 1748

ORBITAL ENERGIES
----------------

  NO   OCC          E(Eh)            E(eV)
   0   2.0000     -20.375703      -554.4511
   1   2.0000     -20.371267      -554.3304
   2   2.0000     -20.365141      -554.1637
   3   2.0000     -15.442812      -420.2203
   4   2.0000     -11.208405      -304.9962
   5   2.0000     -11.173861      -304.0562
   6   2.0000     -11.172215      -304.0114
   7   2.0000     -11.141628      -303.1791
   8   2.0000     -11.136713      -303.0454
   9   2.0000     -11.129805      -302.8574
  10   2.0000     -11.129371      -302.8456
  11   2.0000     -11.127026      -302.7818
  12   2.0000     -11.126447      -302.7660
  13   2.0000     -11.125692      -302.7455
  14   2.0000     -11.125496      -302.7401
  15   2.0000     -11.124539      -302.7141
  16   2.0000     -11.122210      -302.6507
  17   2.0000     -11.121461      -302.6303
  18   2.0000     -11.120468      -302.6033
  19   2.0000     -11.116754      -302.5023
  20   2.0000     -11.115386      -302.4650
  21   2.0000     -11.112488      -302.3862
  22   2.0000     -11.089056      -301.7485
  23   2.0000     -11.056775      -300.8701
  24   2.0000      -1.239401       -33.7258
  25   2.0000      -1.216514       -33.1030
  26   2.0000      -1.205301       -32.7979
  27   2.0000      -1.113230       -30.2925
  28   2.0000      -1.009565       -27.4717
  29   2.0000      -0.992249       -27.0005
  30   2.0000      -0.987442       -26.8697
  31   2.0000      -0.958918       -26.0935
  32   2.0000      -0.924331       -25.1523
  33   2.0000      -0.903265       -24.5791
  34   2.0000      -0.897266       -24.4159
  35   2.0000      -0.873891       -23.7798
  36   2.0000      -0.835101       -22.7242
  37   2.0000      -0.827525       -22.5181
  38   2.0000      -0.781260       -21.2592
  39   2.0000      -0.767572       -20.8867
  40   2.0000      -0.729362       -19.8469
  41   2.0000      -0.687244       -18.7009
  42   2.0000      -0.677247       -18.4288
  43   2.0000      -0.662266       -18.0212
  44   2.0000      -0.649556       -17.6753
  45   2.0000      -0.639039       -17.3891
  46   2.0000      -0.610912       -16.6238
  47   2.0000      -0.581488       -15.8231
  48   2.0000      -0.557312       -15.1652
  49   2.0000      -0.551780       -15.0147
  50   2.0000      -0.538146       -14.6437
  51   2.0000      -0.532931       -14.5018
  52   2.0000      -0.524187       -14.2639
  53   2.0000      -0.522016       -14.2048
  54   2.0000      -0.514826       -14.0091
  55   2.0000      -0.503272       -13.6947
  56   2.0000      -0.500444       -13.6178
  57   2.0000      -0.486432       -13.2365
  58   2.0000      -0.480965       -13.0877
  59   2.0000      -0.476664       -12.9707
  60   2.0000      -0.468120       -12.7382
  61   2.0000      -0.464011       -12.6264
  62   2.0000      -0.456627       -12.4254
  63   2.0000      -0.448906       -12.2154
  64   2.0000      -0.446361       -12.1461
  65   2.0000      -0.442064       -12.0292
  66   2.0000      -0.436581       -11.8800
  67   2.0000      -0.429662       -11.6917
  68   2.0000      -0.420309       -11.4372
  69   2.0000      -0.414535       -11.2801
  70   2.0000      -0.413074       -11.2403
  71   2.0000      -0.410098       -11.1593
  72   2.0000      -0.394665       -10.7394
  73   2.0000      -0.393902       -10.7186
  74   2.0000      -0.383352       -10.4316
  75   2.0000      -0.378215       -10.2917
  76   2.0000      -0.368726       -10.0335
  77   2.0000      -0.366646        -9.9770
  78   2.0000      -0.363484        -9.8909
  79   2.0000      -0.362841        -9.8734
  80   2.0000      -0.359282        -9.7766
  81   2.0000      -0.346499        -9.4287
  82   2.0000      -0.322534        -8.7766
  83   2.0000      -0.296919        -8.0796
  84   2.0000      -0.273465        -7.4414
  85   2.0000      -0.261697        -7.1211
  86   2.0000      -0.235677        -6.4131
  87   2.0000      -0.232878        -6.3369
  88   2.0000      -0.202801        -5.5185
  89   2.0000      -0.173348        -4.7170
  90   0.0000       0.086197         2.3456
  91   0.0000       0.088327         2.4035
  92   0.0000       0.090157         2.4533
  93   0.0000       0.096039         2.6133
  94   0.0000       0.099574         2.7095

MULLIKEN ATOMIC CHARGES
-----------------------
   0 C :   -0.583709
   1 C :   -0.221790
   2 H :    0.453854
   3 H :    0.036577
   4 H :    0.215221
   5 H :    0.193039
   6 C :   -0.385188
   7 C :   -0.608326
   8 C :   -0.881683
   9 C :    0.196900
  10 C :   -0.490506
  11 C :   -0.333159
  12 C :   -1.028876
  13 H :    0.299788
  14 H :    0.278586
  15 H :    0.279161
  16 C :    1.316275
  17 C :    0.209283
  18 O :   -1.460370
  19 C :    1.377530
  20 C :    1.400123
  21 O :   -1.506397
  22 O :   -1.489790
  23 C :   -0.191030
  24 H :    0.178252
  25 C :    0.425603
  26 C :   -0.481836
  27 H :    0.225341
  28 H :    0.386169
  29 C :   -1.226674
  30 H :    0.256533
  31 H :    0.264511
  32 H :    0.291509
  33 N :   -0.093710
  34 H :   -0.170015
  35 C :   -1.261138
  36 H :    0.260619
  37 H :    0.256254
  38 H :    0.246120
  39 H :    0.319983
  40 C :   -0.067194
  41 H :    0.223232
  42 H :    0.284190
  43 C :   -0.508738
  44 H :    0.315093
  45 H :    0.291801
  46 H :    0.494374
  47 H :    0.185300
  48 H :    0.081872
  49 H :    0.445792
  50 H :    0.065530
  51 H :    0.235715
Sum of atomic charges:   -1.0000000

LOEWDIN ATOMIC CHARGES
----------------------
   0 C :    0.280943
   1 C :    0.257951
   2 H :   -0.150372
   3 H :   -0.166372
   4 H :   -0.146916
   5 H :   -0.147652
   6 C :    0.207441
   7 C :    0.210252
   8 C :    0.224347
   9 C :    0.196344
  10 C :    0.184994
  11 C :    0.209512
  12 C :    0.542302
  13 H :   -0.188657
  14 H :   -0.179588
  15 H :   -0.182020
  16 C :   -0.598060
  17 C :   -0.121553
  18 O :    0.421414
  19 C :   -0.723280
  20 C :   -0.597746
  21 O :    0.426737
  22 O :    0.450172
  23 C :   -0.121486
  24 H :   -0.131578
  25 C :   -0.019487
  26 C :    0.275214
  27 H :   -0.140122
  28 H :   -0.150836
  29 C :    0.581517
  30 H :   -0.163639
  31 H :   -0.171560
  32 H :   -0.184848
  33 N :    0.550166
  34 H :   -0.290040
  35 C :    0.586356
  36 H :   -0.178095
  37 H :   -0.162884
  38 H :   -0.164181
  39 H :   -0.136945
  40 C :    0.249779
  41 H :   -0.183092
  42 H :   -0.141342
  43 C :    0.273527
  44 H :   -0.153291
  45 H :   -0.142765
  46 H :   -0.206581
  47 H :   -0.191164
  48 H :   -0.179459
  49 H :   -0.251395
  50 H :   -0.180255
  51 H :   -0.281705

  Mayer bond orders larger than 0.100000
B(  0-C ,  1-C ) :   0.8858 B(  0-C ,  4-H ) :   1.0027 B(  0-C ,  5-H ) :   0.9845
B(  0-C ,  6-C ) :   0.1048 B(  0-C , 43-C ) :   0.8609 B(  1-C ,  2-H ) :   0.8368
B(  1-C ,  3-H ) :   1.1212 B(  1-C ,  6-C ) :   0.6799 B(  1-C ,  7-C ) :   0.1213
B(  2-H ,  6-C ) :  -0.1707 B(  3-H ,  6-C ) :   0.1574 B(  6-C ,  7-C ) :   1.0962
B(  6-C , 16-C ) :   0.2459 B(  6-C , 50-H ) :   1.2794 B(  7-C , 16-C ) :   0.9433
B(  7-C , 18-O ) :   0.3821 B(  7-C , 50-H ) :  -0.1504 B(  7-C , 51-H ) :   1.3498
B(  8-C ,  9-C ) :   0.8604 B(  8-C , 10-C ) :  -0.1509 B(  8-C , 11-C ) :   0.2674
B(  8-C , 40-C ) :   0.4487 B(  8-C , 42-H ) :  -0.2150 B(  8-C , 48-H ) :   1.5355
B(  8-C , 49-H ) :   0.1206 B(  9-C , 10-C ) :   0.2992 B(  9-C , 11-C ) :  -0.1582
B(  9-C , 46-H ) :  -0.1362 B(  9-C , 48-H ) :  -0.1648 B(  9-C , 49-H ) :   1.1131
B( 10-C , 11-C ) :   1.1984 B( 10-C , 47-H ) :   1.2460 B( 11-C , 12-C ) :   0.8323
B( 11-C , 46-H ) :   0.7101 B( 11-C , 47-H ) :  -0.1149 B( 12-C , 13-H ) :   0.9492
B( 12-C , 14-H ) :   0.9754 B( 12-C , 15-H ) :   1.0022 B( 16-C , 17-C ) :   1.0810
B( 16-C , 18-O ) :  -0.2825 B( 16-C , 19-C ) :  -0.1993 B( 16-C , 20-C ) :   0.4531
B( 17-C , 18-O ) :   0.4404 B( 17-C , 19-C ) :   0.8990 B( 17-C , 20-C ) :   0.8621
B( 17-C , 21-O ) :   0.2366 B( 17-C , 22-O ) :   0.4417 B( 17-C , 23-C ) :   0.3014
B( 17-C , 25-C ) :  -0.1174 B( 17-C , 28-H ) :  -0.1544 B( 17-C , 33-N ) :  -0.1989
B( 18-O , 19-C ) :  -0.1431 B( 18-O , 50-H ) :   0.1350 B( 19-C , 20-C ) :  -0.1334
B( 19-C , 33-N ) :   1.1812 B( 19-C , 34-H ) :   0.2064 B( 20-C , 21-O ) :  -0.2541
B( 20-C , 23-C ) :   1.2816 B( 20-C , 25-C ) :   0.1854 B( 21-O , 23-C ) :   0.1194
B( 23-C , 24-H ) :   0.9093 B( 23-C , 25-C ) :   0.8749 B( 23-C , 33-N ) :   0.8827
B( 23-C , 35-C ) :  -0.1087 B( 24-H , 33-N ) :   0.1100 B( 25-C , 26-C ) :   0.8596
B( 25-C , 35-C ) :   0.5896 B( 25-C , 39-H ) :   0.8209 B( 26-C , 27-H ) :   1.0292
B( 26-C , 28-H ) :   0.8929 B( 26-C , 29-C ) :   0.6232 B( 26-C , 35-C ) :   0.1495
B( 29-C , 30-H ) :   1.0597 B( 29-C , 31-H ) :   1.0326 B( 29-C , 32-H ) :   1.0013
B( 33-N , 34-H ) :   1.1938 B( 35-C , 36-H ) :   1.0493 B( 35-C , 37-H ) :   1.0439
B( 35-C , 38-H ) :   1.0419 B( 40-C , 41-H ) :   0.9986 B( 40-C , 42-H ) :   0.9872
B( 40-C , 43-C ) :   0.8503 B( 41-H , 43-C ) :   0.1003 B( 43-C , 44-H ) :   0.9702
B( 43-C , 45-H ) :   0.9226

MP2 TOTAL ENERGY:    -1057.401964229 Eh
FINAL SINGLE POINT ENERGY     -1057.401964229024

DIPOLE MOMENT
-------------
                                X             Y             Z
Electronic contribution:      1.98347      -8.68361       6.36333
Nuclear contribution   :     -1.46795      10.81933      -7.92644
                        -----------------------------------------
Total Dipole Moment    :      0.51552       2.13572      -1.56311
                        -----------------------------------------
Magnitude (a.u.)       :      2.69637
Magnitude (Debye)      :      6.85362

Rotational constants in cm-1:     0.009813     0.004963     0.003728
Rotational constants in MHz :   294.175576   148.798940   111.753363

                             ****ORCA TERMINATED NORMALLY****
TOTAL RUN TIME: 0 days 1 hours 45 minutes 27 seconds 722 msec
