                         Program Version 4.2.1 -  RELEASE  -
|  1> %pal
|  2>  nprocs 32
|  3> end
|  4> !RI-MP2 aug-cc-pVTZ aug-cc-pVTZ/C TightSCF
|  5> %maxcore 4500
|  6> *xyzfile 0 2  01_13R.xyz
|  7>
|  8>
|  9>                          ****END OF INPUT****

CARTESIAN COORDINATES (ANGSTROEM)
---------------------------------
  C      3.294507   -0.534173    0.090292
  N      1.962330   -0.339911   -0.399068
  H      3.794987   -1.327251   -0.464887
  H      3.284568   -0.803896    1.157087
  H      3.889554    0.387642    0.005910
  C      1.279427    0.728567    0.271241
  C     -0.157685    0.876530   -0.205719
  H      1.833159    1.667363    0.105665
  H      1.303708    0.562204    1.362055
  C     -1.013293   -0.345889    0.130267
  H     -0.150804    1.034404   -1.288398
  H     -0.600046    1.770080    0.244866
  C     -2.401419   -0.245512   -0.419712
  H     -1.056198   -0.480263    1.216329
  H     -0.517530   -1.229937   -0.283615
  C     -3.512742   -0.239524    0.302590
  H     -4.490263   -0.159568   -0.157514
  H     -3.483793   -0.319291    1.384747
  H     -2.476417   -0.162104   -1.502532

 Total Charge           Charge          ....    0
 Multiplicity           Mult            ....    2
 Number of Electrons    NEL             ....   55
 Basis Dimension        Dim             ....  598

ORBITAL ENERGIES
----------------
                 SPIN UP ORBITALS
  NO   OCC          E(Eh)            E(eV)
   0   1.0000     -15.578295      -423.9070
   1   1.0000     -11.249762      -306.1216
   2   1.0000     -11.246599      -306.0355
   3   1.0000     -11.227392      -305.5129
   4   1.0000     -11.219581      -305.3003
   5   1.0000     -11.218687      -305.2760
   6   1.0000     -11.213918      -305.1462
   7   1.0000      -1.235319       -33.6147
   8   1.0000      -1.084270       -29.5045
   9   1.0000      -1.018335       -27.7103
  10   1.0000      -0.934955       -25.4414
  11   1.0000      -0.867543       -23.6070
  12   1.0000      -0.792682       -21.5700
  13   1.0000      -0.754178       -20.5222
  14   1.0000      -0.668996       -18.2043
  15   1.0000      -0.652988       -17.7687
  16   1.0000      -0.618284       -16.8244
  17   1.0000      -0.616251       -16.7691
  18   1.0000      -0.594988       -16.1904
  19   1.0000      -0.562749       -15.3132
  20   1.0000      -0.545586       -14.8461
  21   1.0000      -0.516821       -14.0634
  22   1.0000      -0.496385       -13.5073
  23   1.0000      -0.478330       -13.0160
  24   1.0000      -0.469084       -12.7644
  25   1.0000      -0.429019       -11.6742
  26   1.0000      -0.418955       -11.4004
  27   1.0000      -0.355621        -9.6769
  28   0.0000       0.028832         0.7846
  29   0.0000       0.034675         0.9436
  30   0.0000       0.037142         1.0107
  31   0.0000       0.038319         1.0427
  32   0.0000       0.047963         1.3051

                 SPIN DOWN ORBITALS
  NO   OCC          E(Eh)            E(eV)
   0   1.0000     -15.546428      -423.0398
   1   1.0000     -11.252809      -306.2045
   2   1.0000     -11.249658      -306.1187
   3   1.0000     -11.227471      -305.5150
   4   1.0000     -11.219479      -305.2975
   5   1.0000     -11.218670      -305.2755
   6   1.0000     -11.213837      -305.1440
   7   1.0000      -1.162398       -31.6305
   8   1.0000      -1.080819       -29.4106
   9   1.0000      -1.015291       -27.6275
  10   1.0000      -0.932946       -25.3868
  11   1.0000      -0.849071       -23.1044
  12   1.0000      -0.769315       -20.9341
  13   1.0000      -0.753396       -20.5009
  14   1.0000      -0.649207       -17.6658
  15   1.0000      -0.624718       -16.9994
  16   1.0000      -0.612813       -16.6755
  17   1.0000      -0.601311       -16.3625
  18   1.0000      -0.580188       -15.7877
  19   1.0000      -0.555834       -15.1250
  20   1.0000      -0.538344       -14.6491
  21   1.0000      -0.515554       -14.0289
  22   1.0000      -0.489167       -13.3109
  23   1.0000      -0.475580       -12.9412
  24   1.0000      -0.467618       -12.7245
  25   1.0000      -0.396512       -10.7896
  26   1.0000      -0.355278        -9.6676
  27   0.0000       0.029043         0.7903
  28   0.0000       0.034696         0.9441
  29   0.0000       0.037056         1.0083
  30   0.0000       0.038315         1.0426
  31   0.0000       0.047815         1.3011

MULLIKEN ATOMIC CHARGES AND SPIN POPULATIONS
--------------------------------------------
   0 C :   -0.948897   -0.150670
   1 N :   -0.568772    1.083942
   2 H :    0.356855    0.005537
   3 H :    0.337942    0.055994
   4 H :    0.330310    0.053566
   5 C :   -0.155359   -0.192740
   6 C :   -0.506498    0.023423
   7 H :    0.346642    0.070694
   8 H :    0.262785    0.059714
   9 C :   -0.034930    0.001718
  10 H :    0.214005   -0.006544
  11 H :    0.306248   -0.003419
  12 C :   -0.287501   -0.004724
  13 H :    0.137350   -0.000226
  14 H :    0.343182   -0.000770
  15 C :   -1.055418    0.004326
  16 H :    0.497244   -0.000198
  17 H :    0.233791   -0.000293
  18 H :    0.191023    0.000667
Sum of atomic charges         :    0.0000000

LOEWDIN ATOMIC CHARGES AND SPIN POPULATIONS
-------------------------------------------
   0 C :    0.383508    0.111599
   1 N :    0.434743    0.701904
   2 H :   -0.194475   -0.003547
   3 H :   -0.175167    0.020505
   4 H :   -0.175769    0.019116
   5 C :    0.069629    0.111369
   6 C :    0.257881   -0.001503
   7 H :   -0.147222    0.021244
   8 H :   -0.146561    0.017786
   9 C :    0.232898    0.000871
  10 H :   -0.147033   -0.000606
  11 H :   -0.143152   -0.000648
  12 C :    0.176214   -0.001118
  13 H :   -0.154781   -0.000040
  14 H :   -0.158366    0.001298
  15 C :    0.520288    0.001359
  16 H :   -0.230069    0.000385
  17 H :   -0.222101    0.000378
  18 H :   -0.180465   -0.000350

  Mayer bond orders larger than 0.100000
B(  0-C ,  1-N ) :   1.0337 B(  0-C ,  2-H ) :   0.9150 B(  0-C ,  3-H ) :   0.8816
B(  0-C ,  4-H ) :   0.8809 B(  1-N ,  5-C ) :   0.7471 B(  5-C ,  6-C ) :   0.9274
B(  5-C ,  7-H ) :   0.8893 B(  5-C ,  8-H ) :   0.9365 B(  6-C ,  9-C ) :   0.9156
B(  6-C , 10-H ) :   0.9648 B(  6-C , 11-H ) :   0.9633 B(  9-C , 12-C ) :   0.7320
B(  9-C , 13-H ) :   0.9997 B(  9-C , 14-H ) :   0.9168 B( 12-C , 15-C ) :   1.3904
B( 12-C , 18-H ) :   1.1425 B( 15-C , 16-H ) :   0.6542 B( 15-C , 17-H ) :   1.1201

MP2 TOTAL ENERGY:     -289.893247656 Eh
FINAL SINGLE POINT ENERGY      -289.893247656243

DIPOLE MOMENT
-------------
                                X             Y             Z
Electronic contribution:     -0.94190      -0.64860      -1.46516
Nuclear contribution   :      1.41253       0.98633       1.87016
                        -----------------------------------------
Total Dipole Moment    :      0.47063       0.33772       0.40500
                        -----------------------------------------
Magnitude (a.u.)       :      0.70681
Magnitude (Debye)      :      1.79656

Rotational constants in cm-1:     0.315553     0.031312     0.030337
Rotational constants in MHz :  9460.034990   938.699038   909.466148

                             ****ORCA TERMINATED NORMALLY****
TOTAL RUN TIME: 0 days 0 hours 4 minutes 50 seconds 356 msec
