                         Program Version 4.2.1 -  RELEASE  -
|  1> %pal
|  2>  nprocs 32
|  3> end
|  4> !RI-MP2 aug-cc-pVTZ aug-cc-pVTZ/C TightSCF
|  5> %maxcore 4500
|  6> *xyzfile 0 1  08_2P1.xyz
|  7>
|  8>
|  9>                          ****END OF INPUT****

CARTESIAN COORDINATES (ANGSTROEM)
---------------------------------
  Cl     0.659402    0.000000    0.000000
  C     -1.130674    0.000000    0.000000
  H     -1.475263   -0.580448    0.850841
  H     -1.475264   -0.446627   -0.928102
  H     -1.475262    1.027075    0.077262

 Total Charge           Charge          ....    0
 Multiplicity           Mult            ....    1
 Number of Electrons    NEL             ....   26
 Basis Dimension        Dim             ....  165

ORBITAL ENERGIES
----------------

  NO   OCC          E(Eh)            E(eV)
   0   2.0000    -104.826476     -2852.4734
   1   2.0000     -11.291857      -307.2670
   2   2.0000     -10.550629      -287.0972
   3   2.0000      -8.017517      -218.1677
   4   2.0000      -8.015672      -218.1175
   5   2.0000      -8.015672      -218.1175
   6   2.0000      -1.126034       -30.6410
   7   2.0000      -0.915928       -24.9237
   8   2.0000      -0.617708       -16.8087
   9   2.0000      -0.617708       -16.8087
  10   2.0000      -0.544355       -14.8126
  11   2.0000      -0.435948       -11.8627
  12   2.0000      -0.435948       -11.8627
  13   0.0000       0.028141         0.7658
  14   0.0000       0.046183         1.2567
  15   0.0000       0.046183         1.2567
  16   0.0000       0.065300         1.7769
  17   0.0000       0.115820         3.1516

MULLIKEN ATOMIC CHARGES
-----------------------
   0 Cl:   -0.242995
   1 C :   -0.670388
   2 H :    0.304461
   3 H :    0.304461
   4 H :    0.304461
Sum of atomic charges:    0.0000000

LOEWDIN ATOMIC CHARGES
----------------------
   0 Cl:    0.809440
   1 C :    0.004127
   2 H :   -0.271189
   3 H :   -0.271189
   4 H :   -0.271188

  Mayer bond orders larger than 0.100000
B(  0-Cl,  1-C ) :   0.8848 B(  1-C ,  2-H ) :   0.9072 B(  1-C ,  3-H ) :   0.9072
B(  1-C ,  4-H ) :   0.9072

MP2 TOTAL ENERGY:     -499.529156558 Eh
FINAL SINGLE POINT ENERGY      -499.529156557534

DIPOLE MOMENT
-------------
                                X             Y             Z
Electronic contribution:      4.34501      -0.00000      -0.00000
Nuclear contribution   :     -5.19283       0.00000       0.00000
                        -----------------------------------------
Total Dipole Moment    :     -0.84782      -0.00000       0.00000
                        -----------------------------------------
Magnitude (a.u.)       :      0.84782
Magnitude (Debye)      :      2.15499

Rotational constants in cm-1:     5.254857     0.439093     0.439093
Rotational constants in MHz : 157536.646465 13163.674983 13163.673081

                             ****ORCA TERMINATED NORMALLY****
TOTAL RUN TIME: 0 days 0 hours 0 minutes 11 seconds 586 msec
