                         Program Version 4.2.1 -  RELEASE  -
|  1> %pal
|  2>  nprocs 32
|  3> end
|  4> !RI-MP2 aug-cc-pVTZ aug-cc-pVTZ/C TightSCF
|  5> %maxcore 4500
|  6> *xyzfile 1 1  08_8TS.xyz
|  7>
|  8>
|  9>                          ****END OF INPUT****

CARTESIAN COORDINATES (ANGSTROEM)
---------------------------------
  N     -2.226533   -0.667593   -1.574676
  C     -3.373811   -1.131618   -0.805416
  C     -3.041896   -1.195320    0.676761
  H     -3.710459   -2.126723   -1.121973
  H     -4.215356   -0.447020   -0.947861
  O     -1.972693   -0.895213    1.126261
  O     -4.024456   -1.614571    1.476205
  C     -1.308376    1.138508   -1.097637
  S      0.126429    2.826570   -0.401844
  H     -0.544748    0.852360   -1.794449
  H     -2.123797    1.772316   -1.412601
  H     -1.280163    0.755666   -0.094230
  H     -4.829792   -1.842497    0.995999
  C      1.098153    1.737722    0.690802
  C     -0.875267    3.661187    0.851085
  H     -1.569042    4.319330    0.330714
  H     -0.234610    4.260880    1.495302
  H     -1.428293    2.934417    1.446144
  C      2.095011    0.894796   -0.086896
  H      0.413951    1.099781    1.249422
  H      1.633518    2.373516    1.397671
  C      2.729703   -0.209701    0.759987
  O      1.448717    0.230869   -1.186716
  H      2.877014    1.533669   -0.506276
  C      1.662968   -1.169936   -1.168904
  C      2.903308   -1.333139   -0.268677
  O      2.930336   -2.603931    0.342782
  H      3.800950   -1.155821   -0.866254
  O      1.827951   -0.616489    1.766033
  H      3.678214    0.115881    1.197101
  N      0.459591   -1.851520   -0.727421
  H      1.872559   -1.490582   -2.190295
  H      2.104877   -1.487674    2.076758
  H      3.810659   -2.985439    0.299365
  H     -2.430171   -0.685895   -2.568877
  H     -1.384759   -1.238048   -1.395780
  H      0.600196   -2.854850   -0.806035
  H      0.287371   -1.654897    0.257178

 Total Charge           Charge          ....    1
 Multiplicity           Mult            ....    1
 Number of Electrons    NEL             ....  144
 Basis Dimension        Dim             .... 1269

ORBITAL ENERGIES
----------------

  NO   OCC          E(Eh)            E(eV)
   0   2.0000     -92.101976     -2506.2222
   1   2.0000     -20.733120      -564.1769
   2   2.0000     -20.686247      -562.9014
   3   2.0000     -20.680527      -562.7458
   4   2.0000     -20.670261      -562.4664
   5   2.0000     -20.669828      -562.4546
   6   2.0000     -15.708931      -427.4617
   7   2.0000     -15.658650      -426.0935
   8   2.0000     -11.512288      -313.2653
   9   2.0000     -11.441548      -311.3403
  10   2.0000     -11.426693      -310.9361
  11   2.0000     -11.417055      -310.6738
  12   2.0000     -11.412170      -310.5409
  13   2.0000     -11.402704      -310.2833
  14   2.0000     -11.400059      -310.2114
  15   2.0000     -11.381037      -309.6938
  16   2.0000     -11.377161      -309.5883
  17   2.0000      -9.101684      -247.6694
  18   2.0000      -6.782707      -184.5668
  19   2.0000      -6.781956      -184.5464
  20   2.0000      -6.781276      -184.5279
  21   2.0000      -1.590026       -43.2668
  22   2.0000      -1.526104       -41.5274
  23   2.0000      -1.493904       -40.6512
  24   2.0000      -1.493717       -40.6461
  25   2.0000      -1.471910       -40.0527
  26   2.0000      -1.346054       -36.6280
  27   2.0000      -1.295299       -35.2469
  28   2.0000      -1.219373       -33.1808
  29   2.0000      -1.161380       -31.6028
  30   2.0000      -1.124202       -30.5911
  31   2.0000      -1.116693       -30.3868
  32   2.0000      -1.080714       -29.4077
  33   2.0000      -1.040308       -28.3082
  34   2.0000      -0.958644       -26.0860
  35   2.0000      -0.955110       -25.9899
  36   2.0000      -0.934333       -25.4245
  37   2.0000      -0.901767       -24.5383
  38   2.0000      -0.872213       -23.7341
  39   2.0000      -0.852976       -23.2106
  40   2.0000      -0.832965       -22.6661
  41   2.0000      -0.815588       -22.1933
  42   2.0000      -0.810218       -22.0472
  43   2.0000      -0.803299       -21.8589
  44   2.0000      -0.791701       -21.5433
  45   2.0000      -0.782467       -21.2920
  46   2.0000      -0.773130       -21.0379
  47   2.0000      -0.757103       -20.6018
  48   2.0000      -0.747523       -20.3411
  49   2.0000      -0.737382       -20.0652
  50   2.0000      -0.729605       -19.8536
  51   2.0000      -0.722085       -19.6489
  52   2.0000      -0.716626       -19.5004
  53   2.0000      -0.712406       -19.3855
  54   2.0000      -0.702263       -19.1096
  55   2.0000      -0.693594       -18.8736
  56   2.0000      -0.690425       -18.7874
  57   2.0000      -0.687644       -18.7118
  58   2.0000      -0.662167       -18.0185
  59   2.0000      -0.653633       -17.7863
  60   2.0000      -0.639598       -17.4044
  61   2.0000      -0.627049       -17.0629
  62   2.0000      -0.617743       -16.8096
  63   2.0000      -0.606437       -16.5020
  64   2.0000      -0.604364       -16.4456
  65   2.0000      -0.579681       -15.7739
  66   2.0000      -0.573607       -15.6086
  67   2.0000      -0.566070       -15.4035
  68   2.0000      -0.557727       -15.1765
  69   2.0000      -0.547871       -14.9083
  70   2.0000      -0.510182       -13.8828
  71   2.0000      -0.474056       -12.8997
  72   0.0000      -0.067739        -1.8433
  73   0.0000      -0.055217        -1.5025
  74   0.0000      -0.051746        -1.4081
  75   0.0000      -0.050437        -1.3725
  76   0.0000      -0.040176        -1.0932

MULLIKEN ATOMIC CHARGES
-----------------------
   0 N :   -0.336495
   1 C :   -0.060632
   2 C :    0.353719
   3 H :    0.359829
   4 H :    0.320920
   5 O :   -0.543790
   6 O :   -0.566718
   7 C :   -0.953589
   8 S :   -0.392264
   9 H :    0.530003
  10 H :    0.458302
  11 H :    0.678615
  12 H :    0.170698
  13 C :   -0.194646
  14 C :   -0.921194
  15 H :    0.295731
  16 H :    0.266193
  17 H :    0.304281
  18 C :    0.244882
  19 H :    0.262688
  20 H :    0.494410
  21 C :   -0.028476
  22 O :   -0.803318
  23 H :    0.327893
  24 C :    0.213683
  25 C :    0.375680
  26 O :   -0.716355
  27 H :    0.386490
  28 O :   -0.702823
  29 H :    0.488603
  30 N :   -0.401615
  31 H :    0.384812
  32 H :    0.097968
  33 H :    0.098473
  34 H :    0.010575
  35 H :    0.455391
  36 H :   -0.023262
  37 H :    0.065337
Sum of atomic charges:    1.0000000

LOEWDIN ATOMIC CHARGES
----------------------
   0 N :    0.814539
   1 C :    0.219658
   2 C :   -0.756012
   3 H :   -0.133732
   4 H :   -0.136864
   5 O :    0.508090
   6 O :    0.862992
   7 C :    0.660610
   8 S :    1.366143
   9 H :   -0.290621
  10 H :   -0.173953
  11 H :   -0.328984
  12 H :   -0.453295
  13 C :    0.040725
  14 C :    0.332872
  15 H :   -0.228113
  16 H :   -0.220794
  17 H :   -0.217952
  18 C :   -0.266929
  19 H :   -0.235367
  20 H :   -0.181289
  21 C :   -0.207100
  22 O :    0.617693
  23 H :   -0.132153
  24 C :   -0.323201
  25 C :   -0.198724
  26 O :    0.862836
  27 H :   -0.117614
  28 O :    0.866305
  29 H :   -0.115040
  30 N :    0.880120
  31 H :   -0.129840
  32 H :   -0.485638
  33 H :   -0.450808
  34 H :   -0.237489
  35 H :   -0.379052
  36 H :   -0.285495
  37 H :   -0.346524

  Mayer bond orders larger than 0.100000
B(  0-N ,  1-C ) :   0.9748 B(  0-N ,  7-C ) :   0.1100 B(  0-N ,  9-H ) :   0.1014
B(  0-N , 11-H ) :   0.1127 B(  0-N , 34-H ) :   1.1658 B(  0-N , 35-H ) :   0.6916
B(  1-C ,  2-C ) :   0.6298 B(  1-C ,  3-H ) :   0.8673 B(  1-C ,  4-H ) :   0.8963
B(  1-C ,  6-O ) :  -0.1340 B(  2-C ,  5-O ) :   1.7503 B(  2-C ,  6-O ) :   0.8577
B(  2-C , 12-H ) :   0.1014 B(  5-O ,  6-O ) :  -0.1765 B(  5-O , 11-H ) :  -0.1333
B(  6-O , 12-H ) :   1.0092 B(  7-C ,  8-S ) :   0.4445 B(  7-C ,  9-H ) :   0.7182
B(  7-C , 10-H ) :   0.8363 B(  7-C , 11-H ) :   0.5378 B(  8-S , 13-C ) :   0.7973
B(  8-S , 14-C ) :   0.9887 B(  8-S , 20-H ) :  -0.1301 B( 13-C , 18-C ) :   0.9688
B( 13-C , 19-H ) :   1.0318 B( 13-C , 20-H ) :   0.6737 B( 14-C , 15-H ) :   0.9590
B( 14-C , 16-H ) :   0.9730 B( 14-C , 17-H ) :   0.8991 B( 18-C , 21-C ) :   1.0337
B( 18-C , 22-O ) :   0.6901 B( 18-C , 23-H ) :   0.8849 B( 18-C , 28-O ) :   0.1368
B( 21-C , 25-C ) :   1.1092 B( 21-C , 26-O ) :   0.1485 B( 21-C , 28-O ) :   0.6453
B( 21-C , 29-H ) :   0.7589 B( 22-O , 24-C ) :   0.8101 B( 22-O , 25-C ) :   0.1663
B( 24-C , 25-C ) :   1.0341 B( 24-C , 26-O ) :   0.1987 B( 24-C , 30-N ) :   0.7060
B( 24-C , 31-H ) :   0.8644 B( 25-C , 26-O ) :   0.2293 B( 25-C , 27-H ) :   0.8660
B( 25-C , 30-N ) :   0.1080 B( 26-O , 33-H ) :   1.1016 B( 28-O , 32-H ) :   1.0405
B( 30-N , 36-H ) :   1.0775 B( 30-N , 37-H ) :   1.1383

MP2 TOTAL ENERGY:    -1237.246143282 Eh
FINAL SINGLE POINT ENERGY     -1237.246143281962

DIPOLE MOMENT
-------------
                                X             Y             Z
Electronic contribution:      1.55455      -1.88006       1.46555
Nuclear contribution   :     -2.71257       1.88028      -2.93671
                        -----------------------------------------
Total Dipole Moment    :     -1.15802       0.00022      -1.47117
                        -----------------------------------------
Magnitude (a.u.)       :      1.87226
Magnitude (Debye)      :      4.75890

Rotational constants in cm-1:     0.014665     0.010505     0.007683
Rotational constants in MHz :   439.658163   314.942333   230.323982

                             ****ORCA TERMINATED NORMALLY****
TOTAL RUN TIME: 0 days 0 hours 42 minutes 25 seconds 884 msec
