                         Program Version 4.2.1 -  RELEASE  -
|  1> %pal
|  2>  nprocs 32
|  3> end
|  4> !RI-MP2 aug-cc-pVTZ aug-cc-pVTZ/C TightSCF
|  5> %maxcore 4500
|  6> *xyzfile -1 1  09_8TS.xyz
|  7>
|  8>
|  9>                          ****END OF INPUT****

CARTESIAN COORDINATES (ANGSTROEM)
---------------------------------
  C     -3.270114   -0.740313    0.974856
  C     -2.687281   -0.019900   -0.241352
  C     -1.495945   -0.530733   -0.783230
  O     -3.250506    1.037732   -0.594475
  C     -0.079280    0.650163    0.408550
  C      1.240151    0.348215    0.237267
  C      2.004874   -0.504483   -0.391051
  O      3.401352   -0.554795   -0.359058
  C      4.005996    0.431133    0.435634
  H     -3.232132   -0.067239    1.837416
  H     -4.323310   -0.963422    0.785780
  H     -2.742687   -1.664638    1.220322
  H     -1.169808   -0.148412   -1.743572
  H     -1.182308   -1.536234   -0.527360
  H     -0.491037    1.548472   -0.040704
  H     -0.538279    0.402254    1.361314
  H      1.648510   -1.305088   -1.039993
  H      5.084346    0.273817    0.363778
  H      3.747204    1.437589    0.087008
  H      3.682347    0.354924    1.480234

 Total Charge           Charge          ....   -1
 Multiplicity           Mult            ....    1
 Number of Electrons    NEL             ....   70
 Basis Dimension        Dim             ....  667

ORBITAL ENERGIES
----------------

  NO   OCC          E(Eh)            E(eV)
   0   2.0000     -20.431222      -555.9618
   1   2.0000     -20.332298      -553.2700
   2   2.0000     -11.144282      -303.2513
   3   2.0000     -11.137975      -303.0797
   4   2.0000     -11.122767      -302.6659
   5   2.0000     -11.121930      -302.6431
   6   2.0000     -11.082140      -301.5604
   7   2.0000     -11.036796      -300.3265
   8   2.0000     -11.028424      -300.0987
   9   2.0000      -1.247607       -33.9491
  10   2.0000      -1.167201       -31.7612
  11   2.0000      -0.902243       -24.5513
  12   2.0000      -0.863082       -23.4857
  13   2.0000      -0.822534       -22.3823
  14   2.0000      -0.777829       -21.1658
  15   2.0000      -0.741965       -20.1899
  16   2.0000      -0.583299       -15.8724
  17   2.0000      -0.554340       -15.0844
  18   2.0000      -0.530821       -14.4444
  19   2.0000      -0.506102       -13.7717
  20   2.0000      -0.483413       -13.1543
  21   2.0000      -0.469193       -12.7674
  22   2.0000      -0.458355       -12.4725
  23   2.0000      -0.442169       -12.0320
  24   2.0000      -0.436241       -11.8707
  25   2.0000      -0.417691       -11.3660
  26   2.0000      -0.389473       -10.5981
  27   2.0000      -0.365297        -9.9402
  28   2.0000      -0.352129        -9.5819
  29   2.0000      -0.346327        -9.4240
  30   2.0000      -0.325676        -8.8621
  31   2.0000      -0.244855        -6.6628
  32   2.0000      -0.228713        -6.2236
  33   2.0000      -0.176263        -4.7963
  34   2.0000      -0.095612        -2.6017
  35   0.0000       0.105135         2.8609
  36   0.0000       0.113610         3.0915
  37   0.0000       0.122907         3.3445
  38   0.0000       0.125433         3.4132
  39   0.0000       0.130028         3.5382

MULLIKEN ATOMIC CHARGES
-----------------------
   0 C :   -0.900697
   1 C :    0.767204
   2 C :   -0.838997
   3 O :   -1.171137
   4 C :   -0.666019
   5 C :    0.292271
   6 C :   -0.534912
   7 O :   -0.570048
   8 C :   -0.853981
   9 H :    0.250837
  10 H :    0.266969
  11 H :    0.287274
  12 H :    0.411460
  13 H :    0.290431
  14 H :    0.291702
  15 H :    0.281467
  16 H :    0.400090
  17 H :    0.379164
  18 H :    0.308628
  19 H :    0.308293
Sum of atomic charges:   -1.0000000

LOEWDIN ATOMIC CHARGES
----------------------
   0 C :    0.520761
   1 C :   -0.725848
   2 C :    0.338526
   3 O :    0.331021
   4 C :    0.321768
   5 C :    0.034670
   6 C :   -0.188509
   7 O :    0.480796
   8 C :    0.235203
   9 H :   -0.189848
  10 H :   -0.194119
  11 H :   -0.201365
  12 H :   -0.233490
  13 H :   -0.248188
  14 H :   -0.217701
  15 H :   -0.218380
  16 H :   -0.238608
  17 H :   -0.206223
  18 H :   -0.199976
  19 H :   -0.200488

  Mayer bond orders larger than 0.100000
B(  0-C ,  1-C ) :   0.7973 B(  0-C ,  9-H ) :   0.9519 B(  0-C , 10-H ) :   1.0065
B(  0-C , 11-H ) :   0.9398 B(  1-C ,  2-C ) :   1.1471 B(  1-C ,  3-O ) :   0.8306
B(  2-C ,  4-C ) :   0.5470 B(  2-C ,  5-C ) :  -0.1131 B(  2-C , 12-H ) :   0.8180
B(  2-C , 13-H ) :   0.9653 B(  4-C ,  5-C ) :   1.3091 B(  4-C , 14-H ) :   0.9582
B(  4-C , 15-H ) :   0.9715 B(  5-C ,  6-C ) :   1.1356 B(  5-C ,  7-O ) :  -0.1174
B(  6-C ,  7-O ) :   0.6322 B(  6-C , 16-H ) :   0.9616 B(  7-O ,  8-C ) :   0.9857
B(  8-C , 17-H ) :   0.8702 B(  8-C , 18-H ) :   0.9180 B(  8-C , 19-H ) :   0.9176

MP2 TOTAL ENERGY:     -422.923293358 Eh
FINAL SINGLE POINT ENERGY      -422.923293358160

DIPOLE MOMENT
-------------
                                X             Y             Z
Electronic contribution:      0.82515       0.97904      -2.93866
Nuclear contribution   :      0.49447      -1.69202       3.84104
                        -----------------------------------------
Total Dipole Moment    :      1.31962      -0.71298       0.90238
                        -----------------------------------------
Magnitude (a.u.)       :      1.75044
Magnitude (Debye)      :      4.44926

Rotational constants in cm-1:     0.161458     0.016841     0.016701
Rotational constants in MHz :  4840.375236   504.891708   500.683105

                             ****ORCA TERMINATED NORMALLY****
TOTAL RUN TIME: 0 days 0 hours 3 minutes 50 seconds 951 msec
