                         Program Version 4.2.1 -  RELEASE  -
|  1> %pal
|  2>  nprocs 32
|  3> end
|  4> !RI-MP2 aug-cc-pVTZ aug-cc-pVTZ/C TightSCF
|  5> %maxcore 4500
|  6> *xyzfile 0 1  03_11P2.xyz
|  7>
|  8>
|  9>                          ****END OF INPUT****

CARTESIAN COORDINATES (ANGSTROEM)
---------------------------------
  C      0.360813    0.000001    0.000003
  C      0.810826   -1.172414    0.856287
  C      0.810816    1.327778    0.587201
  C      0.810846   -0.155355   -1.443475
  H      0.446637   -1.072307    1.879133
  H      1.903668   -1.204515    0.879791
  H      0.446704   -2.116297    0.449634
  H      0.446640    1.447591    1.607930
  H      0.446665    2.163514   -0.010969
  H      1.903656    1.364163    0.603312
  H      0.446659   -1.091220   -1.868203
  H      1.903688   -0.159662   -1.482987
  H      0.446744    0.668754   -2.057595
  Cl    -1.479462   -0.000005   -0.000008

 Total Charge           Charge          ....    0
 Multiplicity           Mult            ....    1
 Number of Electrons    NEL             ....   50
 Basis Dimension        Dim             ....  441

ORBITAL ENERGIES
----------------

  NO   OCC          E(Eh)            E(eV)
   0   2.0000    -104.808822     -2851.9930
   1   2.0000     -11.306004      -307.6520
   2   2.0000     -11.228254      -305.5363
   3   2.0000     -11.228254      -305.5363
   4   2.0000     -11.228234      -305.5358
   5   2.0000     -10.533428      -286.6291
   6   2.0000      -8.000091      -217.6935
   7   2.0000      -7.998503      -217.6503
   8   2.0000      -7.998503      -217.6503
   9   2.0000      -1.154178       -31.4068
  10   2.0000      -1.023872       -27.8610
  11   2.0000      -0.952891       -25.9295
  12   2.0000      -0.952890       -25.9294
  13   2.0000      -0.752956       -20.4890
  14   2.0000      -0.633409       -17.2359
  15   2.0000      -0.621824       -16.9207
  16   2.0000      -0.621823       -16.9207
  17   2.0000      -0.560808       -15.2604
  18   2.0000      -0.560806       -15.2603
  19   2.0000      -0.529291       -14.4027
  20   2.0000      -0.499509       -13.5923
  21   2.0000      -0.499508       -13.5923
  22   2.0000      -0.474742       -12.9184
  23   2.0000      -0.424211       -11.5434
  24   2.0000      -0.424211       -11.5434
  25   0.0000       0.028153         0.7661
  26   0.0000       0.038378         1.0443
  27   0.0000       0.038378         1.0443
  28   0.0000       0.045280         1.2321
  29   0.0000       0.059068         1.6073

MULLIKEN ATOMIC CHARGES
-----------------------
   0 C :    1.121469
   1 C :   -1.064145
   2 C :   -1.064144
   3 C :   -1.064145
   4 H :    0.304655
   5 H :    0.277317
   6 H :    0.304643
   7 H :    0.304651
   8 H :    0.304645
   9 H :    0.277319
  10 H :    0.304656
  11 H :    0.277317
  12 H :    0.304644
  13 Cl:   -0.588881
Sum of atomic charges:   -0.0000000

LOEWDIN ATOMIC CHARGES
----------------------
   0 C :   -0.881845
   1 C :    0.490809
   2 C :    0.490810
   3 C :    0.490811
   4 H :   -0.175421
   5 H :   -0.160880
   6 H :   -0.175423
   7 H :   -0.175423
   8 H :   -0.175424
   9 H :   -0.160881
  10 H :   -0.175422
  11 H :   -0.160882
  12 H :   -0.175419
  13 Cl:    0.944590

  Mayer bond orders larger than 0.100000
B(  0-C ,  1-C ) :   0.6631 B(  0-C ,  2-C ) :   0.6631 B(  0-C ,  3-C ) :   0.6631
B(  0-C , 13-Cl) :   0.4861 B(  1-C ,  4-H ) :   0.9723 B(  1-C ,  5-H ) :   0.9223
B(  1-C ,  6-H ) :   0.9723 B(  2-C ,  7-H ) :   0.9723 B(  2-C ,  8-H ) :   0.9723
B(  2-C ,  9-H ) :   0.9223 B(  3-C , 10-H ) :   0.9723 B(  3-C , 11-H ) :   0.9223
B(  3-C , 12-H ) :   0.9723

MP2 TOTAL ENERGY:     -617.219671552 Eh
FINAL SINGLE POINT ENERGY      -617.219671551648

DIPOLE MOMENT
-------------
                                X             Y             Z
Electronic contribution:     -9.65657      -0.00003      -0.00005
Nuclear contribution   :     10.65916       0.00003       0.00006
                        -----------------------------------------
Total Dipole Moment    :      1.00259       0.00000       0.00001
                        -----------------------------------------
Magnitude (a.u.)       :      1.00259
Magnitude (Debye)      :      2.54839

Rotational constants in cm-1:     0.151887     0.099552     0.099552
Rotational constants in MHz :  4553.466841  2984.507469  2984.498430

                             ****ORCA TERMINATED NORMALLY****
TOTAL RUN TIME: 0 days 0 hours 1 minutes 14 seconds 353 msec
