                         Program Version 4.2.1 -  RELEASE  -
|  1> %pal
|  2>  nprocs 32
|  3> end
|  4> !RI-MP2 aug-cc-pVTZ aug-cc-pVTZ/C TightSCF
|  5> %maxcore 4500
|  6> *xyzfile 0 2  01_7R.xyz
|  7>
|  8>
|  9>                          ****END OF INPUT****

CARTESIAN COORDINATES (ANGSTROEM)
---------------------------------
  C     -3.038518   -0.418864   -0.141486
  C     -1.838551    0.453372   -0.073128
  C     -0.533231   -0.312652    0.131958
  C      0.694385    0.599452    0.158030
  C      1.966116   -0.150488    0.408753
  C      2.997348   -0.203820   -0.421790
  H     -4.031750   -0.012478   -0.000957
  H     -2.953014   -1.453504   -0.450861
  H     -1.961561    1.195916    0.724953
  H     -1.756315    1.046263   -0.999413
  H     -0.415044   -1.051456   -0.667262
  H     -0.590052   -0.877584    1.068232
  H      0.558201    1.350266    0.945920
  H      0.770653    1.146124   -0.787047
  H      3.888982   -0.772145   -0.186050
  H      2.987013    0.323738   -1.370304
  H      2.017592   -0.697137    1.348769

 Total Charge           Charge          ....    0
 Multiplicity           Mult            ....    2
 Number of Electrons    NEL             ....   47
 Basis Dimension        Dim             ....  529

ORBITAL ENERGIES
----------------
                 SPIN UP ORBITALS
  NO   OCC          E(Eh)            E(eV)
   0   1.0000     -11.230439      -305.5958
   1   1.0000     -11.227975      -305.5287
   2   1.0000     -11.224349      -305.4301
   3   1.0000     -11.223104      -305.3962
   4   1.0000     -11.221431      -305.3507
   5   1.0000     -11.217111      -305.2331
   6   1.0000      -1.097719       -29.8705
   7   1.0000      -1.050707       -28.5912
   8   1.0000      -0.971788       -26.4437
   9   1.0000      -0.868473       -23.6324
  10   1.0000      -0.796683       -21.6788
  11   1.0000      -0.755774       -20.5657
  12   1.0000      -0.654882       -17.8202
  13   1.0000      -0.622641       -16.9429
  14   1.0000      -0.605795       -16.4845
  15   1.0000      -0.591871       -16.1056
  16   1.0000      -0.555516       -15.1164
  17   1.0000      -0.534619       -14.5477
  18   1.0000      -0.510667       -13.8960
  19   1.0000      -0.490523       -13.3478
  20   1.0000      -0.476858       -12.9760
  21   1.0000      -0.465773       -12.6743
  22   1.0000      -0.360429        -9.8078
  23   1.0000      -0.348106        -9.4724
  24   0.0000       0.030642         0.8338
  25   0.0000       0.033774         0.9190
  26   0.0000       0.036961         1.0057
  27   0.0000       0.038515         1.0481
  28   0.0000       0.048397         1.3169

                 SPIN DOWN ORBITALS
  NO   OCC          E(Eh)            E(eV)
   0   1.0000     -11.230461      -305.5964
   1   1.0000     -11.226201      -305.4805
   2   1.0000     -11.224390      -305.4312
   3   1.0000     -11.220944      -305.3374
   4   1.0000     -11.217097      -305.2327
   5   1.0000     -11.204608      -304.8929
   6   1.0000      -1.094059       -29.7708
   7   1.0000      -1.038193       -28.2507
   8   1.0000      -0.950438       -25.8627
   9   1.0000      -0.840847       -22.8806
  10   1.0000      -0.773450       -21.0466
  11   1.0000      -0.753949       -20.5160
  12   1.0000      -0.651967       -17.7409
  13   1.0000      -0.616821       -16.7846
  14   1.0000      -0.596228       -16.2242
  15   1.0000      -0.587302       -15.9813
  16   1.0000      -0.546679       -14.8759
  17   1.0000      -0.523223       -14.2376
  18   1.0000      -0.505434       -13.7536
  19   1.0000      -0.485005       -13.1976
  20   1.0000      -0.472113       -12.8469
  21   1.0000      -0.464222       -12.6321
  22   1.0000      -0.359988        -9.7958
  23   0.0000       0.030984         0.8431
  24   0.0000       0.033983         0.9247
  25   0.0000       0.036762         1.0003
  26   0.0000       0.038629         1.0511
  27   0.0000       0.048506         1.3199

MULLIKEN ATOMIC CHARGES AND SPIN POPULATIONS
--------------------------------------------
   0 C :   -1.202527    1.240387
   1 C :   -0.163313   -0.225716
   2 C :   -0.374549    0.033718
   3 C :   -0.091970   -0.001796
   4 C :   -0.246169   -0.000360
   5 C :   -1.042384    0.000487
   6 H :    0.334061   -0.081212
   7 H :    0.406870   -0.059936
   8 H :    0.238148    0.030696
   9 H :    0.249558    0.070939
  10 H :    0.262459   -0.005131
  11 H :    0.245652   -0.001381
  12 H :    0.281187   -0.000514
  13 H :    0.162577   -0.000474
  14 H :    0.506545    0.000017
  15 H :    0.221866    0.000039
  16 H :    0.211989    0.000236
Sum of atomic charges         :   -0.0000000

LOEWDIN ATOMIC CHARGES AND SPIN POPULATIONS
-------------------------------------------
   0 C :    0.596321    0.566260
   1 C :    0.202595    0.131785
   2 C :    0.247450    0.009460
   3 C :    0.237393    0.001598
   4 C :    0.175897   -0.000126
   5 C :    0.521894    0.000217
   6 H :   -0.228121    0.120992
   7 H :   -0.225184    0.123705
   8 H :   -0.158049    0.011560
   9 H :   -0.151909    0.030465
  10 H :   -0.143268   -0.000391
  11 H :   -0.143406    0.003427
  12 H :   -0.145451    0.000226
  13 H :   -0.155312    0.000714
  14 H :   -0.228931    0.000055
  15 H :   -0.220798    0.000070
  16 H :   -0.181120   -0.000018

  Mayer bond orders larger than 0.100000
B(  0-C ,  1-C ) :   0.7261 B(  0-C ,  6-H ) :   0.9196 B(  0-C ,  7-H ) :   0.8299
B(  1-C ,  2-C ) :   0.9138 B(  1-C ,  8-H ) :   0.9813 B(  1-C ,  9-H ) :   0.9411
B(  2-C ,  3-C ) :   0.9758 B(  2-C , 10-H ) :   0.9560 B(  2-C , 11-H ) :   0.9415
B(  3-C ,  4-C ) :   0.7196 B(  3-C , 12-H ) :   0.9474 B(  3-C , 13-H ) :   0.9876
B(  4-C ,  5-C ) :   1.3757 B(  4-C , 16-H ) :   1.1080 B(  5-C , 14-H ) :   0.6441
B(  5-C , 15-H ) :   1.1415

MP2 TOTAL ENERGY:     -234.636748052 Eh
FINAL SINGLE POINT ENERGY      -234.636748051996

DIPOLE MOMENT
-------------
                                X             Y             Z
Electronic contribution:      1.47180      -0.12703       0.41224
Nuclear contribution   :     -1.57667       0.21018      -0.39703
                        -----------------------------------------
Total Dipole Moment    :     -0.10486       0.08316       0.01521
                        -----------------------------------------
Magnitude (a.u.)       :      0.13470
Magnitude (Debye)      :      0.34237

Rotational constants in cm-1:     0.476995     0.043170     0.042275
Rotational constants in MHz : 14299.939220  1294.211698  1267.368368

                             ****ORCA TERMINATED NORMALLY****
TOTAL RUN TIME: 0 days 0 hours 2 minutes 45 seconds 465 msec
