                         Program Version 4.2.1 -  RELEASE  -
|  1> %pal
|  2>  nprocs 32
|  3> end
|  4> !RI-MP2 aug-cc-pVTZ aug-cc-pVTZ/C TightSCF
|  5> %maxcore 4500
|  6> *xyzfile 0 2  04_15TS.xyz
|  7>
|  8>
|  9>                          ****END OF INPUT****

CARTESIAN COORDINATES (ANGSTROEM)
---------------------------------
  N     -0.512079    1.351952    0.480703
  H     -0.842680    1.304462    1.436307
  C     -1.204918    0.528197   -0.474555
  H     -1.557168    1.157674   -1.300311
  C     -0.296792   -0.540545   -1.104033
  C     -2.418197   -0.071994    0.239091
  H     -0.833554   -1.109764   -1.862520
  H      0.533565   -0.037869   -1.598290
  S      0.382110   -1.741374    0.073779
  O     -2.589711    0.076350    1.430573
  H      1.243912   -0.764897    0.902612
  N     -3.262227   -0.781752   -0.544954
  H     -3.160965   -0.831838   -1.543832
  H     -4.081471   -1.184370   -0.118422
  C      0.449618    2.223623    0.107445
  H      0.856598    2.806072    0.947799
  O      0.841091    2.352307   -1.034451
  O      2.312850   -0.056571    1.215131
  N      3.131419   -0.235870    0.282969
  O      2.817011   -0.953772   -0.634069

 Total Charge           Charge          ....    0
 Multiplicity           Mult            ....    2
 Number of Electrons    NEL             ....  101
 Basis Dimension        Dim             ....  740

ORBITAL ENERGIES
----------------
                 SPIN UP ORBITALS
  NO   OCC          E(Eh)            E(eV)
   0   1.0000     -92.042324     -2504.5990
   1   1.0000     -20.590060      -560.2840
   2   1.0000     -20.584849      -560.1422
   3   1.0000     -20.565349      -559.6116
   4   1.0000     -20.538355      -558.8771
   5   1.0000     -15.734754      -428.1644
   6   1.0000     -15.625677      -425.1963
   7   1.0000     -15.605729      -424.6535
   8   1.0000     -11.395595      -310.0899
   9   1.0000     -11.361063      -309.1502
  10   1.0000     -11.330495      -308.3184
  11   1.0000     -11.310279      -307.7683
  12   1.0000      -9.043227      -246.0787
  13   1.0000      -6.738677      -183.3687
  14   1.0000      -6.720160      -182.8649
  15   1.0000      -6.718901      -182.8306
  16   1.0000      -1.566001       -42.6131
  17   1.0000      -1.434643       -39.0386
  18   1.0000      -1.400367       -38.1059
  19   1.0000      -1.364159       -37.1207
  20   1.0000      -1.267276       -34.4843
  21   1.0000      -1.256459       -34.1900
  22   1.0000      -1.129447       -30.7338
  23   1.0000      -1.032242       -28.0887
  24   1.0000      -0.920864       -25.0580
  25   1.0000      -0.880939       -23.9716
  26   1.0000      -0.863403       -23.4944
  27   1.0000      -0.804825       -21.9004
  28   1.0000      -0.794342       -21.6151
  29   1.0000      -0.741781       -20.1849
  30   1.0000      -0.730724       -19.8840
  31   1.0000      -0.712378       -19.3848
  32   1.0000      -0.700816       -19.0702
  33   1.0000      -0.687300       -18.7024
  34   1.0000      -0.668033       -18.1781
  35   1.0000      -0.655985       -17.8503
  36   1.0000      -0.648055       -17.6345
  37   1.0000      -0.618600       -16.8329
  38   1.0000      -0.602737       -16.4013
  39   1.0000      -0.594967       -16.1899
  40   1.0000      -0.568886       -15.4802
  41   1.0000      -0.554670       -15.0933
  42   1.0000      -0.521866       -14.2007
  43   1.0000      -0.501715       -13.6524
  44   1.0000      -0.470232       -12.7957
  45   1.0000      -0.463353       -12.6085
  46   1.0000      -0.460073       -12.5192
  47   1.0000      -0.453471       -12.3396
  48   1.0000      -0.445786       -12.1304
  49   1.0000      -0.417780       -11.3684
  50   1.0000      -0.378666       -10.3040
  51   0.0000       0.009308         0.2533
  52   0.0000       0.029844         0.8121
  53   0.0000       0.032201         0.8762
  54   0.0000       0.037876         1.0307
  55   0.0000       0.049681         1.3519

                 SPIN DOWN ORBITALS
  NO   OCC          E(Eh)            E(eV)
   0   1.0000     -92.032574     -2504.3337
   1   1.0000     -20.589767      -560.2760
   2   1.0000     -20.577982      -559.9553
   3   1.0000     -20.565281      -559.6097
   4   1.0000     -20.538290      -558.8753
   5   1.0000     -15.735112      -428.1742
   6   1.0000     -15.625703      -425.1970
   7   1.0000     -15.605807      -424.6556
   8   1.0000     -11.395641      -310.0912
   9   1.0000     -11.361069      -309.1504
  10   1.0000     -11.329759      -308.2984
  11   1.0000     -11.311624      -307.8049
  12   1.0000      -9.032471      -245.7860
  13   1.0000      -6.714188      -182.7023
  14   1.0000      -6.713344      -182.6794
  15   1.0000      -6.696823      -182.2298
  16   1.0000      -1.561769       -42.4979
  17   1.0000      -1.434428       -39.0328
  18   1.0000      -1.400254       -38.1029
  19   1.0000      -1.356588       -36.9146
  20   1.0000      -1.266707       -34.4688
  21   1.0000      -1.256479       -34.1905
  22   1.0000      -1.107058       -30.1246
  23   1.0000      -1.000400       -27.2223
  24   1.0000      -0.904964       -24.6253
  25   1.0000      -0.863393       -23.4941
  26   1.0000      -0.858705       -23.3666
  27   1.0000      -0.799483       -21.7550
  28   1.0000      -0.794080       -21.6080
  29   1.0000      -0.741315       -20.1722
  30   1.0000      -0.719672       -19.5833
  31   1.0000      -0.700933       -19.0733
  32   1.0000      -0.694019       -18.8852
  33   1.0000      -0.685200       -18.6452
  34   1.0000      -0.662373       -18.0241
  35   1.0000      -0.654871       -17.8200
  36   1.0000      -0.645416       -17.5627
  37   1.0000      -0.614635       -16.7251
  38   1.0000      -0.600722       -16.3465
  39   1.0000      -0.590968       -16.0811
  40   1.0000      -0.564872       -15.3710
  41   1.0000      -0.548005       -14.9120
  42   1.0000      -0.509126       -13.8540
  43   1.0000      -0.471063       -12.8183
  44   1.0000      -0.460185       -12.5223
  45   1.0000      -0.456549       -12.4233
  46   1.0000      -0.448083       -12.1930
  47   1.0000      -0.442224       -12.0335
  48   1.0000      -0.419118       -11.4048
  49   1.0000      -0.366779        -9.9806
  50   0.0000      -0.019658        -0.5349
  51   0.0000       0.009829         0.2675
  52   0.0000       0.030092         0.8189
  53   0.0000       0.032355         0.8804
  54   0.0000       0.038288         1.0419

MULLIKEN ATOMIC CHARGES AND SPIN POPULATIONS
--------------------------------------------
   0 N :   -0.113242   -0.000176
   1 H :    0.097041    0.002645
   2 C :    0.639893   -0.004627
   3 H :    0.370221    0.001386
   4 C :   -0.259967   -0.124676
   5 C :    0.605580    0.003290
   6 H :    0.297557   -0.011703
   7 H :    0.329294    0.045535
   8 S :   -0.308498    1.066309
   9 O :   -0.918051    0.004255
  10 H :    0.550691   -0.052542
  11 N :   -0.413118    0.002197
  12 H :    0.128168    0.000028
  13 H :    0.147232   -0.000223
  14 C :   -0.278648   -0.000944
  15 H :    0.615514    0.000061
  16 O :   -0.831010    0.001346
  17 O :   -0.332183    0.012137
  18 N :    0.042427   -0.036049
  19 O :   -0.368900    0.091751
Sum of atomic charges         :    0.0000000

LOEWDIN ATOMIC CHARGES AND SPIN POPULATIONS
-------------------------------------------
   0 N :    0.507605    0.000991
   1 H :   -0.337104    0.000596
   2 C :   -0.184940    0.015294
   3 H :   -0.129730    0.001536
   4 C :   -0.037040    0.095745
   5 C :   -0.663493    0.013507
   6 H :   -0.230246   -0.000445
   7 H :   -0.243419    0.010819
   8 S :    1.425444    0.696574
   9 O :    0.484436    0.002891
  10 H :   -0.809832    0.054730
  11 N :    0.865888    0.001174
  12 H :   -0.292723    0.000240
  13 H :   -0.274734    0.000216
  14 C :   -0.376713    0.000052
  15 H :   -0.163246   -0.000002
  16 O :    0.431107    0.001054
  17 O :    0.348813    0.003172
  18 N :   -0.495805   -0.006982
  19 O :    0.175732    0.108837

  Mayer bond orders larger than 0.100000
B(  0-N ,  1-H ) :   1.0208 B(  0-N ,  2-C ) :   0.6960 B(  0-N , 14-C ) :   1.2675
B(  0-N , 16-O ) :  -0.1048 B(  2-C ,  3-H ) :   0.8885 B(  2-C ,  4-C ) :   0.9339
B(  2-C ,  5-C ) :   0.6015 B(  2-C ,  9-O ) :   0.2018 B(  2-C , 14-C ) :  -0.1479
B(  3-H ,  5-C ) :  -0.1167 B(  4-C ,  6-H ) :   0.9210 B(  4-C ,  7-H ) :   0.8903
B(  4-C ,  8-S ) :   0.8260 B(  5-C ,  9-O ) :   1.0834 B(  5-C , 11-N ) :   1.0229
B(  6-H ,  8-S ) :  -0.1196 B(  7-H ,  8-S ) :   0.1022 B(  8-S , 10-H ) :   0.1982
B( 10-H , 17-O ) :   0.4029 B( 11-N , 12-H ) :   1.0628 B( 11-N , 13-H ) :   1.0458
B( 14-C , 15-H ) :   0.5724 B( 14-C , 16-O ) :   1.6834 B( 17-O , 18-N ) :   0.9687
B( 18-N , 19-O ) :   1.3181

MP2 TOTAL ENERGY:    -1018.986856141 Eh
FINAL SINGLE POINT ENERGY     -1018.986856140973

DIPOLE MOMENT
-------------
                                X             Y             Z
Electronic contribution:      4.72446      -2.26113       2.44198
Nuclear contribution   :     -7.62319       1.38468      -3.04990
                        -----------------------------------------
Total Dipole Moment    :     -2.89873      -0.87645      -0.60792
                        -----------------------------------------
Magnitude (a.u.)       :      3.08875
Magnitude (Debye)      :      7.85097

Rotational constants in cm-1:     0.038564     0.019360     0.015799
Rotational constants in MHz :  1156.116998   580.397544   473.633891

                             ****ORCA TERMINATED NORMALLY****
TOTAL RUN TIME: 0 days 0 hours 22 minutes 10 seconds 307 msec
