                         Program Version 4.2.1 -  RELEASE  -
|  1> %pal
|  2>  nprocs 32
|  3> end
|  4> !RI-MP2 aug-cc-pVTZ aug-cc-pVTZ/C TightSCF
|  5> %maxcore 4500
|  6> *xyzfile 0 2  06_33R2.xyz
|  7>
|  8>
|  9>                          ****END OF INPUT****

CARTESIAN COORDINATES (ANGSTROEM)
---------------------------------
  C     -0.286274    0.569342    0.000000
  C      0.181787   -0.000269    1.294031
  Cl    -0.694142    2.260509    0.000000
  C      0.181787   -0.000269   -1.294031
  C      0.181787   -1.532300    1.257445
  C      0.866284   -2.062940    0.000000
  C      0.181787   -1.532300   -1.257445
  H     -0.435915    0.370445    2.114844
  H      1.206143    0.356101    1.494573
  H      1.206143    0.356101   -1.494573
  H     -0.435915    0.370445   -2.114844
  H     -0.852101   -1.891594    1.281347
  H      0.672418   -1.916472    2.154868
  H      0.856738   -3.155703    0.000000
  H      1.919645   -1.757498    0.000000
  H     -0.852101   -1.891594   -1.281347
  H      0.672418   -1.916472   -2.154868

 Total Charge           Charge          ....    0
 Multiplicity           Mult            ....    2
 Number of Electrons    NEL             ....   63
 Basis Dimension        Dim             ....  556

ORBITAL ENERGIES
----------------
                 SPIN UP ORBITALS
  NO   OCC          E(Eh)            E(eV)
   0   1.0000    -104.829126     -2852.5455
   1   1.0000     -11.290589      -307.2325
   2   1.0000     -11.232830      -305.6609
   3   1.0000     -11.232811      -305.6603
   4   1.0000     -11.227706      -305.5214
   5   1.0000     -11.227645      -305.5198
   6   1.0000     -11.224930      -305.4459
   7   1.0000     -10.553167      -287.1663
   8   1.0000      -8.020004      -218.2354
   9   1.0000      -8.018451      -218.1931
  10   1.0000      -8.018190      -218.1860
  11   1.0000      -1.173108       -31.9219
  12   1.0000      -1.096931       -29.8490
  13   1.0000      -1.022354       -27.8197
  14   1.0000      -0.986522       -26.8446
  15   1.0000      -0.854237       -23.2450
  16   1.0000      -0.821359       -22.3503
  17   1.0000      -0.744438       -20.2572
  18   1.0000      -0.658441       -17.9171
  19   1.0000      -0.624335       -16.9890
  20   1.0000      -0.617622       -16.8064
  21   1.0000      -0.602971       -16.4077
  22   1.0000      -0.567291       -15.4368
  23   1.0000      -0.545219       -14.8362
  24   1.0000      -0.542731       -14.7685
  25   1.0000      -0.497941       -13.5497
  26   1.0000      -0.496796       -13.5185
  27   1.0000      -0.466225       -12.6866
  28   1.0000      -0.462645       -12.5892
  29   1.0000      -0.450664       -12.2632
  30   1.0000      -0.430561       -11.7162
  31   1.0000      -0.331973        -9.0335
  32   0.0000       0.028462         0.7745
  33   0.0000       0.033411         0.9092
  34   0.0000       0.037203         1.0123
  35   0.0000       0.040023         1.0891
  36   0.0000       0.053964         1.4684

                 SPIN DOWN ORBITALS
  NO   OCC          E(Eh)            E(eV)
   0   1.0000    -104.828916     -2852.5398
   1   1.0000     -11.264367      -306.5190
   2   1.0000     -11.235482      -305.7330
   3   1.0000     -11.235459      -305.7324
   4   1.0000     -11.227262      -305.5093
   5   1.0000     -11.227183      -305.5072
   6   1.0000     -11.225048      -305.4491
   7   1.0000     -10.552919      -287.1595
   8   1.0000      -8.021062      -218.2642
   9   1.0000      -8.018045      -218.1821
  10   1.0000      -8.016521      -218.1406
  11   1.0000      -1.147510       -31.2253
  12   1.0000      -1.094932       -29.7946
  13   1.0000      -1.021814       -27.8050
  14   1.0000      -0.973244       -26.4833
  15   1.0000      -0.852602       -23.2005
  16   1.0000      -0.805270       -21.9125
  17   1.0000      -0.713404       -19.4127
  18   1.0000      -0.651947       -17.7404
  19   1.0000      -0.613140       -16.6844
  20   1.0000      -0.610436       -16.6108
  21   1.0000      -0.570248       -15.5172
  22   1.0000      -0.561135       -15.2693
  23   1.0000      -0.542526       -14.7629
  24   1.0000      -0.537664       -14.6306
  25   1.0000      -0.492229       -13.3942
  26   1.0000      -0.477705       -12.9990
  27   1.0000      -0.460775       -12.5383
  28   1.0000      -0.453539       -12.3414
  29   1.0000      -0.447862       -12.1869
  30   1.0000      -0.428136       -11.6502
  31   0.0000       0.027873         0.7585
  32   0.0000       0.033452         0.9103
  33   0.0000       0.037067         1.0086
  34   0.0000       0.039729         1.0811
  35   0.0000       0.053985         1.4690

MULLIKEN ATOMIC CHARGES AND SPIN POPULATIONS
--------------------------------------------
   0 C :    0.189565    1.169404
   1 C :   -0.390595   -0.158318
   2 Cl:   -0.484714   -0.025616
   3 C :   -0.390587   -0.158317
   4 C :   -0.482439    0.012041
   5 C :   -0.466681   -0.006106
   6 C :   -0.482440    0.012039
   7 H :    0.290565    0.007358
   8 H :    0.223132    0.071884
   9 H :    0.223132    0.071883
  10 H :    0.290564    0.007358
  11 H :    0.189465   -0.000942
  12 H :    0.310776   -0.001484
  13 H :    0.260482    0.000989
  14 H :    0.219534    0.000254
  15 H :    0.189466   -0.000943
  16 H :    0.310775   -0.001483
Sum of atomic charges         :   -0.0000000

LOEWDIN ATOMIC CHARGES AND SPIN POPULATIONS
-------------------------------------------
   0 C :   -0.664087    0.584456
   1 C :    0.172570    0.107427
   2 Cl:    0.961622    0.105843
   3 C :    0.172570    0.107427
   4 C :    0.277848    0.009435
   5 C :    0.280865    0.001394
   6 C :    0.277848    0.009435
   7 H :   -0.172236    0.006746
   8 H :   -0.146556    0.026982
   9 H :   -0.146556    0.026982
  10 H :   -0.172236    0.006746
  11 H :   -0.141165    0.002453
  12 H :   -0.140672    0.000519
  13 H :   -0.140285    0.000356
  14 H :   -0.137692    0.000826
  15 H :   -0.141165    0.002453
  16 H :   -0.140672    0.000519

  Mayer bond orders larger than 0.100000
B(  0-C ,  1-C ) :   0.8290 B(  0-C ,  2-Cl) :   0.5501 B(  0-C ,  3-C ) :   0.8290
B(  1-C ,  4-C ) :   0.9172 B(  1-C ,  7-H ) :   0.9512 B(  1-C ,  8-H ) :   0.9559
B(  3-C ,  6-C ) :   0.9172 B(  3-C ,  9-H ) :   0.9559 B(  3-C , 10-H ) :   0.9512
B(  4-C ,  5-C ) :   0.8890 B(  4-C , 11-H ) :   1.0084 B(  4-C , 12-H ) :   0.9281
B(  5-C ,  6-C ) :   0.8890 B(  5-C , 13-H ) :   0.9369 B(  5-C , 14-H ) :   0.9928
B(  6-C , 15-H ) :   1.0084 B(  6-C , 16-H ) :   0.9281

MP2 TOTAL ENERGY:     -693.810029787 Eh
FINAL SINGLE POINT ENERGY      -693.810029786812

DIPOLE MOMENT
-------------
                                X             Y             Z
Electronic contribution:     -4.64820      13.55623       0.00000
Nuclear contribution   :      4.98084     -14.39781       0.00000
                        -----------------------------------------
Total Dipole Moment    :      0.33264      -0.84159       0.00000
                        -----------------------------------------
Magnitude (a.u.)       :      0.90494
Magnitude (Debye)      :      2.30018

Rotational constants in cm-1:     0.144612     0.047120     0.037462
Rotational constants in MHz :  4335.348301  1412.612507  1123.093567

                             ****ORCA TERMINATED NORMALLY****
TOTAL RUN TIME: 0 days 0 hours 4 minutes 52 seconds 631 msec
