                         Program Version 4.2.1 -  RELEASE  -
|  1> %pal
|  2>  nprocs 32
|  3> end
|  4> !RI-MP2 aug-cc-pVTZ aug-cc-pVTZ/C TightSCF
|  5> %maxcore 4500
|  6> *xyzfile 0 1  10_67TS.xyz
|  7>
|  8>
|  9>                          ****END OF INPUT****

CARTESIAN COORDINATES (ANGSTROEM)
---------------------------------
  C      0.499997    0.277035    0.794719
  C     -0.071556   -1.073430    0.695327
  C     -0.322408    1.411698    0.999300
  C     -1.098643   -1.544382    1.588017
  C     -1.590332    1.501785    1.581897
  C     -2.115957   -0.862539    2.178352
  C     -2.392713    0.517886    2.103156
  H     -1.077617   -2.616535    1.759118
  H     -2.810429   -1.452790    2.768295
  H     -3.314643    0.846423    2.571327
  H     -1.973232    2.514319    1.663255
  C     -1.098554    1.110924   -1.605542
  H      0.161105    2.365328    0.830026
  C     -0.738086   -1.136101   -1.128444
  H      0.697286   -1.817527    0.556559
  C     -1.791537   -0.080740   -1.167728
  C      0.343977   -0.613503   -1.891603
  H     -0.985262   -2.187469   -1.177744
  C      0.134730    0.745198   -2.122767
  H     -1.521046    2.101849   -1.655702
  H      1.227570   -1.172170   -2.163245
  H      0.847623    1.419884   -2.574660
  C     -3.109884   -0.221709   -0.925194
  C     -4.078632    0.913751   -1.059218
  C     -3.738773   -1.546349   -0.620380
  H     -3.012256   -2.318782   -0.383079
  H     -4.324312   -1.880333   -1.484166
  H     -4.433078   -1.459211    0.218201
  H     -3.592669    1.877093   -1.191449
  H     -4.716601    0.969530   -0.173966
  H     -4.739371    0.744801   -1.915936
  C      1.840102    0.466069    0.441992
  C      2.324695    1.799452    0.320082
  N      2.655021    2.896877    0.206802
  C      2.825309   -0.592410    0.210042
  O      2.654574   -1.795112    0.255339
  O      4.032120   -0.070368   -0.075316
  C      5.083602   -1.006733   -0.301469
  H      5.965508   -0.406591   -0.509288
  H      5.241022   -1.626828    0.580996
  H      4.849694   -1.650705   -1.149584

 Total Charge           Charge          ....    0
 Multiplicity           Mult            ....    1
 Number of Electrons    NEL             ....  156
 Basis Dimension        Dim             .... 1449

ORBITAL ENERGIES
----------------

  NO   OCC          E(Eh)            E(eV)
   0   2.0000     -20.588235      -560.2344
   1   2.0000     -20.524402      -558.4974
   2   2.0000     -15.532052      -422.6486
   3   2.0000     -11.373076      -309.4771
   4   2.0000     -11.285938      -307.1060
   5   2.0000     -11.283375      -307.0362
   6   2.0000     -11.276160      -306.8399
   7   2.0000     -11.274992      -306.8081
   8   2.0000     -11.273984      -306.7807
   9   2.0000     -11.268662      -306.6359
  10   2.0000     -11.264834      -306.5317
  11   2.0000     -11.250750      -306.1485
  12   2.0000     -11.249321      -306.1096
  13   2.0000     -11.248300      -306.0818
  14   2.0000     -11.246454      -306.0316
  15   2.0000     -11.246244      -306.0258
  16   2.0000     -11.245428      -306.0037
  17   2.0000     -11.245287      -305.9998
  18   2.0000     -11.245238      -305.9985
  19   2.0000     -11.244087      -305.9672
  20   2.0000     -11.241550      -305.8981
  21   2.0000     -11.238826      -305.8240
  22   2.0000      -1.451268       -39.4910
  23   2.0000      -1.344614       -36.5888
  24   2.0000      -1.206591       -32.8330
  25   2.0000      -1.193052       -32.4646
  26   2.0000      -1.152772       -31.3685
  27   2.0000      -1.113804       -30.3081
  28   2.0000      -1.094544       -29.7841
  29   2.0000      -1.065854       -29.0034
  30   2.0000      -1.019164       -27.7329
  31   2.0000      -0.992457       -27.0061
  32   2.0000      -0.978108       -26.6157
  33   2.0000      -0.966038       -26.2872
  34   2.0000      -0.949379       -25.8339
  35   2.0000      -0.909387       -24.7457
  36   2.0000      -0.876995       -23.8642
  37   2.0000      -0.845577       -23.0093
  38   2.0000      -0.787080       -21.4175
  39   2.0000      -0.765701       -20.8358
  40   2.0000      -0.755575       -20.5602
  41   2.0000      -0.746971       -20.3261
  42   2.0000      -0.732047       -19.9200
  43   2.0000      -0.710788       -19.3415
  44   2.0000      -0.697090       -18.9688
  45   2.0000      -0.691584       -18.8190
  46   2.0000      -0.663999       -18.0683
  47   2.0000      -0.662872       -18.0377
  48   2.0000      -0.638765       -17.3817
  49   2.0000      -0.627214       -17.0674
  50   2.0000      -0.623078       -16.9548
  51   2.0000      -0.613617       -16.6974
  52   2.0000      -0.607109       -16.5203
  53   2.0000      -0.594650       -16.1812
  54   2.0000      -0.586031       -15.9467
  55   2.0000      -0.577506       -15.7147
  56   2.0000      -0.569695       -15.5022
  57   2.0000      -0.563143       -15.3239
  58   2.0000      -0.562126       -15.2962
  59   2.0000      -0.550506       -14.9800
  60   2.0000      -0.543547       -14.7907
  61   2.0000      -0.537398       -14.6233
  62   2.0000      -0.535876       -14.5819
  63   2.0000      -0.528358       -14.3773
  64   2.0000      -0.517132       -14.0719
  65   2.0000      -0.512516       -13.9463
  66   2.0000      -0.507530       -13.8106
  67   2.0000      -0.495401       -13.4806
  68   2.0000      -0.479760       -13.0549
  69   2.0000      -0.464711       -12.6454
  70   2.0000      -0.455992       -12.4082
  71   2.0000      -0.454701       -12.3731
  72   2.0000      -0.426148       -11.5961
  73   2.0000      -0.416616       -11.3367
  74   2.0000      -0.392955       -10.6929
  75   2.0000      -0.347030        -9.4432
  76   2.0000      -0.303836        -8.2678
  77   2.0000      -0.251235        -6.8365
  78   0.0000       0.013013         0.3541
  79   0.0000       0.016321         0.4441
  80   0.0000       0.024944         0.6788
  81   0.0000       0.027452         0.7470
  82   0.0000       0.031232         0.8499

MULLIKEN ATOMIC CHARGES
-----------------------
   0 C :   -0.417531
   1 C :    1.273310
   2 C :   -0.510988
   3 C :   -0.667493
   4 C :   -0.004425
   5 C :   -0.541637
   6 C :   -0.253216
   7 H :   -0.260568
   8 H :    0.105862
   9 H :    0.034039
  10 H :   -0.048066
  11 C :   -0.527702
  12 H :   -0.387110
  13 C :   -0.329655
  14 H :    0.435198
  15 C :    0.334759
  16 C :   -0.883111
  17 H :    0.347638
  18 C :   -0.927416
  19 H :    0.206925
  20 H :    0.580762
  21 H :    0.664305
  22 C :    2.009331
  23 C :   -1.330519
  24 C :   -1.259690
  25 H :    0.350639
  26 H :    0.204596
  27 H :    0.184111
  28 H :    0.341733
  29 H :    0.191615
  30 H :    0.215168
  31 C :    1.320003
  32 C :    1.992356
  33 N :   -1.266507
  34 C :    0.337438
  35 O :   -1.107685
  36 O :   -0.543345
  37 C :   -1.011156
  38 H :    0.339082
  39 H :    0.419593
  40 H :    0.389359
Sum of atomic charges:    0.0000000

LOEWDIN ATOMIC CHARGES
----------------------
   0 C :   -0.123905
   1 C :    0.144884
   2 C :    0.225490
   3 C :    0.240087
   4 C :    0.205868
   5 C :    0.190911
   6 C :    0.197906
   7 H :   -0.167708
   8 H :   -0.176007
   9 H :   -0.185754
  10 H :   -0.171358
  11 C :    0.249255
  12 H :   -0.223058
  13 C :    0.137921
  14 H :   -0.297280
  15 C :   -0.122315
  16 C :    0.247948
  17 H :   -0.146015
  18 C :    0.236274
  19 H :   -0.150839
  20 H :   -0.140917
  21 H :   -0.150226
  22 C :   -0.060915
  23 C :    0.598112
  24 C :    0.594660
  25 H :   -0.188895
  26 H :   -0.144631
  27 H :   -0.156068
  28 H :   -0.184357
  29 H :   -0.157771
  30 H :   -0.147968
  31 C :   -0.172100
  32 C :   -0.326380
  33 N :    0.295038
  34 C :   -0.850222
  35 O :    0.503850
  36 O :    0.568471
  37 C :    0.354276
  38 H :   -0.184080
  39 H :   -0.179922
  40 H :   -0.182260

  Mayer bond orders larger than 0.100000
B(  0-C ,  1-C ) :   0.9607 B(  0-C ,  2-C ) :   0.6724 B(  0-C ,  3-C ) :   0.1114
B(  0-C ,  4-C ) :   0.4161 B(  0-C ,  7-H ) :   0.1392 B(  0-C ,  8-H ) :  -0.2621
B(  0-C ,  9-H ) :   0.2025 B(  0-C , 10-H ) :  -0.1166 B(  0-C , 11-C ) :  -0.2426
B(  0-C , 12-H ) :   0.5289 B(  0-C , 14-H ) :   0.1775 B(  0-C , 22-C ) :   0.2678
B(  0-C , 31-C ) :  -0.8984 B(  0-C , 32-C ) :  -0.3134 B(  0-C , 33-N ) :   0.2264
B(  0-C , 34-C ) :   1.5262 B(  0-C , 35-O ) :   0.1990 B(  0-C , 36-O ) :   0.1913
B(  1-C ,  2-C ) :  -0.2149 B(  1-C ,  3-C ) :  -0.1949 B(  1-C ,  4-C ) :   0.2656
B(  1-C ,  6-C ) :  -0.2056 B(  1-C ,  7-H ) :  -0.4126 B(  1-C , 11-C ) :   0.1967
B(  1-C , 12-H ) :  -0.1816 B(  1-C , 13-C ) :   0.3479 B(  1-C , 14-H ) :   0.9046
B(  1-C , 15-C ) :   0.2751 B(  1-C , 18-C ) :   0.1651 B(  1-C , 31-C ) :   0.2053
B(  1-C , 34-C ) :  -0.2875 B(  1-C , 35-O ) :  -0.1892 B(  2-C ,  3-C ) :  -0.2261
B(  2-C ,  4-C ) :   0.4617 B(  2-C ,  6-C ) :   0.1418 B(  2-C , 10-H ) :  -0.2309
B(  2-C , 11-C ) :   0.2140 B(  2-C , 12-H ) :   1.9464 B(  2-C , 13-C ) :   0.1071
B(  2-C , 15-C ) :   0.1894 B(  2-C , 22-C ) :  -0.2572 B(  2-C , 31-C ) :   0.7457
B(  2-C , 32-C ) :  -0.1181 B(  3-C ,  4-C ) :   0.2637 B(  3-C ,  5-C ) :   1.3312
B(  3-C ,  6-C ) :   0.2716 B(  3-C ,  7-H ) :   1.8339 B(  3-C ,  8-H ) :  -0.2054
B(  3-C , 12-H ) :  -0.1195 B(  3-C , 13-C ) :   0.1115 B(  3-C , 14-H ) :  -0.3350
B(  4-C ,  6-C ) :   1.0178 B(  4-C ,  9-H ) :  -0.2392 B(  4-C , 10-H ) :   1.3193
B(  4-C , 31-C ) :  -0.3145 B(  4-C , 32-C ) :   0.1190 B(  5-C ,  6-C ) :   1.1491
B(  5-C ,  7-H ) :  -0.2265 B(  5-C ,  8-H ) :   1.2515 B(  5-C ,  9-H ) :  -0.1058
B(  5-C , 14-H ) :  -0.1105 B(  5-C , 15-C ) :   0.1051 B(  6-C ,  8-H ) :  -0.1424
B(  6-C ,  9-H ) :   1.3644 B(  6-C , 10-H ) :  -0.1227 B(  6-C , 31-C ) :   0.1181
B(  7-H , 31-C ) :  -0.1364 B(  8-H , 15-C ) :  -0.1180 B(  8-H , 31-C ) :   0.2046
B(  9-H , 31-C ) :  -0.1996 B( 10-H , 31-C ) :   0.2877 B( 11-C , 15-C ) :  -0.4112
B( 11-C , 18-C ) :   1.3403 B( 11-C , 19-H ) :   1.4752 B( 11-C , 22-C ) :   0.9875
B( 11-C , 23-C ) :   0.1049 B( 12-H , 14-H ) :   0.1249 B( 12-H , 15-C ) :  -0.1168
B( 12-H , 22-C ) :   0.1334 B( 12-H , 31-C ) :  -1.1786 B( 12-H , 34-C ) :   0.3566
B( 13-C , 15-C ) :   1.6189 B( 13-C , 16-C ) :   0.9994 B( 13-C , 17-H ) :   0.8438
B( 13-C , 19-H ) :   0.1647 B( 13-C , 22-C ) :  -0.5167 B( 13-C , 35-O ) :   0.1669
B( 14-H , 16-C ) :   0.1785 B( 14-H , 18-C ) :  -0.1386 B( 14-H , 32-C ) :  -0.1003
B( 14-H , 34-C ) :   0.1386 B( 14-H , 35-O ) :  -0.1995 B( 15-C , 16-C ) :  -0.2091
B( 15-C , 17-H ) :  -0.2952 B( 15-C , 18-C ) :   0.5407 B( 15-C , 19-H ) :   0.5708
B( 15-C , 20-H ) :   0.2844 B( 15-C , 21-H ) :  -0.4570 B( 15-C , 24-C ) :   0.2749
B( 15-C , 25-H ) :   0.1027 B( 16-C , 17-H ) :  -0.3802 B( 16-C , 18-C ) :   1.1180
B( 16-C , 20-H ) :   0.6895 B( 16-C , 22-C ) :  -0.1002 B( 16-C , 31-C ) :   0.1490
B( 16-C , 34-C ) :  -0.1451 B( 17-H , 22-C ) :   0.1546 B( 18-C , 20-H ) :  -0.1688
B( 18-C , 21-H ) :   0.4347 B( 18-C , 22-C ) :  -0.1845 B( 19-H , 22-C ) :  -0.7751
B( 19-H , 24-C ) :  -0.1329 B( 20-H , 22-C ) :  -0.2698 B( 21-H , 22-C ) :   0.4429
B( 22-C , 23-C ) :   0.1042 B( 22-C , 24-C ) :   0.1201 B( 22-C , 27-H ) :  -0.1175
B( 22-C , 29-H ) :  -0.1476 B( 22-C , 30-H ) :  -0.1206 B( 22-C , 31-C ) :   0.1416
B( 23-C , 24-C ) :   0.1213 B( 23-C , 28-H ) :   0.9317 B( 23-C , 29-H ) :   1.2337
B( 23-C , 30-H ) :   1.1550 B( 24-C , 25-H ) :   0.9883 B( 24-C , 26-H ) :   1.0966
B( 24-C , 27-H ) :   1.1986 B( 31-C , 32-C ) :   1.7010 B( 31-C , 33-N ) :   0.7822
B( 31-C , 34-C ) :  -0.7680 B( 31-C , 35-O ) :   0.1316 B( 31-C , 36-O ) :  -0.3128
B( 32-C , 33-N ) :   0.4889 B( 32-C , 34-C ) :  -0.6263 B( 32-C , 36-O ) :  -0.1514
B( 33-N , 34-C ) :   0.1035 B( 34-C , 35-O ) :   0.6877 B( 34-C , 36-O ) :   1.0456
B( 34-C , 37-C ) :  -0.1863 B( 36-O , 37-C ) :   0.9920 B( 37-C , 38-H ) :   0.9262
B( 37-C , 39-H ) :   0.8564 B( 37-C , 40-H ) :   0.8657

MP2 TOTAL ENERGY:     -938.716237646 Eh
FINAL SINGLE POINT ENERGY      -938.716237645781

DIPOLE MOMENT
-------------
                                X             Y             Z
Electronic contribution:     14.64305       4.42817       2.62957
Nuclear contribution   :    -17.36680      -5.75452      -3.42247
                        -----------------------------------------
Total Dipole Moment    :     -2.72375      -1.32635      -0.79290
                        -----------------------------------------
Magnitude (a.u.)       :      3.13156
Magnitude (Debye)      :      7.95980

Rotational constants in cm-1:     0.018503     0.007144     0.007033
Rotational constants in MHz :   554.694201   214.160364   210.852553

                             ****ORCA TERMINATED NORMALLY****
TOTAL RUN TIME: 0 days 1 hours 27 minutes 14 seconds 62 msec
