                         Program Version 4.2.1 -  RELEASE  -
|  1> %pal
|  2>  nprocs 32
|  3> end
|  4> !RI-MP2 aug-cc-pVTZ aug-cc-pVTZ/C TightSCF
|  5> %maxcore 4500
|  6> *xyzfile 0 1  10_70TS.xyz
|  7>
|  8>
|  9>                          ****END OF INPUT****

CARTESIAN COORDINATES (ANGSTROEM)
---------------------------------
  C     -5.961577   -0.290354   -1.684356
  C     -5.175191   -1.123597   -0.679918
  C     -3.814518   -0.522167   -0.365464
  C     -2.904200   -1.447048    0.473355
  C     -1.520474   -0.891050    0.699988
  C     -0.395052   -1.130689   -0.020913
  C      0.860615   -0.656219    0.481460
  C      2.119075   -0.996406   -0.012385
  C      2.931046    0.516619   -1.218701
  C      2.883680    1.720130   -0.505395
  C      1.691092    2.326799   -0.131374
  C      0.453970    1.848351   -0.511117
  C     -0.779043    2.192869    0.087556
  C     -1.920350    1.573936   -0.289415
  C     -3.161797    1.693462    0.481423
  C     -3.533738   -1.799188    1.824138
  C      3.239444   -1.225347    1.000741
  C      4.572789   -1.592144    0.348326
  C      5.188365   -0.529508   -0.553115
  C      4.253344   -0.069804   -1.665073
  C     -0.419175   -1.854879   -1.341184
  O     -3.401658    2.579504    1.259625
  O     -4.086764    0.711989    0.313955
  O      3.357459   -0.172600    1.936047
  O      5.578640    0.627633    0.195885
  H     -5.426909   -0.207868   -2.634891
  H     -6.127005    0.717158   -1.301003
  H     -6.935134   -0.739506   -1.888748
  H     -5.743260   -1.216506    0.247538
  H     -5.019591   -2.135685   -1.066691
  H     -3.316500   -0.314608   -1.316180
  H     -2.819042   -2.365189   -0.115728
  H     -1.392020   -0.356222    1.635696
  H      0.837566   -0.163480    1.446767
  H      2.129904   -1.726089   -0.819194
  H      2.129293    0.344136   -1.925745
  H      0.395938    1.176613   -1.358640
  H     -0.793108    2.841972    0.957748
  H     -1.910860    0.961736   -1.176854
  H     -4.470559   -2.344090    1.705585
  H     -3.738198   -0.894247    2.399419
  H     -2.853373   -2.425184    2.403861
  H      2.941407   -2.088633    1.603802
  H      4.432432   -2.504216   -0.241434
  H      5.281827   -1.843309    1.143572
  H      6.079417   -0.955081   -1.029877
  H      4.066661   -0.933486   -2.308749
  H      4.786542    0.665507   -2.274735
  H      0.166795   -2.777003   -1.302540
  H      0.013562   -1.235366   -2.132466
  H     -1.429259   -2.116584   -1.649954
  H      3.739239    0.587867    1.482628
  H      6.203028    0.361896    0.877094
  H      3.810168    2.112082   -0.104853
  H      1.729809    3.138574    0.589001

 Total Charge           Charge          ....    0
 Multiplicity           Mult            ....    1
 Number of Electrons    NEL             ....  188
 Basis Dimension        Dim             .... 1840

ORBITAL ENERGIES
----------------

  NO   OCC          E(Eh)            E(eV)
   0   2.0000     -20.582069      -560.0666
   1   2.0000     -20.575036      -559.8752
   2   2.0000     -20.551349      -559.2306
   3   2.0000     -20.515548      -558.2564
   4   2.0000     -11.362884      -309.1998
   5   2.0000     -11.299932      -307.4868
   6   2.0000     -11.295122      -307.3559
   7   2.0000     -11.291053      -307.2452
   8   2.0000     -11.263535      -306.4964
   9   2.0000     -11.244430      -305.9765
  10   2.0000     -11.243773      -305.9586
  11   2.0000     -11.243625      -305.9546
  12   2.0000     -11.243623      -305.9545
  13   2.0000     -11.242971      -305.9368
  14   2.0000     -11.241995      -305.9102
  15   2.0000     -11.238070      -305.8034
  16   2.0000     -11.236848      -305.7702
  17   2.0000     -11.236555      -305.7622
  18   2.0000     -11.235555      -305.7350
  19   2.0000     -11.235393      -305.7306
  20   2.0000     -11.230185      -305.5889
  21   2.0000     -11.226380      -305.4853
  22   2.0000     -11.220828      -305.3342
  23   2.0000     -11.216184      -305.2079
  24   2.0000     -11.213333      -305.1303
  25   2.0000      -1.437885       -39.1268
  26   2.0000      -1.383934       -37.6588
  27   2.0000      -1.361168       -37.0393
  28   2.0000      -1.341920       -36.5155
  29   2.0000      -1.141491       -31.0616
  30   2.0000      -1.123366       -30.5683
  31   2.0000      -1.104543       -30.0561
  32   2.0000      -1.091584       -29.7035
  33   2.0000      -1.065756       -29.0007
  34   2.0000      -1.048213       -28.5233
  35   2.0000      -1.024686       -27.8831
  36   2.0000      -1.005520       -27.3616
  37   2.0000      -0.961538       -26.1648
  38   2.0000      -0.949952       -25.8495
  39   2.0000      -0.936480       -25.4829
  40   2.0000      -0.905532       -24.6408
  41   2.0000      -0.879453       -23.9311
  42   2.0000      -0.846051       -23.0222
  43   2.0000      -0.830740       -22.6056
  44   2.0000      -0.816551       -22.2195
  45   2.0000      -0.789224       -21.4759
  46   2.0000      -0.786020       -21.3887
  47   2.0000      -0.742770       -20.2118
  48   2.0000      -0.737825       -20.0772
  49   2.0000      -0.725517       -19.7423
  50   2.0000      -0.719682       -19.5835
  51   2.0000      -0.694565       -18.9001
  52   2.0000      -0.684993       -18.6396
  53   2.0000      -0.674869       -18.3641
  54   2.0000      -0.662710       -18.0332
  55   2.0000      -0.654789       -17.8177
  56   2.0000      -0.643733       -17.5169
  57   2.0000      -0.640470       -17.4281
  58   2.0000      -0.630837       -17.1659
  59   2.0000      -0.620711       -16.8904
  60   2.0000      -0.613348       -16.6900
  61   2.0000      -0.604771       -16.4567
  62   2.0000      -0.596312       -16.2265
  63   2.0000      -0.589364       -16.0374
  64   2.0000      -0.587084       -15.9754
  65   2.0000      -0.580083       -15.7849
  66   2.0000      -0.576862       -15.6972
  67   2.0000      -0.568089       -15.4585
  68   2.0000      -0.561930       -15.2909
  69   2.0000      -0.557601       -15.1731
  70   2.0000      -0.544601       -14.8193
  71   2.0000      -0.540989       -14.7211
  72   2.0000      -0.537766       -14.6334
  73   2.0000      -0.531951       -14.4751
  74   2.0000      -0.528359       -14.3774
  75   2.0000      -0.522373       -14.2145
  76   2.0000      -0.513961       -13.9856
  77   2.0000      -0.512015       -13.9326
  78   2.0000      -0.505483       -13.7549
  79   2.0000      -0.496629       -13.5140
  80   2.0000      -0.495653       -13.4874
  81   2.0000      -0.490490       -13.3469
  82   2.0000      -0.486764       -13.2455
  83   2.0000      -0.479915       -13.0592
  84   2.0000      -0.476475       -12.9655
  85   2.0000      -0.466112       -12.6835
  86   2.0000      -0.453191       -12.3320
  87   2.0000      -0.441496       -12.0137
  88   2.0000      -0.431653       -11.7459
  89   2.0000      -0.425428       -11.5765
  90   2.0000      -0.404703       -11.0125
  91   2.0000      -0.387056       -10.5323
  92   2.0000      -0.294092        -8.0026
  93   2.0000      -0.254173        -6.9164
  94   0.0000       0.014570         0.3965
  95   0.0000       0.021645         0.5890
  96   0.0000       0.026691         0.7263
  97   0.0000       0.029457         0.8016
  98   0.0000       0.034588         0.9412

MULLIKEN ATOMIC CHARGES
-----------------------
   0 C :   -1.097726
   1 C :   -0.896523
   2 C :    1.430729
   3 C :    0.326406
   4 C :   -0.389845
   5 C :    1.750666
   6 C :   -0.464794
   7 C :    0.583513
   8 C :    0.540082
   9 C :   -0.815626
  10 C :   -0.757754
  11 C :    0.636493
  12 C :   -0.947951
  13 C :    0.515989
  14 C :    0.885817
  15 C :   -1.312398
  16 C :    0.467420
  17 C :   -0.960806
  18 C :    0.378348
  19 C :   -0.936377
  20 C :   -1.182277
  21 O :   -1.233806
  22 O :   -0.823611
  23 O :   -1.072999
  24 O :   -0.663906
  25 H :    0.241551
  26 H :    0.296993
  27 H :    0.312195
  28 H :    0.227924
  29 H :    0.230662
  30 H :    0.289856
  31 H :   -0.026098
  32 H :   -0.239768
  33 H :   -0.801121
  34 H :    0.220082
  35 H :    0.826129
  36 H :    0.053375
  37 H :   -0.212766
  38 H :    0.536790
  39 H :    0.222069
  40 H :    0.313515
  41 H :    0.253161
  42 H :    0.457045
  43 H :    0.137744
  44 H :    0.249815
  45 H :    0.391780
  46 H :    0.056106
  47 H :    0.324156
  48 H :    0.141416
  49 H :    0.131919
  50 H :    0.342512
  51 H :    0.320381
  52 H :    0.067683
  53 H :    0.669698
  54 H :    0.006130
Sum of atomic charges:    0.0000000

LOEWDIN ATOMIC CHARGES
----------------------
   0 C :    0.594177
   1 C :    0.272428
   2 C :   -0.227643
   3 C :   -0.006439
   4 C :    0.237724
   5 C :   -0.098748
   6 C :    0.225454
   7 C :    0.165215
   8 C :    0.156838
   9 C :    0.202832
  10 C :    0.213590
  11 C :    0.179566
  12 C :    0.206618
  13 C :    0.172406
  14 C :   -0.827520
  15 C :    0.604587
  16 C :   -0.244675
  17 C :    0.315719
  18 C :   -0.225562
  19 C :    0.303424
  20 C :    0.591383
  21 O :    0.439862
  22 O :    0.615991
  23 O :    0.874808
  24 O :    0.860333
  25 H :   -0.166057
  26 H :   -0.169585
  27 H :   -0.167777
  28 H :   -0.151729
  29 H :   -0.134852
  30 H :   -0.169052
  31 H :   -0.156722
  32 H :   -0.164309
  33 H :   -0.163422
  34 H :   -0.178276
  35 H :   -0.187658
  36 H :   -0.210118
  37 H :   -0.159078
  38 H :   -0.226653
  39 H :   -0.168360
  40 H :   -0.152900
  41 H :   -0.155264
  42 H :   -0.138271
  43 H :   -0.135460
  44 H :   -0.137039
  45 H :   -0.126500
  46 H :   -0.140317
  47 H :   -0.131950
  48 H :   -0.155454
  49 H :   -0.156131
  50 H :   -0.183779
  51 H :   -0.575777
  52 H :   -0.460337
  53 H :   -0.212628
  54 H :   -0.166916

  Mayer bond orders larger than 0.100000
B(  0-C ,  1-C ) :   0.7932 B(  0-C , 25-H ) :   1.0154 B(  0-C , 26-H ) :   0.9766
B(  0-C , 27-H ) :   0.9715 B(  1-C ,  2-C ) :   0.3996 B(  1-C ,  3-C ) :   0.1034
B(  1-C , 28-H ) :   1.1242 B(  1-C , 29-H ) :   1.0712 B(  2-C ,  3-C ) :   1.0802
B(  2-C ,  4-C ) :  -0.2235 B(  2-C , 15-C ) :   0.1007 B(  2-C , 22-O ) :  -0.3517
B(  2-C , 28-H ) :  -0.1406 B(  2-C , 30-H ) :   0.9616 B(  3-C ,  4-C ) :   0.8736
B(  3-C ,  5-C ) :   0.1033 B(  3-C ,  6-C ) :   0.1158 B(  3-C , 15-C ) :   0.4703
B(  3-C , 22-O ) :   0.3673 B(  3-C , 31-H ) :   1.0143 B(  3-C , 32-H ) :  -0.1866
B(  4-C ,  5-C ) :   0.8273 B(  4-C ,  6-C ) :   0.5546 B(  4-C ,  7-C ) :   0.5762
B(  4-C , 10-C ) :   0.1460 B(  4-C , 15-C ) :  -0.1649 B(  4-C , 16-C ) :  -0.1417
B(  4-C , 20-C ) :  -0.1894 B(  4-C , 21-O ) :   0.1648 B(  4-C , 30-H ) :   0.1105
B(  4-C , 32-H ) :   1.9913 B(  4-C , 33-H ) :  -0.5030 B(  4-C , 41-H ) :  -0.1186
B(  5-C ,  6-C ) :   0.6355 B(  5-C ,  7-C ) :   0.4613 B(  5-C ,  8-C ) :  -0.1410
B(  5-C , 10-C ) :   0.1742 B(  5-C , 11-C ) :  -0.2031 B(  5-C , 12-C ) :   0.1129
B(  5-C , 20-C ) :   0.4672 B(  5-C , 32-H ) :  -0.4567 B(  5-C , 33-H ) :  -0.5475
B(  5-C , 38-H ) :  -0.1044 B(  5-C , 48-H ) :  -0.2419 B(  5-C , 49-H ) :  -0.2566
B(  5-C , 50-H ) :   0.1812 B(  6-C ,  7-C ) :   0.2454 B(  6-C ,  8-C ) :   0.3273
B(  6-C ,  9-C ) :   0.1322 B(  6-C , 10-C ) :  -0.1352 B(  6-C , 11-C ) :   0.3238
B(  6-C , 16-C ) :   0.1687 B(  6-C , 19-C ) :   0.2035 B(  6-C , 32-H ) :  -0.6937
B(  6-C , 33-H ) :   2.8754 B(  6-C , 50-H ) :  -0.1210 B(  6-C , 53-H ) :  -0.1856
B(  7-C ,  8-C ) :   0.1165 B(  7-C , 10-C ) :   0.1712 B(  7-C , 16-C ) :   0.6666
B(  7-C , 17-C ) :  -0.2686 B(  7-C , 20-C ) :  -0.1765 B(  7-C , 23-O ) :   0.2119
B(  7-C , 32-H ) :   0.2681 B(  7-C , 33-H ) :  -0.6068 B(  7-C , 34-H ) :   1.0080
B(  7-C , 35-H ) :   0.1857 B(  7-C , 42-H ) :   0.1003 B(  7-C , 43-H ) :  -0.1054
B(  7-C , 53-H ) :   0.1262 B(  8-C ,  9-C ) :   1.2507 B(  8-C , 16-C ) :   0.1201
B(  8-C , 18-C ) :   0.1026 B(  8-C , 19-C ) :   0.9732 B(  8-C , 32-H ) :  -0.1039
B(  8-C , 33-H ) :   0.1134 B(  8-C , 35-H ) :   0.2928 B(  8-C , 53-H ) :  -0.1405
B(  8-C , 54-H ) :   0.1563 B(  9-C , 10-C ) :   0.9341 B(  9-C , 11-C ) :   0.2430
B(  9-C , 12-C ) :  -0.1915 B(  9-C , 19-C ) :  -0.1333 B(  9-C , 32-H ) :   0.1808
B(  9-C , 35-H ) :  -0.2850 B(  9-C , 36-H ) :   0.3348 B(  9-C , 38-H ) :   0.2011
B(  9-C , 53-H ) :   0.5671 B(  9-C , 54-H ) :  -0.1968 B( 10-C , 11-C ) :   0.8945
B( 10-C , 13-C ) :   0.3690 B( 10-C , 14-C ) :   0.1009 B( 10-C , 33-H ) :  -0.2080
B( 10-C , 36-H ) :  -0.4515 B( 10-C , 37-H ) :  -0.1688 B( 10-C , 53-H ) :  -0.2551
B( 10-C , 54-H ) :   1.4450 B( 11-C , 12-C ) :   0.3038 B( 11-C , 13-C ) :  -0.1088
B( 11-C , 35-H ) :  -0.1590 B( 11-C , 36-H ) :   1.6215 B( 11-C , 37-H ) :  -0.2463
B( 11-C , 38-H ) :  -0.2680 B( 11-C , 54-H ) :  -0.1271 B( 12-C , 13-C ) :   0.7548
B( 12-C , 14-C ) :  -0.1361 B( 12-C , 21-O ) :   0.1268 B( 12-C , 37-H ) :   2.0515
B( 12-C , 38-H ) :  -0.3204 B( 13-C , 14-C ) :   0.7301 B( 13-C , 21-O ) :  -0.2136
B( 13-C , 36-H ) :  -0.1582 B( 13-C , 37-H ) :  -0.3258 B( 13-C , 38-H ) :   0.7579
B( 14-C , 21-O ) :   0.4933 B( 14-C , 22-O ) :   1.2027 B( 14-C , 37-H ) :  -0.1072
B( 14-C , 38-H ) :  -0.1131 B( 15-C , 32-H ) :   0.1026 B( 15-C , 39-H ) :   1.0959
B( 15-C , 40-H ) :   1.0310 B( 15-C , 41-H ) :   1.0675 B( 16-C , 17-C ) :   1.0244
B( 16-C , 18-C ) :   0.1122 B( 16-C , 23-O ) :  -0.1097 B( 16-C , 33-H ) :   0.1060
B( 16-C , 42-H ) :   0.8907 B( 17-C , 18-C ) :   0.8775 B( 17-C , 19-C ) :   0.1483
B( 17-C , 23-O ) :   0.3551 B( 17-C , 43-H ) :   1.2195 B( 17-C , 44-H ) :   0.9504
B( 18-C , 19-C ) :   0.8888 B( 18-C , 24-O ) :   0.5345 B( 18-C , 45-H ) :   0.9069
B( 19-C , 24-O ) :   0.1163 B( 19-C , 35-H ) :  -0.3273 B( 19-C , 46-H ) :   1.2835
B( 19-C , 47-H ) :   0.9153 B( 20-C , 48-H ) :   1.2673 B( 20-C , 49-H ) :   1.2924
B( 20-C , 50-H ) :   0.8702 B( 21-O , 22-O ) :  -0.1170 B( 21-O , 37-H ) :   0.2244
B( 23-O , 42-H ) :  -0.2147 B( 23-O , 51-H ) :   0.8200 B( 24-O , 52-H ) :   1.0953
B( 24-O , 53-H ) :  -0.1144 B( 32-H , 33-H ) :  -0.1942 B( 33-H , 34-H ) :   0.1893
B( 33-H , 38-H ) :   0.1393 B( 33-H , 42-H ) :  -0.1279 B( 35-H , 36-H ) :  -0.1529
B( 48-H , 49-H ) :   0.1309 B( 53-H , 54-H ) :  -0.1219

MP2 TOTAL ENERGY:    -1116.962186599 Eh
FINAL SINGLE POINT ENERGY     -1116.962186599257

DIPOLE MOMENT
-------------
                                X             Y             Z
Electronic contribution:      5.21170      14.24326       6.73179
Nuclear contribution   :     -3.26963     -16.68820      -8.25165
                        -----------------------------------------
Total Dipole Moment    :      1.94207      -2.44495      -1.51986
                        -----------------------------------------
Magnitude (a.u.)       :      3.47266
Magnitude (Debye)      :      8.82681

Rotational constants in cm-1:     0.016190     0.003714     0.003456
Rotational constants in MHz :   485.366608   111.329794   103.602819

                             ****ORCA TERMINATED NORMALLY****
TOTAL RUN TIME: 0 days 2 hours 37 minutes 0 seconds 611 msec
