                         Program Version 4.2.1 -  RELEASE  -
|  1> %pal
|  2>  nprocs 32
|  3> end
|  4> !RI-MP2 aug-cc-pVTZ aug-cc-pVTZ/C TightSCF
|  5> %maxcore 4500
|  6> *xyzfile -1 1  09_21R2.xyz
|  7>
|  8>
|  9>                          ****END OF INPUT****

CARTESIAN COORDINATES (ANGSTROEM)
---------------------------------
  C      1.799057   -1.269950   -0.000009
  N      2.724320   -0.298056   -0.000013
  C      2.235834    0.945000   -0.000010
  C      0.892149    1.262946   -0.000004
  C     -0.084233    0.245036    0.000001
  C      0.437018   -1.068633   -0.000003
  C     -1.479242    0.552141    0.000007
  N     -2.385330   -0.406119    0.000010
  O     -3.608347   -0.064911    0.000019
  H      2.974890    1.744091   -0.000013
  H      0.585842    2.303617   -0.000002
  H     -0.248308   -1.905481   -0.000001
  H      2.187718   -2.286193   -0.000012
  H     -1.809791    1.593232    0.000008

 Total Charge           Charge          ....   -1
 Multiplicity           Mult            ....    1
 Number of Electrons    NEL             ....   64
 Basis Dimension        Dim             ....  529

ORBITAL ENERGIES
----------------

  NO   OCC          E(Eh)            E(eV)
   0   2.0000     -20.344035      -553.5893
   1   2.0000     -15.467122      -420.8818
   2   2.0000     -15.415734      -419.4835
   3   2.0000     -11.139878      -303.1315
   4   2.0000     -11.136137      -303.0297
   5   2.0000     -11.123086      -302.6745
   6   2.0000     -11.090620      -301.7911
   7   2.0000     -11.085322      -301.6469
   8   2.0000     -11.058661      -300.9215
   9   2.0000      -1.225632       -33.3511
  10   2.0000      -1.116532       -30.3824
  11   2.0000      -0.972031       -26.4503
  12   2.0000      -0.893447       -24.3119
  13   2.0000      -0.881129       -23.9767
  14   2.0000      -0.731020       -19.8921
  15   2.0000      -0.709591       -19.3090
  16   2.0000      -0.619836       -16.8666
  17   2.0000      -0.550423       -14.9778
  18   2.0000      -0.520722       -14.1696
  19   2.0000      -0.505503       -13.7554
  20   2.0000      -0.458581       -12.4786
  21   2.0000      -0.451524       -12.2866
  22   2.0000      -0.444512       -12.0958
  23   2.0000      -0.411706       -11.2031
  24   2.0000      -0.374838       -10.1999
  25   2.0000      -0.366749        -9.9797
  26   2.0000      -0.340782        -9.2732
  27   2.0000      -0.283528        -7.7152
  28   2.0000      -0.262113        -7.1325
  29   2.0000      -0.216124        -5.8810
  30   2.0000      -0.181261        -4.9324
  31   2.0000      -0.115829        -3.1519
  32   0.0000       0.108672         2.9571
  33   0.0000       0.112201         3.0531
  34   0.0000       0.123603         3.3634
  35   0.0000       0.136843         3.7237
  36   0.0000       0.142576         3.8797

MULLIKEN ATOMIC CHARGES
-----------------------
   0 C :   -0.482243
   1 N :   -0.701570
   2 C :   -0.368425
   3 C :   -0.820283
   4 C :    1.802687
   5 C :   -0.541923
   6 C :   -0.654543
   7 N :   -0.335018
   8 O :   -0.733237
   9 H :    0.704471
  10 H :    0.008724
  11 H :    0.027194
  12 H :    0.641170
  13 H :    0.452997
Sum of atomic charges:   -1.0000000

LOEWDIN ATOMIC CHARGES
----------------------
   0 C :   -0.047216
   1 N :    0.317409
   2 C :   -0.054790
   3 C :    0.169608
   4 C :   -0.223758
   5 C :    0.176879
   6 C :   -0.085264
   7 N :   -0.214001
   8 O :    0.040099
   9 H :   -0.208769
  10 H :   -0.204604
  11 H :   -0.215420
  12 H :   -0.208924
  13 H :   -0.241251

  Mayer bond orders larger than 0.100000
B(  0-C ,  1-N ) :   0.9738 B(  0-C ,  2-C ) :   0.1011 B(  0-C ,  3-C ) :  -0.1169
B(  0-C ,  4-C ) :   0.1184 B(  0-C ,  5-C ) :   0.9228 B(  0-C , 12-H ) :   0.4901
B(  1-N ,  2-C ) :   1.1610 B(  1-N ,  9-H ) :  -0.1499 B(  1-N , 12-H ) :  -0.1093
B(  2-C ,  3-C ) :   1.0352 B(  2-C ,  4-C ) :   0.1032 B(  2-C ,  5-C ) :  -0.1665
B(  2-C ,  9-H ) :   0.3972 B(  2-C , 10-H ) :  -0.1631 B(  3-C ,  4-C ) :   0.5059
B(  3-C , 10-H ) :   1.6269 B(  4-C ,  5-C ) :   0.6453 B(  4-C ,  6-C ) :   0.2785
B(  4-C ,  7-N ) :  -0.2951 B(  4-C , 10-H ) :  -0.2679 B(  4-C , 11-H ) :  -0.2027
B(  5-C ,  6-C ) :   0.2537 B(  5-C , 11-H ) :   1.4059 B(  6-C ,  7-N ) :   1.1834
B(  6-C , 13-H ) :   0.6819 B(  7-N ,  8-O ) :   1.0218

MP2 TOTAL ENERGY:     -415.584178823 Eh
FINAL SINGLE POINT ENERGY      -415.584178822690

DIPOLE MOMENT
-------------
                                X             Y             Z
Electronic contribution:     -1.11923      -0.98757       0.00001
Nuclear contribution   :      3.55140       1.41072      -0.00002
                        -----------------------------------------
Total Dipole Moment    :      2.43217       0.42315      -0.00001
                        -----------------------------------------
Magnitude (a.u.)       :      2.46870
Magnitude (Debye)      :      6.27494

Rotational constants in cm-1:     0.185534     0.030849     0.026451
Rotational constants in MHz :  5562.173958   924.837238   792.985466

                             ****ORCA TERMINATED NORMALLY****
TOTAL RUN TIME: 0 days 0 hours 2 minutes 35 seconds 215 msec
