                         Program Version 4.2.1 -  RELEASE  -
|  1> %pal
|  2>  nprocs 32
|  3> end
|  4> !RI-MP2 aug-cc-pVTZ aug-cc-pVTZ/C TightSCF
|  5> %maxcore 4500
|  6> *xyzfile 0 2  06_2P.xyz
|  7>
|  8>
|  9>                          ****END OF INPUT****

CARTESIAN COORDINATES (ANGSTROEM)
---------------------------------
  Si    -0.372306    0.000000   -0.011711
  C     -0.434312    1.537267   -1.085904
  H     -0.388833    2.446634   -0.481003
  H      0.402569    1.561388   -1.787631
  H     -1.358465    1.573546   -1.668468
  C     -1.818815    0.000003    1.187649
  H     -2.772866    0.000000    0.653911
  H     -1.801065   -0.882539    1.832212
  H     -1.801066    0.882551    1.832205
  C     -0.434301   -1.537284   -1.085881
  H      0.402579   -1.561409   -1.787610
  H     -0.388814   -2.446642   -0.480966
  H     -1.358455   -1.573579   -1.668442
  C      1.248388    0.000015    0.992823
  C      2.454368    0.000000    0.140868
  H      1.218849    0.881944    1.642519
  H      1.218848   -0.881891    1.642550
  H      2.873521    0.925641   -0.231338
  H      2.873513   -0.925653   -0.231314

 Total Charge           Charge          ....    0
 Multiplicity           Mult            ....    2
 Number of Electrons    NEL             ....   57
 Basis Dimension        Dim             ....  579

ORBITAL ENERGIES
----------------
                 SPIN UP ORBITALS
  NO   OCC          E(Eh)            E(eV)
   0   1.0000     -68.748086     -1870.7305
   1   1.0000     -11.224767      -305.4414
   2   1.0000     -11.202006      -304.8221
   3   1.0000     -11.194562      -304.6195
   4   1.0000     -11.193626      -304.5940
   5   1.0000     -11.193618      -304.5938
   6   1.0000      -6.096035      -165.8815
   7   1.0000      -4.202876      -114.3661
   8   1.0000      -4.201813      -114.3371
   9   1.0000      -4.201801      -114.3368
  10   1.0000      -1.028634       -27.9905
  11   1.0000      -0.959681       -26.1142
  12   1.0000      -0.921068       -25.0635
  13   1.0000      -0.920621       -25.0514
  14   1.0000      -0.828591       -22.5471
  15   1.0000      -0.628389       -17.0993
  16   1.0000      -0.619421       -16.8553
  17   1.0000      -0.569637       -15.5006
  18   1.0000      -0.563365       -15.3299
  19   1.0000      -0.559517       -15.2252
  20   1.0000      -0.548885       -14.9359
  21   1.0000      -0.536872       -14.6090
  22   1.0000      -0.531034       -14.4502
  23   1.0000      -0.527688       -14.3591
  24   1.0000      -0.500429       -13.6174
  25   1.0000      -0.465468       -12.6660
  26   1.0000      -0.426254       -11.5990
  27   1.0000      -0.425040       -11.5659
  28   1.0000      -0.313403        -8.5281
  29   0.0000       0.026253         0.7144
  30   0.0000       0.034406         0.9362
  31   0.0000       0.034613         0.9419
  32   0.0000       0.035476         0.9653
  33   0.0000       0.052573         1.4306

                 SPIN DOWN ORBITALS
  NO   OCC          E(Eh)            E(eV)
   0   1.0000     -68.747300     -1870.7091
   1   1.0000     -11.204582      -304.8922
   2   1.0000     -11.201770      -304.8157
   3   1.0000     -11.194292      -304.6122
   4   1.0000     -11.193663      -304.5951
   5   1.0000     -11.193655      -304.5948
   6   1.0000      -6.094791      -165.8477
   7   1.0000      -4.201357      -114.3247
   8   1.0000      -4.201226      -114.3212
   9   1.0000      -4.200244      -114.2945
  10   1.0000      -0.997323       -27.1385
  11   1.0000      -0.951763       -25.8988
  12   1.0000      -0.920568       -25.0499
  13   1.0000      -0.920532       -25.0489
  14   1.0000      -0.779145       -21.2016
  15   1.0000      -0.619256       -16.8508
  16   1.0000      -0.610260       -16.6060
  17   1.0000      -0.566477       -15.4146
  18   1.0000      -0.560054       -15.2399
  19   1.0000      -0.558629       -15.2011
  20   1.0000      -0.544396       -14.8138
  21   1.0000      -0.536418       -14.5967
  22   1.0000      -0.527492       -14.3538
  23   1.0000      -0.525287       -14.2938
  24   1.0000      -0.494770       -13.4634
  25   1.0000      -0.425332       -11.5739
  26   1.0000      -0.424870       -11.5613
  27   1.0000      -0.421762       -11.4767
  28   0.0000       0.026350         0.7170
  29   0.0000       0.034448         0.9374
  30   0.0000       0.034866         0.9487
  31   0.0000       0.035639         0.9698
  32   0.0000       0.052523         1.4292

MULLIKEN ATOMIC CHARGES AND SPIN POPULATIONS
--------------------------------------------
   0 Si:    1.609078    0.058071
   1 C :   -1.209673   -0.003249
   2 H :    0.262234    0.000652
   3 H :    0.303160   -0.003007
   4 H :    0.257042   -0.001683
   5 C :   -1.379787    0.011269
   6 H :    0.275710    0.000420
   7 H :    0.269820   -0.001195
   8 H :    0.269819   -0.001195
   9 C :   -1.209671   -0.003249
  10 H :    0.303159   -0.003007
  11 H :    0.262234    0.000652
  12 H :    0.257043   -0.001684
  13 C :   -0.367347   -0.197359
  14 C :   -1.150557    1.221112
  15 H :    0.277066    0.035367
  16 H :    0.277094    0.035368
  17 H :    0.346806   -0.073641
  18 H :    0.346770   -0.073640
Sum of atomic charges         :   -0.0000000

LOEWDIN ATOMIC CHARGES AND SPIN POPULATIONS
-------------------------------------------
   0 Si:    0.495248    0.036977
   1 C :    0.577198    0.003349
   2 H :   -0.228411    0.000166
   3 H :   -0.231938    0.002219
   4 H :   -0.230222    0.000148
   5 C :    0.578030    0.008986
   6 H :   -0.231391    0.002124
   7 H :   -0.230739    0.000175
   8 H :   -0.230738    0.000175
   9 C :    0.577198    0.003349
  10 H :   -0.231938    0.002219
  11 H :   -0.228411    0.000166
  12 H :   -0.230223    0.000148
  13 C :    0.219214    0.132455
  14 C :    0.513394    0.549662
  15 H :   -0.215218    0.011375
  16 H :   -0.215218    0.011375
  17 H :   -0.227917    0.117466
  18 H :   -0.227918    0.117466

  Mayer bond orders larger than 0.100000
B(  0-Si,  1-C ) :   0.6865 B(  0-Si,  5-C ) :   0.6105 B(  0-Si,  9-C ) :   0.6865
B(  0-Si, 13-C ) :   0.7133 B(  0-Si, 14-C ) :   0.2974 B(  1-C ,  2-H ) :   0.9676
B(  1-C ,  3-H ) :   0.9400 B(  1-C ,  4-H ) :   0.9742 B(  1-C ,  5-C ) :   0.2152
B(  1-C ,  9-C ) :   0.1492 B(  1-C , 13-C ) :   0.1263 B(  5-C ,  6-H ) :   0.9570
B(  5-C ,  7-H ) :   0.9667 B(  5-C ,  8-H ) :   0.9667 B(  5-C ,  9-C ) :   0.2152
B(  5-C , 13-C ) :   0.1427 B(  9-C , 10-H ) :   0.9400 B(  9-C , 11-H ) :   0.9676
B(  9-C , 12-H ) :   0.9742 B(  9-C , 13-C ) :   0.1263 B( 13-C , 14-C ) :   0.8185
B( 13-C , 15-H ) :   0.9265 B( 13-C , 16-H ) :   0.9265 B( 14-C , 17-H ) :   0.8969
B( 14-C , 18-H ) :   0.8970

MP2 TOTAL ENERGY:     -486.924809826 Eh
FINAL SINGLE POINT ENERGY      -486.924809825754

DIPOLE MOMENT
-------------
                                X             Y             Z
Electronic contribution:      0.74897       0.00001       0.76642
Nuclear contribution   :     -0.90623      -0.00001      -0.77467
                        -----------------------------------------
Total Dipole Moment    :     -0.15725       0.00000      -0.00825
                        -----------------------------------------
Magnitude (a.u.)       :      0.15747
Magnitude (Debye)      :      0.40026

Rotational constants in cm-1:     0.101451     0.064808     0.064547
Rotational constants in MHz :  3041.413718  1942.903960  1935.072189

                             ****ORCA TERMINATED NORMALLY****
TOTAL RUN TIME: 0 days 0 hours 4 minutes 29 seconds 975 msec
