                         Program Version 4.2.1 -  RELEASE  -
|  1> %pal
|  2>  nprocs 32
|  3> end
|  4> !RI-MP2 aug-cc-pVTZ aug-cc-pVTZ/C TightSCF
|  5> %maxcore 4500
|  6> *xyzfile 0 1  08_10P1.xyz
|  7>
|  8>
|  9>                          ****END OF INPUT****

CARTESIAN COORDINATES (ANGSTROEM)
---------------------------------
  S     -1.400889    1.532448    0.529859
  C     -2.370379    0.591278   -0.719603
  S      0.152158    2.361155   -0.562498
  C      1.270748    0.951326   -0.865209
  C      1.707345    0.189036    0.383061
  H      2.135228    1.402396   -1.361765
  H      0.800109    0.267697   -1.566571
  C     -2.634837   -0.849945   -0.264806
  H     -1.817608    0.610871   -1.656024
  H     -3.327703    1.092637   -0.847077
  N      2.530224    1.007061    1.271008
  C      2.510123   -1.032630   -0.077480
  H      0.820114   -0.196950    0.890032
  O      2.018490   -1.940779   -0.706650
  O      3.786575   -0.999353    0.244619
  N     -3.482180   -0.869623    0.909424
  C     -1.312000   -1.584935   -0.067021
  H     -3.162564   -1.337539   -1.089328
  O     -0.915519   -1.971669    1.002315
  O     -0.624288   -1.696033   -1.200289
  H      0.295753   -2.008977   -1.009481
  H      3.899585   -0.159732    0.750706
  H     -3.920923   -1.775274    1.020289
  H     -2.921036   -0.722801    1.742806
  H      2.294545    0.850139    2.243633
  H      2.399814    1.995711    1.088355

 Total Charge           Charge          ....    0
 Multiplicity           Mult            ....    1
 Number of Electrons    NEL             ....  126
 Basis Dimension        Dim             ....  928

ORBITAL ENERGIES
----------------

  NO   OCC          E(Eh)            E(eV)
   0   2.0000     -91.996782     -2503.3597
   1   2.0000     -91.989711     -2503.1673
   2   2.0000     -20.617447      -561.0293
   3   2.0000     -20.598823      -560.5225
   4   2.0000     -20.560074      -559.4681
   5   2.0000     -20.548057      -559.1411
   6   2.0000     -15.590771      -424.2465
   7   2.0000     -15.554706      -423.2651
   8   2.0000     -11.398407      -310.1664
   9   2.0000     -11.380941      -309.6912
  10   2.0000     -11.304698      -307.6165
  11   2.0000     -11.291269      -307.2510
  12   2.0000     -11.290964      -307.2427
  13   2.0000     -11.278991      -306.9169
  14   2.0000      -8.994956      -244.7652
  15   2.0000      -8.988291      -244.5838
  16   2.0000      -6.675954      -181.6619
  17   2.0000      -6.674745      -181.6290
  18   2.0000      -6.673866      -181.6051
  19   2.0000      -6.669290      -181.4806
  20   2.0000      -6.668106      -181.4484
  21   2.0000      -6.667295      -181.4263
  22   2.0000      -1.481399       -40.3109
  23   2.0000      -1.463905       -39.8349
  24   2.0000      -1.382512       -37.6201
  25   2.0000      -1.360920       -37.0325
  26   2.0000      -1.238232       -33.6940
  27   2.0000      -1.211299       -32.9611
  28   2.0000      -1.105654       -30.0864
  29   2.0000      -1.059268       -28.8242
  30   2.0000      -1.001935       -27.2640
  31   2.0000      -0.945304       -25.7230
  32   2.0000      -0.894212       -24.3327
  33   2.0000      -0.833441       -22.6791
  34   2.0000      -0.818375       -22.2691
  35   2.0000      -0.782536       -21.2939
  36   2.0000      -0.748797       -20.3758
  37   2.0000      -0.725652       -19.7460
  38   2.0000      -0.717490       -19.5239
  39   2.0000      -0.707022       -19.2390
  40   2.0000      -0.694805       -18.9066
  41   2.0000      -0.684519       -18.6267
  42   2.0000      -0.660727       -17.9793
  43   2.0000      -0.643445       -17.5090
  44   2.0000      -0.632656       -17.2154
  45   2.0000      -0.612440       -16.6653
  46   2.0000      -0.603511       -16.4224
  47   2.0000      -0.593206       -16.1420
  48   2.0000      -0.582027       -15.8378
  49   2.0000      -0.571328       -15.5466
  50   2.0000      -0.563289       -15.3279
  51   2.0000      -0.554694       -15.0940
  52   2.0000      -0.522424       -14.2159
  53   2.0000      -0.501560       -13.6481
  54   2.0000      -0.496111       -13.4999
  55   2.0000      -0.486805       -13.2466
  56   2.0000      -0.475972       -12.9519
  57   2.0000      -0.458797       -12.4845
  58   2.0000      -0.452681       -12.3181
  59   2.0000      -0.436941       -11.8898
  60   2.0000      -0.416448       -11.3321
  61   2.0000      -0.386480       -10.5167
  62   2.0000      -0.361196        -9.8287
  63   0.0000       0.022161         0.6030
  64   0.0000       0.029374         0.7993
  65   0.0000       0.032330         0.8798
  66   0.0000       0.041473         1.1285
  67   0.0000       0.044005         1.1974

MULLIKEN ATOMIC CHARGES
-----------------------
   0 S :   -0.265176
   1 C :   -0.305163
   2 S :   -0.411802
   3 C :   -0.338906
   4 C :    0.672747
   5 H :    0.330262
   6 H :    0.254057
   7 C :    0.526030
   8 H :    0.243384
   9 H :    0.314378
  10 N :   -0.677236
  11 C :    0.562649
  12 H :    0.486736
  13 O :   -0.716332
  14 O :   -0.640082
  15 N :   -0.773116
  16 C :    1.012825
  17 H :    0.455481
  18 O :   -1.069348
  19 O :   -0.686584
  20 H :    0.386141
  21 H :    0.235262
  22 H :    0.084263
  23 H :    0.136537
  24 H :    0.065728
  25 H :    0.117265
Sum of atomic charges:   -0.0000000

LOEWDIN ATOMIC CHARGES
----------------------
   0 S :    0.793381
   1 C :   -0.082103
   2 S :    0.773574
   3 C :   -0.115269
   4 C :   -0.198424
   5 H :   -0.210524
   6 H :   -0.257325
   7 C :   -0.240115
   8 H :   -0.247641
   9 H :   -0.221126
  10 N :    0.865375
  11 C :   -0.730344
  12 H :   -0.226080
  13 O :    0.552255
  14 O :    0.865959
  15 N :    0.833892
  16 C :   -0.828751
  17 H :   -0.141469
  18 O :    0.474996
  19 O :    0.858292
  20 H :   -0.678903
  21 H :   -0.576476
  22 H :   -0.309181
  23 H :   -0.348595
  24 H :   -0.275380
  25 H :   -0.330016

  Mayer bond orders larger than 0.100000
B(  0-S ,  1-C ) :   0.7750 B(  0-S ,  2-S ) :   1.0177 B(  0-S ,  7-C ) :   0.1163
B(  0-S ,  8-H ) :   0.1070 B(  1-C ,  7-C ) :   0.9872 B(  1-C ,  8-H ) :   0.9590
B(  1-C ,  9-H ) :   0.8849 B(  1-C , 15-N ) :   0.1303 B(  2-S ,  3-C ) :   0.7419
B(  2-S ,  4-C ) :   0.1705 B(  3-C ,  4-C ) :   0.7669 B(  3-C ,  5-H ) :   0.9089
B(  3-C ,  6-H ) :   1.0148 B(  3-C , 11-C ) :   0.1926 B(  4-C , 10-N ) :   0.3413
B(  4-C , 11-C ) :   0.4616 B(  4-C , 12-H ) :   0.9077 B(  7-C , 15-N ) :   0.3334
B(  7-C , 16-C ) :   0.8030 B(  7-C , 17-H ) :   0.8216 B( 10-N , 11-C ) :   0.1383
B( 10-N , 21-H ) :   0.1588 B( 10-N , 24-H ) :   1.0654 B( 10-N , 25-H ) :   1.0392
B( 11-C , 13-O ) :   1.3229 B( 11-C , 14-O ) :   0.7219 B( 13-O , 14-O ) :  -0.1196
B( 14-O , 21-H ) :   0.8534 B( 15-N , 16-C ) :   0.1031 B( 15-N , 22-H ) :   1.0012
B( 15-N , 23-H ) :   0.9926 B( 16-C , 18-O ) :   1.0100 B( 16-C , 19-O ) :   0.7931
B( 19-O , 20-H ) :   0.6567

MP2 TOTAL ENERGY:    -1440.700561593 Eh
FINAL SINGLE POINT ENERGY     -1440.700561592542

DIPOLE MOMENT
-------------
                                X             Y             Z
Electronic contribution:      2.32819       1.28354      -0.13896
Nuclear contribution   :     -2.36793      -0.20220       0.20580
                        -----------------------------------------
Total Dipole Moment    :     -0.03974       1.08133       0.06684
                        -----------------------------------------
Magnitude (a.u.)       :      1.08413
Magnitude (Debye)      :      2.75563

Rotational constants in cm-1:     0.024469     0.014509     0.010747
Rotational constants in MHz :   733.550598   434.955406   322.176702

                             ****ORCA TERMINATED NORMALLY****
TOTAL RUN TIME: 0 days 0 hours 16 minutes 14 seconds 697 msec
