                         Program Version 4.2.1 -  RELEASE  -
|  1> %pal
|  2>  nprocs 32
|  3> end
|  4> !RI-MP2 aug-cc-pVTZ aug-cc-pVTZ/C TightSCF
|  5> %maxcore 4500
|  6> *xyzfile 0 1  03_13R1.xyz
|  7>
|  8>
|  9>                          ****END OF INPUT****

CARTESIAN COORDINATES (ANGSTROEM)
---------------------------------
  C      1.456654    0.000023    0.875219
  C      0.025296    0.000010    0.447389
  C     -0.649212    1.200084    0.244315
  C     -0.649198   -1.200075    0.244332
  H     -0.128063    2.138654    0.396629
  C     -1.977059    1.201482   -0.155434
  C     -1.977044   -1.201494   -0.155417
  C     -2.643266   -0.000012   -0.356173
  H     -0.128037   -2.138636    0.396660
  H     -2.493362    2.141210   -0.309286
  H     -2.493336   -2.141231   -0.309255
  H     -3.680858   -0.000020   -0.667308
  H      1.706994   -0.887232    1.450579
  H      1.706991    0.887305    1.450537
  Cl     2.587802   -0.000009   -0.545526

 Total Charge           Charge          ....    0
 Multiplicity           Mult            ....    1
 Number of Electrons    NEL             ....   66
 Basis Dimension        Dim             ....  533

ORBITAL ENERGIES
----------------

  NO   OCC          E(Eh)            E(eV)
   0   2.0000    -104.821549     -2852.3394
   1   2.0000     -11.300834      -307.5113
   2   2.0000     -11.252313      -306.1910
   3   2.0000     -11.243354      -305.9472
   4   2.0000     -11.243314      -305.9461
   5   2.0000     -11.242489      -305.9237
   6   2.0000     -11.241621      -305.9001
   7   2.0000     -11.240930      -305.8812
   8   2.0000     -10.545660      -286.9620
   9   2.0000      -8.012414      -218.0289
  10   2.0000      -8.010646      -217.9807
  11   2.0000      -8.010616      -217.9800
  12   2.0000      -1.175812       -31.9955
  13   2.0000      -1.123607       -30.5749
  14   2.0000      -1.034829       -28.1591
  15   2.0000      -1.026539       -27.9335
  16   2.0000      -0.917164       -24.9573
  17   2.0000      -0.840124       -22.8609
  18   2.0000      -0.808554       -22.0019
  19   2.0000      -0.708503       -19.2793
  20   2.0000      -0.661059       -17.9883
  21   2.0000      -0.649300       -17.6684
  22   2.0000      -0.599213       -16.3054
  23   2.0000      -0.597434       -16.2570
  24   2.0000      -0.586203       -15.9514
  25   2.0000      -0.562290       -15.3007
  26   2.0000      -0.511340       -13.9143
  27   2.0000      -0.501834       -13.6556
  28   2.0000      -0.501194       -13.6382
  29   2.0000      -0.434777       -11.8309
  30   2.0000      -0.433148       -11.7866
  31   2.0000      -0.346817        -9.4374
  32   2.0000      -0.340851        -9.2750
  33   0.0000       0.027895         0.7591
  34   0.0000       0.032314         0.8793
  35   0.0000       0.032829         0.8933
  36   0.0000       0.045314         1.2331
  37   0.0000       0.047176         1.2837

MULLIKEN ATOMIC CHARGES
-----------------------
   0 C :   -0.121904
   1 C :    1.261919
   2 C :   -1.044782
   3 C :   -1.044766
   4 H :    0.264884
   5 C :   -0.450696
   6 C :   -0.450702
   7 C :   -0.248532
   8 H :    0.264903
   9 H :    0.476517
  10 H :    0.476509
  11 H :    0.437015
  12 H :    0.261931
  13 H :    0.261932
  14 Cl:   -0.344227
Sum of atomic charges:    0.0000000

LOEWDIN ATOMIC CHARGES
----------------------
   0 C :   -0.262832
   1 C :   -0.225707
   2 C :    0.199258
   3 C :    0.199257
   4 H :   -0.174165
   5 C :    0.200408
   6 C :    0.200406
   7 C :    0.196204
   8 H :   -0.174165
   9 H :   -0.181402
  10 H :   -0.181402
  11 H :   -0.182241
  12 H :   -0.241716
  13 H :   -0.241718
  14 Cl:    0.869816

  Mayer bond orders larger than 0.100000
B(  0-C ,  1-C ) :   0.8075 B(  0-C , 12-H ) :   0.9709 B(  0-C , 13-H ) :   0.9709
B(  0-C , 14-Cl) :   0.7031 B(  1-C ,  2-C ) :   0.5112 B(  1-C ,  3-C ) :   0.5112
B(  1-C ,  4-H ) :  -0.1177 B(  1-C ,  8-H ) :  -0.1177 B(  2-C ,  3-C ) :   0.1926
B(  2-C ,  4-H ) :   1.1304 B(  2-C ,  5-C ) :   1.2261 B(  2-C , 11-H ) :   0.1185
B(  3-C ,  6-C ) :   1.2262 B(  3-C ,  8-H ) :   1.1304 B(  3-C , 11-H ) :   0.1185
B(  5-C ,  7-C ) :   1.0542 B(  5-C ,  9-H ) :   0.8291 B(  5-C , 11-H ) :  -0.1549
B(  6-C ,  7-C ) :   1.0542 B(  6-C , 10-H ) :   0.8291 B(  6-C , 11-H ) :  -0.1549
B(  7-C , 11-H ) :   0.8459

MP2 TOTAL ENERGY:     -730.095265009 Eh
FINAL SINGLE POINT ENERGY      -730.095265009258

DIPOLE MOMENT
-------------
                                X             Y             Z
Electronic contribution:      8.32767      -0.00005      -2.54499
Nuclear contribution   :     -9.02030       0.00006       3.12268
                        -----------------------------------------
Total Dipole Moment    :     -0.69263       0.00001       0.57769
                        -----------------------------------------
Magnitude (a.u.)       :      0.90192
Magnitude (Debye)      :      2.29251

Rotational constants in cm-1:     0.140607     0.032854     0.029479
Rotational constants in MHz :  4215.290290   984.950900   883.749111

                             ****ORCA TERMINATED NORMALLY****
TOTAL RUN TIME: 0 days 0 hours 2 minutes 23 seconds 218 msec
