                         Program Version 4.2.1 -  RELEASE  -
|  1> %pal
|  2>  nprocs 32
|  3> end
|  4> !RI-MP2 aug-cc-pVTZ aug-cc-pVTZ/C TightSCF
|  5> %maxcore 4500
|  6> *xyzfile 0 1  07_10R1.xyz
|  7>
|  8>
|  9>                          ****END OF INPUT****

CARTESIAN COORDINATES (ANGSTROEM)
---------------------------------
  C     -1.849055   -1.365107    0.000046
  C     -1.347750   -0.063062    0.000043
  C      0.017520    0.207004   -0.000054
  C      0.919007   -0.849233   -0.000140
  C      0.441957   -2.157686   -0.000133
  C     -0.920109   -2.398862   -0.000044
  H      0.375163    1.225301   -0.000059
  H     -1.274241   -3.423032   -0.000044
  N      2.314180   -0.665950   -0.000246
  C      2.998624    0.507333   -0.000180
  O      2.541482    1.622790   -0.000049
  N     -2.270673    0.987744    0.000133
  C     -2.311341    2.184745    0.000309
  O     -2.469785    3.338184    0.000469
  O      4.329608    0.254298   -0.000288
  H      4.773866    1.110914   -0.000243
  H      2.882318   -1.498527   -0.000344
  C     -3.327078   -1.622804    0.000160
  H     -3.804271   -1.180996    0.877709
  H     -3.804479   -1.180588   -0.877067
  H     -3.532612   -2.693325   -0.000059
  H      1.138614   -2.988445   -0.000201

 Total Charge           Charge          ....    0
 Multiplicity           Mult            ....    1
 Number of Electrons    NEL             ....  100
 Basis Dimension        Dim             ....  828

ORBITAL ENERGIES
----------------

  NO   OCC          E(Eh)            E(eV)
   0   2.0000     -20.624135      -561.2112
   1   2.0000     -20.611608      -560.8704
   2   2.0000     -20.547015      -559.1127
   3   2.0000     -15.620849      -425.0649
   4   2.0000     -15.595273      -424.3690
   5   2.0000     -11.424635      -310.8801
   6   2.0000     -11.404611      -310.3353
   7   2.0000     -11.305882      -307.6487
   8   2.0000     -11.302941      -307.5687
   9   2.0000     -11.249544      -306.1157
  10   2.0000     -11.247339      -306.0556
  11   2.0000     -11.245154      -305.9962
  12   2.0000     -11.240907      -305.8806
  13   2.0000     -11.228278      -305.5370
  14   2.0000      -1.486453       -40.4485
  15   2.0000      -1.467359       -39.9289
  16   2.0000      -1.375062       -37.4173
  17   2.0000      -1.294577       -35.2272
  18   2.0000      -1.279819       -34.8256
  19   2.0000      -1.164006       -31.6742
  20   2.0000      -1.062411       -28.9097
  21   2.0000      -1.039605       -28.2891
  22   2.0000      -0.958352       -26.0781
  23   2.0000      -0.905062       -24.6280
  24   2.0000      -0.866426       -23.5766
  25   2.0000      -0.815191       -22.1825
  26   2.0000      -0.791318       -21.5328
  27   2.0000      -0.750328       -20.4175
  28   2.0000      -0.727701       -19.8017
  29   2.0000      -0.713720       -19.4213
  30   2.0000      -0.676482       -18.4080
  31   2.0000      -0.672970       -18.3124
  32   2.0000      -0.670546       -18.2465
  33   2.0000      -0.659820       -17.9546
  34   2.0000      -0.641861       -17.4659
  35   2.0000      -0.633900       -17.2493
  36   2.0000      -0.617956       -16.8154
  37   2.0000      -0.604538       -16.4503
  38   2.0000      -0.588550       -16.0153
  39   2.0000      -0.556710       -15.1488
  40   2.0000      -0.553910       -15.0727
  41   2.0000      -0.531029       -14.4500
  42   2.0000      -0.521417       -14.1885
  43   2.0000      -0.513054       -13.9609
  44   2.0000      -0.488312       -13.2876
  45   2.0000      -0.470621       -12.8063
  46   2.0000      -0.455749       -12.4016
  47   2.0000      -0.440731       -11.9929
  48   2.0000      -0.341155        -9.2833
  49   2.0000      -0.312746        -8.5103
  50   0.0000       0.021531         0.5859
  51   0.0000       0.027475         0.7476
  52   0.0000       0.032873         0.8945
  53   0.0000       0.042838         1.1657
  54   0.0000       0.048243         1.3128

MULLIKEN ATOMIC CHARGES
-----------------------
   0 C :    1.048592
   1 C :    1.195442
   2 C :   -0.984132
   3 C :    1.078167
   4 C :   -0.423705
   5 C :   -0.514626
   6 H :    0.658319
   7 H :    0.004740
   8 N :   -0.383270
   9 C :    0.288080
  10 O :   -0.712796
  11 N :   -0.287819
  12 C :   -0.447498
  13 O :   -0.572163
  14 O :   -0.477627
  15 H :    0.250870
  16 H :    0.078881
  17 C :   -0.945317
  18 H :    0.266262
  19 H :    0.266215
  20 H :    0.240416
  21 H :    0.372970
Sum of atomic charges:   -0.0000000

LOEWDIN ATOMIC CHARGES
----------------------
   0 C :   -0.113450
   1 C :   -0.289166
   2 C :    0.249602
   3 C :   -0.199701
   4 C :    0.227877
   5 C :    0.218177
   6 H :   -0.242110
   7 H :   -0.172330
   8 N :    0.542430
   9 C :   -0.915454
  10 O :    0.470386
  11 N :    0.311699
  12 C :   -0.444233
  13 O :    0.391092
  14 O :    0.843079
  15 H :   -0.472869
  16 H :   -0.295511
  17 C :    0.575008
  18 H :   -0.165320
  19 H :   -0.165335
  20 H :   -0.177274
  21 H :   -0.176599

  Mayer bond orders larger than 0.100000
B(  0-C ,  1-C ) :   1.0213 B(  0-C ,  2-C ) :   0.2354 B(  0-C ,  3-C ) :  -0.1248
B(  0-C ,  4-C ) :   0.5669 B(  0-C ,  5-C ) :   0.6252 B(  0-C ,  6-H ) :  -0.1238
B(  0-C ,  7-H ) :  -0.1800 B(  0-C , 18-H ) :  -0.1441 B(  0-C , 19-H ) :  -0.1441
B(  1-C ,  2-C ) :   1.2137 B(  1-C ,  3-C ) :   0.2812 B(  1-C ,  5-C ) :  -0.4671
B(  1-C ,  6-H ) :   0.1012 B(  1-C ,  8-N ) :  -0.1165 B(  1-C , 11-N ) :  -0.4345
B(  1-C , 12-C ) :  -0.7125 B(  1-C , 17-C ) :   0.3063 B(  2-C ,  3-C ) :   1.0224
B(  2-C ,  4-C ) :   0.2089 B(  2-C ,  6-H ) :   0.4176 B(  2-C ,  8-N ) :  -0.4293
B(  2-C ,  9-C ) :  -0.2211 B(  2-C , 11-N ) :  -0.2166 B(  2-C , 12-C ) :  -0.2918
B(  3-C ,  4-C ) :   0.6080 B(  3-C ,  5-C ) :  -0.1594 B(  3-C ,  6-H ) :   0.1366
B(  3-C ,  8-N ) :   0.4475 B(  3-C ,  9-C ) :  -0.5920 B(  3-C , 10-O ) :   0.1687
B(  4-C ,  5-C ) :   0.8217 B(  4-C ,  8-N ) :  -0.1951 B(  4-C ,  9-C ) :   0.1682
B(  4-C , 21-H ) :   0.8280 B(  5-C ,  6-H ) :   0.1431 B(  5-C ,  7-H ) :   1.6428
B(  5-C , 21-H ) :  -0.1704 B(  6-H , 10-O ) :  -0.2618 B(  8-N ,  9-C ) :   1.4539
B(  8-N , 16-H ) :   1.1262 B(  9-C , 10-O ) :   1.5609 B(  9-C , 14-O ) :   1.0425
B( 11-N , 12-C ) :   2.5265 B( 11-N , 13-O ) :  -0.2527 B( 12-C , 13-O ) :   1.9251
B( 14-O , 15-H ) :   0.9987 B( 17-C , 18-H ) :   1.0352 B( 17-C , 19-H ) :   1.0353
B( 17-C , 20-H ) :   1.0476

MP2 TOTAL ENERGY:     -681.802932185 Eh
FINAL SINGLE POINT ENERGY      -681.802932185045

DIPOLE MOMENT
-------------
                                X             Y             Z
Electronic contribution:      3.86842       8.60871       0.00014
Nuclear contribution   :     -3.10384     -10.30499      -0.00030
                        -----------------------------------------
Total Dipole Moment    :      0.76459      -1.69628      -0.00016
                        -----------------------------------------
Magnitude (a.u.)       :      1.86064
Magnitude (Debye)      :      4.72937

Rotational constants in cm-1:     0.032035     0.015090     0.010277
Rotational constants in MHz :   960.388085   452.375829   308.104180

                             ****ORCA TERMINATED NORMALLY****
TOTAL RUN TIME: 0 days 0 hours 9 minutes 32 seconds 144 msec
