                         Program Version 4.2.1 -  RELEASE  -
|  1> %pal
|  2>  nprocs 32
|  3> end
|  4> !RI-MP2 aug-cc-pVTZ aug-cc-pVTZ/C TightSCF
|  5> %maxcore 4500
|  6> *xyzfile 0 1  06_35R1.xyz
|  7>
|  8>
|  9>                          ****END OF INPUT****

CARTESIAN COORDINATES (ANGSTROEM)
---------------------------------
  C      0.563554   -0.447110    0.000015
  C      1.640542    0.326479   -0.000098
  C      3.050252   -0.179335   -0.000115
  H      3.596830    0.176723    0.878092
  H      3.081764   -1.270422    0.000004
  H      3.596740    0.176529   -0.878457
  C     -1.049230    1.501036   -0.000105
  C     -0.885344   -0.018511    0.000039
  H     -0.594170    1.951802    0.884754
  H     -0.594246    1.951625   -0.885092
  H     -2.109931    1.763114   -0.000085
  C     -1.560875   -0.601988   -1.250462
  C     -1.560759   -0.601739    1.250719
  H     -1.461070   -1.690074   -1.279250
  H     -2.627602   -0.362193   -1.260214
  H     -1.110604   -0.198722   -2.160202
  H     -2.627486   -0.361943    1.260521
  H     -1.460951   -1.689819    1.279715
  H     -1.110404   -0.198291    2.160337
  H      0.708424   -1.528081    0.000106
  H      1.523869    1.406770   -0.000190

 Total Charge           Charge          ....    0
 Multiplicity           Mult            ....    1
 Number of Electrons    NEL             ....   56
 Basis Dimension        Dim             ....  644

ORBITAL ENERGIES
----------------

  NO   OCC          E(Eh)            E(eV)
   0   2.0000     -11.234274      -305.7001
   1   2.0000     -11.219711      -305.3039
   2   2.0000     -11.216363      -305.2128
   3   2.0000     -11.215284      -305.1834
   4   2.0000     -11.209325      -305.0212
   5   2.0000     -11.209309      -305.0208
   6   2.0000     -11.207942      -304.9836
   7   2.0000      -1.116209       -30.3736
   8   2.0000      -1.042240       -28.3608
   9   2.0000      -0.930651       -25.3243
  10   2.0000      -0.927997       -25.2521
  11   2.0000      -0.923493       -25.1295
  12   2.0000      -0.787783       -21.4367
  13   2.0000      -0.715715       -19.4756
  14   2.0000      -0.639984       -17.4148
  15   2.0000      -0.611032       -16.6270
  16   2.0000      -0.596946       -16.2437
  17   2.0000      -0.566000       -15.4016
  18   2.0000      -0.561601       -15.2820
  19   2.0000      -0.553639       -15.0653
  20   2.0000      -0.538249       -14.6465
  21   2.0000      -0.523897       -14.2560
  22   2.0000      -0.510284       -13.8855
  23   2.0000      -0.501163       -13.6373
  24   2.0000      -0.466652       -12.6982
  25   2.0000      -0.457210       -12.4413
  26   2.0000      -0.451726       -12.2921
  27   2.0000      -0.343450        -9.3458
  28   0.0000       0.029578         0.8049
  29   0.0000       0.033744         0.9182
  30   0.0000       0.035995         0.9795
  31   0.0000       0.038790         1.0555
  32   0.0000       0.049755         1.3539

MULLIKEN ATOMIC CHARGES
-----------------------
   0 C :   -0.005477
   1 C :   -0.428886
   2 C :   -0.940167
   3 H :    0.263136
   4 H :    0.287053
   5 H :    0.263140
   6 C :   -1.205429
   7 C :    1.610742
   8 H :    0.250741
   9 H :    0.250742
  10 H :    0.254143
  11 C :   -1.205144
  12 C :   -1.205142
  13 H :    0.263098
  14 H :    0.225772
  15 H :    0.310603
  16 H :    0.225771
  17 H :    0.263098
  18 H :    0.310605
  19 H :   -0.003841
  20 H :    0.215440
Sum of atomic charges:   -0.0000000

LOEWDIN ATOMIC CHARGES
----------------------
   0 C :    0.219205
   1 C :    0.217708
   2 C :    0.555287
   3 H :   -0.177004
   4 H :   -0.183363
   5 H :   -0.177004
   6 C :    0.561087
   7 C :   -0.392249
   8 H :   -0.158238
   9 H :   -0.158238
  10 H :   -0.155994
  11 C :    0.577390
  12 C :    0.577390
  13 H :   -0.159123
  14 H :   -0.157665
  15 H :   -0.155022
  16 H :   -0.157664
  17 H :   -0.159123
  18 H :   -0.155022
  19 H :   -0.168274
  20 H :   -0.194084

  Mayer bond orders larger than 0.100000
B(  0-C ,  1-C ) :   0.9200 B(  0-C ,  6-C ) :   0.1141 B(  0-C ,  7-C ) :   0.8013
B(  0-C , 19-H ) :   1.2680 B(  1-C ,  2-C ) :   0.5818 B(  1-C ,  7-C ) :   0.1073
B(  1-C , 20-H ) :   1.2925 B(  2-C ,  3-H ) :   1.0282 B(  2-C ,  4-H ) :   0.9540
B(  2-C ,  5-H ) :   1.0281 B(  6-C ,  7-C ) :   0.4091 B(  6-C ,  8-H ) :   1.0683
B(  6-C ,  9-H ) :   1.0683 B(  6-C , 10-H ) :   1.0112 B(  6-C , 20-H ) :  -0.1228
B(  7-C , 10-H ) :  -0.1046 B(  7-C , 11-C ) :   0.4362 B(  7-C , 12-C ) :   0.4362
B( 11-C , 12-C ) :   0.1527 B( 11-C , 13-H ) :   1.0296 B( 11-C , 14-H ) :   1.0508
B( 11-C , 15-H ) :   0.9850 B( 12-C , 16-H ) :   1.0508 B( 12-C , 17-H ) :   1.0296
B( 12-C , 18-H ) :   0.9850

MP2 TOTAL ENERGY:     -274.545047801 Eh
FINAL SINGLE POINT ENERGY      -274.545047800824

DIPOLE MOMENT
-------------
                                X             Y             Z
Electronic contribution:      1.28079      -0.11382      -0.00005
Nuclear contribution   :     -1.27339       0.13605       0.00004
                        -----------------------------------------
Total Dipole Moment    :      0.00740       0.02223      -0.00000
                        -----------------------------------------
Magnitude (a.u.)       :      0.02343
Magnitude (Debye)      :      0.05955

Rotational constants in cm-1:     0.141184     0.048157     0.047322
Rotational constants in MHz :  4232.593442  1443.699248  1418.683646

                             ****ORCA TERMINATED NORMALLY****
TOTAL RUN TIME: 0 days 0 hours 3 minutes 25 seconds 339 msec
