                         Program Version 4.2.1 -  RELEASE  -
|  1> %pal
|  2>  nprocs 32
|  3> end
|  4> !RI-MP2 aug-cc-pVTZ aug-cc-pVTZ/C TightSCF
|  5> %maxcore 4500
|  6> *xyzfile 1 1  05_34TS.xyz
|  7>
|  8>
|  9>                          ****END OF INPUT****

CARTESIAN COORDINATES (ANGSTROEM)
---------------------------------
  C      1.959900    0.991755    0.418332
  C      1.812359   -1.658026    0.322677
  C      3.310858   -1.668276    0.643017
  C      4.039718   -0.447601    0.111924
  C      3.440705    0.802876    0.745400
  H      3.438759   -1.718116    1.729702
  H      3.735697   -2.582634    0.223570
  H      3.936612   -0.384123   -0.972451
  H      3.567595    0.741862    1.830695
  H      3.981520    1.682952    0.396607
  N      1.252393   -0.307105    0.622005
  O     -0.012543   -0.243148    0.709680
  C      1.341527    2.013115    1.371693
  H      1.918140    2.937082    1.314872
  H      0.307432    2.236064    1.112296
  H      1.370861    1.651892    2.400392
  C      1.763473    1.457185   -1.033388
  H      2.163487    2.466947   -1.129996
  H      0.704988    1.494850   -1.294550
  H      2.283515    0.829538   -1.753994
  C      1.089948   -2.670097    1.211091
  H      0.035043   -2.751948    0.953812
  H      1.553794   -3.648586    1.079763
  H      1.168506   -2.389469    2.262100
  C      1.553297   -1.993863   -1.154374
  H      0.492771   -1.904212   -1.394212
  H      1.841248   -3.030401   -1.334126
  H      2.121091   -1.364028   -1.836484
  C     -2.850724   -0.529322   -0.603824
  C     -2.668677    0.801478   -0.587624
  C     -1.645923   -0.009655   -1.162026
  H     -0.649265   -0.152494   -0.358866
  H     -1.202934   -0.057439   -2.157153
  C     -3.079488    2.135874   -0.296267
  C     -2.282495    3.206003   -0.720942
  C     -4.260059    2.388584    0.413153
  C     -2.662361    4.505660   -0.442224
  H     -1.371520    3.007675   -1.272282
  C     -4.633754    3.689863    0.688890
  H     -4.875802    1.562954    0.745070
  C     -3.836475    4.747030    0.262139
  H     -2.048479    5.333374   -0.773444
  H     -5.546380    3.886408    1.236645
  H     -4.133343    5.765521    0.479705
  C     -3.608155   -1.710429   -0.346788
  C     -4.824341   -1.651918    0.344547
  C     -3.120672   -2.945611   -0.790468
  C     -5.537960   -2.810709    0.583677
  H     -5.201881   -0.698481    0.690071
  C     -3.839422   -4.101296   -0.547934
  H     -2.180732   -2.986312   -1.327519
  C     -5.046654   -4.033616    0.138418
  H     -6.478802   -2.766659    1.116997
  H     -3.464804   -5.056268   -0.893415
  H     -5.609337   -4.939407    0.327394
  N      5.462322   -0.546010    0.364614
  C      6.341625    0.190068   -0.378196
  C      7.799578    0.040517   -0.033375
  H      7.984020   -0.658757    0.782445
  H      8.333189   -0.296906   -0.922215
  H      8.197670    1.019499    0.234814
  O      5.948918    0.918076   -1.270504
  H      5.798382   -1.095540    1.138843

 Total Charge           Charge          ....    1
 Multiplicity           Mult            ....    1
 Number of Electrons    NEL             ....  218
 Basis Dimension        Dim             .... 2139

ORBITAL ENERGIES
----------------

  NO   OCC          E(Eh)            E(eV)
   0   2.0000     -20.785101      -565.5913
   1   2.0000     -20.592941      -560.3624
   2   2.0000     -15.783845      -429.5003
   3   2.0000     -15.668309      -426.3564
   4   2.0000     -11.426508      -310.9311
   5   2.0000     -11.420064      -310.7557
   6   2.0000     -11.418251      -310.7064
   7   2.0000     -11.417159      -310.6767
   8   2.0000     -11.399200      -310.1880
   9   2.0000     -11.392971      -310.0185
  10   2.0000     -11.370417      -309.4048
  11   2.0000     -11.370233      -309.3998
  12   2.0000     -11.364718      -309.2497
  13   2.0000     -11.359806      -309.1160
  14   2.0000     -11.359496      -309.1076
  15   2.0000     -11.359419      -309.1055
  16   2.0000     -11.359339      -309.1033
  17   2.0000     -11.352184      -308.9086
  18   2.0000     -11.351975      -308.9029
  19   2.0000     -11.343871      -308.6824
  20   2.0000     -11.343398      -308.6696
  21   2.0000     -11.343376      -308.6690
  22   2.0000     -11.343110      -308.6617
  23   2.0000     -11.337135      -308.4991
  24   2.0000     -11.332901      -308.3839
  25   2.0000     -11.327056      -308.2249
  26   2.0000     -11.323417      -308.1258
  27   2.0000     -11.323413      -308.1257
  28   2.0000     -11.318774      -307.9995
  29   2.0000     -11.306025      -307.6526
  30   2.0000      -1.622318       -44.1455
  31   2.0000      -1.462767       -39.8039
  32   2.0000      -1.363921       -37.1142
  33   2.0000      -1.327300       -36.1177
  34   2.0000      -1.287370       -35.0311
  35   2.0000      -1.278863       -34.7996
  36   2.0000      -1.271054       -34.5871
  37   2.0000      -1.219440       -33.1826
  38   2.0000      -1.159522       -31.5522
  39   2.0000      -1.151829       -31.3429
  40   2.0000      -1.145962       -31.1832
  41   2.0000      -1.136622       -30.9291
  42   2.0000      -1.135620       -30.9018
  43   2.0000      -1.104396       -30.0522
  44   2.0000      -1.070397       -29.1270
  45   2.0000      -1.058487       -28.8029
  46   2.0000      -1.047276       -28.4978
  47   2.0000      -1.041878       -28.3510
  48   2.0000      -0.993038       -27.0219
  49   2.0000      -0.992203       -26.9992
  50   2.0000      -0.953954       -25.9584
  51   2.0000      -0.947338       -25.7784
  52   2.0000      -0.944202       -25.6931
  53   2.0000      -0.934736       -25.4354
  54   2.0000      -0.928728       -25.2720
  55   2.0000      -0.882853       -24.0237
  56   2.0000      -0.873848       -23.7786
  57   2.0000      -0.868365       -23.6294
  58   2.0000      -0.847218       -23.0540
  59   2.0000      -0.802898       -21.8480
  60   2.0000      -0.797254       -21.6944
  61   2.0000      -0.791566       -21.5396
  62   2.0000      -0.790673       -21.5153
  63   2.0000      -0.785141       -21.3648
  64   2.0000      -0.768468       -20.9111
  65   2.0000      -0.757781       -20.6203
  66   2.0000      -0.752786       -20.4844
  67   2.0000      -0.749784       -20.4027
  68   2.0000      -0.727579       -19.7984
  69   2.0000      -0.726472       -19.7683
  70   2.0000      -0.723436       -19.6857
  71   2.0000      -0.716230       -19.4896
  72   2.0000      -0.708385       -19.2761
  73   2.0000      -0.708167       -19.2702
  74   2.0000      -0.703758       -19.1502
  75   2.0000      -0.700350       -19.0575
  76   2.0000      -0.691231       -18.8093
  77   2.0000      -0.688833       -18.7441
  78   2.0000      -0.675696       -18.3866
  79   2.0000      -0.673324       -18.3221
  80   2.0000      -0.669413       -18.2156
  81   2.0000      -0.657972       -17.9043
  82   2.0000      -0.648137       -17.6367
  83   2.0000      -0.647125       -17.6092
  84   2.0000      -0.644142       -17.5280
  85   2.0000      -0.640688       -17.4340
  86   2.0000      -0.634183       -17.2570
  87   2.0000      -0.631618       -17.1872
  88   2.0000      -0.627183       -17.0665
  89   2.0000      -0.624225       -16.9860
  90   2.0000      -0.622357       -16.9352
  91   2.0000      -0.616227       -16.7684
  92   2.0000      -0.611624       -16.6431
  93   2.0000      -0.606677       -16.5085
  94   2.0000      -0.604502       -16.4493
  95   2.0000      -0.598044       -16.2736
  96   2.0000      -0.592989       -16.1360
  97   2.0000      -0.587719       -15.9927
  98   2.0000      -0.585783       -15.9400
  99   2.0000      -0.580850       -15.8057
 100   2.0000      -0.563639       -15.3374
 101   2.0000      -0.561097       -15.2682
 102   2.0000      -0.501280       -13.6405
 103   2.0000      -0.481533       -13.1032
 104   2.0000      -0.475681       -12.9439
 105   2.0000      -0.472940       -12.8693
 106   2.0000      -0.454185       -12.3590
 107   2.0000      -0.453152       -12.3309
 108   2.0000      -0.388092       -10.5605
 109   0.0000      -0.126989        -3.4555
 110   0.0000      -0.061727        -1.6797
 111   0.0000      -0.050925        -1.3857
 112   0.0000      -0.043641        -1.1875
 113   0.0000      -0.043320        -1.1788

MULLIKEN ATOMIC CHARGES
-----------------------
   0 C :    2.075523
   1 C :    1.728347
   2 C :   -1.407412
   3 C :    1.296063
   4 C :   -1.208228
   5 H :    0.176716
   6 H :    0.347185
   7 H :    0.543230
   8 H :    0.184807
   9 H :    0.371357
  10 N :    0.851387
  11 O :   -1.115031
  12 C :   -2.037754
  13 H :    0.134571
  14 H :    0.656088
  15 H :    0.148948
  16 C :   -1.343170
  17 H :    0.043023
  18 H :    0.560617
  19 H :    0.223688
  20 C :   -1.916299
  21 H :    0.630943
  22 H :    0.119843
  23 H :    0.169801
  24 C :   -1.342560
  25 H :    0.512193
  26 H :    0.092893
  27 H :    0.293292
  28 C :    0.426178
  29 C :    0.174925
  30 C :   -0.814036
  31 H :    0.258538
  32 H :    0.349085
  33 C :    3.413285
  34 C :   -0.816831
  35 C :   -1.273081
  36 C :   -1.066181
  37 H :   -0.175574
  38 C :   -0.965800
  39 H :   -0.248716
  40 C :   -0.090217
  41 H :    0.553576
  42 H :    0.581150
  43 H :    0.476449
  44 C :    3.493750
  45 C :   -1.228954
  46 C :   -0.867998
  47 C :   -0.983644
  48 H :   -0.230667
  49 C :   -1.063416
  50 H :   -0.215764
  51 C :   -0.079659
  52 H :    0.596826
  53 H :    0.560427
  54 H :    0.447029
  55 N :   -0.619180
  56 C :    0.704821
  57 C :   -0.889440
  58 H :    0.271794
  59 H :    0.324304
  60 H :    0.322663
  61 O :   -1.042479
  62 H :   -0.073222
Sum of atomic charges:    1.0000000

LOEWDIN ATOMIC CHARGES
----------------------
   0 C :   -0.373478
   1 C :   -0.374243
   2 C :    0.332763
   3 C :   -0.103737
   4 C :    0.333404
   5 H :   -0.123284
   6 H :   -0.115623
   7 H :   -0.164288
   8 H :   -0.120813
   9 H :   -0.128900
  10 N :    0.088579
  11 O :    0.718367
  12 C :    0.605599
  13 H :   -0.143787
  14 H :   -0.167139
  15 H :   -0.145111
  16 C :    0.629152
  17 H :   -0.135212
  18 H :   -0.181723
  19 H :   -0.168504
  20 C :    0.604156
  21 H :   -0.164526
  22 H :   -0.145060
  23 H :   -0.145304
  24 C :    0.625431
  25 H :   -0.173390
  26 H :   -0.139080
  27 H :   -0.169820
  28 C :    0.046948
  29 C :    0.045696
  30 C :    0.342209
  31 H :   -0.553781
  32 H :   -0.100090
  33 C :   -0.092499
  34 C :    0.227323
  35 C :    0.238928
  36 C :    0.232722
  37 H :   -0.170314
  38 C :    0.234868
  39 H :   -0.179582
  40 C :    0.234156
  41 H :   -0.170902
  42 H :   -0.170069
  43 H :   -0.163934
  44 C :   -0.093016
  45 C :    0.238704
  46 C :    0.228063
  47 C :    0.234556
  48 H :   -0.179639
  49 C :    0.230658
  50 H :   -0.166314
  51 C :    0.233455
  52 H :   -0.170088
  53 H :   -0.171685
  54 H :   -0.164175
  55 N :    0.591526
  56 C :   -0.663169
  57 C :    0.610903
  58 H :   -0.179402
  59 H :   -0.165567
  60 H :   -0.165803
  61 O :    0.468160
  62 H :   -0.273274

  Mayer bond orders larger than 0.100000
B(  0-C ,  1-C ) :  -0.1409 B(  0-C , 10-N ) :   0.8817 B(  0-C , 11-O ) :   0.1842
B(  0-C , 13-H ) :  -0.2057 B(  0-C , 15-H ) :  -0.2204 B(  0-C , 16-C ) :   0.3143
B(  0-C , 17-H ) :  -0.1308 B(  0-C , 19-H ) :  -0.1031 B(  1-C ,  3-C ) :   0.1126
B(  1-C ,  5-H ) :  -0.1251 B(  1-C , 10-N ) :   0.8602 B(  1-C , 11-O ) :   0.1813
B(  1-C , 20-C ) :   0.1901 B(  1-C , 22-H ) :  -0.1824 B(  1-C , 23-H ) :  -0.1955
B(  1-C , 24-C ) :   0.5258 B(  2-C ,  3-C ) :   0.4862 B(  2-C ,  4-C ) :   0.3106
B(  2-C ,  5-H ) :   1.3235 B(  2-C ,  6-H ) :   0.8291 B(  2-C , 10-N ) :   0.2072
B(  2-C , 55-N ) :   0.1839 B(  3-C ,  4-C ) :   0.7629 B(  3-C ,  7-H ) :   0.8775
B(  3-C , 10-N ) :  -0.3507 B(  4-C ,  7-H ) :   0.1980 B(  4-C ,  8-H ) :   1.2207
B(  4-C ,  9-H ) :   0.9449 B(  4-C , 55-N ) :   0.1742 B(  4-C , 61-O ) :   0.1099
B(  7-H , 55-N ) :  -0.4231 B(  7-H , 56-C ) :  -0.1500 B(  7-H , 61-O ) :  -0.2316
B( 10-N , 11-O ) :  -0.1322 B( 10-N , 12-C ) :  -0.2160 B( 10-N , 20-C ) :  -0.2491
B( 10-N , 31-H ) :   0.1157 B( 11-O , 12-C ) :   0.1427 B( 11-O , 20-C ) :   0.1400
B( 11-O , 30-C ) :   0.1777 B( 11-O , 31-H ) :  -0.2632 B( 12-C , 13-H ) :   1.3707
B( 12-C , 14-H ) :   0.5846 B( 12-C , 15-H ) :   1.3974 B( 16-C , 17-H ) :   1.3537
B( 16-C , 18-H ) :   0.6023 B( 16-C , 19-H ) :   1.2292 B( 20-C , 21-H ) :   0.5765
B( 20-C , 22-H ) :   1.3654 B( 20-C , 23-H ) :   1.3483 B( 24-C , 25-H ) :   0.7048
B( 24-C , 26-H ) :   1.2298 B( 24-C , 27-H ) :   1.1091 B( 28-C , 29-C ) :   0.2912
B( 28-C , 30-C ) :   0.7058 B( 28-C , 33-C ) :  -0.3660 B( 28-C , 34-C ) :   0.3097
B( 28-C , 35-C ) :   0.2188 B( 28-C , 36-C ) :  -0.2539 B( 28-C , 38-C ) :  -0.2865
B( 28-C , 39-H ) :  -0.1258 B( 28-C , 40-C ) :   0.2749 B( 28-C , 41-H ) :   0.3035
B( 28-C , 42-H ) :  -0.1148 B( 28-C , 45-C ) :   0.6218 B( 28-C , 46-C ) :   0.6166
B( 28-C , 47-C ) :   0.1845 B( 28-C , 48-H ) :  -1.0576 B( 28-C , 49-C ) :   0.4213
B( 28-C , 50-H ) :  -1.1547 B( 28-C , 51-C ) :   0.3582 B( 28-C , 52-H ) :   0.4680
B( 28-C , 53-H ) :   0.4701 B( 28-C , 54-H ) :  -0.5085 B( 29-C , 30-C ) :   0.7345
B( 29-C , 31-H ) :   0.1169 B( 29-C , 33-C ) :  -0.1075 B( 29-C , 34-C ) :   0.6068
B( 29-C , 35-C ) :   0.5793 B( 29-C , 36-C ) :   0.4528 B( 29-C , 37-H ) :  -1.0743
B( 29-C , 38-C ) :   0.2172 B( 29-C , 39-H ) :  -1.0599 B( 29-C , 40-C ) :   0.3196
B( 29-C , 41-H ) :   0.3703 B( 29-C , 42-H ) :   0.4091 B( 29-C , 43-H ) :  -0.4501
B( 29-C , 44-C ) :  -0.3096 B( 29-C , 45-C ) :   0.2318 B( 29-C , 46-C ) :   0.2984
B( 29-C , 47-C ) :  -0.2475 B( 29-C , 49-C ) :  -0.2382 B( 29-C , 51-C ) :   0.1999
B( 29-C , 52-H ) :  -0.1293 B( 29-C , 53-H ) :   0.2471 B( 30-C , 31-H ) :   1.4431
B( 30-C , 32-H ) :   0.8777 B( 30-C , 33-C ) :  -0.2276 B( 30-C , 41-H ) :  -0.1011
B( 30-C , 44-C ) :  -0.1338 B( 30-C , 53-H ) :  -0.1064 B( 31-H , 33-C ) :  -0.1465
B( 31-H , 44-C ) :  -0.2001 B( 33-C , 34-C ) :  -0.4640 B( 33-C , 35-C ) :  -0.6515
B( 33-C , 37-H ) :  -0.5493 B( 33-C , 38-C ) :  -0.3195 B( 33-C , 39-H ) :  -0.5481
B( 33-C , 40-C ) :   0.1257 B( 33-C , 41-H ) :  -0.2327 B( 33-C , 42-H ) :  -0.2838
B( 33-C , 43-H ) :   0.4793 B( 33-C , 44-C ) :   0.3210 B( 34-C , 35-C ) :  -1.3222
B( 34-C , 36-C ) :   1.3207 B( 34-C , 37-H ) :   2.2363 B( 34-C , 38-C ) :   0.1209
B( 34-C , 39-H ) :   0.4323 B( 34-C , 40-C ) :  -0.4207 B( 35-C , 36-C ) :   0.1862
B( 35-C , 37-H ) :   0.1667 B( 35-C , 38-C ) :   1.3800 B( 35-C , 39-H ) :   2.6175
B( 35-C , 40-C ) :  -0.3554 B( 35-C , 45-C ) :   0.1202 B( 36-C , 38-C ) :   0.5533
B( 36-C , 39-H ) :  -0.2264 B( 36-C , 40-C ) :   1.0488 B( 36-C , 41-H ) :   0.4637
B( 36-C , 43-H ) :  -0.2679 B( 37-H , 38-C ) :  -0.1103 B( 37-H , 39-H ) :   1.0582
B( 37-H , 40-C ) :  -0.2904 B( 37-H , 42-H ) :  -0.2207 B( 37-H , 43-H ) :   0.1029
B( 37-H , 48-H ) :   0.1139 B( 38-C , 39-H ) :   0.1102 B( 38-C , 40-C ) :   1.0335
B( 38-C , 42-H ) :   0.3513 B( 38-C , 43-H ) :  -0.1520 B( 39-H , 40-C ) :  -0.3298
B( 39-H , 41-H ) :  -0.3764 B( 39-H , 43-H ) :   0.1762 B( 39-H , 50-H ) :   0.1070
B( 40-C , 41-H ) :   0.1638 B( 40-C , 42-H ) :   0.1514 B( 40-C , 43-H ) :   0.7841
B( 44-C , 45-C ) :  -0.7799 B( 44-C , 46-C ) :  -0.6471 B( 44-C , 47-C ) :  -0.3527
B( 44-C , 48-H ) :  -0.5938 B( 44-C , 50-H ) :  -0.5637 B( 44-C , 51-C ) :   0.1548
B( 44-C , 52-H ) :  -0.2782 B( 44-C , 53-H ) :  -0.2307 B( 44-C , 54-H ) :   0.4484
B( 45-C , 46-C ) :  -1.2902 B( 45-C , 47-C ) :   1.3793 B( 45-C , 48-H ) :   2.5756
B( 45-C , 49-C ) :   0.1704 B( 45-C , 50-H ) :   0.1924 B( 45-C , 51-C ) :  -0.3662
B( 46-C , 47-C ) :   0.1171 B( 46-C , 48-H ) :   0.4421 B( 46-C , 49-C ) :   1.3304
B( 46-C , 50-H ) :   2.3405 B( 46-C , 51-C ) :  -0.4585 B( 47-C , 48-H ) :   0.1114
B( 47-C , 49-C ) :   0.5523 B( 47-C , 50-H ) :  -0.1156 B( 47-C , 51-C ) :   1.0434
B( 47-C , 52-H ) :   0.3282 B( 47-C , 54-H ) :  -0.1540 B( 48-H , 49-C ) :  -0.2054
B( 48-H , 50-H ) :   0.9680 B( 48-H , 51-C ) :  -0.3363 B( 48-H , 53-H ) :  -0.3737
B( 48-H , 54-H ) :   0.1971 B( 49-C , 51-C ) :   1.0332 B( 49-C , 53-H ) :   0.4377
B( 49-C , 54-H ) :  -0.2460 B( 50-H , 51-C ) :  -0.2635 B( 50-H , 52-H ) :  -0.2110
B( 50-H , 54-H ) :   0.1028 B( 51-C , 52-H ) :   0.1654 B( 51-C , 53-H ) :   0.1638
B( 51-C , 54-H ) :   0.8162 B( 55-N , 56-C ) :   1.1864 B( 55-N , 62-H ) :   1.2861
B( 56-C , 57-C ) :   0.4492 B( 56-C , 61-O ) :   1.5051 B( 56-C , 62-H ) :  -0.1003
B( 57-C , 58-H ) :   0.9997 B( 57-C , 59-H ) :   0.9923 B( 57-C , 60-H ) :   0.9806
B( 57-C , 61-O ) :  -0.1401

MP2 TOTAL ENERGY:    -1267.712681580 Eh
FINAL SINGLE POINT ENERGY     -1267.712681580302

DIPOLE MOMENT
-------------
                                X             Y             Z
Electronic contribution:    -24.14191       3.03466      -1.92911
Nuclear contribution   :     22.61948      -3.91411       2.66926
                        -----------------------------------------
Total Dipole Moment    :     -1.52243      -0.87945       0.74016
                        -----------------------------------------
Magnitude (a.u.)       :      1.90763
Magnitude (Debye)      :      4.84880

Rotational constants in cm-1:     0.007029     0.002725     0.002081
Rotational constants in MHz :   210.728650    81.708401    62.394348

                             ****ORCA TERMINATED NORMALLY****
TOTAL RUN TIME: 0 days 4 hours 11 minutes 27 seconds 597 msec
