                         Program Version 4.2.1 -  RELEASE  -
|  1> %pal
|  2>  nprocs 32
|  3> end
|  4> !RI-MP2 aug-cc-pVTZ aug-cc-pVTZ/C TightSCF
|  5> %maxcore 4500
|  6> *xyzfile 0 2  04_90TS.xyz
|  7>
|  8>
|  9>                          ****END OF INPUT****

CARTESIAN COORDINATES (ANGSTROEM)
---------------------------------
  C      2.732351   -0.944804   -0.349568
  C      4.127128   -1.523129   -0.406304
  O      1.170071    1.419385    0.912937
  C      2.150265    2.385031    0.461355
  C      1.297984    3.537913   -0.071739
  C      0.133740    3.563111    0.938624
  C      0.039882    2.079041    1.425424
  C      3.085707    1.741243   -0.514568
  H      2.701823    2.739148    1.341141
  H      4.144969    1.886171   -0.327973
  H      2.811561    1.849496   -1.559374
  O      0.819169    3.356747   -1.378401
  H      1.852609    4.475835   -0.069589
  H      0.349409    2.493825   -1.461616
  O     -1.051476    4.067300    0.401618
  H      0.406571    4.176626    1.800476
  H     -0.941056    4.072355   -0.560693
  N     -1.151882    1.377670    0.999752
  H      0.035968    2.022616    2.516964
  C     -2.170036    0.964383    1.827460
  N     -3.145501    0.367822    1.204486
  C     -2.755894    0.381693   -0.120578
  C     -1.523109    1.004812   -0.267321
  N     -0.885394    1.182689   -1.428416
  C     -1.553844    0.685887   -2.464630
  N     -2.735077    0.074758   -2.456692
  C     -3.367017   -0.082356   -1.291144
  N     -4.572861   -0.703796   -1.280729
  H     -5.025141   -0.816435   -2.174703
  H     -5.160791   -0.568721   -0.473505
  H     -1.084645    0.800540   -3.435979
  H     -2.107753    1.117510    2.893979
  O      4.863431   -1.340367   -1.337811
  O      4.488079   -2.209913    0.679183
  H      3.686483   -2.271145    1.236403
  N      2.030764   -1.286841    0.856179
  C      0.707617   -1.754010    0.731863
  C      0.250020   -2.324258   -0.428465
  N      1.081792   -2.321454   -1.517288
  C      1.932349   -1.137221   -1.627224
  H      2.957529    0.321564   -0.352654
  H      2.624138   -1.254857   -2.458232
  H      1.317101   -0.246453   -1.792265
  C     -0.165323   -1.626400    1.841975
  N     -1.411699   -2.228378    1.627855
  C     -1.783329   -2.791805    0.449792
  N     -0.992658   -2.857690   -0.577872
  O      0.068784   -1.049898    2.900250
  N     -3.044976   -3.318761    0.385054
  H     -3.337420   -3.517751   -0.560052
  H     -3.752666   -2.860388    0.939192
  H     -2.069881   -2.141335    2.389629
  H      2.055765   -0.553856    1.559088
  H      0.632472   -2.627714   -2.368460

 Total Charge           Charge          ....    0
 Multiplicity           Mult            ....    2
 Number of Electrons    NEL             ....  241
 Basis Dimension        Dim             .... 2001

ORBITAL ENERGIES
----------------
                 SPIN UP ORBITALS
  NO   OCC          E(Eh)            E(eV)
   0   1.0000     -20.589783      -560.2765
   1   1.0000     -20.588775      -560.2491
   2   1.0000     -20.574711      -559.8663
   3   1.0000     -20.563971      -559.5741
   4   1.0000     -20.527430      -558.5798
   5   1.0000     -20.521015      -558.4052
   6   1.0000     -15.643671      -425.6859
   7   1.0000     -15.628667      -425.2776
   8   1.0000     -15.606398      -424.6717
   9   1.0000     -15.603470      -424.5920
  10   1.0000     -15.585744      -424.1097
  11   1.0000     -15.582584      -424.0237
  12   1.0000     -15.581135      -423.9842
  13   1.0000     -15.573121      -423.7662
  14   1.0000     -15.572449      -423.7479
  15   1.0000     -15.558137      -423.3584
  16   1.0000     -11.388843      -309.9062
  17   1.0000     -11.363989      -309.2299
  18   1.0000     -11.359589      -309.1101
  19   1.0000     -11.358238      -309.0734
  20   1.0000     -11.354379      -308.9684
  21   1.0000     -11.337489      -308.5088
  22   1.0000     -11.336121      -308.4715
  23   1.0000     -11.336035      -308.4692
  24   1.0000     -11.327606      -308.2398
  25   1.0000     -11.310211      -307.7665
  26   1.0000     -11.307375      -307.6893
  27   1.0000     -11.302402      -307.5540
  28   1.0000     -11.291182      -307.2487
  29   1.0000     -11.273420      -306.7654
  30   1.0000     -11.270677      -306.6907
  31   1.0000     -11.254404      -306.2479
  32   1.0000     -11.249259      -306.1079
  33   1.0000      -1.447068       -39.3767
  34   1.0000      -1.439611       -39.1738
  35   1.0000      -1.399454       -38.0811
  36   1.0000      -1.394876       -37.9565
  37   1.0000      -1.386547       -37.7299
  38   1.0000      -1.364745       -37.1366
  39   1.0000      -1.351248       -36.7693
  40   1.0000      -1.348222       -36.6870
  41   1.0000      -1.328538       -36.1514
  42   1.0000      -1.296717       -35.2855
  43   1.0000      -1.274435       -34.6792
  44   1.0000      -1.232666       -33.5425
  45   1.0000      -1.223452       -33.2918
  46   1.0000      -1.216951       -33.1149
  47   1.0000      -1.191985       -32.4356
  48   1.0000      -1.183508       -32.2049
  49   1.0000      -1.082327       -29.4516
  50   1.0000      -1.066518       -29.0214
  51   1.0000      -1.061890       -28.8955
  52   1.0000      -1.043755       -28.4020
  53   1.0000      -0.982962       -26.7477
  54   1.0000      -0.963223       -26.2106
  55   1.0000      -0.929218       -25.2853
  56   1.0000      -0.916532       -24.9401
  57   1.0000      -0.902337       -24.5538
  58   1.0000      -0.884864       -24.0784
  59   1.0000      -0.863613       -23.5001
  60   1.0000      -0.855598       -23.2820
  61   1.0000      -0.835052       -22.7229
  62   1.0000      -0.824915       -22.4471
  63   1.0000      -0.798316       -21.7233
  64   1.0000      -0.796906       -21.6849
  65   1.0000      -0.784932       -21.3591
  66   1.0000      -0.760273       -20.6881
  67   1.0000      -0.756079       -20.5740
  68   1.0000      -0.745257       -20.2795
  69   1.0000      -0.735769       -20.0213
  70   1.0000      -0.725815       -19.7504
  71   1.0000      -0.708784       -19.2870
  72   1.0000      -0.704661       -19.1748
  73   1.0000      -0.702195       -19.1077
  74   1.0000      -0.698110       -18.9965
  75   1.0000      -0.691422       -18.8146
  76   1.0000      -0.684243       -18.6192
  77   1.0000      -0.679620       -18.4934
  78   1.0000      -0.669617       -18.2212
  79   1.0000      -0.657903       -17.9024
  80   1.0000      -0.656727       -17.8704
  81   1.0000      -0.651002       -17.7147
  82   1.0000      -0.646253       -17.5854
  83   1.0000      -0.639235       -17.3945
  84   1.0000      -0.637328       -17.3426
  85   1.0000      -0.627109       -17.0645
  86   1.0000      -0.625853       -17.0303
  87   1.0000      -0.615623       -16.7520
  88   1.0000      -0.611405       -16.6372
  89   1.0000      -0.605603       -16.4793
  90   1.0000      -0.600850       -16.3500
  91   1.0000      -0.593576       -16.1520
  92   1.0000      -0.588110       -16.0033
  93   1.0000      -0.577058       -15.7025
  94   1.0000      -0.568652       -15.4738
  95   1.0000      -0.562479       -15.3058
  96   1.0000      -0.555004       -15.1024
  97   1.0000      -0.545810       -14.8523
  98   1.0000      -0.537389       -14.6231
  99   1.0000      -0.527783       -14.3617
 100   1.0000      -0.526545       -14.3280
 101   1.0000      -0.523401       -14.2425
 102   1.0000      -0.513037       -13.9604
 103   1.0000      -0.499508       -13.5923
 104   1.0000      -0.481345       -13.0981
 105   1.0000      -0.475071       -12.9273
 106   1.0000      -0.473038       -12.8720
 107   1.0000      -0.468860       -12.7583
 108   1.0000      -0.466483       -12.6936
 109   1.0000      -0.458633       -12.4800
 110   1.0000      -0.454563       -12.3693
 111   1.0000      -0.445390       -12.1197
 112   1.0000      -0.441523       -12.0145
 113   1.0000      -0.433807       -11.8045
 114   1.0000      -0.427076       -11.6213
 115   1.0000      -0.421628       -11.4731
 116   1.0000      -0.394051       -10.7227
 117   1.0000      -0.392707       -10.6861
 118   1.0000      -0.350001        -9.5240
 119   1.0000      -0.334323        -9.0974
 120   1.0000      -0.281457        -7.6588
 121   0.0000       0.014202         0.3865
 122   0.0000       0.021339         0.5807
 123   0.0000       0.025686         0.6989
 124   0.0000       0.032246         0.8775
 125   0.0000       0.032980         0.8974

                 SPIN DOWN ORBITALS
  NO   OCC          E(Eh)            E(eV)
   0   1.0000     -20.588721      -560.2476
   1   1.0000     -20.588590      -560.2440
   2   1.0000     -20.574618      -559.8638
   3   1.0000     -20.564063      -559.5766
   4   1.0000     -20.525165      -558.5181
   5   1.0000     -20.521131      -558.4084
   6   1.0000     -15.643662      -425.6857
   7   1.0000     -15.628738      -425.2796
   8   1.0000     -15.606399      -424.6717
   9   1.0000     -15.603431      -424.5910
  10   1.0000     -15.585737      -424.1095
  11   1.0000     -15.581691      -423.9994
  12   1.0000     -15.581144      -423.9845
  13   1.0000     -15.573115      -423.7660
  14   1.0000     -15.572678      -423.7541
  15   1.0000     -15.558272      -423.3621
  16   1.0000     -11.388699      -309.9022
  17   1.0000     -11.365433      -309.2691
  18   1.0000     -11.359529      -309.1085
  19   1.0000     -11.358241      -309.0734
  20   1.0000     -11.354425      -308.9696
  21   1.0000     -11.337492      -308.5089
  22   1.0000     -11.336112      -308.4713
  23   1.0000     -11.336040      -308.4693
  24   1.0000     -11.327337      -308.2325
  25   1.0000     -11.312090      -307.8176
  26   1.0000     -11.307243      -307.6857
  27   1.0000     -11.301600      -307.5322
  28   1.0000     -11.276350      -306.8451
  29   1.0000     -11.274748      -306.8015
  30   1.0000     -11.270671      -306.6906
  31   1.0000     -11.249481      -306.1139
  32   1.0000     -11.233970      -305.6919
  33   1.0000      -1.445715       -39.3399
  34   1.0000      -1.437676       -39.1212
  35   1.0000      -1.399504       -38.0824
  36   1.0000      -1.394309       -37.9411
  37   1.0000      -1.385936       -37.7132
  38   1.0000      -1.364641       -37.1338
  39   1.0000      -1.348216       -36.6868
  40   1.0000      -1.347505       -36.6675
  41   1.0000      -1.328480       -36.1498
  42   1.0000      -1.294023       -35.2121
  43   1.0000      -1.274417       -34.6786
  44   1.0000      -1.228533       -33.4301
  45   1.0000      -1.223009       -33.2798
  46   1.0000      -1.216686       -33.1077
  47   1.0000      -1.191477       -32.4217
  48   1.0000      -1.183448       -32.2032
  49   1.0000      -1.066052       -29.0088
  50   1.0000      -1.061475       -28.8842
  51   1.0000      -1.056824       -28.7576
  52   1.0000      -1.036267       -28.1983
  53   1.0000      -0.977199       -26.5909
  54   1.0000      -0.941777       -25.6271
  55   1.0000      -0.922228       -25.0951
  56   1.0000      -0.913823       -24.8664
  57   1.0000      -0.898165       -24.4403
  58   1.0000      -0.884277       -24.0624
  59   1.0000      -0.860227       -23.4080
  60   1.0000      -0.853291       -23.2192
  61   1.0000      -0.829252       -22.5651
  62   1.0000      -0.817376       -22.2419
  63   1.0000      -0.797205       -21.6931
  64   1.0000      -0.794306       -21.6142
  65   1.0000      -0.784513       -21.3477
  66   1.0000      -0.758892       -20.6505
  67   1.0000      -0.755115       -20.5477
  68   1.0000      -0.743521       -20.2322
  69   1.0000      -0.726949       -19.7813
  70   1.0000      -0.723515       -19.6878
  71   1.0000      -0.706560       -19.2265
  72   1.0000      -0.703951       -19.1555
  73   1.0000      -0.698985       -19.0203
  74   1.0000      -0.695753       -18.9324
  75   1.0000      -0.683426       -18.5970
  76   1.0000      -0.679210       -18.4822
  77   1.0000      -0.677309       -18.4305
  78   1.0000      -0.665508       -18.1094
  79   1.0000      -0.655115       -17.8266
  80   1.0000      -0.652273       -17.7493
  81   1.0000      -0.649984       -17.6870
  82   1.0000      -0.645057       -17.5529
  83   1.0000      -0.636955       -17.3324
  84   1.0000      -0.633537       -17.2394
  85   1.0000      -0.626924       -17.0595
  86   1.0000      -0.623991       -16.9797
  87   1.0000      -0.614490       -16.7211
  88   1.0000      -0.610859       -16.6223
  89   1.0000      -0.603934       -16.4339
  90   1.0000      -0.599014       -16.3000
  91   1.0000      -0.586756       -15.9664
  92   1.0000      -0.583268       -15.8715
  93   1.0000      -0.574602       -15.6357
  94   1.0000      -0.566460       -15.4141
  95   1.0000      -0.555128       -15.1058
  96   1.0000      -0.545742       -14.8504
  97   1.0000      -0.544627       -14.8201
  98   1.0000      -0.532354       -14.4861
  99   1.0000      -0.526204       -14.3187
 100   1.0000      -0.522537       -14.2190
 101   1.0000      -0.511616       -13.9218
 102   1.0000      -0.499580       -13.5943
 103   1.0000      -0.497216       -13.5299
 104   1.0000      -0.478946       -13.0328
 105   1.0000      -0.472896       -12.8682
 106   1.0000      -0.470128       -12.7928
 107   1.0000      -0.466098       -12.6832
 108   1.0000      -0.457795       -12.4572
 109   1.0000      -0.454637       -12.3713
 110   1.0000      -0.449789       -12.2394
 111   1.0000      -0.443699       -12.0737
 112   1.0000      -0.440622       -11.9899
 113   1.0000      -0.432952       -11.7812
 114   1.0000      -0.425092       -11.5674
 115   1.0000      -0.414055       -11.2670
 116   1.0000      -0.392726       -10.6866
 117   1.0000      -0.391840       -10.6625
 118   1.0000      -0.334315        -9.0972
 119   1.0000      -0.288751        -7.8573
 120   0.0000       0.014204         0.3865
 121   0.0000       0.021318         0.5801
 122   0.0000       0.025664         0.6983
 123   0.0000       0.032236         0.8772
 124   0.0000       0.032981         0.8975

MULLIKEN ATOMIC CHARGES AND SPIN POPULATIONS
--------------------------------------------
   0 C :    1.082812    0.751861
   1 C :   -0.195091   -0.044020
   2 O :   -0.091766    0.070671
   3 C :    0.026931   -0.145145
   4 C :    0.205333    0.038026
   5 C :    0.149068   -0.000831
   6 C :   -0.333728    0.018922
   7 C :   -0.783341    1.012105
   8 H :    0.355035    0.007547
   9 H :    0.246077   -0.029744
  10 H :    0.255558   -0.044473
  11 O :   -1.180551   -0.002323
  12 H :    0.395388   -0.004272
  13 H :    0.564719    0.002507
  14 O :   -1.044472    0.002149
  15 H :    0.375111    0.000084
  16 H :    0.263479   -0.000344
  17 N :    0.342251   -0.002219
  18 H :    0.305827    0.001066
  19 C :   -0.191724    0.000086
  20 N :   -1.503331   -0.000231
  21 C :    2.556561    0.000762
  22 C :   -0.127595    0.002362
  23 N :   -0.523710   -0.000948
  24 C :   -0.598120    0.000644
  25 N :   -0.653073    0.000340
  26 C :    0.539566   -0.000306
  27 N :   -0.726263   -0.000021
  28 H :    0.009998   -0.000002
  29 H :    0.080767   -0.000001
  30 H :    0.441350    0.000042
  31 H :    0.496600   -0.000109
  32 O :   -0.952741    0.052341
  33 O :   -0.716431    0.002470
  34 H :    0.242641   -0.001465
  35 N :   -0.614600   -0.023042
  36 C :    1.894850   -0.005217
  37 C :    0.934301    0.020996
  38 N :   -0.615999   -0.000033
  39 C :   -0.273523   -0.086165
  40 H :    0.530175   -0.640884
  41 H :    0.352075    0.005408
  42 H :    0.511056    0.020318
  43 C :    0.493552    0.009264
  44 N :    0.197620   -0.002547
  45 C :    0.318846    0.004884
  46 N :   -0.707551   -0.005248
  47 O :   -1.399218   -0.002913
  48 N :   -0.706201    0.001014
  49 H :    0.071680   -0.000052
  50 H :    0.118707    0.000052
  51 H :    0.089790    0.000226
  52 H :   -0.422849    0.012948
  53 H :   -0.085845    0.003458
Sum of atomic charges         :   -0.0000000

LOEWDIN ATOMIC CHARGES AND SPIN POPULATIONS
-------------------------------------------
   0 C :   -0.120814    0.217679
   1 C :   -0.776698    0.017589
   2 O :    0.643382    0.012226
   3 C :   -0.203833    0.058758
   4 C :   -0.204993    0.015502
   5 C :   -0.195098    0.003550
   6 C :   -0.277940    0.000171
   7 C :    0.600428    0.359587
   8 H :   -0.123892    0.002492
   9 H :   -0.146829    0.057259
  10 H :   -0.161548    0.054149
  11 O :    0.876352   -0.000052
  12 H :   -0.125605    0.001024
  13 H :   -0.664928   -0.000183
  14 O :    0.858464    0.001998
  15 H :   -0.134706    0.000114
  16 H :   -0.536789    0.000099
  17 N :    0.289233    0.000311
  18 H :   -0.132224    0.000072
  19 C :   -0.046333    0.000181
  20 N :    0.408510   -0.000095
  21 C :   -0.314565    0.000118
  22 C :   -0.400793    0.000027
  23 N :    0.448582    0.000248
  24 C :   -0.119432    0.000042
  25 N :    0.413419    0.000107
  26 C :   -0.416035    0.000013
  27 N :    0.873167   -0.000019
  28 H :   -0.285390   -0.000001
  29 H :   -0.287096    0.000001
  30 H :   -0.179935   -0.000008
  31 H :   -0.142835    0.000032
  32 O :    0.449534    0.034968
  33 O :    0.856738   -0.000340
  34 H :   -0.560212    0.001086
  35 N :    0.577173    0.037839
  36 C :   -0.201254   -0.001070
  37 C :   -0.411904    0.005149
  38 N :    0.601808    0.011984
  39 C :    0.228309    0.017895
  40 H :   -0.347526    0.083502
  41 H :   -0.144879   -0.001239
  42 H :   -0.163379    0.000071
  43 C :   -0.680534   -0.000736
  44 N :    0.583143   -0.000427
  45 C :   -0.530625    0.002592
  46 N :    0.447458   -0.000378
  47 O :    0.451586   -0.001843
  48 N :    0.885170    0.001341
  49 H :   -0.294066    0.000093
  50 H :   -0.292046    0.000121
  51 H :   -0.256098   -0.000092
  52 H :   -0.335679    0.005092
  53 H :   -0.275942    0.001404

  Mayer bond orders larger than 0.100000
B(  0-C ,  1-C ) :  -0.3607 B(  0-C ,  7-C ) :   0.1583 B(  0-C , 32-O ) :  -0.1905
B(  0-C , 33-O ) :  -0.3919 B(  0-C , 35-N ) :   0.5509 B(  0-C , 36-C ) :   0.3286
B(  0-C , 37-C ) :  -0.1764 B(  0-C , 38-N ) :   0.2185 B(  0-C , 39-C ) :   0.5114
B(  0-C , 40-H ) :   0.3159 B(  1-C , 32-O ) :   1.1385 B(  1-C , 33-O ) :   0.9561
B(  1-C , 34-H ) :   0.2019 B(  1-C , 35-N ) :  -0.1179 B(  1-C , 36-C ) :  -0.2656
B(  1-C , 38-N ) :   0.1061 B(  1-C , 39-C ) :   0.2316 B(  1-C , 40-H ) :  -0.5162
B(  2-O ,  3-C ) :   0.7870 B(  2-O ,  6-C ) :   0.8246 B(  3-C ,  4-C ) :   0.9984
B(  3-C ,  7-C ) :   0.7763 B(  3-C ,  8-H ) :   0.8495 B(  3-C , 11-O ) :   0.1758
B(  3-C , 40-H ) :   0.1731 B(  4-C ,  5-C ) :   1.1957 B(  4-C , 11-O ) :   0.3665
B(  4-C , 12-H ) :   0.8881 B(  4-C , 13-H ) :   0.1019 B(  4-C , 14-O ) :   0.1761
B(  5-C ,  6-C ) :   0.8896 B(  5-C , 11-O ) :   0.1680 B(  5-C , 14-O ) :   0.2689
B(  5-C , 15-H ) :   0.8939 B(  5-C , 17-N ) :   0.1620 B(  5-C , 18-H ) :  -0.1072
B(  6-C , 14-O ) :   0.3306 B(  6-C , 17-N ) :   1.2316 B(  6-C , 18-H ) :   0.8055
B(  6-C , 20-N ) :   0.1145 B(  6-C , 22-C ) :  -0.4901 B(  6-C , 36-C ) :   0.1152
B(  7-C ,  9-H ) :   0.9590 B(  7-C , 10-H ) :   0.9677 B(  7-C , 40-H ) :   0.2959
B( 11-O , 12-H ) :  -0.1622 B( 11-O , 13-H ) :   0.1919 B( 13-H , 23-N ) :   0.1945
B( 14-O , 15-H ) :  -0.1236 B( 14-O , 16-H ) :   0.9004 B( 14-O , 17-N ) :   0.1561
B( 14-O , 22-C ) :  -0.4146 B( 15-H , 22-C ) :   0.1196 B( 17-N , 19-C ) :   1.2442
B( 17-N , 22-C ) :   0.4831 B( 17-N , 23-N ) :  -0.2528 B( 17-N , 24-C ) :  -0.1022
B( 17-N , 36-C ) :   0.1296 B( 19-C , 20-N ) :   1.2154 B( 19-C , 22-C ) :  -0.8240
B( 19-C , 23-N ) :  -0.1949 B( 19-C , 31-H ) :   0.7451 B( 20-N , 21-C ) :  -1.4472
B( 20-N , 22-C ) :   0.8319 B( 20-N , 31-H ) :  -0.1910 B( 21-C , 22-C ) :   0.4482
B( 21-C , 23-N ) :  -0.5832 B( 21-C , 25-N ) :   0.3686 B( 21-C , 26-C ) :  -1.1915
B( 21-C , 27-N ) :  -0.3211 B( 21-C , 31-H ) :   0.1070 B( 22-C , 23-N ) :   1.1274
B( 22-C , 24-C ) :  -0.4304 B( 22-C , 26-C ) :   2.0351 B( 22-C , 43-C ) :   0.1212
B( 22-C , 45-C ) :   0.1897 B( 23-N , 24-C ) :   1.6737 B( 23-N , 26-C ) :   0.3450
B( 24-C , 25-N ) :   0.9418 B( 24-C , 26-C ) :  -0.4172 B( 24-C , 30-H ) :   0.7622
B( 25-N , 26-C ) :  -0.3499 B( 25-N , 27-N ) :  -0.1826 B( 26-C , 27-N ) :   0.7791
B( 27-N , 28-H ) :   1.2072 B( 27-N , 29-H ) :   1.1614 B( 32-O , 39-C ) :   0.2170
B( 33-O , 34-H ) :   0.7515 B( 33-O , 35-N ) :   0.1250 B( 34-H , 35-N ) :   0.2227
B( 35-N , 36-C ) :  -0.1078 B( 35-N , 37-C ) :   0.1199 B( 35-N , 38-N ) :  -0.1188
B( 35-N , 52-H ) :   1.7438 B( 36-C , 37-C ) :   0.4962 B( 36-C , 38-N ) :   0.4725
B( 36-C , 44-N ) :  -0.3909 B( 36-C , 45-C ) :   0.1798 B( 36-C , 47-O ) :   0.2256
B( 36-C , 52-H ) :  -0.5127 B( 37-C , 38-N ) :   0.1953 B( 37-C , 41-H ) :   0.1066
B( 37-C , 43-C ) :   0.8821 B( 37-C , 45-C ) :  -0.7630 B( 37-C , 46-N ) :  -0.4327
B( 38-N , 39-C ) :   0.3171 B( 38-N , 41-H ) :  -0.1580 B( 38-N , 46-N ) :  -0.2252
B( 38-N , 53-H ) :   1.1738 B( 39-C , 41-H ) :   1.0459 B( 39-C , 42-H ) :   0.7967
B( 43-C , 44-N ) :   1.1516 B( 43-C , 45-C ) :  -0.3348 B( 43-C , 46-N ) :   0.1049
B( 44-N , 45-C ) :   0.7039 B( 44-N , 47-O ) :  -0.1780 B( 44-N , 51-H ) :   1.0392
B( 45-C , 46-N ) :   1.4933 B( 45-C , 48-N ) :   0.6427 B( 45-C , 50-H ) :  -0.1415
B( 46-N , 48-N ) :  -0.3493 B( 48-N , 49-H ) :   1.0887 B( 48-N , 50-H ) :   1.0581

MP2 TOTAL ENERGY:    -1656.498784867 Eh
FINAL SINGLE POINT ENERGY     -1656.498784867144

DIPOLE MOMENT
-------------
                                X             Y             Z
Electronic contribution:     -5.26464      -8.03523       3.18930
Nuclear contribution   :      2.13183       8.93315      -2.84147
                        -----------------------------------------
Total Dipole Moment    :     -3.13281       0.89793       0.34784
                        -----------------------------------------
Magnitude (a.u.)       :      3.27746
Magnitude (Debye)      :      8.33064

Rotational constants in cm-1:     0.006047     0.004893     0.003644
Rotational constants in MHz :   181.290945   146.675748   109.242197

                             ****ORCA TERMINATED NORMALLY****
TOTAL RUN TIME: 0 days 7 hours 20 minutes 10 seconds 627 msec
