                         Program Version 4.2.1 -  RELEASE  -
|  1> %pal
|  2>  nprocs 32
|  3> end
|  4> !RI-MP2 aug-cc-pVTZ aug-cc-pVTZ/C TightSCF
|  5> %maxcore 4500
|  6> *xyzfile 0 1  10_36TS.xyz
|  7>
|  8>
|  9>                          ****END OF INPUT****

CARTESIAN COORDINATES (ANGSTROEM)
---------------------------------
  C      0.963597    1.643765    0.171902
  H      1.125439    2.669119   -0.163639
  H      1.160267    1.625300    1.264164
  C      1.949704    0.713658   -0.502903
  C      0.122053   -0.972768   -0.731258
  H     -0.259903   -0.814413   -1.743938
  H     -0.019698   -2.025620   -0.488630
  C     -0.698368   -0.094976    0.217877
  H     -0.359273   -0.304951    1.252125
  N     -0.415510    1.297093   -0.111825
  C      2.502831   -1.650890   -0.380245
  C      3.244375    1.145451   -0.758537
  H      3.667083    0.858706   -1.704308
  H      3.545345    2.134794   -0.421757
  C      3.777279   -1.487311    0.157940
  H      4.023694   -2.186617    0.957668
  C      4.659618   -0.427025   -0.041521
  C      1.589525   -0.625874   -0.660420
  C      5.692999   -0.101830    1.004844
  H      5.963436    0.955106    0.967301
  H      5.329366   -0.318490    2.010380
  H      6.612917   -0.673484    0.840200
  H      4.992257   -0.238112   -1.046222
  C     -2.180920   -0.414540    0.155750
  C     -1.345735    2.225660    0.500446
  H     -0.992224    3.241424    0.311998
  H     -1.387568    2.092287    1.597226
  C     -2.721644    2.026858   -0.104470
  H     -2.692886    2.337690   -1.153205
  C     -3.140222    0.584104   -0.009657
  H     -3.455011    2.658779    0.403193
  C     -4.489137    0.237003   -0.058738
  H     -5.227989    1.021227   -0.186553
  C     -2.602850   -1.736201    0.302013
  H     -1.870225   -2.518063    0.462195
  C     -4.896722   -1.079409    0.063944
  H     -5.949951   -1.329960    0.024606
  C     -3.944546   -2.072674    0.254507
  H     -4.247303   -3.106510    0.368963
  H      2.059787   -2.635856   -0.257841

 Total Charge           Charge          ....    0
 Multiplicity           Mult            ....    1
 Number of Electrons    NEL             ....  136
 Basis Dimension        Dim             .... 1357

ORBITAL ENERGIES
----------------

  NO   OCC          E(Eh)            E(eV)
   0   2.0000     -15.546576      -423.0438
   1   2.0000     -11.259642      -306.3904
   2   2.0000     -11.251996      -306.1824
   3   2.0000     -11.248137      -306.0774
   4   2.0000     -11.246796      -306.0409
   5   2.0000     -11.233572      -305.6810
   6   2.0000     -11.232352      -305.6478
   7   2.0000     -11.229435      -305.5685
   8   2.0000     -11.229072      -305.5586
   9   2.0000     -11.227534      -305.5167
  10   2.0000     -11.227453      -305.5145
  11   2.0000     -11.226890      -305.4992
  12   2.0000     -11.225806      -305.4697
  13   2.0000     -11.225732      -305.4677
  14   2.0000     -11.224959      -305.4467
  15   2.0000     -11.222685      -305.3848
  16   2.0000     -11.221532      -305.3534
  17   2.0000     -11.220631      -305.3289
  18   2.0000     -11.218686      -305.2760
  19   2.0000      -1.252237       -34.0751
  20   2.0000      -1.155060       -31.4308
  21   2.0000      -1.129539       -30.7363
  22   2.0000      -1.073238       -29.2043
  23   2.0000      -1.058679       -28.8081
  24   2.0000      -1.048435       -28.5294
  25   2.0000      -1.012942       -27.5636
  26   2.0000      -0.995122       -27.0787
  27   2.0000      -0.966131       -26.2898
  28   2.0000      -0.927879       -25.2489
  29   2.0000      -0.888775       -24.1848
  30   2.0000      -0.855921       -23.2908
  31   2.0000      -0.836536       -22.7633
  32   2.0000      -0.824939       -22.4477
  33   2.0000      -0.806724       -21.9521
  34   2.0000      -0.767599       -20.8874
  35   2.0000      -0.749261       -20.3884
  36   2.0000      -0.692335       -18.8394
  37   2.0000      -0.671202       -18.2643
  38   2.0000      -0.665412       -18.1068
  39   2.0000      -0.653736       -17.7891
  40   2.0000      -0.636134       -17.3101
  41   2.0000      -0.633916       -17.2497
  42   2.0000      -0.618604       -16.8331
  43   2.0000      -0.605696       -16.4818
  44   2.0000      -0.596986       -16.2448
  45   2.0000      -0.589991       -16.0545
  46   2.0000      -0.580984       -15.8094
  47   2.0000      -0.572508       -15.5787
  48   2.0000      -0.565004       -15.3745
  49   2.0000      -0.562582       -15.3086
  50   2.0000      -0.551152       -14.9976
  51   2.0000      -0.543101       -14.7785
  52   2.0000      -0.532512       -14.4904
  53   2.0000      -0.523017       -14.2320
  54   2.0000      -0.517187       -14.0734
  55   2.0000      -0.510822       -13.9002
  56   2.0000      -0.499014       -13.5789
  57   2.0000      -0.493787       -13.4366
  58   2.0000      -0.479363       -13.0441
  59   2.0000      -0.474647       -12.9158
  60   2.0000      -0.454329       -12.3629
  61   2.0000      -0.446919       -12.1613
  62   2.0000      -0.432366       -11.7653
  63   2.0000      -0.361055        -9.8248
  64   2.0000      -0.326667        -8.8891
  65   2.0000      -0.319889        -8.7046
  66   2.0000      -0.305287        -8.3073
  67   2.0000      -0.281570        -7.6619
  68   0.0000       0.026199         0.7129
  69   0.0000       0.028762         0.7827
  70   0.0000       0.029792         0.8107
  71   0.0000       0.034603         0.9416
  72   0.0000       0.037024         1.0075

MULLIKEN ATOMIC CHARGES
-----------------------
   0 C :   -0.597251
   1 H :    0.286364
   2 H :    0.223682
   3 C :    0.936828
   4 C :   -0.634343
   5 H :    0.311026
   6 H :    0.289702
   7 C :    0.150623
   8 H :    0.256387
   9 N :   -0.359243
  10 C :   -0.984953
  11 C :   -1.345497
  12 H :    0.302470
  13 H :    0.347258
  14 C :   -0.439790
  15 H :    0.151947
  16 C :    0.300741
  17 C :    0.412498
  18 C :   -0.846506
  19 H :    0.256278
  20 H :    0.298311
  21 H :    0.288626
  22 H :    0.415225
  23 C :    1.420014
  24 C :   -0.679569
  25 H :    0.356204
  26 H :    0.227014
  27 C :   -0.572004
  28 H :    0.194440
  29 C :    1.102976
  30 H :    0.217673
  31 C :   -1.127481
  32 H :    0.067448
  33 C :   -1.179210
  34 H :    0.033486
  35 C :   -0.336203
  36 H :    0.604605
  37 C :   -0.632287
  38 H :    0.492186
  39 H :   -0.209676
Sum of atomic charges:    0.0000000

LOEWDIN ATOMIC CHARGES
----------------------
   0 C :    0.169385
   1 H :   -0.151252
   2 H :   -0.111861
   3 C :   -0.089319
   4 C :    0.304003
   5 H :   -0.121963
   6 H :   -0.178114
   7 C :   -0.111384
   8 H :   -0.104058
   9 N :    0.312413
  10 C :    0.237809
  11 C :    0.507659
  12 H :   -0.222171
  13 H :   -0.168948
  14 C :    0.197501
  15 H :   -0.182147
  16 C :    0.168622
  17 C :   -0.062554
  18 C :    0.574859
  19 H :   -0.175355
  20 H :   -0.175744
  21 H :   -0.166926
  22 H :   -0.217891
  23 C :   -0.038896
  24 C :    0.166961
  25 H :   -0.139459
  26 H :   -0.113508
  27 C :    0.300143
  28 H :   -0.131473
  29 C :   -0.068689
  30 H :   -0.143136
  31 C :    0.221655
  32 H :   -0.173016
  33 C :    0.225890
  34 H :   -0.181946
  35 C :    0.198314
  36 H :   -0.183254
  37 C :    0.203667
  38 H :   -0.183116
  39 H :   -0.192703

  Mayer bond orders larger than 0.100000
B(  0-C ,  1-H ) :   1.0167 B(  0-C ,  2-H ) :   1.0834 B(  0-C ,  3-C ) :   0.6316
B(  0-C ,  9-N ) :   0.8585 B(  0-C , 17-C ) :   0.1008 B(  2-H ,  9-N ) :  -0.1183
B(  3-C ,  4-C ) :   0.1938 B(  3-C , 10-C ) :  -0.2088 B(  3-C , 11-C ) :   0.6246
B(  3-C , 12-H ) :  -0.1085 B(  3-C , 14-C ) :   0.2674 B(  3-C , 16-C ) :  -0.2251
B(  3-C , 17-C ) :   1.3044 B(  3-C , 22-H ) :  -0.1530 B(  4-C ,  5-H ) :   1.0900
B(  4-C ,  6-H ) :   1.0113 B(  4-C ,  7-C ) :   0.7812 B(  4-C ,  9-N ) :   0.1166
B(  4-C , 10-C ) :   0.1829 B(  4-C , 17-C ) :   0.6168 B(  5-H , 17-C ) :  -0.1159
B(  7-C ,  8-H ) :   0.9069 B(  7-C ,  9-N ) :   0.8011 B(  7-C , 23-C ) :   0.8870
B(  7-C , 27-C ) :  -0.1392 B(  7-C , 29-C ) :   0.2574 B(  7-C , 33-C ) :   0.5907
B(  9-N , 17-C ) :  -0.1532 B(  9-N , 23-C ) :  -0.2661 B(  9-N , 24-C ) :   1.0170
B( 10-C , 11-C ) :   0.2684 B( 10-C , 14-C ) :   0.7679 B( 10-C , 17-C ) :   0.9281
B( 10-C , 39-H ) :   1.7662 B( 11-C , 12-H ) :   1.0275 B( 11-C , 13-H ) :   0.9305
B( 11-C , 16-C ) :   0.5964 B( 11-C , 22-H ) :   0.2326 B( 14-C , 15-H ) :   1.2331
B( 14-C , 16-C ) :   1.0676 B( 14-C , 17-C ) :   0.3789 B( 14-C , 39-H ) :  -0.2581
B( 16-C , 18-C ) :   0.5763 B( 16-C , 22-H ) :   0.8575 B( 17-C , 39-H ) :  -0.2254
B( 18-C , 19-H ) :   0.9966 B( 18-C , 20-H ) :   0.9629 B( 18-C , 21-H ) :   0.9881
B( 23-C , 27-C ) :   0.2560 B( 23-C , 29-C ) :   0.7912 B( 23-C , 31-C ) :   0.4595
B( 23-C , 34-H ) :  -0.1556 B( 23-C , 35-C ) :  -0.1258 B( 24-C , 25-H ) :   0.8691
B( 24-C , 26-H ) :   1.0483 B( 24-C , 27-C ) :   1.0389 B( 24-C , 29-C ) :   0.1153
B( 27-C , 28-H ) :   1.1232 B( 27-C , 30-H ) :   1.1238 B( 27-C , 31-C ) :   0.1333
B( 27-C , 33-C ) :  -0.1041 B( 28-H , 29-C ) :  -0.1196 B( 29-C , 31-C ) :   0.3757
B( 29-C , 33-C ) :  -0.3484 B( 29-C , 35-C ) :   0.1959 B( 31-C , 32-H ) :   1.4880
B( 31-C , 35-C ) :   0.9169 B( 32-H , 35-C ) :  -0.1181 B( 33-C , 34-H ) :   1.6032
B( 33-C , 35-C ) :   0.1154 B( 33-C , 37-C ) :   1.3397 B( 35-C , 36-H ) :   0.5469
B( 35-C , 37-C ) :   1.0499 B( 36-H , 37-C ) :  -0.1029 B( 37-C , 38-H ) :   0.7121

MP2 TOTAL ENERGY:     -751.643765042 Eh
FINAL SINGLE POINT ENERGY      -751.643765042057

DIPOLE MOMENT
-------------
                                X             Y             Z
Electronic contribution:    -11.90450      -3.16403      -2.96032
Nuclear contribution   :     12.20846       3.50548       3.34626
                        -----------------------------------------
Total Dipole Moment    :      0.30396       0.34145       0.38594
                        -----------------------------------------
Magnitude (a.u.)       :      0.59827
Magnitude (Debye)      :      1.52069

Rotational constants in cm-1:     0.032584     0.006591     0.005721
Rotational constants in MHz :   976.833996   197.602129   171.518529

                             ****ORCA TERMINATED NORMALLY****
TOTAL RUN TIME: 0 days 0 hours 50 minutes 40 seconds 477 msec
