                         Program Version 4.2.1 -  RELEASE  -
|  1> %pal
|  2>  nprocs 32
|  3> end
|  4> !RI-MP2 aug-cc-pVTZ aug-cc-pVTZ/C TightSCF
|  5> %maxcore 4500
|  6> *xyzfile 0 1  02_35P.xyz
|  7>
|  8>
|  9>                          ****END OF INPUT****

CARTESIAN COORDINATES (ANGSTROEM)
---------------------------------
  C      0.006562   -0.929583   -1.162332
  C     -2.185938   -0.686274   -0.258822
  C      0.351883    0.498283   -0.798334
  C     -2.003708    0.652711   -0.177297
  C     -1.161067   -1.501881   -0.860719
  C     -3.255356    1.278218    0.359734
  C      1.331653    0.603287    0.391324
  H      1.595912    1.665534    0.486223
  C      0.697365    0.151638    1.710663
  H     -0.166732    0.765960    1.976723
  H      0.355661   -0.883175    1.650602
  H      1.406266    0.221034    2.538758
  N     -0.883520    1.284721   -0.554682
  C     -0.748588    2.721963   -0.453718
  H     -1.713590    3.203644   -0.609035
  H     -0.351468    3.038935    0.516301
  H     -0.068736    3.073114   -1.232428
  O     -4.134940    0.185119    0.570039
  H     -3.714043    1.975402   -0.346712
  H     -3.087308    1.796201    1.308220
  C     -3.525658   -1.005876    0.188069
  O     -4.108855   -2.048675    0.258252
  Si     3.020538   -0.233149    0.098092
  C      3.567593    0.041746   -1.679842
  C      4.251431    0.598363    1.248693
  C      2.973542   -2.067540    0.489749
  H      4.577512   -0.347950   -1.831470
  H      2.915329   -0.457081   -2.400331
  H      3.588562    1.105757   -1.930780
  H      4.343390    1.665782    1.032201
  H      3.957866    0.495518    2.296209
  H      5.244209    0.153427    1.143138
  H      2.673355   -2.241632    1.525666
  H      2.278029   -2.613698   -0.149130
  H      3.965741   -2.507475    0.357888
  H      0.781285   -1.490749   -1.668910
  H     -1.367976   -2.537416   -1.100888
  H      0.835941    0.968012   -1.662093

 Total Charge           Charge          ....    0
 Multiplicity           Mult            ....    1
 Number of Electrons    NEL             ....  136
 Basis Dimension        Dim             .... 1269

ORBITAL ENERGIES
----------------

  NO   OCC          E(Eh)            E(eV)
   0   2.0000     -68.759241     -1871.0341
   1   2.0000     -20.589006      -560.2553
   2   2.0000     -20.517074      -558.2980
   3   2.0000     -15.609536      -424.7571
   4   2.0000     -11.360847      -309.1444
   5   2.0000     -11.313836      -307.8651
   6   2.0000     -11.310859      -307.7841
   7   2.0000     -11.292833      -307.2936
   8   2.0000     -11.286690      -307.1264
   9   2.0000     -11.243546      -305.9524
  10   2.0000     -11.232976      -305.6648
  11   2.0000     -11.223919      -305.4184
  12   2.0000     -11.221366      -305.3489
  13   2.0000     -11.216661      -305.2209
  14   2.0000     -11.207658      -304.9759
  15   2.0000     -11.204124      -304.8797
  16   2.0000     -11.201169      -304.7993
  17   2.0000      -6.106972      -166.1791
  18   2.0000      -4.213236      -114.6480
  19   2.0000      -4.213117      -114.6447
  20   2.0000      -4.213056      -114.6431
  21   2.0000      -1.442830       -39.2614
  22   2.0000      -1.350651       -36.7531
  23   2.0000      -1.302315       -35.4378
  24   2.0000      -1.118023       -30.4230
  25   2.0000      -1.096406       -29.8347
  26   2.0000      -1.028738       -27.9934
  27   2.0000      -0.984289       -26.7839
  28   2.0000      -0.975094       -26.5337
  29   2.0000      -0.969621       -26.3847
  30   2.0000      -0.936081       -25.4721
  31   2.0000      -0.929741       -25.2995
  32   2.0000      -0.924960       -25.1694
  33   2.0000      -0.834470       -22.7071
  34   2.0000      -0.820736       -22.3333
  35   2.0000      -0.781278       -21.2596
  36   2.0000      -0.710665       -19.3382
  37   2.0000      -0.706141       -19.2151
  38   2.0000      -0.698618       -19.0104
  39   2.0000      -0.677161       -18.4265
  40   2.0000      -0.663737       -18.0612
  41   2.0000      -0.639197       -17.3934
  42   2.0000      -0.631059       -17.1720
  43   2.0000      -0.624268       -16.9872
  44   2.0000      -0.611786       -16.6475
  45   2.0000      -0.605841       -16.4858
  46   2.0000      -0.589189       -16.0326
  47   2.0000      -0.574546       -15.6342
  48   2.0000      -0.573720       -15.6117
  49   2.0000      -0.567578       -15.4446
  50   2.0000      -0.562165       -15.2973
  51   2.0000      -0.558797       -15.2056
  52   2.0000      -0.551759       -15.0141
  53   2.0000      -0.546601       -14.8738
  54   2.0000      -0.542581       -14.7644
  55   2.0000      -0.538909       -14.6645
  56   2.0000      -0.536521       -14.5995
  57   2.0000      -0.522927       -14.2296
  58   2.0000      -0.506552       -13.7840
  59   2.0000      -0.487912       -13.2768
  60   2.0000      -0.479863       -13.0577
  61   2.0000      -0.443758       -12.0753
  62   2.0000      -0.436564       -11.8795
  63   2.0000      -0.433399       -11.7934
  64   2.0000      -0.428763       -11.6672
  65   2.0000      -0.416448       -11.3321
  66   2.0000      -0.406504       -11.0615
  67   2.0000      -0.287971        -7.8361
  68   0.0000       0.015256         0.4151
  69   0.0000       0.022913         0.6235
  70   0.0000       0.026683         0.7261
  71   0.0000       0.031130         0.8471
  72   0.0000       0.037672         1.0251

MULLIKEN ATOMIC CHARGES
-----------------------
   0 C :   -0.470705
   1 C :    1.190063
   2 C :    0.444796
   3 C :    0.412912
   4 C :   -1.310763
   5 C :   -0.089143
   6 C :    0.604624
   7 H :    0.239416
   8 C :   -1.301919
   9 H :    0.226898
  10 H :    0.355836
  11 H :    0.219191
  12 N :   -0.236515
  13 C :   -1.348505
  14 H :    0.339261
  15 H :    0.370645
  16 H :    0.313326
  17 O :   -0.524972
  18 H :    0.277570
  19 H :    0.248301
  20 C :    0.292809
  21 O :   -1.014747
  22 Si:    2.547450
  23 C :   -1.407300
  24 C :   -1.787542
  25 C :   -1.317962
  26 H :    0.161637
  27 H :    0.358227
  28 H :    0.183074
  29 H :    0.220255
  30 H :    0.225704
  31 H :    0.193674
  32 H :    0.187562
  33 H :    0.382899
  34 H :    0.113943
  35 H :    0.337708
  36 H :    0.012742
  37 H :    0.349552
Sum of atomic charges:   -0.0000000

LOEWDIN ATOMIC CHARGES
----------------------
   0 C :    0.246587
   1 C :   -0.129330
   2 C :   -0.115427
   3 C :   -0.217245
   4 C :    0.238339
   5 C :    0.075261
   6 C :    0.020026
   7 H :   -0.196649
   8 C :    0.546573
   9 H :   -0.165202
  10 H :   -0.164705
  11 H :   -0.164007
  12 N :    0.312542
  13 C :    0.511520
  14 H :   -0.164792
  15 H :   -0.146769
  16 H :   -0.146006
  17 O :    0.585380
  18 H :   -0.143017
  19 H :   -0.136027
  20 C :   -0.814968
  21 O :    0.420062
  22 Si:    0.515623
  23 C :    0.590269
  24 C :    0.588661
  25 C :    0.593860
  26 H :   -0.223998
  27 H :   -0.232679
  28 H :   -0.221985
  29 H :   -0.225504
  30 H :   -0.228876
  31 H :   -0.225981
  32 H :   -0.223328
  33 H :   -0.235524
  34 H :   -0.224044
  35 H :   -0.189754
  36 H :   -0.160807
  37 H :   -0.148080

  Mayer bond orders larger than 0.100000
B(  0-C ,  2-C ) :   0.5519 B(  0-C ,  3-C ) :   0.2350 B(  0-C ,  4-C ) :   1.3455
B(  0-C ,  6-C ) :   0.1171 B(  0-C , 20-C ) :  -0.1928 B(  0-C , 35-H ) :   0.8960
B(  0-C , 36-H ) :  -0.1683 B(  0-C , 37-H ) :  -0.2649 B(  1-C ,  2-C ) :   0.2928
B(  1-C ,  4-C ) :  -0.1800 B(  1-C ,  6-C ) :   0.1047 B(  1-C , 17-O ) :  -0.2403
B(  1-C , 20-C ) :   0.6296 B(  1-C , 36-H ) :  -0.3381 B(  2-C ,  6-C ) :   1.0373
B(  2-C ,  8-C ) :   0.1230 B(  2-C , 12-N ) :   0.4094 B(  2-C , 20-C ) :  -0.1329
B(  2-C , 22-Si) :   0.1409 B(  2-C , 25-C ) :   0.1156 B(  2-C , 37-H ) :   1.0464
B(  3-C ,  4-C ) :   0.5713 B(  3-C ,  5-C ) :   0.4741 B(  3-C , 12-N ) :   1.2785
B(  3-C , 13-C ) :  -0.1898 B(  3-C , 17-O ) :   0.1289 B(  3-C , 19-H ) :  -0.1097
B(  3-C , 20-C ) :  -0.4050 B(  3-C , 21-O ) :   0.1220 B(  3-C , 36-H ) :   0.2181
B(  4-C ,  5-C ) :  -0.1131 B(  4-C , 20-C ) :   0.4547 B(  4-C , 35-H ) :  -0.1702
B(  4-C , 36-H ) :   1.5785 B(  5-C , 12-N ) :  -0.1041 B(  5-C , 17-O ) :   0.4746
B(  5-C , 18-H ) :   1.0458 B(  5-C , 19-H ) :   1.1088 B(  6-C ,  7-H ) :   0.7735
B(  6-C ,  8-C ) :   0.6526 B(  6-C , 22-Si) :   1.0308 B(  6-C , 23-C ) :   0.1690
B(  6-C , 25-C ) :   0.2255 B(  7-H , 22-Si) :  -0.1760 B(  8-C ,  9-H ) :   1.0535
B(  8-C , 10-H ) :   1.0489 B(  8-C , 11-H ) :   1.0254 B(  8-C , 22-Si) :  -0.1452
B( 12-N , 13-C ) :   1.0723 B( 12-N , 37-H ) :  -0.1921 B( 13-C , 14-H ) :   0.9353
B( 13-C , 15-H ) :   0.9418 B( 13-C , 16-H ) :   1.0131 B( 17-O , 20-C ) :   1.0132
B( 17-O , 21-O ) :  -0.1183 B( 20-C , 21-O ) :   0.9536 B( 21-O , 36-H ) :   0.1492
B( 22-Si, 23-C ) :   0.1353 B( 22-Si, 24-C ) :  -0.4658 B( 22-Si, 25-C ) :   0.1186
B( 22-Si, 31-H ) :  -0.1115 B( 23-C , 24-C ) :   0.1380 B( 23-C , 25-C ) :   0.1880
B( 23-C , 26-H ) :   1.0778 B( 23-C , 27-H ) :   0.9046 B( 23-C , 28-H ) :   1.1156
B( 24-C , 25-C ) :   0.1638 B( 24-C , 29-H ) :   1.0605 B( 24-C , 30-H ) :   1.0902
B( 24-C , 31-H ) :   1.1731 B( 25-C , 32-H ) :   1.0771 B( 25-C , 33-H ) :   0.8775
B( 25-C , 34-H ) :   1.1521

MP2 TOTAL ENERGY:    -1000.918515770 Eh
FINAL SINGLE POINT ENERGY     -1000.918515770065

DIPOLE MOMENT
-------------
                                X             Y             Z
Electronic contribution:    -25.91085      -4.92362      -2.28990
Nuclear contribution   :     28.17366       7.15394       1.93441
                        -----------------------------------------
Total Dipole Moment    :      2.26281       2.23032      -0.35549
                        -----------------------------------------
Magnitude (a.u.)       :      3.19704
Magnitude (Debye)      :      8.12622

Rotational constants in cm-1:     0.028748     0.008123     0.007383
Rotational constants in MHz :   861.856532   243.526936   221.328448

                             ****ORCA TERMINATED NORMALLY****
TOTAL RUN TIME: 0 days 0 hours 47 minutes 52 seconds 627 msec
