                         Program Version 4.2.1 -  RELEASE  -
|  1> %pal
|  2>  nprocs 32
|  3> end
|  4> !RI-MP2 aug-cc-pVTZ aug-cc-pVTZ/C TightSCF
|  5> %maxcore 4500
|  6> *xyzfile 0 1  10_74P.xyz
|  7>
|  8>
|  9>                          ****END OF INPUT****

CARTESIAN COORDINATES (ANGSTROEM)
---------------------------------
  C      0.650121   -1.104639   -0.227312
  C      1.683642   -1.477653    0.520384
  C     -0.083305    0.199908   -0.038708
  C     -1.401901    0.153312   -0.845386
  C     -2.120964    1.508508   -0.929202
  C     -2.452694   -0.770666   -0.222084
  H     -1.152056   -0.206564   -1.846034
  C      3.180837    0.709432   -0.733819
  C      2.212958    1.419551   -0.156085
  H      2.963670    0.150895   -1.638480
  C      4.547801    0.446600   -0.192176
  C      0.810962    1.322097   -0.727138
  C      0.068075    2.635849   -0.744928
  C     -1.252938    2.718706   -0.808839
  C     -3.283334    1.412426    0.058725
  H     -2.636039    1.576740   -1.897232
  N     -3.370511    0.113909    0.481502
  H     -1.991473   -1.493664    0.458228
  C     -3.399360   -1.546233   -1.130036
  C      2.739599   -2.388448    0.074087
  H      1.893302   -0.924560    1.429153
  C      4.554019   -0.776874    0.756558
  H      4.904515    1.292383    0.408817
  O      5.427197    0.224911   -1.278639
  C      4.029474   -2.055272    0.154684
  H      3.959780   -0.498202    1.633558
  O      5.922854   -0.917411    1.140700
  H      0.469804   -1.622204   -1.167909
  C     -0.337269    0.520676    1.438936
  C      2.442260    2.212821    1.107870
  H      6.260623   -0.083869   -0.905734
  H      6.029473   -1.722132    1.654284
  H      2.457160   -3.298916   -0.445507
  H      4.779284   -2.702860   -0.288620
  C     -4.668883   -0.535631    0.715049
  O     -4.056776    2.298651    0.345722
  H      3.353771    2.809705    1.036617
  H      2.551652    1.567643    1.984520
  H      1.614084    2.889980    1.314799
  H     -0.799108    1.499473    1.561037
  H      0.586243    0.525748    2.012478
  H     -0.995563   -0.221074    1.890083
  C     -4.601387   -1.781421   -0.202896
  O     -2.759038   -2.719825   -1.588011
  H     -3.687108   -0.913952   -1.980946
  H     -5.438076    0.164368    0.381181
  C     -4.900715   -0.864937    2.179778
  H     -4.394910   -2.677848    0.388308
  H     -5.534792   -1.942172   -0.744403
  H     -5.852217   -1.386697    2.309124
  H     -4.923978    0.048727    2.774663
  H     -4.103776   -1.507926    2.561264
  H     -3.328388   -3.176770   -2.211829
  H     -1.756847    3.678585   -0.809411
  H      0.658382    3.545363   -0.710120
  H      0.930270    0.993147   -1.765353

 Total Charge           Charge          ....    0
 Multiplicity           Mult            ....    1
 Number of Electrons    NEL             ....  200
 Basis Dimension        Dim             .... 1909

ORBITAL ENERGIES
----------------

  NO   OCC          E(Eh)            E(eV)
   0   2.0000     -20.575583      -559.8901
   1   2.0000     -20.572176      -559.7974
   2   2.0000     -20.549653      -559.1845
   3   2.0000     -20.520416      -558.3889
   4   2.0000     -15.576960      -423.8706
   5   2.0000     -11.342512      -308.6455
   6   2.0000     -11.295357      -307.3623
   7   2.0000     -11.294026      -307.3261
   8   2.0000     -11.283736      -307.0461
   9   2.0000     -11.273545      -306.7687
  10   2.0000     -11.268896      -306.6422
  11   2.0000     -11.253755      -306.2303
  12   2.0000     -11.247714      -306.0659
  13   2.0000     -11.243597      -305.9538
  14   2.0000     -11.242686      -305.9290
  15   2.0000     -11.242401      -305.9213
  16   2.0000     -11.235470      -305.7327
  17   2.0000     -11.234265      -305.6999
  18   2.0000     -11.233966      -305.6918
  19   2.0000     -11.232566      -305.6537
  20   2.0000     -11.230714      -305.6033
  21   2.0000     -11.228596      -305.5456
  22   2.0000     -11.227938      -305.5277
  23   2.0000     -11.224233      -305.4269
  24   2.0000     -11.219206      -305.2901
  25   2.0000     -11.216610      -305.2195
  26   2.0000     -11.213881      -305.1452
  27   2.0000      -1.388118       -37.7726
  28   2.0000      -1.385712       -37.7071
  29   2.0000      -1.381182       -37.5839
  30   2.0000      -1.351019       -36.7631
  31   2.0000      -1.278193       -34.7814
  32   2.0000      -1.167400       -31.7666
  33   2.0000      -1.117439       -30.4071
  34   2.0000      -1.099118       -29.9085
  35   2.0000      -1.079801       -29.3829
  36   2.0000      -1.063907       -28.9504
  37   2.0000      -1.048789       -28.5390
  38   2.0000      -1.011258       -27.5177
  39   2.0000      -0.999032       -27.1850
  40   2.0000      -0.980686       -26.6858
  41   2.0000      -0.956067       -26.0159
  42   2.0000      -0.939710       -25.5708
  43   2.0000      -0.924249       -25.1501
  44   2.0000      -0.885566       -24.0975
  45   2.0000      -0.854488       -23.2518
  46   2.0000      -0.840575       -22.8732
  47   2.0000      -0.825824       -22.4718
  48   2.0000      -0.809164       -22.0185
  49   2.0000      -0.778156       -21.1747
  50   2.0000      -0.759662       -20.6715
  51   2.0000      -0.739367       -20.1192
  52   2.0000      -0.724157       -19.7053
  53   2.0000      -0.717606       -19.5271
  54   2.0000      -0.704670       -19.1750
  55   2.0000      -0.700779       -19.0692
  56   2.0000      -0.681259       -18.5380
  57   2.0000      -0.680728       -18.5235
  58   2.0000      -0.667386       -18.1605
  59   2.0000      -0.655662       -17.8415
  60   2.0000      -0.653449       -17.7813
  61   2.0000      -0.644330       -17.5331
  62   2.0000      -0.633236       -17.2312
  63   2.0000      -0.632401       -17.2085
  64   2.0000      -0.618850       -16.8398
  65   2.0000      -0.608724       -16.5642
  66   2.0000      -0.600829       -16.3494
  67   2.0000      -0.599036       -16.3006
  68   2.0000      -0.595700       -16.2098
  69   2.0000      -0.587267       -15.9804
  70   2.0000      -0.577549       -15.7159
  71   2.0000      -0.571232       -15.5440
  72   2.0000      -0.568283       -15.4638
  73   2.0000      -0.561599       -15.2819
  74   2.0000      -0.552324       -15.0295
  75   2.0000      -0.551336       -15.0026
  76   2.0000      -0.544233       -14.8093
  77   2.0000      -0.537860       -14.6359
  78   2.0000      -0.534318       -14.5395
  79   2.0000      -0.526311       -14.3216
  80   2.0000      -0.523164       -14.2360
  81   2.0000      -0.518406       -14.1066
  82   2.0000      -0.513058       -13.9610
  83   2.0000      -0.505586       -13.7577
  84   2.0000      -0.503115       -13.6905
  85   2.0000      -0.497470       -13.5368
  86   2.0000      -0.485133       -13.2011
  87   2.0000      -0.481155       -13.0929
  88   2.0000      -0.472900       -12.8683
  89   2.0000      -0.462628       -12.5887
  90   2.0000      -0.455873       -12.4049
  91   2.0000      -0.448899       -12.2152
  92   2.0000      -0.446939       -12.1618
  93   2.0000      -0.436164       -11.8686
  94   2.0000      -0.419787       -11.4230
  95   2.0000      -0.406347       -11.0573
  96   2.0000      -0.379665       -10.3312
  97   2.0000      -0.357594        -9.7306
  98   2.0000      -0.339087        -9.2270
  99   2.0000      -0.313576        -8.5328
 100   0.0000       0.019195         0.5223
 101   0.0000       0.025125         0.6837
 102   0.0000       0.029526         0.8034
 103   0.0000       0.030569         0.8318
 104   0.0000       0.035197         0.9578

MULLIKEN ATOMIC CHARGES
-----------------------
   0 C :   -0.925860
   1 C :   -0.304671
   2 C :    2.900750
   3 C :   -0.190999
   4 C :    0.315355
   5 C :    0.562664
   6 H :   -0.184174
   7 C :   -0.956233
   8 C :    1.519722
   9 H :    0.003224
  10 C :    0.846930
  11 C :   -0.137788
  12 C :   -0.843259
  13 C :   -0.924541
  14 C :    0.975409
  15 H :    0.322639
  16 N :    0.302598
  17 H :    0.216468
  18 C :    0.160093
  19 C :   -0.677543
  20 H :    0.282361
  21 C :    1.138572
  22 H :    0.145455
  23 O :   -0.966141
  24 C :   -0.966708
  25 H :    0.142805
  26 O :   -0.903756
  27 H :   -0.461319
  28 C :   -1.209316
  29 C :   -1.114574
  30 H :    0.144751
  31 H :    0.145452
  32 H :    0.460118
  33 H :    0.397799
  34 C :   -0.048781
  35 O :   -1.377233
  36 H :    0.110578
  37 H :    0.123490
  38 H :    0.298481
  39 H :    0.270438
  40 H :    0.202914
  41 H :    0.115652
  42 C :   -0.838013
  43 O :   -0.836111
  44 H :    0.135077
  45 H :    0.404314
  46 C :   -1.175248
  47 H :    0.136195
  48 H :    0.398137
  49 H :    0.260356
  50 H :    0.241519
  51 H :    0.249324
  52 H :    0.104357
  53 H :    0.292745
  54 H :    0.326254
  55 H :    0.389274
Sum of atomic charges:   -0.0000000

LOEWDIN ATOMIC CHARGES
----------------------
   0 C :    0.247304
   1 C :    0.199826
   2 C :   -0.239017
   3 C :    0.064241
   4 C :    0.021606
   5 C :   -0.079183
   6 H :   -0.118814
   7 C :    0.239622
   8 C :   -0.063354
   9 H :   -0.162894
  10 C :   -0.261652
  11 C :    0.024824
  12 C :    0.259015
  13 C :    0.270489
  14 C :   -0.631609
  15 H :   -0.117512
  16 N :    0.322094
  17 H :   -0.122059
  18 C :   -0.215216
  19 C :    0.224301
  20 H :   -0.206711
  21 C :   -0.246852
  22 H :   -0.148135
  23 O :    0.842159
  24 C :    0.242735
  25 H :   -0.161334
  26 O :    0.845055
  27 H :   -0.146085
  28 C :    0.618464
  29 C :    0.589297
  30 H :   -0.518228
  31 H :   -0.476348
  32 H :   -0.174657
  33 H :   -0.179420
  34 C :   -0.079195
  35 O :    0.470407
  36 H :   -0.160957
  37 H :   -0.165566
  38 H :   -0.175669
  39 H :   -0.151560
  40 H :   -0.193296
  41 H :   -0.155316
  42 C :    0.355786
  43 O :    0.852203
  44 H :   -0.115358
  45 H :   -0.137457
  46 C :    0.613095
  47 H :   -0.143911
  48 H :   -0.133076
  49 H :   -0.158848
  50 H :   -0.157798
  51 H :   -0.160452
  52 H :   -0.472142
  53 H :   -0.161026
  54 H :   -0.166230
  55 H :   -0.145588

  Mayer bond orders larger than 0.100000
B(  0-C ,  1-C ) :   0.7088 B(  0-C ,  2-C ) :  -0.9045 B(  0-C ,  3-C ) :  -0.4080
B(  0-C ,  4-C ) :  -0.1383 B(  0-C ,  5-C ) :  -0.2368 B(  0-C ,  6-H ) :  -0.1707
B(  0-C ,  7-C ) :  -0.1541 B(  0-C , 12-C ) :   0.3485 B(  0-C , 17-H ) :  -0.1695
B(  0-C , 19-C ) :   0.2883 B(  0-C , 24-C ) :   0.3504 B(  0-C , 27-H ) :   2.1643
B(  0-C , 32-H ) :  -0.1235 B(  0-C , 55-H ) :   0.1088 B(  1-C ,  2-C ) :  -0.2291
B(  1-C ,  3-C ) :   0.1827 B(  1-C ,  5-C ) :  -0.1585 B(  1-C ,  7-C ) :  -0.1185
B(  1-C ,  8-C ) :   0.1544 B(  1-C , 12-C ) :  -0.1770 B(  1-C , 20-H ) :   1.1642
B(  1-C , 24-C ) :  -0.1100 B(  1-C , 27-H ) :   0.3933 B(  1-C , 28-C ) :  -0.1444
B(  1-C , 29-C ) :   0.1355 B(  2-C ,  3-C ) :   0.7495 B(  2-C ,  4-C ) :   0.9906
B(  2-C ,  5-C ) :   0.1353 B(  2-C ,  6-H ) :  -0.5725 B(  2-C ,  7-C ) :   0.3269
B(  2-C , 11-C ) :   1.5565 B(  2-C , 12-C ) :  -0.3722 B(  2-C , 13-C ) :  -0.1026
B(  2-C , 14-C ) :   0.4245 B(  2-C , 16-N ) :   0.2435 B(  2-C , 19-C ) :   0.2047
B(  2-C , 20-H ) :  -0.1866 B(  2-C , 27-H ) :  -0.6950 B(  2-C , 28-C ) :  -0.4713
B(  2-C , 29-C ) :  -0.2316 B(  2-C , 35-O ) :   0.1418 B(  2-C , 39-H ) :  -0.1587
B(  2-C , 40-H ) :  -0.1649 B(  2-C , 41-H ) :  -0.2085 B(  2-C , 42-C ) :  -0.1043
B(  2-C , 43-O ) :   0.2036 B(  2-C , 53-H ) :   0.1241 B(  3-C ,  4-C ) :   0.4938
B(  3-C ,  5-C ) :   0.8802 B(  3-C ,  6-H ) :   1.2841 B(  3-C , 11-C ) :   0.2005
B(  3-C , 12-C ) :   0.1234 B(  3-C , 13-C ) :   0.2700 B(  3-C , 14-C ) :  -0.1944
B(  3-C , 16-N ) :   0.1056 B(  3-C , 27-H ) :  -0.1413 B(  3-C , 28-C ) :   0.5764
B(  3-C , 29-C ) :   0.1270 B(  3-C , 53-H ) :  -0.1245 B(  4-C , 13-C ) :   0.3334
B(  4-C , 14-C ) :   0.9630 B(  4-C , 15-H ) :   1.1057 B(  4-C , 18-C ) :  -0.1184
B(  4-C , 28-C ) :  -0.2206 B(  4-C , 35-O ) :   0.1719 B(  5-C , 13-C ) :   0.1260
B(  5-C , 14-C ) :   0.4034 B(  5-C , 16-N ) :   0.6200 B(  5-C , 17-H ) :   0.8992
B(  5-C , 18-C ) :   0.3575 B(  5-C , 28-C ) :  -0.1333 B(  5-C , 35-O ) :   0.3008
B(  5-C , 42-C ) :  -0.3766 B(  5-C , 43-O ) :  -0.1257 B(  5-C , 44-H ) :  -0.1440
B(  6-H ,  7-C ) :   0.1078 B(  6-H , 12-C ) :   0.2341 B(  6-H , 13-C ) :  -0.1411
B(  6-H , 54-H ) :   0.1256 B(  7-C ,  8-C ) :   0.3283 B(  7-C ,  9-H ) :   1.4911
B(  7-C , 10-C ) :   0.8837 B(  7-C , 11-C ) :   0.5362 B(  7-C , 28-C ) :   0.1460
B(  7-C , 29-C ) :  -0.3407 B(  7-C , 40-H ) :   0.1450 B(  7-C , 53-H ) :   0.1147
B(  7-C , 55-H ) :  -0.1844 B(  8-C ,  9-H ) :  -0.2809 B(  8-C , 11-C ) :   1.0615
B(  8-C , 12-C ) :  -0.4609 B(  8-C , 13-C ) :   0.2250 B(  8-C , 27-H ) :   0.1402
B(  8-C , 28-C ) :  -0.1860 B(  8-C , 29-C ) :   0.8179 B(  8-C , 36-H ) :  -0.1660
B(  8-C , 37-H ) :  -0.1492 B(  8-C , 38-H ) :   0.1004 B(  8-C , 40-H ) :  -0.1600
B(  8-C , 54-H ) :  -0.4229 B(  9-H , 23-O ) :   0.1031 B( 10-C , 21-C ) :   0.8630
B( 10-C , 22-H ) :   1.1264 B( 10-C , 24-C ) :   0.1148 B( 10-C , 26-O ) :  -0.1301
B( 11-C , 12-C ) :   0.8900 B( 11-C , 28-C ) :   0.1736 B( 11-C , 55-H ) :   1.1092
B( 12-C , 13-C ) :   1.8869 B( 12-C , 27-H ) :   0.1268 B( 12-C , 54-H ) :   0.9390
B( 12-C , 55-H ) :  -0.4332 B( 13-C , 14-C ) :  -0.1210 B( 13-C , 35-O ) :   0.1054
B( 13-C , 53-H ) :   0.7668 B( 13-C , 55-H ) :  -0.2151 B( 14-C , 15-H ) :  -0.1420
B( 14-C , 16-N ) :   1.3678 B( 15-H , 35-O ) :  -0.2194 B( 16-N , 18-C ) :  -0.1107
B( 16-N , 34-C ) :   0.7993 B( 16-N , 46-C ) :  -0.2083 B( 17-H , 42-C ) :  -0.1737
B( 18-C , 34-C ) :   0.1663 B( 18-C , 42-C ) :   1.4014 B( 18-C , 43-O ) :   0.1855
B( 18-C , 44-H ) :   1.2975 B( 19-C , 20-H ) :  -0.1143 B( 19-C , 24-C ) :   1.5887
B( 19-C , 27-H ) :  -0.1334 B( 19-C , 32-H ) :   0.7031 B( 20-H , 24-C ) :   0.2521
B( 20-H , 27-H ) :   0.1028 B( 21-C , 24-C ) :   0.7032 B( 21-C , 25-H ) :   1.2314
B( 21-C , 26-O ) :  -0.2452 B( 23-O , 24-C ) :   0.1349 B( 23-O , 30-H ) :   1.0897
B( 24-C , 25-H ) :  -0.1114 B( 24-C , 26-O ) :   0.1333 B( 24-C , 32-H ) :  -0.1261
B( 24-C , 33-H ) :   0.6977 B( 26-O , 31-H ) :   1.0748 B( 26-O , 33-H ) :   0.1710
B( 27-H , 32-H ) :  -0.1120 B( 28-C , 39-H ) :   1.1537 B( 28-C , 40-H ) :   1.2467
B( 28-C , 41-H ) :   1.3554 B( 29-C , 36-H ) :   1.2259 B( 29-C , 37-H ) :   1.3304
B( 29-C , 38-H ) :   0.9645 B( 29-C , 40-H ) :  -0.1352 B( 29-C , 54-H ) :  -0.1094
B( 34-C , 42-C ) :   1.0966 B( 34-C , 45-H ) :   0.8375 B( 34-C , 46-C ) :   0.6740
B( 35-O , 53-H ) :   0.1379 B( 39-H , 41-H ) :   0.1195 B( 42-C , 43-O ) :   0.1489
B( 42-C , 46-C ) :   0.1059 B( 42-C , 47-H ) :   1.1754 B( 42-C , 48-H ) :   0.8288
B( 43-O , 52-H ) :   1.1110 B( 46-C , 49-H ) :   1.0349 B( 46-C , 50-H ) :   1.0518
B( 46-C , 51-H ) :   1.0397 B( 54-H , 55-H ) :   0.1294

MP2 TOTAL ENERGY:    -1209.096353531 Eh
FINAL SINGLE POINT ENERGY     -1209.096353530508

DIPOLE MOMENT
-------------
                                X             Y             Z
Electronic contribution:      2.82979       2.07334      -7.44057
Nuclear contribution   :     -3.16549      -3.69423       7.44967
                        -----------------------------------------
Total Dipole Moment    :     -0.33570      -1.62090       0.00910
                        -----------------------------------------
Magnitude (a.u.)       :      1.65532
Magnitude (Debye)      :      4.20749

Rotational constants in cm-1:     0.013400     0.003648     0.003243
Rotational constants in MHz :   401.710114   109.373132    97.234921

                             ****ORCA TERMINATED NORMALLY****
TOTAL RUN TIME: 0 days 2 hours 39 minutes 43 seconds 458 msec
