                         Program Version 4.2.1 -  RELEASE  -
|  1> %pal
|  2>  nprocs 32
|  3> end
|  4> !RI-MP2 aug-cc-pVTZ aug-cc-pVTZ/C TightSCF
|  5> %maxcore 4500
|  6> *xyzfile 1 1  05_24P1.xyz
|  7>
|  8>
|  9>                          ****END OF INPUT****

CARTESIAN COORDINATES (ANGSTROEM)
---------------------------------
  C     -0.950864    1.457786    0.112162
  N     -2.315671    1.109776    0.057743
  C     -2.761730   -0.170606   -0.062195
  N     -1.957311   -1.215284   -0.102907
  C     -0.644932   -0.971245   -0.018634
  C     -0.116662    0.304840    0.114839
  N      1.264049    0.460516    0.027823
  C      2.103777   -0.506369    0.060757
  C      1.594136   -1.891037    0.325221
  N      0.215529   -2.010069   -0.122243
  H      1.700698   -2.090707    1.403481
  H      2.213572   -2.619570   -0.199929
  C      3.564248   -0.193196   -0.100399
  N      3.759802    1.235383   -0.229131
  H      3.926810   -0.741720   -0.976311
  H      4.097834   -0.619683    0.756748
  O     -0.589165    2.612953    0.139810
  H     -2.957154    1.893182    0.060827
  N     -4.079814   -0.375684   -0.138990
  H     -4.755019    0.369234   -0.101082
  H     -4.404278   -1.325934   -0.223974
  H     -0.192602   -2.928921   -0.217830
  H      4.274855    1.641941    0.539904
  H      4.203172    1.503545   -1.096818
  H      1.671509    1.401512   -0.100076

 Total Charge           Charge          ....    1
 Multiplicity           Mult            ....    1
 Number of Electrons    NEL             ....  102
 Basis Dimension        Dim             ....  897

ORBITAL ENERGIES
----------------

  NO   OCC          E(Eh)            E(eV)
   0   2.0000     -20.647343      -561.8428
   1   2.0000     -15.812214      -430.2722
   2   2.0000     -15.752698      -428.6527
   3   2.0000     -15.741077      -428.3365
   4   2.0000     -15.729816      -428.0301
   5   2.0000     -15.700989      -427.2456
   6   2.0000     -15.683158      -426.7604
   7   2.0000     -11.527550      -313.6806
   8   2.0000     -11.491656      -312.7039
   9   2.0000     -11.491397      -312.6968
  10   2.0000     -11.486366      -312.5599
  11   2.0000     -11.451641      -311.6150
  12   2.0000     -11.436364      -311.1993
  13   2.0000     -11.390153      -309.9418
  14   2.0000      -1.533515       -41.7291
  15   2.0000      -1.498305       -40.7709
  16   2.0000      -1.479211       -40.2514
  17   2.0000      -1.418702       -38.6048
  18   2.0000      -1.351403       -36.7736
  19   2.0000      -1.344990       -36.5990
  20   2.0000      -1.333290       -36.2807
  21   2.0000      -1.224721       -33.3263
  22   2.0000      -1.143752       -31.1231
  23   2.0000      -1.107561       -30.1383
  24   2.0000      -1.044013       -28.4090
  25   2.0000      -1.025435       -27.9035
  26   2.0000      -0.970734       -26.4150
  27   2.0000      -0.939454       -25.5638
  28   2.0000      -0.890817       -24.2404
  29   2.0000      -0.883766       -24.0485
  30   2.0000      -0.854228       -23.2447
  31   2.0000      -0.848582       -23.0911
  32   2.0000      -0.831244       -22.6193
  33   2.0000      -0.821605       -22.3570
  34   2.0000      -0.809239       -22.0205
  35   2.0000      -0.793103       -21.5814
  36   2.0000      -0.777845       -21.1662
  37   2.0000      -0.768470       -20.9111
  38   2.0000      -0.749991       -20.4083
  39   2.0000      -0.735651       -20.0181
  40   2.0000      -0.722014       -19.6470
  41   2.0000      -0.704649       -19.1745
  42   2.0000      -0.692264       -18.8375
  43   2.0000      -0.671167       -18.2634
  44   2.0000      -0.641989       -17.4694
  45   2.0000      -0.590524       -16.0690
  46   2.0000      -0.570337       -15.5197
  47   2.0000      -0.563517       -15.3341
  48   2.0000      -0.560358       -15.2481
  49   2.0000      -0.525865       -14.3095
  50   2.0000      -0.443025       -12.0553
  51   0.0000      -0.073867        -2.0100
  52   0.0000      -0.063736        -1.7343
  53   0.0000      -0.059912        -1.6303
  54   0.0000      -0.056447        -1.5360
  55   0.0000      -0.053356        -1.4519

MULLIKEN ATOMIC CHARGES
-----------------------
   0 C :    0.136763
   1 N :    0.255555
   2 C :   -0.148668
   3 N :   -0.474027
   4 C :    0.594868
   5 C :    1.021969
   6 N :   -0.464193
   7 C :    0.316866
   8 C :   -0.041631
   9 N :   -0.218494
  10 H :    0.302739
  11 H :    0.310907
  12 C :   -0.182629
  13 N :   -0.458842
  14 H :    0.329264
  15 H :    0.308755
  16 O :   -0.961829
  17 H :    0.138219
  18 N :   -0.505663
  19 H :    0.147825
  20 H :    0.092418
  21 H :    0.070585
  22 H :    0.087944
  23 H :    0.096732
  24 H :    0.244566
Sum of atomic charges:    1.0000000

LOEWDIN ATOMIC CHARGES
----------------------
   0 C :   -0.656595
   1 N :    0.604576
   2 C :   -0.480098
   3 N :    0.447441
   4 C :   -0.404458
   5 C :   -0.154882
   6 N :    0.592084
   7 C :   -0.037320
   8 C :    0.286522
   9 N :    0.608818
  10 H :   -0.105392
  11 H :   -0.123494
  12 C :    0.245848
  13 N :    0.880910
  14 H :   -0.121859
  15 H :   -0.119604
  16 O :    0.463763
  17 H :   -0.243401
  18 N :    0.905522
  19 H :   -0.259086
  20 H :   -0.261075
  21 H :   -0.245044
  22 H :   -0.280063
  23 H :   -0.281065
  24 H :   -0.262048

  Mayer bond orders larger than 0.100000
B(  0-C ,  1-N ) :   0.9124 B(  0-C ,  2-C ) :  -0.3628 B(  0-C ,  4-C ) :   0.7225
B(  0-C ,  6-N ) :  -0.1103 B(  0-C , 16-O ) :   0.7954 B(  1-N ,  2-C ) :   0.7900
B(  1-N ,  3-N ) :  -0.1077 B(  1-N ,  4-C ) :   0.1003 B(  1-N ,  5-C ) :  -0.3061
B(  1-N , 16-O ) :  -0.2458 B(  1-N , 17-H ) :   1.0940 B(  1-N , 18-N ) :  -0.1753
B(  2-C ,  3-N ) :   1.7557 B(  2-C ,  4-C ) :  -0.8281 B(  2-C , 18-N ) :   1.1936
B(  2-C , 19-H ) :  -0.1024 B(  3-N ,  4-C ) :   0.2148 B(  3-N ,  5-C ) :  -0.2100
B(  3-N ,  9-N ) :  -0.3712 B(  3-N , 18-N ) :  -0.4299 B(  4-C ,  5-C ) :   0.4569
B(  4-C ,  8-C ) :  -0.1133 B(  4-C ,  9-N ) :   0.8478 B(  5-C ,  6-N ) :   0.6785
B(  5-C ,  7-C ) :  -0.5076 B(  5-C , 16-O ) :   0.2661 B(  5-C , 24-H ) :  -0.1547
B(  6-N ,  7-C ) :   1.3380 B(  6-N ,  8-C ) :  -0.1099 B(  6-N ,  9-N ) :  -0.1497
B(  6-N , 24-H ) :   1.1078 B(  7-C ,  8-C ) :   0.5495 B(  7-C , 12-C ) :   0.5011
B(  8-C ,  9-N ) :   0.8687 B(  8-C , 10-H ) :   0.9318 B(  8-C , 11-H ) :   0.9040
B(  8-C , 12-C ) :   0.1147 B(  9-N , 21-H ) :   1.1315 B( 12-C , 13-N ) :   0.9352
B( 12-C , 14-H ) :   0.9642 B( 12-C , 15-H ) :   0.9833 B( 13-N , 22-H ) :   1.0536
B( 13-N , 23-H ) :   1.0394 B( 18-N , 19-H ) :   1.0734 B( 18-N , 20-H ) :   1.1400

MP2 TOTAL ENERGY:     -675.710599836 Eh
FINAL SINGLE POINT ENERGY      -675.710599836356

DIPOLE MOMENT
-------------
                                X             Y             Z
Electronic contribution:     -8.52208       1.83133       0.11121
Nuclear contribution   :      9.66369      -3.44914      -0.15443
                        -----------------------------------------
Total Dipole Moment    :      1.14161      -1.61781      -0.04321
                        -----------------------------------------
Magnitude (a.u.)       :      1.98051
Magnitude (Debye)      :      5.03406

Rotational constants in cm-1:     0.047225     0.015737     0.011950
Rotational constants in MHz :  1415.778813   471.789039   358.237354

                             ****ORCA TERMINATED NORMALLY****
TOTAL RUN TIME: 0 days 0 hours 12 minutes 24 seconds 249 msec
