                         Program Version 4.2.1 -  RELEASE  -
|  1> %pal
|  2>  nprocs 32
|  3> end
|  4> !RI-MP2 aug-cc-pVTZ aug-cc-pVTZ/C TightSCF
|  5> %maxcore 4500
|  6> *xyzfile 0 1  02_15TS.xyz
|  7>
|  8>
|  9>                          ****END OF INPUT****

CARTESIAN COORDINATES (ANGSTROEM)
---------------------------------
  C     -2.308501    1.265198   -0.053410
  C     -0.795339    1.242518   -0.105007
  C     -0.188308   -0.444016    0.931039
  C     -2.955766   -0.051191   -0.451775
  H     -2.624136    1.552361    0.961902
  C     -2.494492   -1.261128    0.346536
  H     -4.035409    0.081297   -0.368430
  H     -2.735578   -0.233096   -1.507778
  C     -1.001405   -1.495415    0.206041
  H     -2.741713   -1.122294    1.411871
  C     -0.066963    2.266436    0.492788
  H     -0.404329    0.829750   -1.030343
  C      1.319089    2.344222    0.404571
  C      1.214956   -0.459716    1.057550
  C      2.069620    1.412405   -0.271457
  H      1.640162    0.842911   -1.084723
  H     -0.666853   -0.139665    1.858941
  H     -0.777316   -2.474648    0.638120
  H     -0.742907   -1.557003   -0.848762
  C      3.574339    1.466909   -0.252817
  H      3.939245    1.426988    0.781109
  H      3.889325    2.433352   -0.658848
  C      2.090695   -1.306462    0.252359
  C      2.405207   -2.463573   -1.780744
  H      2.812553   -3.320014   -1.245750
  H      3.219865   -1.846712   -2.160926
  H      1.766919   -2.789175   -2.598276
  O      1.562064   -1.688923   -0.922979
  O     -2.843599    2.206157   -0.979474
  O     -3.126200   -2.446115   -0.108318
  O      3.223321   -1.622250    0.575964
  O      4.193502    0.477729   -1.045404
  H      4.217666   -0.341987   -0.534159
  C     -2.705616    3.566351   -0.643645
  H     -3.065738    3.762461    0.374916
  H     -1.669887    3.909917   -0.726012
  H     -3.319303    4.125063   -1.349075
  C     -4.482822   -2.572587    0.245443
  H     -4.792301   -3.578058   -0.036436
  H     -4.622564   -2.447727    1.327255
  H     -5.120475   -1.851857   -0.277670
  C      1.782655   -0.006537    2.374857
  H      1.278514    0.906451    2.700812
  H      1.621778   -0.764467    3.148492
  H      2.854197    0.175811    2.320630
  H      1.832768    3.067383    1.032311
  H     -0.571287    2.919686    1.198551

 Total Charge           Charge          ....    0
 Multiplicity           Mult            ....    1
 Number of Electrons    NEL             ....  162
 Basis Dimension        Dim             .... 1564

ORBITAL ENERGIES
----------------

  NO   OCC          E(Eh)            E(eV)
   0   2.0000     -20.596425      -560.4572
   1   2.0000     -20.561431      -559.5050
   2   2.0000     -20.557790      -559.4059
   3   2.0000     -20.544789      -559.0521
   4   2.0000     -20.528455      -558.6077
   5   2.0000     -11.372641      -309.4653
   6   2.0000     -11.294701      -307.3444
   7   2.0000     -11.283846      -307.0491
   8   2.0000     -11.281801      -306.9934
   9   2.0000     -11.279279      -306.9248
  10   2.0000     -11.272842      -306.7496
  11   2.0000     -11.272480      -306.7398
  12   2.0000     -11.265643      -306.5537
  13   2.0000     -11.260703      -306.4193
  14   2.0000     -11.249536      -306.1154
  15   2.0000     -11.247614      -306.0631
  16   2.0000     -11.241909      -305.9079
  17   2.0000     -11.231674      -305.6294
  18   2.0000     -11.226382      -305.4854
  19   2.0000     -11.222214      -305.3720
  20   2.0000     -11.216776      -305.2240
  21   2.0000      -1.456891       -39.6440
  22   2.0000      -1.382316       -37.6147
  23   2.0000      -1.379253       -37.5314
  24   2.0000      -1.357415       -36.9371
  25   2.0000      -1.346074       -36.6285
  26   2.0000      -1.142401       -31.0863
  27   2.0000      -1.100843       -29.9555
  28   2.0000      -1.082850       -29.4659
  29   2.0000      -1.033383       -28.1198
  30   2.0000      -1.011432       -27.5225
  31   2.0000      -0.975422       -26.5426
  32   2.0000      -0.958881       -26.0925
  33   2.0000      -0.926218       -25.2037
  34   2.0000      -0.924028       -25.1441
  35   2.0000      -0.887206       -24.1421
  36   2.0000      -0.851259       -23.1639
  37   2.0000      -0.838502       -22.8168
  38   2.0000      -0.821289       -22.3484
  39   2.0000      -0.794396       -21.6166
  40   2.0000      -0.754754       -20.5379
  41   2.0000      -0.746046       -20.3010
  42   2.0000      -0.705930       -19.2093
  43   2.0000      -0.691097       -18.8057
  44   2.0000      -0.681137       -18.5347
  45   2.0000      -0.679072       -18.4785
  46   2.0000      -0.670928       -18.2569
  47   2.0000      -0.668736       -18.1972
  48   2.0000      -0.654011       -17.7965
  49   2.0000      -0.643287       -17.5047
  50   2.0000      -0.637581       -17.3495
  51   2.0000      -0.633614       -17.2415
  52   2.0000      -0.620423       -16.8826
  53   2.0000      -0.612811       -16.6754
  54   2.0000      -0.605225       -16.4690
  55   2.0000      -0.598019       -16.2729
  56   2.0000      -0.596191       -16.2232
  57   2.0000      -0.580492       -15.7960
  58   2.0000      -0.575800       -15.6683
  59   2.0000      -0.570844       -15.5334
  60   2.0000      -0.551577       -15.0092
  61   2.0000      -0.545500       -14.8438
  62   2.0000      -0.536006       -14.5855
  63   2.0000      -0.531464       -14.4619
  64   2.0000      -0.527841       -14.3633
  65   2.0000      -0.517022       -14.0689
  66   2.0000      -0.509275       -13.8581
  67   2.0000      -0.505802       -13.7636
  68   2.0000      -0.503281       -13.6950
  69   2.0000      -0.498005       -13.5514
  70   2.0000      -0.491145       -13.3647
  71   2.0000      -0.474598       -12.9145
  72   2.0000      -0.464624       -12.6431
  73   2.0000      -0.460061       -12.5189
  74   2.0000      -0.455522       -12.3954
  75   2.0000      -0.448479       -12.2037
  76   2.0000      -0.443684       -12.0733
  77   2.0000      -0.430621       -11.7178
  78   2.0000      -0.421060       -11.4576
  79   2.0000      -0.332987        -9.0610
  80   2.0000      -0.291696        -7.9375
  81   0.0000       0.021117         0.5746
  82   0.0000       0.027874         0.7585
  83   0.0000       0.030265         0.8236
  84   0.0000       0.031047         0.8448
  85   0.0000       0.038271         1.0414

MULLIKEN ATOMIC CHARGES
-----------------------
   0 C :    0.734816
   1 C :    0.826008
   2 C :   -0.284381
   3 C :   -0.617177
   4 H :    0.291374
   5 C :    0.484299
   6 H :    0.309977
   7 H :    0.083562
   8 C :   -0.207121
   9 H :    0.194979
  10 C :   -1.112564
  11 H :    0.382608
  12 C :   -0.938298
  13 C :    1.478168
  14 C :    0.488664
  15 H :    0.181023
  16 H :    0.038137
  17 H :    0.360599
  18 H :    0.158035
  19 C :   -0.124599
  20 H :    0.307585
  21 H :    0.312766
  22 C :    0.925000
  23 C :   -1.125063
  24 H :    0.398745
  25 H :    0.436408
  26 H :    0.320907
  27 O :   -0.200460
  28 O :   -0.928962
  29 O :   -0.884700
  30 O :   -1.477715
  31 O :   -0.856101
  32 H :    0.266897
  33 C :   -1.079209
  34 H :    0.323501
  35 H :    0.413674
  36 H :    0.315178
  37 C :   -1.048919
  38 H :    0.327555
  39 H :    0.348373
  40 H :    0.363850
  41 C :   -1.191754
  42 H :    0.316469
  43 H :    0.230487
  44 H :    0.267039
  45 H :    0.178060
  46 H :    0.012280
Sum of atomic charges:    0.0000000

LOEWDIN ATOMIC CHARGES
----------------------
   0 C :   -0.256786
   1 C :    0.154831
   2 C :    0.166411
   3 C :    0.301369
   4 H :   -0.129549
   5 C :   -0.266846
   6 H :   -0.153339
   7 H :   -0.127185
   8 C :    0.288001
   9 H :   -0.129359
  10 C :    0.194591
  11 H :   -0.166591
  12 C :    0.193960
  13 C :   -0.136082
  14 C :    0.208063
  15 H :   -0.196963
  16 H :   -0.157923
  17 H :   -0.127919
  18 H :   -0.175048
  19 C :    0.039412
  20 H :   -0.157341
  21 H :   -0.152962
  22 C :   -0.833946
  23 C :    0.375579
  24 H :   -0.180660
  25 H :   -0.181823
  26 H :   -0.178500
  27 O :    0.597273
  28 O :    0.590344
  29 O :    0.590031
  30 O :    0.521570
  31 O :    0.840062
  32 H :   -0.642505
  33 C :    0.325853
  34 H :   -0.170971
  35 H :   -0.195279
  36 H :   -0.180748
  37 C :    0.328578
  38 H :   -0.182332
  39 H :   -0.172880
  40 H :   -0.184301
  41 C :    0.552774
  42 H :   -0.171934
  43 H :   -0.146837
  44 H :   -0.190174
  45 H :   -0.162032
  46 H :   -0.159882

  Mayer bond orders larger than 0.100000
B(  0-C ,  1-C ) :   0.6886 B(  0-C ,  3-C ) :   0.8130 B(  0-C ,  4-H ) :   1.1915
B(  0-C , 10-C ) :  -0.1591 B(  0-C , 33-C ) :  -0.1905 B(  0-C , 46-H ) :  -0.1167
B(  1-C ,  2-C ) :   0.2816 B(  1-C ,  3-C ) :   0.1536 B(  1-C , 10-C ) :   0.8413
B(  1-C , 11-H ) :   0.8837 B(  1-C , 13-C ) :   0.2457 B(  1-C , 15-H ) :  -0.1057
B(  1-C , 28-O ) :   0.2100 B(  1-C , 33-C ) :   0.1241 B(  2-C ,  5-C ) :   0.1042
B(  2-C ,  8-C ) :   0.9555 B(  2-C , 10-C ) :   0.1380 B(  2-C , 13-C ) :   1.3095
B(  2-C , 14-C ) :   0.1631 B(  2-C , 16-H ) :   1.1809 B(  2-C , 22-C ) :   0.1206
B(  2-C , 41-C ) :   0.1337 B(  3-C ,  5-C ) :   0.8856 B(  3-C ,  6-H ) :   0.8672
B(  3-C ,  7-H ) :   1.1337 B(  3-C , 29-O ) :   0.2793 B(  4-H , 28-O ) :  -0.1672
B(  5-C ,  8-C ) :   0.9425 B(  5-C ,  9-H ) :   1.1526 B(  5-C , 17-H ) :  -0.1031
B(  5-C , 29-O ) :   0.2681 B(  5-C , 37-C ) :  -0.1645 B(  8-C , 17-H ) :   0.8924
B(  8-C , 18-H ) :   1.1400 B(  8-C , 27-O ) :  -0.1538 B(  8-C , 29-O ) :  -0.2119
B(  9-H , 29-O ) :  -0.1546 B( 10-C , 11-H ) :  -0.2216 B( 10-C , 12-C ) :   1.4252
B( 10-C , 14-C ) :   0.2034 B( 10-C , 15-H ) :   0.1944 B( 10-C , 16-H ) :   0.2050
B( 10-C , 33-C ) :  -0.1202 B( 10-C , 46-H ) :   1.4285 B( 11-H , 13-C ) :  -0.1395
B( 11-H , 22-C ) :   0.1305 B( 12-C , 13-C ) :   0.3179 B( 12-C , 14-C ) :   0.7653
B( 12-C , 15-H ) :  -0.2967 B( 12-C , 16-H ) :  -0.2325 B( 12-C , 19-C ) :   0.1259
B( 12-C , 45-H ) :   1.1537 B( 12-C , 46-H ) :  -0.1745 B( 13-C , 14-C ) :   0.2454
B( 13-C , 22-C ) :   0.4603 B( 13-C , 27-O ) :  -0.1390 B( 13-C , 30-O ) :  -0.4134
B( 13-C , 42-H ) :  -0.1461 B( 13-C , 43-H ) :  -0.2061 B( 14-C , 15-H ) :   1.1126
B( 14-C , 16-H ) :   0.1354 B( 14-C , 19-C ) :   0.4631 B( 14-C , 21-H ) :  -0.1123
B( 14-C , 30-O ) :   0.1332 B( 15-H , 22-C ) :   0.1926 B( 15-H , 31-O ) :   0.1188
B( 19-C , 20-H ) :   1.0894 B( 19-C , 21-H ) :   1.0186 B( 19-C , 31-O ) :   0.6635
B( 22-C , 27-O ) :   1.1034 B( 22-C , 30-O ) :   0.3740 B( 23-C , 24-H ) :   0.8860
B( 23-C , 25-H ) :   0.7965 B( 23-C , 26-H ) :   0.9804 B( 23-C , 27-O ) :   0.9305
B( 28-O , 33-C ) :   1.1889 B( 29-O , 37-C ) :   1.1469 B( 30-O , 41-C ) :   0.1275
B( 31-O , 32-H ) :   0.8100 B( 33-C , 34-H ) :   0.9244 B( 33-C , 35-H ) :   0.8169
B( 33-C , 36-H ) :   1.0162 B( 37-C , 38-H ) :   1.0101 B( 37-C , 39-H ) :   0.8710
B( 37-C , 40-H ) :   0.8707 B( 41-C , 42-H ) :   1.0693 B( 41-C , 43-H ) :   1.1096
B( 41-C , 44-H ) :   1.0191

MP2 TOTAL ENERGY:     -999.536645830 Eh
FINAL SINGLE POINT ENERGY      -999.536645830352

DIPOLE MOMENT
-------------
                                X             Y             Z
Electronic contribution:      7.60956      -2.88769      -2.60119
Nuclear contribution   :     -8.94185       3.58748       3.35331
                        -----------------------------------------
Total Dipole Moment    :     -1.33229       0.69979       0.75211
                        -----------------------------------------
Magnitude (a.u.)       :      1.68237
Magnitude (Debye)      :      4.27626

Rotational constants in cm-1:     0.013537     0.007498     0.005651
Rotational constants in MHz :   405.828316   224.777756   169.420171

                             ****ORCA TERMINATED NORMALLY****
TOTAL RUN TIME: 0 days 1 hours 34 minutes 56 seconds 676 msec
