                         Program Version 4.2.1 -  RELEASE  -
|  1> %pal
|  2>  nprocs 32
|  3> end
|  4> !RI-MP2 aug-cc-pVTZ aug-cc-pVTZ/C TightSCF
|  5> %maxcore 4500
|  6> *xyzfile 0 1  04_22R1.xyz
|  7>
|  8>
|  9>                          ****END OF INPUT****

CARTESIAN COORDINATES (ANGSTROEM)
---------------------------------
  C     -2.785712   -0.500994   -0.430158
  C     -0.917998    0.201177    0.805783
  C      0.527067    0.652407    0.636252
  C      0.645054    1.985900   -0.088877
  C      1.336930   -0.421942   -0.058244
  O      1.203487   -1.623864    0.543890
  O      2.048293   -0.263048   -1.010331
  H     -2.852375   -1.453277    0.111158
  H     -3.451470    0.226099    0.052601
  H     -3.110157   -0.651736   -1.458483
  H      0.116532    2.761325    0.469238
  H      0.209568    1.916535   -1.084838
  H      1.687837    2.282529   -0.195637
  H     -1.485690    0.986353    1.325086
  H     -0.964431   -0.713145    1.408690
  H      0.948360    0.736362    1.644856
  H      1.745800   -2.251273    0.046548
  O     -1.461282   -0.030470   -0.472028

 Total Charge           Charge          ....    0
 Multiplicity           Mult            ....    1
 Number of Electrons    NEL             ....   64
 Basis Dimension        Dim             ....  598

ORBITAL ENERGIES
----------------

  NO   OCC          E(Eh)            E(eV)
   0   2.0000     -20.607776      -560.7661
   1   2.0000     -20.564710      -559.5942
   2   2.0000     -20.543954      -559.0294
   3   2.0000     -11.378586      -309.6271
   4   2.0000     -11.286376      -307.1179
   5   2.0000     -11.276006      -306.8357
   6   2.0000     -11.251456      -306.1677
   7   2.0000     -11.214796      -305.1701
   8   2.0000      -1.464181       -39.8424
   9   2.0000      -1.388105       -37.7723
  10   2.0000      -1.359488       -36.9936
  11   2.0000      -1.092479       -29.7279
  12   2.0000      -0.960700       -26.1420
  13   2.0000      -0.913822       -24.8664
  14   2.0000      -0.875112       -23.8130
  15   2.0000      -0.778428       -21.1821
  16   2.0000      -0.703815       -19.1518
  17   2.0000      -0.699653       -19.0385
  18   2.0000      -0.677745       -18.4424
  19   2.0000      -0.667006       -18.1502
  20   2.0000      -0.640718       -17.4348
  21   2.0000      -0.612483       -16.6665
  22   2.0000      -0.589748       -16.0479
  23   2.0000      -0.576587       -15.6897
  24   2.0000      -0.557295       -15.1648
  25   2.0000      -0.524940       -14.2843
  26   2.0000      -0.515225       -14.0200
  27   2.0000      -0.494438       -13.4543
  28   2.0000      -0.484379       -13.1806
  29   2.0000      -0.477845       -13.0028
  30   2.0000      -0.445859       -12.1324
  31   2.0000      -0.430062       -11.7026
  32   0.0000       0.026224         0.7136
  33   0.0000       0.034127         0.9286
  34   0.0000       0.034778         0.9464
  35   0.0000       0.041287         1.1235
  36   0.0000       0.049605         1.3498

MULLIKEN ATOMIC CHARGES
-----------------------
   0 C :   -0.963208
   1 C :   -0.178200
   2 C :    0.294861
   3 C :   -0.931076
   4 C :    0.578024
   5 O :   -0.482993
   6 O :   -0.869066
   7 H :    0.358513
   8 H :    0.351598
   9 H :    0.327453
  10 H :    0.258767
  11 H :    0.311702
  12 H :    0.276192
  13 H :    0.338364
  14 H :    0.345754
  15 H :    0.354454
  16 H :    0.221569
  17 O :   -0.592709
Sum of atomic charges:   -0.0000000

LOEWDIN ATOMIC CHARGES
----------------------
   0 C :    0.321722
   1 C :   -0.004143
   2 C :   -0.058578
   3 C :    0.575086
   4 C :   -0.786413
   5 O :    0.845422
   6 O :    0.476154
   7 H :   -0.174725
   8 H :   -0.174655
   9 H :   -0.183556
  10 H :   -0.162930
  11 H :   -0.165186
  12 H :   -0.167965
  13 H :   -0.140388
  14 H :   -0.160728
  15 H :   -0.133685
  16 H :   -0.467644
  17 O :    0.562213

  Mayer bond orders larger than 0.100000
B(  0-C ,  7-H ) :   0.8574 B(  0-C ,  8-H ) :   0.8636 B(  0-C ,  9-H ) :   0.9677
B(  0-C , 17-O ) :   1.0705 B(  1-C ,  2-C ) :   0.9776 B(  1-C ,  4-C ) :   0.1060
B(  1-C , 13-H ) :   0.8940 B(  1-C , 14-H ) :   0.9013 B(  1-C , 17-O ) :   0.8184
B(  2-C ,  3-C ) :   0.7889 B(  2-C ,  4-C ) :   0.6586 B(  2-C ,  6-O ) :  -0.1168
B(  2-C , 15-H ) :   0.9227 B(  3-C , 10-H ) :   0.9770 B(  3-C , 11-H ) :   0.9450
B(  3-C , 12-H ) :   0.9719 B(  4-C ,  5-O ) :   0.9932 B(  4-C ,  6-O ) :   1.3791
B(  4-C , 15-H ) :  -0.1153 B(  5-O , 16-H ) :   0.9725

MP2 TOTAL ENERGY:     -421.505777099 Eh
FINAL SINGLE POINT ENERGY      -421.505777099230

DIPOLE MOMENT
-------------
                                X             Y             Z
Electronic contribution:      6.45583      -4.05554      -1.39054
Nuclear contribution   :     -7.25238       3.87613       2.34470
                        -----------------------------------------
Total Dipole Moment    :     -0.79655      -0.17941       0.95416
                        -----------------------------------------
Magnitude (a.u.)       :      1.25583
Magnitude (Debye)      :      3.19205

Rotational constants in cm-1:     0.095125     0.048570     0.039672
Rotational constants in MHz :  2851.768780  1456.089456  1189.322234

                             ****ORCA TERMINATED NORMALLY****
TOTAL RUN TIME: 0 days 0 hours 3 minutes 13 seconds 823 msec
