                         Program Version 4.2.1 -  RELEASE  -
|  1> %pal
|  2>  nprocs 32
|  3> end
|  4> !RI-MP2 aug-cc-pVTZ aug-cc-pVTZ/C TightSCF
|  5> %maxcore 4500
|  6> *xyzfile 0 1  04_85R1.xyz
|  7>
|  8>
|  9>                          ****END OF INPUT****

CARTESIAN COORDINATES (ANGSTROEM)
---------------------------------
  O     -1.912991    1.224245   -0.676780
  C     -2.285316    0.265989   -0.052555
  O     -3.559403   -0.169405   -0.104782
  C     -1.445181   -0.585985    0.854932
  C     -0.010743   -0.100630    0.993618
  C      0.807215   -0.287731   -0.296277
  H      0.470397   -0.666644    1.797325
  H      0.008492    0.952713    1.276372
  C      2.208383    0.251433   -0.062347
  O      2.231766    1.592215    0.027868
  N      0.804483   -1.676667   -0.711885
  H     -4.038272    0.414978   -0.709085
  H      0.344432    0.322453   -1.073564
  H      1.481729   -2.205718   -0.171856
  H      1.071701   -1.766467   -1.684099
  H      3.145118    1.858100    0.205544
  O      3.196236   -0.422964    0.057640
  H     -1.943335   -0.619676    1.826917
  H     -1.462649   -1.604254    0.459850

 Total Charge           Charge          ....    0
 Multiplicity           Mult            ....    1
 Number of Electrons    NEL             ....   78
 Basis Dimension        Dim             ....  667

ORBITAL ENERGIES
----------------

  NO   OCC          E(Eh)            E(eV)
   0   2.0000     -20.616433      -561.0017
   1   2.0000     -20.614567      -560.9509
   2   2.0000     -20.553643      -559.2931
   3   2.0000     -20.552580      -559.2641
   4   2.0000     -15.550731      -423.1569
   5   2.0000     -11.387916      -309.8810
   6   2.0000     -11.383532      -309.7617
   7   2.0000     -11.278057      -306.8915
   8   2.0000     -11.247751      -306.0669
   9   2.0000     -11.242893      -305.9347
  10   2.0000      -1.473110       -40.0853
  11   2.0000      -1.471650       -40.0456
  12   2.0000      -1.368517       -37.2392
  13   2.0000      -1.367110       -37.2010
  14   2.0000      -1.205253       -32.7966
  15   2.0000      -1.079895       -29.3854
  16   2.0000      -0.991602       -26.9829
  17   2.0000      -0.898244       -24.4425
  18   2.0000      -0.813308       -22.1312
  19   2.0000      -0.789377       -21.4801
  20   2.0000      -0.721145       -19.6234
  21   2.0000      -0.710944       -19.3458
  22   2.0000      -0.707734       -19.2584
  23   2.0000      -0.695112       -18.9150
  24   2.0000      -0.680842       -18.5267
  25   2.0000      -0.649281       -17.6678
  26   2.0000      -0.634068       -17.2539
  27   2.0000      -0.612300       -16.6615
  28   2.0000      -0.604112       -16.4387
  29   2.0000      -0.578519       -15.7423
  30   2.0000      -0.566966       -15.4279
  31   2.0000      -0.538571       -14.6553
  32   2.0000      -0.518644       -14.1130
  33   2.0000      -0.507041       -13.7973
  34   2.0000      -0.488701       -13.2982
  35   2.0000      -0.482231       -13.1222
  36   2.0000      -0.463188       -12.6040
  37   2.0000      -0.450806       -12.2670
  38   2.0000      -0.410887       -11.1808
  39   0.0000       0.026936         0.7330
  40   0.0000       0.032786         0.8922
  41   0.0000       0.035238         0.9589
  42   0.0000       0.037649         1.0245
  43   0.0000       0.051357         1.3975

MULLIKEN ATOMIC CHARGES
-----------------------
   0 O :   -0.780332
   1 C :    0.528040
   2 O :   -0.485729
   3 C :   -0.131670
   4 C :   -0.524119
   5 C :    0.914608
   6 H :    0.289350
   7 H :    0.243612
   8 C :    0.451752
   9 O :   -0.481078
  10 N :   -0.697338
  11 H :    0.249904
  12 H :    0.434243
  13 H :    0.099638
  14 H :    0.063871
  15 H :    0.243341
  16 O :   -0.901983
  17 H :    0.275448
  18 H :    0.208440
Sum of atomic charges:    0.0000000

LOEWDIN ATOMIC CHARGES
----------------------
   0 O :    0.479566
   1 C :   -0.784036
   2 O :    0.839754
   3 C :    0.278210
   4 C :    0.278066
   5 C :   -0.158593
   6 H :   -0.133429
   7 H :   -0.150047
   8 C :   -0.776968
   9 O :    0.849006
  10 N :    0.854066
  11 H :   -0.471526
  12 H :   -0.169266
  13 H :   -0.323078
  14 H :   -0.303787
  15 H :   -0.462774
  16 O :    0.462495
  17 H :   -0.145305
  18 H :   -0.162355

  Mayer bond orders larger than 0.100000
B(  0-O ,  1-C ) :   1.4549 B(  1-C ,  2-O ) :   0.9157 B(  1-C ,  3-C ) :   0.4979
B(  2-O , 11-H ) :   0.9664 B(  3-C ,  4-C ) :   0.9529 B(  3-C , 17-H ) :   0.9682
B(  3-C , 18-H ) :   0.9625 B(  4-C ,  5-C ) :   0.7977 B(  4-C ,  6-H ) :   0.9462
B(  4-C ,  7-H ) :   0.9508 B(  4-C , 10-N ) :   0.1291 B(  5-C ,  8-C ) :   0.4106
B(  5-C , 10-N ) :   0.3150 B(  5-C , 12-H ) :   0.8898 B(  8-C ,  9-O ) :   0.9385
B(  8-C , 10-N ) :   0.1628 B(  8-C , 12-H ) :  -0.1194 B(  8-C , 16-O ) :   1.3020
B(  9-O , 15-H ) :   0.9567 B( 10-N , 13-H ) :   1.0144 B( 10-N , 14-H ) :   1.0141

MP2 TOTAL ENERGY:     -550.749093529 Eh
FINAL SINGLE POINT ENERGY      -550.749093529277

DIPOLE MOMENT
-------------
                                X             Y             Z
Electronic contribution:      0.56279       3.28105      -1.67066
Nuclear contribution   :     -0.91437      -3.27498       1.90393
                        -----------------------------------------
Total Dipole Moment    :     -0.35158       0.00607       0.23327
                        -----------------------------------------
Magnitude (a.u.)       :      0.42197
Magnitude (Debye)      :      1.07257

Rotational constants in cm-1:     0.093842     0.022381     0.020215
Rotational constants in MHz :  2813.316207   670.953495   606.018676

                             ****ORCA TERMINATED NORMALLY****
TOTAL RUN TIME: 0 days 0 hours 4 minutes 28 seconds 593 msec
