                         Program Version 4.2.1 -  RELEASE  -
|  1> %pal
|  2>  nprocs 32
|  3> end
|  4> !RI-MP2 aug-cc-pVTZ aug-cc-pVTZ/C TightSCF
|  5> %maxcore 4500
|  6> *xyzfile -1 1  05_11TS.xyz
|  7>
|  8>
|  9>                          ****END OF INPUT****

CARTESIAN COORDINATES (ANGSTROEM)
---------------------------------
  C     -0.451125    0.168968    2.109998
  N     -1.797170    0.554227    1.887366
  C     -2.251430    1.589635    1.110888
  N     -1.269885    2.286576    0.478314
  C      0.113884    1.937286    0.493382
  C      0.519228    0.977465    1.466603
  H      1.555494    0.854504    1.729311
  O     -3.440340    1.858557    1.000785
  C      0.969585    3.124219    0.207080
  H      0.319732    1.339738   -0.672853
  O      0.565014    4.127960   -0.328966
  O      2.247533    2.940535    0.553174
  N      0.506701    0.249867   -1.474467
  C      1.618146   -0.313686   -0.960617
  C      1.665780   -1.527299   -0.210957
  N      0.477863   -2.187460   -0.001030
  C     -0.703370   -1.623920   -0.459197
  C     -0.668327   -0.453584   -1.233581
  C     -1.867010    0.085973   -1.706635
  C     -1.947368   -2.189804   -0.166272
  C     -3.129077   -1.609813   -0.592444
  C     -3.095734   -0.451677   -1.392950
  C      2.883832    0.366169   -1.217409
  N      3.971388   -0.279707   -0.676524
  C      3.966090   -1.492801    0.033874
  N      2.765307   -2.094031    0.238699
  O      5.035776   -1.936758    0.417811
  O      3.003273    1.414361   -1.833213
  C     -4.361658    0.229738   -1.828565
  H     -5.067785   -0.467261   -2.287854
  H     -4.144556    1.017344   -2.550785
  H     -4.850597    0.697388   -0.969459
  C     -4.445581   -2.205624   -0.178587
  H     -5.031846   -2.525133   -1.045168
  H     -5.050020   -1.473367    0.363617
  H     -4.298192   -3.071593    0.467482
  C      0.444631   -3.384723    0.825739
  H     -0.085673   -3.176253    1.755792
  H      1.472082   -3.651044    1.048589
  H     -0.039558   -4.200084    0.282858
  H      4.874584    0.149877   -0.814559
  H     -1.796925    0.990096   -2.300043
  H     -1.996407   -3.068499    0.460253
  H     -2.501348   -0.010800    2.335357
  H     -1.555393    3.067059   -0.092678
  O     -0.250952   -0.798537    2.843162
  H      2.771562    3.613635    0.099511

 Total Charge           Charge          ....   -1
 Multiplicity           Mult            ....    1
 Number of Electrons    NEL             ....  216
 Basis Dimension        Dim             .... 1771

ORBITAL ENERGIES
----------------

  NO   OCC          E(Eh)            E(eV)
   0   2.0000     -20.515659      -558.2595
   1   2.0000     -20.454610      -556.5982
   2   2.0000     -20.419839      -555.6521
   3   2.0000     -20.416082      -555.5498
   4   2.0000     -20.400435      -555.1241
   5   2.0000     -20.395184      -554.9812
   6   2.0000     -15.519157      -422.2977
   7   2.0000     -15.513274      -422.1377
   8   2.0000     -15.494133      -421.6168
   9   2.0000     -15.493359      -421.5957
  10   2.0000     -15.487482      -421.4358
  11   2.0000     -15.425508      -419.7494
  12   2.0000     -11.294530      -307.3398
  13   2.0000     -11.284519      -307.0674
  14   2.0000     -11.262766      -306.4754
  15   2.0000     -11.254697      -306.2559
  16   2.0000     -11.246329      -306.0282
  17   2.0000     -11.235642      -305.7374
  18   2.0000     -11.204669      -304.8945
  19   2.0000     -11.198133      -304.7167
  20   2.0000     -11.181100      -304.2532
  21   2.0000     -11.169766      -303.9448
  22   2.0000     -11.169412      -303.9352
  23   2.0000     -11.159830      -303.6744
  24   2.0000     -11.154815      -303.5379
  25   2.0000     -11.153193      -303.4938
  26   2.0000     -11.151767      -303.4550
  27   2.0000     -11.147637      -303.3426
  28   2.0000     -11.140694      -303.1537
  29   2.0000     -11.101511      -302.0875
  30   2.0000      -1.375897       -37.4401
  31   2.0000      -1.302826       -35.4517
  32   2.0000      -1.296303       -35.2742
  33   2.0000      -1.271336       -34.5948
  34   2.0000      -1.268885       -34.5281
  35   2.0000      -1.254838       -34.1459
  36   2.0000      -1.235718       -33.6256
  37   2.0000      -1.169783       -31.8314
  38   2.0000      -1.156906       -31.4810
  39   2.0000      -1.143715       -31.1221
  40   2.0000      -1.103844       -30.0371
  41   2.0000      -1.092757       -29.7354
  42   2.0000      -1.068102       -29.0645
  43   2.0000      -0.971982       -26.4490
  44   2.0000      -0.960675       -26.1413
  45   2.0000      -0.957387       -26.0518
  46   2.0000      -0.908111       -24.7110
  47   2.0000      -0.879386       -23.9293
  48   2.0000      -0.866427       -23.5767
  49   2.0000      -0.845052       -22.9950
  50   2.0000      -0.815698       -22.1963
  51   2.0000      -0.780808       -21.2469
  52   2.0000      -0.765012       -20.8170
  53   2.0000      -0.740320       -20.1451
  54   2.0000      -0.735935       -20.0258
  55   2.0000      -0.730004       -19.8644
  56   2.0000      -0.693920       -18.8825
  57   2.0000      -0.663533       -18.0556
  58   2.0000      -0.658925       -17.9303
  59   2.0000      -0.639456       -17.4005
  60   2.0000      -0.627345       -17.0709
  61   2.0000      -0.612298       -16.6615
  62   2.0000      -0.608199       -16.5499
  63   2.0000      -0.602118       -16.3845
  64   2.0000      -0.591873       -16.1057
  65   2.0000      -0.581618       -15.8266
  66   2.0000      -0.558797       -15.2056
  67   2.0000      -0.555739       -15.1224
  68   2.0000      -0.540013       -14.6945
  69   2.0000      -0.538862       -14.6632
  70   2.0000      -0.535405       -14.5691
  71   2.0000      -0.531591       -14.4653
  72   2.0000      -0.525015       -14.2864
  73   2.0000      -0.520625       -14.1669
  74   2.0000      -0.516710       -14.0604
  75   2.0000      -0.514255       -13.9936
  76   2.0000      -0.510196       -13.8831
  77   2.0000      -0.500061       -13.6074
  78   2.0000      -0.498602       -13.5676
  79   2.0000      -0.492195       -13.3933
  80   2.0000      -0.477685       -12.9985
  81   2.0000      -0.475533       -12.9399
  82   2.0000      -0.471761       -12.8373
  83   2.0000      -0.464609       -12.6426
  84   2.0000      -0.455632       -12.3984
  85   2.0000      -0.455189       -12.3863
  86   2.0000      -0.444017       -12.0823
  87   2.0000      -0.439649       -11.9635
  88   2.0000      -0.428451       -11.6588
  89   2.0000      -0.421030       -11.4568
  90   2.0000      -0.418074       -11.3764
  91   2.0000      -0.392810       -10.6889
  92   2.0000      -0.391078       -10.6418
  93   2.0000      -0.380608       -10.3569
  94   2.0000      -0.375914       -10.2291
  95   2.0000      -0.356548        -9.7022
  96   2.0000      -0.352619        -9.5953
  97   2.0000      -0.350150        -9.5281
  98   2.0000      -0.323230        -8.7955
  99   2.0000      -0.313177        -8.5220
 100   2.0000      -0.310506        -8.4493
 101   2.0000      -0.309685        -8.4270
 102   2.0000      -0.306784        -8.3480
 103   2.0000      -0.302168        -8.2224
 104   2.0000      -0.264754        -7.2043
 105   2.0000      -0.228973        -6.2307
 106   2.0000      -0.204619        -5.5680
 107   2.0000      -0.146480        -3.9859
 108   0.0000       0.080465         2.1896
 109   0.0000       0.089613         2.4385
 110   0.0000       0.099706         2.7131
 111   0.0000       0.103535         2.8173
 112   0.0000       0.105713         2.8766

MULLIKEN ATOMIC CHARGES
-----------------------
   0 C :    1.127225
   1 N :    0.338912
   2 C :    0.206000
   3 N :   -0.182164
   4 C :    1.935039
   5 C :   -0.725066
   6 H :    0.467231
   7 O :   -1.187426
   8 C :    0.408953
   9 H :   -0.330091
  10 O :   -1.139884
  11 O :   -0.439044
  12 N :   -1.650841
  13 C :    1.926274
  14 C :    0.363731
  15 N :   -0.448857
  16 C :    1.655505
  17 C :    2.969893
  18 C :   -1.138631
  19 C :   -0.502361
  20 C :    0.884324
  21 C :    0.230921
  22 C :   -0.585586
  23 N :    0.209793
  24 C :   -0.077424
  25 N :   -0.618636
  26 O :   -0.970522
  27 O :   -1.177360
  28 C :   -1.175709
  29 H :    0.225042
  30 H :    0.247720
  31 H :    0.308233
  32 C :   -1.044632
  33 H :    0.273304
  34 H :    0.275817
  35 H :    0.227460
  36 C :   -1.317355
  37 H :    0.436784
  38 H :    0.347310
  39 H :    0.305057
  40 H :    0.090597
  41 H :    0.068206
  42 H :   -0.447260
  43 H :    0.050397
  44 H :   -0.145522
  45 O :   -1.435466
  46 H :    0.160109
Sum of atomic charges:   -1.0000000

LOEWDIN ATOMIC CHARGES
----------------------
   0 C :   -0.719039
   1 N :    0.549482
   2 C :   -0.814379
   3 N :    0.571670
   4 C :   -0.254816
   5 C :    0.212729
   6 H :   -0.205709
   7 O :    0.431932
   8 C :   -0.780295
   9 H :   -0.402286
  10 O :    0.468126
  11 O :    0.859933
  12 N :    0.481193
  13 C :   -0.228497
  14 C :   -0.387497
  15 N :    0.289978
  16 C :   -0.173239
  17 C :   -0.219668
  18 C :    0.239647
  19 C :    0.254767
  20 C :   -0.087026
  21 C :   -0.101408
  22 C :   -0.693944
  23 N :    0.534460
  24 C :   -0.898347
  25 N :    0.390812
  26 O :    0.382654
  27 O :    0.438619
  28 C :    0.572070
  29 H :   -0.174636
  30 H :   -0.172102
  31 H :   -0.177764
  32 C :    0.586051
  33 H :   -0.165909
  34 H :   -0.159911
  35 H :   -0.174808
  36 C :    0.508310
  37 H :   -0.169658
  38 H :   -0.218541
  39 H :   -0.155434
  40 H :   -0.285180
  41 H :   -0.150334
  42 H :   -0.197302
  43 H :   -0.283700
  44 H :   -0.285649
  45 O :    0.420095
  46 H :   -0.455446

  Mayer bond orders larger than 0.100000
B(  0-C ,  1-N ) :   0.9249 B(  0-C ,  2-C ) :  -0.5198 B(  0-C ,  3-N ) :  -0.1421
B(  0-C ,  4-C ) :   0.5191 B(  0-C ,  5-C ) :   0.4288 B(  0-C , 19-C ) :  -0.1148
B(  0-C , 43-H ) :  -0.1096 B(  0-C , 45-O ) :   0.3727 B(  1-N ,  2-C ) :   0.9265
B(  1-N ,  3-N ) :  -0.2785 B(  1-N ,  4-C ) :   0.1016 B(  1-N ,  5-C ) :  -0.1422
B(  1-N ,  7-O ) :  -0.1277 B(  1-N , 19-C ) :   0.1603 B(  1-N , 43-H ) :   0.9427
B(  2-C ,  3-N ) :   1.2858 B(  2-C ,  4-C ) :  -0.5834 B(  2-C ,  5-C ) :   0.2224
B(  2-C ,  7-O ) :   1.1378 B(  2-C , 16-C ) :  -0.1589 B(  2-C , 17-C ) :   0.1449
B(  3-N ,  4-C ) :   0.1474 B(  3-N ,  5-C ) :   0.1876 B(  3-N ,  7-O ) :  -0.2090
B(  3-N ,  8-C ) :   0.2445 B(  3-N , 44-H ) :   1.2078 B(  4-C ,  5-C ) :   0.7950
B(  4-C ,  7-O ) :   0.1092 B(  4-C ,  8-C ) :  -0.3046 B(  4-C ,  9-H ) :   0.3707
B(  4-C , 10-O ) :  -0.2246 B(  4-C , 11-O ) :  -0.1868 B(  4-C , 12-N ) :  -0.1323
B(  4-C , 14-C ) :   0.1262 B(  4-C , 15-N ) :   0.1140 B(  4-C , 16-C ) :  -0.2127
B(  4-C , 17-C ) :   0.1154 B(  4-C , 18-C ) :   0.1295 B(  4-C , 19-C ) :  -0.1934
B(  4-C , 27-O ) :  -0.1740 B(  4-C , 44-H ) :  -0.1084 B(  5-C ,  6-H ) :   0.6777
B(  5-C ,  8-C ) :  -0.2106 B(  5-C ,  9-H ) :   0.2767 B(  5-C , 12-N ) :   0.3466
B(  5-C , 13-C ) :  -0.1885 B(  5-C , 14-C ) :   0.2226 B(  5-C , 15-N ) :   0.1015
B(  5-C , 19-C ) :   0.1434 B(  5-C , 45-O ) :   0.1062 B(  7-O , 17-C ) :   0.1109
B(  7-O , 18-C ) :   0.1202 B(  7-O , 21-C ) :  -0.2352 B(  8-C ,  9-H ) :   0.1956
B(  8-C , 10-O ) :   0.7708 B(  8-C , 11-O ) :   0.9784 B(  9-H , 10-O ) :   0.1542
B(  9-H , 12-N ) :   0.7753 B(  9-H , 13-C ) :   0.1720 B(  9-H , 14-C ) :   0.1175
B(  9-H , 22-C ) :   0.2226 B( 11-O , 46-H ) :   1.0155 B( 12-N , 13-C ) :   0.4486
B( 12-N , 14-C ) :   0.7275 B( 12-N , 15-N ) :  -0.2574 B( 12-N , 16-C ) :   0.4210
B( 12-N , 17-C ) :  -2.2040 B( 12-N , 22-C ) :   0.3840 B( 12-N , 23-N ) :   0.1170
B( 13-C , 14-C ) :   0.6084 B( 13-C , 15-N ) :   0.3677 B( 13-C , 16-C ) :  -0.2347
B( 13-C , 17-C ) :   0.1936 B( 13-C , 18-C ) :   0.3091 B( 13-C , 20-C ) :   0.3817
B( 13-C , 22-C ) :  -1.2045 B( 13-C , 23-N ) :  -0.8772 B( 13-C , 24-C ) :  -0.5617
B( 13-C , 25-N ) :  -0.3912 B( 14-C , 15-N ) :   0.4932 B( 14-C , 16-C ) :  -0.3072
B( 14-C , 17-C ) :  -0.6725 B( 14-C , 19-C ) :   0.2722 B( 14-C , 20-C ) :  -0.3304
B( 14-C , 22-C ) :   0.5075 B( 14-C , 23-N ) :   0.1503 B( 14-C , 24-C ) :  -0.2749
B( 14-C , 25-N ) :  -0.3255 B( 14-C , 27-O ) :   0.1017 B( 14-C , 36-C ) :   0.1021
B( 14-C , 42-H ) :   0.1353 B( 15-N , 16-C ) :  -0.4391 B( 15-N , 17-C ) :  -0.6497
B( 15-N , 18-C ) :   0.2976 B( 15-N , 19-C ) :  -0.4397 B( 15-N , 36-C ) :   1.5039
B( 15-N , 45-O ) :   0.1241 B( 16-C , 17-C ) :   1.5152 B( 16-C , 18-C ) :  -0.4153
B( 16-C , 19-C ) :   0.1741 B( 16-C , 20-C ) :   0.7636 B( 16-C , 21-C ) :  -0.1771
B( 16-C , 22-C ) :   0.3786 B( 16-C , 25-N ) :   0.3698 B( 16-C , 27-O ) :  -0.1177
B( 16-C , 32-C ) :  -0.2835 B( 16-C , 36-C ) :  -0.5858 B( 16-C , 42-H ) :  -0.3720
B( 16-C , 45-O ) :  -0.2968 B( 17-C , 18-C ) :   0.9111 B( 17-C , 19-C ) :  -0.8225
B( 17-C , 20-C ) :  -0.3008 B( 17-C , 21-C ) :   0.1215 B( 17-C , 22-C ) :  -0.5149
B( 17-C , 25-N ) :  -0.1323 B( 17-C , 28-C ) :  -0.2781 B( 17-C , 30-H ) :  -0.1054
B( 17-C , 36-C ) :  -0.1740 B( 17-C , 41-H ) :   0.1189 B( 18-C , 19-C ) :   0.1481
B( 18-C , 20-C ) :  -0.4191 B( 18-C , 21-C ) :   1.3112 B( 18-C , 22-C ) :  -0.2636
B( 18-C , 28-C ) :  -0.2851 B( 18-C , 30-H ) :  -0.1017 B( 18-C , 32-C ) :   0.2106
B( 18-C , 41-H ) :   1.4491 B( 19-C , 20-C ) :   1.3839 B( 19-C , 21-C ) :   0.1165
B( 19-C , 28-C ) :   0.1287 B( 19-C , 32-C ) :  -0.4570 B( 19-C , 34-H ) :  -0.1143
B( 19-C , 35-H ) :  -0.1658 B( 19-C , 42-H ) :   2.1210 B( 19-C , 45-O ) :   0.1443
B( 20-C , 21-C ) :   0.6732 B( 20-C , 28-C ) :   0.6453 B( 20-C , 30-H ) :   0.1564
B( 20-C , 31-H ) :   0.1244 B( 20-C , 33-H ) :  -0.2100 B( 20-C , 34-H ) :  -0.1559
B( 20-C , 36-C ) :   0.1547 B( 20-C , 42-H ) :  -0.3889 B( 20-C , 45-O ) :   0.1296
B( 21-C , 28-C ) :   0.2955 B( 21-C , 29-H ) :  -0.1719 B( 21-C , 31-H ) :  -0.1590
B( 21-C , 32-C ) :   0.6342 B( 21-C , 34-H ) :   0.1076 B( 21-C , 35-H ) :   0.1760
B( 21-C , 41-H ) :  -0.2722 B( 21-C , 42-H ) :   0.1001 B( 22-C , 23-N ) :   1.3804
B( 22-C , 24-C ) :  -0.1656 B( 22-C , 25-N ) :   0.2283 B( 22-C , 27-O ) :   0.6632
B( 23-N , 24-C ) :   1.0260 B( 23-N , 26-O ) :  -0.2110 B( 23-N , 27-O ) :  -0.2388
B( 23-N , 40-H ) :   1.0628 B( 24-C , 25-N ) :   1.3160 B( 24-C , 26-O ) :   1.4018
B( 25-N , 26-O ) :  -0.3136 B( 25-N , 36-C ) :  -0.1820 B( 25-N , 38-H ) :   0.1235
B( 28-C , 29-H ) :   1.0944 B( 28-C , 30-H ) :   1.0160 B( 28-C , 31-H ) :   1.0718
B( 32-C , 33-H ) :   1.0778 B( 32-C , 34-H ) :   1.0672 B( 32-C , 35-H ) :   1.0422
B( 36-C , 37-H ) :   0.8944 B( 36-C , 38-H ) :   0.8478 B( 36-C , 39-H ) :   1.0302
B( 36-C , 42-H ) :  -0.1817

MP2 TOTAL ENERGY:    -1473.639158553 Eh
FINAL SINGLE POINT ENERGY     -1473.639158552819

DIPOLE MOMENT
-------------
                                X             Y             Z
Electronic contribution:     21.93888       9.02182       0.87868
Nuclear contribution   :    -24.69841      -9.57583      -2.09640
                        -----------------------------------------
Total Dipole Moment    :     -2.75952      -0.55401      -1.21772
                        -----------------------------------------
Magnitude (a.u.)       :      3.06671
Magnitude (Debye)      :      7.79496

Rotational constants in cm-1:     0.008230     0.005201     0.004106
Rotational constants in MHz :   246.734347   155.924526   123.089471

                             ****ORCA TERMINATED NORMALLY****
TOTAL RUN TIME: 0 days 2 hours 51 minutes 25 seconds 826 msec
