                         Program Version 4.2.1 -  RELEASE  -
|  1> %pal
|  2>  nprocs 32
|  3> end
|  4> !RI-MP2 aug-cc-pVTZ aug-cc-pVTZ/C TightSCF
|  5> %maxcore 4500
|  6> *xyzfile 0 1  04_34R1.xyz
|  7>
|  8>
|  9>                          ****END OF INPUT****

CARTESIAN COORDINATES (ANGSTROEM)
---------------------------------
  H      2.678927    0.770316   -0.000135
  O      2.294480   -0.110390   -0.000149
  C      0.933382   -0.025002   -0.000060
  C      0.263252    1.191959   -0.000035
  C     -1.125183    1.212599    0.000055
  C     -1.847008    0.028519    0.000117
  C     -1.165541   -1.183312    0.000091
  C      0.219056   -1.216941    0.000004
  H      0.762898   -2.152825   -0.000016
  H     -1.641865    2.164822    0.000075
  H      0.824467    2.120922   -0.000087
  H     -2.929281    0.047838    0.000186
  H     -1.718726   -2.114887    0.000139

 Total Charge           Charge          ....    0
 Multiplicity           Mult            ....    1
 Number of Electrons    NEL             ....   50
 Basis Dimension        Dim             ....  460

ORBITAL ENERGIES
----------------

  NO   OCC          E(Eh)            E(eV)
   0   2.0000     -20.591672      -560.3279
   1   2.0000     -11.302795      -307.5647
   2   2.0000     -11.241638      -305.9005
   3   2.0000     -11.239728      -305.8485
   4   2.0000     -11.233303      -305.6737
   5   2.0000     -11.227304      -305.5105
   6   2.0000     -11.226242      -305.4816
   7   2.0000      -1.408391       -38.3243
   8   2.0000      -1.151653       -31.3381
   9   2.0000      -1.022903       -27.8346
  10   2.0000      -1.007764       -27.4226
  11   2.0000      -0.849285       -23.1102
  12   2.0000      -0.825205       -22.4550
  13   2.0000      -0.736722       -20.0472
  14   2.0000      -0.686919       -18.6920
  15   2.0000      -0.653980       -17.7957
  16   2.0000      -0.611566       -16.6416
  17   2.0000      -0.593169       -16.1409
  18   2.0000      -0.592732       -16.1290
  19   2.0000      -0.569878       -15.5072
  20   2.0000      -0.517952       -14.0942
  21   2.0000      -0.494760       -13.4631
  22   2.0000      -0.486210       -13.2304
  23   2.0000      -0.344659        -9.3787
  24   2.0000      -0.317221        -8.6320
  25   0.0000       0.026664         0.7256
  26   0.0000       0.032948         0.8966
  27   0.0000       0.036205         0.9852
  28   0.0000       0.047492         1.2923
  29   0.0000       0.050328         1.3695

MULLIKEN ATOMIC CHARGES
-----------------------
   0 H :    0.140370
   1 O :   -0.745705
   2 C :    0.901868
   3 C :   -0.733579
   4 C :   -0.323187
   5 C :   -0.528033
   6 C :   -0.265962
   7 C :   -0.989722
   8 H :    0.682783
   9 H :    0.323265
  10 H :    0.638796
  11 H :    0.539797
  12 H :    0.359309
Sum of atomic charges:    0.0000000

LOEWDIN ATOMIC CHARGES
----------------------
   0 H :   -0.482590
   1 O :    0.839376
   2 C :   -0.387907
   3 C :    0.204567
   4 C :    0.178490
   5 C :    0.182461
   6 C :    0.180617
   7 C :    0.205028
   8 H :   -0.182289
   9 H :   -0.181003
  10 H :   -0.185013
  11 H :   -0.191307
  12 H :   -0.180429

  Mayer bond orders larger than 0.100000
B(  0-H ,  1-O ) :   1.0623 B(  1-O ,  2-C ) :   0.7000 B(  1-O ,  3-C ) :  -0.1646
B(  2-C ,  3-C ) :   1.0018 B(  2-C ,  4-C ) :  -0.1636 B(  2-C ,  6-C ) :  -0.3020
B(  2-C ,  7-C ) :   0.8969 B(  3-C ,  4-C ) :   1.1854 B(  3-C ,  5-C ) :   0.2459
B(  3-C ,  7-C ) :   0.5714 B(  3-C , 10-H ) :   0.3624 B(  4-C ,  5-C ) :   1.0661
B(  4-C ,  6-C ) :  -0.1622 B(  4-C ,  9-H ) :   0.9802 B(  4-C , 10-H ) :   0.1160
B(  5-C ,  6-C ) :   1.1093 B(  5-C ,  7-C ) :   0.3799 B(  5-C , 11-H ) :   0.6427
B(  5-C , 12-H ) :  -0.1059 B(  6-C ,  7-C ) :   1.1931 B(  6-C , 12-H ) :   0.9575
B(  7-C ,  8-H ) :   0.2590 B(  7-C , 10-H ) :  -0.1441

MP2 TOTAL ENERGY:     -306.876338048 Eh
FINAL SINGLE POINT ENERGY      -306.876338048163

DIPOLE MOMENT
-------------
                                X             Y             Z
Electronic contribution:      1.92223      -0.30472      -0.00013
Nuclear contribution   :     -1.98299       0.83259       0.00016
                        -----------------------------------------
Total Dipole Moment    :     -0.06076       0.52787       0.00003
                        -----------------------------------------
Magnitude (a.u.)       :      0.53135
Magnitude (Debye)      :      1.35059

Rotational constants in cm-1:     0.190410     0.088052     0.060209
Rotational constants in MHz :  5708.341433  2639.743150  1805.031447

                             ****ORCA TERMINATED NORMALLY****
TOTAL RUN TIME: 0 days 0 hours 1 minutes 27 seconds 149 msec
