                         Program Version 4.2.1 -  RELEASE  -
|  1> %pal
|  2>  nprocs 32
|  3> end
|  4> !RI-MP2 aug-cc-pVTZ aug-cc-pVTZ/C TightSCF
|  5> %maxcore 4500
|  6> *xyzfile 0 1  04_13P2.xyz
|  7>
|  8>
|  9>                          ****END OF INPUT****

CARTESIAN COORDINATES (ANGSTROEM)
---------------------------------
  O      0.886175   -0.574895    0.000000
  N      0.000000    0.509287    0.000000
  O     -1.105982    0.148791    0.000000
  H      1.758452   -0.156181    0.000000

 Total Charge           Charge          ....    0
 Multiplicity           Mult            ....    1
 Number of Electrons    NEL             ....   24
 Basis Dimension        Dim             ....  161

ORBITAL ENERGIES
----------------

  NO   OCC          E(Eh)            E(eV)
   0   2.0000     -20.659336      -562.1691
   1   2.0000     -20.642876      -561.7212
   2   2.0000     -15.792650      -429.7399
   3   2.0000      -1.615110       -43.9494
   4   2.0000      -1.411287       -38.4031
   5   2.0000      -0.947344       -25.7785
   6   2.0000      -0.792923       -21.5765
   7   2.0000      -0.733769       -19.9669
   8   2.0000      -0.689750       -18.7690
   9   2.0000      -0.624139       -16.9837
  10   2.0000      -0.529472       -14.4077
  11   2.0000      -0.458272       -12.4702
  12   0.0000       0.027580         0.7505
  13   0.0000       0.088297         2.4027
  14   0.0000       0.094450         2.5701
  15   0.0000       0.098022         2.6673
  16   0.0000       0.128930         3.5084

MULLIKEN ATOMIC CHARGES
-----------------------
   0 O :   -0.327008
   1 N :    0.336668
   2 O :   -0.285659
   3 H :    0.275999
Sum of atomic charges:    0.0000000

LOEWDIN ATOMIC CHARGES
----------------------
   0 O :    0.612148
   1 N :   -0.297523
   2 O :    0.241487
   3 H :   -0.556113

  Mayer bond orders larger than 0.100000
B(  0-O ,  1-N ) :   0.9274 B(  0-O ,  3-H ) :   0.9663 B(  1-N ,  2-O ) :   1.6309

MP2 TOTAL ENERGY:     -205.420575950 Eh
FINAL SINGLE POINT ENERGY      -205.420575949848

DIPOLE MOMENT
-------------
                                X             Y             Z
Electronic contribution:     -0.81315       0.45128      -0.00000
Nuclear contribution   :      1.68260      -0.15331       0.00000
                        -----------------------------------------
Total Dipole Moment    :      0.86945       0.29796      -0.00000
                        -----------------------------------------
Magnitude (a.u.)       :      0.91909
Magnitude (Debye)      :      2.33613

Rotational constants in cm-1:     3.228890     0.429337     0.378949
Rotational constants in MHz : 96799.674023 12871.201887 11360.610888

                             ****ORCA TERMINATED NORMALLY****
TOTAL RUN TIME: 0 days 0 hours 0 minutes 11 seconds 577 msec
