                         Program Version 4.2.1 -  RELEASE  -
|  1> %pal
|  2>  nprocs 32
|  3> end
|  4> !RI-MP2 aug-cc-pVTZ aug-cc-pVTZ/C TightSCF
|  5> %maxcore 4500
|  6> *xyzfile 0 1  02_18R.xyz
|  7>
|  8>
|  9>                          ****END OF INPUT****

CARTESIAN COORDINATES (ANGSTROEM)
---------------------------------
  C      2.683206   -0.471587   -0.207115
  C      1.452023   -1.320729   -0.280933
  C     -1.396555    1.699775   -0.139172
  C      2.354714    0.938480   -0.717364
  H      3.039935   -0.397024    0.828609
  C      1.117528    1.572835   -0.058302
  H      3.229508    1.567497   -0.545609
  H      2.216088    0.885905   -1.800126
  C     -0.144176    1.421783   -0.908965
  H      0.949617    1.104135    0.920987
  C      0.632596   -1.639929    0.727819
  C     -0.750299   -1.962053    0.370734
  C     -2.543144    1.017985   -0.153120
  C     -1.796273   -1.795153    1.176305
  C      0.965724   -1.469917    2.183409
  H      0.463623   -0.596109    2.609403
  H      0.628185   -2.341344    2.749092
  H      2.034820   -1.357204    2.349920
  H     -0.058411    2.144272   -1.728173
  H     -0.178429    0.439410   -1.369963
  C     -3.210709   -1.731460    0.680254
  H     -3.810143   -1.099765    1.336476
  H     -3.685517   -2.714029    0.659784
  C     -2.725931   -0.126377   -1.105077
  O      3.733979   -0.957313   -1.022025
  O      1.287930    2.968569    0.153584
  O     -2.434788   -0.049332   -2.266676
  O     -3.305798   -1.281271   -0.676899
  C      4.283341   -2.171876   -0.564466
  H      5.073917   -2.448133   -1.260200
  H      4.713639   -2.058124    0.439268
  H      3.532905   -2.969920   -0.536158
  C      2.083050    3.288703    1.268078
  H      1.646320    2.889283    2.193166
  H      3.106066    2.905271    1.172495
  H      2.124368    4.375029    1.334113
  C     -3.729058    1.446462    0.677556
  H     -4.667201    1.307431    0.136185
  H     -3.639681    2.504115    0.925977
  H     -3.808453    0.897552    1.618559
  H      1.109038   -1.502029   -1.297265
  H     -0.930246   -2.147817   -0.684078
  H     -1.655406   -1.582396    2.230636
  H     -1.341355    2.567117    0.515200

 Total Charge           Charge          ....    0
 Multiplicity           Mult            ....    1
 Number of Electrons    NEL             ....  152
 Basis Dimension        Dim             .... 1472

ORBITAL ENERGIES
----------------

  NO   OCC          E(Eh)            E(eV)
   0   2.0000     -20.591925      -560.3348
   1   2.0000     -20.559562      -559.4541
   2   2.0000     -20.558568      -559.4271
   3   2.0000     -20.534814      -558.7807
   4   2.0000     -11.374628      -309.5194
   5   2.0000     -11.302632      -307.5603
   6   2.0000     -11.290370      -307.2266
   7   2.0000     -11.284714      -307.0727
   8   2.0000     -11.274710      -306.8005
   9   2.0000     -11.270803      -306.6941
  10   2.0000     -11.251760      -306.1760
  11   2.0000     -11.246491      -306.0326
  12   2.0000     -11.243508      -305.9514
  13   2.0000     -11.242831      -305.9330
  14   2.0000     -11.240607      -305.8725
  15   2.0000     -11.235860      -305.7433
  16   2.0000     -11.235227      -305.7261
  17   2.0000     -11.232900      -305.6628
  18   2.0000     -11.223512      -305.4073
  19   2.0000     -11.222448      -305.3783
  20   2.0000      -1.449521       -39.4435
  21   2.0000      -1.382585       -37.6221
  22   2.0000      -1.380066       -37.5535
  23   2.0000      -1.355621       -36.8883
  24   2.0000      -1.137603       -30.9557
  25   2.0000      -1.112161       -30.2634
  26   2.0000      -1.082000       -29.4427
  27   2.0000      -1.052925       -28.6515
  28   2.0000      -1.017599       -27.6903
  29   2.0000      -0.964970       -26.2582
  30   2.0000      -0.960923       -26.1480
  31   2.0000      -0.947201       -25.7746
  32   2.0000      -0.922842       -25.1118
  33   2.0000      -0.903684       -24.5905
  34   2.0000      -0.858975       -23.3739
  35   2.0000      -0.850402       -23.1406
  36   2.0000      -0.802805       -21.8454
  37   2.0000      -0.782052       -21.2807
  38   2.0000      -0.750653       -20.4263
  39   2.0000      -0.718855       -19.5610
  40   2.0000      -0.702151       -19.1065
  41   2.0000      -0.683002       -18.5854
  42   2.0000      -0.673852       -18.3364
  43   2.0000      -0.668182       -18.1822
  44   2.0000      -0.659525       -17.9466
  45   2.0000      -0.658584       -17.9210
  46   2.0000      -0.649684       -17.6788
  47   2.0000      -0.632543       -17.2124
  48   2.0000      -0.627862       -17.0850
  49   2.0000      -0.617110       -16.7924
  50   2.0000      -0.608177       -16.5493
  51   2.0000      -0.602011       -16.3816
  52   2.0000      -0.598421       -16.2839
  53   2.0000      -0.587989       -16.0000
  54   2.0000      -0.580987       -15.8095
  55   2.0000      -0.569196       -15.4886
  56   2.0000      -0.558965       -15.2102
  57   2.0000      -0.552418       -15.0321
  58   2.0000      -0.548815       -14.9340
  59   2.0000      -0.537514       -14.6265
  60   2.0000      -0.533427       -14.5153
  61   2.0000      -0.525499       -14.2996
  62   2.0000      -0.521829       -14.1997
  63   2.0000      -0.508559       -13.8386
  64   2.0000      -0.496649       -13.5145
  65   2.0000      -0.496170       -13.5015
  66   2.0000      -0.489295       -13.3144
  67   2.0000      -0.479239       -13.0408
  68   2.0000      -0.464536       -12.6407
  69   2.0000      -0.454426       -12.3656
  70   2.0000      -0.440669       -11.9912
  71   2.0000      -0.429788       -11.6951
  72   2.0000      -0.424333       -11.5467
  73   2.0000      -0.416491       -11.3333
  74   2.0000      -0.360981        -9.8228
  75   2.0000      -0.318187        -8.6583
  76   0.0000       0.017973         0.4891
  77   0.0000       0.026153         0.7117
  78   0.0000       0.028189         0.7671
  79   0.0000       0.034224         0.9313
  80   0.0000       0.038169         1.0386

MULLIKEN ATOMIC CHARGES
-----------------------
   0 C :    1.286903
   1 C :   -1.265163
   2 C :   -1.221627
   3 C :   -0.873223
   4 H :    0.434332
   5 C :    1.163650
   6 H :    0.199968
   7 H :    0.020035
   8 C :   -0.057017
   9 H :    0.457174
  10 C :    1.426428
  11 C :   -0.353052
  12 C :    1.440332
  13 C :   -0.558169
  14 C :   -0.896234
  15 H :    0.233646
  16 H :    0.087721
  17 H :    0.349995
  18 H :    0.308420
  19 H :    0.124941
  20 C :   -0.035045
  21 H :    0.336655
  22 H :    0.462444
  23 C :    1.172372
  24 O :   -0.943781
  25 O :   -1.014300
  26 O :   -1.164543
  27 O :   -0.661057
  28 C :   -1.069733
  29 H :    0.350858
  30 H :    0.323026
  31 H :    0.393929
  32 C :   -1.131737
  33 H :    0.337810
  34 H :    0.354256
  35 H :    0.370948
  36 C :   -1.123191
  37 H :    0.270321
  38 H :    0.245890
  39 H :    0.253545
  40 H :   -0.201357
  41 H :    0.175312
  42 H :    0.131081
  43 H :   -0.142760
Sum of atomic charges:   -0.0000000

LOEWDIN ATOMIC CHARGES
----------------------
   0 C :   -0.282226
   1 C :    0.225363
   2 C :    0.262536
   3 C :    0.329926
   4 H :   -0.159772
   5 C :   -0.256654
   6 H :   -0.158340
   7 H :   -0.134847
   8 C :    0.284738
   9 H :   -0.169120
  10 C :   -0.100492
  11 C :    0.203630
  12 C :   -0.098054
  13 C :    0.237235
  14 C :    0.576373
  15 H :   -0.161412
  16 H :   -0.157502
  17 H :   -0.182217
  18 H :   -0.123126
  19 H :   -0.210345
  20 C :    0.055486
  21 H :   -0.199006
  22 H :   -0.151817
  23 C :   -0.825320
  24 O :    0.581025
  25 O :    0.588397
  26 O :    0.477619
  27 O :    0.586319
  28 C :    0.327764
  29 H :   -0.182536
  30 H :   -0.171400
  31 H :   -0.179196
  32 C :    0.326883
  33 H :   -0.171214
  34 H :   -0.180938
  35 H :   -0.179613
  36 C :    0.572143
  37 H :   -0.157827
  38 H :   -0.170294
  39 H :   -0.189744
  40 H :   -0.158186
  41 H :   -0.180208
  42 H :   -0.182133
  43 H :   -0.161900

  Mayer bond orders larger than 0.100000
B(  0-C ,  1-C ) :   0.8859 B(  0-C ,  3-C ) :   0.7206 B(  0-C ,  4-H ) :   1.0103
B(  0-C ,  5-C ) :   0.1422 B(  0-C , 24-O ) :  -0.3795 B(  0-C , 28-C ) :  -0.2332
B(  1-C ,  3-C ) :   0.1414 B(  1-C , 10-C ) :   0.9467 B(  1-C , 13-C ) :   0.1412
B(  1-C , 23-C ) :   0.1027 B(  1-C , 24-O ) :   0.3374 B(  1-C , 40-H ) :   2.1519
B(  2-C ,  8-C ) :   0.8577 B(  2-C , 11-C ) :   0.1500 B(  2-C , 12-C ) :   1.0918
B(  2-C , 18-H ) :  -0.2143 B(  2-C , 19-H ) :   0.3925 B(  2-C , 23-C ) :   0.3273
B(  2-C , 26-O ) :   0.2191 B(  2-C , 36-C ) :  -0.1262 B(  2-C , 40-H ) :  -0.2129
B(  2-C , 41-H ) :   0.1447 B(  2-C , 43-H ) :   1.7288 B(  3-C ,  5-C ) :   0.8433
B(  3-C ,  6-H ) :   0.9865 B(  3-C ,  7-H ) :   1.2334 B(  3-C , 24-O ) :   0.1841
B(  3-C , 25-O ) :   0.2953 B(  4-H , 24-O ) :  -0.2436 B(  5-C ,  8-C ) :   0.8724
B(  5-C ,  9-H ) :   0.9335 B(  5-C , 12-C ) :   0.1424 B(  5-C , 25-O ) :  -0.4163
B(  5-C , 32-C ) :  -0.3272 B(  8-C , 11-C ) :   0.1421 B(  8-C , 12-C ) :  -0.1090
B(  8-C , 18-H ) :   0.9361 B(  8-C , 19-H ) :   1.1221 B(  8-C , 23-C ) :  -0.1040
B(  8-C , 40-H ) :  -0.1359 B(  9-H , 25-O ) :  -0.1456 B( 10-C , 11-C ) :   0.4634
B( 10-C , 14-C ) :   0.3986 B( 10-C , 16-H ) :  -0.1132 B( 10-C , 40-H ) :  -0.3115
B( 10-C , 41-H ) :  -0.1137 B( 11-C , 12-C ) :  -0.1108 B( 11-C , 13-C ) :   1.2171
B( 11-C , 14-C ) :   0.1257 B( 11-C , 23-C ) :  -0.1141 B( 11-C , 41-H ) :   1.0374
B( 11-C , 42-H ) :  -0.1687 B( 12-C , 18-H ) :   0.1059 B( 12-C , 19-H ) :  -0.1169
B( 12-C , 23-C ) :   0.6404 B( 12-C , 27-O ) :  -0.1034 B( 12-C , 36-C ) :   0.4593
B( 12-C , 40-H ) :   0.2312 B( 12-C , 43-H ) :  -0.2035 B( 13-C , 14-C ) :  -0.1009
B( 13-C , 20-C ) :   0.6664 B( 13-C , 22-H ) :  -0.2894 B( 13-C , 27-O ) :   0.1609
B( 13-C , 41-H ) :   0.1029 B( 13-C , 42-H ) :   1.2708 B( 14-C , 15-H ) :   1.1428
B( 14-C , 16-H ) :   1.2682 B( 14-C , 17-H ) :   0.8862 B( 14-C , 42-H ) :  -0.1147
B( 20-C , 21-H ) :   0.9534 B( 20-C , 22-H ) :   0.9181 B( 20-C , 27-O ) :   0.7061
B( 23-C , 26-O ) :   0.5944 B( 23-C , 27-O ) :   0.9864 B( 23-C , 40-H ) :   0.1381
B( 24-O , 28-C ) :   1.2109 B( 24-O , 40-H ) :   0.1161 B( 25-O , 32-C ) :   1.2872
B( 26-O , 27-O ) :  -0.1469 B( 28-C , 29-H ) :   0.9709 B( 28-C , 30-H ) :   0.9025
B( 28-C , 31-H ) :   0.8579 B( 32-C , 33-H ) :   0.8714 B( 32-C , 34-H ) :   0.8805
B( 32-C , 35-H ) :   0.9612 B( 36-C , 37-H ) :   1.0807 B( 36-C , 38-H ) :   1.0550
B( 36-C , 39-H ) :   1.0376 B( 40-H , 41-H ) :  -0.1472

MP2 TOTAL ENERGY:     -923.218208475 Eh
FINAL SINGLE POINT ENERGY      -923.218208475008

DIPOLE MOMENT
-------------
                                X             Y             Z
Electronic contribution:     -9.91483      -2.57978     -10.52959
Nuclear contribution   :     10.26536       2.42724      12.97006
                        -----------------------------------------
Total Dipole Moment    :      0.35054      -0.15253       2.44047
                        -----------------------------------------
Magnitude (a.u.)       :      2.47023
Magnitude (Debye)      :      6.27881

Rotational constants in cm-1:     0.015016     0.008306     0.006648
Rotational constants in MHz :   450.160279   249.000193   199.287679

                             ****ORCA TERMINATED NORMALLY****
TOTAL RUN TIME: 0 days 1 hours 13 minutes 39 seconds 301 msec
