                         Program Version 4.2.1 -  RELEASE  -
|  1> %pal
|  2>  nprocs 32
|  3> end
|  4> !RI-MP2 aug-cc-pVTZ aug-cc-pVTZ/C TightSCF
|  5> %maxcore 4500
|  6> *xyzfile 0 2  04_11P1.xyz
|  7>
|  8>
|  9>                          ****END OF INPUT****

CARTESIAN COORDINATES (ANGSTROEM)
---------------------------------
  N     -1.031915   -0.902207    0.201499
  H     -0.710681   -1.800655    0.542474
  C     -0.002514    0.001219   -0.245476
  H     -0.150080    0.248231   -1.302058
  C     -0.047378    1.323644    0.544035
  C      1.338158   -0.721317   -0.094621
  H     -1.045045    1.777974    0.376284
  H     -0.000928    1.150953    1.632578
  O      1.396330   -1.852606    0.348391
  N      2.414717   -0.017900   -0.499317
  H      2.331902    0.957854   -0.744491
  H      3.326123   -0.424599   -0.360459
  C     -2.341901   -0.645646    0.008819
  H     -2.998265   -1.465176    0.341735
  O     -2.771453    0.384298   -0.471610
  O      0.861268    2.249404    0.163482

 Total Charge           Charge          ....    0
 Multiplicity           Mult            ....    2
 Number of Electrons    NEL             ....   69
 Basis Dimension        Dim             ....  575

ORBITAL ENERGIES
----------------
                 SPIN UP ORBITALS
  NO   OCC          E(Eh)            E(eV)
   0   1.0000     -20.647974      -561.8599
   1   1.0000     -20.544763      -559.0514
   2   1.0000     -20.536196      -558.8183
   3   1.0000     -15.601056      -424.5263
   4   1.0000     -15.600712      -424.5170
   5   1.0000     -11.374386      -309.5128
   6   1.0000     -11.359765      -309.1149
   7   1.0000     -11.303694      -307.5892
   8   1.0000     -11.302213      -307.5489
   9   1.0000      -1.446072       -39.3496
  10   1.0000      -1.412455       -38.4349
  11   1.0000      -1.397020       -38.0149
  12   1.0000      -1.254852       -34.1463
  13   1.0000      -1.235546       -33.6209
  14   1.0000      -1.044036       -28.4097
  15   1.0000      -0.911739       -24.8097
  16   1.0000      -0.848622       -23.0922
  17   1.0000      -0.802005       -21.8237
  18   1.0000      -0.780433       -21.2367
  19   1.0000      -0.740612       -20.1531
  20   1.0000      -0.725254       -19.7352
  21   1.0000      -0.691317       -18.8117
  22   1.0000      -0.675449       -18.3799
  23   1.0000      -0.663622       -18.0581
  24   1.0000      -0.646113       -17.5816
  25   1.0000      -0.616191       -16.7674
  26   1.0000      -0.602034       -16.3822
  27   1.0000      -0.583342       -15.8736
  28   1.0000      -0.561215       -15.2714
  29   1.0000      -0.529180       -14.3997
  30   1.0000      -0.499823       -13.6009
  31   1.0000      -0.450413       -12.2564
  32   1.0000      -0.443510       -12.0685
  33   1.0000      -0.437199       -11.8968
  34   1.0000      -0.407845       -11.0980
  35   0.0000       0.025009         0.6805
  36   0.0000       0.031693         0.8624
  37   0.0000       0.038808         1.0560
  38   0.0000       0.042914         1.1678
  39   0.0000       0.052325         1.4238

                 SPIN DOWN ORBITALS
  NO   OCC          E(Eh)            E(eV)
   0   1.0000     -20.608495      -560.7857
   1   1.0000     -20.544612      -559.0473
   2   1.0000     -20.535902      -558.8103
   3   1.0000     -15.600923      -424.5227
   4   1.0000     -15.600788      -424.5190
   5   1.0000     -11.374452      -309.5146
   6   1.0000     -11.359823      -309.1165
   7   1.0000     -11.306477      -307.6649
   8   1.0000     -11.302171      -307.5477
   9   1.0000      -1.413241       -38.4562
  10   1.0000      -1.396602       -38.0035
  11   1.0000      -1.320076       -35.9211
  12   1.0000      -1.252641       -34.0861
  13   1.0000      -1.234116       -33.5820
  14   1.0000      -1.033941       -28.1350
  15   1.0000      -0.890495       -24.2316
  16   1.0000      -0.848455       -23.0876
  17   1.0000      -0.798737       -21.7347
  18   1.0000      -0.775052       -21.0902
  19   1.0000      -0.726537       -19.7701
  20   1.0000      -0.695120       -18.9152
  21   1.0000      -0.666761       -18.1435
  22   1.0000      -0.657680       -17.8964
  23   1.0000      -0.634073       -17.2540
  24   1.0000      -0.622866       -16.9490
  25   1.0000      -0.599596       -16.3158
  26   1.0000      -0.582118       -15.8402
  27   1.0000      -0.573749       -15.6125
  28   1.0000      -0.545365       -14.8401
  29   1.0000      -0.478913       -13.0319
  30   1.0000      -0.450114       -12.2482
  31   1.0000      -0.444174       -12.0866
  32   1.0000      -0.436698       -11.8831
  33   1.0000      -0.405849       -11.0437
  34   0.0000       0.025076         0.6824
  35   0.0000       0.031653         0.8613
  36   0.0000       0.038601         1.0504
  37   0.0000       0.042167         1.1474
  38   0.0000       0.051910         1.4125

MULLIKEN ATOMIC CHARGES AND SPIN POPULATIONS
--------------------------------------------
   0 N :   -0.242227   -0.004561
   1 H :    0.164867   -0.000567
   2 C :    0.761674    0.029223
   3 H :    0.348511   -0.002941
   4 C :   -0.131895   -0.225108
   5 C :    0.480908   -0.005200
   6 H :    0.339190    0.110775
   7 H :    0.298987    0.062683
   8 O :   -0.887539    0.003691
   9 N :   -0.395534    0.004051
  10 H :    0.161809   -0.006758
  11 H :    0.155289    0.000248
  12 C :   -0.342467   -0.001453
  13 H :    0.628048    0.000175
  14 O :   -0.744670    0.004217
  15 O :   -0.594951    1.031524
Sum of atomic charges         :   -0.0000000

LOEWDIN ATOMIC CHARGES AND SPIN POPULATIONS
-------------------------------------------
   0 N :    0.523571   -0.000849
   1 H :   -0.343935   -0.000273
   2 C :   -0.131521   -0.001728
   3 H :   -0.132185   -0.000978
   4 C :   -0.087400    0.125259
   5 C :   -0.644350   -0.000435
   6 H :   -0.190065    0.031987
   7 H :   -0.148243    0.015093
   8 O :    0.472574    0.002367
   9 N :    0.863880    0.001780
  10 H :   -0.363274    0.002676
  11 H :   -0.275568    0.000099
  12 C :   -0.355961   -0.000351
  13 H :   -0.169708   -0.000246
  14 O :    0.423827    0.005242
  15 O :    0.558356    0.820358

  Mayer bond orders larger than 0.100000
B(  0-N ,  1-H ) :   0.9823 B(  0-N ,  2-C ) :   0.5962 B(  0-N , 12-C ) :   1.3442
B(  2-C ,  3-H ) :   0.9113 B(  2-C ,  4-C ) :   0.8064 B(  2-C ,  5-C ) :   0.5562
B(  2-C ,  8-O ) :   0.2081 B(  2-C ,  9-N ) :  -0.1108 B(  2-C , 12-C ) :  -0.2146
B(  4-C ,  6-H ) :   0.8828 B(  4-C ,  7-H ) :   0.9670 B(  4-C , 15-O ) :   0.7322
B(  5-C ,  8-O ) :   1.1481 B(  5-C ,  9-N ) :   1.0684 B(  9-N , 10-H ) :   1.0335
B(  9-N , 11-H ) :   1.0250 B( 12-C , 13-H ) :   0.5198 B( 12-C , 14-O ) :   1.7206

MP2 TOTAL ENERGY:     -490.953632357 Eh
FINAL SINGLE POINT ENERGY      -490.953632357475

DIPOLE MOMENT
-------------
                                X             Y             Z
Electronic contribution:      0.01605      -0.51484      -0.29791
Nuclear contribution   :      0.74429       0.44625       0.47931
                        -----------------------------------------
Total Dipole Moment    :      0.76034      -0.06859       0.18140
                        -----------------------------------------
Magnitude (a.u.)       :      0.78468
Magnitude (Debye)      :      1.99451

Rotational constants in cm-1:     0.079181     0.042420     0.029555
Rotational constants in MHz :  2373.784167  1271.721231   886.042466

                             ****ORCA TERMINATED NORMALLY****
TOTAL RUN TIME: 0 days 0 hours 7 minutes 59 seconds 507 msec
