                         Program Version 4.2.1 -  RELEASE  -
|  1> %pal
|  2>  nprocs 32
|  3> end
|  4> !RI-MP2 aug-cc-pVTZ aug-cc-pVTZ/C TightSCF
|  5> %maxcore 4500
|  6> *xyzfile 0 1  02_36P.xyz
|  7>
|  8>
|  9>                          ****END OF INPUT****

CARTESIAN COORDINATES (ANGSTROEM)
---------------------------------
  C      0.285168   -0.804703   -1.321804
  C     -1.944056   -0.646573   -0.394941
  C      0.608100    0.572776   -0.816270
  C     -1.797509    0.709925   -0.231869
  C     -0.890623   -1.375183   -1.075875
  C     -2.902760    1.553105    0.344890
  C     -0.488910    2.771597   -0.495997
  C     -3.113143   -1.365313    0.084284
  C      1.515592    0.581818    0.435108
  H      1.753889    1.635203    0.640533
  C      0.819017    0.007000    1.672728
  H     -0.066392    0.587721    1.943162
  H      0.496697   -1.021578    1.502519
  H      1.482668    0.010725    2.540694
  N     -0.643240    1.329574   -0.585710
  Si     3.224893   -0.214913    0.159608
  C      4.390264    0.513117    1.442592
  C      3.173222   -2.077552    0.378663
  C      3.864612    0.220668   -1.554823
  H      2.834176   -2.346906    1.381685
  H      4.170872   -2.504061    0.243531
  H      2.501992   -2.559338   -0.333769
  H      4.043686    0.315493    2.459912
  H      4.484634    1.596063    1.327897
  H      5.390611    0.082515    1.349096
  H      0.469357    3.040875   -0.936679
  H     -0.496038    3.134356    0.536666
  H     -1.265891    3.293889   -1.055002
  H      3.889113    1.302929   -1.709054
  H      3.254485   -0.215072   -2.349322
  H      4.884494   -0.149956   -1.686611
  C     -4.164826   -0.562227    0.822436
  C     -4.256950    0.857869    0.287704
  O     -3.243827   -2.570381   -0.064140
  H     -2.642588    1.789098    1.385459
  H     -2.959918    2.509061   -0.175373
  H     -4.598819    0.829496   -0.751228
  H     -4.991465    1.439136    0.849526
  H     -5.111055   -1.097644    0.743613
  H     -3.886785   -0.550437    1.883447
  H      1.059053   -1.323417   -1.873872
  H     -1.113842   -2.385866   -1.393542
  H      1.138686    1.114579   -1.605669

 Total Charge           Charge          ....    0
 Multiplicity           Mult            ....    1
 Number of Electrons    NEL             ....  144
 Basis Dimension        Dim             .... 1407

ORBITAL ENERGIES
----------------

  NO   OCC          E(Eh)            E(eV)
   0   2.0000     -68.751361     -1870.8196
   1   2.0000     -20.504855      -557.9655
   2   2.0000     -15.594474      -424.3472
   3   2.0000     -11.306196      -307.6572
   4   2.0000     -11.302446      -307.5552
   5   2.0000     -11.277573      -306.8784
   6   2.0000     -11.274476      -306.7941
   7   2.0000     -11.249980      -306.1275
   8   2.0000     -11.236103      -305.7499
   9   2.0000     -11.223038      -305.3944
  10   2.0000     -11.220793      -305.3333
  11   2.0000     -11.215116      -305.1788
  12   2.0000     -11.213478      -305.1342
  13   2.0000     -11.211665      -305.0849
  14   2.0000     -11.201681      -304.8132
  15   2.0000     -11.200868      -304.7911
  16   2.0000     -11.197925      -304.7110
  17   2.0000     -11.193534      -304.5916
  18   2.0000      -6.099120      -165.9655
  19   2.0000      -4.205389      -114.4344
  20   2.0000      -4.205267      -114.4311
  21   2.0000      -4.205192      -114.4291
  22   2.0000      -1.349995       -36.7352
  23   2.0000      -1.287875       -35.0449
  24   2.0000      -1.125181       -30.6177
  25   2.0000      -1.093971       -29.7685
  26   2.0000      -1.055268       -28.7153
  27   2.0000      -1.005790       -27.3689
  28   2.0000      -0.980898       -26.6916
  29   2.0000      -0.966066       -26.2880
  30   2.0000      -0.959750       -26.1161
  31   2.0000      -0.926857       -25.2211
  32   2.0000      -0.922622       -25.1058
  33   2.0000      -0.904195       -24.6044
  34   2.0000      -0.855809       -23.2877
  35   2.0000      -0.812351       -22.1052
  36   2.0000      -0.796977       -21.6869
  37   2.0000      -0.745566       -20.2879
  38   2.0000      -0.693963       -18.8837
  39   2.0000      -0.679907       -18.5012
  40   2.0000      -0.670194       -18.2369
  41   2.0000      -0.658332       -17.9141
  42   2.0000      -0.626928       -17.0596
  43   2.0000      -0.621362       -16.9081
  44   2.0000      -0.615228       -16.7412
  45   2.0000      -0.601687       -16.3727
  46   2.0000      -0.594870       -16.1872
  47   2.0000      -0.587917       -15.9980
  48   2.0000      -0.582976       -15.8636
  49   2.0000      -0.577487       -15.7142
  50   2.0000      -0.566915       -15.4265
  51   2.0000      -0.564311       -15.3557
  52   2.0000      -0.557056       -15.1583
  53   2.0000      -0.555078       -15.1044
  54   2.0000      -0.546939       -14.8830
  55   2.0000      -0.540975       -14.7207
  56   2.0000      -0.535612       -14.5747
  57   2.0000      -0.532448       -14.4886
  58   2.0000      -0.529852       -14.4180
  59   2.0000      -0.521359       -14.1869
  60   2.0000      -0.507854       -13.8194
  61   2.0000      -0.489109       -13.3093
  62   2.0000      -0.484932       -13.1957
  63   2.0000      -0.473444       -12.8831
  64   2.0000      -0.468928       -12.7602
  65   2.0000      -0.445242       -12.1157
  66   2.0000      -0.429130       -11.6772
  67   2.0000      -0.425649       -11.5825
  68   2.0000      -0.405864       -11.0441
  69   2.0000      -0.387384       -10.5413
  70   2.0000      -0.383579       -10.4377
  71   2.0000      -0.272212        -7.4073
  72   0.0000       0.017365         0.4725
  73   0.0000       0.024378         0.6634
  74   0.0000       0.028059         0.7635
  75   0.0000       0.031209         0.8492
  76   0.0000       0.038453         1.0464

MULLIKEN ATOMIC CHARGES
-----------------------
   0 C :   -0.497169
   1 C :    1.203587
   2 C :    0.381219
   3 C :    1.307812
   4 C :   -1.546993
   5 C :   -0.543049
   6 C :   -1.269912
   7 C :    0.753432
   8 C :    0.424778
   9 H :    0.241377
  10 C :   -1.301035
  11 H :    0.321247
  12 H :    0.367416
  13 H :    0.138178
  14 N :   -0.747257
  15 Si:    2.457305
  16 C :   -1.763484
  17 C :   -1.352028
  18 C :   -1.409107
  19 H :    0.186617
  20 H :    0.112539
  21 H :    0.394723
  22 H :    0.228331
  23 H :    0.231399
  24 H :    0.201847
  25 H :    0.338842
  26 H :    0.274522
  27 H :    0.287794
  28 H :    0.181181
  29 H :    0.371406
  30 H :    0.157585
  31 C :   -0.352125
  32 C :   -0.581758
  33 O :   -1.341129
  34 H :    0.187418
  35 H :    0.397864
  36 H :    0.188055
  37 H :    0.289971
  38 H :    0.318854
  39 H :    0.204073
  40 H :    0.185964
  41 H :    0.064432
  42 H :    0.305280
Sum of atomic charges:    0.0000000

LOEWDIN ATOMIC CHARGES
----------------------
   0 C :    0.241085
   1 C :   -0.098354
   2 C :   -0.134682
   3 C :   -0.159687
   4 C :    0.211280
   5 C :    0.312111
   6 C :    0.505207
   7 C :   -0.544339
   8 C :    0.025489
   9 H :   -0.191992
  10 C :    0.546670
  11 H :   -0.166749
  12 H :   -0.165567
  13 H :   -0.164785
  14 N :    0.323068
  15 Si:    0.515477
  16 C :    0.587365
  17 C :    0.593530
  18 C :    0.589563
  19 H :   -0.223716
  20 H :   -0.224786
  21 H :   -0.234892
  22 H :   -0.229769
  23 H :   -0.226286
  24 H :   -0.226898
  25 H :   -0.162056
  26 H :   -0.138140
  27 H :   -0.160615
  28 H :   -0.222470
  29 H :   -0.232671
  30 H :   -0.224807
  31 C :    0.290415
  32 C :    0.294138
  33 O :    0.455360
  34 H :   -0.119597
  35 H :   -0.166272
  36 H :   -0.132912
  37 H :   -0.134328
  38 H :   -0.150848
  39 H :   -0.136067
  40 H :   -0.185067
  41 H :   -0.176379
  42 H :   -0.156026

  Mayer bond orders larger than 0.100000
B(  0-C ,  2-C ) :   0.5867 B(  0-C ,  3-C ) :  -0.1957 B(  0-C ,  4-C ) :   1.6617
B(  0-C , 40-H ) :   1.1458 B(  0-C , 41-H ) :  -0.1183 B(  0-C , 42-H ) :  -0.3170
B(  1-C ,  2-C ) :   0.1856 B(  1-C ,  3-C ) :   0.7538 B(  1-C ,  4-C ) :  -0.3241
B(  1-C ,  5-C ) :  -0.1487 B(  1-C ,  7-C ) :   1.3340 B(  1-C ,  8-C ) :  -0.1207
B(  1-C , 14-N ) :  -0.5874 B(  1-C , 31-C ) :   0.1173 B(  1-C , 33-O ) :   0.2248
B(  1-C , 40-H ) :   0.1480 B(  1-C , 41-H ) :  -0.2658 B(  1-C , 42-H ) :   0.2582
B(  2-C ,  3-C ) :   0.2071 B(  2-C ,  4-C ) :   0.1895 B(  2-C ,  6-C ) :  -0.1296
B(  2-C ,  8-C ) :   0.9510 B(  2-C , 10-C ) :   0.2204 B(  2-C , 14-N ) :   0.3676
B(  2-C , 15-Si) :   0.1043 B(  2-C , 17-C ) :   0.1745 B(  2-C , 35-H ) :   0.1297
B(  2-C , 40-H ) :  -0.1125 B(  2-C , 42-H ) :   1.1440 B(  3-C ,  4-C ) :   0.5496
B(  3-C ,  5-C ) :   0.5357 B(  3-C ,  6-C ) :  -0.1799 B(  3-C ,  7-C ) :  -0.3143
B(  3-C ,  8-C ) :   0.2038 B(  3-C , 10-C ) :  -0.1564 B(  3-C , 14-N ) :   1.2920
B(  3-C , 31-C ) :  -0.1545 B(  3-C , 32-C ) :  -0.1201 B(  3-C , 35-H ) :  -0.1896
B(  4-C ,  7-C ) :   0.5715 B(  4-C , 40-H ) :  -0.1038 B(  4-C , 41-H ) :   1.3511
B(  4-C , 42-H ) :  -0.1159 B(  5-C , 14-N ) :  -0.1826 B(  5-C , 32-C ) :   0.9938
B(  5-C , 34-H ) :   1.1790 B(  5-C , 35-H ) :   0.9135 B(  6-C , 14-N ) :   1.1311
B(  6-C , 25-H ) :   0.9878 B(  6-C , 26-H ) :   1.0620 B(  6-C , 27-H ) :   0.9997
B(  7-C , 31-C ) :   0.9173 B(  7-C , 33-O ) :   0.2748 B(  7-C , 40-H ) :  -0.2207
B(  8-C ,  9-H ) :   0.7668 B(  8-C , 10-C ) :   0.7474 B(  8-C , 14-N ) :   0.1931
B(  8-C , 15-Si) :   1.0528 B(  8-C , 17-C ) :   0.2264 B(  8-C , 18-C ) :   0.1637
B(  9-H , 15-Si) :  -0.1957 B( 10-C , 11-H ) :   0.9487 B( 10-C , 12-H ) :   1.0257
B( 10-C , 13-H ) :   1.1105 B( 14-N , 35-H ) :  -0.1283 B( 14-N , 42-H ) :  -0.2286
B( 15-Si, 16-C ) :  -0.3936 B( 15-Si, 18-C ) :   0.1547 B( 15-Si, 24-H ) :  -0.1053
B( 16-C , 17-C ) :   0.1681 B( 16-C , 18-C ) :   0.1508 B( 16-C , 22-H ) :   1.0837
B( 16-C , 23-H ) :   1.0470 B( 16-C , 24-H ) :   1.1544 B( 17-C , 18-C ) :   0.1979
B( 17-C , 19-H ) :   1.0875 B( 17-C , 20-H ) :   1.1610 B( 17-C , 21-H ) :   0.8632
B( 18-C , 28-H ) :   1.1195 B( 18-C , 29-H ) :   0.8902 B( 18-C , 30-H ) :   1.0737
B( 31-C , 32-C ) :   0.9674 B( 31-C , 38-H ) :   0.8829 B( 31-C , 39-H ) :   1.0258
B( 32-C , 36-H ) :   1.0566 B( 32-C , 37-H ) :   0.9273 B( 33-O , 41-H ) :   0.2268

MP2 TOTAL ENERGY:    -1004.240500581 Eh
FINAL SINGLE POINT ENERGY     -1004.240500580501

DIPOLE MOMENT
-------------
                                X             Y             Z
Electronic contribution:    -14.11887      -6.27729      -4.77115
Nuclear contribution   :     14.85462       8.73276       5.03350
                        -----------------------------------------
Total Dipole Moment    :      0.73576       2.45547       0.26234
                        -----------------------------------------
Magnitude (a.u.)       :      2.57672
Magnitude (Debye)      :      6.54951

Rotational constants in cm-1:     0.024703     0.007485     0.006704
Rotational constants in MHz :   740.576708   224.390944   200.987696

                             ****ORCA TERMINATED NORMALLY****
TOTAL RUN TIME: 0 days 1 hours 2 minutes 46 seconds 329 msec
