                         Program Version 4.2.1 -  RELEASE  -
|  1> %pal
|  2>  nprocs 32
|  3> end
|  4> !RI-MP2 aug-cc-pVTZ aug-cc-pVTZ/C TightSCF
|  5> %maxcore 4500
|  6> *xyzfile 0 1  10_23R.xyz
|  7>
|  8>
|  9>                          ****END OF INPUT****

CARTESIAN COORDINATES (ANGSTROEM)
---------------------------------
  C     -2.041375   -1.243803   -0.955155
  C     -2.888181   -1.750260   -0.056415
  C     -0.925127    1.115180    1.040085
  N     -2.002425    1.852806    1.145045
  N     -2.937676    2.467880    1.215693
  C      0.246417    1.688192    0.345617
  C      1.499458    1.644237    0.953154
  C      0.120148    2.280751   -0.909673
  C      2.610180    2.163837    0.306925
  H      1.604242    1.191829    1.931180
  C      1.228397    2.817197   -1.545426
  H     -0.848550    2.307198   -1.395473
  C      2.477934    2.753463   -0.941449
  H      3.581331    2.105758    0.782321
  H      1.118572    3.276413   -2.520443
  H      3.345758    3.161756   -1.444684
  C     -1.042375   -0.168576    1.732784
  C      0.266011   -1.272548    0.032338
  C     -0.587160   -1.344462   -0.990919
  H     -0.142790   -1.448331   -1.974220
  C     -2.793558   -0.559764   -2.080233
  H     -2.342250    0.393082   -2.368997
  H     -2.785889   -1.194675   -2.974692
  C     -4.323074   -1.472983   -0.407658
  H     -4.804730   -2.385222   -0.780369
  H     -4.909383   -1.140444    0.452059
  C     -4.210855   -0.395104   -1.503747
  H     -4.299699    0.592306   -1.044056
  H     -4.990855   -0.473261   -2.261797
  O     -0.176314   -1.151203    1.346250
  O     -1.822098   -0.386031    2.618371
  C      1.732583   -1.377178   -0.065465
  C      2.478511   -1.752219    1.051632
  C      2.403881   -1.071811   -1.249846
  C      3.861452   -1.828825    0.981652
  H      1.966105   -1.980613    1.976471
  C      3.784087   -1.147927   -1.316943
  H      1.849248   -0.729522   -2.113660
  C      4.520342   -1.526996   -0.201411
  H      4.425957   -2.125765    1.857405
  H      4.289985   -0.893253   -2.240424
  H      5.600940   -1.581412   -0.254064
  H     -2.596167   -2.325174    0.812228

 Total Charge           Charge          ....    0
 Multiplicity           Mult            ....    1
 Number of Electrons    NEL             ....  174
 Basis Dimension        Dim             .... 1564

ORBITAL ENERGIES
----------------

  NO   OCC          E(Eh)            E(eV)
   0   2.0000     -20.609965      -560.8257
   1   2.0000     -20.540785      -558.9432
   2   2.0000     -15.760234      -428.8578
   3   2.0000     -15.694095      -427.0580
   4   2.0000     -11.395754      -310.0942
   5   2.0000     -11.310939      -307.7863
   6   2.0000     -11.290912      -307.2413
   7   2.0000     -11.266075      -306.5655
   8   2.0000     -11.251306      -306.1636
   9   2.0000     -11.247433      -306.0582
  10   2.0000     -11.245715      -306.0114
  11   2.0000     -11.244162      -305.9692
  12   2.0000     -11.243355      -305.9472
  13   2.0000     -11.241968      -305.9095
  14   2.0000     -11.240502      -305.8696
  15   2.0000     -11.239933      -305.8541
  16   2.0000     -11.238922      -305.8266
  17   2.0000     -11.238365      -305.8115
  18   2.0000     -11.238348      -305.8110
  19   2.0000     -11.236877      -305.7710
  20   2.0000     -11.232270      -305.6456
  21   2.0000     -11.228162      -305.5338
  22   2.0000     -11.222707      -305.3854
  23   2.0000     -11.222384      -305.3766
  24   2.0000     -11.221768      -305.3598
  25   2.0000      -1.499093       -40.7924
  26   2.0000      -1.467833       -39.9418
  27   2.0000      -1.374225       -37.3946
  28   2.0000      -1.192519       -32.4501
  29   2.0000      -1.168256       -31.7899
  30   2.0000      -1.147931       -31.2368
  31   2.0000      -1.146391       -31.1949
  32   2.0000      -1.082225       -29.4488
  33   2.0000      -1.031105       -28.0578
  34   2.0000      -1.027931       -27.9714
  35   2.0000      -1.025823       -27.9141
  36   2.0000      -1.020145       -27.7596
  37   2.0000      -0.965163       -26.2634
  38   2.0000      -0.958207       -26.0741
  39   2.0000      -0.907765       -24.7015
  40   2.0000      -0.863989       -23.5103
  41   2.0000      -0.847538       -23.0627
  42   2.0000      -0.837734       -22.7959
  43   2.0000      -0.831229       -22.6189
  44   2.0000      -0.806703       -21.9515
  45   2.0000      -0.793596       -21.5948
  46   2.0000      -0.748441       -20.3661
  47   2.0000      -0.744063       -20.2470
  48   2.0000      -0.727109       -19.7856
  49   2.0000      -0.699128       -19.0242
  50   2.0000      -0.696920       -18.9642
  51   2.0000      -0.691203       -18.8086
  52   2.0000      -0.680271       -18.5111
  53   2.0000      -0.666941       -18.1484
  54   2.0000      -0.661897       -18.0111
  55   2.0000      -0.651997       -17.7417
  56   2.0000      -0.641040       -17.4436
  57   2.0000      -0.639948       -17.4139
  58   2.0000      -0.635946       -17.3050
  59   2.0000      -0.626042       -17.0355
  60   2.0000      -0.609435       -16.5836
  61   2.0000      -0.606055       -16.4916
  62   2.0000      -0.599489       -16.3129
  63   2.0000      -0.593950       -16.1622
  64   2.0000      -0.586232       -15.9522
  65   2.0000      -0.573402       -15.6031
  66   2.0000      -0.555786       -15.1237
  67   2.0000      -0.535568       -14.5735
  68   2.0000      -0.529841       -14.4177
  69   2.0000      -0.520182       -14.1549
  70   2.0000      -0.514360       -13.9964
  71   2.0000      -0.508912       -13.8482
  72   2.0000      -0.506612       -13.7856
  73   2.0000      -0.500799       -13.6274
  74   2.0000      -0.497885       -13.5481
  75   2.0000      -0.492874       -13.4118
  76   2.0000      -0.489707       -13.3256
  77   2.0000      -0.482123       -13.1192
  78   2.0000      -0.477774       -13.0009
  79   2.0000      -0.458989       -12.4897
  80   2.0000      -0.417282       -11.3548
  81   2.0000      -0.378962       -10.3121
  82   2.0000      -0.360590        -9.8121
  83   2.0000      -0.347886        -9.4665
  84   2.0000      -0.344329        -9.3697
  85   2.0000      -0.312251        -8.4968
  86   2.0000      -0.292978        -7.9723
  87   0.0000       0.020123         0.5476
  88   0.0000       0.026039         0.7086
  89   0.0000       0.031165         0.8480
  90   0.0000       0.032404         0.8818
  91   0.0000       0.037057         1.0084

MULLIKEN ATOMIC CHARGES
-----------------------
   0 C :    2.105263
   1 C :   -1.423720
   2 C :    0.895658
   3 N :    0.432540
   4 N :   -1.276029
   5 C :    1.534719
   6 C :   -0.935425
   7 C :   -0.826618
   8 C :   -0.489753
   9 H :    0.143214
  10 C :   -0.743838
  11 H :    0.058263
  12 C :    0.033273
  13 H :    0.296883
  14 H :    0.462825
  15 H :    0.555054
  16 C :    1.209350
  17 C :    1.754404
  18 C :   -1.256998
  19 H :   -0.149727
  20 C :   -0.940746
  21 H :    0.344766
  22 H :    0.252366
  23 C :   -0.422984
  24 H :    0.244677
  25 H :    0.324619
  26 C :   -0.582490
  27 H :    0.202093
  28 H :    0.314157
  29 O :   -1.084002
  30 O :   -1.299707
  31 C :    1.812046
  32 C :   -0.954318
  33 C :   -0.453532
  34 C :   -0.753597
  35 H :    0.171874
  36 C :   -0.897927
  37 H :   -0.102902
  38 C :   -0.122506
  39 H :    0.413421
  40 H :    0.326259
  41 H :    0.592197
  42 H :    0.236896
Sum of atomic charges:    0.0000000

LOEWDIN ATOMIC CHARGES
----------------------
   0 C :   -0.112317
   1 C :    0.253240
   2 C :   -0.278392
   3 N :    0.026957
   4 N :    0.393501
   5 C :   -0.174760
   6 C :    0.203975
   7 C :    0.207415
   8 C :    0.205563
   9 H :   -0.160504
  10 C :    0.207105
  11 H :   -0.177505
  12 C :    0.202563
  13 H :   -0.169351
  14 H :   -0.178577
  15 H :   -0.178131
  16 C :   -0.871307
  17 C :   -0.347682
  18 C :    0.240376
  19 H :   -0.189177
  20 C :    0.290098
  21 H :   -0.152692
  22 H :   -0.136275
  23 C :    0.290729
  24 H :   -0.145032
  25 H :   -0.147838
  26 C :    0.303509
  27 H :   -0.154250
  28 H :   -0.144574
  29 O :    0.605728
  30 O :    0.462866
  31 C :   -0.133987
  32 C :    0.212270
  33 C :    0.207004
  34 C :    0.204996
  35 H :   -0.185210
  36 C :    0.205014
  37 H :   -0.180656
  38 C :    0.198621
  39 H :   -0.179628
  40 H :   -0.177494
  41 H :   -0.181481
  42 H :   -0.164713

  Mayer bond orders larger than 0.100000
B(  0-C ,  1-C ) :   0.5805 B(  0-C ,  2-C ) :  -0.2781 B(  0-C ,  5-C ) :   0.1730
B(  0-C ,  7-C ) :   0.1056 B(  0-C , 17-C ) :   0.3010 B(  0-C , 18-C ) :   0.3055
B(  0-C , 19-H ) :  -0.2944 B(  0-C , 20-C ) :   0.4431 B(  0-C , 22-H ) :  -0.1089
B(  0-C , 23-C ) :  -0.1159 B(  0-C , 26-C ) :  -0.2032 B(  0-C , 29-O ) :  -0.2415
B(  0-C , 42-H ) :  -0.1121 B(  1-C , 17-C ) :  -0.3564 B(  1-C , 18-C ) :   0.4757
B(  1-C , 19-H ) :   0.1557 B(  1-C , 20-C ) :   0.2601 B(  1-C , 23-C ) :   0.7689
B(  1-C , 26-C ) :   0.1410 B(  1-C , 42-H ) :   1.1866 B(  2-C ,  3-N ) :   1.2074
B(  2-C ,  4-N ) :  -0.2094 B(  2-C ,  5-C ) :   0.4195 B(  2-C ,  6-C ) :   0.8530
B(  2-C ,  7-C ) :  -0.2515 B(  2-C ,  9-H ) :  -0.1363 B(  2-C , 11-H ) :  -0.4251
B(  2-C , 12-C ) :   0.1312 B(  2-C , 14-H ) :   0.1524 B(  2-C , 16-C ) :   1.0374
B(  2-C , 17-C ) :  -0.2943 B(  2-C , 18-C ) :   0.1826 B(  2-C , 19-H ) :   0.1556
B(  2-C , 30-O ) :   0.2114 B(  2-C , 33-C ) :   0.1285 B(  3-N ,  4-N ) :   0.8125
B(  3-N ,  5-C ) :  -0.2223 B(  3-N , 16-C ) :  -0.1924 B(  3-N , 17-C ) :   0.1221
B(  4-N ,  5-C ) :  -0.2215 B(  5-C ,  6-C ) :   0.7239 B(  5-C ,  7-C ) :   0.6315
B(  5-C ,  8-C ) :   0.2172 B(  5-C , 10-C ) :   0.1031 B(  5-C , 13-H ) :  -0.1841
B(  5-C , 14-H ) :  -0.2334 B(  5-C , 15-H ) :   0.2766 B(  5-C , 16-C ) :  -0.1764
B(  5-C , 19-H ) :  -0.1991 B(  5-C , 29-O ) :   0.1039 B(  5-C , 33-C ) :  -0.1359
B(  6-C ,  8-C ) :   1.2488 B(  6-C ,  9-H ) :   1.3700 B(  6-C , 11-H ) :   0.1709
B(  6-C , 16-C ) :   0.1544 B(  7-C ,  9-H ) :   0.1537 B(  7-C , 10-C ) :   1.3545
B(  7-C , 11-H ) :   1.5893 B(  7-C , 17-C ) :   0.1356 B(  8-C ,  9-H ) :  -0.1124
B(  8-C , 10-C ) :   0.1251 B(  8-C , 12-C ) :   1.0986 B(  8-C , 13-H ) :   1.1006
B(  8-C , 15-H ) :  -0.1678 B( 10-C , 12-C ) :   1.2086 B( 10-C , 14-H ) :   0.7460
B( 10-C , 15-H ) :  -0.1917 B( 11-H , 18-C ) :   0.1261 B( 12-C , 15-H ) :   0.6930
B( 16-C , 17-C ) :  -0.2622 B( 16-C , 29-O ) :   1.4571 B( 16-C , 30-O ) :   0.2108
B( 17-C , 18-C ) :   1.0021 B( 17-C , 29-O ) :  -0.5532 B( 17-C , 30-O ) :   0.1135
B( 17-C , 31-C ) :  -0.1929 B( 17-C , 32-C ) :   0.7636 B( 17-C , 33-C ) :   0.3481
B( 17-C , 37-H ) :  -0.1607 B( 17-C , 38-C ) :   0.1677 B( 17-C , 42-H ) :  -0.1851
B( 18-C , 19-H ) :   1.5922 B( 18-C , 29-O ) :   0.5526 B( 18-C , 31-C ) :   0.4829
B( 18-C , 33-C ) :  -0.2739 B( 18-C , 42-H ) :   0.1815 B( 20-C , 21-H ) :   0.9163
B( 20-C , 22-H ) :   1.0203 B( 20-C , 23-C ) :   0.1605 B( 20-C , 26-C ) :   1.0718
B( 23-C , 24-H ) :   1.0063 B( 23-C , 25-H ) :   0.9107 B( 23-C , 26-C ) :   0.9925
B( 26-C , 27-H ) :   1.0792 B( 26-C , 28-H ) :   0.9099 B( 29-O , 30-O ) :  -0.1608
B( 31-C , 32-C ) :  -0.2265 B( 31-C , 33-C ) :   0.5429 B( 31-C , 34-C ) :   0.1271
B( 31-C , 35-H ) :  -0.2050 B( 31-C , 37-H ) :  -0.2915 B( 31-C , 38-C ) :  -0.1348
B( 32-C , 33-C ) :  -0.4249 B( 32-C , 34-C ) :   1.3352 B( 32-C , 35-H ) :   1.3568
B( 32-C , 36-C ) :   0.2004 B( 32-C , 37-H ) :   0.1411 B( 33-C , 35-H ) :   0.1258
B( 33-C , 36-C ) :   1.1222 B( 33-C , 37-H ) :   1.9346 B( 34-C , 38-C ) :   1.1304
B( 34-C , 39-H ) :   0.8750 B( 34-C , 41-H ) :  -0.1406 B( 36-C , 37-H ) :  -0.1496
B( 36-C , 38-C ) :   1.1066 B( 36-C , 40-H ) :   1.0450 B( 36-C , 41-H ) :  -0.1046
B( 38-C , 41-H ) :   0.5989

MP2 TOTAL ENERGY:    -1068.879651297 Eh
FINAL SINGLE POINT ENERGY     -1068.879651297273

DIPOLE MOMENT
-------------
                                X             Y             Z
Electronic contribution:      0.97672       3.78482      11.86252
Nuclear contribution   :      0.00131      -3.21279     -13.33783
                        -----------------------------------------
Total Dipole Moment    :      0.97803       0.57204      -1.47531
                        -----------------------------------------
Magnitude (a.u.)       :      1.86019
Magnitude (Debye)      :      4.72823

Rotational constants in cm-1:     0.011986     0.006358     0.005569
Rotational constants in MHz :   359.342767   190.607311   166.955487

                             ****ORCA TERMINATED NORMALLY****
TOTAL RUN TIME: 0 days 1 hours 47 minutes 10 seconds 254 msec
