                         Program Version 4.2.1 -  RELEASE  -
|  1> %pal
|  2>  nprocs 32
|  3> end
|  4> !RI-MP2 aug-cc-pVTZ aug-cc-pVTZ/C TightSCF
|  5> %maxcore 4500
|  6> *xyzfile -1 1  09_1R2.xyz
|  7>
|  8>
|  9>                          ****END OF INPUT****

CARTESIAN COORDINATES (ANGSTROEM)
---------------------------------
  C      0.000000    0.000000   -0.629555
  N      0.000000    0.000000    0.539618

 Total Charge           Charge          ....   -1
 Multiplicity           Mult            ....    1
 Number of Electrons    NEL             ....   14
 Basis Dimension        Dim             ....   92

ORBITAL ENERGIES
----------------

  NO   OCC          E(Eh)            E(eV)
   0   2.0000     -15.285759      -415.9467
   1   2.0000     -10.967370      -298.4373
   2   2.0000      -0.928657       -25.2700
   3   2.0000      -0.340137        -9.2556
   4   2.0000      -0.194726        -5.2988
   5   2.0000      -0.194726        -5.2988
   6   2.0000      -0.192508        -5.2384
   7   0.0000       0.209392         5.6978
   8   0.0000       0.233233         6.3466
   9   0.0000       0.233233         6.3466
  10   0.0000       0.245436         6.6787
  11   0.0000       0.312288         8.4978

MULLIKEN ATOMIC CHARGES
-----------------------
   0 C :   -0.689536
   1 N :   -0.310464
Sum of atomic charges:   -1.0000000

LOEWDIN ATOMIC CHARGES
----------------------
   0 C :   -0.627849
   1 N :   -0.372151

  Mayer bond orders larger than 0.100000
B(  0-C ,  1-N ) :   2.4023

MP2 TOTAL ENERGY:      -92.692232704 Eh
FINAL SINGLE POINT ENERGY       -92.692232704396

DIPOLE MOMENT
-------------
                                X             Y             Z
Electronic contribution:      0.00000       0.00000       0.15761
Nuclear contribution   :      0.00000       0.00000       0.00297
                        -----------------------------------------
Total Dipole Moment    :      0.00000       0.00000       0.16058
                        -----------------------------------------
Magnitude (a.u.)       :      0.16058
Magnitude (Debye)      :      0.40816

Rotational constants in cm-1:     0.000000     1.907168     1.907168
Rotational constants in MHz :     0.000000 57175.459374 57175.459374

                             ****ORCA TERMINATED NORMALLY****
TOTAL RUN TIME: 0 days 0 hours 0 minutes 8 seconds 815 msec
