                         Program Version 4.2.1 -  RELEASE  -
|  1> %pal
|  2>  nprocs 32
|  3> end
|  4> !RI-MP2 aug-cc-pVTZ aug-cc-pVTZ/C TightSCF
|  5> %maxcore 4500
|  6> *xyzfile 0 2  04_42P.xyz
|  7>
|  8>
|  9>                          ****END OF INPUT****

CARTESIAN COORDINATES (ANGSTROEM)
---------------------------------
  N      0.482203    0.474211   -1.113904
  S      1.857344   -0.205343   -0.509921
  O      1.584742   -0.502944    1.046038
  C      1.101885   -1.794231    1.492577
  C     -0.412772   -1.882789    1.491167
  H      1.493444   -1.866211    2.505330
  H      1.555973   -2.570532    0.875815
  C     -1.039328   -2.047633    0.149695
  H     -0.824017   -1.007957    2.006021
  H     -0.674654   -2.746036    2.126765
  C     -2.510496   -1.908962   -0.024579
  H     -0.474768   -2.575991   -0.615661
  C      0.141331    1.855422   -0.870330
  H     -0.306114    2.284705   -1.768565
  C     -0.853734    2.045242    0.255139
  F     -1.973345    1.321595    0.032924
  F     -1.219358    3.332125    0.342732
  F     -0.378745    1.670664    1.446972
  O      2.856236    0.826409   -0.516780
  O      2.012086   -1.469403   -1.185878
  C     -2.939631   -1.710747   -1.476358
  H     -2.876871   -1.081104    0.591161
  H     -3.007344   -2.809348    0.373162
  H     -2.556324   -0.768913   -1.877197
  H     -4.026802   -1.684777   -1.566824
  H     -2.569352   -2.519978   -2.110097
  H      1.047268    2.414834   -0.639473
  H     -0.278373   -0.192441   -1.198921

 Total Charge           Charge          ....    0
 Multiplicity           Mult            ....    2
 Number of Electrons    NEL             ....  129
 Basis Dimension        Dim             ....  993

ORBITAL ENERGIES
----------------
                 SPIN UP ORBITALS
  NO   OCC          E(Eh)            E(eV)
   0   1.0000     -92.247555     -2510.1836
   1   1.0000     -26.352964      -717.1006
   2   1.0000     -26.352722      -717.0940
   3   1.0000     -26.351057      -717.0487
   4   1.0000     -20.620285      -561.1065
   5   1.0000     -20.567288      -559.6644
   6   1.0000     -20.564204      -559.5804
   7   1.0000     -15.623333      -425.1325
   8   1.0000     -11.518880      -313.4447
   9   1.0000     -11.317992      -307.9782
  10   1.0000     -11.309794      -307.7551
  11   1.0000     -11.247238      -306.0529
  12   1.0000     -11.246205      -306.0248
  13   1.0000     -11.236183      -305.7521
  14   1.0000     -11.228692      -305.5482
  15   1.0000      -9.206923      -250.5331
  16   1.0000      -6.892791      -187.5624
  17   1.0000      -6.892345      -187.5502
  18   1.0000      -6.891690      -187.5324
  19   1.0000      -1.743259       -47.4365
  20   1.0000      -1.648797       -44.8661
  21   1.0000      -1.647573       -44.8328
  22   1.0000      -1.517121       -41.2830
  23   1.0000      -1.393099       -37.9082
  24   1.0000      -1.368486       -37.2384
  25   1.0000      -1.270081       -34.5607
  26   1.0000      -1.115540       -30.3554
  27   1.0000      -1.067895       -29.0589
  28   1.0000      -1.044913       -28.4335
  29   1.0000      -0.963997       -26.2317
  30   1.0000      -0.939007       -25.5517
  31   1.0000      -0.884296       -24.0629
  32   1.0000      -0.846275       -23.0283
  33   1.0000      -0.838564       -22.8185
  34   1.0000      -0.829701       -22.5773
  35   1.0000      -0.815579       -22.1930
  36   1.0000      -0.800108       -21.7720
  37   1.0000      -0.774186       -21.0667
  38   1.0000      -0.732526       -19.9331
  39   1.0000      -0.726314       -19.7640
  40   1.0000      -0.716055       -19.4848
  41   1.0000      -0.702636       -19.1197
  42   1.0000      -0.683193       -18.5906
  43   1.0000      -0.677944       -18.4478
  44   1.0000      -0.669261       -18.2115
  45   1.0000      -0.663466       -18.0538
  46   1.0000      -0.651802       -17.7364
  47   1.0000      -0.643816       -17.5191
  48   1.0000      -0.637069       -17.3355
  49   1.0000      -0.619477       -16.8568
  50   1.0000      -0.607571       -16.5328
  51   1.0000      -0.594710       -16.1829
  52   1.0000      -0.586215       -15.9517
  53   1.0000      -0.568136       -15.4598
  54   1.0000      -0.553883       -15.0719
  55   1.0000      -0.538209       -14.6454
  56   1.0000      -0.522636       -14.2217
  57   1.0000      -0.514203       -13.9922
  58   1.0000      -0.510672       -13.8961
  59   1.0000      -0.506013       -13.7693
  60   1.0000      -0.498435       -13.5631
  61   1.0000      -0.490935       -13.3590
  62   1.0000      -0.486475       -13.2377
  63   1.0000      -0.450101       -12.2479
  64   1.0000      -0.353414        -9.6169
  65   0.0000       0.024196         0.6584
  66   0.0000       0.028325         0.7707
  67   0.0000       0.034321         0.9339
  68   0.0000       0.037518         1.0209
  69   0.0000       0.044646         1.2149

                 SPIN DOWN ORBITALS
  NO   OCC          E(Eh)            E(eV)
   0   1.0000     -92.247557     -2510.1836
   1   1.0000     -26.352948      -717.1002
   2   1.0000     -26.352725      -717.0941
   3   1.0000     -26.351055      -717.0487
   4   1.0000     -20.620394      -561.1094
   5   1.0000     -20.567263      -559.6637
   6   1.0000     -20.564178      -559.5797
   7   1.0000     -15.622508      -425.1101
   8   1.0000     -11.518869      -313.4444
   9   1.0000     -11.318017      -307.9789
  10   1.0000     -11.309281      -307.7412
  11   1.0000     -11.249354      -306.1105
  12   1.0000     -11.239160      -305.8331
  13   1.0000     -11.228088      -305.5318
  14   1.0000     -11.223550      -305.4083
  15   1.0000      -9.206927      -250.5332
  16   1.0000      -6.892772      -187.5619
  17   1.0000      -6.892376      -187.5511
  18   1.0000      -6.891691      -187.5324
  19   1.0000      -1.743247       -47.4362
  20   1.0000      -1.648800       -44.8661
  21   1.0000      -1.647545       -44.8320
  22   1.0000      -1.517066       -41.2815
  23   1.0000      -1.393178       -37.9103
  24   1.0000      -1.368422       -37.2367
  25   1.0000      -1.268303       -34.5123
  26   1.0000      -1.090010       -29.6607
  27   1.0000      -1.067000       -29.0345
  28   1.0000      -1.043711       -28.4008
  29   1.0000      -0.952706       -25.9245
  30   1.0000      -0.932427       -25.3726
  31   1.0000      -0.877559       -23.8796
  32   1.0000      -0.845651       -23.0113
  33   1.0000      -0.838521       -22.8173
  34   1.0000      -0.828317       -22.5396
  35   1.0000      -0.812465       -22.1083
  36   1.0000      -0.776594       -21.1322
  37   1.0000      -0.766344       -20.8533
  38   1.0000      -0.732082       -19.9210
  39   1.0000      -0.725831       -19.7509
  40   1.0000      -0.715656       -19.4740
  41   1.0000      -0.700913       -19.0728
  42   1.0000      -0.681622       -18.5479
  43   1.0000      -0.677855       -18.4454
  44   1.0000      -0.667832       -18.1726
  45   1.0000      -0.663327       -18.0500
  46   1.0000      -0.645461       -17.5639
  47   1.0000      -0.635277       -17.2868
  48   1.0000      -0.627683       -17.0801
  49   1.0000      -0.615070       -16.7369
  50   1.0000      -0.605094       -16.4655
  51   1.0000      -0.592969       -16.1355
  52   1.0000      -0.578306       -15.7365
  53   1.0000      -0.562426       -15.3044
  54   1.0000      -0.543774       -14.7969
  55   1.0000      -0.536811       -14.6074
  56   1.0000      -0.520383       -14.1603
  57   1.0000      -0.512046       -13.9335
  58   1.0000      -0.505371       -13.7519
  59   1.0000      -0.501281       -13.6406
  60   1.0000      -0.497242       -13.5306
  61   1.0000      -0.486375       -13.2349
  62   1.0000      -0.483562       -13.1584
  63   1.0000      -0.447635       -12.1808
  64   0.0000       0.024071         0.6550
  65   0.0000       0.028379         0.7722
  66   0.0000       0.034369         0.9352
  67   0.0000       0.037612         1.0235
  68   0.0000       0.044640         1.2147

MULLIKEN ATOMIC CHARGES AND SPIN POPULATIONS
--------------------------------------------
   0 N :   -0.424211    0.026063
   1 S :    2.243221    0.000329
   2 O :   -0.784954    0.001103
   3 C :   -0.426313    0.028442
   4 C :   -0.428631   -0.226079
   5 H :    0.338643   -0.003816
   6 H :    0.348612   -0.003772
   7 C :   -0.201080    1.354920
   8 H :    0.235635    0.009594
   9 H :    0.271107    0.077205
  10 C :   -0.446555   -0.231388
  11 H :    0.505766   -0.134312
  12 C :   -0.725708   -0.001616
  13 H :    0.295930   -0.000059
  14 C :    1.468742    0.001492
  15 F :   -0.460514    0.000398
  16 F :   -0.427792   -0.000057
  17 F :   -0.438807   -0.000090
  18 O :   -0.998830    0.000663
  19 O :   -0.989694    0.001217
  20 C :   -1.046292    0.040997
  21 H :    0.225080    0.004208
  22 H :    0.272730    0.083278
  23 H :    0.354597   -0.000946
  24 H :    0.243915   -0.004788
  25 H :    0.256627   -0.002749
  26 H :    0.345259    0.000739
  27 H :    0.393517   -0.020978
Sum of atomic charges         :   -0.0000000

LOEWDIN ATOMIC CHARGES AND SPIN POPULATIONS
-------------------------------------------
   0 N :    0.408456    0.016807
   1 S :   -0.037051    0.002340
   2 O :    0.359865   -0.000216
   3 C :    0.015230    0.007279
   4 C :    0.244017    0.110131
   5 H :   -0.159915    0.000447
   6 H :   -0.194549   -0.000314
   7 C :    0.252270    0.530648
   8 H :   -0.160667    0.008676
   9 H :   -0.137374    0.029816
  10 C :    0.222625    0.108925
  11 H :   -0.179375    0.104128
  12 C :    0.119554    0.001442
  13 H :   -0.147933    0.000036
  14 C :   -1.488301    0.000533
  15 F :    0.515719    0.000721
  16 F :    0.516376   -0.000037
  17 F :    0.525544    0.000110
  18 O :    0.078604    0.000475
  19 O :    0.088656    0.000732
  20 C :    0.571938    0.008939
  21 H :   -0.170386    0.007386
  22 H :   -0.141836    0.029619
  23 H :   -0.180146    0.002185
  24 H :   -0.166873    0.000661
  25 H :   -0.167775   -0.000075
  26 H :   -0.184044    0.000341
  27 H :   -0.402628    0.028268

  Mayer bond orders larger than 0.100000
B(  0-N ,  1-S ) :   0.9961 B(  0-N ,  2-O ) :   0.1161 B(  0-N , 12-C ) :   0.9419
B(  0-N , 27-H ) :   0.6402 B(  1-S ,  2-O ) :   0.7867 B(  1-S , 18-O ) :   1.1796
B(  1-S , 19-O ) :   1.3364 B(  2-O ,  3-C ) :   0.7078 B(  3-C ,  4-C ) :   1.0046
B(  3-C ,  5-H ) :   0.9014 B(  3-C ,  6-H ) :   1.0135 B(  4-C ,  7-C ) :   0.7409
B(  4-C ,  8-H ) :   0.9611 B(  4-C ,  9-H ) :   0.9208 B(  7-C , 10-C ) :   0.8217
B(  7-C , 11-H ) :   0.6552 B( 10-C , 20-C ) :   0.8581 B( 10-C , 21-H ) :   1.0209
B( 10-C , 22-H ) :   0.9284 B( 12-C , 13-H ) :   0.9106 B( 12-C , 14-C ) :   0.9681
B( 12-C , 15-F ) :   0.1896 B( 12-C , 17-F ) :   0.1368 B( 12-C , 26-H ) :   0.8921
B( 14-C , 15-F ) :   0.7346 B( 14-C , 16-F ) :   0.5936 B( 14-C , 17-F ) :   0.7228
B( 20-C , 23-H ) :   0.8793 B( 20-C , 24-H ) :   1.0436 B( 20-C , 25-H ) :   0.9866

MP2 TOTAL ENERGY:    -1250.883992727 Eh
FINAL SINGLE POINT ENERGY     -1250.883992726894

DIPOLE MOMENT
-------------
                                X             Y             Z
Electronic contribution:      8.20778      20.30855       3.31861
Nuclear contribution   :     -9.68500     -20.86466      -3.02513
                        -----------------------------------------
Total Dipole Moment    :     -1.47723      -0.55611       0.29348
                        -----------------------------------------
Magnitude (a.u.)       :      1.60549
Magnitude (Debye)      :      4.08082

Rotational constants in cm-1:     0.018429     0.017104     0.011752
Rotational constants in MHz :   552.501925   512.751372   352.320511

                             ****ORCA TERMINATED NORMALLY****
TOTAL RUN TIME: 0 days 0 hours 25 minutes 30 seconds 567 msec
