                         Program Version 4.2.1 -  RELEASE  -
|  1> %pal
|  2>  nprocs 32
|  3> end
|  4> !RI-MP2 aug-cc-pVTZ aug-cc-pVTZ/C TightSCF
|  5> %maxcore 4500
|  6> *xyzfile 0 1  06_26TS.xyz
|  7>
|  8>
|  9>                          ****END OF INPUT****

CARTESIAN COORDINATES (ANGSTROEM)
---------------------------------
  C      1.871802   -2.468434    0.087719
  C      1.607128   -1.395582    1.160803
  C      1.424471    0.424994   -1.330839
  H      0.946328   -2.998360   -0.158761
  C      2.872854   -0.544919    1.435013
  H      2.979699   -0.419053    2.516614
  H      3.762734   -1.095522    1.112626
  H      1.201108    1.077799   -2.179638
  H      1.406641   -1.945647    2.088199
  H      0.174873    0.217825    1.936958
  C      2.879334    0.862242    0.833512
  H      2.105957    1.439803    1.341853
  H      3.824188    1.346369    1.102505
  C      2.688721    1.028877   -0.678555
  H      2.686631    2.107992   -0.866494
  H      3.569471    0.648960   -1.206249
  C      1.682670   -0.947154   -1.988777
  H      0.719186   -1.388321   -2.266206
  C      2.496625   -1.973427   -1.210296
  H      2.661618   -2.838139   -1.860801
  H      3.492357   -1.568263   -1.007962
  H      2.212128   -0.760494   -2.929977
  H      2.546823   -3.219401    0.515862
  C      0.153703    0.449098   -0.432104
  H     -0.622057    0.003488   -1.065875
  Si    -0.533855    2.206066   -0.196039
  C      0.182626    3.168363    1.259153
  H      1.224120    3.450889    1.094897
  H     -0.389033    4.091098    1.393591
  H      0.134244    2.611910    2.197967
  C     -0.226880    3.236289   -1.745208
  H     -0.721088    4.207478   -1.653320
  H     -0.626835    2.747985   -2.638042
  H      0.835227    3.423611   -1.917920
  C     -2.402665    2.157942    0.040483
  H     -2.896921    1.796373   -0.864001
  H     -2.713450    1.511912    0.861302
  H     -2.775136    3.167022    0.238194
  B      0.339182   -0.427305    0.913928
  C     -1.347213   -0.873457    2.005305
  C     -1.118346   -1.800612    1.062060
  H     -0.565322   -2.694831    1.311306
  C     -1.891041   -0.205585    2.978528
  H     -2.796761   -0.601934    3.425390
  H     -1.492464    0.726397    3.350415
  C     -1.886447   -1.910850   -0.200957
  O     -1.674330   -2.760599   -1.025358
  O     -2.842436   -0.985750   -0.311848
  C     -3.592183   -1.009309   -1.530286
  H     -4.091184   -1.970179   -1.650127
  H     -4.318081   -0.206136   -1.440844
  H     -2.933767   -0.839087   -2.382243

 Total Charge           Charge          ....    0
 Multiplicity           Mult            ....    1
 Number of Electrons    NEL             ....  168
 Basis Dimension        Dim             .... 1683

ORBITAL ENERGIES
----------------

  NO   OCC          E(Eh)            E(eV)
   0   2.0000     -68.737513     -1870.4428
   1   2.0000     -20.612370      -560.8911
   2   2.0000     -20.551490      -559.2345
   3   2.0000     -11.394325      -310.0553
   4   2.0000     -11.332588      -308.3754
   5   2.0000     -11.292053      -307.2724
   6   2.0000     -11.280487      -306.9576
   7   2.0000     -11.270723      -306.6920
   8   2.0000     -11.210956      -305.0656
   9   2.0000     -11.203290      -304.8570
  10   2.0000     -11.201990      -304.8216
  11   2.0000     -11.201390      -304.8053
  12   2.0000     -11.196474      -304.6716
  13   2.0000     -11.196039      -304.6597
  14   2.0000     -11.195588      -304.6474
  15   2.0000     -11.187812      -304.4359
  16   2.0000     -11.187288      -304.4216
  17   2.0000     -11.184999      -304.3593
  18   2.0000     -11.184991      -304.3591
  19   2.0000     -11.173881      -304.0567
  20   2.0000      -7.573631      -206.0890
  21   2.0000      -6.084550      -165.5690
  22   2.0000      -4.190871      -114.0394
  23   2.0000      -4.190844      -114.0387
  24   2.0000      -4.190413      -114.0269
  25   2.0000      -1.476427       -40.1756
  26   2.0000      -1.371934       -37.3322
  27   2.0000      -1.144966       -31.1561
  28   2.0000      -1.099833       -29.9280
  29   2.0000      -1.038198       -28.2508
  30   2.0000      -1.033171       -28.1140
  31   2.0000      -1.029444       -28.0126
  32   2.0000      -0.974817       -26.5261
  33   2.0000      -0.963586       -26.2205
  34   2.0000      -0.938379       -25.5346
  35   2.0000      -0.914031       -24.8720
  36   2.0000      -0.911964       -24.8158
  37   2.0000      -0.902527       -24.5590
  38   2.0000      -0.860997       -23.4289
  39   2.0000      -0.830457       -22.5979
  40   2.0000      -0.786022       -21.3888
  41   2.0000      -0.779028       -21.1984
  42   2.0000      -0.767653       -20.8889
  43   2.0000      -0.712124       -19.3779
  44   2.0000      -0.703428       -19.1412
  45   2.0000      -0.692981       -18.8570
  46   2.0000      -0.688790       -18.7429
  47   2.0000      -0.676314       -18.4034
  48   2.0000      -0.654918       -17.8212
  49   2.0000      -0.647215       -17.6116
  50   2.0000      -0.628717       -17.1083
  51   2.0000      -0.613400       -16.6915
  52   2.0000      -0.603721       -16.4281
  53   2.0000      -0.597780       -16.2664
  54   2.0000      -0.585526       -15.9330
  55   2.0000      -0.569526       -15.4976
  56   2.0000      -0.564149       -15.3513
  57   2.0000      -0.562190       -15.2980
  58   2.0000      -0.558800       -15.2057
  59   2.0000      -0.554663       -15.0932
  60   2.0000      -0.550336       -14.9754
  61   2.0000      -0.545949       -14.8560
  62   2.0000      -0.541335       -14.7305
  63   2.0000      -0.536703       -14.6044
  64   2.0000      -0.526905       -14.3378
  65   2.0000      -0.525892       -14.3102
  66   2.0000      -0.519936       -14.1482
  67   2.0000      -0.493414       -13.4265
  68   2.0000      -0.482195       -13.1212
  69   2.0000      -0.479131       -13.0378
  70   2.0000      -0.473635       -12.8883
  71   2.0000      -0.469715       -12.7816
  72   2.0000      -0.465976       -12.6798
  73   2.0000      -0.454854       -12.3772
  74   2.0000      -0.447916       -12.1884
  75   2.0000      -0.432082       -11.7575
  76   2.0000      -0.426843       -11.6150
  77   2.0000      -0.420029       -11.4296
  78   2.0000      -0.417131       -11.3507
  79   2.0000      -0.406225       -11.0539
  80   2.0000      -0.400056       -10.8861
  81   2.0000      -0.390789       -10.6339
  82   2.0000      -0.382618       -10.4116
  83   2.0000      -0.360560        -9.8113
  84   0.0000       0.018628         0.5069
  85   0.0000       0.026942         0.7331
  86   0.0000       0.028463         0.7745
  87   0.0000       0.030572         0.8319
  88   0.0000       0.038216         1.0399

MULLIKEN ATOMIC CHARGES
-----------------------
   0 C :   -0.814443
   1 C :    0.810923
   2 C :    0.155517
   3 H :    0.188455
   4 C :   -0.928169
   5 H :    0.165656
   6 H :   -0.162839
   7 H :   -0.091618
   8 H :    0.024957
   9 H :    0.106082
  10 C :   -0.468275
  11 H :    0.257924
  12 H :    0.452417
  13 C :   -0.716494
  14 H :    0.128903
  15 H :    0.032396
  16 C :   -0.955769
  17 H :    0.169460
  18 C :   -0.396059
  19 H :    0.466459
  20 H :   -0.077866
  21 H :    0.107380
  22 H :    0.144654
  23 C :    1.793368
  24 H :    0.683160
  25 Si:    3.264426
  26 C :   -1.375965
  27 H :    0.186238
  28 H :    0.099687
  29 H :    0.181177
  30 C :   -1.882069
  31 H :   -0.047798
  32 H :    0.180860
  33 H :    0.340632
  34 C :   -1.931129
  35 H :    0.172813
  36 H :    0.324799
  37 H :    0.004137
  38 B :   -1.329864
  39 C :    1.117190
  40 C :    0.398176
  41 H :    0.766742
  42 C :   -1.626644
  43 H :    0.031191
  44 H :    0.609113
  45 C :    1.214806
  46 O :   -1.366559
  47 O :   -0.365988
  48 C :   -1.141927
  49 H :    0.318089
  50 H :    0.344309
  51 H :    0.437378
Sum of atomic charges:    0.0000000

LOEWDIN ATOMIC CHARGES
----------------------
   0 C :    0.310220
   1 C :    0.129625
   2 C :    0.000894
   3 H :   -0.164063
   4 C :    0.331783
   5 H :   -0.132492
   6 H :   -0.147706
   7 H :   -0.173714
   8 H :   -0.147431
   9 H :   -0.111594
  10 C :    0.319632
  11 H :   -0.202645
  12 H :   -0.125647
  13 C :    0.336682
  14 H :   -0.146083
  15 H :   -0.141490
  16 C :    0.330954
  17 H :   -0.139404
  18 C :    0.306119
  19 H :   -0.132037
  20 H :   -0.164192
  21 H :   -0.133301
  22 H :   -0.128988
  23 C :    0.173450
  24 H :   -0.250594
  25 Si:    0.534597
  26 C :    0.594744
  27 H :   -0.228279
  28 H :   -0.222777
  29 H :   -0.230472
  30 C :    0.590585
  31 H :   -0.223885
  32 H :   -0.219070
  33 H :   -0.230895
  34 C :    0.589495
  35 H :   -0.238955
  36 H :   -0.250470
  37 H :   -0.222566
  38 B :   -0.468481
  39 C :    0.109294
  40 C :    0.172381
  41 H :   -0.174905
  42 C :    0.603275
  43 H :   -0.187549
  44 H :   -0.189662
  45 C :   -0.839724
  46 O :    0.504284
  47 O :    0.588613
  48 C :    0.367174
  49 H :   -0.173737
  50 H :   -0.182643
  51 H :   -0.168351

  Mayer bond orders larger than 0.100000
B(  0-C ,  1-C ) :   0.4799 B(  0-C ,  3-H ) :   1.0885 B(  0-C ,  8-H ) :  -0.1571
B(  0-C , 18-C ) :   0.7908 B(  0-C , 22-H ) :   1.1522 B(  0-C , 38-B ) :   0.3320
B(  1-C ,  2-C ) :   0.1859 B(  1-C ,  4-C ) :   0.6831 B(  1-C ,  6-H ) :  -0.1470
B(  1-C ,  8-H ) :   1.1982 B(  1-C ,  9-H ) :   0.1974 B(  1-C , 18-C ) :   0.1248
B(  1-C , 22-H ) :  -0.1270 B(  1-C , 25-Si) :   0.1028 B(  1-C , 38-B ) :   0.4395
B(  2-C ,  7-H ) :   1.3743 B(  2-C , 13-C ) :   0.9830 B(  2-C , 16-C ) :   0.4854
B(  2-C , 18-C ) :   0.1548 B(  2-C , 21-H ) :  -0.1869 B(  2-C , 23-C ) :   0.9903
B(  2-C , 24-H ) :  -0.3324 B(  2-C , 30-C ) :   0.1485 B(  2-C , 38-B ) :   0.1041
B(  4-C ,  5-H ) :   1.1507 B(  4-C ,  6-H ) :   1.4524 B(  4-C ,  8-H ) :  -0.1467
B(  4-C , 10-C ) :   0.8055 B(  4-C , 11-H ) :   0.1267 B(  4-C , 12-H ) :  -0.1615
B(  4-C , 13-C ) :   0.1231 B(  7-H , 13-C ) :  -0.1419 B(  7-H , 16-C ) :  -0.1935
B(  7-H , 23-C ) :  -0.4306 B(  7-H , 25-Si) :   0.1492 B(  7-H , 30-C ) :   0.1350
B(  7-H , 38-B ) :  -0.2051 B(  8-H ,  9-H ) :   0.1430 B(  8-H , 38-B ) :  -0.7615
B(  9-H , 25-Si) :  -0.1762 B(  9-H , 38-B ) :   0.5621 B(  9-H , 39-C ) :   0.1007
B(  9-H , 42-C ) :  -0.1569 B( 10-C , 11-H ) :   1.0824 B( 10-C , 12-H ) :   0.8374
B( 10-C , 13-C ) :   0.8067 B( 11-H , 13-C ) :   0.1245 B( 12-H , 13-C ) :  -0.1289
B( 13-C , 14-H ) :   1.1019 B( 13-C , 15-H ) :   1.2239 B( 13-C , 25-Si) :  -0.1683
B( 13-C , 38-B ) :  -0.1050 B( 14-H , 23-C ) :  -0.1173 B( 16-C , 17-H ) :   1.1955
B( 16-C , 18-C ) :   0.7450 B( 16-C , 21-H ) :   1.2168 B( 16-C , 23-C ) :   0.2730
B( 16-C , 25-Si) :  -0.1431 B( 18-C , 19-H ) :   0.7355 B( 18-C , 20-H ) :   1.3401
B( 18-C , 21-H ) :  -0.1045 B( 18-C , 38-B ) :  -0.1439 B( 23-C , 24-H ) :   0.3318
B( 23-C , 25-Si) :   1.1450 B( 23-C , 26-C ) :   0.2225 B( 23-C , 30-C ) :  -0.4194
B( 23-C , 32-H ) :  -0.1104 B( 23-C , 34-C ) :  -0.3390 B( 23-C , 38-B ) :   1.7199
B( 23-C , 40-C ) :   0.1320 B( 23-C , 42-C ) :  -0.2711 B( 23-C , 47-O ) :  -0.4044
B( 23-C , 48-C ) :  -0.1020 B( 24-H , 25-Si) :  -0.8284 B( 24-H , 34-C ) :   0.3549
B( 24-H , 37-H ) :   0.1540 B( 24-H , 38-B ) :  -0.4270 B( 24-H , 46-O ) :   0.1610
B( 24-H , 47-O ) :   0.1056 B( 25-Si, 26-C ) :  -0.4317 B( 25-Si, 28-H ) :  -0.1847
B( 25-Si, 30-C ) :  -1.0651 B( 25-Si, 31-H ) :  -0.2402 B( 25-Si, 32-H ) :  -0.1300
B( 25-Si, 34-C ) :  -1.0359 B( 25-Si, 35-H ) :  -0.1031 B( 25-Si, 37-H ) :  -0.2586
B( 25-Si, 38-B ) :   0.7084 B( 25-Si, 39-C ) :  -0.1651 B( 26-C , 27-H ) :   1.1509
B( 26-C , 28-H ) :   1.0678 B( 26-C , 29-H ) :   1.1877 B( 26-C , 34-C ) :   0.1701
B( 26-C , 38-B ) :   0.1165 B( 27-H , 29-H ) :   0.1078 B( 29-H , 38-B ) :  -0.1579
B( 30-C , 31-H ) :   1.4925 B( 30-C , 32-H ) :   1.2528 B( 30-C , 33-H ) :   0.9471
B( 30-C , 38-B ) :   0.1821 B( 34-C , 35-H ) :   1.2522 B( 34-C , 36-H ) :   1.0594
B( 34-C , 37-H ) :   1.3206 B( 34-C , 38-B ) :   0.1367 B( 35-H , 36-H ) :   0.1016
B( 38-B , 39-C ) :   0.8011 B( 38-B , 40-C ) :   0.1968 B( 38-B , 42-C ) :   0.9312
B( 38-B , 45-C ) :  -0.1787 B( 38-B , 47-O ) :  -0.1618 B( 39-C , 40-C ) :   1.4257
B( 39-C , 41-H ) :  -0.2168 B( 39-C , 42-C ) :   0.5736 B( 39-C , 43-H ) :  -0.3324
B( 40-C , 41-H ) :   0.4790 B( 40-C , 42-C ) :  -0.4539 B( 40-C , 45-C ) :   0.8147
B( 40-C , 46-O ) :  -0.2271 B( 41-H , 46-O ) :  -0.1320 B( 42-C , 43-H ) :   1.5804
B( 42-C , 44-H ) :   0.5935 B( 45-C , 46-O ) :   0.6298 B( 45-C , 47-O ) :   0.9443
B( 46-O , 48-C ) :   0.1318 B( 47-O , 48-C ) :   0.8993 B( 48-C , 49-H ) :   0.9781
B( 48-C , 50-H ) :   0.9460 B( 48-C , 51-H ) :   0.7813

MP2 TOTAL ENERGY:    -1129.063566331 Eh
FINAL SINGLE POINT ENERGY     -1129.063566330987

DIPOLE MOMENT
-------------
                                X             Y             Z
Electronic contribution:    -10.64078     -12.20091       3.34607
Nuclear contribution   :      9.50592      12.54827      -2.41677
                        -----------------------------------------
Total Dipole Moment    :     -1.13486       0.34736       0.92930
                        -----------------------------------------
Magnitude (a.u.)       :      1.50737
Magnitude (Debye)      :      3.83142

Rotational constants in cm-1:     0.010928     0.009719     0.007595
Rotational constants in MHz :   327.598671   291.366926   227.680560

                             ****ORCA TERMINATED NORMALLY****
TOTAL RUN TIME: 0 days 2 hours 6 minutes 47 seconds 267 msec
