                         Program Version 4.2.1 -  RELEASE  -
|  1> %pal
|  2>  nprocs 32
|  3> end
|  4> !RI-MP2 aug-cc-pVTZ aug-cc-pVTZ/C TightSCF
|  5> %maxcore 4500
|  6> *xyzfile 0 1  08_15R1.xyz
|  7>
|  8>
|  9>                          ****END OF INPUT****

CARTESIAN COORDINATES (ANGSTROEM)
---------------------------------
  C      3.062340   -0.458866   -0.942685
  C      2.338439    0.862909   -0.658445
  C      1.132445    0.616919    0.244886
  O      1.467707   -0.071826    1.419040
  C      2.103606   -1.326411    1.200168
  C      3.365591   -1.194959    0.364566
  H      1.410165   -2.018438    0.709693
  C     -1.118697   -0.149911    0.016598
  C     -1.969577    1.008035   -0.503826
  C     -3.455129    0.791157   -0.178852
  C     -3.876933   -0.604948   -0.622930
  O     -3.068979   -1.584624    0.001842
  C     -1.714279   -1.485812   -0.406569
  H     -1.630585   -1.595094   -1.496258
  O      4.256078   -0.229353   -1.668484
  H      2.411131   -1.078261   -1.562234
  H      4.974292   -0.224996   -1.022324
  O      4.415192   -0.541554    1.057509
  H      3.733440   -2.198881    0.135538
  H      4.150150    0.393993    1.139496
  O      0.191539   -0.096421   -0.526128
  H     -1.064569   -0.110047    1.109160
  O     -1.544008    2.245959    0.022079
  H     -1.831798    1.053208   -1.588358
  H     -2.058374    2.362367    0.837615
  O     -5.192400   -0.818263   -0.239447
  H     -3.757039   -0.705402   -1.714427
  H     -5.414156   -1.739274   -0.409048
  N     -3.662688    1.046022    1.241725
  H     -4.034152    1.526997   -0.740950
  H     -4.636648    1.247603    1.428260
  H     -3.424661    0.224578    1.788867
  N      3.259332    1.780413    0.020989
  H      3.981208    2.071975   -0.628579
  H      2.776459    2.613979    0.336835
  H      2.352208   -1.710758    2.187837
  H     -1.180812   -2.309510    0.063500
  H      1.960586    1.270775   -1.601738
  H      0.698772    1.560125    0.579356

 Total Charge           Charge          ....    0
 Multiplicity           Mult            ....    1
 Number of Electrons    NEL             ....  150
 Basis Dimension        Dim             .... 1334

ORBITAL ENERGIES
----------------

  NO   OCC          E(Eh)            E(eV)
   0   2.0000     -20.583559      -560.1071
   1   2.0000     -20.581585      -560.0534
   2   2.0000     -20.572087      -559.7950
   3   2.0000     -20.566023      -559.6299
   4   2.0000     -20.555851      -559.3532
   5   2.0000     -20.553216      -559.2814
   6   2.0000     -20.544636      -559.0480
   7   2.0000     -15.559574      -423.3975
   8   2.0000     -15.556596      -423.3165
   9   2.0000     -11.349839      -308.8448
  10   2.0000     -11.334455      -308.4262
  11   2.0000     -11.292464      -307.2836
  12   2.0000     -11.289289      -307.1972
  13   2.0000     -11.287392      -307.1455
  14   2.0000     -11.278793      -306.9116
  15   2.0000     -11.278121      -306.8933
  16   2.0000     -11.276410      -306.8467
  17   2.0000     -11.272136      -306.7304
  18   2.0000     -11.261105      -306.4303
  19   2.0000      -1.441907       -39.2363
  20   2.0000      -1.431762       -38.9602
  21   2.0000      -1.380341       -37.5610
  22   2.0000      -1.371903       -37.3314
  23   2.0000      -1.364325       -37.1252
  24   2.0000      -1.354764       -36.8650
  25   2.0000      -1.339550       -36.4510
  26   2.0000      -1.203314       -32.7438
  27   2.0000      -1.198954       -32.6252
  28   2.0000      -1.065900       -29.0046
  29   2.0000      -1.041562       -28.3424
  30   2.0000      -1.019477       -27.7414
  31   2.0000      -0.992861       -27.0171
  32   2.0000      -0.897049       -24.4099
  33   2.0000      -0.888061       -24.1654
  34   2.0000      -0.869610       -23.6633
  35   2.0000      -0.856250       -23.2998
  36   2.0000      -0.799577       -21.7576
  37   2.0000      -0.770638       -20.9701
  38   2.0000      -0.749204       -20.3869
  39   2.0000      -0.734794       -19.9948
  40   2.0000      -0.724064       -19.7028
  41   2.0000      -0.713097       -19.4043
  42   2.0000      -0.698906       -19.0182
  43   2.0000      -0.685817       -18.6620
  44   2.0000      -0.681997       -18.5581
  45   2.0000      -0.672094       -18.2886
  46   2.0000      -0.665405       -18.1066
  47   2.0000      -0.660543       -17.9743
  48   2.0000      -0.644169       -17.5287
  49   2.0000      -0.639848       -17.4111
  50   2.0000      -0.615910       -16.7598
  51   2.0000      -0.609180       -16.5766
  52   2.0000      -0.604951       -16.4616
  53   2.0000      -0.594658       -16.1815
  54   2.0000      -0.587379       -15.9834
  55   2.0000      -0.581529       -15.8242
  56   2.0000      -0.568358       -15.4658
  57   2.0000      -0.556211       -15.1353
  58   2.0000      -0.553300       -15.0560
  59   2.0000      -0.548476       -14.9248
  60   2.0000      -0.531264       -14.4564
  61   2.0000      -0.527313       -14.3489
  62   2.0000      -0.513732       -13.9794
  63   2.0000      -0.501284       -13.6406
  64   2.0000      -0.494007       -13.4426
  65   2.0000      -0.490766       -13.3544
  66   2.0000      -0.487513       -13.2659
  67   2.0000      -0.477608       -12.9964
  68   2.0000      -0.464465       -12.6387
  69   2.0000      -0.459027       -12.4908
  70   2.0000      -0.443319       -12.0633
  71   2.0000      -0.417759       -11.3678
  72   2.0000      -0.412587       -11.2271
  73   2.0000      -0.409430       -11.1411
  74   2.0000      -0.395933       -10.7739
  75   0.0000       0.023112         0.6289
  76   0.0000       0.030405         0.8274
  77   0.0000       0.030977         0.8429
  78   0.0000       0.031662         0.8616
  79   0.0000       0.038779         1.0552

MULLIKEN ATOMIC CHARGES
-----------------------
   0 C :    0.466384
   1 C :    0.023078
   2 C :    0.850937
   3 O :   -1.031354
   4 C :   -0.671030
   5 C :    0.435009
   6 H :    0.368131
   7 C :    0.733000
   8 C :    0.275989
   9 C :    0.300715
  10 C :    0.556716
  11 O :   -0.960011
  12 C :   -0.464311
  13 H :    0.282946
  14 O :   -0.989828
  15 H :    0.388115
  16 H :    0.220276
  17 O :   -0.979603
  18 H :    0.411720
  19 H :    0.213967
  20 O :   -0.723186
  21 H :    0.344667
  22 O :   -0.910181
  23 H :    0.331192
  24 H :    0.133616
  25 O :   -0.766141
  26 H :    0.314054
  27 H :    0.160121
  28 N :   -0.711170
  29 H :    0.328560
  30 H :    0.021020
  31 H :    0.107477
  32 N :   -0.610886
  33 H :    0.017840
  34 H :    0.068574
  35 H :    0.320831
  36 H :    0.335760
  37 H :    0.248966
  38 H :    0.558037
Sum of atomic charges:   -0.0000000

LOEWDIN ATOMIC CHARGES
----------------------
   0 C :   -0.229479
   1 C :   -0.090431
   2 C :   -0.501332
   3 O :    0.611029
   4 C :    0.073691
   5 C :   -0.233423
   6 H :   -0.156271
   7 C :   -0.250356
   8 C :   -0.234433
   9 C :   -0.103199
  10 C :   -0.516426
  11 O :    0.602016
  12 C :    0.058881
  13 H :   -0.139965
  14 O :    0.850076
  15 H :   -0.136992
  16 H :   -0.530463
  17 O :    0.856029
  18 H :   -0.131712
  19 H :   -0.584856
  20 O :    0.631366
  21 H :   -0.137291
  22 O :    0.859668
  23 H :   -0.129503
  24 H :   -0.539706
  25 O :    0.845629
  26 H :   -0.131027
  27 H :   -0.467758
  28 N :    0.873836
  29 H :   -0.119444
  30 H :   -0.297050
  31 H :   -0.304114
  32 N :    0.877228
  33 H :   -0.294442
  34 H :   -0.290263
  35 H :   -0.149126
  36 H :   -0.149770
  37 H :   -0.119769
  38 H :   -0.170850

  Mayer bond orders larger than 0.100000
B(  0-C ,  1-C ) :   1.0587 B(  0-C ,  5-C ) :   1.0357 B(  0-C , 15-H ) :   0.9464
B(  0-C , 17-O ) :   0.1197 B(  0-C , 20-O ) :  -0.1057 B(  1-C ,  2-C ) :   1.1259
B(  1-C ,  3-O ) :   0.1353 B(  1-C , 14-O ) :   0.1799 B(  1-C , 20-O ) :  -0.1477
B(  1-C , 32-N ) :   0.4591 B(  1-C , 37-H ) :   0.8956 B(  2-C , 20-O ) :   1.0185
B(  2-C , 38-H ) :   0.6286 B(  3-O ,  4-C ) :   0.9724 B(  3-O ,  7-C ) :   0.1579
B(  4-C ,  5-C ) :   0.9786 B(  4-C ,  6-H ) :   0.9733 B(  4-C , 17-O ) :   0.1718
B(  4-C , 35-H ) :   0.9485 B(  5-C , 14-O ) :   0.1292 B(  5-C , 18-H ) :   0.8751
B(  7-C ,  8-C ) :   1.0132 B(  7-C , 12-C ) :   0.7279 B(  7-C , 20-O ) :   0.4386
B(  7-C , 21-H ) :   0.8138 B(  7-C , 28-N ) :  -0.2775 B(  8-C ,  9-C ) :   0.9949
B(  8-C , 12-C ) :   0.1332 B(  8-C , 22-O ) :   0.1442 B(  8-C , 23-H ) :   0.9811
B(  8-C , 28-N ) :   0.3200 B(  9-C , 10-C ) :   0.8881 B(  9-C , 22-O ) :   0.2690
B(  9-C , 28-N ) :   0.2418 B(  9-C , 29-H ) :   0.8842 B( 10-C , 11-O ) :   0.7939
B( 10-C , 25-O ) :   0.5358 B( 10-C , 26-H ) :   1.0685 B( 10-C , 28-N ) :   0.1265
B( 11-O , 12-C ) :   0.8217 B( 12-C , 13-H ) :   1.0923 B( 12-C , 36-H ) :   0.9509
B( 14-O , 15-H ) :  -0.1275 B( 14-O , 16-H ) :   0.9705 B( 17-O , 18-H ) :  -0.1113
B( 17-O , 19-H ) :   0.8587 B( 19-H , 32-N ) :   0.1330 B( 20-O , 21-H ) :  -0.1907
B( 22-O , 23-H ) :  -0.1385 B( 22-O , 24-H ) :   1.0173 B( 25-O , 27-H ) :   1.0232
B( 28-N , 30-H ) :   1.0636 B( 28-N , 31-H ) :   0.9585 B( 32-N , 33-H ) :   1.0813
B( 32-N , 34-H ) :   1.0109

MP2 TOTAL ENERGY:    -1027.474772108 Eh
FINAL SINGLE POINT ENERGY     -1027.474772107922

DIPOLE MOMENT
-------------
                                X             Y             Z
Electronic contribution:     -0.80175      -0.89154       0.09361
Nuclear contribution   :     -0.58143       0.63749      -0.44155
                        -----------------------------------------
Total Dipole Moment    :     -1.38318      -0.25405      -0.34794
                        -----------------------------------------
Magnitude (a.u.)       :      1.44872
Magnitude (Debye)      :      3.68234

Rotational constants in cm-1:     0.030670     0.006024     0.005705
Rotational constants in MHz :   919.459377   180.598040   171.025477

                             ****ORCA TERMINATED NORMALLY****
TOTAL RUN TIME: 0 days 0 hours 39 minutes 59 seconds 641 msec
