                         Program Version 4.2.1 -  RELEASE  -
|  1> %pal
|  2>  nprocs 32
|  3> end
|  4> !RI-MP2 aug-cc-pVTZ aug-cc-pVTZ/C TightSCF
|  5> %maxcore 4500
|  6> *xyzfile 0 2  04_25TS.xyz
|  7>
|  8>
|  9>                          ****END OF INPUT****

CARTESIAN COORDINATES (ANGSTROEM)
---------------------------------
  N     -0.461848    1.011770   -0.267501
  H      0.522059    0.949599   -0.034495
  C     -1.165155   -0.193404   -0.681548
  H     -1.845775    0.100144   -1.488238
  C     -0.197727   -1.229519   -1.227240
  C     -2.044007   -0.803540    0.428985
  H     -0.757935   -2.097743   -1.567518
  H      0.344136   -0.820079   -2.080522
  S      1.022884   -1.844711   -0.026759
  O     -1.924639   -1.966815    0.760190
  H      2.151526   -0.922688   -0.445558
  N     -2.954186    0.041197    0.953222
  H     -3.074828    0.974304    0.575066
  H     -3.583079   -0.316583    1.654015
  C     -1.034243    2.226629   -0.254776
  H     -0.325350    3.035149   -0.020333
  O     -2.215917    2.440849   -0.469682
  O      2.896485    0.043737   -0.758317
  O      2.568129    1.066541    0.074630
  C      3.297289    0.955798    1.300109
  H      3.053760    1.857243    1.860034
  H      2.967893    0.067254    1.842033
  H      4.364286    0.907733    1.085872

 Total Charge           Charge          ....    0
 Multiplicity           Mult            ....    2
 Number of Electrons    NEL             ....  103
 Basis Dimension        Dim             ....  809

ORBITAL ENERGIES
----------------
                 SPIN UP ORBITALS
  NO   OCC          E(Eh)            E(eV)
   0   1.0000     -91.967895     -2502.5737
   1   1.0000     -20.705255      -563.4186
   2   1.0000     -20.677825      -562.6722
   3   1.0000     -20.541231      -558.9553
   4   1.0000     -20.522439      -558.4440
   5   1.0000     -15.604801      -424.6282
   6   1.0000     -15.574570      -423.8056
   7   1.0000     -11.364862      -309.2536
   8   1.0000     -11.351696      -308.8954
   9   1.0000     -11.311225      -307.7941
  10   1.0000     -11.298984      -307.4610
  11   1.0000     -11.275593      -306.8245
  12   1.0000      -8.968148      -244.0357
  13   1.0000      -6.657715      -181.1656
  14   1.0000      -6.646664      -180.8649
  15   1.0000      -6.645564      -180.8350
  16   1.0000      -1.576401       -42.8961
  17   1.0000      -1.403766       -38.1984
  18   1.0000      -1.387355       -37.7519
  19   1.0000      -1.260725       -34.3061
  20   1.0000      -1.257239       -34.2112
  21   1.0000      -1.208044       -32.8725
  22   1.0000      -1.087090       -29.5812
  23   1.0000      -0.987586       -26.8736
  24   1.0000      -0.959995       -26.1228
  25   1.0000      -0.871849       -23.7242
  26   1.0000      -0.848377       -23.0855
  27   1.0000      -0.795867       -21.6566
  28   1.0000      -0.786324       -21.3970
  29   1.0000      -0.745850       -20.2956
  30   1.0000      -0.733599       -19.9623
  31   1.0000      -0.721921       -19.6445
  32   1.0000      -0.716556       -19.4985
  33   1.0000      -0.681163       -18.5354
  34   1.0000      -0.670269       -18.2389
  35   1.0000      -0.646601       -17.5949
  36   1.0000      -0.622586       -16.9414
  37   1.0000      -0.615545       -16.7498
  38   1.0000      -0.585334       -15.9278
  39   1.0000      -0.581222       -15.8159
  40   1.0000      -0.577416       -15.7123
  41   1.0000      -0.561709       -15.2849
  42   1.0000      -0.552090       -15.0231
  43   1.0000      -0.535496       -14.5716
  44   1.0000      -0.519239       -14.1292
  45   1.0000      -0.482435       -13.1277
  46   1.0000      -0.461845       -12.5674
  47   1.0000      -0.448604       -12.2071
  48   1.0000      -0.432964       -11.7816
  49   1.0000      -0.410971       -11.1831
  50   1.0000      -0.402878       -10.9629
  51   1.0000      -0.368231       -10.0201
  52   0.0000       0.021215         0.5773
  53   0.0000       0.033186         0.9030
  54   0.0000       0.034470         0.9380
  55   0.0000       0.038141         1.0379
  56   0.0000       0.046043         1.2529

                 SPIN DOWN ORBITALS
  NO   OCC          E(Eh)            E(eV)
   0   1.0000     -91.962882     -2502.4372
   1   1.0000     -20.674887      -562.5923
   2   1.0000     -20.672779      -562.5349
   3   1.0000     -20.541232      -558.9553
   4   1.0000     -20.522044      -558.4332
   5   1.0000     -15.604751      -424.6269
   6   1.0000     -15.574567      -423.8055
   7   1.0000     -11.364865      -309.2537
   8   1.0000     -11.351748      -308.8968
   9   1.0000     -11.311476      -307.8009
  10   1.0000     -11.298968      -307.4605
  11   1.0000     -11.275959      -306.8344
  12   1.0000      -8.962873      -243.8922
  13   1.0000      -6.644471      -180.8052
  14   1.0000      -6.642780      -180.7592
  15   1.0000      -6.634208      -180.5260
  16   1.0000      -1.529824       -41.6286
  17   1.0000      -1.403716       -38.1971
  18   1.0000      -1.386703       -37.7341
  19   1.0000      -1.260211       -34.2921
  20   1.0000      -1.207874       -32.8679
  21   1.0000      -1.192147       -32.4400
  22   1.0000      -1.079117       -29.3643
  23   1.0000      -0.968722       -26.3603
  24   1.0000      -0.950818       -25.8731
  25   1.0000      -0.852484       -23.1973
  26   1.0000      -0.844916       -22.9913
  27   1.0000      -0.785133       -21.3645
  28   1.0000      -0.747487       -20.3401
  29   1.0000      -0.734586       -19.9891
  30   1.0000      -0.718999       -19.5650
  31   1.0000      -0.706876       -19.2351
  32   1.0000      -0.691988       -18.8299
  33   1.0000      -0.680140       -18.5076
  34   1.0000      -0.667861       -18.1734
  35   1.0000      -0.622618       -16.9423
  36   1.0000      -0.615635       -16.7523
  37   1.0000      -0.587812       -15.9952
  38   1.0000      -0.580054       -15.7841
  39   1.0000      -0.573789       -15.6136
  40   1.0000      -0.560673       -15.2567
  41   1.0000      -0.554059       -15.0767
  42   1.0000      -0.544863       -14.8265
  43   1.0000      -0.512494       -13.9457
  44   1.0000      -0.493544       -13.4300
  45   1.0000      -0.458499       -12.4764
  46   1.0000      -0.447283       -12.1712
  47   1.0000      -0.433488       -11.7958
  48   1.0000      -0.411541       -11.1986
  49   1.0000      -0.401808       -10.9338
  50   1.0000      -0.360695        -9.8150
  51   0.0000       0.003501         0.0953
  52   0.0000       0.021527         0.5858
  53   0.0000       0.033282         0.9057
  54   0.0000       0.035034         0.9533
  55   0.0000       0.038227         1.0402

MULLIKEN ATOMIC CHARGES AND SPIN POPULATIONS
--------------------------------------------
   0 N :   -0.244056    0.003334
   1 H :    0.590596    0.001831
   2 C :    0.529924   -0.001990
   3 H :    0.337235   -0.000416
   4 C :   -0.225606   -0.045705
   5 C :    0.530378   -0.000239
   6 H :    0.221178    0.010942
   7 H :    0.227504    0.019785
   8 S :   -0.416174    0.623143
   9 O :   -0.893849    0.002560
  10 H :    0.358506   -0.377067
  11 N :   -0.476676   -0.000719
  12 H :    0.238738   -0.000059
  13 H :    0.126263    0.000108
  14 C :   -0.405275   -0.001062
  15 H :    0.635728   -0.000237
  16 O :   -0.861279   -0.000038
  17 O :   -0.338448    0.784875
  18 O :   -0.274706   -0.015363
  19 C :   -0.755329   -0.005795
  20 H :    0.369360   -0.001742
  21 H :    0.388456    0.004462
  22 H :    0.337534   -0.000610
Sum of atomic charges         :   -0.0000000

LOEWDIN ATOMIC CHARGES AND SPIN POPULATIONS
-------------------------------------------
   0 N :    0.542428    0.000609
   1 H :   -0.430741   -0.000778
   2 C :   -0.175681    0.000573
   3 H :   -0.142719   -0.000109
   4 C :   -0.087452    0.048671
   5 C :   -0.675694    0.001078
   6 H :   -0.227365    0.006843
   7 H :   -0.209346    0.002938
   8 S :    1.310387    0.293188
   9 O :    0.436038    0.008656
  10 H :   -0.936026    0.020217
  11 N :    0.863142   -0.000208
  12 H :   -0.427550   -0.000004
  13 H :   -0.278449    0.000007
  14 C :   -0.329282   -0.000052
  15 H :   -0.162459   -0.000068
  16 O :    0.458795   -0.000033
  17 O :    0.423036    0.556626
  18 O :    0.281992    0.071657
  19 C :    0.334286   -0.006697
  20 H :   -0.187330   -0.002364
  21 H :   -0.192594   -0.000273
  22 H :   -0.187417   -0.000475

  Mayer bond orders larger than 0.100000
B(  0-N ,  1-H ) :   0.4473 B(  0-N ,  2-C ) :   0.8492 B(  0-N , 14-C ) :   1.5088
B(  1-H , 14-C ) :  -0.2766 B(  1-H , 18-O ) :  -0.1222 B(  2-C ,  3-H ) :   0.8617
B(  2-C ,  4-C ) :   1.0039 B(  2-C ,  5-C ) :   0.5247 B(  2-C ,  8-S ) :   0.1432
B(  2-C , 14-C ) :  -0.1938 B(  4-C ,  6-H ) :   0.9894 B(  4-C ,  7-H ) :   0.9039
B(  4-C ,  8-S ) :   0.8344 B(  5-C ,  9-O ) :   1.2867 B(  5-C , 11-N ) :   0.9643
B(  8-S , 10-H ) :   0.4339 B( 10-H , 17-O ) :   0.1985 B( 11-N , 12-H ) :   0.9624
B( 11-N , 13-H ) :   1.0495 B( 14-C , 15-H ) :   0.5183 B( 14-C , 16-O ) :   1.6029
B( 17-O , 18-O ) :   0.8162 B( 18-O , 19-C ) :   0.8650 B( 19-C , 20-H ) :   0.8562
B( 19-C , 21-H ) :   0.8447 B( 19-C , 22-H ) :   0.9162

MP2 TOTAL ENERGY:    -1004.129467551 Eh
FINAL SINGLE POINT ENERGY     -1004.129467551441

DIPOLE MOMENT
-------------
                                X             Y             Z
Electronic contribution:     -2.48215      -2.75657      -1.07404
Nuclear contribution   :      3.75159       3.78772       1.36649
                        -----------------------------------------
Total Dipole Moment    :      1.26945       1.03115       0.29245
                        -----------------------------------------
Magnitude (a.u.)       :      1.66141
Magnitude (Debye)      :      4.22298

Rotational constants in cm-1:     0.032404     0.018347     0.013667
Rotational constants in MHz :   971.461901   550.029584   409.712496

                             ****ORCA TERMINATED NORMALLY****
TOTAL RUN TIME: 0 days 0 hours 21 minutes 30 seconds 357 msec
