                         Program Version 4.2.1 -  RELEASE  -
|  1> %pal
|  2>  nprocs 32
|  3> end
|  4> !RI-MP2 aug-cc-pVTZ aug-cc-pVTZ/C TightSCF
|  5> %maxcore 4500
|  6> *xyzfile 0 2  06_19R2.xyz
|  7>
|  8>
|  9>                          ****END OF INPUT****

CARTESIAN COORDINATES (ANGSTROEM)
---------------------------------
  Si     0.000493   -0.000060   -0.628883
  Si     2.264307   -0.036982   -0.050547
  Si    -1.163942   -1.941579   -0.050597
  Si    -1.100221    1.978538   -0.050564
  C      3.244125    1.163380   -1.119075
  H      4.299302    1.164681   -0.830696
  H      3.184811    0.891472   -2.175272
  H      2.868512    2.183854   -1.017772
  C      2.457264    0.465713    1.758204
  H      3.509365    0.438772    2.057478
  H      2.088540    1.479501    1.931069
  H      1.903195   -0.205595    2.418231
  C      2.961860   -1.772872   -0.271452
  H      4.026186   -1.793692   -0.020189
  H      2.455371   -2.493245    0.375131
  H      2.855349   -2.117560   -1.302481
  C     -0.831415   -2.355435    1.760527
  H     -1.139031   -1.538552    2.417405
  H     -1.381363   -3.252707    2.059964
  H      0.230352   -2.541928    1.938221
  C     -3.015346   -1.678982   -0.278180
  H     -3.257343   -1.417095   -1.310654
  H     -3.566058   -2.589828   -0.026310
  H     -3.388158   -0.878600    0.365166
  C     -0.610008   -3.392292   -1.114077
  H     -0.811429   -3.206936   -2.171462
  H      0.461101   -3.576887   -1.007897
  H     -1.137643   -4.306216   -0.826122
  C     -2.629173    2.226101   -1.119942
  H     -3.324611    1.390047   -1.018818
  H     -3.158567    3.139081   -0.832220
  H     -2.363345    2.310506   -2.175985
  C     -1.632506    1.893871    1.758041
  H     -2.135976    2.818146    2.057095
  H     -2.325416    1.067049    1.930953
  H     -0.774118    1.750550    2.418321
  C      0.054271    3.450658   -0.270700
  H     -0.459349    4.382662   -0.017862
  H      0.931969    3.371107    0.374904
  H      0.405017    3.531743   -1.302001

 Total Charge           Charge          ....    0
 Multiplicity           Mult            ....    2
 Number of Electrons    NEL             ....  137
 Basis Dimension        Dim             .... 1235

ORBITAL ENERGIES
----------------
                 SPIN UP ORBITALS
  NO   OCC          E(Eh)            E(eV)
   0   1.0000     -68.751474     -1870.8227
   1   1.0000     -68.751466     -1870.8225
   2   1.0000     -68.751445     -1870.8219
   3   1.0000     -68.732351     -1870.3023
   4   1.0000     -11.197575      -304.7015
   5   1.0000     -11.197563      -304.7012
   6   1.0000     -11.197562      -304.7012
   7   1.0000     -11.197331      -304.6949
   8   1.0000     -11.197331      -304.6949
   9   1.0000     -11.197308      -304.6942
  10   1.0000     -11.195134      -304.6351
  11   1.0000     -11.195116      -304.6346
  12   1.0000     -11.195114      -304.6345
  13   1.0000      -6.098857      -165.9583
  14   1.0000      -6.098851      -165.9582
  15   1.0000      -6.098832      -165.9577
  16   1.0000      -6.085519      -165.5954
  17   1.0000      -4.205073      -114.4258
  18   1.0000      -4.205067      -114.4257
  19   1.0000      -4.205047      -114.4252
  20   1.0000      -4.204918      -114.4216
  21   1.0000      -4.204912      -114.4215
  22   1.0000      -4.204894      -114.4210
  23   1.0000      -4.204739      -114.4168
  24   1.0000      -4.204733      -114.4166
  25   1.0000      -4.204713      -114.4161
  26   1.0000      -4.198523      -114.2476
  27   1.0000      -4.188255      -113.9682
  28   1.0000      -4.188254      -113.9682
  29   1.0000      -0.968528       -26.3550
  30   1.0000      -0.962745       -26.1976
  31   1.0000      -0.962731       -26.1972
  32   1.0000      -0.923213       -25.1219
  33   1.0000      -0.922770       -25.1098
  34   1.0000      -0.922755       -25.1094
  35   1.0000      -0.920408       -25.0456
  36   1.0000      -0.920390       -25.0451
  37   1.0000      -0.918760       -25.0007
  38   1.0000      -0.714467       -19.4416
  39   1.0000      -0.624541       -16.9946
  40   1.0000      -0.624520       -16.9941
  41   1.0000      -0.588007       -16.0005
  42   1.0000      -0.572158       -15.5692
  43   1.0000      -0.572115       -15.5681
  44   1.0000      -0.563257       -15.3270
  45   1.0000      -0.563201       -15.3255
  46   1.0000      -0.563169       -15.3246
  47   1.0000      -0.555928       -15.1276
  48   1.0000      -0.555269       -15.1096
  49   1.0000      -0.555254       -15.1092
  50   1.0000      -0.543549       -14.7907
  51   1.0000      -0.540409       -14.7053
  52   1.0000      -0.540387       -14.7047
  53   1.0000      -0.536595       -14.6015
  54   1.0000      -0.536548       -14.6002
  55   1.0000      -0.533556       -14.5188
  56   1.0000      -0.528463       -14.3802
  57   1.0000      -0.528073       -14.3696
  58   1.0000      -0.528021       -14.3682
  59   1.0000      -0.525056       -14.2875
  60   1.0000      -0.435426       -11.8485
  61   1.0000      -0.432691       -11.7741
  62   1.0000      -0.432688       -11.7741
  63   1.0000      -0.427437       -11.6311
  64   1.0000      -0.427427       -11.6309
  65   1.0000      -0.424487       -11.5509
  66   1.0000      -0.345303        -9.3962
  67   1.0000      -0.345265        -9.3951
  68   1.0000      -0.285973        -7.7817
  69   0.0000       0.023107         0.6288
  70   0.0000       0.028923         0.7870
  71   0.0000       0.028926         0.7871
  72   0.0000       0.032224         0.8769
  73   0.0000       0.040018         1.0889

                 SPIN DOWN ORBITALS
  NO   OCC          E(Eh)            E(eV)
   0   1.0000     -68.751715     -1870.8293
   1   1.0000     -68.751707     -1870.8291
   2   1.0000     -68.751686     -1870.8285
   3   1.0000     -68.726894     -1870.1539
   4   1.0000     -11.197395      -304.6966
   5   1.0000     -11.197395      -304.6966
   6   1.0000     -11.197372      -304.6960
   7   1.0000     -11.196868      -304.6823
   8   1.0000     -11.196856      -304.6819
   9   1.0000     -11.196854      -304.6819
  10   1.0000     -11.195150      -304.6355
  11   1.0000     -11.195133      -304.6350
  12   1.0000     -11.195131      -304.6350
  13   1.0000      -6.099204      -165.9678
  14   1.0000      -6.099198      -165.9676
  15   1.0000      -6.099179      -165.9671
  16   1.0000      -6.078160      -165.3951
  17   1.0000      -4.205742      -114.4441
  18   1.0000      -4.205734      -114.4438
  19   1.0000      -4.205714      -114.4433
  20   1.0000      -4.205108      -114.4268
  21   1.0000      -4.205103      -114.4267
  22   1.0000      -4.205083      -114.4261
  23   1.0000      -4.205022      -114.4245
  24   1.0000      -4.205016      -114.4243
  25   1.0000      -4.204998      -114.4238
  26   1.0000      -4.184366      -113.8624
  27   1.0000      -4.184365      -113.8624
  28   1.0000      -4.175713      -113.6269
  29   1.0000      -0.967302       -26.3216
  30   1.0000      -0.962190       -26.1825
  31   1.0000      -0.962177       -26.1822
  32   1.0000      -0.922597       -25.1051
  33   1.0000      -0.922592       -25.1050
  34   1.0000      -0.921911       -25.0865
  35   1.0000      -0.919411       -25.0184
  36   1.0000      -0.919386       -25.0178
  37   1.0000      -0.918874       -25.0038
  38   1.0000      -0.683536       -18.6000
  39   1.0000      -0.624299       -16.9880
  40   1.0000      -0.624279       -16.9875
  41   1.0000      -0.584868       -15.9151
  42   1.0000      -0.571611       -15.5543
  43   1.0000      -0.571570       -15.5532
  44   1.0000      -0.562993       -15.3198
  45   1.0000      -0.562969       -15.3192
  46   1.0000      -0.562162       -15.2972
  47   1.0000      -0.555023       -15.1029
  48   1.0000      -0.555005       -15.1025
  49   1.0000      -0.554604       -15.0915
  50   1.0000      -0.541675       -14.7397
  51   1.0000      -0.540088       -14.6965
  52   1.0000      -0.540071       -14.6961
  53   1.0000      -0.535743       -14.5783
  54   1.0000      -0.535690       -14.5769
  55   1.0000      -0.533515       -14.5177
  56   1.0000      -0.528311       -14.3761
  57   1.0000      -0.527840       -14.3632
  58   1.0000      -0.527788       -14.3618
  59   1.0000      -0.499498       -13.5920
  60   1.0000      -0.432333       -11.7644
  61   1.0000      -0.432328       -11.7642
  62   1.0000      -0.428713       -11.6659
  63   1.0000      -0.424781       -11.5589
  64   1.0000      -0.424763       -11.5584
  65   1.0000      -0.424592       -11.5537
  66   1.0000      -0.339440        -9.2366
  67   1.0000      -0.339397        -9.2355
  68   0.0000       0.022989         0.6256
  69   0.0000       0.028077         0.7640
  70   0.0000       0.028939         0.7875
  71   0.0000       0.028943         0.7876
  72   0.0000       0.040043         1.0896

MULLIKEN ATOMIC CHARGES AND SPIN POPULATIONS
--------------------------------------------
   0 Si:    0.401081    1.278810
   1 Si:    1.347418   -0.065344
   2 Si:    1.348664   -0.065119
   3 Si:    1.348494   -0.065074
   4 C :   -1.448263   -0.006310
   5 H :    0.192763    0.000629
   6 H :    0.252416   -0.003968
   7 H :    0.360713   -0.000091
   8 C :   -1.066831   -0.006442
   9 H :    0.180082    0.009351
  10 H :    0.343727   -0.005850
  11 H :    0.318679    0.000213
  12 C :   -1.342333   -0.011626
  13 H :    0.149016   -0.001007
  14 H :    0.340808   -0.000735
  15 H :    0.238299   -0.001931
  16 C :   -1.067765   -0.006490
  17 H :    0.320426    0.000240
  18 H :    0.179814    0.009364
  19 H :    0.342268   -0.005912
  20 C :   -1.341986   -0.011643
  21 H :    0.237808   -0.001977
  22 H :    0.148661   -0.001005
  23 H :    0.341276   -0.000755
  24 C :   -1.449254   -0.006257
  25 H :    0.252623   -0.003947
  26 H :    0.360126   -0.000045
  27 H :    0.193069    0.000602
  28 C :   -1.448113   -0.006286
  29 H :    0.360940   -0.000058
  30 H :    0.192987    0.000622
  31 H :    0.252403   -0.003925
  32 C :   -1.066517   -0.006472
  33 H :    0.180692    0.009351
  34 H :    0.342124   -0.005931
  35 H :    0.318530    0.000265
  36 C :   -1.342924   -0.011604
  37 H :    0.148471   -0.000998
  38 H :    0.342264   -0.000734
  39 H :    0.237346   -0.001908
Sum of atomic charges         :    0.0000000

LOEWDIN ATOMIC CHARGES AND SPIN POPULATIONS
-------------------------------------------
   0 Si:    0.675717    0.528432
   1 Si:    0.317823    0.120535
   2 Si:    0.317668    0.120545
   3 Si:    0.317837    0.120476
   4 C :    0.529899    0.003497
   5 H :   -0.230614   -0.000697
   6 H :   -0.235889    0.002405
   7 H :   -0.248152    0.000539
   8 C :    0.533171    0.021170
   9 H :   -0.228632    0.004147
  10 H :   -0.243399    0.001419
  11 H :   -0.237742    0.002157
  12 C :    0.526931    0.001383
  13 H :   -0.228844   -0.000638
  14 H :   -0.245322    0.000421
  15 H :   -0.234410    0.000878
  16 C :    0.533210    0.021205
  17 H :   -0.237827    0.002152
  18 H :   -0.228697    0.004155
  19 H :   -0.243184    0.001426
  20 C :    0.526935    0.001374
  21 H :   -0.234369    0.000889
  22 H :   -0.228810   -0.000643
  23 H :   -0.245454    0.000417
  24 C :    0.529971    0.003465
  25 H :   -0.235830    0.002399
  26 H :   -0.248397    0.000532
  27 H :   -0.230563   -0.000700
  28 C :    0.529921    0.003505
  29 H :   -0.248224    0.000540
  30 H :   -0.230581   -0.000696
  31 H :   -0.235885    0.002411
  32 C :    0.533153    0.021151
  33 H :   -0.228650    0.004143
  34 H :   -0.243384    0.001417
  35 H :   -0.237660    0.002152
  36 C :    0.526971    0.001380
  37 H :   -0.228804   -0.000639
  38 H :   -0.245471    0.000420
  39 H :   -0.234416    0.000876

  Mayer bond orders larger than 0.100000
B(  0-Si,  1-Si) :   0.8576 B(  0-Si,  2-Si) :   0.8613 B(  0-Si,  3-Si) :   0.8591
B(  1-Si,  4-C ) :   0.4444 B(  1-Si,  8-C ) :   0.5735 B(  1-Si, 12-C ) :   0.4589
B(  2-Si, 16-C ) :   0.5735 B(  2-Si, 20-C ) :   0.4588 B(  2-Si, 24-C ) :   0.4423
B(  3-Si, 28-C ) :   0.4447 B(  3-Si, 32-C ) :   0.5748 B(  3-Si, 36-C ) :   0.4571
B(  4-C ,  5-H ) :   1.0826 B(  4-C ,  6-H ) :   1.0377 B(  4-C ,  7-H ) :   0.8972
B(  4-C ,  8-C ) :   0.1878 B(  8-C ,  9-H ) :   0.9920 B(  8-C , 10-H ) :   0.9229
B(  8-C , 11-H ) :   0.9493 B( 12-C , 13-H ) :   1.1019 B( 12-C , 14-H ) :   0.9317
B( 12-C , 15-H ) :   1.0570 B( 16-C , 17-H ) :   0.9474 B( 16-C , 18-H ) :   0.9929
B( 16-C , 19-H ) :   0.9244 B( 16-C , 24-C ) :   0.1870 B( 20-C , 21-H ) :   1.0577
B( 20-C , 22-H ) :   1.1028 B( 20-C , 23-H ) :   0.9312 B( 24-C , 25-H ) :   1.0378
B( 24-C , 26-H ) :   0.8980 B( 24-C , 27-H ) :   1.0824 B( 28-C , 29-H ) :   0.8970
B( 28-C , 30-H ) :   1.0822 B( 28-C , 31-H ) :   1.0379 B( 28-C , 32-C ) :   0.1876
B( 32-C , 33-H ) :   0.9911 B( 32-C , 34-H ) :   0.9248 B( 32-C , 35-H ) :   0.9493
B( 36-C , 37-H ) :   1.1029 B( 36-C , 38-H ) :   0.9301 B( 36-C , 39-H ) :   1.0585

MP2 TOTAL ENERGY:    -1514.662709781 Eh
FINAL SINGLE POINT ENERGY     -1514.662709781435

DIPOLE MOMENT
-------------
                                X             Y             Z
Electronic contribution:      0.00363      -0.00008      -4.40348
Nuclear contribution   :     -0.00351       0.00034       4.52507
                        -----------------------------------------
Total Dipole Moment    :      0.00012       0.00027       0.12159
                        -----------------------------------------
Magnitude (a.u.)       :      0.12159
Magnitude (Debye)      :      0.30907

Rotational constants in cm-1:     0.014513     0.014505     0.009116
Rotational constants in MHz :   435.101709   434.837602   273.301774

                             ****ORCA TERMINATED NORMALLY****
TOTAL RUN TIME: 0 days 0 hours 55 minutes 55 seconds 7 msec
