                         Program Version 4.2.1 -  RELEASE  -
|  1> %pal
|  2>  nprocs 32
|  3> end
|  4> !RI-MP2 aug-cc-pVTZ aug-cc-pVTZ/C TightSCF
|  5> %maxcore 4500
|  6> *xyzfile 0 1  02_15P.xyz
|  7>
|  8>
|  9>                          ****END OF INPUT****

CARTESIAN COORDINATES (ANGSTROEM)
---------------------------------
  C      1.962075   -1.182307   -0.348862
  C      0.481549   -0.877082   -0.570867
  C      0.037856    0.241854    0.381190
  C      2.801403    0.076200   -0.544638
  H      2.098929   -1.565616    0.675830
  C      2.327942    1.224742    0.329472
  H      3.854147   -0.114335   -0.329173
  H      2.728483    0.380620   -1.592823
  C      0.845135    1.513781    0.112327
  H      2.481573    0.960790    1.388929
  C     -0.373973   -2.100976   -0.448887
  C     -1.545768   -2.120836    0.177041
  C     -1.501400    0.396480    0.409923
  C     -2.145688   -0.937207    0.885841
  H      0.529700    2.309937    0.787916
  H      0.693271    1.861398   -0.910968
  C     -2.124732   -1.193653    2.400276
  H     -2.759196   -2.067225    2.596482
  H     -2.554498   -0.355325    2.946175
  C     -2.041547    0.730538   -0.981419
  C     -3.981866    1.016557   -2.277895
  H     -3.633640    0.344273   -3.061566
  H     -3.729812    2.041048   -2.551005
  H     -5.053529    0.911539   -2.130567
  O     -3.383872    0.672228   -1.025257
  O      2.326406   -2.203752   -1.261722
  O      3.157242    2.332220    0.021494
  O     -1.387986    1.061425   -1.935620
  O     -0.834183   -1.396310    2.948957
  H     -0.415375   -2.113254    2.460135
  C      3.560191   -2.825222   -0.992714
  H      4.408594   -2.151851   -1.154165
  H      3.598199   -3.198977    0.038968
  H      3.649326   -3.667603   -1.677620
  C      3.065146    3.406953    0.924577
  H      3.854640    4.111130    0.664688
  H      2.101372    3.923864    0.859916
  H      3.215176    3.070075    1.958961
  C     -1.925157    1.557647    1.324880
  H     -1.678909    2.522473    0.880278
  H     -3.001426    1.537732    1.500654
  H     -1.410407    1.488676    2.284398
  H     -2.116864   -3.045027    0.213327
  H     -0.003341   -2.993733   -0.939682
  H     -3.207509   -0.886435    0.630750
  H      0.286661   -0.079356    1.397656
  H      0.396584   -0.516136   -1.601790

 Total Charge           Charge          ....    0
 Multiplicity           Mult            ....    1
 Number of Electrons    NEL             ....  162
 Basis Dimension        Dim             .... 1564

ORBITAL ENERGIES
----------------

  NO   OCC          E(Eh)            E(eV)
   0   2.0000     -20.602451      -560.6212
   1   2.0000     -20.557805      -559.4063
   2   2.0000     -20.552419      -559.2597
   3   2.0000     -20.548571      -559.1550
   4   2.0000     -20.541702      -558.9681
   5   2.0000     -11.374149      -309.5063
   6   2.0000     -11.285533      -307.0950
   7   2.0000     -11.279187      -306.9223
   8   2.0000     -11.276972      -306.8620
   9   2.0000     -11.272757      -306.7473
  10   2.0000     -11.268016      -306.6183
  11   2.0000     -11.264796      -306.5307
  12   2.0000     -11.257690      -306.3373
  13   2.0000     -11.239344      -305.8381
  14   2.0000     -11.227469      -305.5150
  15   2.0000     -11.226903      -305.4996
  16   2.0000     -11.226719      -305.4946
  17   2.0000     -11.225686      -305.4665
  18   2.0000     -11.220873      -305.3355
  19   2.0000     -11.210412      -305.0508
  20   2.0000     -11.208341      -304.9945
  21   2.0000      -1.465245       -39.8713
  22   2.0000      -1.375584       -37.4316
  23   2.0000      -1.370041       -37.2807
  24   2.0000      -1.364369       -37.1264
  25   2.0000      -1.360809       -37.0295
  26   2.0000      -1.160543       -31.5800
  27   2.0000      -1.098152       -29.8822
  28   2.0000      -1.065886       -29.0042
  29   2.0000      -1.019958       -27.7545
  30   2.0000      -0.999965       -27.2104
  31   2.0000      -0.977538       -26.6002
  32   2.0000      -0.957144       -26.0452
  33   2.0000      -0.919486       -25.0205
  34   2.0000      -0.915168       -24.9030
  35   2.0000      -0.903544       -24.5867
  36   2.0000      -0.835829       -22.7441
  37   2.0000      -0.827872       -22.5275
  38   2.0000      -0.809322       -22.0228
  39   2.0000      -0.779286       -21.2054
  40   2.0000      -0.764443       -20.8015
  41   2.0000      -0.735228       -20.0066
  42   2.0000      -0.698349       -19.0031
  43   2.0000      -0.687431       -18.7059
  44   2.0000      -0.676492       -18.4083
  45   2.0000      -0.670947       -18.2574
  46   2.0000      -0.667452       -18.1623
  47   2.0000      -0.662464       -18.0266
  48   2.0000      -0.652011       -17.7421
  49   2.0000      -0.644227       -17.5303
  50   2.0000      -0.633012       -17.2251
  51   2.0000      -0.628280       -17.0964
  52   2.0000      -0.617430       -16.8011
  53   2.0000      -0.610235       -16.6053
  54   2.0000      -0.606796       -16.5118
  55   2.0000      -0.594641       -16.1810
  56   2.0000      -0.583211       -15.8700
  57   2.0000      -0.577955       -15.7270
  58   2.0000      -0.574808       -15.6413
  59   2.0000      -0.562259       -15.2998
  60   2.0000      -0.557679       -15.1752
  61   2.0000      -0.540699       -14.7132
  62   2.0000      -0.532143       -14.4803
  63   2.0000      -0.524743       -14.2790
  64   2.0000      -0.519457       -14.1351
  65   2.0000      -0.516447       -14.0532
  66   2.0000      -0.504892       -13.7388
  67   2.0000      -0.499554       -13.5936
  68   2.0000      -0.498569       -13.5667
  69   2.0000      -0.485797       -13.2192
  70   2.0000      -0.482858       -13.1392
  71   2.0000      -0.477237       -12.9863
  72   2.0000      -0.462180       -12.5765
  73   2.0000      -0.460553       -12.5323
  74   2.0000      -0.456375       -12.4186
  75   2.0000      -0.439521       -11.9600
  76   2.0000      -0.429962       -11.6999
  77   2.0000      -0.413748       -11.2587
  78   2.0000      -0.411585       -11.1998
  79   2.0000      -0.403767       -10.9871
  80   2.0000      -0.354845        -9.6558
  81   0.0000       0.023099         0.6286
  82   0.0000       0.028767         0.7828
  83   0.0000       0.029305         0.7974
  84   0.0000       0.033412         0.9092
  85   0.0000       0.039155         1.0655

MULLIKEN ATOMIC CHARGES
-----------------------
   0 C :    0.419593
   1 C :    0.496368
   2 C :    0.884380
   3 C :   -0.634537
   4 H :    0.171132
   5 C :    0.994396
   6 H :    0.295509
   7 H :    0.021669
   8 C :   -1.243920
   9 H :    0.272519
  10 C :   -1.330412
  11 C :   -0.523280
  12 C :    1.699579
  13 C :    0.484207
  14 H :    0.357734
  15 H :   -0.058965
  16 C :   -0.355575
  17 H :    0.263380
  18 H :    0.245810
  19 C :    0.537119
  20 C :   -1.142966
  21 H :    0.417004
  22 H :    0.421878
  23 H :    0.330565
  24 O :   -0.546405
  25 O :   -0.879662
  26 O :   -0.985807
  27 O :   -1.191130
  28 O :   -0.781268
  29 H :    0.206489
  30 C :   -1.132646
  31 H :    0.369803
  32 H :    0.348889
  33 H :    0.329240
  34 C :   -1.076925
  35 H :    0.355285
  36 H :    0.346464
  37 H :    0.320394
  38 C :   -1.382551
  39 H :    0.235509
  40 H :   -0.029504
  41 H :    0.260671
  42 H :    0.387438
  43 H :    0.237539
  44 H :    0.327166
  45 H :    1.079359
  46 H :    0.178464
Sum of atomic charges:    0.0000000

LOEWDIN ATOMIC CHARGES
----------------------
   0 C :   -0.250689
   1 C :    0.001784
   2 C :    0.026896
   3 C :    0.318823
   4 H :   -0.122864
   5 C :   -0.254898
   6 H :   -0.146936
   7 H :   -0.122546
   8 C :    0.327639
   9 H :   -0.124326
  10 C :    0.278628
  11 C :    0.254459
  12 C :   -0.245333
  13 C :   -0.002640
  14 H :   -0.165845
  15 H :   -0.145157
  16 C :    0.068380
  17 H :   -0.140064
  18 H :   -0.171592
  19 C :   -0.772758
  20 C :    0.367741
  21 H :   -0.176909
  22 H :   -0.177698
  23 H :   -0.183228
  24 O :    0.595728
  25 O :    0.592375
  26 O :    0.589443
  27 O :    0.534681
  28 O :    0.840490
  29 H :   -0.497175
  30 C :    0.330772
  31 H :   -0.182262
  32 H :   -0.172025
  33 H :   -0.181926
  34 C :    0.325663
  35 H :   -0.183365
  36 H :   -0.182860
  37 H :   -0.172664
  38 C :    0.599011
  39 H :   -0.155317
  40 H :   -0.149727
  41 H :   -0.147341
  42 H :   -0.163468
  43 H :   -0.171827
  44 H :   -0.170731
  45 H :   -0.167616
  46 H :   -0.150728

  Mayer bond orders larger than 0.100000
B(  0-C ,  1-C ) :   1.0037 B(  0-C ,  2-C ) :   0.1784 B(  0-C ,  3-C ) :   0.9397
B(  0-C ,  4-H ) :   1.1672 B(  0-C , 10-C ) :   0.1449 B(  0-C , 11-C ) :  -0.1497
B(  0-C , 25-O ) :   0.3778 B(  0-C , 30-C ) :  -0.1957 B(  0-C , 45-H ) :  -0.1589
B(  0-C , 46-H ) :  -0.1170 B(  1-C ,  2-C ) :   1.0282 B(  1-C ,  3-C ) :   0.1093
B(  1-C , 10-C ) :   0.4343 B(  1-C , 12-C ) :   0.4915 B(  1-C , 13-C ) :  -0.1739
B(  1-C , 19-C ) :  -0.1307 B(  1-C , 25-O ) :  -0.2578 B(  1-C , 27-O ) :  -0.1381
B(  1-C , 42-H ) :   0.1140 B(  1-C , 45-H ) :  -0.2532 B(  1-C , 46-H ) :   1.1570
B(  2-C ,  3-C ) :  -0.1095 B(  2-C ,  8-C ) :   0.2963 B(  2-C , 10-C ) :  -0.1413
B(  2-C , 11-C ) :   0.2811 B(  2-C , 12-C ) :   0.7539 B(  2-C , 15-H ) :  -0.3050
B(  2-C , 16-C ) :   0.1507 B(  2-C , 19-C ) :   0.7414 B(  2-C , 28-O ) :   0.1517
B(  2-C , 34-C ) :   0.1267 B(  2-C , 45-H ) :   0.5549 B(  3-C ,  5-C ) :   0.8411
B(  3-C ,  6-H ) :   0.8693 B(  3-C ,  7-H ) :   1.1605 B(  3-C ,  8-C ) :   0.2570
B(  3-C , 10-C ) :  -0.1087 B(  3-C , 25-O ) :   0.1559 B(  3-C , 26-O ) :   0.1202
B(  4-H , 25-O ) :  -0.1304 B(  5-C ,  8-C ) :   1.0093 B(  5-C ,  9-H ) :   1.1171
B(  5-C , 26-O ) :  -0.3106 B(  5-C , 34-C ) :  -0.2421 B(  8-C , 14-H ) :   0.9270
B(  8-C , 15-H ) :   1.4823 B(  8-C , 19-C ) :  -0.2738 B(  8-C , 26-O ) :   0.3987
B(  8-C , 45-H ) :  -0.2810 B(  9-H , 26-O ) :  -0.2229 B( 10-C , 11-C ) :   1.7201
B( 10-C , 12-C ) :   0.5312 B( 10-C , 19-C ) :  -0.1512 B( 10-C , 25-O ) :   0.1813
B( 10-C , 42-H ) :  -0.1587 B( 10-C , 43-H ) :   0.9848 B( 10-C , 46-H ) :  -0.3119
B( 11-C , 12-C ) :   0.9059 B( 11-C , 13-C ) :   0.1531 B( 11-C , 19-C ) :  -0.1237
B( 11-C , 42-H ) :   0.8538 B( 11-C , 44-H ) :  -0.1724 B( 11-C , 45-H ) :  -0.1790
B( 12-C , 13-C ) :   1.1076 B( 12-C , 15-H ) :   0.1382 B( 12-C , 19-C ) :  -0.1073
B( 12-C , 24-O ) :  -1.3518 B( 12-C , 38-C ) :  -0.1725 B( 12-C , 39-H ) :  -0.1250
B( 12-C , 40-H ) :  -0.4664 B( 12-C , 41-H ) :  -0.2522 B( 12-C , 45-H ) :  -0.4444
B( 13-C , 16-C ) :   0.7150 B( 13-C , 24-O ) :   0.3666 B( 13-C , 38-C ) :   0.1442
B( 13-C , 43-H ) :  -0.1080 B( 13-C , 44-H ) :   1.0347 B( 13-C , 45-H ) :  -0.1260
B( 16-C , 17-H ) :   1.0800 B( 16-C , 18-H ) :   1.0586 B( 16-C , 28-O ) :   0.7738
B( 19-C , 20-C ) :  -0.2428 B( 19-C , 24-O ) :   1.3372 B( 19-C , 27-O ) :   0.8725
B( 19-C , 39-H ) :  -0.1027 B( 20-C , 21-H ) :   0.8618 B( 20-C , 22-H ) :   0.8488
B( 20-C , 23-H ) :   0.9622 B( 20-C , 24-O ) :   1.0674 B( 24-O , 38-C ) :   0.2390
B( 24-O , 40-H ) :   0.1232 B( 25-O , 30-C ) :   1.2411 B( 26-O , 34-C ) :   1.2250
B( 27-O , 46-H ) :   0.1291 B( 28-O , 29-H ) :   0.9689 B( 28-O , 45-H ) :  -0.3931
B( 30-C , 31-H ) :   0.8595 B( 30-C , 32-H ) :   0.8905 B( 30-C , 33-H ) :   1.0092
B( 34-C , 35-H ) :   0.9773 B( 34-C , 36-H ) :   0.8806 B( 34-C , 37-H ) :   0.9115
B( 38-C , 39-H ) :   1.1142 B( 38-C , 40-H ) :   1.4624 B( 38-C , 41-H ) :   1.1526

MP2 TOTAL ENERGY:     -999.620018924 Eh
FINAL SINGLE POINT ENERGY      -999.620018923814

DIPOLE MOMENT
-------------
                                X             Y             Z
Electronic contribution:     -5.24003      -2.96929      -4.86085
Nuclear contribution   :      4.41539       2.76945       5.42053
                        -----------------------------------------
Total Dipole Moment    :     -0.82464      -0.19984       0.55968
                        -----------------------------------------
Magnitude (a.u.)       :      1.01647
Magnitude (Debye)      :      2.58365

Rotational constants in cm-1:     0.012332     0.007887     0.006873
Rotational constants in MHz :   369.694271   236.447321   206.035250

                             ****ORCA TERMINATED NORMALLY****
TOTAL RUN TIME: 0 days 1 hours 27 minutes 37 seconds 451 msec
