                         Program Version 4.2.1 -  RELEASE  -
|  1> %pal
|  2>  nprocs 32
|  3> end
|  4> !RI-MP2 aug-cc-pVTZ aug-cc-pVTZ/C TightSCF
|  5> %maxcore 4500
|  6> *xyzfile 0 1  06_28R.xyz
|  7>
|  8>
|  9>                          ****END OF INPUT****

CARTESIAN COORDINATES (ANGSTROEM)
---------------------------------
  C      0.119974   -2.817476    0.101194
  C     -0.204308   -1.488519    0.837928
  C      2.561577   -0.686739   -0.340166
  H     -0.820892   -3.250305   -0.247757
  C      0.597200   -1.313426    2.146251
  H      0.445228   -0.301056    2.536511
  H      0.164516   -1.986374    2.894288
  H      3.435075   -0.238635   -0.822912
  H     -1.254359   -1.535584    1.137462
  C      2.091589   -1.608353    2.071440
  H      2.504429   -1.531845    3.082206
  H      2.238263   -2.651701    1.779235
  C      2.919834   -0.710839    1.157300
  H      2.901102    0.310427    1.548466
  H      3.962466   -1.036660    1.238010
  C      2.442975   -2.112615   -0.938079
  H      2.905723   -2.104840   -1.929785
  C      1.037993   -2.700113   -1.122841
  H      0.518111   -2.112554   -1.889101
  H      1.151299   -3.696733   -1.560713
  H      3.049362   -2.799903   -0.338966
  H      0.536277   -3.540344    0.809554
  C      1.353918    0.209126   -0.689513
  H      1.258736    0.249225   -1.785536
  Si     1.562388    2.064576   -0.293402
  C      0.944563    2.505841    1.430124
  H      1.515817    2.017248    2.221565
  H      1.016514    3.585084    1.590212
  H     -0.105072    2.228257    1.556759
  C      0.562471    3.047826   -1.540400
  H      0.638872    4.120839   -1.345440
  H      0.916666    2.869400   -2.559211
  H     -0.491041    2.766189   -1.499289
  C      3.371479    2.554328   -0.447720
  H      3.758411    2.325012   -1.444059
  H      3.483213    3.630794   -0.291803
  H      4.007251    2.047125    0.280633
  B     -0.022074   -0.297885   -0.171814
  C     -3.113602    0.744922    0.503388
  C     -4.510404    0.491985    0.802823
  H     -4.986467   -0.297546    0.230800
  C     -5.213159    1.157555    1.718174
  H     -4.767565    1.948955    2.311462
  H     -6.255377    0.931364    1.902698
  C     -2.410037    0.052894   -0.392429
  O     -1.122489    0.358008   -0.706588
  O     -2.918177   -1.008664   -1.053620
  C     -2.669837   -1.062463   -2.457498
  H     -3.189147   -1.947095   -2.817730
  H     -3.069388   -0.172004   -2.949621
  H     -1.604028   -1.148654   -2.670833
  H     -2.595074    1.528924    1.041395

 Total Charge           Charge          ....    0
 Multiplicity           Mult            ....    1
 Number of Electrons    NEL             ....  168
 Basis Dimension        Dim             .... 1683

ORBITAL ENERGIES
----------------

  NO   OCC          E(Eh)            E(eV)
   0   2.0000     -68.749158     -1870.7597
   1   2.0000     -20.590792      -560.3039
   2   2.0000     -20.581813      -560.0596
   3   2.0000     -11.351753      -308.8969
   4   2.0000     -11.288465      -307.1747
   5   2.0000     -11.229309      -305.5650
   6   2.0000     -11.224544      -305.4354
   7   2.0000     -11.219881      -305.3085
   8   2.0000     -11.218231      -305.2636
   9   2.0000     -11.215692      -305.1945
  10   2.0000     -11.215182      -305.1806
  11   2.0000     -11.214437      -305.1603
  12   2.0000     -11.213367      -305.1312
  13   2.0000     -11.212080      -305.0962
  14   2.0000     -11.210975      -305.0662
  15   2.0000     -11.194323      -304.6130
  16   2.0000     -11.194015      -304.6046
  17   2.0000     -11.193053      -304.5784
  18   2.0000     -11.186880      -304.4105
  19   2.0000     -11.180206      -304.2289
  20   2.0000      -7.609698      -207.0704
  21   2.0000      -6.096018      -165.8811
  22   2.0000      -4.202296      -114.3503
  23   2.0000      -4.202226      -114.3484
  24   2.0000      -4.202123      -114.3456
  25   2.0000      -1.452965       -39.5372
  26   2.0000      -1.372302       -37.3422
  27   2.0000      -1.116236       -30.3743
  28   2.0000      -1.083981       -29.4966
  29   2.0000      -1.048819       -28.5398
  30   2.0000      -1.044843       -28.4316
  31   2.0000      -1.005268       -27.3547
  32   2.0000      -0.977055       -26.5870
  33   2.0000      -0.950390       -25.8614
  34   2.0000      -0.938176       -25.5291
  35   2.0000      -0.921729       -25.0815
  36   2.0000      -0.918396       -24.9908
  37   2.0000      -0.915568       -24.9139
  38   2.0000      -0.883393       -24.0384
  39   2.0000      -0.834980       -22.7210
  40   2.0000      -0.798706       -21.7339
  41   2.0000      -0.785781       -21.3822
  42   2.0000      -0.759307       -20.6618
  43   2.0000      -0.728499       -19.8235
  44   2.0000      -0.717811       -19.5326
  45   2.0000      -0.694628       -18.9018
  46   2.0000      -0.676494       -18.4083
  47   2.0000      -0.660131       -17.9631
  48   2.0000      -0.641406       -17.4535
  49   2.0000      -0.630465       -17.1558
  50   2.0000      -0.618774       -16.8377
  51   2.0000      -0.611322       -16.6349
  52   2.0000      -0.601512       -16.3680
  53   2.0000      -0.593119       -16.1396
  54   2.0000      -0.589527       -16.0419
  55   2.0000      -0.577224       -15.7071
  56   2.0000      -0.572618       -15.5817
  57   2.0000      -0.568478       -15.4691
  58   2.0000      -0.563968       -15.3463
  59   2.0000      -0.560652       -15.2561
  60   2.0000      -0.559523       -15.2254
  61   2.0000      -0.550899       -14.9907
  62   2.0000      -0.544623       -14.8200
  63   2.0000      -0.541122       -14.7247
  64   2.0000      -0.533758       -14.5243
  65   2.0000      -0.527320       -14.3491
  66   2.0000      -0.524995       -14.2858
  67   2.0000      -0.510303       -13.8860
  68   2.0000      -0.494915       -13.4673
  69   2.0000      -0.494594       -13.4586
  70   2.0000      -0.488072       -13.2811
  71   2.0000      -0.482456       -13.1283
  72   2.0000      -0.479253       -13.0411
  73   2.0000      -0.469583       -12.7780
  74   2.0000      -0.459831       -12.5126
  75   2.0000      -0.443608       -12.0712
  76   2.0000      -0.431349       -11.7376
  77   2.0000      -0.430844       -11.7239
  78   2.0000      -0.425854       -11.5881
  79   2.0000      -0.417917       -11.3721
  80   2.0000      -0.414817       -11.2877
  81   2.0000      -0.408749       -11.1226
  82   2.0000      -0.381086       -10.3699
  83   2.0000      -0.297653        -8.0995
  84   0.0000       0.021825         0.5939
  85   0.0000       0.026845         0.7305
  86   0.0000       0.028894         0.7862
  87   0.0000       0.029818         0.8114
  88   0.0000       0.037911         1.0316

MULLIKEN ATOMIC CHARGES
-----------------------
   0 C :   -0.798046
   1 C :    0.917163
   2 C :    0.138090
   3 H :    0.152713
   4 C :   -0.845463
   5 H :    0.066850
   6 H :    0.153807
   7 H :    0.047383
   8 H :    0.288717
   9 C :   -0.395751
  10 H :    0.420889
  11 H :   -0.086177
  12 C :   -0.397142
  13 H :    0.156928
  14 H :    0.111740
  15 C :   -0.937374
  16 H :    0.208208
  17 C :   -0.457386
  18 H :    0.220381
  19 H :    0.423401
  20 H :   -0.095735
  21 H :    0.008652
  22 C :    1.173764
  23 H :    0.352482
  24 Si:    3.460049
  25 C :   -1.436031
  26 H :    0.157594
  27 H :    0.179432
  28 H :    0.457694
  29 C :   -2.196755
  30 H :    0.067052
  31 H :    0.145282
  32 H :    0.426453
  33 C :   -1.752196
  34 H :    0.203397
  35 H :    0.092195
  36 H :    0.293794
  37 B :   -0.111815
  38 C :   -0.205966
  39 C :   -0.374367
  40 H :    0.237412
  41 C :   -1.253910
  42 H :    0.340253
  43 H :    0.369628
  44 C :    0.596145
  45 O :   -0.010682
  46 O :   -0.958079
  47 C :   -1.189021
  48 H :    0.367506
  49 H :    0.336957
  50 H :    0.494068
  51 H :    0.435818
Sum of atomic charges:    0.0000000

LOEWDIN ATOMIC CHARGES
----------------------
   0 C :    0.337450
   1 C :    0.156656
   2 C :   -0.001088
   3 H :   -0.134375
   4 C :    0.323962
   5 H :   -0.140115
   6 H :   -0.129134
   7 H :   -0.151656
   8 H :   -0.165787
   9 C :    0.312319
  10 H :   -0.130996
  11 H :   -0.163432
  12 C :    0.316104
  13 H :   -0.173300
  14 H :   -0.126269
  15 C :    0.342804
  16 H :   -0.135411
  17 C :    0.316584
  18 H :   -0.156907
  19 H :   -0.131278
  20 H :   -0.144490
  21 H :   -0.145445
  22 C :    0.158790
  23 H :   -0.184635
  24 Si:    0.528614
  25 C :    0.605358
  26 H :   -0.232184
  27 H :   -0.218188
  28 H :   -0.227054
  29 C :    0.596533
  30 H :   -0.223984
  31 H :   -0.222543
  32 H :   -0.236751
  33 C :    0.595162
  34 H :   -0.219851
  35 H :   -0.223883
  36 H :   -0.230353
  37 B :   -0.758105
  38 C :    0.180921
  39 C :    0.133468
  40 H :   -0.199170
  41 C :    0.512070
  42 H :   -0.226562
  43 H :   -0.234340
  44 C :   -0.666633
  45 O :    0.673032
  46 O :    0.584857
  47 C :    0.381038
  48 H :   -0.174902
  49 H :   -0.160818
  50 H :   -0.188219
  51 H :   -0.197867

  Mayer bond orders larger than 0.100000
B(  0-C ,  1-C ) :   0.6184 B(  0-C ,  3-H ) :   1.1462 B(  0-C ,  8-H ) :  -0.3342
B(  0-C , 17-C ) :   0.7205 B(  0-C , 19-H ) :  -0.1554 B(  0-C , 21-H ) :   1.2694
B(  0-C , 37-B ) :   0.4383 B(  1-C ,  3-H ) :  -0.1094 B(  1-C ,  4-C ) :   0.5149
B(  1-C ,  6-H ) :  -0.1458 B(  1-C ,  8-H ) :   1.1212 B(  1-C ,  9-C ) :   0.1081
B(  1-C , 37-B ) :   0.4480 B(  1-C , 38-C ) :   0.1218 B(  1-C , 45-O ) :   0.2656
B(  2-C ,  7-H ) :   1.1652 B(  2-C ,  9-C ) :   0.1505 B(  2-C , 12-C ) :   0.7939
B(  2-C , 14-H ) :  -0.1033 B(  2-C , 15-C ) :   0.5995 B(  2-C , 20-H ) :  -0.1371
B(  2-C , 22-C ) :   0.8083 B(  2-C , 23-H ) :  -0.1677 B(  2-C , 24-Si) :   0.1782
B(  2-C , 37-B ) :   0.5764 B(  4-C ,  5-H ) :   1.3770 B(  4-C ,  6-H ) :   1.1494
B(  4-C ,  8-H ) :  -0.3622 B(  4-C ,  9-C ) :   0.7219 B(  4-C , 11-H ) :   0.1176
B(  4-C , 12-C ) :   0.1051 B(  4-C , 37-B ) :   0.1159 B(  5-H ,  8-H ) :  -0.1252
B(  5-H , 37-B ) :  -0.1191 B(  6-H ,  9-C ) :  -0.1023 B(  7-H , 15-C ) :  -0.2871
B(  7-H , 22-C ) :  -0.2531 B(  8-H , 37-B ) :  -0.3887 B(  8-H , 46-O ) :   0.1787
B(  9-C , 10-H ) :   0.7969 B(  9-C , 11-H ) :   1.3990 B(  9-C , 12-C ) :   0.7322
B(  9-C , 14-H ) :  -0.1240 B(  9-C , 37-B ) :  -0.1503 B( 11-H , 37-B ) :  -0.1752
B( 12-C , 13-H ) :   0.9717 B( 12-C , 14-H ) :   1.1975 B( 12-C , 24-Si) :  -0.1005
B( 12-C , 37-B ) :  -0.1189 B( 13-H , 37-B ) :   0.1354 B( 15-C , 16-H ) :   1.0426
B( 15-C , 17-C ) :   0.7929 B( 15-C , 18-H ) :   0.1093 B( 15-C , 20-H ) :   1.4600
B( 15-C , 22-C ) :   0.1424 B( 17-C , 18-H ) :   1.1611 B( 17-C , 19-H ) :   0.8716
B( 17-C , 37-B ) :  -0.1367 B( 22-C , 23-H ) :   0.9054 B( 22-C , 24-Si) :   0.6262
B( 22-C , 25-C ) :   0.1745 B( 22-C , 33-C ) :   0.1730 B( 22-C , 37-B ) :   0.6536
B( 22-C , 38-C ) :  -0.2324 B( 22-C , 45-O ) :  -0.5705 B( 22-C , 51-H ) :  -0.1099
B( 23-H , 24-Si) :  -0.1065 B( 23-H , 29-C ) :   0.1101 B( 23-H , 37-B ) :  -0.3816
B( 24-Si, 27-H ) :  -0.1084 B( 24-Si, 29-C ) :  -1.5535 B( 24-Si, 30-H ) :  -0.2551
B( 24-Si, 31-H ) :  -0.1992 B( 24-Si, 33-C ) :  -0.8435 B( 24-Si, 34-H ) :  -0.1209
B( 24-Si, 35-H ) :  -0.1675 B( 24-Si, 45-O ) :   0.1776 B( 25-C , 26-H ) :   1.2206
B( 25-C , 27-H ) :   1.0016 B( 25-C , 28-H ) :   0.7973 B( 25-C , 29-C ) :   0.1892
B( 25-C , 33-C ) :   0.1864 B( 29-C , 30-H ) :   1.4085 B( 29-C , 31-H ) :   1.2736
B( 29-C , 32-H ) :   0.9195 B( 29-C , 33-C ) :   0.1110 B( 33-C , 34-H ) :   1.1434
B( 33-C , 35-H ) :   1.2453 B( 33-C , 36-H ) :   1.0372 B( 37-B , 39-C ) :   0.1149
B( 37-B , 45-O ) :  -0.8006 B( 37-B , 46-O ) :   0.2350 B( 37-B , 47-C ) :   0.1148
B( 38-C , 39-C ) :   0.1182 B( 38-C , 44-C ) :   1.7142 B( 38-C , 45-O ) :  -0.4551
B( 38-C , 46-O ) :  -0.2942 B( 38-C , 51-H ) :   0.9171 B( 39-C , 40-H ) :   1.1985
B( 39-C , 41-C ) :   1.0806 B( 39-C , 44-C ) :   0.3947 B( 39-C , 45-O ) :  -0.2059
B( 40-H , 51-H ) :   0.1372 B( 41-C , 42-H ) :   0.9580 B( 41-C , 43-H ) :   0.9118
B( 41-C , 44-C ) :   0.1605 B( 44-C , 45-O ) :   0.1273 B( 44-C , 46-O ) :   0.8490
B( 44-C , 47-C ) :  -0.1070 B( 45-O , 46-O ) :  -1.2451 B( 45-O , 47-C ) :  -0.1383
B( 46-O , 47-C ) :   1.2106 B( 47-C , 48-H ) :   0.9517 B( 47-C , 49-H ) :   0.9497
B( 47-C , 50-H ) :   0.7226

MP2 TOTAL ENERGY:    -1129.150398711 Eh
FINAL SINGLE POINT ENERGY     -1129.150398711243

DIPOLE MOMENT
-------------
                                X             Y             Z
Electronic contribution:    -10.92622      -0.68278      -2.72883
Nuclear contribution   :     11.46191       0.32079       2.20111
                        -----------------------------------------
Total Dipole Moment    :      0.53569      -0.36199      -0.52773
                        -----------------------------------------
Magnitude (a.u.)       :      0.83457
Magnitude (Debye)      :      2.12130

Rotational constants in cm-1:     0.011991     0.007418     0.006172
Rotational constants in MHz :   359.475720   222.387202   185.017991

                             ****ORCA TERMINATED NORMALLY****
TOTAL RUN TIME: 0 days 2 hours 1 minutes 27 seconds 567 msec
