                         Program Version 4.2.1 -  RELEASE  -
|  1> %pal
|  2>  nprocs 32
|  3> end
|  4> !RI-MP2 aug-cc-pVTZ aug-cc-pVTZ/C TightSCF
|  5> %maxcore 4500
|  6> *xyzfile 1 1  05_34P1.xyz
|  7>
|  8>
|  9>                          ****END OF INPUT****

CARTESIAN COORDINATES (ANGSTROEM)
---------------------------------
  C      0.696479    0.990839    0.000003
  C     -0.696478    0.990837   -0.000010
  C     -0.000001    2.158916    0.000023
  H     -0.000002    3.236861    0.000033
  C     -1.951238    0.321128   -0.000007
  C     -3.129848    1.080794    0.000169
  C     -2.014101   -1.078445   -0.000183
  C     -4.354103    0.443329    0.000182
  H     -3.075067    2.162550    0.000300
  C     -3.243037   -1.707765   -0.000184
  H     -1.103682   -1.662691   -0.000337
  C     -4.408204   -0.947337    0.000004
  H     -5.268054    1.022566    0.000324
  H     -3.299999   -2.788306   -0.000328
  H     -5.370439   -1.444553    0.000009
  C      1.951239    0.321130   -0.000001
  C      2.014101   -1.078444    0.000077
  C      3.129850    1.080794   -0.000074
  C      3.243036   -1.707765    0.000080
  H      1.103680   -1.662689    0.000149
  C      4.354104    0.443328   -0.000079
  H      3.075069    2.162550   -0.000133
  C      4.408203   -0.947338   -0.000002
  H      3.299997   -2.788306    0.000144
  H      5.268056    1.022564   -0.000140
  H      5.370438   -1.444555   -0.000003

 Total Charge           Charge          ....    1
 Multiplicity           Mult            ....    1
 Number of Electrons    NEL             ....  100
 Basis Dimension        Dim             ....  943

ORBITAL ENERGIES
----------------

  NO   OCC          E(Eh)            E(eV)
   0   2.0000     -11.481251      -312.4207
   1   2.0000     -11.479942      -312.3851
   2   2.0000     -11.465869      -312.0022
   3   2.0000     -11.399859      -310.2059
   4   2.0000     -11.399858      -310.2059
   5   2.0000     -11.391986      -309.9917
   6   2.0000     -11.391985      -309.9917
   7   2.0000     -11.390521      -309.9518
   8   2.0000     -11.390521      -309.9518
   9   2.0000     -11.381646      -309.7103
  10   2.0000     -11.381646      -309.7103
  11   2.0000     -11.368040      -309.3401
  12   2.0000     -11.368040      -309.3401
  13   2.0000     -11.367484      -309.3250
  14   2.0000     -11.367483      -309.3249
  15   2.0000      -1.429243       -38.8917
  16   2.0000      -1.308856       -35.6158
  17   2.0000      -1.302477       -35.4422
  18   2.0000      -1.192070       -32.4379
  19   2.0000      -1.179358       -32.0920
  20   2.0000      -1.165144       -31.7052
  21   2.0000      -1.164011       -31.6744
  22   2.0000      -1.029125       -28.0039
  23   2.0000      -1.017911       -27.6988
  24   2.0000      -0.981981       -26.7211
  25   2.0000      -0.972083       -26.4517
  26   2.0000      -0.951472       -25.8909
  27   2.0000      -0.902926       -24.5699
  28   2.0000      -0.881815       -23.9954
  29   2.0000      -0.823311       -22.4034
  30   2.0000      -0.817765       -22.2525
  31   2.0000      -0.788068       -21.4444
  32   2.0000      -0.781983       -21.2789
  33   2.0000      -0.755849       -20.5677
  34   2.0000      -0.750349       -20.4180
  35   2.0000      -0.736678       -20.0460
  36   2.0000      -0.730746       -19.8846
  37   2.0000      -0.726378       -19.7657
  38   2.0000      -0.700585       -19.0639
  39   2.0000      -0.688416       -18.7327
  40   2.0000      -0.656686       -17.8693
  41   2.0000      -0.650127       -17.6909
  42   2.0000      -0.644654       -17.5419
  43   2.0000      -0.634129       -17.2555
  44   2.0000      -0.629958       -17.1420
  45   2.0000      -0.627317       -17.0702
  46   2.0000      -0.503681       -13.7059
  47   2.0000      -0.480664       -13.0795
  48   2.0000      -0.479335       -13.0434
  49   2.0000      -0.468017       -12.7354
  50   0.0000      -0.097522        -2.6537
  51   0.0000      -0.082927        -2.2566
  52   0.0000      -0.068458        -1.8628
  53   0.0000      -0.056062        -1.5255
  54   0.0000      -0.051217        -1.3937

MULLIKEN ATOMIC CHARGES
-----------------------
   0 C :    1.152229
   1 C :    1.152338
   2 C :   -0.952201
   3 H :    0.358589
   4 C :    2.840111
   5 C :   -1.295400
   6 C :   -1.174059
   7 C :   -0.688136
   8 H :   -0.471066
   9 C :   -1.021777
  10 H :   -0.132695
  11 C :   -0.087982
  12 H :    0.648391
  13 H :    0.618449
  14 H :    0.408734
  15 C :    2.839889
  16 C :   -1.173922
  17 C :   -1.295561
  18 C :   -1.021690
  19 H :   -0.132638
  20 C :   -0.687963
  21 H :   -0.471015
  22 C :   -0.088038
  23 H :    0.618332
  24 H :    0.648355
  25 H :    0.408728
Sum of atomic charges:    1.0000000

LOEWDIN ATOMIC CHARGES
----------------------
   0 C :    0.035214
   1 C :    0.035214
   2 C :    0.460749
   3 H :   -0.115071
   4 C :   -0.099935
   5 C :    0.238363
   6 C :    0.241505
   7 C :    0.244232
   8 H :   -0.155795
   9 C :    0.246170
  10 H :   -0.181670
  11 C :    0.249022
  12 H :   -0.166745
  13 H :   -0.167010
  14 H :   -0.156189
  15 C :   -0.099935
  16 C :    0.241505
  17 C :    0.238362
  18 C :    0.246169
  19 H :   -0.181669
  20 C :    0.244232
  21 H :   -0.155795
  22 C :    0.249021
  23 H :   -0.167011
  24 H :   -0.166745
  25 H :   -0.156189

  Mayer bond orders larger than 0.100000
B(  0-C ,  1-C ) :   1.1391 B(  0-C ,  2-C ) :   0.6709 B(  0-C ,  3-H ) :  -0.1209
B(  0-C ,  4-C ) :   0.3517 B(  0-C ,  5-C ) :  -0.1655 B(  0-C ,  6-C ) :   0.2677
B(  0-C ,  7-C ) :  -0.1152 B(  0-C ,  8-H ) :  -0.7741 B(  0-C ,  9-C ) :  -0.4071
B(  0-C , 10-H ) :  -0.2183 B(  0-C , 11-C ) :   0.3701 B(  0-C , 12-H ) :   0.5489
B(  0-C , 14-H ) :  -0.1065 B(  0-C , 15-C ) :   0.1206 B(  0-C , 16-C ) :   0.2729
B(  0-C , 17-C ) :   0.5335 B(  0-C , 19-H ) :  -0.4519 B(  0-C , 20-C ) :   0.3373
B(  0-C , 21-H ) :  -0.9139 B(  0-C , 22-C ) :   0.2684 B(  0-C , 23-H ) :   0.3424
B(  0-C , 24-H ) :   0.4014 B(  0-C , 25-H ) :  -0.3654 B(  1-C ,  2-C ) :   0.6710
B(  1-C ,  3-H ) :  -0.1208 B(  1-C ,  4-C ) :   0.1207 B(  1-C ,  5-C ) :   0.5333
B(  1-C ,  6-C ) :   0.2732 B(  1-C ,  7-C ) :   0.3371 B(  1-C ,  8-H ) :  -0.9138
B(  1-C , 10-H ) :  -0.4518 B(  1-C , 11-C ) :   0.2682 B(  1-C , 12-H ) :   0.4012
B(  1-C , 13-H ) :   0.3424 B(  1-C , 14-H ) :  -0.3653 B(  1-C , 15-C ) :   0.3514
B(  1-C , 16-C ) :   0.2676 B(  1-C , 17-C ) :  -0.1657 B(  1-C , 18-C ) :  -0.4069
B(  1-C , 19-H ) :  -0.2181 B(  1-C , 20-C ) :  -0.1150 B(  1-C , 21-H ) :  -0.7741
B(  1-C , 22-C ) :   0.3699 B(  1-C , 24-H ) :   0.5487 B(  1-C , 25-H ) :  -0.1064
B(  2-C ,  3-H ) :   1.3470 B(  2-C ,  6-C ) :   0.1014 B(  2-C ,  8-H ) :  -0.1582
B(  2-C , 10-H ) :  -0.1198 B(  2-C , 12-H ) :   0.1343 B(  2-C , 13-H ) :   0.1386
B(  2-C , 14-H ) :  -0.1033 B(  2-C , 16-C ) :   0.1014 B(  2-C , 19-H ) :  -0.1199
B(  2-C , 21-H ) :  -0.1582 B(  2-C , 23-H ) :   0.1385 B(  2-C , 24-H ) :   0.1345
B(  2-C , 25-H ) :  -0.1034 B(  4-C ,  5-C ) :  -0.6376 B(  4-C ,  6-C ) :  -0.5185
B(  4-C ,  8-H ) :  -0.4698 B(  4-C ,  9-C ) :  -0.1988 B(  4-C , 10-H ) :  -0.4738
B(  4-C , 12-H ) :  -0.3873 B(  4-C , 13-H ) :  -0.1523 B(  4-C , 14-H ) :   0.3425
B(  4-C , 15-C ) :   0.4428 B(  4-C , 16-C ) :  -0.1150 B(  4-C , 24-H ) :   0.1150
B(  5-C ,  6-C ) :  -0.7992 B(  5-C ,  7-C ) :   1.2662 B(  5-C ,  8-H ) :   3.0598
B(  5-C ,  9-C ) :   0.2081 B(  5-C , 10-H ) :   0.4696 B(  5-C , 11-C ) :  -0.4992
B(  5-C , 12-H ) :  -0.2886 B(  5-C , 13-H ) :  -0.1470 B(  5-C , 14-H ) :   0.3114
B(  6-C ,  7-C ) :   0.1853 B(  6-C ,  8-H ) :   0.5896 B(  6-C ,  9-C ) :   1.4398
B(  6-C , 10-H ) :   2.2967 B(  6-C , 11-C ) :  -0.3837 B(  6-C , 12-H ) :  -0.1772
B(  6-C , 15-C ) :  -0.1152 B(  6-C , 16-C ) :   0.1152 B(  7-C ,  8-H ) :  -0.1167
B(  7-C ,  9-C ) :   0.3764 B(  7-C , 10-H ) :  -0.1713 B(  7-C , 11-C ) :   1.0199
B(  7-C , 12-H ) :   0.4101 B(  7-C , 14-H ) :  -0.1824 B(  8-H , 10-H ) :   0.7342
B(  8-H , 11-C ) :  -0.1828 B(  8-H , 12-H ) :  -0.1561 B(  8-H , 13-H ) :  -0.1705
B(  9-C , 10-H ) :   0.1249 B(  9-C , 11-C ) :   1.1300 B(  9-C , 13-H ) :   0.2919
B(  9-C , 14-H ) :  -0.1240 B( 10-H , 11-C ) :  -0.3179 B( 10-H , 12-H ) :  -0.3082
B( 10-H , 14-H ) :   0.1962 B( 11-C , 12-H ) :   0.1411 B( 11-C , 13-H ) :   0.1477
B( 11-C , 14-H ) :   0.8744 B( 12-H , 15-C ) :   0.1150 B( 15-C , 16-C ) :  -0.5182
B( 15-C , 17-C ) :  -0.6376 B( 15-C , 18-C ) :  -0.1990 B( 15-C , 19-H ) :  -0.4734
B( 15-C , 21-H ) :  -0.4697 B( 15-C , 23-H ) :  -0.1524 B( 15-C , 24-H ) :  -0.3875
B( 15-C , 25-H ) :   0.3427 B( 16-C , 17-C ) :  -0.7990 B( 16-C , 18-C ) :   1.4399
B( 16-C , 19-H ) :   2.2964 B( 16-C , 20-C ) :   0.1851 B( 16-C , 21-H ) :   0.5896
B( 16-C , 22-C ) :  -0.3836 B( 16-C , 24-H ) :  -0.1771 B( 17-C , 18-C ) :   0.2079
B( 17-C , 19-H ) :   0.4697 B( 17-C , 20-C ) :   1.2660 B( 17-C , 21-H ) :   3.0597
B( 17-C , 22-C ) :  -0.4990 B( 17-C , 23-H ) :  -0.1469 B( 17-C , 24-H ) :  -0.2887
B( 17-C , 25-H ) :   0.3114 B( 18-C , 19-H ) :   0.1249 B( 18-C , 20-C ) :   0.3763
B( 18-C , 22-C ) :   1.1299 B( 18-C , 23-H ) :   0.2922 B( 18-C , 25-H ) :  -0.1239
B( 19-H , 20-C ) :  -0.1714 B( 19-H , 21-H ) :   0.7341 B( 19-H , 22-C ) :  -0.3179
B( 19-H , 24-H ) :  -0.3081 B( 19-H , 25-H ) :   0.1963 B( 20-C , 21-H ) :  -0.1169
B( 20-C , 22-C ) :   1.0200 B( 20-C , 24-H ) :   0.4102 B( 20-C , 25-H ) :  -0.1824
B( 21-H , 22-C ) :  -0.1828 B( 21-H , 23-H ) :  -0.1705 B( 21-H , 24-H ) :  -0.1561
B( 22-C , 23-H ) :   0.1476 B( 22-C , 24-H ) :   0.1410 B( 22-C , 25-H ) :   0.8744

MP2 TOTAL ENERGY:     -576.679406955 Eh
FINAL SINGLE POINT ENERGY      -576.679406954902

DIPOLE MOMENT
-------------
                                X             Y             Z
Electronic contribution:      0.00000       3.03856      -0.00001
Nuclear contribution   :     -0.00000      -2.16611       0.00002
                        -----------------------------------------
Total Dipole Moment    :     -0.00000       0.87245       0.00001
                        -----------------------------------------
Magnitude (a.u.)       :      0.87245
Magnitude (Debye)      :      2.21759

Rotational constants in cm-1:     0.059798     0.009533     0.008222
Rotational constants in MHz :  1792.711466   285.798400   246.500668

                             ****ORCA TERMINATED NORMALLY****
TOTAL RUN TIME: 0 days 0 hours 14 minutes 29 seconds 988 msec
