                         Program Version 4.2.1 -  RELEASE  -
|  1> %pal
|  2>  nprocs 32
|  3> end
|  4> !RI-MP2 aug-cc-pVTZ aug-cc-pVTZ/C TightSCF
|  5> %maxcore 4500
|  6> *xyzfile 1 1  08_8P1.xyz
|  7>
|  8>
|  9>                          ****END OF INPUT****

CARTESIAN COORDINATES (ANGSTROEM)
---------------------------------
  N     -1.321615   -0.083746    0.550953
  C     -0.089539   -0.888712    0.294850
  C      1.029110    0.106093    0.030408
  H     -0.245281   -1.558427   -0.549223
  H      0.153746   -1.483509    1.175865
  O      0.867045    1.281773    0.215928
  O      2.122933   -0.488998   -0.383873
  C     -2.178127    0.146798   -0.657339
  H      2.835874    0.157828   -0.516415
  H     -2.541749   -0.812325   -1.018661
  H     -1.572566    0.639504   -1.414754
  H     -3.011348    0.786668   -0.375313
  H     -0.977234    0.834028    0.882015
  H     -1.878617   -0.504822    1.295863

 Total Charge           Charge          ....    1
 Multiplicity           Mult            ....    1
 Number of Electrons    NEL             ....   48
 Basis Dimension        Dim             ....  460

ORBITAL ENERGIES
----------------

  NO   OCC          E(Eh)            E(eV)
   0   2.0000     -20.790247      -565.7314
   1   2.0000     -20.736175      -564.2600
   2   2.0000     -15.885437      -432.2647
   3   2.0000     -11.576334      -315.0081
   4   2.0000     -11.496782      -312.8433
   5   2.0000     -11.471576      -312.1575
   6   2.0000      -1.656561       -45.0773
   7   2.0000      -1.559985       -42.4494
   8   2.0000      -1.511447       -41.1286
   9   2.0000      -1.223487       -33.2928
  10   2.0000      -1.143808       -31.1246
  11   2.0000      -1.024350       -27.8740
  12   2.0000      -0.989600       -26.9284
  13   2.0000      -0.912888       -24.8410
  14   2.0000      -0.891416       -24.2567
  15   2.0000      -0.858055       -23.3489
  16   2.0000      -0.842730       -22.9318
  17   2.0000      -0.822797       -22.3894
  18   2.0000      -0.768682       -20.9169
  19   2.0000      -0.761243       -20.7145
  20   2.0000      -0.749117       -20.3845
  21   2.0000      -0.747188       -20.3320
  22   2.0000      -0.665670       -18.1138
  23   2.0000      -0.648761       -17.6537
  24   0.0000      -0.103283        -2.8105
  25   0.0000      -0.077241        -2.1018
  26   0.0000      -0.072031        -1.9601
  27   0.0000      -0.069631        -1.8948
  28   0.0000      -0.048364        -1.3161

MULLIKEN ATOMIC CHARGES
-----------------------
   0 N :    0.314585
   1 C :   -0.121120
   2 C :    0.549241
   3 H :    0.299997
   4 H :    0.384678
   5 O :   -0.746189
   6 O :   -0.413119
   7 C :   -0.871540
   8 H :    0.288165
   9 H :    0.394356
  10 H :    0.355002
  11 H :    0.403367
  12 H :    0.121543
  13 H :    0.041033
Sum of atomic charges:    1.0000000

LOEWDIN ATOMIC CHARGES
----------------------
   0 N :    0.748844
   1 C :    0.332016
   2 C :   -0.741405
   3 H :   -0.121302
   4 H :   -0.107406
   5 O :    0.529773
   6 O :    0.880682
   7 C :    0.664108
   8 H :   -0.406578
   9 H :   -0.128429
  10 H :   -0.126382
  11 H :   -0.121082
  12 H :   -0.258676
  13 H :   -0.144163

  Mayer bond orders larger than 0.100000
B(  0-N ,  1-C ) :   0.9408 B(  0-N ,  7-C ) :   0.8680 B(  0-N , 12-H ) :   0.9928
B(  0-N , 13-H ) :   1.0601 B(  1-C ,  2-C ) :   0.7203 B(  1-C ,  3-H ) :   0.9207
B(  1-C ,  4-H ) :   0.8420 B(  2-C ,  5-O ) :   1.5212 B(  2-C ,  6-O ) :   1.0144
B(  6-O ,  8-H ) :   0.9338 B(  7-C ,  9-H ) :   0.8440 B(  7-C , 10-H ) :   0.8780
B(  7-C , 11-H ) :   0.8549

MP2 TOTAL ENERGY:     -323.555782303 Eh
FINAL SINGLE POINT ENERGY      -323.555782302729

DIPOLE MOMENT
-------------
                                X             Y             Z
Electronic contribution:      5.50069       1.08790       0.92437
Nuclear contribution   :     -7.35146      -1.97023      -0.53114
                        -----------------------------------------
Total Dipole Moment    :     -1.85077      -0.88233       0.39323
                        -----------------------------------------
Magnitude (a.u.)       :      2.08770
Magnitude (Debye)      :      5.30652

Rotational constants in cm-1:     0.245620     0.073334     0.065810
Rotational constants in MHz :  7363.496773  2198.489858  1972.926479

                             ****ORCA TERMINATED NORMALLY****
TOTAL RUN TIME: 0 days 0 hours 1 minutes 15 seconds 562 msec
