                         Program Version 4.2.1 -  RELEASE  -
|  1> %pal
|  2>  nprocs 32
|  3> end
|  4> !RI-MP2 aug-cc-pVTZ aug-cc-pVTZ/C TightSCF
|  5> %maxcore 4500
|  6> *xyzfile 0 1  09_26P.xyz
|  7>
|  8>
|  9>                          ****END OF INPUT****

CARTESIAN COORDINATES (ANGSTROEM)
---------------------------------
  C     -0.687031    2.030998   -0.322779
  C     -0.449015    0.619143    0.143161
  C      0.804930    0.256833    0.843948
  C      2.011153    0.364396   -0.189211
  C      3.314412    0.085713    0.573431
  C      4.483895    0.192458   -0.373641
  N     -1.286502   -0.338073   -0.068066
  C     -2.588944   -0.234682   -0.719624
  C     -3.714522   -0.048657    0.291450
  H     -2.738331   -1.149991   -1.294052
  H     -2.557462    0.593364   -1.427231
  C     -5.070867    0.049869   -0.395874
  H     -3.520010    0.849998    0.885484
  H     -3.712572   -0.892460    0.988448
  C     -6.207053    0.237490    0.605314
  H     -5.258754   -0.848507   -0.984876
  H     -5.065764    0.895389   -1.094067
  C     -7.601131    0.320696   -0.024326
  H     -6.043260    1.164473    1.164512
  H     -6.194059   -0.579397    1.335180
  C     -8.087711   -1.043373   -0.546790
  N     -8.632228    0.881735    0.853897
  H     -7.550960    0.960401   -0.911806
  O     -7.363452   -1.852086   -1.057705
  O     -9.395493   -1.236703   -0.405927
  H     -9.729652   -0.451073    0.077740
  O      0.271217    2.907808    0.122066
  H     -1.681194    2.341181    0.023590
  H     -0.734352    1.977799   -1.425663
  H      1.157673    2.510428   -0.274574
  O      0.642673   -1.042110    1.372661
  H      0.966221    1.006370    1.627379
  H      1.533226   -1.422091    1.484620
  O      2.076292    1.547524   -0.821750
  H      1.850550   -0.504187   -0.867106
  O      3.271071   -1.227413    1.148656
  H      3.428986    0.831105    1.368372
  H      4.124974   -1.405499    1.557413
  O      5.640593   -0.242915    0.387104
  H      4.611814    1.217683   -0.711067
  H      4.350288   -0.472834   -1.230132
  H     -8.678579    1.890469    0.796159
  H     -8.476309    0.630583    1.824428
  P      7.084807   -0.308379   -0.279822
  O      7.908227   -0.916359    0.955086
  H      8.696982   -0.401232    1.154657
  O      6.998877   -1.515550   -1.330871
  H      6.734685   -2.362922   -0.956758
  O      7.622755    0.913976   -0.875536
  H     -0.985903   -1.233689    0.325220

 Total Charge           Charge          ....    0
 Multiplicity           Mult            ....    1
 Number of Electrons    NEL             ....  206
 Basis Dimension        Dim             .... 1729

ORBITAL ENERGIES
----------------

  NO   OCC          E(Eh)            E(eV)
   0   2.0000     -80.102856     -2179.7095
   1   2.0000     -20.610431      -560.8383
   2   2.0000     -20.603534      -560.6506
   3   2.0000     -20.600840      -560.5773
   4   2.0000     -20.591316      -560.3182
   5   2.0000     -20.574309      -559.8554
   6   2.0000     -20.572267      -559.7998
   7   2.0000     -20.550643      -559.2114
   8   2.0000     -20.513304      -558.1954
   9   2.0000     -20.506473      -558.0095
  10   2.0000     -20.438095      -556.1488
  11   2.0000     -15.666944      -426.3192
  12   2.0000     -15.598905      -424.4678
  13   2.0000     -11.389879      -309.9344
  14   2.0000     -11.364165      -309.2346
  15   2.0000     -11.315442      -307.9088
  16   2.0000     -11.311125      -307.7913
  17   2.0000     -11.303862      -307.5937
  18   2.0000     -11.300598      -307.5049
  19   2.0000     -11.284357      -307.0630
  20   2.0000     -11.277366      -306.8727
  21   2.0000     -11.269816      -306.6673
  22   2.0000     -11.265808      -306.5582
  23   2.0000     -11.263379      -306.4921
  24   2.0000     -11.252350      -306.1920
  25   2.0000      -7.619316      -207.3321
  26   2.0000      -5.517780      -150.1464
  27   2.0000      -5.517412      -150.1364
  28   2.0000      -5.516505      -150.1117
  29   2.0000      -1.471281       -40.0356
  30   2.0000      -1.455038       -39.5936
  31   2.0000      -1.403364       -38.1875
  32   2.0000      -1.389663       -37.8147
  33   2.0000      -1.383901       -37.6579
  34   2.0000      -1.374076       -37.3905
  35   2.0000      -1.367569       -37.2134
  36   2.0000      -1.347682       -36.6723
  37   2.0000      -1.328640       -36.1541
  38   2.0000      -1.294996       -35.2386
  39   2.0000      -1.258435       -34.2438
  40   2.0000      -1.241523       -33.7836
  41   2.0000      -1.129288       -30.7295
  42   2.0000      -1.077643       -29.3241
  43   2.0000      -1.034769       -28.1575
  44   2.0000      -1.022945       -27.8357
  45   2.0000      -0.973979       -26.5033
  46   2.0000      -0.963920       -26.2296
  47   2.0000      -0.914900       -24.8957
  48   2.0000      -0.892710       -24.2919
  49   2.0000      -0.845335       -23.0027
  50   2.0000      -0.832680       -22.6584
  51   2.0000      -0.823184       -22.4000
  52   2.0000      -0.822014       -22.3682
  53   2.0000      -0.795663       -21.6511
  54   2.0000      -0.764868       -20.8131
  55   2.0000      -0.763491       -20.7756
  56   2.0000      -0.749683       -20.3999
  57   2.0000      -0.735388       -20.0109
  58   2.0000      -0.726484       -19.7686
  59   2.0000      -0.703768       -19.1505
  60   2.0000      -0.702116       -19.1055
  61   2.0000      -0.694066       -18.8865
  62   2.0000      -0.689420       -18.7601
  63   2.0000      -0.685565       -18.6552
  64   2.0000      -0.683295       -18.5934
  65   2.0000      -0.666650       -18.1405
  66   2.0000      -0.650201       -17.6929
  67   2.0000      -0.645649       -17.5690
  68   2.0000      -0.644426       -17.5357
  69   2.0000      -0.639163       -17.3925
  70   2.0000      -0.629164       -17.1204
  71   2.0000      -0.623435       -16.9645
  72   2.0000      -0.616269       -16.7695
  73   2.0000      -0.608222       -16.5506
  74   2.0000      -0.603811       -16.4305
  75   2.0000      -0.592333       -16.1182
  76   2.0000      -0.587714       -15.9925
  77   2.0000      -0.572752       -15.5854
  78   2.0000      -0.570630       -15.5276
  79   2.0000      -0.568803       -15.4779
  80   2.0000      -0.565924       -15.3996
  81   2.0000      -0.558439       -15.1959
  82   2.0000      -0.551777       -15.0146
  83   2.0000      -0.544721       -14.8226
  84   2.0000      -0.541902       -14.7459
  85   2.0000      -0.529447       -14.4070
  86   2.0000      -0.525756       -14.3066
  87   2.0000      -0.518195       -14.1008
  88   2.0000      -0.514817       -14.0089
  89   2.0000      -0.505822       -13.7641
  90   2.0000      -0.501783       -13.6542
  91   2.0000      -0.493866       -13.4388
  92   2.0000      -0.485668       -13.2157
  93   2.0000      -0.483089       -13.1455
  94   2.0000      -0.470093       -12.7919
  95   2.0000      -0.467452       -12.7200
  96   2.0000      -0.464236       -12.6325
  97   2.0000      -0.460392       -12.5279
  98   2.0000      -0.448496       -12.2042
  99   2.0000      -0.433615       -11.7993
 100   2.0000      -0.426941       -11.6177
 101   2.0000      -0.355126        -9.6635
 102   2.0000      -0.348846        -9.4926
 103   0.0000       0.007967         0.2168
 104   0.0000       0.018587         0.5058
 105   0.0000       0.021745         0.5917
 106   0.0000       0.027639         0.7521
 107   0.0000       0.028433         0.7737

MULLIKEN ATOMIC CHARGES
-----------------------
   0 C :    0.199732
   1 C :    0.200414
   2 C :    1.051955
   3 C :    0.684421
   4 C :    0.569206
   5 C :   -0.500611
   6 N :   -0.533751
   7 C :   -0.675004
   8 C :   -0.252005
   9 H :    0.375148
  10 H :    0.265916
  11 C :   -0.347775
  12 H :    0.275134
  13 H :    0.247021
  14 C :   -0.485367
  15 H :    0.319298
  16 H :    0.217704
  17 C :    0.672533
  18 H :    0.197470
  19 H :    0.310287
  20 C :    0.571778
  21 N :   -0.669636
  22 H :    0.283658
  23 O :   -0.754485
  24 O :   -0.603345
  25 H :    0.229771
  26 O :   -0.990255
  27 H :    0.327476
  28 H :    0.320155
  29 H :    0.231338
  30 O :   -1.020761
  31 H :    0.227647
  32 H :    0.221611
  33 O :   -1.201583
  34 H :    0.177963
  35 O :   -0.704901
  36 H :    0.277393
  37 H :    0.142725
  38 O :   -0.610070
  39 H :    0.348320
  40 H :    0.222565
  41 H :    0.053020
  42 H :    0.075761
  43 P :    1.734445
  44 O :   -0.556617
  45 H :    0.167509
  46 O :   -0.502708
  47 H :    0.159302
  48 O :   -0.955362
  49 H :    0.005563
Sum of atomic charges:    0.0000000

LOEWDIN ATOMIC CHARGES
----------------------
   0 C :    0.029442
   1 C :   -0.060355
   2 C :   -0.181114
   3 C :   -0.420854
   4 C :   -0.240989
   5 C :    0.028762
   6 N :    0.633749
   7 C :    0.260474
   8 C :    0.305553
   9 H :   -0.117256
  10 H :   -0.146742
  11 C :    0.286015
  12 H :   -0.138028
  13 H :   -0.128572
  14 C :    0.293997
  15 H :   -0.183070
  16 H :   -0.129314
  17 C :   -0.097969
  18 H :   -0.139179
  19 H :   -0.132042
  20 C :   -0.767990
  21 N :    0.867854
  22 H :   -0.128179
  23 O :    0.464308
  24 O :    0.850767
  25 H :   -0.587027
  26 O :    0.787639
  27 H :   -0.155012
  28 H :   -0.130370
  29 H :   -0.840922
  30 O :    0.889476
  31 H :   -0.133449
  32 H :   -0.634592
  33 O :    0.529926
  34 H :   -0.147304
  35 O :    0.887077
  36 H :   -0.126023
  37 H :   -0.484966
  38 O :    0.373202
  39 H :   -0.155179
  40 H :   -0.145396
  41 H :   -0.284486
  42 H :   -0.282376
  43 P :   -0.252450
  44 O :    0.629530
  45 H :   -0.547641
  46 O :    0.631230
  47 H :   -0.537565
  48 O :    0.016089
  49 H :   -0.308679

  Mayer bond orders larger than 0.100000
B(  0-C ,  1-C ) :   0.2804 B(  0-C , 26-O ) :   0.6699 B(  0-C , 27-H ) :   1.0184
B(  0-C , 28-H ) :   0.9799 B(  0-C , 29-H ) :   0.1018 B(  1-C ,  3-C ) :   0.2348
B(  1-C ,  6-N ) :   0.9180 B(  1-C ,  7-C ) :  -0.2858 B(  1-C , 30-O ) :   0.2474
B(  1-C , 33-O ) :   0.1289 B(  1-C , 49-H ) :  -0.1845 B(  2-C ,  3-C ) :   0.8799
B(  2-C , 31-H ) :   1.0690 B(  3-C ,  4-C ) :   0.7002 B(  3-C , 30-O ) :   0.1562
B(  3-C , 31-H ) :   0.1009 B(  3-C , 33-O ) :   0.2759 B(  3-C , 34-H ) :   1.0910
B(  4-C ,  5-C ) :   0.8440 B(  4-C , 33-O ) :   0.3033 B(  4-C , 35-O ) :   0.2822
B(  4-C , 36-H ) :   1.0373 B(  4-C , 38-O ) :  -0.1924 B(  5-C , 35-O ) :   0.1011
B(  5-C , 38-O ) :   0.9058 B(  5-C , 39-H ) :   0.9571 B(  5-C , 40-H ) :   0.9981
B(  6-N ,  7-C ) :   1.3111 B(  6-N ,  8-C ) :  -0.1931 B(  6-N , 49-H ) :   1.2770
B(  7-C ,  8-C ) :   0.9525 B(  7-C ,  9-H ) :   0.8067 B(  7-C , 10-H ) :   1.0534
B(  8-C , 11-C ) :   0.9077 B(  8-C , 12-H ) :   0.9585 B(  8-C , 13-H ) :   0.9826
B( 11-C , 14-C ) :   0.8432 B( 11-C , 15-H ) :   0.9360 B( 11-C , 16-H ) :   0.9980
B( 11-C , 19-H ) :   0.1003 B( 14-C , 17-C ) :   0.9376 B( 14-C , 18-H ) :   0.9733
B( 14-C , 19-H ) :   0.8850 B( 14-C , 20-C ) :   0.2899 B( 17-C , 20-C ) :   0.4791
B( 17-C , 21-N ) :   0.3505 B( 17-C , 22-H ) :   0.9193 B( 17-C , 24-O ) :   0.1258
B( 20-C , 21-N ) :   0.1995 B( 20-C , 23-O ) :   1.4551 B( 20-C , 24-O ) :   0.6914
B( 21-N , 25-H ) :   0.1588 B( 21-N , 41-H ) :   1.0979 B( 21-N , 42-H ) :   0.9983
B( 23-O , 24-O ) :  -0.1243 B( 24-O , 25-H ) :   0.8547 B( 26-O , 29-H ) :   0.6087
B( 29-H , 33-O ) :   0.4255 B( 30-O , 32-H ) :   0.9430 B( 30-O , 35-O ) :  -0.1049
B( 32-H , 35-O ) :   0.1112 B( 33-O , 36-H ) :   0.1036 B( 35-O , 37-H ) :   1.0411
B( 38-O , 43-P ) :   1.1595 B( 38-O , 46-O ) :   0.1311 B( 43-P , 44-O ) :   0.6963
B( 43-P , 46-O ) :   0.7967 B( 43-P , 48-O ) :   1.3698 B( 44-O , 45-H ) :   1.0043
B( 46-O , 47-H ) :   0.9958

MP2 TOTAL ENERGY:    -1672.913809511 Eh
FINAL SINGLE POINT ENERGY     -1672.913809510909

DIPOLE MOMENT
-------------
                                X             Y             Z
Electronic contribution:     38.40790      -6.31019      -1.66200
Nuclear contribution   :    -41.84443       5.38041       3.68541
                        -----------------------------------------
Total Dipole Moment    :     -3.43653      -0.92979       2.02341
                        -----------------------------------------
Magnitude (a.u.)       :      4.09492
Magnitude (Debye)      :     10.40847

Rotational constants in cm-1:     0.023815     0.001382     0.001352
Rotational constants in MHz :   713.953566    41.435190    40.535216

                             ****ORCA TERMINATED NORMALLY****
TOTAL RUN TIME: 0 days 1 hours 8 minutes 2 seconds 938 msec
