                         Program Version 4.2.1 -  RELEASE  -
|  1> %pal
|  2>  nprocs 32
|  3> end
|  4> !RI-MP2 aug-cc-pVTZ aug-cc-pVTZ/C TightSCF
|  5> %maxcore 4500
|  6> *xyzfile 0 2  04_62R2.xyz
|  7>
|  8>
|  9>                          ****END OF INPUT****

CARTESIAN COORDINATES (ANGSTROEM)
---------------------------------
  C     -1.374084   -0.276826   -0.000001
  C      0.014622    0.109387    0.000002
  H     -2.117816    0.505598    0.000011
  H     -1.660192   -1.318519   -0.000017
  O      0.415121    1.252582    0.000014
  O      0.857027   -0.950489   -0.000013
  H      1.757601   -0.599192   -0.000011

 Total Charge           Charge          ....    0
 Multiplicity           Mult            ....    2
 Number of Electrons    NEL             ....   31
 Basis Dimension        Dim             ....  253

ORBITAL ENERGIES
----------------
                 SPIN UP ORBITALS
  NO   OCC          E(Eh)            E(eV)
   0   1.0000     -20.611377      -560.8641
   1   1.0000     -20.566593      -559.6454
   2   1.0000     -11.382709      -309.7393
   3   1.0000     -11.278998      -306.9171
   4   1.0000      -1.470663       -40.0188
   5   1.0000      -1.374534       -37.4030
   6   1.0000      -1.049237       -28.5512
   7   1.0000      -0.824448       -22.4344
   8   1.0000      -0.719785       -19.5863
   9   1.0000      -0.693760       -18.8782
  10   1.0000      -0.649949       -17.6860
  11   1.0000      -0.610286       -16.6067
  12   1.0000      -0.598360       -16.2822
  13   1.0000      -0.521981       -14.2038
  14   1.0000      -0.477388       -12.9904
  15   1.0000      -0.424388       -11.5482
  16   0.0000       0.027932         0.7601
  17   0.0000       0.038251         1.0409
  18   0.0000       0.046047         1.2530
  19   0.0000       0.083381         2.2689
  20   0.0000       0.084798         2.3075

                 SPIN DOWN ORBITALS
  NO   OCC          E(Eh)            E(eV)
   0   1.0000     -20.611958      -560.8799
   1   1.0000     -20.553577      -559.2913
   2   1.0000     -11.389167      -309.9150
   3   1.0000     -11.257789      -306.3400
   4   1.0000      -1.464485       -39.8507
   5   1.0000      -1.354074       -36.8462
   6   1.0000      -0.984471       -26.7888
   7   1.0000      -0.808874       -22.0106
   8   1.0000      -0.708430       -19.2774
   9   1.0000      -0.685976       -18.6663
  10   1.0000      -0.627715       -17.0810
  11   1.0000      -0.598816       -16.2946
  12   1.0000      -0.590849       -16.0778
  13   1.0000      -0.462165       -12.5761
  14   1.0000      -0.458869       -12.4865
  15   0.0000       0.028564         0.7773
  16   0.0000       0.035767         0.9733
  17   0.0000       0.038507         1.0478
  18   0.0000       0.046214         1.2575
  19   0.0000       0.084948         2.3115

MULLIKEN ATOMIC CHARGES AND SPIN POPULATIONS
--------------------------------------------
   0 C :   -0.777231    1.040051
   1 C :    0.570645   -0.229050
   2 H :    0.446316   -0.058111
   3 H :    0.492327   -0.034227
   4 O :   -0.651734    0.287005
   5 O :   -0.334623   -0.000267
   6 H :    0.254299   -0.005401
Sum of atomic charges         :    0.0000000

LOEWDIN ATOMIC CHARGES AND SPIN POPULATIONS
-------------------------------------------
   0 C :    0.580837    0.507545
   1 C :   -0.882682    0.082966
   2 H :   -0.226862    0.108138
   3 H :   -0.225694    0.113020
   4 O :    0.433247    0.206982
   5 O :    0.802959   -0.017040
   6 H :   -0.481805   -0.001610

  Mayer bond orders larger than 0.100000
B(  0-C ,  1-C ) :   0.9351 B(  0-C ,  2-H ) :   0.7992 B(  0-C ,  3-H ) :   0.7488
B(  1-C ,  4-O ) :   1.5521 B(  1-C ,  5-O ) :   1.0342 B(  5-O ,  6-H ) :   0.9418

MP2 TOTAL ENERGY:     -228.052543458 Eh
FINAL SINGLE POINT ENERGY      -228.052543457508

DIPOLE MOMENT
-------------
                                X             Y             Z
Electronic contribution:      1.65110       0.71744       0.00001
Nuclear contribution   :     -1.97245      -1.38772      -0.00002
                        -----------------------------------------
Total Dipole Moment    :     -0.32135      -0.67028      -0.00001
                        -----------------------------------------
Magnitude (a.u.)       :      0.74333
Magnitude (Debye)      :      1.88940

Rotational constants in cm-1:     0.392437     0.354617     0.186285
Rotational constants in MHz : 11764.974727 10631.152191  5584.681552

                             ****ORCA TERMINATED NORMALLY****
TOTAL RUN TIME: 0 days 0 hours 0 minutes 31 seconds 766 msec
