                         Program Version 4.2.1 -  RELEASE  -
|  1> %pal
|  2>  nprocs 32
|  3> end
|  4> !RI-MP2 aug-cc-pVTZ aug-cc-pVTZ/C TightSCF
|  5> %maxcore 4500
|  6> *xyzfile 0 1  06_18P2.xyz
|  7>
|  8>
|  9>                          ****END OF INPUT****

CARTESIAN COORDINATES (ANGSTROEM)
---------------------------------
  C     -1.748497    0.320986   -0.223238
  H     -2.119374    1.285921    0.130324
  H     -1.790560    0.328740   -1.315670
  H     -2.437920   -0.449322    0.130276
  C      0.596270   -1.674722   -0.223222
  H     -0.053836   -2.478420    0.130451
  H      0.610421   -1.715033   -1.315658
  H      1.608159   -1.886534    0.130143
  C      1.152249    1.353724   -0.223227
  H      2.173314    1.192472    0.130439
  H      1.180099    1.386195   -1.315663
  H      0.829822    2.335963    0.130184
  Si    -0.000016    0.000004    0.379564
  H     -0.000033    0.000023    1.869410

 Total Charge           Charge          ....    0
 Multiplicity           Mult            ....    1
 Number of Electrons    NEL             ....   42
 Basis Dimension        Dim             ....  418

ORBITAL ENERGIES
----------------

  NO   OCC          E(Eh)            E(eV)
   0   2.0000     -68.751586     -1870.8258
   1   2.0000     -11.197022      -304.6865
   2   2.0000     -11.197022      -304.6864
   3   2.0000     -11.197010      -304.6861
   4   2.0000      -6.099545      -165.9770
   5   2.0000      -4.205956      -114.4499
   6   2.0000      -4.205581      -114.4397
   7   2.0000      -4.205581      -114.4397
   8   2.0000      -0.965167       -26.2635
   9   2.0000      -0.922571       -25.1044
  10   2.0000      -0.922569       -25.1044
  11   2.0000      -0.645435       -17.5632
  12   2.0000      -0.572210       -15.5706
  13   2.0000      -0.559772       -15.2322
  14   2.0000      -0.559771       -15.2321
  15   2.0000      -0.540220       -14.7001
  16   2.0000      -0.540217       -14.7001
  17   2.0000      -0.529461       -14.4074
  18   2.0000      -0.440088       -11.9754
  19   2.0000      -0.430553       -11.7159
  20   2.0000      -0.430550       -11.7159
  21   0.0000       0.026897         0.7319
  22   0.0000       0.038111         1.0371
  23   0.0000       0.038111         1.0371
  24   0.0000       0.042394         1.1536
  25   0.0000       0.057824         1.5735

MULLIKEN ATOMIC CHARGES
-----------------------
   0 C :   -1.128470
   1 H :    0.278277
   2 H :    0.281455
   3 H :    0.278266
   4 C :   -1.128462
   5 H :    0.278285
   6 H :    0.281458
   7 H :    0.278257
   8 C :   -1.128456
   9 H :    0.278279
  10 H :    0.281446
  11 H :    0.278262
  12 Si:    1.161257
  13 H :   -0.289855
Sum of atomic charges:    0.0000000

LOEWDIN ATOMIC CHARGES
----------------------
   0 C :    0.538554
   1 H :   -0.240417
   2 H :   -0.236607
   3 H :   -0.240418
   4 C :    0.538557
   5 H :   -0.240416
   6 H :   -0.236608
   7 H :   -0.240417
   8 C :    0.538557
   9 H :   -0.240419
  10 H :   -0.236603
  11 H :   -0.240419
  12 Si:    0.683492
  13 H :   -0.146834

  Mayer bond orders larger than 0.100000
B(  0-C ,  1-H ) :   0.9385 B(  0-C ,  2-H ) :   0.9175 B(  0-C ,  3-H ) :   0.9385
B(  0-C ,  4-C ) :   0.1238 B(  0-C ,  8-C ) :   0.1238 B(  0-C , 12-Si) :   0.9230
B(  0-C , 13-H ) :   0.2122 B(  4-C ,  5-H ) :   0.9385 B(  4-C ,  6-H ) :   0.9175
B(  4-C ,  7-H ) :   0.9385 B(  4-C ,  8-C ) :   0.1238 B(  4-C , 12-Si) :   0.9229
B(  4-C , 13-H ) :   0.2122 B(  8-C ,  9-H ) :   0.9385 B(  8-C , 10-H ) :   0.9175
B(  8-C , 11-H ) :   0.9385 B(  8-C , 12-Si) :   0.9229 B(  8-C , 13-H ) :   0.2122
B( 12-Si, 13-H ) :   0.5568

MP2 TOTAL ENERGY:     -409.128901764 Eh
FINAL SINGLE POINT ENERGY      -409.128901764143

DIPOLE MOMENT
-------------
                                X             Y             Z
Electronic contribution:     -0.00012      -0.00001       1.19707
Nuclear contribution   :      0.00010       0.00001      -1.40199
                        -----------------------------------------
Total Dipole Moment    :     -0.00002       0.00000      -0.20492
                        -----------------------------------------
Magnitude (a.u.)       :      0.20492
Magnitude (Debye)      :      0.52086

Rotational constants in cm-1:     0.177061     0.177056     0.104666
Rotational constants in MHz :  5308.152223  5307.997684  3137.793347

                             ****ORCA TERMINATED NORMALLY****
TOTAL RUN TIME: 0 days 0 hours 0 minutes 53 seconds 345 msec
