                         Program Version 4.2.1 -  RELEASE  -
|  1> %pal
|  2>  nprocs 32
|  3> end
|  4> !RI-MP2 aug-cc-pVTZ aug-cc-pVTZ/C TightSCF
|  5> %maxcore 4500
|  6> *xyzfile 0 2  06_1TS.xyz
|  7>
|  8>
|  9>                          ****END OF INPUT****

CARTESIAN COORDINATES (ANGSTROEM)
---------------------------------
  C     -1.015292    0.273427   -1.820316
  H     -1.990610    0.745535   -1.972916
  H     -0.253249    0.924844   -2.252571
  H     -1.005932   -0.666822   -2.375086
  C     -1.911730   -1.223986    0.749669
  H     -1.895592   -2.179387    0.221432
  H     -1.686205   -1.416860    1.800422
  H     -2.930242   -0.827737    0.692902
  C     -0.650208    1.601938    0.955633
  H     -1.619214    2.107644    0.903221
  H     -0.418447    1.435242    2.009795
  H      0.101404    2.279567    0.545339
  Si    -0.693988   -0.011696    0.001610
  H      0.840200   -0.650255    0.119404
  O      2.089418   -0.963529    0.162056
  O      2.785613    0.208670   -0.132499
  H      3.036853    0.542567    0.739156

 Total Charge           Charge          ....    0
 Multiplicity           Mult            ....    2
 Number of Electrons    NEL             ....   59
 Basis Dimension        Dim             ....  533

ORBITAL ENERGIES
----------------
                 SPIN UP ORBITALS
  NO   OCC          E(Eh)            E(eV)
   0   1.0000     -68.766570     -1871.2335
   1   1.0000     -20.648475      -561.8736
   2   1.0000     -20.626930      -561.2873
   3   1.0000     -11.206634      -304.9480
   4   1.0000     -11.206618      -304.9476
   5   1.0000     -11.203732      -304.8691
   6   1.0000      -6.114769      -166.3913
   7   1.0000      -4.225352      -114.9777
   8   1.0000      -4.219071      -114.8068
   9   1.0000      -4.219039      -114.8059
  10   1.0000      -1.499703       -40.8090
  11   1.0000      -1.191699       -32.4278
  12   1.0000      -0.975218       -26.5370
  13   1.0000      -0.932576       -25.3767
  14   1.0000      -0.930727       -25.3264
  15   1.0000      -0.746829       -20.3223
  16   1.0000      -0.718659       -19.5557
  17   1.0000      -0.638159       -17.3652
  18   1.0000      -0.619641       -16.8613
  19   1.0000      -0.577395       -15.7117
  20   1.0000      -0.569135       -15.4869
  21   1.0000      -0.567160       -15.4332
  22   1.0000      -0.550320       -14.9750
  23   1.0000      -0.548728       -14.9316
  24   1.0000      -0.537869       -14.6362
  25   1.0000      -0.503914       -13.7122
  26   1.0000      -0.495400       -13.4805
  27   1.0000      -0.442487       -12.0407
  28   1.0000      -0.441349       -12.0097
  29   1.0000      -0.357869        -9.7381
  30   0.0000       0.024069         0.6549
  31   0.0000       0.032394         0.8815
  32   0.0000       0.036549         0.9945
  33   0.0000       0.040582         1.1043
  34   0.0000       0.052734         1.4350

                 SPIN DOWN ORBITALS
  NO   OCC          E(Eh)            E(eV)
   0   1.0000     -68.763296     -1871.1444
   1   1.0000     -20.627125      -561.2926
   2   1.0000     -20.614129      -560.9390
   3   1.0000     -11.206151      -304.9349
   4   1.0000     -11.206029      -304.9315
   5   1.0000     -11.203239      -304.8556
   6   1.0000      -6.110030      -166.2624
   7   1.0000      -4.217055      -114.7519
   8   1.0000      -4.217025      -114.7511
   9   1.0000      -4.211912      -114.6120
  10   1.0000      -1.456930       -39.6451
  11   1.0000      -1.121377       -30.5142
  12   1.0000      -0.969691       -26.3866
  13   1.0000      -0.930523       -25.3208
  14   1.0000      -0.928761       -25.2729
  15   1.0000      -0.712708       -19.3938
  16   1.0000      -0.648701       -17.6521
  17   1.0000      -0.605156       -16.4671
  18   1.0000      -0.585771       -15.9396
  19   1.0000      -0.568362       -15.4659
  20   1.0000      -0.566495       -15.4151
  21   1.0000      -0.562819       -15.3151
  22   1.0000      -0.546878       -14.8813
  23   1.0000      -0.545739       -14.8503
  24   1.0000      -0.537333       -14.6216
  25   1.0000      -0.469212       -12.7679
  26   1.0000      -0.437695       -11.9103
  27   1.0000      -0.436578       -11.8799
  28   1.0000      -0.419098       -11.4042
  29   0.0000       0.023087         0.6282
  30   0.0000       0.032417         0.8821
  31   0.0000       0.036642         0.9971
  32   0.0000       0.040596         1.1047
  33   0.0000       0.052672         1.4333

MULLIKEN ATOMIC CHARGES AND SPIN POPULATIONS
--------------------------------------------
   0 C :   -1.177042    0.029993
   1 H :    0.291755    0.016538
   2 H :    0.301754   -0.004224
   3 H :    0.286220   -0.006881
   4 C :   -1.194157    0.028947
   5 H :    0.279513   -0.006794
   6 H :    0.285411   -0.006168
   7 H :    0.280245    0.017230
   8 C :   -1.146696    0.029886
   9 H :    0.279869    0.016371
  10 H :    0.274549   -0.006911
  11 H :    0.288694   -0.004564
  12 Si:    1.123195    0.603983
  13 H :    0.117358   -0.393647
  14 O :   -0.250654    0.739512
  15 O :   -0.297522   -0.053096
  16 H :    0.257508   -0.000175
Sum of atomic charges         :   -0.0000000

LOEWDIN ATOMIC CHARGES AND SPIN POPULATIONS
-------------------------------------------
   0 C :    0.554649    0.038400
   1 H :   -0.234732    0.009019
   2 H :   -0.236327    0.001248
   3 H :   -0.237194    0.001020
   4 C :    0.553261    0.041937
   5 H :   -0.238949    0.001288
   6 H :   -0.239191    0.001227
   7 H :   -0.235007    0.009627
   8 C :    0.550552    0.037684
   9 H :   -0.234816    0.009008
  10 H :   -0.238488    0.001021
  11 H :   -0.238802    0.001656
  12 Si:    0.724989    0.170664
  13 H :   -0.539043    0.090990
  14 O :    0.350548    0.572065
  15 O :    0.493016    0.018821
  16 H :   -0.554466   -0.005676

  Mayer bond orders larger than 0.100000
B(  0-C ,  1-H ) :   0.9106 B(  0-C ,  2-H ) :   0.9244 B(  0-C ,  3-H ) :   0.9361
B(  0-C ,  4-C ) :   0.1482 B(  0-C ,  8-C ) :   0.1271 B(  0-C , 12-Si) :   0.8408
B(  0-C , 13-H ) :   0.2088 B(  4-C ,  5-H ) :   0.9480 B(  4-C ,  6-H ) :   0.9374
B(  4-C ,  7-H ) :   0.9332 B(  4-C ,  8-C ) :   0.1488 B(  4-C , 12-Si) :   0.8136
B(  4-C , 13-H ) :   0.1897 B(  8-C ,  9-H ) :   0.9211 B(  8-C , 10-H ) :   0.9437
B(  8-C , 11-H ) :   0.9366 B(  8-C , 12-Si) :   0.8176 B(  8-C , 13-H ) :   0.2018
B( 12-Si, 13-H ) :   0.2752 B( 12-Si, 14-O ) :   0.1157 B( 13-H , 14-O ) :   0.1772
B( 14-O , 15-O ) :   0.8585 B( 15-O , 16-H ) :   0.9577

MP2 TOTAL ENERGY:     -559.801252422 Eh
FINAL SINGLE POINT ENERGY      -559.801252422258

DIPOLE MOMENT
-------------
                                X             Y             Z
Electronic contribution:      7.32405      -1.87069       0.05875
Nuclear contribution   :     -7.96079       2.35985       0.44596
                        -----------------------------------------
Total Dipole Moment    :     -0.63674       0.48916       0.50470
                        -----------------------------------------
Magnitude (a.u.)       :      0.94839
Magnitude (Debye)      :      2.41061

Rotational constants in cm-1:     0.099465     0.043916     0.043375
Rotational constants in MHz :  2981.877520  1316.557938  1300.352342

                             ****ORCA TERMINATED NORMALLY****
TOTAL RUN TIME: 0 days 0 hours 4 minutes 41 seconds 821 msec
