                         Program Version 4.2.1 -  RELEASE  -
|  1> %pal
|  2>  nprocs 32
|  3> end
|  4> !RI-MP2 aug-cc-pVTZ aug-cc-pVTZ/C TightSCF
|  5> %maxcore 4500
|  6> *xyzfile 0 1  04_45P2.xyz
|  7>
|  8>
|  9>                          ****END OF INPUT****

CARTESIAN COORDINATES (ANGSTROEM)
---------------------------------
  C      0.143416    1.261667    0.293171
  C     -0.872724    0.130881    0.483157
  C      1.443435    0.598645   -0.226140
  C      1.097975   -0.886395   -0.425789
  C     -0.018749   -1.131959    0.589853
  H      0.316214    1.778833    1.238680
  H     -0.267008    1.989473   -0.406755
  H     -1.505669    0.286077    1.363180
  H      2.239182    0.699998    0.515953
  H      1.805001    1.062014   -1.144547
  H      1.957317   -1.543984   -0.285662
  H      0.712680   -1.051071   -1.433973
  H      0.394985   -1.200202    1.601885
  H     -0.593617   -2.043676    0.407070
  O     -1.690295    0.103113   -0.689408
  H     -2.296840   -0.639408   -0.626076

 Total Charge           Charge          ....    0
 Multiplicity           Mult            ....    1
 Number of Electrons    NEL             ....   48
 Basis Dimension        Dim             ....  506

ORBITAL ENERGIES
----------------

  NO   OCC          E(Eh)            E(eV)
   0   2.0000     -20.551023      -559.2218
   1   2.0000     -11.272459      -306.7392
   2   2.0000     -11.216983      -305.2296
   3   2.0000     -11.213255      -305.1282
   4   2.0000     -11.212217      -305.0999
   5   2.0000     -11.211105      -305.0697
   6   2.0000      -1.355664       -36.8895
   7   2.0000      -1.109770       -30.1984
   8   2.0000      -0.964450       -26.2440
   9   2.0000      -0.950283       -25.8585
  10   2.0000      -0.786317       -21.3968
  11   2.0000      -0.768469       -20.9111
  12   2.0000      -0.688840       -18.7443
  13   2.0000      -0.655608       -17.8400
  14   2.0000      -0.639238       -17.3945
  15   2.0000      -0.585930       -15.9440
  16   2.0000      -0.546366       -14.8674
  17   2.0000      -0.530736       -14.4420
  18   2.0000      -0.498082       -13.5535
  19   2.0000      -0.476178       -12.9575
  20   2.0000      -0.468982       -12.7616
  21   2.0000      -0.462027       -12.5724
  22   2.0000      -0.449589       -12.2339
  23   2.0000      -0.430321       -11.7096
  24   0.0000       0.028788         0.7834
  25   0.0000       0.037032         1.0077
  26   0.0000       0.037997         1.0340
  27   0.0000       0.041481         1.1288
  28   0.0000       0.054933         1.4948

MULLIKEN ATOMIC CHARGES
-----------------------
   0 C :   -0.631687
   1 C :    0.420988
   2 C :   -0.524726
   3 C :   -0.515920
   4 C :   -0.718182
   5 H :    0.256857
   6 H :    0.282648
   7 H :    0.380326
   8 H :    0.194449
   9 H :    0.331555
  10 H :    0.357352
  11 H :    0.190711
  12 H :    0.238023
  13 H :    0.310423
  14 O :   -0.686507
  15 H :    0.113690
Sum of atomic charges:    0.0000000

LOEWDIN ATOMIC CHARGES
----------------------
   0 C :    0.313380
   1 C :   -0.243819
   2 C :    0.312358
   3 C :    0.293162
   4 C :    0.293596
   5 H :   -0.149128
   6 H :   -0.155646
   7 H :   -0.132983
   8 H :   -0.151316
   9 H :   -0.147893
  10 H :   -0.144754
  11 H :   -0.147434
  12 H :   -0.138354
  13 H :   -0.143264
  14 O :    0.830151
  15 H :   -0.488055

  Mayer bond orders larger than 0.100000
B(  0-C ,  1-C ) :   0.9515 B(  0-C ,  2-C ) :   0.9908 B(  0-C ,  5-H ) :   0.9767
B(  0-C ,  6-H ) :   0.9333 B(  1-C ,  4-C ) :   0.9358 B(  1-C ,  7-H ) :   0.8581
B(  1-C , 14-O ) :   0.3765 B(  2-C ,  3-C ) :   0.9302 B(  2-C ,  8-H ) :   1.0083
B(  2-C ,  9-H ) :   0.8888 B(  3-C ,  4-C ) :   0.9568 B(  3-C , 10-H ) :   0.8645
B(  3-C , 11-H ) :   1.0214 B(  4-C , 12-H ) :   0.9844 B(  4-C , 13-H ) :   0.8925
B(  4-C , 14-O ) :   0.1366 B( 14-O , 15-H ) :   1.0410

MP2 TOTAL ENERGY:     -271.239961000 Eh
FINAL SINGLE POINT ENERGY      -271.239960999813

DIPOLE MOMENT
-------------
                                X             Y             Z
Electronic contribution:     -2.83269       0.27395      -0.79816
Nuclear contribution   :      2.86307      -0.69109       1.27568
                        -----------------------------------------
Total Dipole Moment    :      0.03038      -0.41713       0.47752
                        -----------------------------------------
Magnitude (a.u.)       :      0.63478
Magnitude (Debye)      :      1.61348

Rotational constants in cm-1:     0.175824     0.116708     0.092273
Rotational constants in MHz :  5271.056046  3498.829374  2766.283303

                             ****ORCA TERMINATED NORMALLY****
TOTAL RUN TIME: 0 days 0 hours 1 minutes 55 seconds 311 msec
