                         Program Version 4.2.1 -  RELEASE  -
|  1> %pal
|  2>  nprocs 32
|  3> end
|  4> !RI-MP2 aug-cc-pVTZ aug-cc-pVTZ/C TightSCF
|  5> %maxcore 4500
|  6> *xyzfile 0 1  10_89TS.xyz
|  7>
|  8>
|  9>                          ****END OF INPUT****

CARTESIAN COORDINATES (ANGSTROEM)
---------------------------------
  O      1.282176   -0.244010    1.587089
  C      0.796093   -1.213083    0.904847
  C     -0.493446   -1.666873    1.002651
  C     -1.228014    0.392949   -0.087891
  C     -0.834505    1.168417    0.986616
  C      0.486320    1.574347    1.041684
  H     -1.109258   -1.383523    1.842052
  H     -0.810175   -2.484020    0.368380
  H     -1.480569    1.236408    1.851420
  H      0.855793    2.091240    1.917065
  C     -0.428160    0.375172   -1.314222
  C      0.727125    1.035377   -1.384248
  C      1.274503    1.805933   -0.222728
  H     -0.804647   -0.188419   -2.155965
  H      1.303321    1.055103   -2.301179
  H      2.316286    1.537238   -0.050236
  O      1.318615    3.205120   -0.502772
  H      0.443600    3.489766   -0.787465
  C      1.687357   -1.777714   -0.192475
  O      2.916902   -1.253690   -0.171265
  O      1.345711   -2.610827   -0.980873
  C     -2.630962   -0.123341   -0.093830
  O     -3.390908   -0.030614    0.831885
  O     -2.962119   -0.705853   -1.256164
  H      2.939112   -0.643462    0.587167
  H     -3.874359   -1.018443   -1.176870

 Total Charge           Charge          ....    0
 Multiplicity           Mult            ....    1
 Number of Electrons    NEL             ....  118
 Basis Dimension        Dim             ....  966

ORBITAL ENERGIES
----------------

  NO   OCC          E(Eh)            E(eV)
   0   2.0000     -20.641383      -561.6806
   1   2.0000     -20.606670      -560.7360
   2   2.0000     -20.594028      -560.3920
   3   2.0000     -20.577428      -559.9403
   4   2.0000     -20.576381      -559.9118
   5   2.0000     -20.544282      -559.0383
   6   2.0000     -11.420562      -310.7693
   7   2.0000     -11.381141      -309.6966
   8   2.0000     -11.328085      -308.2529
   9   2.0000     -11.325758      -308.1896
  10   2.0000     -11.324987      -308.1686
  11   2.0000     -11.317665      -307.9693
  12   2.0000     -11.272181      -306.7316
  13   2.0000     -11.269520      -306.6592
  14   2.0000     -11.261365      -306.4373
  15   2.0000     -11.251004      -306.1554
  16   2.0000      -1.499530       -40.8043
  17   2.0000      -1.466655       -39.9097
  18   2.0000      -1.399573       -38.0843
  19   2.0000      -1.394078       -37.9348
  20   2.0000      -1.384153       -37.6647
  21   2.0000      -1.365278       -37.1511
  22   2.0000      -1.190116       -32.3847
  23   2.0000      -1.070489       -29.1295
  24   2.0000      -1.069182       -29.0939
  25   2.0000      -1.027285       -27.9538
  26   2.0000      -0.939806       -25.5734
  27   2.0000      -0.881940       -23.9988
  28   2.0000      -0.874381       -23.7931
  29   2.0000      -0.839911       -22.8551
  30   2.0000      -0.803996       -21.8778
  31   2.0000      -0.767562       -20.8864
  32   2.0000      -0.750729       -20.4284
  33   2.0000      -0.733281       -19.9536
  34   2.0000      -0.718742       -19.5580
  35   2.0000      -0.683658       -18.6033
  36   2.0000      -0.673530       -18.3277
  37   2.0000      -0.670254       -18.2385
  38   2.0000      -0.662756       -18.0345
  39   2.0000      -0.660193       -17.9648
  40   2.0000      -0.649015       -17.6606
  41   2.0000      -0.634926       -17.2772
  42   2.0000      -0.632042       -17.1987
  43   2.0000      -0.629598       -17.1322
  44   2.0000      -0.610036       -16.5999
  45   2.0000      -0.598170       -16.2770
  46   2.0000      -0.572668       -15.5831
  47   2.0000      -0.556821       -15.1519
  48   2.0000      -0.553252       -15.0547
  49   2.0000      -0.526325       -14.3220
  50   2.0000      -0.518712       -14.1149
  51   2.0000      -0.515255       -14.0208
  52   2.0000      -0.489028       -13.3071
  53   2.0000      -0.486695       -13.2436
  54   2.0000      -0.481331       -13.0977
  55   2.0000      -0.460402       -12.5282
  56   2.0000      -0.432544       -11.7701
  57   2.0000      -0.370945       -10.0939
  58   2.0000      -0.333293        -9.0694
  59   0.0000      -0.004908        -0.1335
  60   0.0000       0.021512         0.5854
  61   0.0000       0.028181         0.7668
  62   0.0000       0.032718         0.8903
  63   0.0000       0.037276         1.0143

MULLIKEN ATOMIC CHARGES
-----------------------
   0 O :   -1.246410
   1 C :    1.054687
   2 C :   -0.883786
   3 C :    1.758012
   4 C :   -1.170798
   5 C :    0.040375
   6 H :    0.565747
   7 H :    0.272132
   8 H :    0.371260
   9 H :    0.498391
  10 C :   -0.764625
  11 C :   -0.540144
  12 C :    0.795853
  13 H :    0.162404
  14 H :    0.224150
  15 H :    0.351442
  16 O :   -0.790490
  17 H :    0.182385
  18 C :    0.997776
  19 O :   -0.609414
  20 O :   -0.959043
  21 C :    0.685622
  22 O :   -1.045000
  23 O :   -0.553246
  24 H :    0.360117
  25 H :    0.242601
Sum of atomic charges:    0.0000000

LOEWDIN ATOMIC CHARGES
----------------------
   0 O :    0.541772
   1 C :   -0.578985
   2 C :    0.498246
   3 C :   -0.160025
   4 C :    0.187610
   5 C :    0.156463
   6 H :   -0.202745
   7 H :   -0.198754
   8 H :   -0.164239
   9 H :   -0.131305
  10 C :    0.215720
  11 C :    0.260109
  12 C :   -0.266095
  13 H :   -0.179406
  14 H :   -0.148213
  15 H :   -0.161477
  16 O :    0.843342
  17 H :   -0.478155
  18 C :   -0.836361
  19 O :    0.845573
  20 O :    0.448813
  21 C :   -0.807400
  22 O :    0.487338
  23 O :    0.857985
  24 H :   -0.582385
  25 H :   -0.447426

  Mayer bond orders larger than 0.100000
B(  0-O ,  1-C ) :   0.7144 B(  0-O ,  5-C ) :   0.1318 B(  0-O , 12-C ) :   0.1229
B(  0-O , 18-C ) :   0.1049 B(  1-C ,  2-C ) :   1.1113 B(  1-C ,  3-C ) :   0.1189
B(  1-C ,  6-H ) :  -0.1013 B(  1-C , 10-C ) :  -0.1246 B(  1-C , 18-C ) :   0.7635
B(  2-C ,  4-C ) :   0.1335 B(  2-C ,  6-H ) :   0.6239 B(  2-C ,  7-H ) :   1.1020
B(  2-C , 10-C ) :   0.1101 B(  3-C ,  4-C ) :   0.7883 B(  3-C ,  5-C ) :  -0.1251
B(  3-C , 10-C ) :   0.4341 B(  3-C , 11-C ) :   0.1255 B(  3-C , 21-C ) :   0.4545
B(  3-C , 23-O ) :  -0.1271 B(  4-C ,  5-C ) :   1.3154 B(  4-C ,  8-H ) :   0.7352
B(  4-C , 10-C ) :   0.2097 B(  4-C , 12-C ) :   0.2563 B(  4-C , 13-H ) :  -0.1252
B(  5-C ,  9-H ) :   0.6916 B(  5-C , 12-C ) :   0.9987 B(  5-C , 16-O ) :   0.1451
B( 10-C , 11-C ) :   1.7298 B( 10-C , 13-H ) :   1.1664 B( 10-C , 21-C ) :   0.1272
B( 11-C , 12-C ) :   0.6509 B( 11-C , 14-H ) :   1.1195 B( 11-C , 16-O ) :   0.1339
B( 12-C , 15-H ) :   1.0162 B( 16-O , 17-H ) :   1.0220 B( 18-C , 19-O ) :   0.6380
B( 18-C , 20-O ) :   1.1772 B( 19-O , 24-H ) :   0.8625 B( 21-C , 22-O ) :   0.9122
B( 21-C , 23-O ) :   0.9367 B( 23-O , 25-H ) :   0.9704

MP2 TOTAL ENERGY:     -836.977184351 Eh
FINAL SINGLE POINT ENERGY      -836.977184351146

DIPOLE MOMENT
-------------
                                X             Y             Z
Electronic contribution:     -0.87394      -2.36270      -0.14638
Nuclear contribution   :     -0.20855       3.59194       0.08486
                        -----------------------------------------
Total Dipole Moment    :     -1.08249       1.22925      -0.06151
                        -----------------------------------------
Magnitude (a.u.)       :      1.63909
Magnitude (Debye)      :      4.16623

Rotational constants in cm-1:     0.022768     0.017248     0.013015
Rotational constants in MHz :   682.569378   517.090494   390.182609

                             ****ORCA TERMINATED NORMALLY****
TOTAL RUN TIME: 0 days 0 hours 20 minutes 0 seconds 70 msec
