                         Program Version 4.2.1 -  RELEASE  -
|  1> %pal
|  2>  nprocs 32
|  3> end
|  4> !RI-MP2 aug-cc-pVTZ aug-cc-pVTZ/C TightSCF
|  5> %maxcore 4500
|  6> *xyzfile 0 1  03_37P2.xyz
|  7>
|  8>
|  9>                          ****END OF INPUT****

CARTESIAN COORDINATES (ANGSTROEM)
---------------------------------
  C      1.162747   -0.032666   -0.370986
  C      2.004167    0.647188    0.688335
  C     -0.298586    0.357261   -0.238455
  O     -0.674749    1.477515   -0.464326
  O     -1.079498   -0.635969    0.162470
  C     -2.467200   -0.312531    0.317877
  H      3.053448    0.390423    0.543754
  H      1.695500    0.320259    1.682684
  H      1.887014    1.728486    0.615859
  H     -2.945084   -1.233035    0.640147
  H     -2.883179    0.027710   -0.629826
  H     -2.590798    0.470349    1.065512
  F      1.325688   -1.406393   -0.278969
  H      1.479121    0.265465   -1.373181

 Total Charge           Charge          ....    0
 Multiplicity           Mult            ....    1
 Number of Electrons    NEL             ....   56
 Basis Dimension        Dim             ....  483

ORBITAL ENERGIES
----------------

  NO   OCC          E(Eh)            E(eV)
   0   2.0000     -26.289020      -715.3606
   1   2.0000     -20.616160      -560.9942
   2   2.0000     -20.553772      -559.2966
   3   2.0000     -11.388474      -309.8961
   4   2.0000     -11.336059      -308.4699
   5   2.0000     -11.292930      -307.2962
   6   2.0000     -11.239032      -305.8296
   7   2.0000      -1.602112       -43.5957
   8   2.0000      -1.477722       -40.2109
   9   2.0000      -1.374260       -37.3955
  10   2.0000      -1.072718       -29.1901
  11   2.0000      -0.990015       -26.9397
  12   2.0000      -0.898899       -24.4603
  13   2.0000      -0.791822       -21.5466
  14   2.0000      -0.747579       -20.3427
  15   2.0000      -0.725118       -19.7315
  16   2.0000      -0.696782       -18.9604
  17   2.0000      -0.676203       -18.4004
  18   2.0000      -0.660410       -17.9707
  19   2.0000      -0.629149       -17.1200
  20   2.0000      -0.598943       -16.2981
  21   2.0000      -0.572500       -15.5785
  22   2.0000      -0.557844       -15.1797
  23   2.0000      -0.550166       -14.9708
  24   2.0000      -0.531006       -14.4494
  25   2.0000      -0.513792       -13.9810
  26   2.0000      -0.470886       -12.8135
  27   2.0000      -0.455625       -12.3982
  28   0.0000       0.029446         0.8013
  29   0.0000       0.033480         0.9110
  30   0.0000       0.038902         1.0586
  31   0.0000       0.046272         1.2591
  32   0.0000       0.055002         1.4967

MULLIKEN ATOMIC CHARGES
-----------------------
   0 C :    0.655013
   1 C :   -0.996238
   2 C :    0.494700
   3 O :   -0.808844
   4 O :   -0.371130
   5 C :   -0.767766
   6 H :    0.288990
   7 H :    0.300833
   8 H :    0.321382
   9 H :    0.331774
  10 H :    0.366265
  11 H :    0.357519
  12 F :   -0.534066
  13 H :    0.361568
Sum of atomic charges:    0.0000000

LOEWDIN ATOMIC CHARGES
----------------------
   0 C :   -0.411110
   1 C :    0.580858
   2 C :   -0.847919
   3 O :    0.468427
   4 O :    0.566468
   5 C :    0.366973
   6 H :   -0.167249
   7 H :   -0.163349
   8 H :   -0.170073
   9 H :   -0.183323
  10 H :   -0.178453
  11 H :   -0.178340
  12 F :    0.476019
  13 H :   -0.158930

  Mayer bond orders larger than 0.100000
B(  0-C ,  1-C ) :   0.8847 B(  0-C ,  2-C ) :   0.5977 B(  0-C ,  3-O ) :  -0.1534
B(  0-C , 12-F ) :   0.5135 B(  0-C , 13-H ) :   0.9250 B(  1-C ,  2-C ) :   0.1349
B(  1-C ,  6-H ) :   0.9545 B(  1-C ,  7-H ) :   0.9142 B(  1-C ,  8-H ) :   0.9020
B(  1-C , 12-F ) :   0.1010 B(  2-C ,  3-O ) :   1.5128 B(  2-C ,  4-O ) :   0.9597
B(  4-O ,  5-C ) :   0.8314 B(  5-C ,  9-H ) :   0.9137 B(  5-C , 10-H ) :   0.8747
B(  5-C , 11-H ) :   0.8757

MP2 TOTAL ENERGY:     -406.288092489 Eh
FINAL SINGLE POINT ENERGY      -406.288092488514

DIPOLE MOMENT
-------------
                                X             Y             Z
Electronic contribution:      1.51630      -3.32042      -2.53217
Nuclear contribution   :     -1.62658       3.34250       2.79118
                        -----------------------------------------
Total Dipole Moment    :     -0.11028       0.02207       0.25900
                        -----------------------------------------
Magnitude (a.u.)       :      0.28237
Magnitude (Debye)      :      0.71773

Rotational constants in cm-1:     0.149158     0.064236     0.050827
Rotational constants in MHz :  4471.646453  1925.748276  1523.757393

                             ****ORCA TERMINATED NORMALLY****
TOTAL RUN TIME: 0 days 0 hours 1 minutes 30 seconds 346 msec
