                         Program Version 4.2.1 -  RELEASE  -
|  1> %pal
|  2>  nprocs 32
|  3> end
|  4> !RI-MP2 aug-cc-pVTZ aug-cc-pVTZ/C TightSCF
|  5> %maxcore 4500
|  6> *xyzfile 1 1  08_12P1.xyz
|  7>
|  8>
|  9>                          ****END OF INPUT****

CARTESIAN COORDINATES (ANGSTROEM)
---------------------------------
  C      3.071230   -1.123568    0.757701
  N      2.609639   -0.341813   -0.443506
  C      1.312758    0.329262   -0.247667
  N      1.362796    1.629899   -0.128587
  C      0.200700    2.280926    0.062354
  N     -1.000504    1.726050    0.138982
  C     -0.997530    0.411771    0.012139
  C      0.143596   -0.389530   -0.185496
  H      0.262310    3.357252    0.158972
  N     -0.190408   -1.713696   -0.277718
  C     -1.492287   -1.710732   -0.142651
  N     -2.042037   -0.467713    0.035584
  H     -2.112492   -2.595711   -0.164149
  C     -3.450492   -0.128625    0.211233
  H     -4.032252   -1.047475    0.203068
  H     -3.778765    0.518192   -0.600554
  H     -3.590194    0.382920    1.161867
  H      3.134617   -0.436516    1.597763
  H      4.046052   -1.552265    0.536180
  H      2.339078   -1.904321    0.947790
  H      2.547345   -0.969512   -1.251246
  H      3.280049    0.401318   -0.668656

 Total Charge           Charge          ....    1
 Multiplicity           Mult            ....    1
 Number of Electrons    NEL             ....   86
 Basis Dimension        Dim             ....  782

ORBITAL ENERGIES
----------------

  NO   OCC          E(Eh)            E(eV)
   0   2.0000     -15.873558      -431.9415
   1   2.0000     -15.772905      -429.2026
   2   2.0000     -15.728956      -428.0067
   3   2.0000     -15.720136      -427.7666
   4   2.0000     -15.708706      -427.4556
   5   2.0000     -11.501790      -312.9796
   6   2.0000     -11.470635      -312.1318
   7   2.0000     -11.469365      -312.0973
   8   2.0000     -11.460309      -311.8509
   9   2.0000     -11.454506      -311.6929
  10   2.0000     -11.423159      -310.8400
  11   2.0000     -11.402357      -310.2739
  12   2.0000      -1.532904       -41.7124
  13   2.0000      -1.508668       -41.0529
  14   2.0000      -1.448999       -39.4293
  15   2.0000      -1.368350       -37.2347
  16   2.0000      -1.333699       -36.2918
  17   2.0000      -1.208311       -32.8798
  18   2.0000      -1.143168       -31.1072
  19   2.0000      -1.120138       -30.4805
  20   2.0000      -1.057059       -28.7640
  21   2.0000      -1.044351       -28.4182
  22   2.0000      -0.975974       -26.5576
  23   2.0000      -0.955505       -26.0006
  24   2.0000      -0.897522       -24.4228
  25   2.0000      -0.880915       -23.9709
  26   2.0000      -0.852277       -23.1916
  27   2.0000      -0.835156       -22.7257
  28   2.0000      -0.804431       -21.8897
  29   2.0000      -0.786129       -21.3917
  30   2.0000      -0.771528       -20.9944
  31   2.0000      -0.747620       -20.3438
  32   2.0000      -0.743921       -20.2431
  33   2.0000      -0.738559       -20.0972
  34   2.0000      -0.727864       -19.8062
  35   2.0000      -0.700558       -19.0631
  36   2.0000      -0.675523       -18.3819
  37   2.0000      -0.646185       -17.5836
  38   2.0000      -0.613186       -16.6856
  39   2.0000      -0.610510       -16.6128
  40   2.0000      -0.565752       -15.3949
  41   2.0000      -0.523903       -14.2561
  42   2.0000      -0.481187       -13.0938
  43   0.0000      -0.087196        -2.3727
  44   0.0000      -0.066733        -1.8159
  45   0.0000      -0.062236        -1.6935
  46   0.0000      -0.059956        -1.6315
  47   0.0000      -0.054094        -1.4720

MULLIKEN ATOMIC CHARGES
-----------------------
   0 C :   -0.888052
   1 N :    0.222374
   2 C :    0.366052
   3 N :   -0.733682
   4 C :   -0.740540
   5 N :   -0.570578
   6 C :    0.143960
   7 C :    1.470417
   8 H :    0.656425
   9 N :   -0.922966
  10 C :   -0.518810
  11 N :    0.331060
  12 H :    0.725208
  13 C :   -0.966009
  14 H :    0.377474
  15 H :    0.354457
  16 H :    0.357670
  17 H :    0.385640
  18 H :    0.377984
  19 H :    0.442703
  20 H :    0.094890
  21 H :    0.034323
Sum of atomic charges:    1.0000000

LOEWDIN ATOMIC CHARGES
----------------------
   0 C :    0.671561
   1 N :    0.772183
   2 C :   -0.314744
   3 N :    0.430174
   4 C :   -0.095768
   5 N :    0.450457
   6 C :   -0.404237
   7 C :   -0.304244
   8 H :   -0.180744
   9 N :    0.415250
  10 C :    0.001694
  11 N :    0.270913
  12 H :   -0.136595
  13 C :    0.573126
  14 H :   -0.155500
  15 H :   -0.143779
  16 H :   -0.144365
  17 H :   -0.125119
  18 H :   -0.124671
  19 H :   -0.139881
  20 H :   -0.145099
  21 H :   -0.170615

  Mayer bond orders larger than 0.100000
B(  0-C ,  1-N ) :   0.8446 B(  0-C , 17-H ) :   0.8703 B(  0-C , 18-H ) :   0.8866
B(  0-C , 19-H ) :   0.7902 B(  1-N ,  2-C ) :   0.8993 B(  1-N , 20-H ) :   1.0398
B(  1-N , 21-H ) :   1.0661 B(  2-C ,  3-N ) :   0.1516 B(  2-C ,  4-C ) :  -0.4501
B(  2-C ,  6-C ) :   1.0818 B(  2-C ,  7-C ) :  -0.1707 B(  2-C , 11-N ) :  -0.1274
B(  3-N ,  4-C ) :   1.4570 B(  4-C ,  5-N ) :   1.4517 B(  4-C ,  6-C ) :  -0.3415
B(  4-C ,  7-C ) :  -0.2052 B(  4-C ,  8-H ) :   0.4212 B(  5-N ,  6-C ) :   0.7168
B(  5-N ,  7-C ) :  -0.1744 B(  5-N , 11-N ) :  -0.1837 B(  6-C ,  7-C ) :   1.2101
B(  6-C , 10-C ) :  -0.6264 B(  6-C , 11-N ) :   0.7274 B(  6-C , 13-C ) :  -0.1676
B(  7-C , 10-C ) :  -0.1550 B(  9-N , 10-C ) :   1.6872 B( 10-C , 11-N ) :   1.1644
B( 10-C , 12-H ) :   0.3664 B( 11-N , 13-C ) :   0.8920 B( 13-C , 14-H ) :   0.8759
B( 13-C , 15-H ) :   0.9186 B( 13-C , 16-H ) :   0.9173

MP2 TOTAL ENERGY:     -545.273036422 Eh
FINAL SINGLE POINT ENERGY      -545.273036422154

DIPOLE MOMENT
-------------
                                X             Y             Z
Electronic contribution:     -0.31983       2.72710      -2.06190
Nuclear contribution   :      2.08986      -3.82252       1.90774
                        -----------------------------------------
Total Dipole Moment    :      1.77003      -1.09542      -0.15417
                        -----------------------------------------
Magnitude (a.u.)       :      2.08727
Magnitude (Debye)      :      5.30543

Rotational constants in cm-1:     0.058005     0.026788     0.019193
Rotational constants in MHz :  1738.931254   803.069989   575.394738

                             ****ORCA TERMINATED NORMALLY****
TOTAL RUN TIME: 0 days 0 hours 8 minutes 9 seconds 896 msec
