                         Program Version 4.2.1 -  RELEASE  -
|  1> %pal
|  2>  nprocs 32
|  3> end
|  4> !RI-MP2 aug-cc-pVTZ aug-cc-pVTZ/C TightSCF
|  5> %maxcore 4500
|  6> *xyzfile -1 1  05_2TS.xyz
|  7>
|  8>
|  9>                          ****END OF INPUT****

CARTESIAN COORDINATES (ANGSTROEM)
---------------------------------
  O     -0.892797    1.817263   -0.414849
  C     -0.576459    0.771431    0.204751
  C     -1.450041   -0.405767    0.185787
  O     -2.606514   -0.155101   -0.518302
  O     -1.136136   -1.594106    0.452898
  C      0.792194    0.626550    0.861828
  H     -1.518959    0.427888    1.360549
  C      1.814579   -0.065111   -0.029994
  H      0.705268    0.035386    1.775649
  H      1.171361    1.617270    1.101176
  O      2.908924    0.422722   -0.279876
  N      1.416790   -1.272908   -0.482541
  H     -2.486243    0.765958   -0.821885
  H      0.493460   -1.647717   -0.208505
  H      2.048131   -1.777269   -1.082397

 Total Charge           Charge          ....   -1
 Multiplicity           Mult            ....    1
 Number of Electrons    NEL             ....   70
 Basis Dimension        Dim             ....  552

ORBITAL ENERGIES
----------------

  NO   OCC          E(Eh)            E(eV)
   0   2.0000     -20.423194      -555.7434
   1   2.0000     -20.385469      -554.7168
   2   2.0000     -20.353152      -553.8374
   3   2.0000     -20.340882      -553.5035
   4   2.0000     -15.433006      -419.9534
   5   2.0000     -11.216197      -305.2082
   6   2.0000     -11.210871      -305.0633
   7   2.0000     -11.179490      -304.2094
   8   2.0000     -11.105408      -302.1935
   9   2.0000      -1.269078       -34.5334
  10   2.0000      -1.244505       -33.8647
  11   2.0000      -1.186386       -32.2832
  12   2.0000      -1.159361       -31.5478
  13   2.0000      -1.067980       -29.0612
  14   2.0000      -0.899419       -24.4744
  15   2.0000      -0.782677       -21.2977
  16   2.0000      -0.660541       -17.9742
  17   2.0000      -0.614687       -16.7265
  18   2.0000      -0.586619       -15.9627
  19   2.0000      -0.550404       -14.9773
  20   2.0000      -0.526162       -14.3176
  21   2.0000      -0.488590       -13.2952
  22   2.0000      -0.480609       -13.0780
  23   2.0000      -0.459704       -12.5092
  24   2.0000      -0.443343       -12.0640
  25   2.0000      -0.433358       -11.7923
  26   2.0000      -0.398351       -10.8397
  27   2.0000      -0.387389       -10.5414
  28   2.0000      -0.361168        -9.8279
  29   2.0000      -0.319940        -8.7060
  30   2.0000      -0.305298        -8.3076
  31   2.0000      -0.290685        -7.9099
  32   2.0000      -0.273045        -7.4299
  33   2.0000      -0.247580        -6.7370
  34   2.0000      -0.169897        -4.6231
  35   0.0000       0.118524         3.2252
  36   0.0000       0.128154         3.4872
  37   0.0000       0.133158         3.6234
  38   0.0000       0.139045         3.7836
  39   0.0000       0.152372         4.1463

MULLIKEN ATOMIC CHARGES
-----------------------
   0 O :   -1.213852
   1 C :    0.797770
   2 C :    0.790911
   3 O :   -0.614239
   4 O :   -0.989344
   5 C :   -0.022403
   6 H :   -0.008281
   7 C :    0.427190
   8 H :    0.288901
   9 H :    0.182432
  10 O :   -0.918054
  11 N :   -0.421619
  12 H :    0.261239
  13 H :    0.307842
  14 H :    0.131507
Sum of atomic charges:   -1.0000000

LOEWDIN ATOMIC CHARGES
----------------------
   0 O :    0.404631
   1 C :   -0.640786
   2 C :   -0.905143
   3 O :    0.805416
   4 O :    0.421578
   5 C :    0.262407
   6 H :   -0.092847
   7 C :   -0.697148
   8 H :   -0.168341
   9 H :   -0.177094
  10 O :    0.388244
  11 N :    0.844583
  12 H :   -0.620880
  13 H :   -0.527479
  14 H :   -0.297139

  Mayer bond orders larger than 0.100000
B(  0-O ,  1-C ) :   0.6530 B(  0-O ,  2-C ) :   0.1184 B(  1-C ,  2-C ) :   1.0981
B(  1-C ,  5-C ) :   0.8571 B(  1-C ,  6-H ) :   0.3633 B(  1-C ,  7-C ) :   0.2155
B(  2-C ,  3-O ) :   0.6775 B(  2-C ,  4-O ) :   1.0919 B(  2-C ,  6-H ) :   0.6291
B(  3-O , 12-H ) :   0.9037 B(  5-C ,  7-C ) :   0.4670 B(  5-C ,  8-H ) :   0.9470
B(  5-C ,  9-H ) :   1.0421 B(  7-C , 10-O ) :   1.2015 B(  7-C , 11-N ) :   1.0333
B( 11-N , 13-H ) :   0.8931 B( 11-N , 14-H ) :   1.0053

MP2 TOTAL ENERGY:     -510.917667434 Eh
FINAL SINGLE POINT ENERGY      -510.917667434425

DIPOLE MOMENT
-------------
                                X             Y             Z
Electronic contribution:      0.16322       0.13436      -1.88558
Nuclear contribution   :      0.38663      -0.56724       2.06972
                        -----------------------------------------
Total Dipole Moment    :      0.54985      -0.43288       0.18414
                        -----------------------------------------
Magnitude (a.u.)       :      0.72362
Magnitude (Debye)      :      1.83930

Rotational constants in cm-1:     0.096115     0.039237     0.031238
Rotational constants in MHz :  2881.446008  1176.303738   936.505682

                             ****ORCA TERMINATED NORMALLY****
TOTAL RUN TIME: 0 days 0 hours 2 minutes 49 seconds 864 msec
