                         Program Version 4.2.1 -  RELEASE  -
|  1> %pal
|  2>  nprocs 32
|  3> end
|  4> !RI-MP2 aug-cc-pVTZ aug-cc-pVTZ/C TightSCF
|  5> %maxcore 4500
|  6> *xyzfile 0 2  01_27R.xyz
|  7>
|  8>
|  9>                          ****END OF INPUT****

CARTESIAN COORDINATES (ANGSTROEM)
---------------------------------
  C      0.938215    0.708224    0.342979
  C     -0.331527    1.078070    1.048094
  C     -1.465209    1.538394    0.116175
  H     -0.112320    1.898465    1.744206
  H     -0.677429    0.240158    1.658306
  C     -1.991746    0.438792   -0.812499
  H     -1.117402    2.381266   -0.487887
  H     -2.289120    1.920626    0.728240
  C     -2.721773   -0.643690   -0.076032
  H     -1.167375    0.004453   -1.384800
  H     -2.674992    0.895227   -1.537067
  C     -2.387238   -1.925816   -0.065016
  S      1.284716   -0.994678    0.226302
  C      1.601925    1.705939   -0.546002
  H      1.221568    1.663208   -1.577658
  H      2.683806    1.571299   -0.600382
  H      1.416488    2.717577   -0.176232
  C      3.035518   -1.044138   -0.238714
  H      3.202696   -0.642691   -1.236732
  H      3.319359   -2.095710   -0.233019
  H      3.644292   -0.508866    0.489345
  H     -2.962035   -2.656399    0.491701
  H     -1.521414   -2.287765   -0.608758
  H     -3.590573   -0.320649    0.495999

 Total Charge           Charge          ....    0
 Multiplicity           Mult            ....    2
 Number of Electrons    NEL             ....   79
 Basis Dimension        Dim             ....  763

ORBITAL ENERGIES
----------------
                 SPIN UP ORBITALS
  NO   OCC          E(Eh)            E(eV)
   0   1.0000     -91.948760     -2502.0530
   1   1.0000     -11.251314      -306.1638
   2   1.0000     -11.250757      -306.1487
   3   1.0000     -11.224028      -305.4213
   4   1.0000     -11.223688      -305.4121
   5   1.0000     -11.222413      -305.3774
   6   1.0000     -11.221129      -305.3424
   7   1.0000     -11.219136      -305.2882
   8   1.0000     -11.210247      -305.0463
   9   1.0000      -8.948934      -243.5129
  10   1.0000      -6.630699      -180.4305
  11   1.0000      -6.629388      -180.3948
  12   1.0000      -6.628254      -180.3640
  13   1.0000      -1.121455       -30.5163
  14   1.0000      -1.076377       -29.2897
  15   1.0000      -1.024333       -27.8735
  16   1.0000      -0.988539       -26.8995
  17   1.0000      -0.933756       -25.4088
  18   1.0000      -0.888551       -24.1787
  19   1.0000      -0.819290       -22.2940
  20   1.0000      -0.751826       -20.4582
  21   1.0000      -0.720589       -19.6082
  22   1.0000      -0.641286       -17.4503
  23   1.0000      -0.636633       -17.3237
  24   1.0000      -0.620808       -16.8931
  25   1.0000      -0.598710       -16.2917
  26   1.0000      -0.594419       -16.1750
  27   1.0000      -0.572218       -15.5708
  28   1.0000      -0.570996       -15.5376
  29   1.0000      -0.560111       -15.2414
  30   1.0000      -0.534089       -14.5333
  31   1.0000      -0.509557       -13.8658
  32   1.0000      -0.499770       -13.5994
  33   1.0000      -0.491264       -13.3680
  34   1.0000      -0.466472       -12.6933
  35   1.0000      -0.460560       -12.5325
  36   1.0000      -0.441450       -12.0125
  37   1.0000      -0.398021       -10.8307
  38   1.0000      -0.353995        -9.6327
  39   1.0000      -0.278283        -7.5725
  40   0.0000       0.027811         0.7568
  41   0.0000       0.032169         0.8754
  42   0.0000       0.035487         0.9657
  43   0.0000       0.036185         0.9846
  44   0.0000       0.045578         1.2402

                 SPIN DOWN ORBITALS
  NO   OCC          E(Eh)            E(eV)
   0   1.0000     -91.948554     -2502.0473
   1   1.0000     -11.251031      -306.1561
   2   1.0000     -11.227002      -305.5022
   3   1.0000     -11.226061      -305.4766
   4   1.0000     -11.224173      -305.4253
   5   1.0000     -11.223688      -305.4121
   6   1.0000     -11.220526      -305.3260
   7   1.0000     -11.219213      -305.2903
   8   1.0000     -11.210233      -305.0459
   9   1.0000      -8.948706      -243.5067
  10   1.0000      -6.631009      -180.4389
  11   1.0000      -6.629643      -180.4017
  12   1.0000      -6.626430      -180.3143
  13   1.0000      -1.100370       -29.9426
  14   1.0000      -1.066247       -29.0141
  15   1.0000      -1.021703       -27.8019
  16   1.0000      -0.979975       -26.6665
  17   1.0000      -0.932382       -25.3714
  18   1.0000      -0.881751       -23.9937
  19   1.0000      -0.815379       -22.1876
  20   1.0000      -0.749509       -20.3952
  21   1.0000      -0.689511       -18.7625
  22   1.0000      -0.633285       -17.2326
  23   1.0000      -0.630726       -17.1629
  24   1.0000      -0.607504       -16.5310
  25   1.0000      -0.596541       -16.2327
  26   1.0000      -0.588896       -16.0247
  27   1.0000      -0.564627       -15.3643
  28   1.0000      -0.558294       -15.1920
  29   1.0000      -0.554459       -15.0876
  30   1.0000      -0.532277       -14.4840
  31   1.0000      -0.507440       -13.8081
  32   1.0000      -0.489325       -13.3152
  33   1.0000      -0.486404       -13.2357
  34   1.0000      -0.463818       -12.6211
  35   1.0000      -0.454306       -12.3623
  36   1.0000      -0.427978       -11.6459
  37   1.0000      -0.354914        -9.6577
  38   1.0000      -0.349967        -9.5231
  39   0.0000       0.027900         0.7592
  40   0.0000       0.031811         0.8656
  41   0.0000       0.035511         0.9663
  42   0.0000       0.036158         0.9839
  43   0.0000       0.045606         1.2410

MULLIKEN ATOMIC CHARGES AND SPIN POPULATIONS
--------------------------------------------
   0 C :    0.564314    1.237693
   1 C :   -0.554983   -0.223482
   2 C :   -0.452110    0.058077
   3 H :    0.350723    0.053460
   4 H :    0.197596   -0.015415
   5 C :   -0.289569   -0.007252
   6 H :    0.142851   -0.005945
   7 H :    0.313416   -0.003186
   8 C :   -0.127483    0.000431
   9 H :    0.114779    0.001408
  10 H :    0.352182    0.001327
  11 C :   -1.017449    0.001286
  12 S :   -0.270318   -0.007207
  13 C :   -0.900601   -0.188570
  14 H :    0.262406    0.060567
  15 H :    0.304588    0.024993
  16 H :    0.206602    0.004212
  17 C :   -0.940963    0.002124
  18 H :    0.264979    0.001293
  19 H :    0.267723   -0.006621
  20 H :    0.296725    0.010667
  21 H :    0.493754    0.000364
  22 H :    0.287954   -0.000323
  23 H :    0.132886    0.000098
Sum of atomic charges         :    0.0000000

LOEWDIN ATOMIC CHARGES AND SPIN POPULATIONS
-------------------------------------------
   0 C :   -0.459263    0.540913
   1 C :    0.176410    0.091646
   2 C :    0.267697    0.023066
   3 H :   -0.150553    0.018414
   4 H :   -0.184745   -0.000363
   5 C :    0.238434    0.002002
   6 H :   -0.153180    0.001330
   7 H :   -0.142897    0.003787
   8 C :    0.168127   -0.000067
   9 H :   -0.173210    0.000135
  10 H :   -0.145635    0.000343
  11 C :    0.513190    0.000375
  12 S :    1.242359    0.147489
  13 C :    0.485574    0.105049
  14 H :   -0.161249    0.026314
  15 H :   -0.204442    0.008931
  16 H :   -0.174513    0.003086
  17 C :    0.231884    0.019026
  18 H :   -0.244648    0.001753
  19 H :   -0.254595    0.000907
  20 H :   -0.235935    0.004538
  21 H :   -0.225242    0.000046
  22 H :   -0.234871    0.001273
  23 H :   -0.178695    0.000008

  Mayer bond orders larger than 0.100000
B(  0-C ,  1-C ) :   0.8160 B(  0-C , 12-S ) :   0.6819 B(  0-C , 13-C ) :   0.7199
B(  1-C ,  2-C ) :   0.8736 B(  1-C ,  3-H ) :   0.9009 B(  1-C ,  4-H ) :   1.0511
B(  2-C ,  5-C ) :   0.8822 B(  2-C ,  6-H ) :   1.0395 B(  2-C ,  7-H ) :   0.9288
B(  5-C ,  8-C ) :   0.7470 B(  5-C ,  9-H ) :   1.0814 B(  5-C , 10-H ) :   0.9204
B(  8-C ,  9-H ) :   0.1268 B(  8-C , 10-H ) :  -0.1060 B(  8-C , 11-C ) :   1.2963
B(  8-C , 23-H ) :   1.1895 B( 11-C , 21-H ) :   0.6537 B( 11-C , 22-H ) :   1.0779
B( 12-S , 17-C ) :   0.9512 B( 13-C , 14-H ) :   0.9762 B( 13-C , 15-H ) :   0.9636
B( 13-C , 16-H ) :   1.0210 B( 17-C , 18-H ) :   0.9368 B( 17-C , 19-H ) :   0.9743
B( 17-C , 20-H ) :   0.9244

MP2 TOTAL ENERGY:     -710.823858157 Eh
FINAL SINGLE POINT ENERGY      -710.823858156712

DIPOLE MOMENT
-------------
                                X             Y             Z
Electronic contribution:      1.13113      -4.44672       2.14345
Nuclear contribution   :     -0.68773       4.98214      -2.32152
                        -----------------------------------------
Total Dipole Moment    :      0.44340       0.53542      -0.17806
                        -----------------------------------------
Magnitude (a.u.)       :      0.71762
Magnitude (Debye)      :      1.82405

Rotational constants in cm-1:     0.062610     0.029690     0.022575
Rotational constants in MHz :  1876.987168   890.078990   676.786914

                             ****ORCA TERMINATED NORMALLY****
TOTAL RUN TIME: 0 days 0 hours 12 minutes 26 seconds 997 msec
