                         Program Version 4.2.1 -  RELEASE  -
|  1> %pal
|  2>  nprocs 32
|  3> end
|  4> !RI-MP2 aug-cc-pVTZ aug-cc-pVTZ/C TightSCF
|  5> %maxcore 4500
|  6> *xyzfile 0 1  02_7R.xyz
|  7>
|  8>
|  9>                          ****END OF INPUT****

CARTESIAN COORDINATES (ANGSTROEM)
---------------------------------
  O     -7.640871   -0.053326   -0.163933
  C     -6.243964   -0.227167   -0.368575
  C     -5.563170    0.970646    0.295709
  C     -4.235874    1.321205   -0.296601
  C     -4.311064   -1.757671    0.181709
  C     -5.794254   -1.589488    0.180894
  C     -3.097817    1.507462    0.374387
  C     -1.366487   -2.390997    0.372183
  C     -2.147899   -2.518838   -0.708340
  C     -3.605785   -2.459718   -0.704379
  C     -1.865349    1.906625   -0.272308
  C     -0.704594    2.133520    0.351112
  C      0.073526   -2.319024    0.298998
  C      0.866285   -2.131286    1.359494
  C      2.323276   -1.951889    1.268491
  O      2.789004   -2.139422    0.022382
  C      4.157110   -1.774530   -0.277854
  C      4.771743   -2.925536   -1.052883
  C      4.834131   -4.221808   -0.254807
  C      0.482227    2.612884   -0.395730
  C      1.665085    3.054643    0.447980
  C      1.290052    4.380451    1.129172
  O      3.014137   -1.642128    2.209553
  C      4.123910   -0.468713   -1.055679
  C      3.499323    0.688286   -0.283843
  C      3.408916    1.961105   -1.119451
  C      2.967510    3.204480   -0.350264
  O      4.007931    3.659765    0.517091
  O      0.481798    2.707327   -1.607184
  H     -6.241273    1.817608    0.149176
  H     -5.484902    0.812718    1.375090
  H     -6.024678   -0.197025   -1.444333
  H     -6.182050   -1.668949    1.201611
  H     -6.265165   -2.380674   -0.411805
  H      0.528868   -2.390437   -0.683426
  H      0.466620   -2.041681    2.362646
  H      4.676029   -1.639050    0.672764
  H      3.571446   -0.629876   -1.987810
  H      5.150461   -0.212365   -1.336830
  H      2.497378    0.398851    0.043007
  H      4.083387    0.853226    0.629689
  H      4.387737    2.190509   -1.551573
  H      2.719060    1.803036   -1.949904
  H      2.833969    4.016154   -1.067224
  H      1.812851    2.301664    1.231969
  H     -1.890255    2.055269   -1.349052
  H      4.198233   -3.073724   -1.973416
  H      5.778498   -2.621897   -1.354983
  H      3.834376   -4.551017    0.033013
  H      5.419869   -4.093604    0.658798
  H      5.294796   -5.020238   -0.839362
  H      0.411404    4.272615    1.766877
  H      1.071313    5.142460    0.377175
  H      2.122888    4.731693    1.735850
  H      4.260459    2.938746    1.101168
  H     -8.112650   -0.800056   -0.542718
  H     -0.615567    2.010708    1.425672
  H     -1.670891   -2.653220   -1.676091
  H     -1.816976   -2.314033    1.357565
  H     -4.123065   -2.974132   -1.510577
  H     -3.770981   -1.201619    0.939861
  H     -4.221536    1.461401   -1.375989
  H     -3.076649    1.371353    1.453388

 Total Charge           Charge          ....    0
 Multiplicity           Mult            ....    1
 Number of Electrons    NEL             ....  218
 Basis Dimension        Dim             .... 2116

ORBITAL ENERGIES
----------------

  NO   OCC          E(Eh)            E(eV)
   0   2.0000     -20.589547      -560.2701
   1   2.0000     -20.571888      -559.7895
   2   2.0000     -20.548369      -559.1496
   3   2.0000     -20.534574      -558.7742
   4   2.0000     -20.534170      -558.7632
   5   2.0000     -11.374422      -309.5138
   6   2.0000     -11.324689      -308.1604
   7   2.0000     -11.301824      -307.5383
   8   2.0000     -11.283229      -307.0323
   9   2.0000     -11.272269      -306.7340
  10   2.0000     -11.263877      -306.5057
  11   2.0000     -11.259336      -306.3821
  12   2.0000     -11.259057      -306.3745
  13   2.0000     -11.257456      -306.3310
  14   2.0000     -11.251969      -306.1816
  15   2.0000     -11.247286      -306.0542
  16   2.0000     -11.246657      -306.0371
  17   2.0000     -11.246292      -306.0272
  18   2.0000     -11.244226      -305.9709
  19   2.0000     -11.243127      -305.9410
  20   2.0000     -11.239126      -305.8322
  21   2.0000     -11.234381      -305.7031
  22   2.0000     -11.231251      -305.6179
  23   2.0000     -11.223855      -305.4166
  24   2.0000     -11.222611      -305.3828
  25   2.0000     -11.220386      -305.3222
  26   2.0000     -11.217221      -305.2361
  27   2.0000     -11.211926      -305.0920
  28   2.0000     -11.209074      -305.0144
  29   2.0000      -1.453028       -39.5389
  30   2.0000      -1.380932       -37.5771
  31   2.0000      -1.378854       -37.5205
  32   2.0000      -1.354607       -36.8607
  33   2.0000      -1.353135       -36.8207
  34   2.0000      -1.139553       -31.0088
  35   2.0000      -1.126715       -30.6595
  36   2.0000      -1.108079       -30.1524
  37   2.0000      -1.098760       -29.8988
  38   2.0000      -1.080915       -29.4132
  39   2.0000      -1.073223       -29.2039
  40   2.0000      -1.047122       -28.4936
  41   2.0000      -1.040148       -28.3039
  42   2.0000      -1.003376       -27.3032
  43   2.0000      -0.984100       -26.7787
  44   2.0000      -0.960798       -26.1446
  45   2.0000      -0.925114       -25.1736
  46   2.0000      -0.896772       -24.4024
  47   2.0000      -0.886217       -24.1152
  48   2.0000      -0.854940       -23.2641
  49   2.0000      -0.842646       -22.9296
  50   2.0000      -0.823323       -22.4037
  51   2.0000      -0.806649       -21.9500
  52   2.0000      -0.799822       -21.7643
  53   2.0000      -0.786336       -21.3973
  54   2.0000      -0.770401       -20.9637
  55   2.0000      -0.764693       -20.8084
  56   2.0000      -0.749539       -20.3960
  57   2.0000      -0.731813       -19.9136
  58   2.0000      -0.709037       -19.2939
  59   2.0000      -0.706047       -19.2125
  60   2.0000      -0.685958       -18.6659
  61   2.0000      -0.678830       -18.4719
  62   2.0000      -0.672247       -18.2928
  63   2.0000      -0.665010       -18.0958
  64   2.0000      -0.661603       -18.0031
  65   2.0000      -0.651267       -17.7219
  66   2.0000      -0.645490       -17.5647
  67   2.0000      -0.637217       -17.3396
  68   2.0000      -0.629280       -17.1236
  69   2.0000      -0.625064       -17.0089
  70   2.0000      -0.612121       -16.6567
  71   2.0000      -0.607484       -16.5305
  72   2.0000      -0.597470       -16.2580
  73   2.0000      -0.596158       -16.2223
  74   2.0000      -0.586314       -15.9544
  75   2.0000      -0.580089       -15.7850
  76   2.0000      -0.571473       -15.5506
  77   2.0000      -0.570680       -15.5290
  78   2.0000      -0.565858       -15.3978
  79   2.0000      -0.563734       -15.3400
  80   2.0000      -0.547659       -14.9025
  81   2.0000      -0.545670       -14.8484
  82   2.0000      -0.543217       -14.7817
  83   2.0000      -0.535385       -14.5686
  84   2.0000      -0.534094       -14.5334
  85   2.0000      -0.523983       -14.2583
  86   2.0000      -0.522927       -14.2296
  87   2.0000      -0.519831       -14.1453
  88   2.0000      -0.514066       -13.9885
  89   2.0000      -0.510547       -13.8927
  90   2.0000      -0.509575       -13.8662
  91   2.0000      -0.501321       -13.6416
  92   2.0000      -0.497843       -13.5470
  93   2.0000      -0.496565       -13.5122
  94   2.0000      -0.489904       -13.3310
  95   2.0000      -0.486503       -13.2384
  96   2.0000      -0.476788       -12.9741
  97   2.0000      -0.470687       -12.8080
  98   2.0000      -0.467565       -12.7231
  99   2.0000      -0.459705       -12.5092
 100   2.0000      -0.457117       -12.4388
 101   2.0000      -0.445606       -12.1255
 102   2.0000      -0.442565       -12.0428
 103   2.0000      -0.433119       -11.7858
 104   2.0000      -0.422454       -11.4956
 105   2.0000      -0.402698       -10.9580
 106   2.0000      -0.400794       -10.9062
 107   2.0000      -0.330663        -8.9978
 108   2.0000      -0.310172        -8.4402
 109   0.0000       0.018238         0.4963
 110   0.0000       0.024003         0.6532
 111   0.0000       0.026635         0.7248
 112   0.0000       0.030609         0.8329
 113   0.0000       0.032822         0.8931

MULLIKEN ATOMIC CHARGES
-----------------------
   0 O :   -0.808262
   1 C :    0.636738
   2 C :   -0.202286
   3 C :   -0.194255
   4 C :   -0.032141
   5 C :   -0.629778
   6 C :    0.162131
   7 C :    0.231592
   8 C :   -0.346568
   9 C :   -0.281194
  10 C :    0.047567
  11 C :   -0.190616
  12 C :    0.521824
  13 C :   -0.451621
  14 C :    1.390357
  15 O :   -0.240653
  16 C :    0.762628
  17 C :   -0.771113
  18 C :   -1.116224
  19 C :    1.872586
  20 C :    0.260432
  21 C :   -1.192891
  22 O :   -1.332868
  23 C :   -1.004288
  24 C :    0.065105
  25 C :   -0.834914
  26 C :    0.528623
  27 O :   -0.959840
  28 O :   -1.450964
  29 H :    0.370856
  30 H :    0.094336
  31 H :    0.194637
  32 H :    0.235858
  33 H :    0.279215
  34 H :   -0.060937
  35 H :    0.049988
  36 H :    0.488716
  37 H :    0.147345
  38 H :    0.280582
  39 H :    0.389553
  40 H :    0.226127
  41 H :    0.309261
  42 H :    0.231883
  43 H :    0.364525
  44 H :    0.050981
  45 H :    0.044494
  46 H :    0.173926
  47 H :    0.239288
  48 H :    0.347654
  49 H :    0.242156
  50 H :    0.263055
  51 H :    0.342591
  52 H :    0.292273
  53 H :    0.263946
  54 H :    0.164112
  55 H :    0.136243
  56 H :   -0.219958
  57 H :   -0.022032
  58 H :   -0.064466
  59 H :    0.152632
  60 H :    0.074629
  61 H :   -0.376184
  62 H :   -0.146390
Sum of atomic charges:    0.0000000

LOEWDIN ATOMIC CHARGES
----------------------
   0 O :    0.841839
   1 C :   -0.255237
   2 C :    0.274095
   3 C :    0.227560
   4 C :    0.209645
   5 C :    0.280637
   6 C :    0.203787
   7 C :    0.195308
   8 C :    0.207588
   9 C :    0.218014
  10 C :    0.198694
  11 C :    0.222273
  12 C :    0.188707
  13 C :    0.207054
  14 C :   -0.860922
  15 O :    0.612080
  16 C :   -0.230220
  17 C :    0.272103
  18 C :    0.587065
  19 C :   -0.532884
  20 C :   -0.035613
  21 C :    0.598691
  22 O :    0.470276
  23 C :    0.305720
  24 C :    0.278457
  25 C :    0.309523
  26 C :   -0.234503
  27 O :    0.853267
  28 O :    0.505353
  29 H :   -0.148635
  30 H :   -0.142011
  31 H :   -0.134285
  32 H :   -0.142675
  33 H :   -0.150026
  34 H :   -0.188252
  35 H :   -0.195363
  36 H :   -0.171008
  37 H :   -0.129134
  38 H :   -0.130930
  39 H :   -0.167217
  40 H :   -0.135332
  41 H :   -0.135921
  42 H :   -0.166959
  43 H :   -0.137114
  44 H :   -0.147829
  45 H :   -0.180889
  46 H :   -0.140378
  47 H :   -0.141601
  48 H :   -0.172960
  49 H :   -0.163592
  50 H :   -0.169880
  51 H :   -0.168287
  52 H :   -0.150194
  53 H :   -0.170547
  54 H :   -0.499388
  55 H :   -0.481652
  56 H :   -0.189766
  57 H :   -0.178679
  58 H :   -0.182178
  59 H :   -0.180071
  60 H :   -0.193697
  61 H :   -0.160197
  62 H :   -0.171712

  Mayer bond orders larger than 0.100000
B(  0-O ,  1-C ) :   0.2111 B(  0-O ,  5-C ) :   0.1560 B(  0-O , 55-H ) :   1.0506
B(  1-C ,  2-C ) :   0.8573 B(  1-C ,  5-C ) :   0.9173 B(  1-C , 31-H ) :   1.0812
B(  2-C ,  3-C ) :   0.5528 B(  2-C ,  5-C ) :   0.1896 B(  2-C , 29-H ) :   0.9185
B(  2-C , 30-H ) :   1.0985 B(  3-C ,  6-C ) :   1.0641 B(  3-C , 11-C ) :   0.3176
B(  3-C , 29-H ) :  -0.2287 B(  3-C , 60-H ) :  -0.1426 B(  3-C , 61-H ) :   1.9048
B(  3-C , 62-H ) :  -0.1375 B(  4-C ,  5-C ) :   0.6471 B(  4-C ,  7-C ) :  -0.1013
B(  4-C ,  9-C ) :   1.2545 B(  4-C , 12-C ) :   0.1694 B(  4-C , 32-H ) :  -0.1259
B(  4-C , 58-H ) :  -0.2185 B(  4-C , 59-H ) :  -0.1451 B(  4-C , 60-H ) :   1.5221
B(  5-C ,  9-C ) :   0.1213 B(  5-C , 32-H ) :   1.0224 B(  5-C , 33-H ) :   0.9539
B(  5-C , 60-H ) :   0.1629 B(  6-C , 10-C ) :   0.2089 B(  6-C , 56-H ) :  -0.2097
B(  6-C , 61-H ) :  -0.2956 B(  6-C , 62-H ) :   1.7817 B(  7-C ,  8-C ) :   0.8033
B(  7-C , 12-C ) :   0.2046 B(  7-C , 14-C ) :   0.1241 B(  7-C , 35-H ) :  -0.1148
B(  7-C , 57-H ) :  -0.1644 B(  7-C , 58-H ) :   1.6849 B(  8-C ,  9-C ) :   0.6811
B(  8-C , 13-C ) :   0.2426 B(  8-C , 57-H ) :   1.5531 B(  9-C , 12-C ) :  -0.1644
B(  9-C , 35-H ) :   0.1054 B(  9-C , 57-H ) :  -0.2305 B(  9-C , 59-H ) :   1.1063
B( 10-C , 11-C ) :   1.1900 B( 10-C , 28-O ) :  -0.2022 B( 10-C , 45-H ) :   1.6510
B( 10-C , 61-H ) :  -0.2765 B( 10-C , 62-H ) :  -0.1372 B( 11-C , 19-C ) :   0.8366
B( 11-C , 20-C ) :  -0.2660 B( 11-C , 28-O ) :   0.2741 B( 11-C , 45-H ) :  -0.1726
B( 11-C , 56-H ) :   1.8184 B( 11-C , 61-H ) :  -0.3024 B( 11-C , 62-H ) :  -0.2832
B( 12-C , 13-C ) :   0.8129 B( 12-C , 15-O ) :  -0.2940 B( 12-C , 34-H ) :   1.7724
B( 12-C , 35-H ) :  -0.2689 B( 12-C , 57-H ) :  -0.1341 B( 12-C , 58-H ) :  -0.2089
B( 12-C , 59-H ) :  -0.1289 B( 13-C , 14-C ) :   0.7432 B( 13-C , 15-O ) :  -0.2449
B( 13-C , 22-O ) :  -0.3112 B( 13-C , 35-H ) :   1.5249 B( 13-C , 57-H ) :  -0.1028
B( 13-C , 58-H ) :  -0.1006 B( 14-C , 15-O ) :   1.0545 B( 14-C , 16-C ) :  -0.1057
B( 14-C , 22-O ) :   0.6081 B( 14-C , 34-H ) :  -0.1938 B( 14-C , 57-H ) :   0.1722
B( 15-O , 16-C ) :   0.6580 B( 15-O , 22-O ) :   0.1671 B( 15-O , 23-C ) :   0.1501
B( 15-O , 36-H ) :  -0.1274 B( 16-C , 17-C ) :   0.5509 B( 16-C , 22-O ) :   0.1623
B( 16-C , 23-C ) :   0.8008 B( 16-C , 36-H ) :   0.8624 B( 17-C , 18-C ) :   0.9037
B( 17-C , 23-C ) :   0.1423 B( 17-C , 46-H ) :   1.1181 B( 17-C , 47-H ) :   1.0042
B( 18-C , 48-H ) :   0.9040 B( 18-C , 49-H ) :   1.0227 B( 18-C , 50-H ) :   1.0234
B( 19-C , 20-C ) :   1.2617 B( 19-C , 25-C ) :  -0.1187 B( 19-C , 44-H ) :   0.1558
B( 19-C , 56-H ) :  -0.1207 B( 19-C , 61-H ) :   0.1381 B( 20-C , 21-C ) :   0.5331
B( 20-C , 25-C ) :   0.1770 B( 20-C , 26-C ) :   1.0325 B( 20-C , 27-O ) :   0.2771
B( 20-C , 28-O ) :   0.3381 B( 20-C , 44-H ) :   1.0134 B( 20-C , 52-H ) :  -0.1167
B( 20-C , 56-H ) :  -0.1799 B( 21-C , 51-H ) :   0.9373 B( 21-C , 52-H ) :   1.0588
B( 21-C , 53-H ) :   1.0434 B( 23-C , 24-C ) :   0.8245 B( 23-C , 25-C ) :   0.1794
B( 23-C , 37-H ) :   1.0676 B( 23-C , 38-H ) :   0.9299 B( 23-C , 40-H ) :   0.1111
B( 24-C , 25-C ) :   0.5271 B( 24-C , 26-C ) :   0.1647 B( 24-C , 27-O ) :  -0.1254
B( 24-C , 39-H ) :   0.8120 B( 24-C , 40-H ) :   0.9742 B( 24-C , 44-H ) :  -0.1008
B( 25-C , 26-C ) :   0.8790 B( 25-C , 27-O ) :   0.3123 B( 25-C , 41-H ) :   0.8875
B( 25-C , 42-H ) :   1.1308 B( 26-C , 27-O ) :  -0.1578 B( 26-C , 43-H ) :   0.9780
B( 27-O , 43-H ) :  -0.1134 B( 27-O , 54-H ) :   1.0454 B( 30-H , 61-H ) :   0.1031
B( 34-H , 35-H ) :   0.1314 B( 34-H , 57-H ) :  -0.1033 B( 45-H , 61-H ) :  -0.1044
B( 57-H , 58-H ) :   0.1217 B( 58-H , 59-H ) :   0.1026 B( 61-H , 62-H ) :   0.4045

MP2 TOTAL ENERGY:    -1308.583766285 Eh
FINAL SINGLE POINT ENERGY     -1308.583766285265

DIPOLE MOMENT
-------------
                                X             Y             Z
Electronic contribution:     -7.47637       0.92013       2.12907
Nuclear contribution   :      5.76175      -2.28410      -2.56756
                        -----------------------------------------
Total Dipole Moment    :     -1.71462      -1.36397      -0.43849
                        -----------------------------------------
Magnitude (a.u.)       :      2.23441
Magnitude (Debye)      :      5.67942

Rotational constants in cm-1:     0.006550     0.002840     0.002138
Rotational constants in MHz :   196.351780    85.145170    64.089617

                             ****ORCA TERMINATED NORMALLY****
TOTAL RUN TIME: 0 days 2 hours 59 minutes 58 seconds 79 msec
