                         Program Version 4.2.1 -  RELEASE  -
|  1> %pal
|  2>  nprocs 32
|  3> end
|  4> !RI-MP2 aug-cc-pVTZ aug-cc-pVTZ/C TightSCF
|  5> %maxcore 4500
|  6> *xyzfile 0 1  02_38P.xyz
|  7>
|  8>
|  9>                          ****END OF INPUT****

CARTESIAN COORDINATES (ANGSTROEM)
---------------------------------
  C     -5.243889    0.520821   -1.001684
  C     -4.137300    1.179697   -1.511168
  C     -2.867057    0.925457   -1.012455
  C     -2.683192   -0.008116    0.018077
  C     -3.813101   -0.672340    0.525965
  C     -5.071414   -0.406285    0.019870
  H     -6.232861    0.725320   -1.393874
  H     -4.256110    1.905365   -2.307122
  H     -2.015299    1.450230   -1.412321
  H     -3.691249   -1.396448    1.317563
  H     -5.927707   -0.929596    0.428273
  C     -1.368606   -0.321019    0.558749
  C     -1.077786   -1.278283    1.617596
  O     -1.795864   -2.001365    2.242595
  O      0.276785   -1.230435    1.888276
  N     -0.216124    0.273956    0.229720
  N     -0.014009    1.250478   -0.570084
  C      0.925039   -0.427657    0.938097
  C      1.771460    0.633388    1.571554
  C      1.660234   -1.310759   -0.064563
  C      2.955791   -1.718563    0.234189
  C      1.048388   -1.770126   -1.225432
  C      3.631895   -2.580138   -0.614836
  H      3.438221   -1.361348    1.135093
  C      1.730415   -2.626366   -2.079025
  H      0.042389   -1.460327   -1.477646
  C      3.020744   -3.033952   -1.776068
  H      4.638436   -2.896241   -0.369883
  H      1.247884   -2.973852   -2.984152
  H      3.550094   -3.703287   -2.443166
  C      1.996765    1.694732    0.815736
  C      2.731883    2.979614    1.083056
  C      1.358567    1.744969   -0.553859
  C      2.743721    3.686738   -0.284401
  H      3.727327    2.816449    1.498402
  C      1.447635    3.218478   -0.955166
  H      2.809206    4.771412   -0.199002
  H      3.606545    3.351632   -0.867100
  H      0.585861    3.743765   -0.535039
  H      1.436595    3.364292   -2.035058
  H      2.169810    3.572243    1.811506
  H      2.110541    0.484823    2.588169
  H      1.962730    1.137181   -1.244444

 Total Charge           Charge          ....    0
 Multiplicity           Mult            ....    1
 Number of Electrons    NEL             ....  174
 Basis Dimension        Dim             .... 1564

ORBITAL ENERGIES
----------------

  NO   OCC          E(Eh)            E(eV)
   0   2.0000     -20.614034      -560.9364
   1   2.0000     -20.539290      -558.9025
   2   2.0000     -15.733238      -428.1232
   3   2.0000     -15.596791      -424.4102
   4   2.0000     -11.385884      -309.8257
   5   2.0000     -11.379398      -309.6492
   6   2.0000     -11.281951      -306.9975
   7   2.0000     -11.277067      -306.8646
   8   2.0000     -11.263417      -306.4932
   9   2.0000     -11.261465      -306.4400
  10   2.0000     -11.252164      -306.1870
  11   2.0000     -11.251216      -306.1612
  12   2.0000     -11.250265      -306.1353
  13   2.0000     -11.249689      -306.1196
  14   2.0000     -11.248193      -306.0789
  15   2.0000     -11.247317      -306.0551
  16   2.0000     -11.247058      -306.0480
  17   2.0000     -11.246795      -306.0408
  18   2.0000     -11.239537      -305.8434
  19   2.0000     -11.235330      -305.7289
  20   2.0000     -11.227658      -305.5201
  21   2.0000     -11.225663      -305.4658
  22   2.0000     -11.224807      -305.4425
  23   2.0000     -11.223622      -305.4103
  24   2.0000     -11.222821      -305.3885
  25   2.0000      -1.492203       -40.6049
  26   2.0000      -1.411102       -38.3980
  27   2.0000      -1.372352       -37.3436
  28   2.0000      -1.192450       -32.4482
  29   2.0000      -1.178856       -32.0783
  30   2.0000      -1.153044       -31.3759
  31   2.0000      -1.126428       -30.6517
  32   2.0000      -1.102595       -30.0031
  33   2.0000      -1.042709       -28.3736
  34   2.0000      -1.034544       -28.1514
  35   2.0000      -1.029496       -28.0140
  36   2.0000      -1.009762       -27.4770
  37   2.0000      -0.989603       -26.9285
  38   2.0000      -0.975078       -26.5332
  39   2.0000      -0.898803       -24.4577
  40   2.0000      -0.872002       -23.7284
  41   2.0000      -0.857590       -23.3362
  42   2.0000      -0.843413       -22.9504
  43   2.0000      -0.834049       -22.6956
  44   2.0000      -0.816151       -22.2086
  45   2.0000      -0.808074       -21.9888
  46   2.0000      -0.792995       -21.5785
  47   2.0000      -0.749441       -20.3933
  48   2.0000      -0.739600       -20.1255
  49   2.0000      -0.715763       -19.4769
  50   2.0000      -0.700790       -19.0695
  51   2.0000      -0.693967       -18.8838
  52   2.0000      -0.680892       -18.5280
  53   2.0000      -0.666076       -18.1249
  54   2.0000      -0.656806       -17.8726
  55   2.0000      -0.643767       -17.5178
  56   2.0000      -0.641477       -17.4555
  57   2.0000      -0.634496       -17.2655
  58   2.0000      -0.625827       -17.0296
  59   2.0000      -0.617190       -16.7946
  60   2.0000      -0.611407       -16.6372
  61   2.0000      -0.601809       -16.3760
  62   2.0000      -0.598949       -16.2982
  63   2.0000      -0.584373       -15.9016
  64   2.0000      -0.580115       -15.7857
  65   2.0000      -0.571523       -15.5519
  66   2.0000      -0.569272       -15.4907
  67   2.0000      -0.543162       -14.7802
  68   2.0000      -0.537064       -14.6142
  69   2.0000      -0.526311       -14.3216
  70   2.0000      -0.518243       -14.1021
  71   2.0000      -0.513902       -13.9840
  72   2.0000      -0.510775       -13.8989
  73   2.0000      -0.502779       -13.6813
  74   2.0000      -0.499099       -13.5812
  75   2.0000      -0.497822       -13.5464
  76   2.0000      -0.490799       -13.3553
  77   2.0000      -0.488125       -13.2826
  78   2.0000      -0.463083       -12.6011
  79   2.0000      -0.446882       -12.1603
  80   2.0000      -0.424294       -11.5456
  81   2.0000      -0.383609       -10.4385
  82   2.0000      -0.372459       -10.1351
  83   2.0000      -0.354051        -9.6342
  84   2.0000      -0.350434        -9.5358
  85   2.0000      -0.330643        -8.9973
  86   2.0000      -0.273552        -7.4437
  87   0.0000       0.018455         0.5022
  88   0.0000       0.025038         0.6813
  89   0.0000       0.026293         0.7155
  90   0.0000       0.032012         0.8711
  91   0.0000       0.035170         0.9570

MULLIKEN ATOMIC CHARGES
-----------------------
   0 C :   -0.227826
   1 C :   -1.116138
   2 C :   -0.699081
   3 C :    2.526882
   4 C :   -1.085293
   5 C :   -0.870650
   6 H :    0.429525
   7 H :    0.545737
   8 H :    0.001111
   9 H :   -0.153653
  10 H :    0.516830
  11 C :    0.559616
  12 C :    0.897290
  13 O :   -1.197791
  14 O :   -0.929788
  15 N :    1.157944
  16 N :   -1.920915
  17 C :    1.300061
  18 C :   -1.697846
  19 C :    1.894515
  20 C :   -1.160987
  21 C :   -0.422560
  22 C :   -0.761513
  23 H :   -0.015229
  24 C :   -1.190986
  25 H :    0.469472
  26 C :   -0.236611
  27 H :    0.456864
  28 H :    0.454047
  29 H :    0.578570
  30 C :    1.379046
  31 C :   -0.951122
  32 C :    1.011915
  33 C :   -0.605077
  34 H :    0.302633
  35 C :   -1.024273
  36 H :    0.361323
  37 H :    0.176343
  38 H :    0.186869
  39 H :    0.354190
  40 H :    0.202923
  41 H :    0.168947
  42 H :    0.334688
Sum of atomic charges:    0.0000000

LOEWDIN ATOMIC CHARGES
----------------------
   0 C :    0.193145
   1 C :    0.199278
   2 C :    0.223311
   3 C :   -0.089832
   4 C :    0.219967
   5 C :    0.202675
   6 H :   -0.183847
   7 H :   -0.183552
   8 H :   -0.266814
   9 H :   -0.248218
  10 H :   -0.181420
  11 C :   -0.157800
  12 C :   -0.771832
  13 O :    0.479258
  14 O :    0.629602
  15 N :    0.067995
  16 N :    0.427188
  17 C :   -0.613270
  18 C :    0.281690
  19 C :   -0.092485
  20 C :    0.228686
  21 C :    0.229036
  22 C :    0.215675
  23 H :   -0.171583
  24 C :    0.220621
  25 H :   -0.184771
  26 C :    0.206777
  27 H :   -0.178084
  28 H :   -0.176227
  29 H :   -0.178294
  30 C :   -0.051389
  31 C :    0.331119
  32 C :   -0.166441
  33 C :    0.313092
  34 H :   -0.136982
  35 C :    0.319941
  36 H :   -0.138453
  37 H :   -0.138959
  38 H :   -0.137307
  39 H :   -0.131396
  40 H :   -0.134128
  41 H :   -0.149316
  42 H :   -0.126653

  Mayer bond orders larger than 0.100000
B(  0-C ,  1-C ) :   1.0883 B(  0-C ,  2-C ) :  -0.2360 B(  0-C ,  4-C ) :  -0.2706
B(  0-C ,  5-C ) :   1.0372 B(  0-C ,  6-H ) :   0.8758 B(  0-C ,  8-H ) :  -0.1680
B(  0-C ,  9-H ) :  -0.1606 B(  0-C , 11-C ) :   0.2939 B(  1-C ,  2-C ) :   0.9625
B(  1-C ,  4-C ) :   0.1745 B(  1-C ,  5-C ) :   0.3902 B(  1-C ,  6-H ) :  -0.1992
B(  1-C ,  7-H ) :   0.4438 B(  1-C , 11-C ) :   0.1472 B(  2-C ,  4-C ) :  -1.0694
B(  2-C ,  5-C ) :   0.1375 B(  2-C ,  8-H ) :   1.9476 B(  2-C ,  9-H ) :   0.2445
B(  2-C , 11-C ) :   0.5294 B(  2-C , 15-N ) :  -0.1433 B(  2-C , 32-C ) :   0.1141
B(  3-C ,  4-C ) :  -0.3278 B(  3-C ,  5-C ) :  -0.2042 B(  3-C ,  6-H ) :   0.1467
B(  3-C ,  7-H ) :  -0.1250 B(  3-C ,  8-H ) :  -0.1542 B(  3-C ,  9-H ) :  -0.1741
B(  3-C , 11-C ) :  -0.7688 B(  3-C , 12-C ) :   0.1753 B(  3-C , 13-O ) :   0.1344
B(  3-C , 16-N ) :  -0.1264 B(  3-C , 17-C ) :   0.2644 B(  3-C , 30-C ) :  -0.1293
B(  4-C ,  5-C ) :   1.1758 B(  4-C ,  6-H ) :   0.2681 B(  4-C ,  8-H ) :   0.1920
B(  4-C ,  9-H ) :   2.3969 B(  4-C , 10-H ) :  -0.2258 B(  4-C , 11-C ) :   0.7799
B(  4-C , 16-N ) :  -0.1059 B(  5-C ,  6-H ) :  -0.2443 B(  5-C ,  9-H ) :  -0.1011
B(  5-C , 10-H ) :   0.6327 B(  5-C , 11-C ) :  -0.1072 B(  5-C , 15-N ) :   0.1944
B(  6-H ,  8-H ) :   0.1160 B(  6-H , 11-C ) :  -0.3691 B(  7-H ,  9-H ) :  -0.1629
B(  7-H , 11-C ) :   0.5153 B(  7-H , 15-N ) :  -0.1058 B(  8-H ,  9-H ) :   0.5513
B(  8-H , 10-H ) :  -0.1280 B(  8-H , 11-C ) :  -0.7252 B(  8-H , 16-N ) :   0.1584
B(  9-H , 11-C ) :  -0.8272 B(  9-H , 15-N ) :  -0.2373 B( 10-H , 11-C ) :   0.1548
B( 10-H , 15-N ) :   0.1652 B( 11-C , 12-C ) :   0.9607 B( 11-C , 13-O ) :  -0.2013
B( 11-C , 14-O ) :  -0.1154 B( 11-C , 15-N ) :   1.0083 B( 11-C , 21-C ) :   0.1755
B( 11-C , 32-C ) :   0.1134 B( 12-C , 13-O ) :   0.8193 B( 12-C , 14-O ) :   1.1308
B( 12-C , 15-N ) :  -0.3131 B( 12-C , 17-C ) :   0.1612 B( 13-O , 14-O ) :  -0.2931
B( 13-O , 17-C ) :   0.3775 B( 13-O , 19-C ) :  -0.1032 B( 14-O , 17-C ) :  -1.4033
B( 14-O , 18-C ) :   0.4086 B( 14-O , 19-C ) :   0.3497 B( 15-N , 16-N ) :  -1.1552
B( 15-N , 17-C ) :   0.9835 B( 15-N , 18-C ) :   0.1665 B( 15-N , 19-C ) :  -0.1330
B( 15-N , 30-C ) :  -0.1059 B( 16-N , 19-C ) :   0.1307 B( 16-N , 30-C ) :   0.3258
B( 16-N , 32-C ) :   0.8909 B( 17-C , 19-C ) :   0.3131 B( 17-C , 20-C ) :   0.7304
B( 17-C , 21-C ) :   0.2690 B( 17-C , 25-H ) :  -0.2140 B( 17-C , 30-C ) :   0.3729
B( 18-C , 19-C ) :   0.5380 B( 18-C , 20-C ) :  -0.1420 B( 18-C , 25-H ) :   0.1106
B( 18-C , 30-C ) :   0.5464 B( 18-C , 41-H ) :   1.3503 B( 19-C , 20-C ) :  -0.7334
B( 19-C , 21-C ) :   0.6650 B( 19-C , 23-H ) :  -0.4887 B( 19-C , 24-C ) :  -0.1800
B( 19-C , 26-C ) :  -0.1753 B( 19-C , 30-C ) :  -0.1946 B( 20-C , 21-C ) :  -0.5345
B( 20-C , 22-C ) :   1.4536 B( 20-C , 23-H ) :   1.9388 B( 20-C , 25-H ) :   0.1924
B( 21-C , 23-H ) :   0.2129 B( 21-C , 24-C ) :   1.2792 B( 21-C , 25-H ) :   0.8946
B( 22-C , 24-C ) :   0.2416 B( 22-C , 25-H ) :  -0.1629 B( 22-C , 26-C ) :   1.1619
B( 22-C , 27-H ) :   0.7876 B( 22-C , 29-H ) :  -0.2101 B( 23-H , 24-C ) :  -0.1719
B( 23-H , 25-H ) :   0.1751 B( 24-C , 25-H ) :  -0.1563 B( 24-C , 26-C ) :   1.1505
B( 24-C , 28-H ) :   0.7488 B( 24-C , 29-H ) :  -0.1324 B( 25-H , 30-C ) :  -0.1305
B( 26-C , 29-H ) :   0.5882 B( 30-C , 31-C ) :   0.1281 B( 30-C , 32-C ) :   0.6391
B( 30-C , 40-H ) :  -0.1451 B( 30-C , 41-H ) :  -0.2157 B( 30-C , 42-H ) :   0.1384
B( 31-C , 33-C ) :   1.0882 B( 31-C , 34-H ) :   1.0115 B( 31-C , 35-C ) :   0.1491
B( 31-C , 40-H ) :   1.1315 B( 32-C , 35-C ) :   0.2782 B( 32-C , 38-H ) :  -0.1838
B( 32-C , 42-H ) :   0.8702 B( 33-C , 35-C ) :   1.0422 B( 33-C , 36-H ) :   0.8938
B( 33-C , 37-H ) :   1.0681 B( 35-C , 38-H ) :   1.1733 B( 35-C , 39-H ) :   0.9077

MP2 TOTAL ENERGY:    -1068.911629201 Eh
FINAL SINGLE POINT ENERGY     -1068.911629201221

DIPOLE MOMENT
-------------
                                X             Y             Z
Electronic contribution:     -7.10947     -11.24052       7.30994
Nuclear contribution   :      9.07705      12.42267      -8.33480
                        -----------------------------------------
Total Dipole Moment    :      1.96758       1.18215      -1.02486
                        -----------------------------------------
Magnitude (a.u.)       :      2.51380
Magnitude (Debye)      :      6.38958

Rotational constants in cm-1:     0.010483     0.006119     0.004933
Rotational constants in MHz :   314.266558   183.439269   147.880294

                             ****ORCA TERMINATED NORMALLY****
TOTAL RUN TIME: 0 days 1 hours 33 minutes 38 seconds 609 msec
