                         Program Version 4.2.1 -  RELEASE  -
|  1> %pal
|  2>  nprocs 32
|  3> end
|  4> !RI-MP2 aug-cc-pVTZ aug-cc-pVTZ/C TightSCF
|  5> %maxcore 4500
|  6> *xyzfile 0 1  04_16P2.xyz
|  7>
|  8>
|  9>                          ****END OF INPUT****

CARTESIAN COORDINATES (ANGSTROEM)
---------------------------------
  H      0.822981    0.902774    0.416863
  O      0.000000    0.717085   -0.052108
  O      0.000000   -0.717085   -0.052108
  H     -0.822981   -0.902774    0.416863

 Total Charge           Charge          ....    0
 Multiplicity           Mult            ....    1
 Number of Electrons    NEL             ....   18
 Basis Dimension        Dim             ....  138

ORBITAL ENERGIES
----------------

  NO   OCC          E(Eh)            E(eV)
   0   2.0000     -20.631679      -561.4165
   1   2.0000     -20.631382      -561.4084
   2   2.0000      -1.483157       -40.3587
   3   2.0000      -1.212997       -33.0073
   4   2.0000      -0.716542       -19.4981
   5   2.0000      -0.713904       -19.4263
   6   2.0000      -0.616582       -16.7781
   7   2.0000      -0.522419       -14.2158
   8   2.0000      -0.479163       -13.0387
   9   0.0000       0.033141         0.9018
  10   0.0000       0.041591         1.1317
  11   0.0000       0.110122         2.9966
  12   0.0000       0.133673         3.6374
  13   0.0000       0.157183         4.2772

MULLIKEN ATOMIC CHARGES
-----------------------
   0 H :    0.277099
   1 O :   -0.277099
   2 O :   -0.277099
   3 H :    0.277099
Sum of atomic charges:    0.0000000

LOEWDIN ATOMIC CHARGES
----------------------
   0 H :   -0.558865
   1 O :    0.558865
   2 O :    0.558865
   3 H :   -0.558865

  Mayer bond orders larger than 0.100000
B(  0-H ,  1-O ) :   0.9434 B(  1-O ,  2-O ) :   0.8026 B(  2-O ,  3-H ) :   0.9434

MP2 TOTAL ENERGY:     -151.347569322 Eh
FINAL SINGLE POINT ENERGY      -151.347569322456

DIPOLE MOMENT
-------------
                                X             Y             Z
Electronic contribution:     -0.00000       0.00000      -0.16786
Nuclear contribution   :      0.00000      -0.00000       0.82698
                        -----------------------------------------
Total Dipole Moment    :     -0.00000       0.00000       0.65912
                        -----------------------------------------
Magnitude (a.u.)       :      0.65912
Magnitude (Debye)      :      1.67535

Rotational constants in cm-1:    10.219792     0.904045     0.866174
Rotational constants in MHz : 306381.659127 27102.601827 25967.240468

                             ****ORCA TERMINATED NORMALLY****
TOTAL RUN TIME: 0 days 0 hours 0 minutes 9 seconds 876 msec
