                         Program Version 4.2.1 -  RELEASE  -
|  1> %pal
|  2>  nprocs 32
|  3> end
|  4> !RI-MP2 aug-cc-pVTZ aug-cc-pVTZ/C TightSCF
|  5> %maxcore 4500
|  6> *xyzfile 0 1  10_74R.xyz
|  7>
|  8>
|  9>                          ****END OF INPUT****

CARTESIAN COORDINATES (ANGSTROEM)
---------------------------------
  C      0.612966   -2.042089   -0.492311
  C      1.899487   -1.983631   -0.126174
  C     -0.511754   -1.586188    0.327445
  C     -1.706875   -1.409368   -0.252967
  C     -1.582109    1.714548   -0.008302
  C     -2.943600   -0.837719    0.382807
  C      3.434494    0.911966   -0.323261
  C      2.752870    1.884617    0.300241
  H      2.925424    0.373388   -1.114786
  C      4.808654    0.411615   -0.037452
  C      1.348365    2.043753   -0.079798
  C      0.474326    2.962492    0.349461
  C     -0.939297    2.882210   -0.023465
  C     -2.957828    1.537546   -0.529477
  N     -3.510325    0.298685   -0.374945
  H     -2.754131   -0.538113    1.411273
  C     -4.095939   -1.854082    0.410445
  C      3.008364   -2.322443   -1.004657
  H      2.148863   -1.606352    0.858749
  C      4.827264   -1.095686    0.280328
  H      5.253494    0.914054    0.825609
  O      5.678474    0.555230   -1.167542
  C      4.276793   -1.939194   -0.840347
  H      4.250911   -1.245094    1.194629
  O      6.153731   -1.482705    0.594524
  H      0.367714   -2.383186   -1.495270
  C     -0.216758   -1.250438    1.764285
  C      3.296328    2.766637    1.386790
  H      0.980765    1.294396   -0.774555
  H      0.792476    3.789410    0.977436
  H      5.683491    1.474093   -1.446940
  H      6.721281   -1.140686   -0.106358
  H      2.758358   -2.897279   -1.892156
  H      5.008078   -2.222892   -1.589421
  C     -4.859715    0.034444   -0.897901
  O     -3.558665    2.436718   -1.101758
  H      3.179158    3.818370    1.113291
  H      4.351579    2.589180    1.583052
  H      2.745830    2.616152    2.318981
  H      0.457819   -0.390973    1.827470
  H      0.281531   -2.089149    2.254652
  H     -1.110082   -1.017653    2.337304
  C     -4.941687   -1.490461   -0.806744
  O     -4.784318   -1.666833    1.642065
  H     -3.705450   -2.874022    0.358154
  H     -4.890749    0.374256   -1.934558
  C     -5.948842    0.762050   -0.114398
  H     -5.967487   -1.853688   -0.721924
  H     -4.498672   -1.947646   -1.695514
  H     -6.929170    0.518297   -0.532480
  H     -5.801449    1.838034   -0.189956
  H     -5.933196    0.466668    0.934897
  H     -5.534402   -2.266600    1.676082
  H     -1.806635   -1.653137   -1.308374
  H     -1.059980    0.847571    0.359516
  H     -1.469935    3.779071   -0.329775

 Total Charge           Charge          ....    0
 Multiplicity           Mult            ....    1
 Number of Electrons    NEL             ....  200
 Basis Dimension        Dim             .... 1909

ORBITAL ENERGIES
----------------

  NO   OCC          E(Eh)            E(eV)
   0   2.0000     -20.573615      -559.8365
   1   2.0000     -20.569911      -559.7357
   2   2.0000     -20.556371      -559.3673
   3   2.0000     -20.500862      -557.8568
   4   2.0000     -15.576049      -423.8458
   5   2.0000     -11.337833      -308.5181
   6   2.0000     -11.296158      -307.3841
   7   2.0000     -11.295619      -307.3694
   8   2.0000     -11.291701      -307.2628
   9   2.0000     -11.279452      -306.9295
  10   2.0000     -11.261856      -306.4507
  11   2.0000     -11.258203      -306.3513
  12   2.0000     -11.253806      -306.2316
  13   2.0000     -11.250701      -306.1471
  14   2.0000     -11.244976      -305.9913
  15   2.0000     -11.243302      -305.9458
  16   2.0000     -11.242649      -305.9280
  17   2.0000     -11.240717      -305.8755
  18   2.0000     -11.238481      -305.8146
  19   2.0000     -11.237762      -305.7951
  20   2.0000     -11.236023      -305.7477
  21   2.0000     -11.235722      -305.7396
  22   2.0000     -11.234554      -305.7078
  23   2.0000     -11.233156      -305.6697
  24   2.0000     -11.231201      -305.6165
  25   2.0000     -11.225865      -305.4713
  26   2.0000     -11.198725      -304.7328
  27   2.0000      -1.388010       -37.7697
  28   2.0000      -1.379481       -37.5376
  29   2.0000      -1.367934       -37.2234
  30   2.0000      -1.355719       -36.8910
  31   2.0000      -1.250850       -34.0374
  32   2.0000      -1.140596       -31.0372
  33   2.0000      -1.134332       -30.8667
  34   2.0000      -1.103111       -30.0172
  35   2.0000      -1.090665       -29.6785
  36   2.0000      -1.066542       -29.0221
  37   2.0000      -1.050404       -28.5829
  38   2.0000      -1.024380       -27.8748
  39   2.0000      -1.002517       -27.2799
  40   2.0000      -0.982493       -26.7350
  41   2.0000      -0.958084       -26.0708
  42   2.0000      -0.946671       -25.7602
  43   2.0000      -0.924892       -25.1676
  44   2.0000      -0.892584       -24.2885
  45   2.0000      -0.864917       -23.5356
  46   2.0000      -0.848016       -23.0757
  47   2.0000      -0.815443       -22.1893
  48   2.0000      -0.803192       -21.8560
  49   2.0000      -0.768250       -20.9051
  50   2.0000      -0.760951       -20.7065
  51   2.0000      -0.746535       -20.3142
  52   2.0000      -0.741392       -20.1743
  53   2.0000      -0.723848       -19.6969
  54   2.0000      -0.717275       -19.5180
  55   2.0000      -0.706676       -19.2296
  56   2.0000      -0.695267       -18.9192
  57   2.0000      -0.673561       -18.3285
  58   2.0000      -0.671662       -18.2768
  59   2.0000      -0.662611       -18.0306
  60   2.0000      -0.647086       -17.6081
  61   2.0000      -0.643417       -17.5083
  62   2.0000      -0.639234       -17.3944
  63   2.0000      -0.629787       -17.1374
  64   2.0000      -0.617134       -16.7931
  65   2.0000      -0.609089       -16.5742
  66   2.0000      -0.601584       -16.3699
  67   2.0000      -0.594741       -16.1837
  68   2.0000      -0.590015       -16.0551
  69   2.0000      -0.587430       -15.9848
  70   2.0000      -0.583822       -15.8866
  71   2.0000      -0.575955       -15.6725
  72   2.0000      -0.568320       -15.4648
  73   2.0000      -0.561743       -15.2858
  74   2.0000      -0.555539       -15.1170
  75   2.0000      -0.554294       -15.0831
  76   2.0000      -0.542638       -14.7659
  77   2.0000      -0.541545       -14.7362
  78   2.0000      -0.536561       -14.6006
  79   2.0000      -0.531505       -14.4630
  80   2.0000      -0.530700       -14.4411
  81   2.0000      -0.522835       -14.2271
  82   2.0000      -0.515274       -14.0213
  83   2.0000      -0.508657       -13.8413
  84   2.0000      -0.502634       -13.6774
  85   2.0000      -0.500418       -13.6171
  86   2.0000      -0.493388       -13.4258
  87   2.0000      -0.485384       -13.2080
  88   2.0000      -0.478302       -13.0153
  89   2.0000      -0.465554       -12.6684
  90   2.0000      -0.455440       -12.3932
  91   2.0000      -0.445292       -12.1170
  92   2.0000      -0.441818       -12.0225
  93   2.0000      -0.439287       -11.9536
  94   2.0000      -0.411894       -11.2082
  95   2.0000      -0.389132       -10.5888
  96   2.0000      -0.381179       -10.3724
  97   2.0000      -0.366203        -9.9649
  98   2.0000      -0.315361        -8.5814
  99   2.0000      -0.297397        -8.0926
 100   0.0000       0.020815         0.5664
 101   0.0000       0.022368         0.6087
 102   0.0000       0.027929         0.7600
 103   0.0000       0.031201         0.8490
 104   0.0000       0.033702         0.9171

MULLIKEN ATOMIC CHARGES
-----------------------
   0 C :   -0.996997
   1 C :    0.971136
   2 C :    1.607465
   3 C :   -0.984321
   4 C :    0.241395
   5 C :    1.507995
   6 C :   -0.992914
   7 C :    2.114787
   8 H :   -0.135623
   9 C :    0.502785
  10 C :   -0.042076
  11 C :    0.088891
  12 C :   -1.000256
  13 C :    0.425891
  14 N :   -0.072913
  15 H :   -0.059438
  16 C :    0.218948
  17 C :   -0.920542
  18 H :    0.150469
  19 C :    1.016736
  20 H :    0.138814
  21 O :   -0.809346
  22 C :   -0.596981
  23 H :    0.379935
  24 O :   -0.914846
  25 H :   -0.246224
  26 C :   -0.977558
  27 C :   -1.001320
  28 H :   -0.414914
  29 H :   -0.000477
  30 H :    0.138408
  31 H :    0.148829
  32 H :    0.040984
  33 H :    0.565433
  34 C :   -0.040073
  35 O :   -1.239056
  36 H :    0.230797
  37 H :    0.361925
  38 H :    0.215006
  39 H :    0.356230
  40 H :   -0.043436
  41 H :    0.275160
  42 C :   -0.802038
  43 O :   -0.760150
  44 H :    0.351552
  45 H :    0.396523
  46 C :   -1.101551
  47 H :    0.355920
  48 H :    0.168223
  49 H :    0.228787
  50 H :    0.364662
  51 H :    0.287403
  52 H :    0.070221
  53 H :   -0.467637
  54 H :    0.653226
  55 H :    0.046151
Sum of atomic charges:   -0.0000000

LOEWDIN ATOMIC CHARGES
----------------------
   0 C :    0.225392
   1 C :    0.190649
   2 C :   -0.102867
   3 C :    0.257759
   4 C :    0.231490
   5 C :   -0.085869
   6 C :    0.249841
   7 C :   -0.086745
   8 H :   -0.202630
   9 C :   -0.238984
  10 C :    0.206239
  11 C :    0.226286
  12 C :    0.229476
  13 C :   -0.664782
  14 N :    0.315968
  15 H :   -0.171623
  16 C :   -0.205444
  17 C :    0.202327
  18 H :   -0.208732
  19 C :   -0.267990
  20 H :   -0.161995
  21 O :    0.845800
  22 C :    0.241514
  23 H :   -0.158502
  24 O :    0.839908
  25 H :   -0.177304
  26 C :    0.585908
  27 C :    0.582908
  28 H :   -0.188278
  29 H :   -0.185189
  30 H :   -0.471356
  31 H :   -0.518797
  32 H :   -0.183045
  33 H :   -0.175808
  34 C :   -0.105110
  35 O :    0.465550
  36 H :   -0.163183
  37 H :   -0.189005
  38 H :   -0.155418
  39 H :   -0.157823
  40 H :   -0.152397
  41 H :   -0.181895
  42 C :    0.333307
  43 O :    0.854024
  44 H :   -0.125649
  45 H :   -0.128744
  46 C :    0.608390
  47 H :   -0.134374
  48 H :   -0.133014
  49 H :   -0.161083
  50 H :   -0.186010
  51 H :   -0.178181
  52 H :   -0.469827
  53 H :   -0.160025
  54 H :   -0.282845
  55 H :   -0.172215

  Mayer bond orders larger than 0.100000
B(  0-C ,  1-C ) :   0.7612 B(  0-C ,  2-C ) :   0.3496 B(  0-C ,  3-C ) :   0.2810
B(  0-C ,  5-C ) :   0.1440 B(  0-C , 17-C ) :   0.4593 B(  0-C , 18-H ) :  -0.1464
B(  0-C , 22-C ) :   0.1755 B(  0-C , 25-H ) :   1.9620 B(  0-C , 53-H ) :  -0.1171
B(  0-C , 54-H ) :  -0.1006 B(  1-C , 17-C ) :  -0.2265 B(  1-C , 18-H ) :   1.4683
B(  1-C , 25-H ) :  -0.2760 B(  1-C , 26-C ) :  -0.1166 B(  1-C , 32-H ) :  -0.1967
B(  2-C ,  3-C ) :   1.0263 B(  2-C , 18-H ) :  -0.1020 B(  2-C , 25-H ) :  -0.2313
B(  2-C , 26-C ) :   0.5345 B(  2-C , 40-H ) :  -0.2195 B(  2-C , 41-H ) :   0.1374
B(  2-C , 53-H ) :  -0.7443 B(  2-C , 54-H ) :   0.1978 B(  3-C ,  5-C ) :  -0.2235
B(  3-C , 42-C ) :  -0.2030 B(  3-C , 48-H ) :  -0.1024 B(  3-C , 53-H ) :   2.4819
B(  4-C ,  5-C ) :   0.2039 B(  4-C ,  6-C ) :   0.1339 B(  4-C ,  7-C ) :   0.1946
B(  4-C ,  8-H ) :   0.1261 B(  4-C , 10-C ) :   0.2096 B(  4-C , 11-C ) :  -0.3012
B(  4-C , 12-C ) :   0.8661 B(  4-C , 13-C ) :  -0.3122 B(  4-C , 14-N ) :  -0.3977
B(  4-C , 28-H ) :  -0.4879 B(  4-C , 29-H ) :  -0.1543 B(  4-C , 53-H ) :  -0.1315
B(  4-C , 54-H ) :   0.6370 B(  5-C , 13-C ) :   0.1011 B(  5-C , 14-N ) :   0.8233
B(  5-C , 15-H ) :   0.8209 B(  5-C , 16-C ) :   0.7445 B(  5-C , 26-C ) :  -0.2908
B(  5-C , 34-C ) :  -0.2207 B(  5-C , 35-O ) :   0.1394 B(  5-C , 41-H ) :  -0.1874
B(  5-C , 43-O ) :  -0.2962 B(  5-C , 53-H ) :  -0.3716 B(  5-C , 54-H ) :  -0.1319
B(  6-C ,  7-C ) :   0.5228 B(  6-C ,  8-H ) :   1.9188 B(  6-C ,  9-C ) :   1.0460
B(  6-C , 11-C ) :   0.2301 B(  6-C , 19-C ) :   0.1081 B(  6-C , 20-H ) :  -0.1117
B(  6-C , 21-O ) :  -0.1940 B(  6-C , 28-H ) :  -0.1498 B(  6-C , 29-H ) :  -0.1870
B(  7-C ,  8-H ) :  -0.5381 B(  7-C ,  9-C ) :  -0.2251 B(  7-C , 10-C ) :   0.5805
B(  7-C , 11-C ) :   0.3469 B(  7-C , 17-C ) :   0.1054 B(  7-C , 27-C ) :   0.4185
B(  7-C , 28-H ) :  -0.3716 B(  7-C , 29-H ) :  -0.1115 B(  7-C , 36-H ) :  -0.1381
B(  7-C , 38-H ) :  -0.1344 B(  7-C , 54-H ) :  -0.1738 B(  7-C , 55-H ) :  -0.2043
B(  8-H , 10-C ) :  -0.1604 B(  8-H , 12-C ) :   0.1207 B(  8-H , 17-C ) :  -0.1245
B(  9-C , 19-C ) :   0.9351 B(  9-C , 20-H ) :   0.9998 B(  9-C , 21-O ) :   0.4849
B(  9-C , 22-C ) :   0.2472 B(  9-C , 24-O ) :   0.1593 B( 10-C , 11-C ) :   0.7860
B( 10-C , 12-C ) :  -0.3409 B( 10-C , 13-C ) :   0.1111 B( 10-C , 28-H ) :   2.1658
B( 11-C , 12-C ) :   0.3589 B( 11-C , 29-H ) :   1.5434 B( 11-C , 55-H ) :  -0.1306
B( 12-C , 13-C ) :   0.1713 B( 12-C , 28-H ) :   0.1469 B( 12-C , 35-O ) :   0.1175
B( 12-C , 54-H ) :   0.4796 B( 12-C , 55-H ) :   1.1633 B( 13-C , 14-N ) :   1.7162
B( 13-C , 28-H ) :  -0.1377 B( 13-C , 34-C ) :  -0.1811 B( 13-C , 35-O ) :   0.3421
B( 14-N , 15-H ) :   0.1479 B( 14-N , 16-C ) :  -0.1130 B( 14-N , 34-C ) :   0.7225
B( 14-N , 43-O ) :   0.1260 B( 15-H , 43-O ) :   0.1119 B( 16-C , 34-C ) :   0.1389
B( 16-C , 42-C ) :   1.2238 B( 16-C , 43-O ) :   0.4575 B( 16-C , 44-H ) :   0.9976
B( 17-C , 22-C ) :   1.7044 B( 17-C , 25-H ) :  -0.1500 B( 17-C , 32-H ) :   1.3320
B( 18-H , 26-C ) :  -0.1104 B( 19-C , 21-O ) :   0.1243 B( 19-C , 22-C ) :   0.6318
B( 19-C , 23-H ) :   0.9206 B( 19-C , 24-O ) :  -0.2453 B( 20-H , 24-O ) :   0.1026
B( 21-O , 30-H ) :   1.0410 B( 22-C , 24-O ) :   0.1915 B( 22-C , 32-H ) :  -0.1846
B( 22-C , 33-H ) :   0.5230 B( 24-O , 31-H ) :   1.0739 B( 24-O , 33-H ) :   0.1002
B( 25-H , 32-H ) :  -0.1365 B( 25-H , 53-H ) :  -0.1100 B( 26-C , 39-H ) :   0.9600
B( 26-C , 40-H ) :   1.3968 B( 26-C , 41-H ) :   0.9666 B( 26-C , 53-H ) :   0.1065
B( 27-C , 36-H ) :   1.1442 B( 27-C , 37-H ) :   0.8290 B( 27-C , 38-H ) :   1.1430
B( 28-H , 29-H ) :   0.3684 B( 28-H , 54-H ) :   0.1863 B( 29-H , 55-H ) :   0.1510
B( 34-C , 42-C ) :   0.9448 B( 34-C , 45-H ) :   0.8560 B( 34-C , 46-C ) :   0.6624
B( 35-O , 55-H ) :   0.1702 B( 42-C , 43-O ) :   0.1379 B( 42-C , 45-H ) :  -0.1043
B( 42-C , 47-H ) :   0.8449 B( 42-C , 48-H ) :   1.1135 B( 43-O , 44-H ) :  -0.1335
B( 43-O , 52-H ) :   1.1017 B( 46-C , 49-H ) :   1.0640 B( 46-C , 50-H ) :   0.9200
B( 46-C , 51-H ) :   0.9919 B( 53-H , 54-H ) :   0.1082 B( 54-H , 55-H ) :   0.2401

MP2 TOTAL ENERGY:    -1209.057524781 Eh
FINAL SINGLE POINT ENERGY     -1209.057524781246

DIPOLE MOMENT
-------------
                                X             Y             Z
Electronic contribution:      3.58467       0.84962      -4.76400
Nuclear contribution   :     -3.55937      -1.45024       4.95085
                        -----------------------------------------
Total Dipole Moment    :      0.02530      -0.60062       0.18685
                        -----------------------------------------
Magnitude (a.u.)       :      0.62952
Magnitude (Debye)      :      1.60011

Rotational constants in cm-1:     0.011976     0.003118     0.002680
Rotational constants in MHz :   359.028936    93.466466    80.344133

                             ****ORCA TERMINATED NORMALLY****
TOTAL RUN TIME: 0 days 2 hours 33 minutes 46 seconds 383 msec
