                         Program Version 4.2.1 -  RELEASE  -
|  1> %pal
|  2>  nprocs 32
|  3> end
|  4> !RI-MP2 aug-cc-pVTZ aug-cc-pVTZ/C TightSCF
|  5> %maxcore 4500
|  6> *xyzfile 1 1  05_14TS.xyz
|  7>
|  8>
|  9>                          ****END OF INPUT****

CARTESIAN COORDINATES (ANGSTROEM)
---------------------------------
  C      0.689820   -0.486370   -0.412877
  C      1.613817    1.987513   -0.143074
  C      2.991872    1.420744   -0.503241
  C      3.171476   -0.024056   -0.075534
  C      2.121387   -0.882393   -0.771692
  H      3.130279    1.494176   -1.587221
  H      3.745785    2.057190   -0.035353
  H      3.051712   -0.118398    1.004892
  H      2.260356   -0.799638   -1.853982
  H      2.264660   -1.927574   -0.496481
  N      0.563370    0.996745   -0.521777
  O     -0.627926    1.449589   -0.578935
  C     -0.287362   -1.112770   -1.406573
  H     -0.118642   -2.189974   -1.428790
  H     -1.324907   -0.935605   -1.126645
  H     -0.125946   -0.718634   -2.410572
  C      0.332632   -0.929122    1.015135
  H     -0.635909   -0.532749    1.323476
  H      0.263000   -2.017138    1.032821
  H      1.081117   -0.637892    1.748614
  C      1.364225    3.265213   -0.942774
  H      0.435135    3.751313   -0.649700
  H      2.184658    3.960467   -0.760962
  H      1.323022    3.052479   -2.011656
  C      1.506082    2.289976    1.359312
  H      2.186569    3.106803    1.602490
  H      0.499910    2.622302    1.621320
  H      1.768347    1.437143    1.982333
  C     -3.297925    2.428223    0.547835
  C     -3.450642    1.103743    0.582132
  C     -2.307199    1.682349    1.219269
  H     -3.670281    3.401612    0.279045
  H     -1.218673    1.528320    0.454102
  H     -1.892208    1.681244    2.226240
  C     -4.175720   -0.083593    0.272057
  C     -3.766861   -1.310596    0.807223
  C     -5.293129   -0.021775   -0.570284
  C     -4.469828   -2.461351    0.503504
  H     -2.905643   -1.351483    1.462350
  C     -5.987926   -1.176800   -0.871889
  H     -5.604085    0.930516   -0.981966
  C     -5.576768   -2.393315   -0.335412
  H     -4.161323   -3.411882    0.919090
  H     -6.851546   -1.135411   -1.522836
  H     -6.125741   -3.296246   -0.572746
  N      4.513851   -0.484809   -0.362780
  C      5.019341   -1.568772    0.297830
  C      6.418445   -1.985766   -0.069209
  H      6.871423   -1.359133   -0.837744
  H      7.036233   -1.954363    0.828623
  H      6.396195   -3.019664   -0.414532
  O      4.359289   -2.149574    1.139147
  H      5.050634   -0.047938   -1.094434

 Total Charge           Charge          ....    1
 Multiplicity           Mult            ....    1
 Number of Electrons    NEL             ....  178
 Basis Dimension        Dim             .... 1771

ORBITAL ENERGIES
----------------

  NO   OCC          E(Eh)            E(eV)
   0   2.0000     -20.791071      -565.7538
   1   2.0000     -20.594255      -560.3982
   2   2.0000     -15.775869      -429.2832
   3   2.0000     -15.669409      -426.3863
   4   2.0000     -11.453112      -311.6550
   5   2.0000     -11.449783      -311.5644
   6   2.0000     -11.438394      -311.2545
   7   2.0000     -11.427767      -310.9653
   8   2.0000     -11.399129      -310.1861
   9   2.0000     -11.394537      -310.0611
  10   2.0000     -11.383617      -309.7640
  11   2.0000     -11.374317      -309.5109
  12   2.0000     -11.373328      -309.4840
  13   2.0000     -11.365937      -309.2829
  14   2.0000     -11.365733      -309.2773
  15   2.0000     -11.354724      -308.9778
  16   2.0000     -11.354085      -308.9604
  17   2.0000     -11.337656      -308.5133
  18   2.0000     -11.333296      -308.3947
  19   2.0000     -11.330871      -308.3287
  20   2.0000     -11.324526      -308.1560
  21   2.0000     -11.324178      -308.1466
  22   2.0000     -11.322038      -308.0883
  23   2.0000     -11.307130      -307.6827
  24   2.0000      -1.624439       -44.2032
  25   2.0000      -1.464086       -39.8398
  26   2.0000      -1.387421       -37.7537
  27   2.0000      -1.328529       -36.1511
  28   2.0000      -1.291069       -35.1318
  29   2.0000      -1.287648       -35.0387
  30   2.0000      -1.220247       -33.2046
  31   2.0000      -1.168410       -31.7941
  32   2.0000      -1.153148       -31.3787
  33   2.0000      -1.149026       -31.2666
  34   2.0000      -1.108302       -30.1584
  35   2.0000      -1.071635       -29.1607
  36   2.0000      -1.060297       -28.8522
  37   2.0000      -1.049959       -28.5708
  38   2.0000      -1.043047       -28.3827
  39   2.0000      -1.008335       -27.4382
  40   2.0000      -0.988494       -26.8983
  41   2.0000      -0.956661       -26.0321
  42   2.0000      -0.944462       -25.7001
  43   2.0000      -0.934733       -25.4354
  44   2.0000      -0.914834       -24.8939
  45   2.0000      -0.890329       -24.2271
  46   2.0000      -0.877238       -23.8709
  47   2.0000      -0.863774       -23.5045
  48   2.0000      -0.806442       -21.9444
  49   2.0000      -0.801353       -21.8059
  50   2.0000      -0.799399       -21.7528
  51   2.0000      -0.794955       -21.6318
  52   2.0000      -0.769946       -20.9513
  53   2.0000      -0.766720       -20.8635
  54   2.0000      -0.754426       -20.5290
  55   2.0000      -0.740681       -20.1550
  56   2.0000      -0.729288       -19.8449
  57   2.0000      -0.719373       -19.5751
  58   2.0000      -0.717504       -19.5243
  59   2.0000      -0.712554       -19.3896
  60   2.0000      -0.702608       -19.1189
  61   2.0000      -0.694407       -18.8958
  62   2.0000      -0.690758       -18.7965
  63   2.0000      -0.680279       -18.5113
  64   2.0000      -0.677041       -18.4232
  65   2.0000      -0.675921       -18.3927
  66   2.0000      -0.666705       -18.1420
  67   2.0000      -0.658054       -17.9066
  68   2.0000      -0.654415       -17.8075
  69   2.0000      -0.647309       -17.6142
  70   2.0000      -0.644652       -17.5419
  71   2.0000      -0.635636       -17.2965
  72   2.0000      -0.633573       -17.2404
  73   2.0000      -0.628919       -17.1138
  74   2.0000      -0.627241       -17.0681
  75   2.0000      -0.619481       -16.8569
  76   2.0000      -0.617173       -16.7941
  77   2.0000      -0.610607       -16.6155
  78   2.0000      -0.602884       -16.4053
  79   2.0000      -0.590623       -16.0717
  80   2.0000      -0.589696       -16.0465
  81   2.0000      -0.585537       -15.9333
  82   2.0000      -0.565416       -15.3858
  83   2.0000      -0.562898       -15.3172
  84   2.0000      -0.502594       -13.6763
  85   2.0000      -0.487572       -13.2675
  86   2.0000      -0.476898       -12.9771
  87   2.0000      -0.465385       -12.6638
  88   2.0000      -0.424538       -11.5523
  89   0.0000      -0.130952        -3.5634
  90   0.0000      -0.063844        -1.7373
  91   0.0000      -0.059772        -1.6265
  92   0.0000      -0.049459        -1.3459
  93   0.0000      -0.046133        -1.2553

MULLIKEN ATOMIC CHARGES
-----------------------
   0 C :    2.397817
   1 C :    1.929847
   2 C :   -1.297306
   3 C :    1.246664
   4 C :   -1.178585
   5 H :    0.178905
   6 H :    0.378832
   7 H :    0.553688
   8 H :    0.192423
   9 H :    0.382185
  10 N :    0.675110
  11 O :   -1.071660
  12 C :   -2.063069
  13 H :    0.149847
  14 H :    0.696947
  15 H :    0.169128
  16 C :   -1.371305
  17 H :    0.606245
  18 H :    0.005671
  19 H :    0.152807
  20 C :   -1.776924
  21 H :    0.295200
  22 H :    0.172143
  23 H :    0.222693
  24 C :   -1.340322
  25 H :    0.110258
  26 H :    0.346555
  27 H :    0.337591
  28 C :   -1.214289
  29 C :    0.799027
  30 C :   -0.349942
  31 H :    0.445852
  32 H :    0.011123
  33 H :    0.439091
  34 C :    3.000286
  35 C :   -0.632408
  36 C :   -1.276909
  37 C :   -0.988567
  38 H :   -0.037223
  39 C :   -0.639458
  40 H :   -0.351459
  41 C :    0.092801
  42 H :    0.566359
  43 H :    0.612654
  44 H :    0.437754
  45 N :   -0.636490
  46 C :    0.713667
  47 C :   -0.891048
  48 H :    0.272729
  49 H :    0.325686
  50 H :    0.321149
  51 O :   -1.044272
  52 H :   -0.077498
Sum of atomic charges:    1.0000000

LOEWDIN ATOMIC CHARGES
----------------------
   0 C :   -0.373434
   1 C :   -0.377509
   2 C :    0.332607
   3 C :   -0.103738
   4 C :    0.333193
   5 H :   -0.123175
   6 H :   -0.115817
   7 H :   -0.164772
   8 H :   -0.120101
   9 H :   -0.130144
  10 N :    0.093795
  11 O :    0.729831
  12 C :    0.605774
  13 H :   -0.143609
  14 H :   -0.171849
  15 H :   -0.144073
  16 C :    0.627534
  17 H :   -0.186660
  18 H :   -0.134994
  19 H :   -0.169179
  20 C :    0.602806
  21 H :   -0.162223
  22 H :   -0.145549
  23 H :   -0.146352
  24 C :    0.623738
  25 H :   -0.139816
  26 H :   -0.165386
  27 H :   -0.171996
  28 C :    0.448144
  29 C :    0.004127
  30 C :    0.324955
  31 H :   -0.127361
  32 H :   -0.578881
  33 H :   -0.101925
  34 C :   -0.106875
  35 C :    0.224875
  36 C :    0.237217
  37 C :    0.238335
  38 H :   -0.170595
  39 C :    0.237747
  40 H :   -0.156474
  41 C :    0.240798
  42 H :   -0.169070
  43 H :   -0.168761
  44 H :   -0.160151
  45 N :    0.591962
  46 C :   -0.662844
  47 C :    0.611172
  48 H :   -0.179232
  49 H :   -0.165325
  50 H :   -0.165897
  51 O :    0.468244
  52 H :   -0.273088

  Mayer bond orders larger than 0.100000
B(  0-C ,  4-C ) :   0.1138 B(  0-C , 10-N ) :   0.8678 B(  0-C , 12-C ) :  -0.2280
B(  0-C , 13-H ) :  -0.2532 B(  0-C , 15-H ) :  -0.2244 B(  0-C , 16-C ) :   0.1458
B(  0-C , 18-H ) :  -0.1799 B(  0-C , 19-H ) :  -0.1201 B(  0-C , 34-C ) :   0.1089
B(  1-C ,  2-C ) :   0.2275 B(  1-C ,  3-C ) :   0.1407 B(  1-C , 10-N ) :   0.7340
B(  1-C , 21-H ) :  -0.1227 B(  1-C , 22-H ) :  -0.1727 B(  1-C , 23-H ) :  -0.1871
B(  1-C , 24-C ) :   0.4453 B(  2-C ,  3-C ) :   0.5169 B(  2-C ,  4-C ) :   0.3321
B(  2-C ,  5-H ) :   1.2729 B(  2-C ,  6-H ) :   0.7939 B(  2-C , 10-N ) :   0.2325
B(  2-C , 20-C ) :  -0.1407 B(  2-C , 45-N ) :   0.1660 B(  3-C ,  4-C ) :   0.7976
B(  3-C ,  7-H ) :   0.8605 B(  3-C , 10-N ) :  -0.2880 B(  3-C , 51-O ) :   0.1235
B(  4-C ,  7-H ) :   0.2055 B(  4-C ,  8-H ) :   1.1924 B(  4-C ,  9-H ) :   0.9320
B(  4-C , 45-N ) :   0.1648 B(  7-H , 45-N ) :  -0.4374 B(  7-H , 46-C ) :  -0.1437
B(  7-H , 51-O ) :  -0.2291 B( 10-N , 11-O ) :  -0.2487 B( 10-N , 20-C ) :  -0.2064
B( 10-N , 29-C ) :   0.1133 B( 11-O , 20-C ) :   0.1392 B( 11-O , 30-C ) :   0.1059
B( 11-O , 32-H ) :   0.2265 B( 12-C , 13-H ) :   1.3538 B( 12-C , 14-H ) :   0.5700
B( 12-C , 15-H ) :   1.3512 B( 12-C , 16-C ) :   0.1101 B( 16-C , 17-H ) :   0.5169
B( 16-C , 18-H ) :   1.4160 B( 16-C , 19-H ) :   1.3324 B( 20-C , 21-H ) :   1.0237
B( 20-C , 22-H ) :   1.2654 B( 20-C , 23-H ) :   1.2238 B( 20-C , 24-C ) :   0.1381
B( 24-C , 25-H ) :   1.2211 B( 24-C , 26-H ) :   0.9452 B( 24-C , 27-H ) :   1.0324
B( 28-C , 29-C ) :   0.4639 B( 28-C , 30-C ) :   1.2233 B( 28-C , 31-H ) :   0.9866
B( 28-C , 32-H ) :   0.6786 B( 28-C , 34-C ) :  -0.4323 B( 29-C , 30-C ) :   0.4841
B( 29-C , 31-H ) :  -0.1629 B( 29-C , 32-H ) :  -0.3239 B( 29-C , 34-C ) :   0.1225
B( 29-C , 35-C ) :   0.5300 B( 29-C , 36-C ) :   0.5244 B( 29-C , 38-H ) :  -0.2442
B( 29-C , 39-C ) :   0.1524 B( 29-C , 40-H ) :  -0.7790 B( 29-C , 41-C ) :   0.1757
B( 29-C , 42-H ) :   0.2486 B( 29-C , 43-H ) :   0.3398 B( 29-C , 44-H ) :  -0.1987
B( 30-C , 32-H ) :   1.2335 B( 30-C , 33-H ) :   0.7396 B( 30-C , 34-C ) :  -0.2063
B( 32-H , 34-C ) :  -0.3040 B( 34-C , 36-C ) :  -0.4448 B( 34-C , 37-C ) :   0.1546
B( 34-C , 38-H ) :  -0.5479 B( 34-C , 39-C ) :   0.1209 B( 34-C , 40-H ) :  -0.6802
B( 34-C , 41-C ) :   0.1867 B( 34-C , 42-H ) :  -0.1364 B( 34-C , 43-H ) :  -0.1681
B( 34-C , 44-H ) :   0.2469 B( 35-C , 36-C ) :  -0.7251 B( 35-C , 37-C ) :   1.4280
B( 35-C , 38-H ) :   1.7486 B( 35-C , 40-H ) :   0.4784 B( 35-C , 41-C ) :  -0.3621
B( 35-C , 42-H ) :   0.1410 B( 35-C , 44-H ) :  -0.1101 B( 36-C , 37-C ) :   0.1658
B( 36-C , 38-H ) :   0.3121 B( 36-C , 39-C ) :   1.3579 B( 36-C , 40-H ) :   2.5926
B( 36-C , 41-C ) :  -0.4121 B( 36-C , 42-H ) :  -0.1383 B( 36-C , 43-H ) :  -0.1712
B( 36-C , 44-H ) :   0.2424 B( 37-C , 39-C ) :   0.3378 B( 37-C , 41-C ) :   1.1206
B( 37-C , 42-H ) :   0.5179 B( 37-C , 44-H ) :  -0.2214 B( 38-H , 40-H ) :   0.4976
B( 38-H , 41-C ) :  -0.2036 B( 38-H , 43-H ) :  -0.1402 B( 38-H , 44-H ) :   0.1167
B( 39-C , 40-H ) :  -0.1144 B( 39-C , 41-C ) :   1.0149 B( 39-C , 43-H ) :   0.5132
B( 39-C , 44-H ) :  -0.1785 B( 40-H , 41-C ) :  -0.1379 B( 40-H , 42-H ) :  -0.1662
B( 40-H , 43-H ) :  -0.1085 B( 41-C , 42-H ) :   0.1503 B( 41-C , 43-H ) :   0.1137
B( 41-C , 44-H ) :   0.8398 B( 45-N , 46-C ) :   1.2007 B( 45-N , 52-H ) :   1.2980
B( 46-C , 47-C ) :   0.4626 B( 46-C , 51-O ) :   1.4695 B( 47-C , 48-H ) :   0.9998
B( 47-C , 49-H ) :   0.9900 B( 47-C , 50-H ) :   0.9814 B( 47-C , 51-O ) :  -0.1343

MP2 TOTAL ENERGY:    -1037.112141036 Eh
FINAL SINGLE POINT ENERGY     -1037.112141035876

DIPOLE MOMENT
-------------
                                X             Y             Z
Electronic contribution:    -17.69750      -1.80811       0.94605
Nuclear contribution   :     15.30835       3.63436      -1.32300
                        -----------------------------------------
Total Dipole Moment    :     -2.38915       1.82626      -0.37694
                        -----------------------------------------
Magnitude (a.u.)       :      3.03073
Magnitude (Debye)      :      7.70351

Rotational constants in cm-1:     0.014580     0.003770     0.003246
Rotational constants in MHz :   437.097247   113.011167    97.315466

                             ****ORCA TERMINATED NORMALLY****
TOTAL RUN TIME: 0 days 2 hours 30 minutes 59 seconds 843 msec
