                         Program Version 4.2.1 -  RELEASE  -
|  1> %pal
|  2>  nprocs 32
|  3> end
|  4> !RI-MP2 aug-cc-pVTZ aug-cc-pVTZ/C TightSCF
|  5> %maxcore 4500
|  6> *xyzfile 0 1  02_5P.xyz
|  7>
|  8>
|  9>                          ****END OF INPUT****

CARTESIAN COORDINATES (ANGSTROEM)
---------------------------------
  C     -1.683181   -1.621840   -0.057230
  C     -3.032809   -0.919208    0.217102
  C     -2.811500    0.571277   -0.122282
  C     -1.319921    0.699140   -0.036442
  C     -0.694365   -0.493426   -0.002471
  H     -1.470477   -2.403196    0.677509
  H     -1.666596   -2.104960   -1.041948
  H     -3.276210   -1.010894    1.277286
  H     -3.858877   -1.354264   -0.346126
  H     -3.152805    0.816077   -1.134817
  H     -3.337651    1.240391    0.564754
  C      0.748624   -0.548876    0.002772
  C      1.637534   -1.556910   -0.043076
  C      3.056092   -1.036118   -0.089502
  H      3.522363   -1.246870   -1.059416
  H      3.700592   -1.494826    0.665843
  C      2.910954    0.494335    0.140711
  H      3.269806    0.763375    1.137749
  H      3.486292    1.080442   -0.577729
  C      1.424496    0.748769    0.042015
  C      0.745398    1.899696    0.007390
  N     -0.649909    1.895245   -0.063644
  H      1.211045    2.876112    0.026803
  H     -1.157254    2.759809   -0.002065
  H      1.391200   -2.608939   -0.096253

 Total Charge           Charge          ....    0
 Multiplicity           Mult            ....    1
 Number of Electrons    NEL             ....   86
 Basis Dimension        Dim             ....  851

ORBITAL ENERGIES
----------------

  NO   OCC          E(Eh)            E(eV)
   0   2.0000     -15.587501      -424.1575
   1   2.0000     -11.266381      -306.5738
   2   2.0000     -11.259439      -306.3849
   3   2.0000     -11.233619      -305.6823
   4   2.0000     -11.222985      -305.3930
   5   2.0000     -11.219803      -305.3064
   6   2.0000     -11.217418      -305.2415
   7   2.0000     -11.216444      -305.2150
   8   2.0000     -11.215494      -305.1891
   9   2.0000     -11.210890      -305.0638
  10   2.0000     -11.204263      -304.8835
  11   2.0000     -11.191782      -304.5439
  12   2.0000      -1.269662       -34.5493
  13   2.0000      -1.133446       -30.8426
  14   2.0000      -1.121545       -30.5188
  15   2.0000      -1.005166       -27.3520
  16   2.0000      -0.997714       -27.1492
  17   2.0000      -0.952856       -25.9285
  18   2.0000      -0.929812       -25.3015
  19   2.0000      -0.853303       -23.2196
  20   2.0000      -0.809714       -22.0334
  21   2.0000      -0.775141       -21.0926
  22   2.0000      -0.746947       -20.3255
  23   2.0000      -0.709710       -19.3122
  24   2.0000      -0.681488       -18.5442
  25   2.0000      -0.643665       -17.5150
  26   2.0000      -0.630360       -17.1530
  27   2.0000      -0.611057       -16.6277
  28   2.0000      -0.586682       -15.9644
  29   2.0000      -0.562787       -15.3142
  30   2.0000      -0.560009       -15.2386
  31   2.0000      -0.544679       -14.8215
  32   2.0000      -0.519063       -14.1244
  33   2.0000      -0.500000       -13.6057
  34   2.0000      -0.496333       -13.5059
  35   2.0000      -0.489764       -13.3271
  36   2.0000      -0.481864       -13.1122
  37   2.0000      -0.476736       -12.9726
  38   2.0000      -0.470504       -12.8031
  39   2.0000      -0.450821       -12.2675
  40   2.0000      -0.405259       -11.0277
  41   2.0000      -0.339767        -9.2455
  42   2.0000      -0.232966        -6.3393
  43   0.0000       0.024425         0.6647
  44   0.0000       0.030841         0.8392
  45   0.0000       0.034717         0.9447
  46   0.0000       0.039736         1.0813
  47   0.0000       0.043236         1.1765

MULLIKEN ATOMIC CHARGES
-----------------------
   0 C :   -0.924740
   1 C :   -0.546464
   2 C :   -0.478664
   3 C :   -0.085493
   4 C :    1.279224
   5 H :    0.206420
   6 H :    0.199780
   7 H :    0.196009
   8 H :    0.299543
   9 H :    0.264450
  10 H :    0.322018
  11 C :    0.840897
  12 C :   -1.863242
  13 C :   -0.243445
  14 H :    0.275604
  15 H :    0.294283
  16 C :   -0.890620
  17 H :    0.205245
  18 H :    0.165285
  19 C :    1.092544
  20 C :   -0.780482
  21 N :   -0.596405
  22 H :    0.594483
  23 H :    0.005603
  24 H :    0.168169
Sum of atomic charges:   -0.0000000

LOEWDIN ATOMIC CHARGES
----------------------
   0 C :    0.297553
   1 C :    0.316601
   2 C :    0.324227
   3 C :   -0.174601
   4 C :   -0.051119
   5 H :   -0.143214
   6 H :   -0.139515
   7 H :   -0.147299
   8 H :   -0.146196
   9 H :   -0.137275
  10 H :   -0.142189
  11 C :   -0.108458
  12 C :    0.265987
  13 C :    0.271260
  14 H :   -0.156282
  15 H :   -0.159101
  16 C :    0.302309
  17 H :   -0.147427
  18 H :   -0.148763
  19 C :   -0.087924
  20 C :    0.176244
  21 N :    0.555190
  22 H :   -0.164557
  23 H :   -0.271387
  24 H :   -0.184062

  Mayer bond orders larger than 0.100000
B(  0-C ,  1-C ) :   1.0978 B(  0-C ,  2-C ) :   0.1172 B(  0-C ,  3-C ) :  -0.1247
B(  0-C ,  4-C ) :   0.6022 B(  0-C ,  5-H ) :   1.1049 B(  0-C ,  6-H ) :   1.0432
B(  0-C , 11-C ) :  -0.1164 B(  1-C ,  2-C ) :   1.0612 B(  1-C ,  7-H ) :   1.0216
B(  1-C ,  8-H ) :   0.9417 B(  2-C ,  4-C ) :   0.3680 B(  2-C ,  9-H ) :   1.0084
B(  2-C , 10-H ) :   0.9751 B(  2-C , 11-C ) :  -0.1833 B(  3-C ,  4-C ) :   0.4884
B(  3-C ,  9-H ) :  -0.1321 B(  3-C , 10-H ) :  -0.1653 B(  3-C , 11-C ) :   0.8927
B(  3-C , 12-C ) :   0.2596 B(  3-C , 16-C ) :  -0.1262 B(  3-C , 19-C ) :  -0.1042
B(  3-C , 20-C ) :   0.4295 B(  3-C , 21-N ) :   1.0696 B(  4-C , 11-C ) :  -0.1676
B(  4-C , 12-C ) :   0.1114 B(  4-C , 16-C ) :   0.1056 B(  4-C , 19-C ) :   0.5167
B(  4-C , 20-C ) :  -0.8997 B(  4-C , 21-N ) :  -0.5060 B( 11-C , 12-C ) :  -0.4476
B( 11-C , 13-C ) :   0.2126 B( 11-C , 16-C ) :  -0.1286 B( 11-C , 19-C ) :   0.7808
B( 11-C , 20-C ) :   0.6438 B( 11-C , 21-N ) :   0.1437 B( 11-C , 24-H ) :  -0.2380
B( 12-C , 13-C ) :   0.5140 B( 12-C , 16-C ) :   0.3947 B( 12-C , 19-C ) :  -0.1564
B( 12-C , 24-H ) :   1.4667 B( 13-C , 14-H ) :   0.9744 B( 13-C , 15-H ) :   0.9949
B( 13-C , 16-C ) :   1.0585 B( 16-C , 17-H ) :   1.0325 B( 16-C , 18-H ) :   1.0913
B( 16-C , 19-C ) :   0.7686 B( 16-C , 20-C ) :  -0.1876 B( 16-C , 24-H ) :   0.1007
B( 19-C , 20-C ) :   0.4205 B( 19-C , 21-N ) :  -0.3839 B( 20-C , 21-N ) :   1.3411
B( 20-C , 22-H ) :   0.4740 B( 21-N , 23-H ) :   1.2821

MP2 TOTAL ENERGY:     -480.717826000 Eh
FINAL SINGLE POINT ENERGY      -480.717825999531

DIPOLE MOMENT
-------------
                                X             Y             Z
Electronic contribution:      0.73494       3.54908      -0.08270
Nuclear contribution   :     -1.36163      -2.71498       0.09252
                        -----------------------------------------
Total Dipole Moment    :     -0.62669       0.83410       0.00982
                        -----------------------------------------
Magnitude (a.u.)       :      1.04334
Magnitude (Debye)      :      2.65196

Rotational constants in cm-1:     0.065692     0.025101     0.018537
Rotational constants in MHz :  1969.404731   752.500759   555.727461

                             ****ORCA TERMINATED NORMALLY****
TOTAL RUN TIME: 0 days 0 hours 11 minutes 38 seconds 965 msec
