                         Program Version 4.2.1 -  RELEASE  -
|  1> %pal
|  2>  nprocs 32
|  3> end
|  4> !RI-MP2 aug-cc-pVTZ aug-cc-pVTZ/C TightSCF
|  5> %maxcore 4500
|  6> *xyzfile 0 1  10_83R.xyz
|  7>
|  8>
|  9>                          ****END OF INPUT****

CARTESIAN COORDINATES (ANGSTROEM)
---------------------------------
  C     -0.803576   -0.065099   -1.282417
  C     -0.064266   -0.094736    0.038004
  C     -0.655202    0.203459    1.190143
  C     -2.124900    0.573830    1.211291
  C     -2.914635   -0.701941    0.929761
  C     -3.003754   -0.876790   -0.383719
  C     -2.302094    0.260108   -1.103189
  H     -0.356779    0.695911   -1.930498
  H     -0.681831   -1.025542   -1.795729
  H     -2.742064    0.504960   -2.070699
  C     -2.425734    1.381159   -0.060504
  H     -3.428059   -1.737316   -0.885118
  H     -3.244780   -1.389879    1.697027
  C      1.404618   -0.520650   -0.033378
  H     -3.443870    1.772205   -0.036002
  H     -1.724839    2.202757   -0.218262
  H     -2.393269    1.076123    2.139759
  C      2.228775    0.367793   -1.023992
  C      2.049693   -0.467458    1.286433
  C      1.479209   -1.910059   -0.524186
  N      2.571052   -0.411511    2.304717
  N      1.519397   -2.972573   -0.951586
  C      2.139340    1.781815   -0.700221
  C      2.055922    2.941645   -0.425025
  H     -0.112166    0.154089    2.126608
  H      3.269016    0.037660   -1.004316
  H      1.853613    0.185789   -2.031956
  H      1.991507    3.973373   -0.176734

 Total Charge           Charge          ....    0
 Multiplicity           Mult            ....    1
 Number of Electrons    NEL             ....  110
 Basis Dimension        Dim             .... 1012

ORBITAL ENERGIES
----------------

  NO   OCC          E(Eh)            E(eV)
   0   2.0000     -15.592374      -424.2901
   1   2.0000     -15.590231      -424.2317
   2   2.0000     -11.358515      -309.0809
   3   2.0000     -11.303390      -307.5809
   4   2.0000     -11.294671      -307.3436
   5   2.0000     -11.292756      -307.2915
   6   2.0000     -11.268197      -306.6232
   7   2.0000     -11.256206      -306.2969
   8   2.0000     -11.252543      -306.1973
   9   2.0000     -11.251189      -306.1604
  10   2.0000     -11.251095      -306.1579
  11   2.0000     -11.248359      -306.0834
  12   2.0000     -11.247329      -306.0554
  13   2.0000     -11.237793      -305.7959
  14   2.0000     -11.233571      -305.6810
  15   2.0000     -11.232710      -305.6576
  16   2.0000      -1.261238       -34.3200
  17   2.0000      -1.240227       -33.7483
  18   2.0000      -1.198561       -32.6145
  19   2.0000      -1.161546       -31.6073
  20   2.0000      -1.080933       -29.4137
  21   2.0000      -1.041340       -28.3363
  22   2.0000      -1.037150       -28.2223
  23   2.0000      -0.981865       -26.7179
  24   2.0000      -0.960410       -26.1341
  25   2.0000      -0.891723       -24.2650
  26   2.0000      -0.835269       -22.7288
  27   2.0000      -0.793637       -21.5960
  28   2.0000      -0.746308       -20.3081
  29   2.0000      -0.736375       -20.0378
  30   2.0000      -0.733246       -19.9526
  31   2.0000      -0.727210       -19.7884
  32   2.0000      -0.670659       -18.2496
  33   2.0000      -0.664470       -18.0811
  34   2.0000      -0.653797       -17.7907
  35   2.0000      -0.634177       -17.2568
  36   2.0000      -0.603445       -16.4206
  37   2.0000      -0.598726       -16.2922
  38   2.0000      -0.584369       -15.9015
  39   2.0000      -0.579181       -15.7603
  40   2.0000      -0.567084       -15.4311
  41   2.0000      -0.562942       -15.3184
  42   2.0000      -0.545320       -14.8389
  43   2.0000      -0.517701       -14.0874
  44   2.0000      -0.503359       -13.6971
  45   2.0000      -0.497231       -13.5303
  46   2.0000      -0.494001       -13.4424
  47   2.0000      -0.484465       -13.1830
  48   2.0000      -0.481238       -13.0952
  49   2.0000      -0.472437       -12.8557
  50   2.0000      -0.466243       -12.6871
  51   2.0000      -0.415036       -11.2937
  52   2.0000      -0.414237       -11.2720
  53   2.0000      -0.381613       -10.3842
  54   2.0000      -0.349059        -9.4984
  55   0.0000       0.019931         0.5423
  56   0.0000       0.027457         0.7471
  57   0.0000       0.028337         0.7711
  58   0.0000       0.033453         0.9103
  59   0.0000       0.039016         1.0617

MULLIKEN ATOMIC CHARGES
-----------------------
   0 C :   -0.548492
   1 C :    1.642950
   2 C :   -1.639854
   3 C :   -0.114934
   4 C :   -0.785504
   5 C :   -0.662077
   6 C :   -0.158912
   7 H :    0.146592
   8 H :    0.361909
   9 H :    0.420209
  10 C :   -0.759116
  11 H :    0.489872
  12 H :    0.500199
  13 C :   -0.221522
  14 H :    0.325185
  15 H :    0.264782
  16 H :    0.402349
  17 C :    0.097664
  18 C :    1.440445
  19 C :    0.934627
  20 N :   -1.133636
  21 N :   -1.063321
  22 C :    1.377714
  23 C :   -2.191896
  24 H :   -0.043048
  25 H :    0.325746
  26 H :    0.245249
  27 H :    0.346822
Sum of atomic charges:   -0.0000000

LOEWDIN ATOMIC CHARGES
----------------------
   0 C :    0.308781
   1 C :   -0.078431
   2 C :    0.284335
   3 C :    0.002651
   4 C :    0.266898
   5 C :    0.260310
   6 C :    0.009546
   7 H :   -0.144966
   8 H :   -0.137233
   9 H :   -0.120303
  10 C :    0.313108
  11 H :   -0.160941
  12 H :   -0.161292
  13 C :   -0.394102
  14 H :   -0.129832
  15 H :   -0.129035
  16 H :   -0.129410
  17 C :    0.220173
  18 C :   -0.239751
  19 C :   -0.215561
  20 N :    0.342898
  21 N :    0.325739
  22 C :    0.031320
  23 C :    0.433708
  24 H :   -0.182339
  25 H :   -0.139247
  26 H :   -0.155847
  27 H :   -0.281177

  Mayer bond orders larger than 0.100000
B(  0-C ,  1-C ) :   0.3724 B(  0-C ,  6-C ) :   1.1073 B(  0-C ,  7-H ) :   1.0536
B(  0-C ,  8-H ) :   0.8647 B(  1-C ,  2-C ) :  -0.6058 B(  1-C ,  4-C ) :  -0.1754
B(  1-C ,  6-C ) :  -0.1201 B(  1-C ,  8-H ) :  -0.1100 B(  1-C , 10-C ) :  -0.4493
B(  1-C , 13-C ) :   0.6636 B(  1-C , 18-C ) :   0.5696 B(  1-C , 19-C ) :   0.6426
B(  1-C , 20-N ) :  -0.1010 B(  1-C , 21-N ) :   0.1541 B(  1-C , 23-C ) :   0.5583
B(  1-C , 24-H ) :  -0.5490 B(  2-C ,  3-C ) :   0.8775 B(  2-C ,  4-C ) :   0.4565
B(  2-C ,  6-C ) :   0.1617 B(  2-C , 10-C ) :   0.3444 B(  2-C , 13-C ) :   0.5734
B(  2-C , 14-H ) :   0.1097 B(  2-C , 16-H ) :  -0.1225 B(  2-C , 18-C ) :  -0.3262
B(  2-C , 19-C ) :   0.1049 B(  2-C , 20-N ) :   0.1833 B(  2-C , 23-C ) :  -0.1769
B(  2-C , 24-H ) :   1.7978 B(  3-C ,  4-C ) :   1.0356 B(  3-C , 10-C ) :   1.0647
B(  3-C , 16-H ) :   0.8352 B(  3-C , 24-H ) :  -0.1109 B(  4-C ,  5-C ) :   1.4782
B(  4-C , 12-H ) :   0.7543 B(  5-C ,  6-C ) :   0.9528 B(  5-C ,  9-H ) :  -0.1465
B(  5-C , 11-H ) :   0.7543 B(  6-C ,  9-H ) :   0.8271 B(  6-C , 10-C ) :   0.9890
B( 10-C , 14-H ) :   0.9398 B( 10-C , 15-H ) :   0.9771 B( 13-C , 17-C ) :   0.7656
B( 13-C , 18-C ) :   0.9117 B( 13-C , 19-C ) :   0.8385 B( 13-C , 20-N ) :   0.5710
B( 13-C , 21-N ) :   0.4549 B( 13-C , 22-C ) :   0.1395 B( 13-C , 23-C ) :   0.1452
B( 17-C , 22-C ) :   0.6568 B( 17-C , 23-C ) :  -0.3892 B( 17-C , 25-H ) :   0.9758
B( 17-C , 26-H ) :   0.9762 B( 18-C , 20-N ) :   0.9978 B( 18-C , 23-C ) :  -0.1016
B( 18-C , 24-H ) :  -0.1983 B( 19-C , 21-N ) :   1.1893 B( 20-N , 24-H ) :   0.1238
B( 22-C , 23-C ) :  -0.8717 B( 22-C , 25-H ) :  -0.1429 B( 22-C , 27-H ) :  -0.5176
B( 23-C , 27-H ) :   1.5939

MP2 TOTAL ENERGY:     -648.761085654 Eh
FINAL SINGLE POINT ENERGY      -648.761085654192

DIPOLE MOMENT
-------------
                                X             Y             Z
Electronic contribution:      9.79132      -4.90095       3.33363
Nuclear contribution   :    -10.90107       6.37852      -4.14436
                        -----------------------------------------
Total Dipole Moment    :     -1.10975       1.47757      -0.81073
                        -----------------------------------------
Magnitude (a.u.)       :      2.01793
Magnitude (Debye)      :      5.12918

Rotational constants in cm-1:     0.026497     0.015142     0.013309
Rotational constants in MHz :   794.357919   453.946243   398.996530

                             ****ORCA TERMINATED NORMALLY****
TOTAL RUN TIME: 0 days 0 hours 22 minutes 12 seconds 183 msec
