                         Program Version 4.2.1 -  RELEASE  -
|  1> %pal
|  2>  nprocs 32
|  3> end
|  4> !RI-MP2 aug-cc-pVTZ aug-cc-pVTZ/C TightSCF
|  5> %maxcore 4500
|  6> *xyzfile 0 1  08_14P1.xyz
|  7>
|  8>
|  9>                          ****END OF INPUT****

CARTESIAN COORDINATES (ANGSTROEM)
---------------------------------
  N     -0.092641    1.510060   -0.011192
  C      1.115415    0.774058   -0.068567
  C      1.069024   -0.561365   -0.459770
  N     -0.182982   -1.114221   -0.734110
  C     -1.244382   -0.614219    0.034899
  C     -1.292571    0.899107   -0.036789
  N     -2.389976    1.580065   -0.085067
  C     -3.606070    0.954831   -0.190877
  C     -2.550749   -1.276886   -0.380009
  N     -3.617339   -0.448862   -0.418468
  C      2.347130    1.356749    0.203886
  C      3.530597    0.641882    0.080504
  C      3.480889   -0.698268   -0.328261
  C      2.247787   -1.279283   -0.585481
  O     -4.664684    1.523981   -0.143192
  O     -2.601674   -2.475933   -0.558969
  O     -1.121691   -0.858527    1.473063
  O     -0.727361   -2.207201    1.681903
  C     -0.033106    2.968217    0.031252
  H     -1.036553    3.352422   -0.115148
  H      0.625740    3.327628   -0.758710
  H      0.341877    3.300821    1.000546
  C      4.845208    1.304669    0.387106
  H      5.512283    1.291705   -0.478941
  H      5.368982    0.796660    1.201242
  H      4.701026    2.344275    0.681587
  C      4.740229   -1.505630   -0.473170
  H      5.285615   -1.565649    0.472305
  H      5.418001   -1.058475   -1.205125
  H      4.519661   -2.522388   -0.797633
  H      2.394819    2.389693    0.519698
  H      2.194865   -2.319882   -0.886202
  H     -4.530134   -0.858289   -0.572934
  H     -0.223358   -2.115553   -0.869866
  H     -1.565382   -2.693994    1.640272

 Total Charge           Charge          ....    0
 Multiplicity           Mult            ....    1
 Number of Electrons    NEL             ....  152
 Basis Dimension        Dim             .... 1288

ORBITAL ENERGIES
----------------

  NO   OCC          E(Eh)            E(eV)
   0   2.0000     -20.654607      -562.0404
   1   2.0000     -20.645708      -561.7983
   2   2.0000     -20.568289      -559.6916
   3   2.0000     -20.537701      -558.8593
   4   2.0000     -15.640785      -425.6074
   5   2.0000     -15.627790      -425.2538
   6   2.0000     -15.604430      -424.6181
   7   2.0000     -15.564801      -423.5398
   8   2.0000     -11.396813      -310.1231
   9   2.0000     -11.396760      -310.1216
  10   2.0000     -11.382892      -309.7442
  11   2.0000     -11.378700      -309.6302
  12   2.0000     -11.294907      -307.3501
  13   2.0000     -11.293393      -307.3088
  14   2.0000     -11.276812      -306.8577
  15   2.0000     -11.252480      -306.1955
  16   2.0000     -11.249968      -306.1272
  17   2.0000     -11.248175      -306.0784
  18   2.0000     -11.244562      -305.9801
  19   2.0000     -11.234657      -305.7106
  20   2.0000     -11.234543      -305.7075
  21   2.0000      -1.516762       -41.2732
  22   2.0000      -1.439358       -39.1669
  23   2.0000      -1.413996       -38.4768
  24   2.0000      -1.362157       -37.0662
  25   2.0000      -1.290063       -35.1044
  26   2.0000      -1.280691       -34.8494
  27   2.0000      -1.236708       -33.6525
  28   2.0000      -1.219265       -33.1779
  29   2.0000      -1.168133       -31.7865
  30   2.0000      -1.071620       -29.1603
  31   2.0000      -1.055523       -28.7222
  32   2.0000      -1.020617       -27.7724
  33   2.0000      -0.985675       -26.8216
  34   2.0000      -0.969185       -26.3729
  35   2.0000      -0.927090       -25.2274
  36   2.0000      -0.896647       -24.3990
  37   2.0000      -0.872528       -23.7427
  38   2.0000      -0.847933       -23.0734
  39   2.0000      -0.810151       -22.0453
  40   2.0000      -0.795106       -21.6359
  41   2.0000      -0.767595       -20.8873
  42   2.0000      -0.763672       -20.7806
  43   2.0000      -0.722317       -19.6552
  44   2.0000      -0.717947       -19.5363
  45   2.0000      -0.704681       -19.1754
  46   2.0000      -0.687710       -18.7135
  47   2.0000      -0.675313       -18.3762
  48   2.0000      -0.660210       -17.9652
  49   2.0000      -0.653051       -17.7704
  50   2.0000      -0.646605       -17.5950
  51   2.0000      -0.638885       -17.3849
  52   2.0000      -0.634894       -17.2763
  53   2.0000      -0.625472       -17.0200
  54   2.0000      -0.615057       -16.7365
  55   2.0000      -0.607391       -16.5280
  56   2.0000      -0.588624       -16.0173
  57   2.0000      -0.572083       -15.5672
  58   2.0000      -0.570766       -15.5313
  59   2.0000      -0.563642       -15.3375
  60   2.0000      -0.562422       -15.3043
  61   2.0000      -0.552519       -15.0348
  62   2.0000      -0.548787       -14.9332
  63   2.0000      -0.535501       -14.5717
  64   2.0000      -0.519662       -14.1407
  65   2.0000      -0.510493       -13.8912
  66   2.0000      -0.507400       -13.8070
  67   2.0000      -0.504043       -13.7157
  68   2.0000      -0.481671       -13.1069
  69   2.0000      -0.461667       -12.5626
  70   2.0000      -0.454480       -12.3670
  71   2.0000      -0.441130       -12.0038
  72   2.0000      -0.438972       -11.9450
  73   2.0000      -0.412220       -11.2171
  74   2.0000      -0.338943        -9.2231
  75   2.0000      -0.300549        -8.1784
  76   0.0000       0.020037         0.5452
  77   0.0000       0.025021         0.6809
  78   0.0000       0.031228         0.8498
  79   0.0000       0.035173         0.9571
  80   0.0000       0.038975         1.0606

MULLIKEN ATOMIC CHARGES
-----------------------
   0 N :   -0.136415
   1 C :    1.352407
   2 C :    1.943480
   3 N :   -0.936018
   4 C :    2.713776
   5 C :    0.296317
   6 N :   -0.521857
   7 C :   -0.003278
   8 C :   -0.036327
   9 N :    0.115937
  10 C :   -0.882144
  11 C :    0.448231
  12 C :    0.470594
  13 C :   -1.068882
  14 O :   -0.840603
  15 O :   -0.970136
  16 O :   -0.590771
  17 O :   -0.462440
  18 C :   -1.279291
  19 H :    0.329340
  20 H :    0.327193
  21 H :    0.373525
  22 C :   -1.002114
  23 H :    0.232846
  24 H :    0.255281
  25 H :    0.235554
  26 C :   -1.076003
  27 H :    0.247301
  28 H :    0.251634
  29 H :    0.233534
  30 H :   -0.267294
  31 H :   -0.021829
  32 H :    0.145966
  33 H :   -0.115579
  34 H :    0.238064
Sum of atomic charges:   -0.0000000

LOEWDIN ATOMIC CHARGES
----------------------
   0 N :    0.295671
   1 C :   -0.157568
   2 C :   -0.187925
   3 N :    0.575618
   4 C :   -0.650111
   5 C :   -0.356591
   6 N :    0.409084
   7 C :   -0.843153
   8 C :   -0.645501
   9 N :    0.556725
  10 C :    0.255051
  11 C :   -0.086489
  12 C :   -0.091323
  13 C :    0.266090
  14 O :    0.444032
  15 O :    0.489141
  16 O :    0.380922
  17 O :    0.601941
  18 C :    0.531238
  19 H :   -0.204534
  20 H :   -0.147950
  21 H :   -0.144004
  22 C :    0.582548
  23 H :   -0.163827
  24 H :   -0.162662
  25 H :   -0.174239
  26 C :    0.584523
  27 H :   -0.162220
  28 H :   -0.163098
  29 H :   -0.174009
  30 H :   -0.190211
  31 H :   -0.164506
  32 H :   -0.265282
  33 H :   -0.291985
  34 H :   -0.545397

  Mayer bond orders larger than 0.100000
B(  0-N ,  1-C ) :  -0.1570 B(  0-N ,  2-C ) :  -0.2410 B(  0-N ,  3-N ) :  -0.1005
B(  0-N ,  4-C ) :   0.2260 B(  0-N ,  5-C ) :   0.9271 B(  0-N ,  6-N ) :  -0.1392
B(  0-N , 10-C ) :  -0.6270 B(  0-N , 11-C ) :   0.2350 B(  0-N , 12-C ) :  -0.1203
B(  0-N , 18-C ) :   1.2704 B(  0-N , 30-H ) :  -0.1460 B(  1-C ,  2-C ) :   0.6250
B(  1-C ,  3-N ) :   0.2217 B(  1-C ,  5-C ) :  -0.6825 B(  1-C ,  6-N ) :   0.3015
B(  1-C , 11-C ) :   0.1077 B(  1-C , 13-C ) :   0.3041 B(  1-C , 18-C ) :  -0.3146
B(  1-C , 22-C ) :  -0.1914 B(  1-C , 26-C ) :   0.1096 B(  1-C , 30-H ) :  -0.5124
B(  2-C ,  3-N ) :  -0.1394 B(  2-C ,  4-C ) :   0.2703 B(  2-C ,  5-C ) :  -0.2057
B(  2-C , 10-C ) :  -0.3980 B(  2-C , 12-C ) :   0.5115 B(  2-C , 13-C ) :  -0.4381
B(  2-C , 22-C ) :   0.1120 B(  2-C , 26-C ) :  -0.1597 B(  2-C , 31-H ) :  -0.2528
B(  2-C , 33-H ) :  -0.1629 B(  3-N ,  4-C ) :   0.6260 B(  3-N ,  5-C ) :   0.3219
B(  3-N ,  8-C ) :   0.3630 B(  3-N , 13-C ) :  -0.2185 B(  3-N , 16-O ) :   0.1873
B(  3-N , 33-H ) :   1.2270 B(  4-C ,  5-C ) :  -0.1749 B(  4-C ,  6-N ) :  -0.1078
B(  4-C ,  7-C ) :  -0.2505 B(  4-C ,  8-C ) :  -0.8178 B(  4-C ,  9-N ) :  -0.2396
B(  4-C , 13-C ) :   0.1166 B(  4-C , 15-O ) :  -0.2657 B(  4-C , 16-O ) :   0.1266
B(  4-C , 17-O ) :  -0.3785 B(  5-C ,  6-N ) :  -0.1596 B(  5-C ,  7-C ) :  -0.4940
B(  5-C ,  8-C ) :   0.1439 B(  5-C , 10-C ) :   0.1323 B(  5-C , 12-C ) :   0.1225
B(  5-C , 16-O ) :   0.2393 B(  5-C , 17-O ) :   0.1422 B(  6-N ,  7-C ) :   1.2396
B(  6-N , 14-O ) :  -0.3130 B(  6-N , 19-H ) :   0.1130 B(  7-C ,  8-C ) :  -0.3009
B(  7-C ,  9-N ) :   1.0305 B(  7-C , 14-O ) :   1.6023 B(  8-C ,  9-N ) :   0.8575
B(  8-C , 15-O ) :   1.3387 B(  9-N , 14-O ) :  -0.1846 B(  9-N , 15-O ) :  -0.1714
B(  9-N , 32-H ) :   1.0391 B( 10-C , 11-C ) :   1.0685 B( 10-C , 18-C ) :  -0.1469
B( 10-C , 22-C ) :  -0.2467 B( 10-C , 26-C ) :   0.2268 B( 10-C , 30-H ) :   2.1096
B( 11-C , 12-C ) :   0.8965 B( 11-C , 13-C ) :  -0.1699 B( 11-C , 23-H ) :  -0.1828
B( 11-C , 24-H ) :  -0.1705 B( 11-C , 26-C ) :   0.5751 B( 11-C , 27-H ) :   0.1059
B( 11-C , 29-H ) :   0.1644 B( 11-C , 30-H ) :  -0.2010 B( 12-C , 13-C ) :   0.6257
B( 12-C , 22-C ) :   0.5749 B( 12-C , 23-H ) :   0.1052 B( 12-C , 25-H ) :   0.1562
B( 12-C , 26-C ) :   0.1412 B( 12-C , 27-H ) :  -0.1856 B( 12-C , 28-H ) :  -0.1952
B( 12-C , 30-H ) :   0.1127 B( 12-C , 31-H ) :  -0.1285 B( 13-C , 22-C ) :   0.1049
B( 13-C , 26-C ) :  -0.4667 B( 13-C , 27-H ) :  -0.1255 B( 13-C , 28-H ) :  -0.1071
B( 13-C , 29-H ) :  -0.1602 B( 13-C , 31-H ) :   1.6472 B( 16-O , 17-O ) :   0.8916
B( 17-O , 34-H ) :   0.9875 B( 18-C , 19-H ) :   0.9045 B( 18-C , 20-H ) :   0.9446
B( 18-C , 21-H ) :   0.9387 B( 22-C , 23-H ) :   1.0825 B( 22-C , 24-H ) :   1.0644
B( 22-C , 25-H ) :   1.0300 B( 26-C , 27-H ) :   1.0720 B( 26-C , 28-H ) :   1.0825
B( 26-C , 29-H ) :   1.0381

MP2 TOTAL ENERGY:    -1021.876162064 Eh
FINAL SINGLE POINT ENERGY     -1021.876162063579

DIPOLE MOMENT
-------------
                                X             Y             Z
Electronic contribution:    -26.07291      -3.86441      -0.10668
Nuclear contribution   :     28.34901       3.55468      -0.13529
                        -----------------------------------------
Total Dipole Moment    :      2.27610      -0.30973      -0.24198
                        -----------------------------------------
Magnitude (a.u.)       :      2.30979
Magnitude (Debye)      :      5.87101

Rotational constants in cm-1:     0.021876     0.007207     0.005881
Rotational constants in MHz :   655.833376   216.060844   176.306051

                             ****ORCA TERMINATED NORMALLY****
TOTAL RUN TIME: 0 days 0 hours 53 minutes 22 seconds 125 msec
