                         Program Version 4.2.1 -  RELEASE  -
|  1> %pal
|  2>  nprocs 32
|  3> end
|  4> !RI-MP2 aug-cc-pVTZ aug-cc-pVTZ/C TightSCF
|  5> %maxcore 4500
|  6> *xyzfile 0 2  04_4R.xyz
|  7>
|  8>
|  9>                          ****END OF INPUT****

CARTESIAN COORDINATES (ANGSTROEM)
---------------------------------
  C     -1.918371   -0.515198   -0.031121
  H     -1.863129   -1.106353   -0.960112
  H     -1.883758   -1.257709    0.775700
  C     -0.687784    0.386683    0.045818
  H     -0.734052    1.122252   -0.765068
  C      1.842687    0.519019    0.041598
  H      1.831420    1.245014   -0.773547
  O      3.066159   -0.187384   -0.097562
  H     -0.720233    0.956799    0.980377
  H      1.829061    1.083916    0.982886
  C      0.624092   -0.384562   -0.043343
  C     -3.205547    0.223787    0.017931
  H     -4.132915   -0.287445    0.241372
  H     -3.259408    1.262631   -0.284395
  H      0.667872   -1.123693    0.766660
  H      0.669878   -0.945071   -0.982165
  H      3.135523   -0.829638    0.613488

 Total Charge           Charge          ....    0
 Multiplicity           Mult            ....    2
 Number of Electrons    NEL             ....   49
 Basis Dimension        Dim             ....  529

ORBITAL ENERGIES
----------------
                 SPIN UP ORBITALS
  NO   OCC          E(Eh)            E(eV)
   0   1.0000     -20.554650      -559.3205
   1   1.0000     -11.272087      -306.7291
   2   1.0000     -11.230096      -305.5865
   3   1.0000     -11.225889      -305.4720
   4   1.0000     -11.224864      -305.4441
   5   1.0000     -11.221546      -305.3538
   6   1.0000      -1.357392       -36.9365
   7   1.0000      -1.091295       -29.6957
   8   1.0000      -1.020036       -27.7566
   9   1.0000      -0.915392       -24.9091
  10   1.0000      -0.828839       -22.5538
  11   1.0000      -0.798304       -21.7230
  12   1.0000      -0.691461       -18.8156
  13   1.0000      -0.647004       -17.6059
  14   1.0000      -0.621826       -16.9207
  15   1.0000      -0.608294       -16.5525
  16   1.0000      -0.583967       -15.8906
  17   1.0000      -0.554835       -15.0978
  18   1.0000      -0.546074       -14.8594
  19   1.0000      -0.502686       -13.6788
  20   1.0000      -0.488130       -13.2827
  21   1.0000      -0.484359       -13.1801
  22   1.0000      -0.468360       -12.7447
  23   1.0000      -0.434752       -11.8302
  24   1.0000      -0.350533        -9.5385
  25   0.0000       0.029003         0.7892
  26   0.0000       0.032926         0.8960
  27   0.0000       0.035813         0.9745
  28   0.0000       0.040510         1.1023
  29   0.0000       0.051311         1.3962

                 SPIN DOWN ORBITALS
  NO   OCC          E(Eh)            E(eV)
   0   1.0000     -20.554649      -559.3204
   1   1.0000     -11.272100      -306.7294
   2   1.0000     -11.228953      -305.5554
   3   1.0000     -11.224438      -305.4325
   4   1.0000     -11.221591      -305.3550
   5   1.0000     -11.206722      -304.9504
   6   1.0000      -1.357390       -36.9365
   7   1.0000      -1.084111       -29.5001
   8   1.0000      -1.000216       -27.2173
   9   1.0000      -0.889721       -24.2105
  10   1.0000      -0.814584       -22.1660
  11   1.0000      -0.775236       -21.0952
  12   1.0000      -0.691130       -18.8066
  13   1.0000      -0.641767       -17.4634
  14   1.0000      -0.616494       -16.7757
  15   1.0000      -0.603747       -16.4288
  16   1.0000      -0.575779       -15.6677
  17   1.0000      -0.544062       -14.8047
  18   1.0000      -0.536635       -14.6026
  19   1.0000      -0.498871       -13.5750
  20   1.0000      -0.480964       -13.0877
  21   1.0000      -0.480668       -13.0796
  22   1.0000      -0.467259       -12.7148
  23   1.0000      -0.433916       -11.8074
  24   0.0000       0.029278         0.7967
  25   0.0000       0.033322         0.9067
  26   0.0000       0.035819         0.9747
  27   0.0000       0.040114         1.0916
  28   0.0000       0.051236         1.3942

MULLIKEN ATOMIC CHARGES AND SPIN POPULATIONS
--------------------------------------------
   0 C :   -0.182447   -0.228185
   1 H :    0.226210    0.068560
   2 H :    0.225832    0.031209
   3 C :   -0.307579    0.036396
   4 H :    0.249458   -0.005242
   5 C :   -0.200792   -0.000849
   6 H :    0.320387    0.000030
   7 O :   -0.653731    0.000054
   8 H :    0.271926   -0.002192
   9 H :    0.247557   -0.000023
  10 C :   -0.429809   -0.002056
  11 C :   -1.188110    1.242593
  12 H :    0.372264   -0.075055
  13 H :    0.389422   -0.064726
  14 H :    0.255025   -0.000126
  15 H :    0.237210   -0.000428
  16 H :    0.167177    0.000041
Sum of atomic charges         :    0.0000000

LOEWDIN ATOMIC CHARGES AND SPIN POPULATIONS
-------------------------------------------
   0 C :    0.203663    0.131930
   1 H :   -0.151884    0.030241
   2 H :   -0.157478    0.012032
   3 C :    0.245175    0.009143
   4 H :   -0.142993   -0.000369
   5 C :    0.027800   -0.000004
   6 H :   -0.160378    0.000029
   7 O :    0.808952   -0.000007
   8 H :   -0.141346    0.003403
   9 H :   -0.151535    0.000033
  10 C :    0.262558    0.001628
  11 C :    0.597019    0.566269
  12 H :   -0.227682    0.120824
  13 H :   -0.225130    0.123873
  14 H :   -0.144830    0.000262
  15 H :   -0.142403    0.000712
  16 H :   -0.499507   -0.000000

  Mayer bond orders larger than 0.100000
B(  0-C ,  1-H ) :   0.9492 B(  0-C ,  2-H ) :   0.9948 B(  0-C ,  3-C ) :   0.9411
B(  0-C , 11-C ) :   0.7546 B(  3-C ,  4-H ) :   0.9408 B(  3-C ,  8-H ) :   0.9200
B(  3-C , 10-C ) :   0.8972 B(  5-C ,  6-H ) :   0.9228 B(  5-C ,  7-O ) :   0.7368
B(  5-C ,  9-H ) :   0.9976 B(  5-C , 10-C ) :   0.9634 B(  7-O , 16-H ) :   1.0008
B( 10-C , 14-H ) :   0.9346 B( 10-C , 15-H ) :   0.9374 B( 11-C , 12-H ) :   0.8563
B( 11-C , 13-H ) :   0.8658

MP2 TOTAL ENERGY:     -271.760361383 Eh
FINAL SINGLE POINT ENERGY      -271.760361382509

DIPOLE MOMENT
-------------
                                X             Y             Z
Electronic contribution:      4.15417      -0.28164      -0.19712
Nuclear contribution   :     -4.65863       0.12435       0.62693
                        -----------------------------------------
Total Dipole Moment    :     -0.50446      -0.15729       0.42981
                        -----------------------------------------
Magnitude (a.u.)       :      0.68114
Magnitude (Debye)      :      1.73132

Rotational constants in cm-1:     0.553440     0.039244     0.037788
Rotational constants in MHz : 16591.726073  1176.513738  1132.866872

                             ****ORCA TERMINATED NORMALLY****
TOTAL RUN TIME: 0 days 0 hours 2 minutes 36 seconds 604 msec
