                         Program Version 4.2.1 -  RELEASE  -
|  1> %pal
|  2>  nprocs 32
|  3> end
|  4> !RI-MP2 aug-cc-pVTZ aug-cc-pVTZ/C TightSCF
|  5> %maxcore 4500
|  6> *xyzfile 0 1  04_26P2.xyz
|  7>
|  8>
|  9>                          ****END OF INPUT****

CARTESIAN COORDINATES (ANGSTROEM)
---------------------------------
  O      1.947460    0.120186    1.075988
  O      0.546123   -0.013160    1.288554
  C     -0.114264    0.006548    0.078736
  Cl    -1.812607   -0.112398    0.543284
  Cl     0.192837    1.505286   -0.823171
  Cl     0.354398   -1.398991   -0.931610
  H      2.248239   -0.791743    1.206695

 Total Charge           Charge          ....    0
 Multiplicity           Mult            ....    1
 Number of Electrons    NEL             ....   74
 Basis Dimension        Dim             ....  311

ORBITAL ENERGIES
----------------

  NO   OCC          E(Eh)            E(eV)
   0   2.0000    -104.875337     -2853.8030
   1   2.0000    -104.872020     -2853.7127
   2   2.0000    -104.868359     -2853.6131
   3   2.0000     -20.687971      -562.9483
   4   2.0000     -20.670926      -562.4845
   5   2.0000     -11.499765      -312.9245
   6   2.0000     -10.599782      -288.4347
   7   2.0000     -10.596446      -288.3440
   8   2.0000     -10.592767      -288.2438
   9   2.0000      -8.066584      -219.5029
  10   2.0000      -8.064329      -219.4416
  11   2.0000      -8.064299      -219.4407
  12   2.0000      -8.063173      -219.4101
  13   2.0000      -8.061101      -219.3537
  14   2.0000      -8.061055      -219.3525
  15   2.0000      -8.059545      -219.3114
  16   2.0000      -8.057338      -219.2513
  17   2.0000      -8.057324      -219.2509
  18   2.0000      -1.554074       -42.2885
  19   2.0000      -1.316263       -35.8173
  20   2.0000      -1.194112       -32.4934
  21   2.0000      -1.124521       -30.5998
  22   2.0000      -1.120329       -30.4857
  23   2.0000      -0.858690       -23.3661
  24   2.0000      -0.773474       -21.0473
  25   2.0000      -0.720108       -19.5951
  26   2.0000      -0.712690       -19.3933
  27   2.0000      -0.650540       -17.7021
  28   2.0000      -0.597455       -16.2576
  29   2.0000      -0.550388       -14.9768
  30   2.0000      -0.529515       -14.4088
  31   2.0000      -0.507044       -13.7974
  32   2.0000      -0.502585       -13.6760
  33   2.0000      -0.495869       -13.4933
  34   2.0000      -0.471164       -12.8210
  35   2.0000      -0.468556       -12.7500
  36   2.0000      -0.455997       -12.4083
  37   0.0000       0.029755         0.8097
  38   0.0000       0.058129         1.5818
  39   0.0000       0.070377         1.9151
  40   0.0000       0.071568         1.9475
  41   0.0000       0.097709         2.6588

MULLIKEN ATOMIC CHARGES
-----------------------
   0 O :   -0.271396
   1 O :   -0.289489
   2 C :    0.867156
   3 Cl:   -0.204316
   4 Cl:   -0.170364
   5 Cl:   -0.194580
   6 H :    0.262989
Sum of atomic charges:   -0.0000000

LOEWDIN ATOMIC CHARGES
----------------------
   0 O :    0.549663
   1 O :    0.116499
   2 C :   -2.524784
   3 Cl:    0.828275
   4 Cl:    0.802561
   5 Cl:    0.778298
   6 H :   -0.550512

  Mayer bond orders larger than 0.100000
B(  0-O ,  1-O ) :   0.8180 B(  0-O ,  6-H ) :   0.9519 B(  1-O ,  2-C ) :   0.8679
B(  2-C ,  3-Cl) :   0.8506 B(  2-C ,  4-Cl) :   0.9169 B(  2-C ,  5-Cl) :   0.8958

MP2 TOTAL ENERGY:    -1567.914592962 Eh
FINAL SINGLE POINT ENERGY     -1567.914592962310

DIPOLE MOMENT
-------------
                                X             Y             Z
Electronic contribution:     -3.42077       0.18409      -2.66397
Nuclear contribution   :      3.76222      -0.71733       2.73335
                        -----------------------------------------
Total Dipole Moment    :      0.34145      -0.53323       0.06938
                        -----------------------------------------
Magnitude (a.u.)       :      0.63698
Magnitude (Debye)      :      1.61906

Rotational constants in cm-1:     0.064222     0.055323     0.048976
Rotational constants in MHz :  1925.317027  1658.530843  1468.264242

                             ****ORCA TERMINATED NORMALLY****
TOTAL RUN TIME: 0 days 0 hours 0 minutes 45 seconds 412 msec
