                         Program Version 4.2.1 -  RELEASE  -
|  1> %pal
|  2>  nprocs 32
|  3> end
|  4> !RI-MP2 aug-cc-pVTZ aug-cc-pVTZ/C TightSCF
|  5> %maxcore 4500
|  6> *xyzfile 0 2  04_28TS.xyz
|  7>
|  8>
|  9>                          ****END OF INPUT****

CARTESIAN COORDINATES (ANGSTROEM)
---------------------------------
  C     -0.568254   -1.541204   -0.716078
  H     -0.033787   -2.497163   -0.710574
  H     -0.841447   -1.340921   -1.756458
  C     -1.841646   -1.676975    0.127810
  H     -2.302182   -2.628438   -0.151360
  C     -2.564917    0.784776    0.554430
  H     -3.474274    1.381451    0.641914
  H     -1.572829   -1.777120    1.184767
  H     -2.147557    0.684792    1.558819
  C     -2.906478   -0.586331   -0.024494
  H     -0.352266    0.705084   -0.401683
  H     -3.806837   -0.944297    0.486656
  H     -3.171556   -0.473337   -1.080018
  C      0.396805   -0.466071   -0.273853
  C      2.194614    0.756937    1.143479
  C      2.965552    0.350331   -0.101062
  H      2.838475    0.788984    2.022168
  H      1.712780    1.726906    1.015872
  H      3.542643    1.185264   -0.497814
  H      3.635873   -0.482127    0.110264
  S      0.908314   -0.493285    1.426982
  S      1.770876   -0.177078   -1.381430
  S     -1.434259    1.791747   -0.463299

 Total Charge           Charge          ....    0
 Multiplicity           Mult            ....    2
 Number of Electrons    NEL             ....  103
 Basis Dimension        Dim             ....  771

ORBITAL ENERGIES
----------------
                 SPIN UP ORBITALS
  NO   OCC          E(Eh)            E(eV)
   0   1.0000     -91.970235     -2502.6373
   1   1.0000     -91.966583     -2502.5380
   2   1.0000     -91.932162     -2501.6013
   3   1.0000     -11.314839      -307.8924
   4   1.0000     -11.278401      -306.9009
   5   1.0000     -11.277066      -306.8646
   6   1.0000     -11.248417      -306.0850
   7   1.0000     -11.244124      -305.9682
   8   1.0000     -11.231964      -305.6373
   9   1.0000     -11.227363      -305.5121
  10   1.0000      -8.970913      -244.1109
  11   1.0000      -8.967071      -244.0064
  12   1.0000      -8.932981      -243.0788
  13   1.0000      -6.652244      -181.0168
  14   1.0000      -6.651208      -180.9886
  15   1.0000      -6.650238      -180.9622
  16   1.0000      -6.648485      -180.9145
  17   1.0000      -6.647317      -180.8827
  18   1.0000      -6.646294      -180.8548
  19   1.0000      -6.622143      -180.1977
  20   1.0000      -6.611679      -179.9129
  21   1.0000      -6.610538      -179.8819
  22   1.0000      -1.165307       -31.7096
  23   1.0000      -1.099330       -29.9143
  24   1.0000      -1.049034       -28.5457
  25   1.0000      -1.003317       -27.3017
  26   1.0000      -0.995516       -27.0894
  27   1.0000      -0.925192       -25.1758
  28   1.0000      -0.852742       -23.2043
  29   1.0000      -0.819569       -22.3016
  30   1.0000      -0.796647       -21.6779
  31   1.0000      -0.747273       -20.3343
  32   1.0000      -0.662407       -18.0250
  33   1.0000      -0.651415       -17.7259
  34   1.0000      -0.638549       -17.3758
  35   1.0000      -0.613303       -16.6888
  36   1.0000      -0.608596       -16.5607
  37   1.0000      -0.577839       -15.7238
  38   1.0000      -0.564918       -15.3722
  39   1.0000      -0.561040       -15.2667
  40   1.0000      -0.540729       -14.7140
  41   1.0000      -0.507393       -13.8069
  42   1.0000      -0.489136       -13.3101
  43   1.0000      -0.487649       -13.2696
  44   1.0000      -0.477181       -12.9847
  45   1.0000      -0.463753       -12.6194
  46   1.0000      -0.447598       -12.1798
  47   1.0000      -0.434420       -11.8212
  48   1.0000      -0.403318       -10.9748
  49   1.0000      -0.363764        -9.8985
  50   1.0000      -0.340990        -9.2788
  51   1.0000      -0.298448        -8.1212
  52   0.0000       0.026211         0.7133
  53   0.0000       0.029297         0.7972
  54   0.0000       0.035940         0.9780
  55   0.0000       0.039967         1.0876
  56   0.0000       0.045050         1.2259

                 SPIN DOWN ORBITALS
  NO   OCC          E(Eh)            E(eV)
   0   1.0000     -91.969968     -2502.6301
   1   1.0000     -91.966238     -2502.5286
   2   1.0000     -91.926905     -2501.4583
   3   1.0000     -11.295944      -307.3783
   4   1.0000     -11.278317      -306.8986
   5   1.0000     -11.277072      -306.8647
   6   1.0000     -11.248918      -306.0986
   7   1.0000     -11.245376      -306.0022
   8   1.0000     -11.231766      -305.6319
   9   1.0000     -11.227231      -305.5085
  10   1.0000      -8.970630      -244.1032
  11   1.0000      -8.966677      -243.9957
  12   1.0000      -8.927246      -242.9227
  13   1.0000      -6.652269      -181.0174
  14   1.0000      -6.651164      -180.9874
  15   1.0000      -6.648759      -180.9219
  16   1.0000      -6.648325      -180.9101
  17   1.0000      -6.647196      -180.8794
  18   1.0000      -6.644762      -180.8132
  19   1.0000      -6.609037      -179.8410
  20   1.0000      -6.607409      -179.7967
  21   1.0000      -6.599097      -179.5706
  22   1.0000      -1.150500       -31.3067
  23   1.0000      -1.096557       -29.8388
  24   1.0000      -1.037583       -28.2341
  25   1.0000      -0.992579       -27.0094
  26   1.0000      -0.986795       -26.8521
  27   1.0000      -0.913859       -24.8674
  28   1.0000      -0.837877       -22.7998
  29   1.0000      -0.815944       -22.2030
  30   1.0000      -0.783917       -21.3315
  31   1.0000      -0.718401       -19.5487
  32   1.0000      -0.658679       -17.9236
  33   1.0000      -0.640144       -17.4192
  34   1.0000      -0.628864       -17.1123
  35   1.0000      -0.606683       -16.5087
  36   1.0000      -0.601945       -16.3798
  37   1.0000      -0.561933       -15.2910
  38   1.0000      -0.559093       -15.2137
  39   1.0000      -0.540865       -14.7177
  40   1.0000      -0.537514       -14.6265
  41   1.0000      -0.499342       -13.5878
  42   1.0000      -0.487107       -13.2549
  43   1.0000      -0.482736       -13.1359
  44   1.0000      -0.473525       -12.8853
  45   1.0000      -0.453822       -12.3491
  46   1.0000      -0.440705       -11.9922
  47   1.0000      -0.428003       -11.6466
  48   1.0000      -0.364051        -9.9063
  49   1.0000      -0.351178        -9.5560
  50   1.0000      -0.331096        -9.0096
  51   0.0000       0.025512         0.6942
  52   0.0000       0.029149         0.7932
  53   0.0000       0.035235         0.9588
  54   0.0000       0.039944         1.0869
  55   0.0000       0.041926         1.1409

MULLIKEN ATOMIC CHARGES AND SPIN POPULATIONS
--------------------------------------------
   0 C :   -0.626172   -0.074831
   1 H :    0.301205    0.044564
   2 H :    0.269712    0.000824
   3 C :   -0.480731    0.016791
   4 H :    0.276981   -0.003387
   5 C :   -0.369025   -0.050115
   6 H :    0.307545    0.004697
   7 H :    0.165783   -0.001303
   8 H :    0.204725    0.002086
   9 C :   -0.446839    0.008228
  10 H :    0.569949   -0.357505
  11 H :    0.228503   -0.001200
  12 H :    0.285559   -0.000634
  13 C :    0.892618    0.715324
  14 C :   -0.565368    0.000104
  15 C :   -0.445183   -0.003262
  16 H :    0.356827    0.000869
  17 H :    0.181949   -0.001916
  18 H :    0.291655    0.000581
  19 H :    0.252196   -0.002159
  20 S :   -0.441533    0.036768
  21 S :   -0.540923    0.054960
  22 S :   -0.669432    0.610515
Sum of atomic charges         :   -0.0000000

LOEWDIN ATOMIC CHARGES AND SPIN POPULATIONS
-------------------------------------------
   0 C :    0.132644    0.042281
   1 H :   -0.161100    0.013165
   2 H :   -0.160518    0.000201
   3 C :    0.255205    0.000049
   4 H :   -0.146004    0.000167
   5 C :   -0.114270    0.042760
   6 H :   -0.234887    0.011678
   7 H :   -0.174530    0.000034
   8 H :   -0.229929    0.000881
   9 C :    0.213822    0.000628
  10 H :   -0.765725    0.079555
  11 H :   -0.152079    0.000122
  12 H :   -0.161601   -0.000257
  13 C :   -0.890771    0.331345
  14 C :   -0.113300    0.005944
  15 C :   -0.106103    0.006038
  16 H :   -0.216720    0.000024
  17 H :   -0.222112    0.000938
  18 H :   -0.223566   -0.000663
  19 H :   -0.228923    0.002422
  20 S :    1.235251    0.072582
  21 S :    1.225778    0.071772
  22 S :    1.239435    0.318335

  Mayer bond orders larger than 0.100000
B(  0-C ,  1-H ) :   0.9633 B(  0-C ,  2-H ) :   1.0411 B(  0-C ,  3-C ) :   0.8999
B(  0-C , 13-C ) :   0.7046 B(  3-C ,  4-H ) :   0.9548 B(  3-C ,  7-H ) :   1.0496
B(  3-C ,  9-C ) :   0.8610 B(  5-C ,  6-H ) :   0.9102 B(  5-C ,  8-H ) :   1.0059
B(  5-C ,  9-C ) :   0.9635 B(  5-C , 22-S ) :   0.9443 B(  9-C , 11-H ) :   0.9639
B(  9-C , 12-H ) :   0.9536 B(  9-C , 22-S ) :   0.1236 B( 10-H , 13-C ) :   0.2583
B( 10-H , 21-S ) :  -0.1004 B( 10-H , 22-S ) :   0.2572 B( 13-C , 14-C ) :  -0.1934
B( 13-C , 20-S ) :   0.8138 B( 13-C , 21-S ) :   0.8802 B( 14-C , 15-C ) :   1.0250
B( 14-C , 16-H ) :   0.8678 B( 14-C , 17-H ) :   0.9932 B( 14-C , 20-S ) :   1.0459
B( 14-C , 21-S ) :   0.1396 B( 15-C , 18-H ) :   0.9175 B( 15-C , 19-H ) :   0.9543
B( 15-C , 21-S ) :   0.9721

MP2 TOTAL ENERGY:    -1467.078682338 Eh
FINAL SINGLE POINT ENERGY     -1467.078682338096

DIPOLE MOMENT
-------------
                                X             Y             Z
Electronic contribution:      6.49983       3.16056      -1.84215
Nuclear contribution   :     -6.01388      -3.70707       2.43646
                        -----------------------------------------
Total Dipole Moment    :      0.48595      -0.54651       0.59431
                        -----------------------------------------
Magnitude (a.u.)       :      0.94234
Magnitude (Debye)      :      2.39525

Rotational constants in cm-1:     0.042311     0.019946     0.018825
Rotational constants in MHz :  1268.446405   597.952187   564.356933

                             ****ORCA TERMINATED NORMALLY****
TOTAL RUN TIME: 0 days 0 hours 18 minutes 34 seconds 766 msec
