                         Program Version 4.2.1 -  RELEASE  -
|  1> %pal
|  2>  nprocs 32
|  3> end
|  4> !RI-MP2 aug-cc-pVTZ aug-cc-pVTZ/C TightSCF
|  5> %maxcore 4500
|  6> *xyzfile 0 1  09_18R2.xyz
|  7>
|  8>
|  9>                          ****END OF INPUT****

CARTESIAN COORDINATES (ANGSTROEM)
---------------------------------
  N      1.123517   -0.412023   -0.000022
  C      0.262895    0.707033   -0.000122
  C     -1.031617    0.336368    0.000023
  S     -1.104293   -1.413856    0.000275
  C      0.595731   -1.641146    0.000188
  C      0.831159    2.087027   -0.000351
  H      1.450763    2.267264    0.881516
  H      0.032951    2.826747   -0.000415
  H      1.450670    2.267011   -0.882333
  C     -2.260867    1.182936   -0.000009
  H     -2.011684    2.244253   -0.000200
  H     -2.875461    0.985528    0.881158
  H     -2.875608    0.985246   -0.881011
  C      2.573308   -0.243642   -0.000138
  H      2.899617    0.297857   -0.889502
  H      3.009447   -1.237550   -0.000062
  H      2.899737    0.298044    0.889069

 Total Charge           Charge          ....    0
 Multiplicity           Mult            ....    1
 Number of Electrons    NEL             ....   68
 Basis Dimension        Dim             ....  579

ORBITAL ENERGIES
----------------

  NO   OCC          E(Eh)            E(eV)
   0   2.0000     -91.965601     -2502.5112
   1   2.0000     -15.621308      -425.0774
   2   2.0000     -11.279087      -306.9195
   3   2.0000     -11.267002      -306.5907
   4   2.0000     -11.258708      -306.3650
   5   2.0000     -11.258364      -306.3557
   6   2.0000     -11.246425      -306.0308
   7   2.0000     -11.239450      -305.8410
   8   2.0000      -8.967185      -244.0095
   9   2.0000      -6.648145      -180.9052
  10   2.0000      -6.647111      -180.8771
  11   2.0000      -6.646780      -180.8681
  12   2.0000      -1.308664       -35.6105
  13   2.0000      -1.108396       -30.1610
  14   2.0000      -1.050676       -28.5904
  15   2.0000      -0.994508       -27.0619
  16   2.0000      -0.933934       -25.4136
  17   2.0000      -0.909736       -24.7552
  18   2.0000      -0.786505       -21.4019
  19   2.0000      -0.713763       -19.4225
  20   2.0000      -0.656540       -17.8654
  21   2.0000      -0.648544       -17.6478
  22   2.0000      -0.603487       -16.4217
  23   2.0000      -0.591432       -16.0937
  24   2.0000      -0.588885       -16.0244
  25   2.0000      -0.577252       -15.7078
  26   2.0000      -0.555582       -15.1182
  27   2.0000      -0.545005       -14.8303
  28   2.0000      -0.524116       -14.2619
  29   2.0000      -0.514045       -13.9879
  30   2.0000      -0.456985       -12.4352
  31   2.0000      -0.381295       -10.3756
  32   2.0000      -0.353714        -9.6250
  33   2.0000      -0.322861        -8.7855
  34   0.0000       0.023969         0.6522
  35   0.0000       0.030577         0.8320
  36   0.0000       0.039027         1.0620
  37   0.0000       0.039367         1.0712
  38   0.0000       0.051665         1.4059

MULLIKEN ATOMIC CHARGES
-----------------------
   0 N :    0.443452
   1 C :   -0.348830
   2 C :    0.978005
   3 S :   -0.122252
   4 C :   -0.879143
   5 C :   -0.896613
   6 H :    0.251287
   7 H :    0.290905
   8 H :    0.251287
   9 C :   -0.969049
  10 H :    0.345215
  11 H :    0.257892
  12 H :    0.257892
  13 C :   -0.929828
  14 H :    0.325895
  15 H :    0.417993
  16 H :    0.325892
Sum of atomic charges:   -0.0000000

LOEWDIN ATOMIC CHARGES
----------------------
   0 N :   -0.013418
   1 C :   -0.304951
   2 C :   -0.489001
   3 S :    1.152295
   4 C :   -0.338848
   5 C :    0.587870
   6 H :   -0.163063
   7 H :   -0.187215
   8 H :   -0.163067
   9 C :    0.510233
  10 H :   -0.196727
  11 H :   -0.177831
  12 H :   -0.177831
  13 C :    0.471680
  14 H :   -0.161598
  15 H :   -0.186932
  16 H :   -0.161594

  Mayer bond orders larger than 0.100000
B(  0-N ,  1-C ) :   0.8569 B(  0-N ,  2-C ) :  -0.3366 B(  0-N ,  3-S ) :  -0.1190
B(  0-N ,  4-C ) :   1.1079 B(  0-N ,  5-C ) :  -0.1825 B(  0-N , 13-C ) :   0.8890
B(  1-C ,  2-C ) :   1.0960 B(  1-C ,  3-S ) :   0.5324 B(  1-C ,  4-C ) :  -0.1810
B(  1-C ,  5-C ) :   0.9150 B(  2-C ,  3-S ) :   0.6575 B(  2-C ,  4-C ) :   0.1100
B(  2-C ,  5-C ) :  -0.1806 B(  2-C ,  9-C ) :   0.6122 B(  3-S ,  4-C ) :   0.8819
B(  4-C , 13-C ) :  -0.1674 B(  5-C ,  6-H ) :   1.0597 B(  5-C ,  7-H ) :   0.9244
B(  5-C ,  8-H ) :   1.0597 B(  9-C , 10-H ) :   0.8392 B(  9-C , 11-H ) :   1.0321
B(  9-C , 12-H ) :   1.0321 B( 13-C , 14-H ) :   0.9343 B( 13-C , 15-H ) :   0.8605
B( 13-C , 16-H ) :   0.9343

MP2 TOTAL ENERGY:     -685.879882529 Eh
FINAL SINGLE POINT ENERGY      -685.879882528787

DIPOLE MOMENT
-------------
                                X             Y             Z
Electronic contribution:     -3.76300      -9.24489       0.00153
Nuclear contribution   :      4.03703      11.01909      -0.00180
                        -----------------------------------------
Total Dipole Moment    :      0.27403       1.77420      -0.00026
                        -----------------------------------------
Magnitude (a.u.)       :      1.79524
Magnitude (Debye)      :      4.56313

Rotational constants in cm-1:     0.081590     0.060223     0.035335
Rotational constants in MHz :  2446.021300  1805.425418  1059.316390

                             ****ORCA TERMINATED NORMALLY****
TOTAL RUN TIME: 0 days 0 hours 3 minutes 38 seconds 32 msec
