                         Program Version 4.2.1 -  RELEASE  -
|  1> %pal
|  2>  nprocs 32
|  3> end
|  4> !RI-MP2 aug-cc-pVTZ aug-cc-pVTZ/C TightSCF
|  5> %maxcore 4500
|  6> *xyzfile 0 2  03_37R2.xyz
|  7>
|  8>
|  9>                          ****END OF INPUT****

CARTESIAN COORDINATES (ANGSTROEM)
---------------------------------
  C      1.208589   -0.665674    0.000003
  C      2.522557    0.009474    0.000000
  C     -0.024261    0.087678   -0.000002
  O     -0.105105    1.298480   -0.000014
  O     -1.108656   -0.718224    0.000007
  C     -2.371068   -0.052799    0.000003
  H      3.112218   -0.282435    0.876438
  H      2.401693    1.091824   -0.000055
  H      3.112264   -0.282527   -0.876375
  H     -3.119405   -0.841049    0.000010
  H     -2.474114    0.573072   -0.886896
  H     -2.474112    0.573087    0.886890
  H      1.136635   -1.746102    0.000015

 Total Charge           Charge          ....    0
 Multiplicity           Mult            ....    2
 Number of Electrons    NEL             ....   47
 Basis Dimension        Dim             ....  437

ORBITAL ENERGIES
----------------
                 SPIN UP ORBITALS
  NO   OCC          E(Eh)            E(eV)
   0   1.0000     -20.597118      -560.4761
   1   1.0000     -20.551021      -559.2217
   2   1.0000     -11.367981      -309.3385
   3   1.0000     -11.281145      -306.9756
   4   1.0000     -11.266331      -306.5725
   5   1.0000     -11.229203      -305.5622
   6   1.0000      -1.459487       -39.7147
   7   1.0000      -1.364450       -37.1286
   8   1.0000      -1.086745       -29.5718
   9   1.0000      -0.977563       -26.6008
  10   1.0000      -0.888315       -24.1723
  11   1.0000      -0.763938       -20.7878
  12   1.0000      -0.712066       -19.3763
  13   1.0000      -0.675569       -18.3832
  14   1.0000      -0.673387       -18.3238
  15   1.0000      -0.614502       -16.7214
  16   1.0000      -0.601475       -16.3670
  17   1.0000      -0.559460       -15.2237
  18   1.0000      -0.558428       -15.1956
  19   1.0000      -0.534884       -14.5549
  20   1.0000      -0.525105       -14.2888
  21   1.0000      -0.478950       -13.0329
  22   1.0000      -0.464164       -12.6305
  23   1.0000      -0.377755       -10.2792
  24   0.0000       0.028009         0.7622
  25   0.0000       0.034240         0.9317
  26   0.0000       0.041183         1.1207
  27   0.0000       0.043723         1.1898
  28   0.0000       0.054593         1.4856

                 SPIN DOWN ORBITALS
  NO   OCC          E(Eh)            E(eV)
   0   1.0000     -20.596771      -560.4666
   1   1.0000     -20.539579      -558.9104
   2   1.0000     -11.373606      -309.4916
   3   1.0000     -11.281237      -306.9781
   4   1.0000     -11.245203      -305.9975
   5   1.0000     -11.231875      -305.6349
   6   1.0000      -1.453448       -39.5503
   7   1.0000      -1.345341       -36.6086
   8   1.0000      -1.041585       -28.3430
   9   1.0000      -0.977164       -26.5900
  10   1.0000      -0.865697       -23.5568
  11   1.0000      -0.755202       -20.5501
  12   1.0000      -0.700178       -19.0528
  13   1.0000      -0.665288       -18.1034
  14   1.0000      -0.664452       -18.0807
  15   1.0000      -0.607933       -16.5427
  16   1.0000      -0.564233       -15.3536
  17   1.0000      -0.549855       -14.9623
  18   1.0000      -0.532626       -14.4935
  19   1.0000      -0.531938       -14.4748
  20   1.0000      -0.522409       -14.2155
  21   1.0000      -0.450606       -12.2616
  22   1.0000      -0.436832       -11.8868
  23   0.0000       0.028282         0.7696
  24   0.0000       0.034277         0.9327
  25   0.0000       0.041335         1.1248
  26   0.0000       0.043147         1.1741
  27   0.0000       0.054682         1.4880

MULLIKEN ATOMIC CHARGES AND SPIN POPULATIONS
--------------------------------------------
   0 C :   -0.232844    1.119298
   1 C :   -0.719434   -0.174548
   2 C :    0.454819   -0.195506
   3 O :   -0.756948    0.250296
   4 O :   -0.321949    0.019948
   5 C :   -0.738177   -0.005521
   6 H :    0.290131    0.052552
   7 H :    0.318617   -0.004023
   8 H :    0.290129    0.052548
   9 H :    0.357968   -0.000060
  10 H :    0.351764    0.000366
  11 H :    0.351765    0.000366
  12 H :    0.354156   -0.115717
Sum of atomic charges         :    0.0000000

LOEWDIN ATOMIC CHARGES AND SPIN POPULATIONS
-------------------------------------------
   0 C :    0.252688    0.486563
   1 C :    0.546616    0.110163
   2 C :   -0.865889    0.086236
   3 O :    0.462714    0.183943
   4 O :    0.543796   -0.002006
   5 C :    0.341823   -0.002204
   6 H :   -0.172856    0.020299
   7 H :   -0.194319   -0.001087
   8 H :   -0.172858    0.020296
   9 H :   -0.187744   -0.000187
  10 H :   -0.181985   -0.000492
  11 H :   -0.181987   -0.000492
  12 H :   -0.189999    0.098967

  Mayer bond orders larger than 0.100000
B(  0-C ,  1-C ) :   0.7585 B(  0-C ,  2-C ) :   0.8153 B(  0-C ,  3-O ) :  -0.1686
B(  0-C , 12-H ) :   0.9153 B(  1-C ,  6-H ) :   0.9582 B(  1-C ,  7-H ) :   0.8943
B(  1-C ,  8-H ) :   0.9582 B(  2-C ,  3-O ) :   1.6403 B(  2-C ,  4-O ) :   1.0380
B(  4-O ,  5-C ) :   0.8473 B(  5-C ,  9-H ) :   0.8880 B(  5-C , 10-H ) :   0.8850
B(  5-C , 11-H ) :   0.8850

MP2 TOTAL ENERGY:     -306.493327140 Eh
FINAL SINGLE POINT ENERGY      -306.493327139692

DIPOLE MOMENT
-------------
                                X             Y             Z
Electronic contribution:     -1.62047       0.19854      -0.00002
Nuclear contribution   :      1.69859      -0.91715       0.00003
                        -----------------------------------------
Total Dipole Moment    :      0.07812      -0.71862       0.00001
                        -----------------------------------------
Magnitude (a.u.)       :      0.72285
Magnitude (Debye)      :      1.83734

Rotational constants in cm-1:     0.339848     0.072272     0.060949
Rotational constants in MHz : 10188.383718  2166.664706  1827.196599

                             ****ORCA TERMINATED NORMALLY****
TOTAL RUN TIME: 0 days 0 hours 2 minutes 11 seconds 703 msec
