                         Program Version 4.2.1 -  RELEASE  -
|  1> %pal
|  2>  nprocs 32
|  3> end
|  4> !RI-MP2 aug-cc-pVTZ aug-cc-pVTZ/C TightSCF
|  5> %maxcore 4500
|  6> *xyzfile 0 1  06_5TS.xyz
|  7>
|  8>
|  9>                          ****END OF INPUT****

CARTESIAN COORDINATES (ANGSTROEM)
---------------------------------
  C     -3.379036    1.443455   -0.355572
  C     -2.208331    0.717348   -0.484397
  C     -2.168254   -0.622335   -0.093495
  C     -3.313915   -1.211878    0.435420
  C     -4.488861   -0.484025    0.555869
  C     -4.522990    0.844427    0.160599
  H     -3.399241    2.483728   -0.655453
  H     -1.320287    1.204618   -0.870725
  H     -3.286833   -2.249252    0.749288
  H     -5.374834   -0.954660    0.963432
  H     -5.436795    1.417200    0.259340
  C     -0.958127   -1.449403   -0.241622
  C      0.144624   -1.138828   -1.075207
  C      0.525038   -0.783440    0.405319
  H     -1.040973   -2.464953    0.124215
  H      0.096158   -0.273703   -1.722673
  H      0.773994   -1.940261   -1.438401
  H      0.074897    0.054542    0.916919
  H      0.890633   -1.578797    1.038969
  B      2.123351    0.136040    0.119655
  Cl     2.654863    0.475824    1.830402
  Cl     1.710213    1.659005   -0.811531
  Cl     3.259961   -0.974275   -0.772087

 Total Charge           Charge          ....    0
 Multiplicity           Mult            ....    1
 Number of Electrons    NEL             ....  120
 Basis Dimension        Dim             ....  840

ORBITAL ENERGIES
----------------

  NO   OCC          E(Eh)            E(eV)
   0   2.0000    -104.803904     -2851.8592
   1   2.0000    -104.802289     -2851.8153
   2   2.0000    -104.799275     -2851.7332
   3   2.0000     -11.334218      -308.4198
   4   2.0000     -11.298613      -307.4509
   5   2.0000     -11.280501      -306.9580
   6   2.0000     -11.272940      -306.7523
   7   2.0000     -11.269597      -306.6613
   8   2.0000     -11.265396      -306.5470
   9   2.0000     -11.264032      -306.5099
  10   2.0000     -11.262312      -306.4631
  11   2.0000     -11.261539      -306.4421
  12   2.0000     -10.530205      -286.5414
  13   2.0000     -10.528607      -286.4980
  14   2.0000     -10.525541      -286.4145
  15   2.0000      -7.996769      -217.6031
  16   2.0000      -7.995622      -217.5719
  17   2.0000      -7.995566      -217.5704
  18   2.0000      -7.995180      -217.5599
  19   2.0000      -7.994006      -217.5280
  20   2.0000      -7.993948      -217.5264
  21   2.0000      -7.992110      -217.4764
  22   2.0000      -7.990899      -217.4434
  23   2.0000      -7.990842      -217.4419
  24   2.0000      -7.729551      -210.3318
  25   2.0000      -1.217002       -33.1163
  26   2.0000      -1.173477       -31.9319
  27   2.0000      -1.115713       -30.3601
  28   2.0000      -1.058899       -28.8141
  29   2.0000      -1.057870       -28.7861
  30   2.0000      -1.055451       -28.7203
  31   2.0000      -1.048706       -28.5367
  32   2.0000      -0.920975       -25.0610
  33   2.0000      -0.894607       -24.3435
  34   2.0000      -0.862878       -23.4801
  35   2.0000      -0.821224       -22.3466
  36   2.0000      -0.750008       -20.4088
  37   2.0000      -0.716069       -19.4852
  38   2.0000      -0.684140       -18.6164
  39   2.0000      -0.658113       -17.9082
  40   2.0000      -0.649886       -17.6843
  41   2.0000      -0.638421       -17.3723
  42   2.0000      -0.618089       -16.8191
  43   2.0000      -0.601228       -16.3602
  44   2.0000      -0.581211       -15.8155
  45   2.0000      -0.572711       -15.5843
  46   2.0000      -0.545721       -14.8498
  47   2.0000      -0.534711       -14.5502
  48   2.0000      -0.531164       -14.4537
  49   2.0000      -0.525505       -14.2997
  50   2.0000      -0.519132       -14.1263
  51   2.0000      -0.503122       -13.6906
  52   2.0000      -0.449569       -12.2334
  53   2.0000      -0.448390       -12.2013
  54   2.0000      -0.424299       -11.5458
  55   2.0000      -0.422659       -11.5011
  56   2.0000      -0.418568       -11.3898
  57   2.0000      -0.407545       -11.0899
  58   2.0000      -0.368821       -10.0361
  59   2.0000      -0.349156        -9.5010
  60   0.0000       0.014803         0.4028
  61   0.0000       0.022571         0.6142
  62   0.0000       0.029052         0.7906
  63   0.0000       0.034696         0.9441
  64   0.0000       0.039795         1.0829

MULLIKEN ATOMIC CHARGES
-----------------------
   0 C :   -1.098800
   1 C :   -0.303276
   2 C :    2.015188
   3 C :   -1.181387
   4 C :   -0.512287
   5 C :   -0.105772
   6 H :    0.414294
   7 H :    0.081992
   8 H :   -0.148048
   9 H :    0.649761
  10 H :    0.470570
  11 C :   -0.310880
  12 C :   -0.570923
  13 C :   -0.369301
  14 H :    0.058432
  15 H :    0.115273
  16 H :    0.541427
  17 H :    0.386232
  18 H :    0.461124
  19 B :    0.704168
  20 Cl:   -0.437066
  21 Cl:   -0.421629
  22 Cl:   -0.439091
Sum of atomic charges:    0.0000000

LOEWDIN ATOMIC CHARGES
----------------------
   0 C :    0.223066
   1 C :    0.230306
   2 C :   -0.084937
   3 C :    0.227227
   4 C :    0.213359
   5 C :    0.211578
   6 H :   -0.173835
   7 H :   -0.193628
   8 H :   -0.170510
   9 H :   -0.177284
  10 H :   -0.176140
  11 C :    0.171850
  12 C :    0.302095
  13 C :    0.229288
  14 H :   -0.120878
  15 H :   -0.183943
  16 H :   -0.152311
  17 H :   -0.218441
  18 H :   -0.173215
  19 B :   -2.733006
  20 Cl:    0.906908
  21 Cl:    0.923370
  22 Cl:    0.919078

  Mayer bond orders larger than 0.100000
B(  0-C ,  1-C ) :   1.1107 B(  0-C ,  3-C ) :   0.1506 B(  0-C ,  4-C ) :   0.2330
B(  0-C ,  5-C ) :   1.1081 B(  0-C ,  6-H ) :   0.8190 B(  0-C ,  7-H ) :  -0.1526
B(  0-C , 10-H ) :  -0.1720 B(  1-C ,  2-C ) :   0.5643 B(  1-C ,  3-C ) :  -0.5056
B(  1-C ,  5-C ) :  -0.1030 B(  1-C ,  7-H ) :   1.5047 B(  1-C ,  8-H ) :   0.1977
B(  1-C , 11-C ) :   0.3057 B(  1-C , 12-C ) :  -0.1250 B(  2-C ,  4-C ) :   0.1170
B(  2-C ,  7-H ) :  -0.3098 B(  2-C ,  8-H ) :  -0.3766 B(  2-C , 11-C ) :   0.3000
B(  2-C , 14-H ) :  -0.1220 B(  3-C ,  4-C ) :   1.1315 B(  3-C ,  5-C ) :  -0.1947
B(  3-C ,  7-H ) :   0.1537 B(  3-C ,  8-H ) :   2.1306 B(  3-C ,  9-H ) :  -0.2504
B(  3-C , 10-H ) :   0.2312 B(  3-C , 11-C ) :   0.3892 B(  3-C , 14-H ) :  -0.1362
B(  4-C ,  5-C ) :   1.0844 B(  4-C ,  8-H ) :  -0.1512 B(  4-C ,  9-H ) :   0.5084
B(  4-C , 10-H ) :  -0.1976 B(  4-C , 14-H ) :   0.1044 B(  5-C , 10-H ) :   0.7772
B(  5-C , 11-C ) :   0.1201 B(  7-H ,  8-H ) :   0.1944 B(  8-H , 11-C ) :  -0.2253
B(  8-H , 14-H ) :  -0.1125 B( 11-C , 12-C ) :   0.9547 B( 11-C , 13-C ) :   0.4715
B( 11-C , 14-H ) :   1.2508 B( 11-C , 16-H ) :  -0.1387 B( 12-C , 13-C ) :   0.6494
B( 12-C , 14-H ) :  -0.1324 B( 12-C , 15-H ) :   1.1423 B( 12-C , 16-H ) :   0.6792
B( 13-C , 17-H ) :   0.9233 B( 13-C , 18-H ) :   0.7349 B( 13-C , 19-B ) :   0.6192
B( 19-B , 20-Cl) :   0.8597 B( 19-B , 21-Cl) :   0.8428 B( 19-B , 22-Cl) :   0.8098

MP2 TOTAL ENERGY:    -1752.231213970 Eh
FINAL SINGLE POINT ENERGY     -1752.231213970285

DIPOLE MOMENT
-------------
                                X             Y             Z
Electronic contribution:     26.23645       4.60516       0.80818
Nuclear contribution   :    -29.34375      -5.81407      -1.03858
                        -----------------------------------------
Total Dipole Moment    :     -3.10730      -1.20891      -0.23040
                        -----------------------------------------
Magnitude (a.u.)       :      3.34214
Magnitude (Debye)      :      8.49503

Rotational constants in cm-1:     0.035044     0.008655     0.008312
Rotational constants in MHz :  1050.599282   259.485071   249.189414

                             ****ORCA TERMINATED NORMALLY****
TOTAL RUN TIME: 0 days 0 hours 11 minutes 57 seconds 430 msec
