                         Program Version 4.2.1 -  RELEASE  -
|  1> %pal
|  2>  nprocs 32
|  3> end
|  4> !RI-MP2 aug-cc-pVTZ aug-cc-pVTZ/C TightSCF
|  5> %maxcore 4500
|  6> *xyzfile 0 2  01_7P.xyz
|  7>
|  8>
|  9>                          ****END OF INPUT****

CARTESIAN COORDINATES (ANGSTROEM)
---------------------------------
  C     -0.006804    1.198890    0.132139
  C     -1.476971    0.766543   -0.015593
  C     -1.460475   -0.783436   -0.051090
  C     -0.001144   -1.186244    0.197931
  C      0.818638   -0.003272   -0.362991
  C      2.240990    0.013929    0.049972
  H     -1.904989    1.164910   -0.937597
  H     -2.087667    1.150163    0.803287
  H     -1.783055   -1.141680   -1.031438
  H     -2.136512   -1.224353    0.683193
  H      0.268443   -2.139259   -0.260126
  H      0.197806   -1.270671    1.271245
  H      2.497834    0.186886    1.089433
  H      3.043432   -0.213080   -0.638942
  H      0.235827    1.374859    1.185101
  H      0.227542    2.116553   -0.409566
  H      0.755935   -0.042792   -1.456792

 Total Charge           Charge          ....    0
 Multiplicity           Mult            ....    2
 Number of Electrons    NEL             ....   47
 Basis Dimension        Dim             ....  529

ORBITAL ENERGIES
----------------
                 SPIN UP ORBITALS
  NO   OCC          E(Eh)            E(eV)
   0   1.0000     -11.223973      -305.4198
   1   1.0000     -11.220731      -305.3316
   2   1.0000     -11.213994      -305.1483
   3   1.0000     -11.213328      -305.1302
   4   1.0000     -11.212813      -305.1161
   5   1.0000     -11.212298      -305.1021
   6   1.0000      -1.126702       -30.6591
   7   1.0000      -1.009374       -27.4665
   8   1.0000      -0.960187       -26.1280
   9   1.0000      -0.886679       -24.1278
  10   1.0000      -0.772669       -21.0254
  11   1.0000      -0.760873       -20.7044
  12   1.0000      -0.655110       -17.8265
  13   1.0000      -0.629816       -17.1382
  14   1.0000      -0.601364       -16.3639
  15   1.0000      -0.570637       -15.5278
  16   1.0000      -0.538659       -14.6577
  17   1.0000      -0.495311       -13.4781
  18   1.0000      -0.484055       -13.1718
  19   1.0000      -0.476211       -12.9584
  20   1.0000      -0.468152       -12.7391
  21   1.0000      -0.454277       -12.3615
  22   1.0000      -0.449907       -12.2426
  23   1.0000      -0.337701        -9.1893
  24   0.0000       0.031205         0.8491
  25   0.0000       0.036352         0.9892
  26   0.0000       0.037587         1.0228
  27   0.0000       0.039202         1.0667
  28   0.0000       0.054023         1.4700

                 SPIN DOWN ORBITALS
  NO   OCC          E(Eh)            E(eV)
   0   1.0000     -11.224028      -305.4213
   1   1.0000     -11.212936      -305.1195
   2   1.0000     -11.212427      -305.1056
   3   1.0000     -11.211568      -305.0823
   4   1.0000     -11.211441      -305.0788
   5   1.0000     -11.200745      -304.7878
   6   1.0000      -1.120343       -30.4861
   7   1.0000      -0.983791       -26.7703
   8   1.0000      -0.956156       -26.0183
   9   1.0000      -0.840691       -22.8764
  10   1.0000      -0.768562       -20.9136
  11   1.0000      -0.749706       -20.4005
  12   1.0000      -0.652933       -17.7672
  13   1.0000      -0.625624       -17.0241
  14   1.0000      -0.594553       -16.1786
  15   1.0000      -0.568206       -15.4617
  16   1.0000      -0.531164       -14.4537
  17   1.0000      -0.475662       -12.9434
  18   1.0000      -0.474262       -12.9053
  19   1.0000      -0.466820       -12.7028
  20   1.0000      -0.463171       -12.6035
  21   1.0000      -0.451905       -12.2970
  22   1.0000      -0.448901       -12.2152
  23   0.0000       0.031545         0.8584
  24   0.0000       0.036457         0.9921
  25   0.0000       0.037824         1.0292
  26   0.0000       0.038217         1.0399
  27   0.0000       0.054008         1.4696

MULLIKEN ATOMIC CHARGES AND SPIN POPULATIONS
--------------------------------------------
   0 C :   -0.675378    0.052001
   1 C :   -0.610419    0.001757
   2 C :   -0.540821    0.005060
   3 C :   -0.714149    0.066924
   4 C :    0.713134   -0.206450
   5 C :   -1.248817    1.242120
   6 H :    0.208166   -0.000122
   7 H :    0.302649    0.001411
   8 H :    0.169687   -0.000322
   9 H :    0.338653    0.002591
  10 H :    0.378744   -0.015673
  11 H :    0.130593    0.000235
  12 H :    0.354325   -0.063637
  13 H :    0.310461   -0.081396
  14 H :    0.133409    0.000702
  15 H :    0.381803   -0.009338
  16 H :    0.367961    0.004139
Sum of atomic charges         :   -0.0000000

LOEWDIN ATOMIC CHARGES AND SPIN POPULATIONS
-------------------------------------------
   0 C :    0.294430    0.023350
   1 C :    0.316343    0.003334
   2 C :    0.310353    0.006183
   3 C :    0.293631    0.033980
   4 C :   -0.083014    0.114530
   5 C :    0.610612    0.559333
   6 H :   -0.151625    0.000190
   7 H :   -0.150853    0.000929
   8 H :   -0.150497    0.000478
   9 H :   -0.149427    0.001683
  10 H :   -0.138904    0.003504
  11 H :   -0.143164    0.004393
  12 H :   -0.213483    0.117402
  13 H :   -0.221313    0.124194
  14 H :   -0.147157    0.001958
  15 H :   -0.139753    0.003054
  16 H :   -0.136177    0.001506

  Mayer bond orders larger than 0.100000
B(  0-C ,  1-C ) :   1.0319 B(  0-C ,  3-C ) :   0.1450 B(  0-C ,  4-C ) :   0.7647
B(  0-C , 14-H ) :   1.1145 B(  0-C , 15-H ) :   0.8337 B(  1-C ,  2-C ) :   0.9918
B(  1-C ,  3-C ) :   0.1062 B(  1-C ,  6-H ) :   1.0195 B(  1-C ,  7-H ) :   0.9100
B(  2-C ,  3-C ) :   1.0038 B(  2-C ,  8-H ) :   1.0495 B(  2-C ,  9-H ) :   0.8690
B(  3-C ,  4-C ) :   0.7916 B(  3-C , 10-H ) :   0.8602 B(  3-C , 11-H ) :   1.1040
B(  4-C ,  5-C ) :   0.3326 B(  4-C , 16-H ) :   0.9197 B(  5-C , 12-H ) :   0.9677
B(  5-C , 13-H ) :   0.9335

MP2 TOTAL ENERGY:     -234.667343766 Eh
FINAL SINGLE POINT ENERGY      -234.667343766011

DIPOLE MOMENT
-------------
                                X             Y             Z
Electronic contribution:      0.63943       0.01408      -0.34854
Nuclear contribution   :     -0.72757      -0.04083       0.31612
                        -----------------------------------------
Total Dipole Moment    :     -0.08814      -0.02675      -0.03242
                        -----------------------------------------
Magnitude (a.u.)       :      0.09765
Magnitude (Debye)      :      0.24820

Rotational constants in cm-1:     0.212580     0.102231     0.076858
Rotational constants in MHz :  6372.996784  3064.809894  2304.141869

                             ****ORCA TERMINATED NORMALLY****
TOTAL RUN TIME: 0 days 0 hours 3 minutes 30 seconds 968 msec
