                         Program Version 4.2.1 -  RELEASE  -
|  1> %pal
|  2>  nprocs 32
|  3> end
|  4> !RI-MP2 aug-cc-pVTZ aug-cc-pVTZ/C TightSCF
|  5> %maxcore 4500
|  6> *xyzfile 0 1  02_21P.xyz
|  7>
|  8>
|  9>                          ****END OF INPUT****

CARTESIAN COORDINATES (ANGSTROEM)
---------------------------------
  C      1.611647    0.479412    0.760956
  C      0.601292   -0.674827    0.682342
  C     -0.844876   -0.250696    0.950770
  C     -1.282299    1.037357    0.215349
  C      1.114008    1.692473    0.023105
  C     -0.165190    1.920054   -0.242684
  C      0.918481   -1.257945   -0.703263
  C      2.818823   -0.150725    0.075009
  O      2.290686   -0.971432   -0.961004
  H      0.313590   -0.799204   -1.489943
  H      0.772721   -2.339384   -0.744946
  H      3.391744   -0.764139    0.781190
  H      3.492751    0.580585   -0.375198
  C     -1.904436   -1.284687    0.502381
  O     -2.874610   -0.585713   -0.267739
  C     -2.217892    0.510196   -0.875779
  H     -1.453199   -2.076684   -0.105513
  H     -2.426604   -1.753567    1.336165
  H     -1.654123    0.187636   -1.761146
  H     -2.977887    1.226249   -1.187989
  H     -0.444799    2.814728   -0.791967
  H      1.864124    2.402125   -0.313662
  H      1.853387    0.741369    1.796030
  H      0.881677   -1.423013    1.430585
  H     -1.907583    1.617974    0.901626
  H     -0.931752   -0.081189    2.025601

 Total Charge           Charge          ....    0
 Multiplicity           Mult            ....    1
 Number of Electrons    NEL             ....   90
 Basis Dimension        Dim             ....  874

ORBITAL ENERGIES
----------------

  NO   OCC          E(Eh)            E(eV)
   0   2.0000     -20.554540      -559.3175
   1   2.0000     -20.548677      -559.1579
   2   2.0000     -11.274544      -306.7960
   3   2.0000     -11.273560      -306.7692
   4   2.0000     -11.273556      -306.7690
   5   2.0000     -11.270884      -306.6963
   6   2.0000     -11.237650      -305.7920
   7   2.0000     -11.237442      -305.7863
   8   2.0000     -11.236478      -305.7601
   9   2.0000     -11.235919      -305.7449
  10   2.0000     -11.232570      -305.6538
  11   2.0000     -11.230475      -305.5968
  12   2.0000      -1.381786       -37.6003
  13   2.0000      -1.373668       -37.3794
  14   2.0000      -1.142022       -31.0760
  15   2.0000      -1.052086       -28.6287
  16   2.0000      -1.050162       -28.5763
  17   2.0000      -0.979004       -26.6400
  18   2.0000      -0.978221       -26.6187
  19   2.0000      -0.849541       -23.1172
  20   2.0000      -0.841264       -22.8920
  21   2.0000      -0.819021       -22.2867
  22   2.0000      -0.787326       -21.4242
  23   2.0000      -0.713228       -19.4079
  24   2.0000      -0.700378       -19.0583
  25   2.0000      -0.678490       -18.4626
  26   2.0000      -0.672609       -18.3026
  27   2.0000      -0.648181       -17.6379
  28   2.0000      -0.625053       -17.0086
  29   2.0000      -0.623424       -16.9642
  30   2.0000      -0.588138       -16.0040
  31   2.0000      -0.582847       -15.8601
  32   2.0000      -0.578989       -15.7551
  33   2.0000      -0.549420       -14.9505
  34   2.0000      -0.534405       -14.5419
  35   2.0000      -0.523714       -14.2510
  36   2.0000      -0.517809       -14.0903
  37   2.0000      -0.496730       -13.5167
  38   2.0000      -0.478540       -13.0217
  39   2.0000      -0.458509       -12.4767
  40   2.0000      -0.447501       -12.1771
  41   2.0000      -0.436007       -11.8643
  42   2.0000      -0.421596       -11.4722
  43   2.0000      -0.412071       -11.2130
  44   2.0000      -0.356287        -9.6950
  45   0.0000       0.024365         0.6630
  46   0.0000       0.030702         0.8354
  47   0.0000       0.033016         0.8984
  48   0.0000       0.036574         0.9952
  49   0.0000       0.044768         1.2182

MULLIKEN ATOMIC CHARGES
-----------------------
   0 C :   -0.014979
   1 C :    0.132338
   2 C :   -0.034142
   3 C :    0.173167
   4 C :   -0.511475
   5 C :   -0.861084
   6 C :   -0.273809
   7 C :   -0.513810
   8 O :   -0.853291
   9 H :    0.348828
  10 H :    0.274187
  11 H :    0.244783
  12 H :    0.357180
  13 C :   -0.421238
  14 O :   -0.830911
  15 C :   -0.192490
  16 H :    0.276059
  17 H :    0.254338
  18 H :    0.291502
  19 H :    0.318429
  20 H :    0.319635
  21 H :    0.408923
  22 H :    0.261922
  23 H :    0.446635
  24 H :    0.347995
  25 H :    0.051306
Sum of atomic charges:   -0.0000000

LOEWDIN ATOMIC CHARGES
----------------------
   0 C :   -0.009143
   1 C :    0.019521
   2 C :    0.059634
   3 C :   -0.006359
   4 C :    0.258487
   5 C :    0.261344
   6 C :    0.069578
   7 C :    0.060522
   8 O :    0.591298
   9 H :   -0.165406
  10 H :   -0.147246
  11 H :   -0.142423
  12 H :   -0.154200
  13 C :    0.093457
  14 O :    0.581276
  15 C :    0.059159
  16 H :   -0.164633
  17 H :   -0.146185
  18 H :   -0.152550
  19 H :   -0.144241
  20 H :   -0.166884
  21 H :   -0.170969
  22 H :   -0.116051
  23 H :   -0.115516
  24 H :   -0.128321
  25 H :   -0.124149

  Mayer bond orders larger than 0.100000
B(  0-C ,  1-C ) :   0.9379 B(  0-C ,  4-C ) :   0.6705 B(  0-C ,  7-C ) :   1.2267
B(  0-C , 22-H ) :   1.0039 B(  0-C , 23-H ) :  -0.1292 B(  1-C ,  2-C ) :   0.8511
B(  1-C ,  3-C ) :   0.1056 B(  1-C ,  5-C ) :   0.1192 B(  1-C ,  6-C ) :   0.8055
B(  1-C ,  8-O ) :   0.1001 B(  1-C , 23-H ) :   0.8368 B(  1-C , 25-H ) :  -0.1242
B(  2-C ,  3-C ) :   0.9930 B(  2-C ,  5-C ) :   0.1529 B(  2-C , 13-C ) :   0.8386
B(  2-C , 25-H ) :   1.0436 B(  3-C ,  5-C ) :   0.7056 B(  3-C , 14-O ) :   0.1906
B(  3-C , 15-C ) :   0.8740 B(  3-C , 24-H ) :   0.8781 B(  4-C ,  5-C ) :   1.7072
B(  4-C , 21-H ) :   0.7714 B(  5-C , 20-H ) :   1.0091 B(  5-C , 24-H ) :  -0.1202
B(  6-C ,  7-C ) :   0.1472 B(  6-C ,  8-O ) :   0.6375 B(  6-C ,  9-H ) :   0.9495
B(  6-C , 10-H ) :   0.9933 B(  7-C ,  8-O ) :   0.8442 B(  7-C , 11-H ) :   1.0277
B(  7-C , 12-H ) :   0.9509 B( 13-C , 14-O ) :   0.7888 B( 13-C , 16-H ) :   0.9734
B( 13-C , 17-H ) :   1.0540 B( 14-O , 15-C ) :   0.7075 B( 15-C , 18-H ) :   0.9567
B( 15-C , 19-H ) :   0.9948

MP2 TOTAL ENERGY:     -538.859310203 Eh
FINAL SINGLE POINT ENERGY      -538.859310203170

DIPOLE MOMENT
-------------
                                X             Y             Z
Electronic contribution:     -0.55189       0.10842      -0.75129
Nuclear contribution   :      0.77776       0.31416       1.50648
                        -----------------------------------------
Total Dipole Moment    :      0.22586       0.42257       0.75518
                        -----------------------------------------
Magnitude (a.u.)       :      0.89436
Magnitude (Debye)      :      2.27328

Rotational constants in cm-1:     0.060585     0.026343     0.022209
Rotational constants in MHz :  1816.284709   789.752054   665.820014

                             ****ORCA TERMINATED NORMALLY****
TOTAL RUN TIME: 0 days 0 hours 12 minutes 49 seconds 968 msec
