                         Program Version 4.2.1 -  RELEASE  -
|  1> %pal
|  2>  nprocs 32
|  3> end
|  4> !RI-MP2 aug-cc-pVTZ aug-cc-pVTZ/C TightSCF
|  5> %maxcore 4500
|  6> *xyzfile 0 1  10_20TS.xyz
|  7>
|  8>
|  9>                          ****END OF INPUT****

CARTESIAN COORDINATES (ANGSTROEM)
---------------------------------
  C     -3.804634   -1.954070   -0.868013
  C     -2.734229   -1.102665   -0.644025
  C     -2.919142    0.116835    0.014518
  C     -4.201629    0.435888    0.464105
  C     -5.270224   -0.419934    0.245314
  C     -5.078456   -1.618459   -0.427682
  H     -3.638987   -2.896070   -1.377642
  H     -1.738177   -1.398689   -0.947351
  H     -4.361216    1.371008    0.989550
  H     -6.256845   -0.148687    0.602084
  H     -5.911291   -2.289486   -0.598960
  C     -1.808601    1.052885    0.273116
  H     -2.083367    1.925157    0.850949
  C     -0.797486    1.216347   -0.679060
  H     -0.795528    0.578044   -1.551433
  C      1.155823    2.198066   -1.730185
  C      0.420463    3.028898    0.458405
  C      2.536376    1.854605   -1.176583
  H      1.167322    3.204956   -2.164087
  H      0.861974    1.504089   -2.517132
  C      1.780898    2.692250    1.065622
  H      0.411772    4.068225    0.109953
  H     -0.366398    2.916801    1.198621
  C      2.881944    2.752255    0.009365
  H      3.275330    1.963915   -1.974478
  H      2.547227    0.807950   -0.865552
  H      1.985107    3.389168    1.882143
  H      1.736545    1.690449    1.499865
  H      3.838435    2.452442    0.442350
  H      3.000401    3.786975   -0.334916
  N      0.137873    2.166429   -0.684964
  N      0.413153   -0.751664    0.310403
  N     -0.017109   -0.453736    1.478117
  N     -0.880198    0.249461    1.864980
  C      1.586576   -1.510177    0.236069
  C      2.407834   -1.809647    1.327062
  C      1.968451   -1.945904   -1.034980
  C      3.577775   -2.528553    1.139884
  C      3.142624   -2.659131   -1.211514
  C      3.957468   -2.956059   -0.126300
  H      2.117578   -1.479536    2.316499
  H      4.201864   -2.755848    1.996468
  H      4.874062   -3.515565   -0.264486
  H      3.420972   -2.990346   -2.205190
  H      1.326212   -1.718970   -1.877716

 Total Charge           Charge          ....    0
 Multiplicity           Mult            ....    1
 Number of Electrons    NEL             ....  164
 Basis Dimension        Dim             .... 1564

ORBITAL ENERGIES
----------------

  NO   OCC          E(Eh)            E(eV)
   0   2.0000     -15.684058      -426.7849
   1   2.0000     -15.643164      -425.6721
   2   2.0000     -15.610656      -424.7876
   3   2.0000     -15.569033      -423.6549
   4   2.0000     -11.321933      -308.0855
   5   2.0000     -11.279171      -306.9219
   6   2.0000     -11.276318      -306.8442
   7   2.0000     -11.265619      -306.5531
   8   2.0000     -11.238407      -305.8126
   9   2.0000     -11.233368      -305.6755
  10   2.0000     -11.232132      -305.6419
  11   2.0000     -11.230934      -305.6093
  12   2.0000     -11.229786      -305.5780
  13   2.0000     -11.229261      -305.5637
  14   2.0000     -11.228994      -305.5564
  15   2.0000     -11.225356      -305.4575
  16   2.0000     -11.224682      -305.4391
  17   2.0000     -11.220677      -305.3301
  18   2.0000     -11.219295      -305.2925
  19   2.0000     -11.218660      -305.2753
  20   2.0000     -11.217532      -305.2446
  21   2.0000     -11.217132      -305.2337
  22   2.0000     -11.216911      -305.2277
  23   2.0000      -1.437075       -39.1048
  24   2.0000      -1.301805       -35.4239
  25   2.0000      -1.222260       -33.2594
  26   2.0000      -1.151884       -31.3443
  27   2.0000      -1.133138       -30.8343
  28   2.0000      -1.106117       -30.0990
  29   2.0000      -1.059514       -28.8308
  30   2.0000      -1.044825       -28.4311
  31   2.0000      -1.010827       -27.5060
  32   2.0000      -1.006682       -27.3932
  33   2.0000      -1.001542       -27.2533
  34   2.0000      -0.988824       -26.9073
  35   2.0000      -0.917770       -24.9738
  36   2.0000      -0.878352       -23.9012
  37   2.0000      -0.853145       -23.2153
  38   2.0000      -0.836974       -22.7752
  39   2.0000      -0.819718       -22.3057
  40   2.0000      -0.818118       -22.2621
  41   2.0000      -0.793611       -21.5953
  42   2.0000      -0.764055       -20.7910
  43   2.0000      -0.745504       -20.2862
  44   2.0000      -0.717855       -19.5338
  45   2.0000      -0.703092       -19.1321
  46   2.0000      -0.696528       -18.9535
  47   2.0000      -0.664381       -18.0787
  48   2.0000      -0.660800       -17.9813
  49   2.0000      -0.645139       -17.5551
  50   2.0000      -0.641617       -17.4593
  51   2.0000      -0.633885       -17.2489
  52   2.0000      -0.626801       -17.0561
  53   2.0000      -0.624536       -16.9945
  54   2.0000      -0.615151       -16.7391
  55   2.0000      -0.608787       -16.5659
  56   2.0000      -0.597625       -16.2622
  57   2.0000      -0.592078       -16.1113
  58   2.0000      -0.583924       -15.8894
  59   2.0000      -0.577301       -15.7092
  60   2.0000      -0.575295       -15.6546
  61   2.0000      -0.571138       -15.5415
  62   2.0000      -0.550524       -14.9805
  63   2.0000      -0.539853       -14.6902
  64   2.0000      -0.516994       -14.0681
  65   2.0000      -0.513576       -13.9751
  66   2.0000      -0.511531       -13.9195
  67   2.0000      -0.505504       -13.7555
  68   2.0000      -0.497069       -13.5259
  69   2.0000      -0.490775       -13.3547
  70   2.0000      -0.487768       -13.2728
  71   2.0000      -0.480852       -13.0846
  72   2.0000      -0.475074       -12.9274
  73   2.0000      -0.469053       -12.7636
  74   2.0000      -0.445007       -12.1092
  75   2.0000      -0.421939       -11.4815
  76   2.0000      -0.403552       -10.9812
  77   2.0000      -0.355103        -9.6628
  78   2.0000      -0.333859        -9.0848
  79   2.0000      -0.329309        -8.9610
  80   2.0000      -0.281987        -7.6732
  81   2.0000      -0.266413        -7.2495
  82   0.0000       0.019690         0.5358
  83   0.0000       0.026797         0.7292
  84   0.0000       0.029093         0.7917
  85   0.0000       0.030717         0.8359
  86   0.0000       0.036928         1.0049

MULLIKEN ATOMIC CHARGES
-----------------------
   0 C :   -1.282644
   1 C :   -0.333894
   2 C :    1.780327
   3 C :   -1.119138
   4 C :   -0.646614
   5 C :   -0.102193
   6 H :    0.388912
   7 H :    0.398747
   8 H :   -0.352990
   9 H :    0.611399
  10 H :    0.514505
  11 C :    0.367681
  12 H :    0.134070
  13 C :    0.399143
  14 H :    0.833335
  15 C :   -0.967791
  16 C :   -1.028462
  17 C :   -0.620535
  18 H :    0.276159
  19 H :    0.120219
  20 C :   -0.534089
  21 H :    0.292612
  22 H :    0.339655
  23 C :   -0.592123
  24 H :    0.274618
  25 H :    0.606512
  26 H :    0.309378
  27 H :    0.417853
  28 H :    0.276541
  29 H :    0.101374
  30 N :   -0.382854
  31 N :    0.314916
  32 N :    0.240068
  33 N :   -0.996330
  34 C :    0.867435
  35 C :   -0.786001
  36 C :   -0.570046
  37 C :   -0.510695
  38 C :   -0.797492
  39 C :   -0.331144
  40 H :    0.482474
  41 H :    0.394371
  42 H :    0.569299
  43 H :    0.273656
  44 H :    0.369774
Sum of atomic charges:   -0.0000000

LOEWDIN ATOMIC CHARGES
----------------------
   0 C :    0.199101
   1 C :    0.209107
   2 C :   -0.148370
   3 C :    0.213397
   4 C :    0.191906
   5 C :    0.188047
   6 H :   -0.181820
   7 H :   -0.210613
   8 H :   -0.178765
   9 H :   -0.183068
  10 H :   -0.188700
  11 C :    0.038663
  12 H :   -0.216178
  13 C :    0.101068
  14 H :   -0.162657
  15 C :    0.231255
  16 C :    0.233741
  17 C :    0.317583
  18 H :   -0.123077
  19 H :   -0.140055
  20 C :    0.314348
  21 H :   -0.118959
  22 H :   -0.171966
  23 C :    0.303819
  24 H :   -0.129997
  25 H :   -0.171272
  26 H :   -0.131372
  27 H :   -0.153539
  28 H :   -0.135559
  29 H :   -0.137800
  30 N :    0.306763
  31 N :    0.214211
  32 N :   -0.148785
  33 N :    0.346236
  34 C :   -0.354736
  35 C :    0.197220
  36 C :    0.176527
  37 C :    0.181278
  38 C :    0.180627
  39 C :    0.181306
  40 H :   -0.199323
  41 H :   -0.181923
  42 H :   -0.192852
  43 H :   -0.182496
  44 H :   -0.182323

  Mayer bond orders larger than 0.100000
B(  0-C ,  1-C ) :   0.9856 B(  0-C ,  3-C ) :   0.2089 B(  0-C ,  4-C ) :   0.2431
B(  0-C ,  5-C ) :   1.1320 B(  0-C ,  6-H ) :   0.8674 B(  0-C ,  7-H ) :  -0.2290
B(  0-C , 10-H ) :  -0.1878 B(  0-C , 11-C ) :   0.1851 B(  1-C ,  2-C ) :   0.7863
B(  1-C ,  3-C ) :  -0.8813 B(  1-C ,  5-C ) :  -0.1493 B(  1-C ,  7-H ) :   1.1285
B(  1-C ,  8-H ) :   0.2240 B(  1-C , 10-H ) :  -0.1136 B(  1-C , 11-C ) :   0.1847
B(  1-C , 31-N ) :   0.1057 B(  1-C , 32-N ) :  -0.1298 B(  2-C ,  3-C ) :  -0.2876
B(  2-C ,  4-C ) :   0.1440 B(  2-C ,  7-H ) :  -0.2012 B(  2-C ,  8-H ) :  -0.5521
B(  2-C , 11-C ) :   0.5338 B(  2-C , 12-H ) :  -0.2352 B(  2-C , 13-C ) :   0.2685
B(  2-C , 32-N ) :   0.1035 B(  3-C ,  4-C ) :   1.0625 B(  3-C ,  5-C ) :  -0.1877
B(  3-C ,  8-H ) :   2.4496 B(  3-C ,  9-H ) :  -0.2443 B(  3-C , 10-H ) :   0.2238
B(  3-C , 11-C ) :   0.5936 B(  3-C , 12-H ) :  -0.1106 B(  4-C ,  5-C ) :   1.1020
B(  4-C ,  8-H ) :  -0.1858 B(  4-C ,  9-H ) :   0.4985 B(  4-C , 10-H ) :  -0.2194
B(  4-C , 12-H ) :   0.1019 B(  5-C ,  7-H ) :  -0.1063 B(  5-C , 10-H ) :   0.7078
B(  7-H ,  8-H ) :   0.2780 B(  8-H , 11-C ) :  -0.3051 B(  8-H , 12-H ) :  -0.1564
B( 11-C , 12-H ) :   1.1341 B( 11-C , 13-C ) :   0.8877 B( 11-C , 16-C ) :  -0.2611
B( 11-C , 22-H ) :  -0.1196 B( 11-C , 30-N ) :  -0.5617 B( 11-C , 32-N ) :   0.2046
B( 12-H , 33-N ) :   0.1274 B( 13-C , 14-H ) :   0.4752 B( 13-C , 15-C ) :  -0.5380
B( 13-C , 16-C ) :  -0.1746 B( 13-C , 19-H ) :  -0.1613 B( 13-C , 30-N ) :   0.9115
B( 13-C , 33-N ) :   0.1283 B( 14-H , 15-C ) :  -0.1045 B( 14-H , 30-N ) :  -0.4354
B( 15-C , 16-C ) :   0.1584 B( 15-C , 17-C ) :   0.8700 B( 15-C , 18-H ) :   1.0396
B( 15-C , 19-H ) :   1.1514 B( 15-C , 23-C ) :   0.1631 B( 15-C , 30-N ) :   1.2756
B( 16-C , 20-C ) :   0.9059 B( 16-C , 21-H ) :   0.9940 B( 16-C , 22-H ) :   1.0161
B( 16-C , 23-C ) :   0.1611 B( 16-C , 30-N ) :   1.2401 B( 17-C , 23-C ) :   0.8610
B( 17-C , 24-H ) :   0.9423 B( 17-C , 25-H ) :   0.7096 B( 20-C , 23-C ) :   0.8610
B( 20-C , 26-H ) :   0.9103 B( 20-C , 27-H ) :   0.9072 B( 23-C , 28-H ) :   0.9555
B( 23-C , 29-H ) :   1.0984 B( 23-C , 30-N ) :  -0.1285 B( 30-N , 31-N ) :  -0.1869
B( 30-N , 33-N ) :   0.1126 B( 31-N , 32-N ) :   1.5689 B( 31-N , 33-N ) :   0.5490
B( 31-N , 34-C ) :   1.0162 B( 31-N , 35-C ) :  -0.9678 B( 31-N , 36-C ) :  -0.4646
B( 31-N , 37-C ) :   0.1572 B( 31-N , 38-C ) :   0.1156 B( 32-N , 33-N ) :   0.2906
B( 32-N , 40-H ) :  -0.3030 B( 33-N , 36-C ) :   0.1046 B( 34-C , 35-C ) :   0.6032
B( 34-C , 36-C ) :   0.7049 B( 34-C , 37-C ) :  -0.2953 B( 34-C , 38-C ) :  -0.1628
B( 35-C , 36-C ) :   0.2117 B( 35-C , 37-C ) :   1.3014 B( 35-C , 39-C ) :   0.1918
B( 35-C , 40-H ) :   0.8977 B( 36-C , 38-C ) :   1.1460 B( 36-C , 39-C ) :   0.2115
B( 36-C , 44-H ) :   0.8012 B( 37-C , 38-C ) :  -0.1831 B( 37-C , 39-C ) :   1.1696
B( 37-C , 41-H ) :   0.8862 B( 38-C , 39-C ) :   1.2500 B( 38-C , 43-H ) :   1.1542
B( 38-C , 44-H ) :  -0.1367 B( 39-C , 41-H ) :  -0.1211 B( 39-C , 42-H ) :   0.6168
B( 39-C , 43-H ) :  -0.1042

MP2 TOTAL ENERGY:     -954.255385760 Eh
FINAL SINGLE POINT ENERGY      -954.255385759575

DIPOLE MOMENT
-------------
                                X             Y             Z
Electronic contribution:     -8.95992      -9.00392       3.96804
Nuclear contribution   :      9.66086      10.52747      -4.79782
                        -----------------------------------------
Total Dipole Moment    :      0.70094       1.52355      -0.82978
                        -----------------------------------------
Magnitude (a.u.)       :      1.87111
Magnitude (Debye)      :      4.75598

Rotational constants in cm-1:     0.012013     0.006369     0.004883
Rotational constants in MHz :   360.130793   190.940758   146.394865

                             ****ORCA TERMINATED NORMALLY****
TOTAL RUN TIME: 0 days 1 hours 35 minutes 36 seconds 128 msec
