                         Program Version 4.2.1 -  RELEASE  -
|  1> %pal
|  2>  nprocs 32
|  3> end
|  4> !RI-MP2 aug-cc-pVTZ aug-cc-pVTZ/C TightSCF
|  5> %maxcore 4500
|  6> *xyzfile -1 1  08_3R2.xyz
|  7>
|  8>
|  9>                          ****END OF INPUT****

CARTESIAN COORDINATES (ANGSTROEM)
---------------------------------
  O      0.000000    0.000000    0.107075
  H      0.000000    0.000000   -0.856597

 Total Charge           Charge          ....   -1
 Multiplicity           Mult            ....    1
 Number of Electrons    NEL             ....   10
 Basis Dimension        Dim             ....   69

ORBITAL ENERGIES
----------------

  NO   OCC          E(Eh)            E(eV)
   0   2.0000     -20.186866      -549.3125
   1   2.0000      -0.902868       -24.5683
   2   2.0000      -0.251591        -6.8461
   3   2.0000      -0.108871        -2.9625
   4   2.0000      -0.108871        -2.9625
   5   0.0000       0.178669         4.8618
   6   0.0000       0.329160         8.9569
   7   0.0000       0.370073        10.0702
   8   0.0000       0.370073        10.0702
   9   0.0000       0.399041        10.8585

MULLIKEN ATOMIC CHARGES
-----------------------
   0 O :   -1.089872
   1 H :    0.089872
Sum of atomic charges:   -1.0000000

LOEWDIN ATOMIC CHARGES
----------------------
   0 O :    0.036665
   1 H :   -1.036665

  Mayer bond orders larger than 0.100000
B(  0-O ,  1-H ) :   1.1624

MP2 TOTAL ENERGY:      -75.702255361 Eh
FINAL SINGLE POINT ENERGY       -75.702255360530

DIPOLE MOMENT
-------------
                                X             Y             Z
Electronic contribution:     -0.00000       0.00000       0.35424
Nuclear contribution   :      0.00000       0.00000      -0.84966
                        -----------------------------------------
Total Dipole Moment    :     -0.00000       0.00000      -0.49543
                        -----------------------------------------
Magnitude (a.u.)       :      0.49543
Magnitude (Debye)      :      1.25927

Rotational constants in cm-1:     0.000000    19.143122    19.143122
Rotational constants in MHz :     0.000000 573896.351978 573896.351978

                             ****ORCA TERMINATED NORMALLY****
TOTAL RUN TIME: 0 days 0 hours 0 minutes 9 seconds 230 msec
