                         Program Version 4.2.1 -  RELEASE  -
|  1> %pal
|  2>  nprocs 32
|  3> end
|  4> !RI-MP2 aug-cc-pVTZ aug-cc-pVTZ/C TightSCF
|  5> %maxcore 4500
|  6> *xyzfile 0 1  07_5R.xyz
|  7>
|  8>
|  9>                          ****END OF INPUT****

CARTESIAN COORDINATES (ANGSTROEM)
---------------------------------
  C     -2.213986   -1.203885   -0.333360
  C     -3.565481   -0.911798   -0.414154
  C     -4.044454    0.331828   -0.016588
  C     -3.147538    1.285128    0.446950
  C     -1.788604    1.010047    0.490426
  C     -1.290355   -0.241691    0.098845
  H     -1.849725   -2.187778   -0.604558
  H     -4.256302   -1.667887   -0.770291
  H     -5.104784    0.549991   -0.057608
  H     -3.508145    2.256024    0.768617
  H     -1.095838    1.762897    0.848955
  C      0.128714   -0.563614    0.163929
  C      0.973926    0.254547   -0.493646
  H      0.730874    1.109924   -1.137236
  H      3.196946   -0.855607   -1.454233
  P      2.673589   -0.145144   -0.352329
  C      3.004636   -1.191317    1.071456
  H      2.871834   -0.603408    1.979327
  H      2.250720   -1.977752    1.072716
  H      4.015558   -1.597320    1.025315
  C      3.742096    1.317192   -0.279317
  H      3.563329    1.941359   -1.155616
  H      3.493119    1.892520    0.612827
  H      4.794836    1.035588   -0.250524

 Total Charge           Charge          ....    0
 Multiplicity           Mult            ....    1
 Number of Electrons    NEL             ....   88
 Basis Dimension        Dim             ....  809

ORBITAL ENERGIES
----------------

  NO   OCC          E(Eh)            E(eV)
   0   2.0000     -80.023517     -2177.5506
   1   2.0000     -11.266111      -306.5665
   2   2.0000     -11.251443      -306.1673
   3   2.0000     -11.209378      -305.0227
   4   2.0000     -11.208367      -304.9952
   5   2.0000     -11.207577      -304.9737
   6   2.0000     -11.201390      -304.8053
   7   2.0000     -11.200439      -304.7794
   8   2.0000     -11.198467      -304.7258
   9   2.0000     -11.198155      -304.7173
  10   2.0000     -11.177806      -304.1636
  11   2.0000      -7.561306      -205.7536
  12   2.0000      -5.456761      -148.4860
  13   2.0000      -5.456672      -148.4836
  14   2.0000      -5.455779      -148.4593
  15   2.0000      -1.127921       -30.6923
  16   2.0000      -1.078156       -29.3381
  17   2.0000      -1.025440       -27.9036
  18   2.0000      -0.986317       -26.8391
  19   2.0000      -0.985224       -26.8093
  20   2.0000      -0.956554       -26.0291
  21   2.0000      -0.838222       -22.8092
  22   2.0000      -0.796771       -21.6812
  23   2.0000      -0.778409       -21.1816
  24   2.0000      -0.707427       -19.2501
  25   2.0000      -0.660957       -17.9856
  26   2.0000      -0.642689       -17.4885
  27   2.0000      -0.625235       -17.0135
  28   2.0000      -0.616041       -16.7633
  29   2.0000      -0.596206       -16.2236
  30   2.0000      -0.595376       -16.2010
  31   2.0000      -0.590464       -16.0673
  32   2.0000      -0.564848       -15.3703
  33   2.0000      -0.556720       -15.1491
  34   2.0000      -0.539501       -14.6806
  35   2.0000      -0.518289       -14.1034
  36   2.0000      -0.514740       -14.0068
  37   2.0000      -0.480176       -13.0662
  38   2.0000      -0.466541       -12.6952
  39   2.0000      -0.456231       -12.4147
  40   2.0000      -0.359546        -9.7837
  41   2.0000      -0.326570        -8.8864
  42   2.0000      -0.311271        -8.4701
  43   2.0000      -0.253224        -6.8906
  44   0.0000       0.016135         0.4391
  45   0.0000       0.028020         0.7625
  46   0.0000       0.029415         0.8004
  47   0.0000       0.037535         1.0214
  48   0.0000       0.042727         1.1627

MULLIKEN ATOMIC CHARGES
-----------------------
   0 C :   -1.324775
   1 C :   -0.441459
   2 C :   -0.081047
   3 C :   -0.558113
   4 C :   -0.843918
   5 C :    1.681888
   6 H :    0.159359
   7 H :    0.385748
   8 H :    0.463416
   9 H :    0.371130
  10 H :    0.156371
  11 C :   -0.663513
  12 C :   -0.272212
  13 H :    0.303322
  14 H :   -0.125962
  15 P :    1.028078
  16 C :   -0.989841
  17 H :    0.329620
  18 H :    0.372709
  19 H :    0.258978
  20 C :   -1.117642
  21 H :    0.298074
  22 H :    0.316541
  23 H :    0.293247
Sum of atomic charges:    0.0000000

LOEWDIN ATOMIC CHARGES
----------------------
   0 C :    0.178886
   1 C :    0.175624
   2 C :    0.174666
   3 C :    0.175812
   4 C :    0.177976
   5 C :   -0.260294
   6 H :   -0.189667
   7 H :   -0.187935
   8 H :   -0.194752
   9 H :   -0.188374
  10 H :   -0.190626
  11 C :    0.033277
  12 C :   -0.044184
  13 H :   -0.257052
  14 H :   -0.154580
  15 P :    0.995430
  16 C :    0.513261
  17 H :   -0.202422
  18 H :   -0.236735
  19 H :   -0.210670
  20 C :    0.523649
  21 H :   -0.211054
  22 H :   -0.208227
  23 H :   -0.212009

  Mayer bond orders larger than 0.100000
B(  0-C ,  1-C ) :   1.2402 B(  0-C ,  2-C ) :  -0.1340 B(  0-C ,  3-C ) :   0.1217
B(  0-C ,  5-C ) :   0.2999 B(  0-C ,  6-H ) :   1.3452 B(  0-C , 10-H ) :   0.2442
B(  0-C , 11-C ) :   0.3537 B(  1-C ,  2-C ) :   1.0764 B(  1-C ,  5-C ) :   0.1350
B(  1-C ,  6-H ) :  -0.1248 B(  1-C ,  7-H ) :   0.9648 B(  1-C ,  8-H ) :  -0.1558
B(  1-C , 11-C ) :  -0.1300 B(  2-C ,  3-C ) :   1.1634 B(  2-C ,  8-H ) :   0.8293
B(  2-C , 11-C ) :   0.1504 B(  3-C ,  4-C ) :   1.2708 B(  3-C ,  5-C ) :   0.1130
B(  3-C ,  8-H ) :  -0.1395 B(  3-C ,  9-H ) :   0.9403 B(  4-C ,  5-C ) :   0.7352
B(  4-C ,  6-H ) :   0.1061 B(  4-C , 10-H ) :   1.2068 B(  4-C , 11-C ) :   0.4147
B(  5-C ,  6-H ) :  -0.1562 B(  5-C , 10-H ) :  -0.2190 B(  5-C , 11-C ) :   0.2592
B(  5-C , 12-C ) :   0.1575 B( 11-C , 12-C ) :   0.5296 B( 11-C , 15-P ) :  -0.1245
B( 11-C , 16-C ) :  -0.1096 B( 12-C , 13-H ) :   0.8942 B( 12-C , 14-H ) :   0.2152
B( 12-C , 15-P ) :   1.2514 B( 13-H , 15-P ) :  -0.1697 B( 14-H , 15-P ) :   0.6784
B( 15-P , 16-C ) :   0.9595 B( 15-P , 20-C ) :   0.9587 B( 16-C , 17-H ) :   0.8739
B( 16-C , 18-H ) :   0.8587 B( 16-C , 19-H ) :   0.9543 B( 20-C , 21-H ) :   0.9310
B( 20-C , 22-H ) :   0.8822 B( 20-C , 23-H ) :   0.9381

MP2 TOTAL ENERGY:     -728.833365337 Eh
FINAL SINGLE POINT ENERGY      -728.833365337324

DIPOLE MOMENT
-------------
                                X             Y             Z
Electronic contribution:     -3.72278      -1.27756      -1.49031
Nuclear contribution   :      6.59939       1.80863       1.22124
                        -----------------------------------------
Total Dipole Moment    :      2.87661       0.53106      -0.26907
                        -----------------------------------------
Magnitude (a.u.)       :      2.93757
Magnitude (Debye)      :      7.46672

Rotational constants in cm-1:     0.092403     0.013073     0.012186
Rotational constants in MHz :  2770.186357   391.918309   365.318177

                             ****ORCA TERMINATED NORMALLY****
TOTAL RUN TIME: 0 days 0 hours 10 minutes 3 seconds 962 msec
