                         Program Version 4.2.1 -  RELEASE  -
|  1> %pal
|  2>  nprocs 32
|  3> end
|  4> !RI-MP2 aug-cc-pVTZ aug-cc-pVTZ/C TightSCF
|  5> %maxcore 4500
|  6> *xyzfile 0 1  04_54R1.xyz
|  7>
|  8>
|  9>                          ****END OF INPUT****

CARTESIAN COORDINATES (ANGSTROEM)
---------------------------------
  N      2.001316    0.403372   -0.610798
  C      1.470324    1.667101   -0.126034
  C     -0.053970    1.623693   -0.102794
  H      1.874059    1.848938    0.870042
  H      1.778061    2.466208   -0.795996
  O     -0.731602    2.165430   -0.953455
  N     -0.571940    0.884657    0.916086
  H      0.093533    0.331836    1.449057
  C     -1.925658    0.419087    0.827017
  C     -2.051572   -0.790600   -0.078580
  H     -2.306959    0.153754    1.814240
  H     -2.562407    1.208806    0.427672
  O     -1.144831   -1.346630   -0.634196
  O     -3.330307   -1.185524   -0.181485
  H     -3.356837   -1.953403   -0.769459
  C      2.082274   -0.687894    0.193914
  C      2.443107   -1.981640   -0.481181
  O      1.846811   -0.620748    1.392496
  H      2.033013    0.262267   -1.607855
  H      2.991985   -1.836742   -1.412150
  H      1.511269   -2.508867   -0.698637
  H      3.031053   -2.587709    0.205120

 Total Charge           Charge          ....    0
 Multiplicity           Mult            ....    1
 Number of Electrons    NEL             ....   92
 Basis Dimension        Dim             ....  782

ORBITAL ENERGIES
----------------

  NO   OCC          E(Eh)            E(eV)
   0   2.0000     -20.622691      -561.1719
   1   2.0000     -20.559776      -559.4599
   2   2.0000     -20.529700      -558.6415
   3   2.0000     -20.526969      -558.5672
   4   2.0000     -15.601581      -424.5406
   5   2.0000     -15.581069      -423.9825
   6   2.0000     -11.393440      -310.0313
   7   2.0000     -11.362539      -309.1904
   8   2.0000     -11.350481      -308.8623
   9   2.0000     -11.287718      -307.1544
  10   2.0000     -11.283168      -307.0306
  11   2.0000     -11.239472      -305.8416
  12   2.0000      -1.479736       -40.2657
  13   2.0000      -1.400233       -38.1023
  14   2.0000      -1.389928       -37.8219
  15   2.0000      -1.375598       -37.4319
  16   2.0000      -1.250962       -34.0404
  17   2.0000      -1.237692       -33.6793
  18   2.0000      -1.045749       -28.4563
  19   2.0000      -1.011367       -27.5207
  20   2.0000      -0.958276       -26.0760
  21   2.0000      -0.847265       -23.0552
  22   2.0000      -0.805180       -21.9101
  23   2.0000      -0.785383       -21.3713
  24   2.0000      -0.732131       -19.9223
  25   2.0000      -0.718990       -19.5647
  26   2.0000      -0.714120       -19.4322
  27   2.0000      -0.693513       -18.8715
  28   2.0000      -0.671977       -18.2854
  29   2.0000      -0.657006       -17.8780
  30   2.0000      -0.650972       -17.7139
  31   2.0000      -0.621765       -16.9191
  32   2.0000      -0.605119       -16.4661
  33   2.0000      -0.597590       -16.2613
  34   2.0000      -0.594066       -16.1654
  35   2.0000      -0.569907       -15.5080
  36   2.0000      -0.563528       -15.3344
  37   2.0000      -0.552178       -15.0255
  38   2.0000      -0.538412       -14.6509
  39   2.0000      -0.526657       -14.3311
  40   2.0000      -0.495950       -13.4955
  41   2.0000      -0.470997       -12.8165
  42   2.0000      -0.452416       -12.3109
  43   2.0000      -0.438357       -11.9283
  44   2.0000      -0.408851       -11.1254
  45   2.0000      -0.395621       -10.7654
  46   0.0000       0.025235         0.6867
  47   0.0000       0.030200         0.8218
  48   0.0000       0.036221         0.9856
  49   0.0000       0.038949         1.0599
  50   0.0000       0.047447         1.2911

MULLIKEN ATOMIC CHARGES
-----------------------
   0 N :   -0.215796
   1 C :   -0.025791
   2 C :    0.467109
   3 H :    0.327096
   4 H :    0.344986
   5 O :   -0.996888
   6 N :   -0.236319
   7 H :    0.217202
   8 C :    0.035785
   9 C :    0.421194
  10 H :    0.357399
  11 H :    0.340285
  12 O :   -0.690658
  13 O :   -0.515540
  14 H :    0.253186
  15 C :    0.775181
  16 C :   -0.889539
  17 O :   -1.005922
  18 H :    0.080425
  19 H :    0.281731
  20 H :    0.333809
  21 H :    0.341065
Sum of atomic charges:   -0.0000000

LOEWDIN ATOMIC CHARGES
----------------------
   0 N :    0.562730
   1 C :    0.218855
   2 C :   -0.657224
   3 H :   -0.153902
   4 H :   -0.151545
   5 O :    0.457978
   6 N :    0.544593
   7 H :   -0.409491
   8 C :    0.180725
   9 C :   -0.780375
  10 H :   -0.142115
  11 H :   -0.162227
  12 O :    0.469134
  13 O :    0.840987
  14 H :   -0.464796
  15 C :   -0.663391
  16 C :    0.604464
  17 O :    0.497962
  18 H :   -0.272635
  19 H :   -0.175967
  20 H :   -0.170111
  21 H :   -0.173647

  Mayer bond orders larger than 0.100000
B(  0-N ,  1-C ) :   0.8934 B(  0-N , 15-C ) :   0.9627 B(  0-N , 18-H ) :   1.0399
B(  1-C ,  2-C ) :   0.5082 B(  1-C ,  3-H ) :   0.9714 B(  1-C ,  4-H ) :   0.9275
B(  2-C ,  5-O ) :   1.0926 B(  2-C ,  6-N ) :   0.9125 B(  6-N ,  7-H ) :   0.9136
B(  6-N ,  8-C ) :   1.0109 B(  8-C ,  9-C ) :   0.4568 B(  8-C , 10-H ) :   0.8825
B(  8-C , 11-H ) :   0.9039 B(  9-C , 12-O ) :   1.4953 B(  9-C , 13-O ) :   0.9346
B( 13-O , 14-H ) :   0.9608 B( 15-C , 16-C ) :   0.7158 B( 15-C , 17-O ) :   1.1309
B( 16-C , 19-H ) :   0.9588 B( 16-C , 20-H ) :   0.9068 B( 16-C , 21-H ) :   0.9628

MP2 TOTAL ENERGY:     -644.051464847 Eh
FINAL SINGLE POINT ENERGY      -644.051464847478

DIPOLE MOMENT
-------------
                                X             Y             Z
Electronic contribution:     -4.72307       1.87365       0.21236
Nuclear contribution   :      5.00243      -2.60224      -0.51799
                        -----------------------------------------
Total Dipole Moment    :      0.27937      -0.72859      -0.30563
                        -----------------------------------------
Magnitude (a.u.)       :      0.83803
Magnitude (Debye)      :      2.13010

Rotational constants in cm-1:     0.042269     0.023550     0.018183
Rotational constants in MHz :  1267.189045   706.011592   545.100657

                             ****ORCA TERMINATED NORMALLY****
TOTAL RUN TIME: 0 days 0 hours 7 minutes 47 seconds 494 msec
