                         Program Version 4.2.1 -  RELEASE  -
|  1> %pal
|  2>  nprocs 32
|  3> end
|  4> !RI-MP2 aug-cc-pVTZ aug-cc-pVTZ/C TightSCF
|  5> %maxcore 4500
|  6> *xyzfile -1 1  09_23P.xyz
|  7>
|  8>
|  9>                          ****END OF INPUT****

CARTESIAN COORDINATES (ANGSTROEM)
---------------------------------
  C      3.881509   -0.600483    0.831477
  C      2.633189   -0.105875    0.103585
  H      3.609554   -1.256603    1.663301
  H      4.457247    0.236650    1.239527
  H      4.539051   -1.162793    0.157375
  C      3.060331    0.809150   -1.048928
  H      3.611853    1.674511   -0.668493
  H      2.196764    1.187782   -1.597243
  H      3.707735    0.274722   -1.753686
  C      1.788208   -1.268802   -0.431986
  C      0.374711   -0.719018   -0.588999
  H      1.772337   -2.071789    0.317835
  H      2.204515   -1.700011   -1.353652
  C     -0.670015   -1.842743   -0.759127
  C     -2.044944   -1.335149   -0.390155
  H     -0.407121   -2.681730   -0.102901
  H     -0.629657   -2.234172   -1.784059
  C     -2.688841   -1.959852    0.814778
  H     -2.835943   -3.035083    0.654653
  H     -3.658584   -1.514035    1.039777
  H     -2.052504   -1.854733    1.699955
  C     -2.456940   -0.193551   -0.936051
  C     -3.206116    0.867645   -0.207313
  C     -2.172503    1.399409    0.896501
  H     -4.126037    0.520662    0.279858
  H     -3.482149    1.683028   -0.881979
  C     -0.711240    1.499602    0.560841
  H     -2.294495    0.730838    1.758727
  H     -2.562930    2.382009    1.211507
  C      0.167859    0.261730    0.652113
  C     -0.413403    2.404512   -0.596957
  H     -0.978518    3.343547   -0.515176
  H     -0.658568    2.008792   -1.626091
  H      0.647281    2.685820   -0.655258
  C      1.644022    0.622983    1.041492
  H      1.826107    0.331295    2.081104
  H      1.773349    1.704861    1.000390
  H      0.337520   -0.101482   -1.492679
  H     -0.235618   -0.363863    1.460093
  H     -1.876165    0.174440   -1.780520

 Total Charge           Charge          ....   -1
 Multiplicity           Mult            ....    1
 Number of Electrons    NEL             ....  116
 Basis Dimension        Dim             .... 1265

ORBITAL ENERGIES
----------------

  NO   OCC          E(Eh)            E(eV)
   0   2.0000     -11.099747      -302.0395
   1   2.0000     -11.097379      -301.9750
   2   2.0000     -11.095311      -301.9188
   3   2.0000     -11.090297      -301.7823
   4   2.0000     -11.088410      -301.7310
   5   2.0000     -11.083090      -301.5862
   6   2.0000     -11.082278      -301.5641
   7   2.0000     -11.069719      -301.2224
   8   2.0000     -11.069213      -301.2086
   9   2.0000     -11.066399      -301.1320
  10   2.0000     -11.056997      -300.8762
  11   2.0000     -11.055642      -300.8393
  12   2.0000     -11.048172      -300.6360
  13   2.0000     -11.037162      -300.3364
  14   2.0000     -10.963455      -298.3308
  15   2.0000      -1.004605       -27.3367
  16   2.0000      -0.970434       -26.4069
  17   2.0000      -0.898274       -24.4433
  18   2.0000      -0.887836       -24.1592
  19   2.0000      -0.835614       -22.7382
  20   2.0000      -0.813448       -22.1350
  21   2.0000      -0.804532       -21.8924
  22   2.0000      -0.796312       -21.6688
  23   2.0000      -0.754783       -20.5387
  24   2.0000      -0.715865       -19.4797
  25   2.0000      -0.694586       -18.9007
  26   2.0000      -0.621274       -16.9057
  27   2.0000      -0.594256       -16.1705
  28   2.0000      -0.569271       -15.4906
  29   2.0000      -0.528959       -14.3937
  30   2.0000      -0.503696       -13.7063
  31   2.0000      -0.498288       -13.5591
  32   2.0000      -0.485892       -13.2218
  33   2.0000      -0.474724       -12.9179
  34   2.0000      -0.461502       -12.5581
  35   2.0000      -0.456199       -12.4138
  36   2.0000      -0.442478       -12.0404
  37   2.0000      -0.432062       -11.7570
  38   2.0000      -0.415938       -11.3182
  39   2.0000      -0.413021       -11.2389
  40   2.0000      -0.402416       -10.9503
  41   2.0000      -0.397375       -10.8131
  42   2.0000      -0.385426       -10.4880
  43   2.0000      -0.382081       -10.3969
  44   2.0000      -0.370955       -10.0942
  45   2.0000      -0.361736        -9.8433
  46   2.0000      -0.355611        -9.6767
  47   2.0000      -0.333525        -9.0757
  48   2.0000      -0.322617        -8.7788
  49   2.0000      -0.316423        -8.6103
  50   2.0000      -0.309879        -8.4322
  51   2.0000      -0.305361        -8.3093
  52   2.0000      -0.299759        -8.1569
  53   2.0000      -0.285635        -7.7725
  54   2.0000      -0.260994        -7.1020
  55   2.0000      -0.255867        -6.9625
  56   2.0000      -0.175903        -4.7866
  57   2.0000      -0.027091        -0.7372
  58   0.0000       0.096540         2.6270
  59   0.0000       0.101926         2.7735
  60   0.0000       0.106790         2.9059
  61   0.0000       0.110100         2.9960
  62   0.0000       0.115339         3.1385

MULLIKEN ATOMIC CHARGES
-----------------------
   0 C :   -1.628042
   1 C :    2.266636
   2 H :    0.263979
   3 H :    0.232070
   4 H :    0.226184
   5 C :   -1.499900
   6 H :    0.162921
   7 H :    0.381747
   8 H :    0.147588
   9 C :   -1.599328
  10 C :    1.171768
  11 H :    0.129613
  12 H :    0.317740
  13 C :   -0.886807
  14 C :    0.607360
  15 H :    0.281639
  16 H :    0.188224
  17 C :   -1.109943
  18 H :    0.257847
  19 H :    0.320334
  20 H :    0.249088
  21 C :   -0.869779
  22 C :   -0.452629
  23 C :   -0.637876
  24 H :    0.312410
  25 H :    0.203732
  26 C :   -0.267508
  27 H :   -0.030858
  28 H :    0.447750
  29 C :    0.794183
  30 C :   -1.091390
  31 H :    0.285437
  32 H :    0.071919
  33 H :    0.181729
  34 C :   -1.649406
  35 H :    0.283069
  36 H :    0.121534
  37 H :    0.152954
  38 H :    0.318625
  39 H :    0.345386
Sum of atomic charges:   -1.0000000

LOEWDIN ATOMIC CHARGES
----------------------
   0 C :    0.571554
   1 C :   -0.327092
   2 H :   -0.168947
   3 H :   -0.160808
   4 H :   -0.162198
   5 C :    0.581731
   6 H :   -0.156458
   7 H :   -0.176816
   8 H :   -0.160029
   9 C :    0.292816
  10 C :    0.026564
  11 H :   -0.139909
  12 H :   -0.124639
  13 C :    0.287172
  14 C :   -0.099718
  15 H :   -0.161010
  16 H :   -0.138626
  17 C :    0.560084
  18 H :   -0.170610
  19 H :   -0.187224
  20 H :   -0.169287
  21 C :    0.194583
  22 C :    0.266594
  23 C :    0.197877
  24 H :   -0.179559
  25 H :   -0.169945
  26 C :   -0.089240
  27 H :   -0.185155
  28 H :   -0.177514
  29 C :    0.016749
  30 C :    0.435837
  31 H :   -0.189926
  32 H :   -0.188011
  33 H :   -0.211115
  34 C :    0.315336
  35 H :   -0.145409
  36 H :   -0.178547
  37 H :   -0.164982
  38 H :   -0.169480
  39 H :   -0.194642

  Mayer bond orders larger than 0.100000
B(  0-C ,  1-C ) :  -0.3059 B(  0-C ,  2-H ) :   1.1157 B(  0-C ,  3-H ) :   1.1585
B(  0-C ,  4-H ) :   1.1513 B(  0-C ,  5-C ) :   0.1521 B(  1-C ,  2-H ) :  -0.1791
B(  1-C ,  3-H ) :  -0.1897 B(  1-C ,  4-H ) :  -0.2080 B(  1-C ,  6-H ) :  -0.1639
B(  1-C ,  8-H ) :  -0.2143 B(  1-C ,  9-C ) :   0.6353 B(  1-C , 26-C ) :   0.1903
B(  1-C , 34-C ) :   0.7774 B(  5-C ,  6-H ) :   1.2426 B(  5-C ,  7-H ) :   0.9890
B(  5-C ,  8-H ) :   1.1966 B(  5-C ,  9-C ) :   0.1466 B(  5-C , 29-C ) :  -0.1193
B(  9-C , 10-C ) :   0.6137 B(  9-C , 11-H ) :   1.2492 B(  9-C , 12-H ) :   0.9909
B(  9-C , 13-C ) :  -0.1373 B(  9-C , 29-C ) :   0.1658 B(  9-C , 34-C ) :   0.4413
B( 10-C , 11-H ) :  -0.1405 B( 10-C , 13-C ) :   0.2450 B( 10-C , 14-C ) :   0.2082
B( 10-C , 16-H ) :  -0.1363 B( 10-C , 21-C ) :  -0.1219 B( 10-C , 26-C ) :  -0.3129
B( 10-C , 29-C ) :   1.0651 B( 10-C , 37-H ) :   1.1019 B( 13-C , 14-C ) :   0.8877
B( 13-C , 15-H ) :   1.1407 B( 13-C , 16-H ) :   1.1260 B( 14-C , 17-C ) :   0.4707
B( 14-C , 18-H ) :  -0.1335 B( 14-C , 21-C ) :   1.4336 B( 14-C , 29-C ) :   0.1615
B( 14-C , 39-H ) :  -0.2040 B( 17-C , 18-H ) :   1.0296 B( 17-C , 19-H ) :   0.9309
B( 17-C , 20-H ) :   1.1582 B( 17-C , 21-C ) :  -0.1482 B( 21-C , 22-C ) :   0.9730
B( 21-C , 25-H ) :  -0.1130 B( 21-C , 39-H ) :   0.8580 B( 22-C , 23-C ) :   0.8145
B( 22-C , 24-H ) :   0.9603 B( 22-C , 25-H ) :   1.0035 B( 23-C , 26-C ) :   0.3824
B( 23-C , 27-H ) :   1.2990 B( 23-C , 28-H ) :   0.8037 B( 23-C , 29-C ) :   0.1840
B( 23-C , 34-C ) :  -0.1126 B( 26-C , 27-H ) :   0.1023 B( 26-C , 28-H ) :  -0.1160
B( 26-C , 29-C ) :   0.1859 B( 26-C , 30-C ) :   0.7148 B( 26-C , 31-H ) :  -0.1519
B( 26-C , 34-C ) :   0.5343 B( 26-C , 36-H ) :   0.2042 B( 29-C , 30-C ) :   0.1285
B( 29-C , 34-C ) :   0.5759 B( 29-C , 38-H ) :   0.9156 B( 30-C , 31-H ) :   0.9830
B( 30-C , 32-H ) :   1.1170 B( 30-C , 33-H ) :   1.1318 B( 34-C , 35-H ) :   0.9657
B( 34-C , 36-H ) :   1.2966 B( 34-C , 38-H ) :  -0.2608

MP2 TOTAL ENERGY:     -585.289934418 Eh
FINAL SINGLE POINT ENERGY      -585.289934417563

DIPOLE MOMENT
-------------
                                X             Y             Z
Electronic contribution:     -4.08576      -2.86682      -0.84974
Nuclear contribution   :      5.13749       1.01241       0.37058
                        -----------------------------------------
Total Dipole Moment    :      1.05173      -1.85440      -0.47916
                        -----------------------------------------
Magnitude (a.u.)       :      2.18507
Magnitude (Debye)      :      5.55401

Rotational constants in cm-1:     0.034279     0.014537     0.012171
Rotational constants in MHz :  1027.660517   435.804319   364.878417

                             ****ORCA TERMINATED NORMALLY****
TOTAL RUN TIME: 0 days 0 hours 53 minutes 54 seconds 6 msec
