                         Program Version 4.2.1 -  RELEASE  -
|  1> %pal
|  2>  nprocs 32
|  3> end
|  4> !RI-MP2 aug-cc-pVTZ aug-cc-pVTZ/C TightSCF
|  5> %maxcore 4500
|  6> *xyzfile 0 2  04_19TS.xyz
|  7>
|  8>
|  9>                          ****END OF INPUT****

CARTESIAN COORDINATES (ANGSTROEM)
---------------------------------
  H      0.631352    0.697623   -0.237874
  C      0.847165   -1.522590   -0.227314
  H      0.429012   -2.460027    0.153362
  C      2.907064   -0.032251   -0.159627
  H      3.817420    0.183034    0.400909
  H      1.065552   -1.683402   -1.287095
  H      3.198636   -0.317632   -1.172538
  C      2.147609   -1.178506    0.502861
  H      2.789752   -2.063841    0.507465
  H      1.937196   -0.929232    1.546342
  C     -0.196502   -0.431792   -0.111345
  C     -2.773189    0.304859   -0.453983
  C     -2.224237    0.895309    0.834084
  H     -3.296520    1.057789   -1.042974
  H     -3.450375   -0.522425   -0.244157
  H     -1.757173    1.865570    0.661143
  H     -3.003590    1.006587    1.587762
  S     -1.375925   -0.327808   -1.448589
  S     -0.975485   -0.255162    1.476378
  S      1.938365    1.517707   -0.226564

 Total Charge           Charge          ....    0
 Multiplicity           Mult            ....    2
 Number of Electrons    NEL             ....   95
 Basis Dimension        Dim             ....  679

ORBITAL ENERGIES
----------------
                 SPIN UP ORBITALS
  NO   OCC          E(Eh)            E(eV)
   0   1.0000     -91.969800     -2502.6255
   1   1.0000     -91.968689     -2502.5953
   2   1.0000     -91.933606     -2501.6406
   3   1.0000     -11.316542      -307.9388
   4   1.0000     -11.280348      -306.9539
   5   1.0000     -11.278458      -306.9024
   6   1.0000     -11.253684      -306.2283
   7   1.0000     -11.247964      -306.0727
   8   1.0000     -11.237813      -305.7964
   9   1.0000      -8.970499      -244.0997
  10   1.0000      -8.969192      -244.0641
  11   1.0000      -8.934352      -243.1161
  12   1.0000      -6.651746      -181.0032
  13   1.0000      -6.650800      -180.9775
  14   1.0000      -6.650719      -180.9753
  15   1.0000      -6.649796      -180.9501
  16   1.0000      -6.649425      -180.9401
  17   1.0000      -6.648403      -180.9122
  18   1.0000      -6.623504      -180.2347
  19   1.0000      -6.613076      -179.9510
  20   1.0000      -6.611884      -179.9185
  21   1.0000      -1.167157       -31.7599
  22   1.0000      -1.101863       -29.9832
  23   1.0000      -1.032282       -28.0898
  24   1.0000      -0.996464       -27.1152
  25   1.0000      -0.973418       -26.4880
  26   1.0000      -0.890278       -24.2257
  27   1.0000      -0.819694       -22.3050
  28   1.0000      -0.798341       -21.7240
  29   1.0000      -0.761403       -20.7188
  30   1.0000      -0.665019       -18.0961
  31   1.0000      -0.661171       -17.9914
  32   1.0000      -0.639798       -17.4098
  33   1.0000      -0.605681       -16.4814
  34   1.0000      -0.590208       -16.0604
  35   1.0000      -0.569794       -15.5049
  36   1.0000      -0.555209       -15.1080
  37   1.0000      -0.524945       -14.2845
  38   1.0000      -0.519689       -14.1415
  39   1.0000      -0.513413       -13.9707
  40   1.0000      -0.488208       -13.2848
  41   1.0000      -0.479822       -13.0566
  42   1.0000      -0.446367       -12.1463
  43   1.0000      -0.439945       -11.9715
  44   1.0000      -0.402521       -10.9532
  45   1.0000      -0.367359        -9.9963
  46   1.0000      -0.338531        -9.2119
  47   1.0000      -0.297330        -8.0908
  48   0.0000       0.026488         0.7208
  49   0.0000       0.029509         0.8030
  50   0.0000       0.038845         1.0570
  51   0.0000       0.040097         1.0911
  52   0.0000       0.046506         1.2655

                 SPIN DOWN ORBITALS
  NO   OCC          E(Eh)            E(eV)
   0   1.0000     -91.969608     -2502.6203
   1   1.0000     -91.968225     -2502.5826
   2   1.0000     -91.928381     -2501.4984
   3   1.0000     -11.297811      -307.4291
   4   1.0000     -11.280251      -306.9512
   5   1.0000     -11.278483      -306.9031
   6   1.0000     -11.254290      -306.2448
   7   1.0000     -11.249292      -306.1088
   8   1.0000     -11.237086      -305.7767
   9   1.0000      -8.970300      -244.0943
  10   1.0000      -8.968661      -244.0497
  11   1.0000      -8.928656      -242.9611
  12   1.0000      -6.651923      -181.0080
  13   1.0000      -6.650801      -180.9775
  14   1.0000      -6.650337      -180.9649
  15   1.0000      -6.649210      -180.9342
  16   1.0000      -6.648513      -180.9152
  17   1.0000      -6.646574      -180.8625
  18   1.0000      -6.610491      -179.8806
  19   1.0000      -6.608803      -179.8347
  20   1.0000      -6.600493      -179.6086
  21   1.0000      -1.152229       -31.3538
  22   1.0000      -1.097790       -29.8724
  23   1.0000      -1.016421       -27.6582
  24   1.0000      -0.993363       -27.0308
  25   1.0000      -0.956338       -26.0233
  26   1.0000      -0.875655       -23.8278
  27   1.0000      -0.817316       -22.2403
  28   1.0000      -0.787017       -21.4158
  29   1.0000      -0.722128       -19.6501
  30   1.0000      -0.660367       -17.9695
  31   1.0000      -0.647789       -17.6272
  32   1.0000      -0.635682       -17.2978
  33   1.0000      -0.602774       -16.4023
  34   1.0000      -0.587489       -15.9864
  35   1.0000      -0.561198       -15.2710
  36   1.0000      -0.521891       -14.2014
  37   1.0000      -0.518444       -14.1076
  38   1.0000      -0.505175       -13.7465
  39   1.0000      -0.499963       -13.6047
  40   1.0000      -0.483837       -13.1659
  41   1.0000      -0.477116       -12.9830
  42   1.0000      -0.438509       -11.9324
  43   1.0000      -0.433646       -11.8001
  44   1.0000      -0.365154        -9.9363
  45   1.0000      -0.354959        -9.6589
  46   1.0000      -0.328077        -8.9274
  47   0.0000       0.026005         0.7076
  48   0.0000       0.028926         0.7871
  49   0.0000       0.037467         1.0195
  50   0.0000       0.040132         1.0920
  51   0.0000       0.044186         1.2024

MULLIKEN ATOMIC CHARGES AND SPIN POPULATIONS
--------------------------------------------
   0 H :    0.591487   -0.346049
   1 C :   -0.693433   -0.089804
   2 H :    0.304537    0.045554
   3 C :   -0.368098   -0.056393
   4 H :    0.284520    0.007446
   5 H :    0.267715    0.001142
   6 H :    0.215423    0.000290
   7 C :   -0.522386    0.039173
   8 H :    0.284752   -0.004607
   9 H :    0.250887   -0.001522
  10 C :    0.756009    0.705431
  11 C :   -0.456260   -0.005128
  12 C :   -0.479933    0.003905
  13 H :    0.293770    0.000190
  14 H :    0.255195   -0.001961
  15 H :    0.182848    0.000124
  16 H :    0.331190    0.000467
  17 S :   -0.449158    0.059822
  18 S :   -0.445359    0.030928
  19 S :   -0.603705    0.610993
Sum of atomic charges         :    0.0000000

LOEWDIN ATOMIC CHARGES AND SPIN POPULATIONS
-------------------------------------------
   0 H :   -0.740748    0.074460
   1 C :    0.117100    0.038709
   2 H :   -0.157799    0.013737
   3 C :   -0.110811    0.040477
   4 H :   -0.230551    0.008495
   5 H :   -0.169570   -0.000673
   6 H :   -0.225921   -0.000022
   7 C :    0.189234    0.006285
   8 H :   -0.145941    0.000287
   9 H :   -0.168792    0.000448
  10 C :   -0.899653    0.330361
  11 C :   -0.110210    0.006841
  12 C :   -0.116960    0.005277
  13 H :   -0.223928   -0.000705
  14 H :   -0.228986    0.002722
  15 H :   -0.216666    0.000930
  16 H :   -0.217829   -0.000001
  17 S :    1.218839    0.081175
  18 S :    1.222203    0.068398
  19 S :    1.216989    0.322799

  Mayer bond orders larger than 0.100000
B(  0-H , 10-C ) :   0.2362 B(  0-H , 17-S ) :  -0.1154 B(  0-H , 18-S ) :  -0.1039
B(  0-H , 19-S ) :   0.2711 B(  1-C ,  2-H ) :   0.9216 B(  1-C ,  5-H ) :   1.0008
B(  1-C ,  7-C ) :   0.9635 B(  1-C , 10-C ) :   0.8430 B(  3-C ,  4-H ) :   0.9336
B(  3-C ,  6-H ) :   0.9672 B(  3-C ,  7-C ) :   0.9360 B(  3-C , 19-S ) :   0.9910
B(  7-C ,  8-H ) :   0.9349 B(  7-C ,  9-H ) :   0.9636 B( 10-C , 12-C ) :  -0.1649
B( 10-C , 17-S ) :   0.8441 B( 10-C , 18-S ) :   0.8599 B( 11-C , 12-C ) :   1.0138
B( 11-C , 13-H ) :   0.9111 B( 11-C , 14-H ) :   0.9557 B( 11-C , 17-S ) :   0.9818
B( 12-C , 15-H ) :   0.9703 B( 12-C , 16-H ) :   0.8854 B( 12-C , 17-S ) :   0.1188
B( 12-C , 18-S ) :   1.0495 B( 17-S , 18-S ) :   0.1135

MP2 TOTAL ENERGY:    -1427.850597389 Eh
FINAL SINGLE POINT ENERGY     -1427.850597389290

DIPOLE MOMENT
-------------
                                X             Y             Z
Electronic contribution:     -3.08346       2.59290      -0.65792
Nuclear contribution   :      2.36187      -3.17846       0.87399
                        -----------------------------------------
Total Dipole Moment    :     -0.72160      -0.58556       0.21607
                        -----------------------------------------
Magnitude (a.u.)       :      0.95408
Magnitude (Debye)      :      2.42508

Rotational constants in cm-1:     0.052578     0.022176     0.021955
Rotational constants in MHz :  1576.250424   664.825369   658.200430

                             ****ORCA TERMINATED NORMALLY****
TOTAL RUN TIME: 0 days 0 hours 12 minutes 30 seconds 590 msec
