                         Program Version 4.2.1 -  RELEASE  -
|  1> %pal
|  2>  nprocs 32
|  3> end
|  4> !RI-MP2 aug-cc-pVTZ aug-cc-pVTZ/C TightSCF
|  5> %maxcore 4500
|  6> *xyzfile 0 1  10_85P.xyz
|  7>
|  8>
|  9>                          ****END OF INPUT****

CARTESIAN COORDINATES (ANGSTROEM)
---------------------------------
  C     -0.050567   -0.490725   -0.043378
  C     -1.275670    0.401581   -0.105444
  C     -2.632100   -0.175277    0.204778
  C     -2.734787   -1.651659   -0.227144
  C     -1.586107   -2.425987    0.430731
  C     -0.411322   -1.949297   -0.429334
  C     -1.131577    1.704069   -0.423841
  H     -3.408322    0.430444   -0.264741
  H     -2.786093   -0.100156    1.287439
  H     -3.725801   -2.036551    0.014378
  C     -2.359722   -1.767798   -1.695254
  H     -1.466269   -2.205408    1.492754
  H     -1.730001   -3.500632    0.309764
  C     -1.046206   -1.931679   -1.808066
  H      0.481724   -2.568903   -0.369719
  H     -0.475155   -1.959404   -2.726903
  H     -3.060638   -1.638601   -2.510057
  C      0.154213    2.264206   -0.709839
  C     -2.245435    2.600278   -0.477935
  N      1.194371    2.690433   -0.944197
  N     -3.145728    3.312284   -0.515658
  C     -0.516454    0.543006    3.438562
  C      0.058964    0.063037    2.378228
  H     -0.451929    1.598750    3.678915
  H     -1.074147   -0.094009    4.116617
  C      0.640105   -0.407384    1.311966
  C      2.066083   -0.890300    1.396361
  O      2.960334    0.020621    0.736310
  H      2.391010   -0.912393    2.433037
  H      2.178811   -1.878281    0.950658
  C      3.282310   -0.228686   -0.547634
  C      4.189848    0.828813   -1.088891
  O      2.855326   -1.175082   -1.159116
  H      3.606876    1.743556   -1.217706
  H      4.992974    1.039915   -0.383467
  H      4.590854    0.509013   -2.047213
  H      0.660865   -0.127850   -0.785530

 Total Charge           Charge          ....    0
 Multiplicity           Mult            ....    1
 Number of Electrons    NEL             ....  148
 Basis Dimension        Dim             .... 1334

ORBITAL ENERGIES
----------------

  NO   OCC          E(Eh)            E(eV)
   0   2.0000     -20.610015      -560.8270
   1   2.0000     -20.550139      -559.1977
   2   2.0000     -15.583187      -424.0401
   3   2.0000     -15.580782      -423.9746
   4   2.0000     -11.386745      -309.8491
   5   2.0000     -11.322191      -308.0925
   6   2.0000     -11.311114      -307.7911
   7   2.0000     -11.310847      -307.7838
   8   2.0000     -11.291659      -307.2617
   9   2.0000     -11.287333      -307.1439
  10   2.0000     -11.276088      -306.8380
  11   2.0000     -11.274303      -306.7894
  12   2.0000     -11.271064      -306.7012
  13   2.0000     -11.261522      -306.4416
  14   2.0000     -11.257621      -306.3354
  15   2.0000     -11.256791      -306.3129
  16   2.0000     -11.254534      -306.2514
  17   2.0000     -11.242805      -305.9323
  18   2.0000     -11.240925      -305.8811
  19   2.0000     -11.238133      -305.8051
  20   2.0000     -11.234415      -305.7040
  21   2.0000      -1.470673       -40.0191
  22   2.0000      -1.369075       -37.2544
  23   2.0000      -1.250060       -34.0159
  24   2.0000      -1.231604       -33.5136
  25   2.0000      -1.210860       -32.9492
  26   2.0000      -1.147185       -31.2165
  27   2.0000      -1.127791       -30.6888
  28   2.0000      -1.057822       -28.7848
  29   2.0000      -1.042374       -28.3645
  30   2.0000      -1.031278       -28.0625
  31   2.0000      -0.994232       -27.0544
  32   2.0000      -0.981011       -26.6947
  33   2.0000      -0.926399       -25.2086
  34   2.0000      -0.890864       -24.2416
  35   2.0000      -0.858466       -23.3600
  36   2.0000      -0.796584       -21.6762
  37   2.0000      -0.786754       -21.4087
  38   2.0000      -0.771346       -20.9894
  39   2.0000      -0.744627       -20.2623
  40   2.0000      -0.740044       -20.1376
  41   2.0000      -0.711008       -19.3475
  42   2.0000      -0.702157       -19.1067
  43   2.0000      -0.692401       -18.8412
  44   2.0000      -0.681320       -18.5397
  45   2.0000      -0.662217       -18.0198
  46   2.0000      -0.646197       -17.5839
  47   2.0000      -0.632411       -17.2088
  48   2.0000      -0.625525       -17.0214
  49   2.0000      -0.620980       -16.8977
  50   2.0000      -0.605563       -16.4782
  51   2.0000      -0.588938       -16.0258
  52   2.0000      -0.577949       -15.7268
  53   2.0000      -0.576695       -15.6927
  54   2.0000      -0.572569       -15.5804
  55   2.0000      -0.562006       -15.2930
  56   2.0000      -0.560088       -15.2408
  57   2.0000      -0.554721       -15.0947
  58   2.0000      -0.550534       -14.9808
  59   2.0000      -0.534696       -14.5498
  60   2.0000      -0.531176       -14.4540
  61   2.0000      -0.511150       -13.9091
  62   2.0000      -0.495310       -13.4781
  63   2.0000      -0.493455       -13.4276
  64   2.0000      -0.490927       -13.3588
  65   2.0000      -0.490182       -13.3385
  66   2.0000      -0.480870       -13.0852
  67   2.0000      -0.476106       -12.9555
  68   2.0000      -0.463030       -12.5997
  69   2.0000      -0.456811       -12.4305
  70   2.0000      -0.401897       -10.9362
  71   2.0000      -0.395977       -10.7751
  72   2.0000      -0.378432       -10.2976
  73   2.0000      -0.360204        -9.8017
  74   0.0000       0.017577         0.4783
  75   0.0000       0.026363         0.7174
  76   0.0000       0.028697         0.7809
  77   0.0000       0.032077         0.8729
  78   0.0000       0.038239         1.0405

MULLIKEN ATOMIC CHARGES
-----------------------
   0 C :   -0.546983
   1 C :    0.197092
   2 C :   -0.978127
   3 C :   -0.217245
   4 C :   -0.755692
   5 C :    0.054075
   6 C :    1.235528
   7 H :    0.026732
   8 H :    0.231144
   9 H :    0.432494
  10 C :   -0.790960
  11 H :    0.260791
  12 H :    0.350610
  13 C :   -0.943642
  14 H :    0.381584
  15 H :    0.504984
  16 H :    0.608935
  17 C :    1.125402
  18 C :    0.798202
  19 N :   -1.029644
  20 N :   -1.057362
  21 C :   -1.843721
  22 C :    1.674872
  23 H :    0.311978
  24 H :    0.317841
  25 C :    0.019342
  26 C :   -0.486774
  27 O :   -0.523748
  28 H :    0.233980
  29 H :    0.442153
  30 C :    0.835768
  31 C :   -0.875739
  32 O :   -0.955641
  33 H :    0.355285
  34 H :    0.293628
  35 H :    0.360420
  36 H :   -0.047563
Sum of atomic charges:    0.0000000

LOEWDIN ATOMIC CHARGES
----------------------
   0 C :    0.004511
   1 C :   -0.055973
   2 C :    0.334351
   3 C :    0.016723
   4 C :    0.326373
   5 C :    0.022587
   6 C :   -0.174875
   7 H :   -0.155396
   8 H :   -0.124362
   9 H :   -0.117162
  10 C :    0.275451
  11 H :   -0.139519
  12 H :   -0.122892
  13 C :    0.280372
  14 H :   -0.130668
  15 H :   -0.149564
  16 H :   -0.156701
  17 C :   -0.236318
  18 C :   -0.254206
  19 N :    0.333761
  20 N :    0.298856
  21 C :    0.517256
  22 C :    0.140629
  23 H :   -0.223130
  24 H :   -0.225928
  25 C :   -0.098579
  26 C :    0.073714
  27 O :    0.603538
  28 H :   -0.157710
  29 H :   -0.186887
  30 C :   -0.825561
  31 C :    0.588052
  32 O :    0.485376
  33 H :   -0.210855
  34 H :   -0.173356
  35 H :   -0.178412
  36 H :   -0.203493

  Mayer bond orders larger than 0.100000
B(  0-C ,  1-C ) :   0.9221 B(  0-C ,  2-C ) :   0.1235 B(  0-C ,  3-C ) :  -0.1151
B(  0-C ,  5-C ) :   0.6758 B(  0-C , 10-C ) :   0.2076 B(  0-C , 13-C ) :   0.3681
B(  0-C , 14-H ) :  -0.1748 B(  0-C , 17-C ) :   0.2830 B(  0-C , 18-C ) :  -0.1129
B(  0-C , 19-N ) :   0.1024 B(  0-C , 20-N ) :   0.1498 B(  0-C , 22-C ) :  -0.7614
B(  0-C , 24-H ) :   0.1593 B(  0-C , 25-C ) :   2.0047 B(  0-C , 26-C ) :   0.2099
B(  0-C , 36-H ) :   1.2958 B(  1-C ,  2-C ) :   0.4386 B(  1-C ,  3-C ) :   0.2285
B(  1-C ,  4-C ) :  -0.3176 B(  1-C ,  5-C ) :   0.4193 B(  1-C ,  6-C ) :   0.9410
B(  1-C ,  7-H ) :   0.1075 B(  1-C , 10-C ) :  -0.1589 B(  1-C , 13-C ) :  -0.4646
B(  1-C , 14-H ) :   0.1390 B(  1-C , 17-C ) :  -0.1929 B(  1-C , 18-C ) :   1.6429
B(  1-C , 20-N ) :  -0.1468 B(  1-C , 21-C ) :  -0.4241 B(  1-C , 22-C ) :   0.5248
B(  1-C , 25-C ) :   0.2406 B(  1-C , 36-H ) :  -0.3304 B(  2-C ,  3-C ) :   1.0188
B(  2-C ,  6-C ) :  -0.2413 B(  2-C ,  7-H ) :   1.0615 B(  2-C ,  8-H ) :   1.1045
B(  2-C , 10-C ) :   0.1272 B(  2-C , 13-C ) :   0.1008 B(  2-C , 17-C ) :  -0.1030
B(  3-C ,  4-C ) :   1.0225 B(  3-C ,  9-H ) :   0.8026 B(  3-C , 10-C ) :   1.1112
B(  4-C ,  5-C ) :   0.8652 B(  4-C , 10-C ) :   0.1383 B(  4-C , 11-H ) :   1.0426
B(  4-C , 12-H ) :   0.8804 B(  5-C , 13-C ) :   1.0330 B(  5-C , 14-H ) :   0.8251
B(  6-C ,  7-H ) :  -0.2557 B(  6-C , 13-C ) :   0.1297 B(  6-C , 17-C ) :   0.8837
B(  6-C , 18-C ) :  -0.5394 B(  6-C , 19-N ) :   0.2969 B(  6-C , 20-N ) :   0.4569
B(  6-C , 21-C ) :   0.2752 B(  6-C , 22-C ) :   0.1362 B(  6-C , 25-C ) :  -0.2733
B(  7-H , 18-C ) :   0.1146 B(  9-H , 10-C ) :  -0.1101 B( 10-C , 13-C ) :   1.5649
B( 10-C , 16-H ) :   0.5427 B( 13-C , 14-H ) :  -0.1812 B( 13-C , 15-H ) :   0.7082
B( 13-C , 36-H ) :   0.1289 B( 14-H , 25-C ) :   0.1535 B( 17-C , 18-C ) :  -0.2685
B( 17-C , 19-N ) :   1.4251 B( 17-C , 36-H ) :   0.1601 B( 18-C , 20-N ) :   1.1687
B( 18-C , 36-H ) :  -0.1078 B( 21-C , 22-C ) :  -0.3334 B( 21-C , 23-H ) :   1.1164
B( 21-C , 24-H ) :   1.1095 B( 21-C , 25-C ) :   0.6054 B( 22-C , 23-H ) :  -0.2849
B( 22-C , 24-H ) :  -0.3055 B( 22-C , 25-C ) :   0.2527 B( 22-C , 36-H ) :  -0.1549
B( 23-H , 25-C ) :   0.1471 B( 25-C , 26-C ) :   0.4706 B( 25-C , 27-O ) :  -0.2096
B( 25-C , 29-H ) :  -0.2665 B( 25-C , 32-O ) :   0.1047 B( 25-C , 36-H ) :   0.1903
B( 26-C , 27-O ) :   0.8241 B( 26-C , 28-H ) :   0.9946 B( 26-C , 29-H ) :   1.0822
B( 27-O , 30-C ) :   0.8928 B( 30-C , 31-C ) :   0.7567 B( 30-C , 32-O ) :   1.3100
B( 30-C , 36-H ) :  -0.1045 B( 31-C , 33-H ) :   0.9008 B( 31-C , 34-H ) :   0.9757
B( 31-C , 35-H ) :   0.9271 B( 32-O , 36-H ) :  -0.1011

MP2 TOTAL ENERGY:     -915.533640344 Eh
FINAL SINGLE POINT ENERGY      -915.533640344047

DIPOLE MOMENT
-------------
                                X             Y             Z
Electronic contribution:     -0.79928       9.67990      -2.79377
Nuclear contribution   :      0.79817     -11.58461       3.92946
                        -----------------------------------------
Total Dipole Moment    :     -0.00111      -1.90470       1.13569
                        -----------------------------------------
Magnitude (a.u.)       :      2.21758
Magnitude (Debye)      :      5.63665

Rotational constants in cm-1:     0.013698     0.009352     0.008058
Rotational constants in MHz :   410.656956   280.365734   241.585550

                             ****ORCA TERMINATED NORMALLY****
TOTAL RUN TIME: 0 days 0 hours 57 minutes 41 seconds 392 msec
