                         Program Version 4.2.1 -  RELEASE  -
|  1> %pal
|  2>  nprocs 32
|  3> end
|  4> !RI-MP2 aug-cc-pVTZ aug-cc-pVTZ/C TightSCF
|  5> %maxcore 4500
|  6> *xyzfile 1 1  05_7TS.xyz
|  7>
|  8>
|  9>                          ****END OF INPUT****

CARTESIAN COORDINATES (ANGSTROEM)
---------------------------------
  H     -2.000700   -2.780073    0.120482
  C     -0.874899    0.203032    1.038095
  C     -1.730449    0.977349    0.304842
  H     -3.452753   -1.552575   -1.195092
  H      0.227464   -1.425180    0.133325
  H     -0.209051    0.656256    1.761380
  C     -1.766861    2.466656    0.447769
  C     -0.815809   -1.230616    0.868047
  C     -2.650335    0.340450   -0.578862
  N     -1.899192   -1.776681    0.149185
  C     -2.721563   -1.018407   -0.602739
  H     -0.535883   -1.822787    1.740848
  C      3.156645   -0.191388    0.533207
  H      1.590516    2.148958   -1.221405
  H      0.255478    0.158016   -1.869934
  H      4.043041   -0.263129    1.146316
  H      3.386015    1.851346    0.288412
  C      2.423274   -1.265316    0.167796
  C      1.777081    1.171785   -0.798732
  N      1.305372   -1.180291   -0.641907
  C      1.056310    0.072605   -1.148110
  H      2.702659   -2.255461    0.501869
  N      2.819708    1.048693    0.056697
  H     -3.338517    0.921565   -1.175927
  H     -1.636758    2.949186   -0.524122
  H     -0.994947    2.827895    1.126266
  H     -2.738146    2.787039    0.831870

 Total Charge           Charge          ....    1
 Multiplicity           Mult            ....    1
 Number of Electrons    NEL             ....   94
 Basis Dimension        Dim             ....  920

ORBITAL ENERGIES
----------------

  NO   OCC          E(Eh)            E(eV)
   0   2.0000     -15.789034      -429.6415
   1   2.0000     -15.755320      -428.7241
   2   2.0000     -15.745881      -428.4672
   3   2.0000     -11.456085      -311.7359
   4   2.0000     -11.441801      -311.3472
   5   2.0000     -11.426008      -310.9175
   6   2.0000     -11.422035      -310.8094
   7   2.0000     -11.415891      -310.6422
   8   2.0000     -11.413144      -310.5674
   9   2.0000     -11.394457      -310.0589
  10   2.0000     -11.365006      -309.2575
  11   2.0000     -11.347698      -308.7866
  12   2.0000     -11.346341      -308.7496
  13   2.0000      -1.476460       -40.1765
  14   2.0000      -1.424408       -38.7601
  15   2.0000      -1.382368       -37.6161
  16   2.0000      -1.244313       -33.8595
  17   2.0000      -1.214398       -33.0455
  18   2.0000      -1.180294       -32.1174
  19   2.0000      -1.104446       -30.0535
  20   2.0000      -1.097283       -29.8586
  21   2.0000      -1.037668       -28.2364
  22   2.0000      -1.006628       -27.3917
  23   2.0000      -0.970680       -26.4136
  24   2.0000      -0.932408       -25.3721
  25   2.0000      -0.890179       -24.2230
  26   2.0000      -0.858547       -23.3622
  27   2.0000      -0.843709       -22.9585
  28   2.0000      -0.815279       -22.1849
  29   2.0000      -0.802704       -21.8427
  30   2.0000      -0.788569       -21.4580
  31   2.0000      -0.774229       -21.0678
  32   2.0000      -0.771837       -21.0027
  33   2.0000      -0.743836       -20.2408
  34   2.0000      -0.741332       -20.1727
  35   2.0000      -0.726452       -19.7678
  36   2.0000      -0.697805       -18.9882
  37   2.0000      -0.692415       -18.8416
  38   2.0000      -0.678569       -18.4648
  39   2.0000      -0.655076       -17.8255
  40   2.0000      -0.641834       -17.4652
  41   2.0000      -0.631273       -17.1778
  42   2.0000      -0.610442       -16.6110
  43   2.0000      -0.540175       -14.6989
  44   2.0000      -0.518357       -14.1052
  45   2.0000      -0.500996       -13.6328
  46   2.0000      -0.374849       -10.2002
  47   0.0000      -0.120413        -3.2766
  48   0.0000      -0.073722        -2.0061
  49   0.0000      -0.061386        -1.6704
  50   0.0000      -0.056310        -1.5323
  51   0.0000      -0.049845        -1.3564

MULLIKEN ATOMIC CHARGES
-----------------------
   0 H :    0.048176
   1 C :   -0.801643
   2 C :    1.139792
   3 H :    0.724802
   4 H :    0.082006
   5 H :   -0.036605
   6 C :   -1.052508
   7 C :   -0.062006
   8 C :   -0.237435
   9 N :   -0.459631
  10 C :   -0.374333
  11 H :    0.505815
  12 C :   -0.594700
  13 H :    0.594343
  14 H :    0.642410
  15 H :    0.653664
  16 H :    0.055985
  17 C :   -0.340729
  18 C :   -0.408300
  19 N :   -0.564317
  20 C :    0.015872
  21 H :    0.578578
  22 N :   -0.161791
  23 H :    0.232803
  24 H :    0.271012
  25 H :    0.256572
  26 H :    0.292169
Sum of atomic charges:    1.0000000

LOEWDIN ATOMIC CHARGES
----------------------
   0 H :   -0.229427
   1 C :    0.253105
   2 C :   -0.124642
   3 H :   -0.135912
   4 H :   -0.429380
   5 H :   -0.155414
   6 C :    0.603292
   7 C :    0.160020
   8 C :    0.243879
   9 N :    0.594194
  10 C :    0.171931
  11 H :   -0.104723
  12 C :    0.188048
  13 H :   -0.130376
  14 H :   -0.160314
  15 H :   -0.144515
  16 H :   -0.227323
  17 C :    0.124213
  18 C :    0.192658
  19 N :    0.474526
  20 C :    0.094224
  21 H :   -0.165293
  22 N :    0.557041
  23 H :   -0.178265
  24 H :   -0.155683
  25 H :   -0.167258
  26 H :   -0.148604

  Mayer bond orders larger than 0.100000
B(  0-H ,  9-N ) :   1.1907 B(  1-C ,  2-C ) :   1.2658 B(  1-C ,  4-H ) :   0.1869
B(  1-C ,  5-H ) :   1.5033 B(  1-C ,  6-C ) :   0.1218 B(  1-C ,  7-C ) :   1.1301
B(  1-C ,  8-C ) :  -0.1531 B(  1-C ,  9-N ) :   0.1419 B(  1-C , 10-C ) :   0.1201
B(  1-C , 11-H ) :  -0.2346 B(  2-C ,  5-H ) :  -0.1603 B(  2-C ,  6-C ) :   0.4743
B(  2-C ,  8-C ) :   1.2278 B(  2-C ,  9-N ) :  -0.1247 B(  2-C , 10-C ) :   0.1100
B(  2-C , 26-H ) :  -0.1012 B(  3-H ,  9-N ) :  -0.1265 B(  3-H , 10-C ) :   0.3298
B(  4-H ,  7-C ) :   0.6063 B(  4-H , 19-N ) :   0.5138 B(  6-C , 24-H ) :   1.0454
B(  6-C , 25-H ) :   1.0001 B(  6-C , 26-H ) :   1.0313 B(  7-C ,  9-N ) :   0.8762
B(  7-C , 10-C ) :  -0.1187 B(  7-C , 11-H ) :   0.7921 B(  8-C ,  9-N ) :  -0.2022
B(  8-C , 10-C ) :   0.9740 B(  8-C , 23-H ) :   1.1037 B(  9-N , 10-C ) :   1.2693
B( 12-C , 15-H ) :   0.4941 B( 12-C , 17-C ) :   1.3497 B( 12-C , 18-C ) :  -0.1959
B( 12-C , 20-C ) :   0.1693 B( 12-C , 22-N ) :   0.9901 B( 13-H , 18-C ) :   0.6365
B( 14-H , 19-N ) :  -0.1910 B( 14-H , 20-C ) :   0.6691 B( 16-H , 22-N ) :   1.2292
B( 17-C , 18-C ) :   0.1283 B( 17-C , 19-N ) :   0.8964 B( 17-C , 21-H ) :   0.6611
B( 17-C , 22-N ) :  -0.1417 B( 18-C , 20-C ) :   1.1689 B( 18-C , 22-N ) :   1.0310
B( 19-N , 20-C ) :   0.5919 B( 19-N , 22-N ) :  -0.1070

MP2 TOTAL ENERGY:     -552.338258363 Eh
FINAL SINGLE POINT ENERGY      -552.338258362961

DIPOLE MOMENT
-------------
                                X             Y             Z
Electronic contribution:      3.76493      -3.86198      -1.38476
Nuclear contribution   :     -2.72168       4.24154       1.68223
                        -----------------------------------------
Total Dipole Moment    :      1.04325       0.37956       0.29746
                        -----------------------------------------
Magnitude (a.u.)       :      1.14931
Magnitude (Debye)      :      2.92132

Rotational constants in cm-1:     0.045273     0.019752     0.015971
Rotational constants in MHz :  1357.239158   592.146160   478.784431

                             ****ORCA TERMINATED NORMALLY****
TOTAL RUN TIME: 0 days 0 hours 17 minutes 30 seconds 237 msec
