                         Program Version 4.2.1 -  RELEASE  -
|  1> %pal
|  2>  nprocs 32
|  3> end
|  4> !RI-MP2 aug-cc-pVTZ aug-cc-pVTZ/C TightSCF
|  5> %maxcore 4500
|  6> *xyzfile 0 1  10_39TS.xyz
|  7>
|  8>
|  9>                          ****END OF INPUT****

CARTESIAN COORDINATES (ANGSTROEM)
---------------------------------
  C      0.324097   -2.406724   -0.464664
  H     -0.000746   -2.966316   -1.362089
  C      1.432440   -1.450766   -0.838937
  C     -0.136582    0.473485   -0.535164
  H     -0.312420    0.982839    0.415592
  H     -0.252876    1.222144   -1.319603
  C     -1.201994   -0.613015   -0.688855
  H     -1.226083   -0.938286   -1.747440
  N     -0.803244   -1.738226    0.149319
  C      2.338899    0.662928   -0.064425
  C      2.643585   -1.965872   -1.274451
  H      3.126698   -1.457203   -2.089480
  H      2.791777   -3.043275   -1.266414
  C      3.543328    0.122145    0.407296
  C      4.266366   -0.947898   -0.095601
  C      1.268751   -0.086002   -0.591355
  H      4.587708   -0.905121   -1.120134
  H      3.845861    0.525487    1.372477
  C      5.196830   -1.718515    0.802491
  H      5.254309   -2.764009    0.493230
  H      6.213415   -1.314187    0.753957
  H      4.865324   -1.693973    1.841213
  C     -1.883128   -2.658220    0.446472
  H     -2.341179   -3.057395   -0.477384
  H     -1.467871   -3.507031    0.994456
  C     -2.577775   -0.075897   -0.351137
  C     -3.393980   -0.693406    0.595079
  C     -2.931331   -1.950150    1.282502
  H     -2.498062   -1.704863    2.256880
  H     -3.783827   -2.610286    1.460923
  H      0.728833   -3.142557    0.238471
  C     -4.646368   -0.149825    0.875731
  H     -5.277446   -0.637641    1.611175
  C     -3.046386    1.058436   -1.014087
  H     -2.427323    1.530596   -1.768101
  C     -5.096260    0.987113    0.228122
  H     -6.073232    1.394537    0.458584
  C     -4.291430    1.591545   -0.729804
  H     -4.635824    2.473609   -1.256079
  C      2.074175    2.040385    0.460003
  O      2.393225    2.446100    1.548329
  O      1.469801    2.817868   -0.452316
  C      1.170895    4.151209   -0.030893
  H      2.083520    4.675270    0.251589
  H      0.490981    4.136969    0.821096
  H      0.702164    4.630791   -0.886195

 Total Charge           Charge          ....    0
 Multiplicity           Mult            ....    1
 Number of Electrons    NEL             ....  166
 Basis Dimension        Dim             .... 1587

ORBITAL ENERGIES
----------------

  NO   OCC          E(Eh)            E(eV)
   0   2.0000     -20.596938      -560.4712
   1   2.0000     -20.534175      -558.7633
   2   2.0000     -15.548450      -423.0948
   3   2.0000     -11.372221      -309.4539
   4   2.0000     -11.280129      -306.9479
   5   2.0000     -11.261662      -306.4454
   6   2.0000     -11.256306      -306.2997
   7   2.0000     -11.250486      -306.1413
   8   2.0000     -11.249969      -306.1272
   9   2.0000     -11.246906      -306.0439
  10   2.0000     -11.244656      -305.9826
  11   2.0000     -11.241176      -305.8879
  12   2.0000     -11.235827      -305.7424
  13   2.0000     -11.234589      -305.7087
  14   2.0000     -11.231947      -305.6368
  15   2.0000     -11.231777      -305.6322
  16   2.0000     -11.229750      -305.5770
  17   2.0000     -11.229040      -305.5577
  18   2.0000     -11.228029      -305.5302
  19   2.0000     -11.227166      -305.5067
  20   2.0000     -11.224766      -305.4414
  21   2.0000     -11.223507      -305.4072
  22   2.0000     -11.223090      -305.3958
  23   2.0000      -1.458543       -39.6890
  24   2.0000      -1.353374       -36.8272
  25   2.0000      -1.257199       -34.2101
  26   2.0000      -1.158308       -31.5192
  27   2.0000      -1.142434       -31.0872
  28   2.0000      -1.080330       -29.3973
  29   2.0000      -1.064654       -28.9707
  30   2.0000      -1.053004       -28.6537
  31   2.0000      -1.033569       -28.1248
  32   2.0000      -1.001024       -27.2392
  33   2.0000      -0.977153       -26.5897
  34   2.0000      -0.966334       -26.2953
  35   2.0000      -0.932004       -25.3611
  36   2.0000      -0.896302       -24.3896
  37   2.0000      -0.863377       -23.4937
  38   2.0000      -0.854291       -23.2464
  39   2.0000      -0.837441       -22.7879
  40   2.0000      -0.812118       -22.0989
  41   2.0000      -0.783802       -21.3283
  42   2.0000      -0.764577       -20.8052
  43   2.0000      -0.747118       -20.3301
  44   2.0000      -0.711150       -19.3514
  45   2.0000      -0.696904       -18.9637
  46   2.0000      -0.680319       -18.5124
  47   2.0000      -0.671182       -18.2638
  48   2.0000      -0.668863       -18.2007
  49   2.0000      -0.660534       -17.9740
  50   2.0000      -0.650028       -17.6882
  51   2.0000      -0.644198       -17.5295
  52   2.0000      -0.629424       -17.1275
  53   2.0000      -0.614687       -16.7265
  54   2.0000      -0.609379       -16.5820
  55   2.0000      -0.594113       -16.1666
  56   2.0000      -0.592564       -16.1245
  57   2.0000      -0.588318       -16.0089
  58   2.0000      -0.575610       -15.6631
  59   2.0000      -0.568912       -15.4809
  60   2.0000      -0.565731       -15.3943
  61   2.0000      -0.553363       -15.0578
  62   2.0000      -0.551218       -14.9994
  63   2.0000      -0.541455       -14.7338
  64   2.0000      -0.531211       -14.4550
  65   2.0000      -0.530205       -14.4276
  66   2.0000      -0.524963       -14.2850
  67   2.0000      -0.523873       -14.2553
  68   2.0000      -0.519427       -14.1343
  69   2.0000      -0.504962       -13.7407
  70   2.0000      -0.498891       -13.5755
  71   2.0000      -0.493930       -13.4405
  72   2.0000      -0.477814       -13.0020
  73   2.0000      -0.464521       -12.6403
  74   2.0000      -0.457388       -12.4462
  75   2.0000      -0.451700       -12.2914
  76   2.0000      -0.448924       -12.2158
  77   2.0000      -0.427665       -11.6374
  78   2.0000      -0.364130        -9.9085
  79   2.0000      -0.329108        -8.9555
  80   2.0000      -0.322188        -8.7672
  81   2.0000      -0.312388        -8.5005
  82   2.0000      -0.289983        -7.8908
  83   0.0000       0.023696         0.6448
  84   0.0000       0.027161         0.7391
  85   0.0000       0.028796         0.7836
  86   0.0000       0.033082         0.9002
  87   0.0000       0.036590         0.9957

MULLIKEN ATOMIC CHARGES
-----------------------
   0 C :   -0.662149
   1 H :    0.289283
   2 C :    1.235207
   3 C :   -0.459511
   4 H :    0.220794
   5 H :    0.147555
   6 C :   -0.202363
   7 H :    0.211936
   8 N :   -0.465997
   9 C :    0.921611
  10 C :   -1.342134
  11 H :    0.253077
  12 H :    0.471434
  13 C :   -0.776432
  14 C :    0.194463
  15 C :   -0.215638
  16 H :    0.388594
  17 H :   -0.058298
  18 C :   -0.908806
  19 H :    0.265572
  20 H :    0.296265
  21 H :    0.298390
  22 C :   -0.673355
  23 H :    0.247053
  24 H :    0.343960
  25 C :    1.267368
  26 C :    1.038707
  27 C :   -0.542895
  28 H :    0.218614
  29 H :    0.228894
  30 H :    0.217933
  31 C :   -1.068155
  32 H :   -0.014870
  33 C :   -1.032501
  34 H :    0.039958
  35 C :   -0.264643
  36 H :    0.690924
  37 C :   -0.610442
  38 H :    0.425124
  39 C :    0.845620
  40 O :   -1.162224
  41 O :   -0.383647
  42 C :   -1.003181
  43 H :    0.358790
  44 H :    0.398023
  45 H :    0.332095
Sum of atomic charges:    0.0000000

LOEWDIN ATOMIC CHARGES
----------------------
   0 C :    0.161557
   1 H :   -0.124174
   2 C :   -0.090504
   3 C :    0.294881
   4 H :   -0.136854
   5 H :   -0.162931
   6 C :   -0.110902
   7 H :   -0.105481
   8 N :    0.314863
   9 C :   -0.070270
  10 C :    0.515997
  11 H :   -0.214446
  12 H :   -0.162553
  13 C :    0.206376
  14 C :    0.190021
  15 C :   -0.037396
  16 H :   -0.220116
  17 H :   -0.192174
  18 C :    0.582350
  19 H :   -0.174570
  20 H :   -0.165728
  21 H :   -0.173974
  22 C :    0.167749
  23 H :   -0.114796
  24 H :   -0.135199
  25 C :   -0.043404
  26 C :   -0.067133
  27 C :    0.301741
  28 H :   -0.130737
  29 H :   -0.143099
  30 H :   -0.131623
  31 C :    0.223459
  32 H :   -0.172752
  33 C :    0.227463
  34 H :   -0.176392
  35 C :    0.199223
  36 H :   -0.182994
  37 C :    0.203837
  38 H :   -0.183050
  39 C :   -0.845380
  40 O :    0.483551
  41 O :    0.575636
  42 C :    0.360385
  43 H :   -0.180175
  44 H :   -0.176393
  45 H :   -0.183889

  Mayer bond orders larger than 0.100000
B(  0-C ,  1-H ) :   1.1224 B(  0-C ,  2-C ) :   0.5939 B(  0-C ,  8-N ) :   0.9418
B(  0-C , 10-C ) :  -0.1676 B(  0-C , 30-H ) :   1.1697 B(  1-H ,  2-C ) :  -0.1451
B(  1-H ,  8-N ) :  -0.1196 B(  2-C ,  3-C ) :   0.2117 B(  2-C ,  6-C ) :   0.2537
B(  2-C ,  8-N ) :  -0.1191 B(  2-C , 10-C ) :   0.5092 B(  2-C , 13-C ) :   0.3727
B(  2-C , 14-C ) :  -0.2823 B(  2-C , 15-C ) :   1.0076 B(  2-C , 16-H ) :  -0.1990
B(  2-C , 30-H ) :  -0.1714 B(  2-C , 39-C ) :  -0.3057 B(  3-C ,  4-H ) :   1.0893
B(  3-C ,  5-H ) :   0.9899 B(  3-C ,  6-C ) :   0.8436 B(  3-C ,  8-N ) :   0.2800
B(  3-C , 13-C ) :   0.1040 B(  3-C , 15-C ) :   0.4988 B(  3-C , 25-C ) :   0.3277
B(  3-C , 33-C ) :  -0.1211 B(  3-C , 39-C ) :   0.1611 B(  3-C , 40-O ) :   0.1150
B(  3-C , 41-O ) :  -0.2476 B(  4-H , 15-C ) :  -0.1823 B(  5-H ,  9-C ) :  -0.1256
B(  5-H , 39-C ) :   0.1015 B(  6-C ,  7-H ) :   0.9802 B(  6-C ,  8-N ) :   0.6099
B(  6-C , 15-C ) :   0.1205 B(  6-C , 22-C ) :   0.1127 B(  6-C , 25-C ) :   0.8058
B(  6-C , 26-C ) :   0.3755 B(  6-C , 27-C ) :  -0.1143 B(  6-C , 31-C ) :  -0.1048
B(  6-C , 33-C ) :   0.7274 B(  8-N , 15-C ) :  -0.2124 B(  8-N , 22-C ) :   0.8847
B(  8-N , 25-C ) :  -0.1013 B(  8-N , 26-C ) :  -0.1045 B(  8-N , 30-H ) :  -0.1025
B(  9-C , 10-C ) :   0.1337 B(  9-C , 13-C ) :   0.4817 B(  9-C , 15-C ) :   1.3866
B(  9-C , 17-H ) :  -0.2946 B(  9-C , 41-O ) :  -0.3312 B( 10-C , 11-H ) :   1.2190
B( 10-C , 12-H ) :   0.6822 B( 10-C , 14-C ) :   0.5938 B( 10-C , 15-C ) :   0.2704
B( 10-C , 16-H ) :   0.2902 B( 10-C , 39-C ) :   0.1189 B( 13-C , 14-C ) :   0.9884
B( 13-C , 15-C ) :   0.2766 B( 13-C , 17-H ) :   1.4942 B( 13-C , 18-C ) :   0.1412
B( 13-C , 39-C ) :   0.3234 B( 14-C , 15-C ) :   0.2275 B( 14-C , 16-H ) :   0.8658
B( 14-C , 18-C ) :   0.5138 B( 15-C , 17-H ) :   0.1349 B( 15-C , 39-C ) :   0.2261
B( 15-C , 41-O ) :   0.2579 B( 18-C , 19-H ) :   0.9910 B( 18-C , 20-H ) :   0.9931
B( 18-C , 21-H ) :   0.9768 B( 22-C , 23-H ) :   1.0372 B( 22-C , 24-H ) :   0.9082
B( 22-C , 26-C ) :   0.1113 B( 22-C , 27-C ) :   1.0733 B( 25-C , 26-C ) :   0.7261
B( 25-C , 27-C ) :   0.2388 B( 25-C , 31-C ) :   0.4373 B( 25-C , 33-C ) :  -0.1370
B( 25-C , 35-C ) :  -0.1489 B( 25-C , 38-H ) :  -0.1004 B( 26-C , 28-H ) :  -0.1301
B( 26-C , 31-C ) :   0.4466 B( 26-C , 32-H ) :  -0.1026 B( 26-C , 33-C ) :  -0.2810
B( 26-C , 35-C ) :   0.3212 B( 26-C , 38-H ) :   0.1063 B( 27-C , 28-H ) :   1.1147
B( 27-C , 29-H ) :   1.0833 B( 27-C , 31-C ) :   0.1966 B( 31-C , 32-H ) :   1.6628
B( 31-C , 35-C ) :   0.9120 B( 31-C , 37-C ) :  -0.1317 B( 32-H , 35-C ) :  -0.1581
B( 33-C , 34-H ) :   1.4655 B( 33-C , 35-C ) :   0.1850 B( 33-C , 37-C ) :   1.3280
B( 35-C , 36-H ) :   0.3935 B( 35-C , 37-C ) :   1.0701 B( 37-C , 38-H ) :   0.8328
B( 39-C , 40-O ) :   0.7888 B( 39-C , 41-O ) :   1.1869 B( 41-O , 42-C ) :   0.9756
B( 42-C , 43-H ) :   0.9000 B( 42-C , 44-H ) :   0.8563 B( 42-C , 45-H ) :   0.9367

MP2 TOTAL ENERGY:     -979.168672990 Eh
FINAL SINGLE POINT ENERGY      -979.168672990200

DIPOLE MOMENT
-------------
                                X             Y             Z
Electronic contribution:     -4.61584       7.46601      -0.44517
Nuclear contribution   :      4.48370      -8.15865      -0.30744
                        -----------------------------------------
Total Dipole Moment    :     -0.13214      -0.69264      -0.75261
                        -----------------------------------------
Magnitude (a.u.)       :      1.03133
Magnitude (Debye)      :      2.62143

Rotational constants in cm-1:     0.013409     0.005928     0.004537
Rotational constants in MHz :   401.992856   177.726210   136.018717

                             ****ORCA TERMINATED NORMALLY****
TOTAL RUN TIME: 0 days 1 hours 34 minutes 25 seconds 403 msec
