                         Program Version 4.2.1 -  RELEASE  -
|  1> %pal
|  2>  nprocs 32
|  3> end
|  4> !RI-MP2 aug-cc-pVTZ aug-cc-pVTZ/C TightSCF
|  5> %maxcore 4500
|  6> *xyzfile 0 1  08_13P2.xyz
|  7>
|  8>
|  9>                          ****END OF INPUT****

CARTESIAN COORDINATES (ANGSTROEM)
---------------------------------
  C      1.724889   -1.255180   -0.000010
  C      1.397623    0.106163    0.000000
  C      2.422339    1.055301    0.000000
  C      3.748632    0.662845   -0.000008
  C      4.047088   -0.708937   -0.000023
  C      3.054236   -1.667878   -0.000023
  H      2.176561    2.111535    0.000002
  H      5.085361   -1.022510   -0.000037
  H      3.307299   -2.721006   -0.000038
  C     -0.038729    0.319260    0.000004
  C     -0.735205    1.537033    0.000012
  C     -0.728670   -0.887971   -0.000003
  C     -2.114649    1.501936    0.000014
  H     -0.190869    2.469381    0.000016
  C     -2.128515   -0.911377   -0.000001
  C     -2.815977    0.283582    0.000008
  H     -3.894956    0.326608    0.000013
  S      0.312618   -2.296874   -0.000015
  O     -2.699691   -2.138058   -0.000005
  O     -2.910043    2.605571    0.000022
  C      4.862358    1.674900    0.000033
  H      5.499638    1.560293   -0.880299
  H      4.471428    2.693015   -0.000336
  H      5.499148    1.560751    0.880783
  C     -4.111741   -2.219052   -0.000049
  H     -4.351011   -3.279647   -0.000081
  H     -4.533219   -1.749567    0.893334
  H     -4.533166   -1.749523   -0.893433
  C     -2.287918    3.872861    0.000048
  H     -1.670951    4.012712   -0.893005
  H     -3.092899    4.604263    0.000065
  H     -1.670949    4.012673    0.893106

 Total Charge           Charge          ....    0
 Multiplicity           Mult            ....    1
 Number of Electrons    NEL             ....  136
 Basis Dimension        Dim             .... 1154

ORBITAL ENERGIES
----------------

  NO   OCC          E(Eh)            E(eV)
   0   2.0000     -91.968995     -2502.6036
   1   2.0000     -20.592650      -560.3545
   2   2.0000     -20.587521      -560.2149
   3   2.0000     -11.310825      -307.7832
   4   2.0000     -11.304748      -307.6178
   5   2.0000     -11.286685      -307.1263
   6   2.0000     -11.285320      -307.0892
   7   2.0000     -11.263321      -306.4905
   8   2.0000     -11.252366      -306.1925
   9   2.0000     -11.250087      -306.1304
  10   2.0000     -11.242177      -305.9152
  11   2.0000     -11.241324      -305.8920
  12   2.0000     -11.239467      -305.8415
  13   2.0000     -11.234728      -305.7125
  14   2.0000     -11.233746      -305.6858
  15   2.0000     -11.225414      -305.4591
  16   2.0000     -11.225107      -305.4507
  17   2.0000     -11.224387      -305.4311
  18   2.0000      -8.968603      -244.0481
  19   2.0000      -6.649712      -180.9479
  20   2.0000      -6.649123      -180.9318
  21   2.0000      -6.648070      -180.9032
  22   2.0000      -1.422219       -38.7005
  23   2.0000      -1.415281       -38.5117
  24   2.0000      -1.198587       -32.6152
  25   2.0000      -1.148026       -31.2394
  26   2.0000      -1.093502       -29.7557
  27   2.0000      -1.050401       -28.5829
  28   2.0000      -1.035926       -28.1890
  29   2.0000      -0.996990       -27.1295
  30   2.0000      -0.986140       -26.8342
  31   2.0000      -0.951784       -25.8994
  32   2.0000      -0.933472       -25.4011
  33   2.0000      -0.911004       -24.7897
  34   2.0000      -0.855304       -23.2740
  35   2.0000      -0.803205       -21.8563
  36   2.0000      -0.797456       -21.6999
  37   2.0000      -0.782409       -21.2904
  38   2.0000      -0.723124       -19.6772
  39   2.0000      -0.703355       -19.1393
  40   2.0000      -0.672925       -18.3112
  41   2.0000      -0.670963       -18.2578
  42   2.0000      -0.664946       -18.0941
  43   2.0000      -0.656945       -17.8764
  44   2.0000      -0.648445       -17.6451
  45   2.0000      -0.633695       -17.2437
  46   2.0000      -0.621575       -16.9139
  47   2.0000      -0.611923       -16.6513
  48   2.0000      -0.589684       -16.0461
  49   2.0000      -0.581245       -15.8165
  50   2.0000      -0.574010       -15.6196
  51   2.0000      -0.558888       -15.2081
  52   2.0000      -0.550937       -14.9918
  53   2.0000      -0.540175       -14.6989
  54   2.0000      -0.530879       -14.4460
  55   2.0000      -0.518922       -14.1206
  56   2.0000      -0.513212       -13.9652
  57   2.0000      -0.507202       -13.8017
  58   2.0000      -0.505088       -13.7441
  59   2.0000      -0.491305       -13.3691
  60   2.0000      -0.488637       -13.2965
  61   2.0000      -0.457696       -12.4545
  62   2.0000      -0.457146       -12.4396
  63   2.0000      -0.415732       -11.3127
  64   2.0000      -0.370788       -10.0897
  65   2.0000      -0.329304        -8.9608
  66   2.0000      -0.294860        -8.0235
  67   2.0000      -0.276729        -7.5302
  68   0.0000       0.024252         0.6599
  69   0.0000       0.027810         0.7567
  70   0.0000       0.031476         0.8565
  71   0.0000       0.036486         0.9928
  72   0.0000       0.041099         1.1184

MULLIKEN ATOMIC CHARGES
-----------------------
   0 C :    0.640565
   1 C :    0.850971
   2 C :   -1.189029
   3 C :    1.485591
   4 C :   -0.462821
   5 C :   -1.088431
   6 H :   -0.292008
   7 H :    0.314327
   8 H :    0.359963
   9 C :    0.095080
  10 C :   -0.498017
  11 C :    0.978741
  12 C :    0.874539
  13 H :   -0.258246
  14 C :    0.638713
  15 C :   -0.126366
  16 H :    0.076359
  17 S :   -0.918048
  18 O :   -0.843870
  19 O :   -0.830009
  20 C :   -0.928347
  21 H :    0.258590
  22 H :    0.283916
  23 H :    0.258680
  24 C :   -0.953878
  25 H :    0.346562
  26 H :    0.379787
  27 H :    0.379790
  28 C :   -0.926057
  29 H :    0.364405
  30 H :    0.364140
  31 H :    0.364409
Sum of atomic charges:    0.0000000

LOEWDIN ATOMIC CHARGES
----------------------
   0 C :   -0.487692
   1 C :   -0.173199
   2 C :    0.246710
   3 C :   -0.120580
   4 C :    0.210141
   5 C :    0.155043
   6 H :   -0.176036
   7 H :   -0.173604
   8 H :   -0.187235
   9 C :   -0.189897
  10 C :    0.233556
  11 C :   -0.481266
  12 C :   -0.383811
  13 H :   -0.210923
  14 C :   -0.445228
  15 C :    0.220120
  16 H :   -0.202635
  17 S :    1.315880
  18 O :    0.566474
  19 O :    0.579087
  20 C :    0.576741
  21 H :   -0.166170
  22 H :   -0.179510
  23 H :   -0.166159
  24 C :    0.346949
  25 H :   -0.177959
  26 H :   -0.171174
  27 H :   -0.171176
  28 C :    0.337606
  29 H :   -0.172311
  30 H :   -0.179429
  31 H :   -0.172311

  Mayer bond orders larger than 0.100000
B(  0-C ,  1-C ) :   0.7912 B(  0-C ,  2-C ) :  -0.4926 B(  0-C ,  3-C ) :   0.4483
B(  0-C ,  5-C ) :   0.7407 B(  0-C ,  9-C ) :   0.7007 B(  0-C , 10-C ) :   0.1565
B(  0-C , 11-C ) :  -0.3384 B(  0-C , 12-C ) :  -0.2144 B(  0-C , 13-H ) :   0.2998
B(  0-C , 15-C ) :  -0.2282 B(  0-C , 17-S ) :   0.7180 B(  1-C ,  5-C ) :   0.3380
B(  1-C ,  6-H ) :  -0.3102 B(  1-C ,  9-C ) :   0.1992 B(  1-C , 11-C ) :   0.3927
B(  1-C , 12-C ) :   0.3505 B(  1-C , 13-H ) :  -0.6182 B(  1-C , 14-C ) :   0.2944
B(  1-C , 15-C ) :   0.2281 B(  2-C ,  3-C ) :   0.9532 B(  2-C ,  6-H ) :   2.2538
B(  2-C ,  8-H ) :   0.1178 B(  2-C ,  9-C ) :   0.1659 B(  2-C , 10-C ) :  -0.1979
B(  2-C , 11-C ) :   0.1784 B(  2-C , 12-C ) :   0.1257 B(  2-C , 13-H ) :  -0.2634
B(  2-C , 14-C ) :  -0.1782 B(  2-C , 20-C ) :  -0.1402 B(  3-C ,  4-C ) :   0.4373
B(  3-C ,  5-C ) :   0.1198 B(  3-C ,  6-H ) :  -0.2681 B(  3-C ,  7-H ) :  -0.2109
B(  3-C , 10-C ) :   0.1905 B(  3-C , 11-C ) :  -0.1966 B(  3-C , 20-C ) :   0.2591
B(  3-C , 21-H ) :  -0.1235 B(  3-C , 23-H ) :  -0.1236 B(  4-C ,  5-C ) :   1.0689
B(  4-C ,  7-H ) :   1.0556 B(  4-C ,  9-C ) :   0.2609 B(  4-C , 17-S ) :  -0.1113
B(  5-C ,  8-H ) :   0.9240 B(  5-C , 11-C ) :  -0.1884 B(  5-C , 14-C ) :   0.1347
B(  5-C , 17-S ) :  -0.2988 B(  6-H ,  9-C ) :  -0.1693 B(  7-H , 10-C ) :   0.1013
B(  8-H ,  9-C ) :   0.1485 B(  8-H , 10-C ) :  -0.1973 B(  9-C , 10-C ) :   0.2173
B(  9-C , 12-C ) :  -0.1442 B(  9-C , 13-H ) :  -0.2923 B(  9-C , 15-C ) :  -0.1229
B(  9-C , 17-S ) :   1.1129 B(  9-C , 18-O ) :   0.1194 B(  9-C , 19-O ) :   0.1130
B( 10-C , 11-C ) :  -0.8722 B( 10-C , 12-C ) :   1.0567 B( 10-C , 13-H ) :   2.6266
B( 10-C , 15-C ) :  -0.6073 B( 10-C , 19-O ) :  -0.4884 B( 10-C , 28-C ) :  -0.1383
B( 11-C , 12-C ) :   0.8019 B( 11-C , 13-H ) :  -0.1437 B( 11-C , 14-C ) :   0.5537
B( 11-C , 15-C ) :  -0.1408 B( 11-C , 16-H ) :   0.1545 B( 11-C , 18-O ) :   0.4780
B( 11-C , 24-C ) :   0.2864 B( 12-C , 13-H ) :  -0.2896 B( 12-C , 14-C ) :   0.2859
B( 12-C , 15-C ) :   0.8503 B( 12-C , 16-H ) :  -0.1906 B( 12-C , 19-O ) :   0.2138
B( 13-H , 14-C ) :  -0.1191 B( 13-H , 20-C ) :   0.1091 B( 13-H , 28-C ) :  -0.1865
B( 14-C , 15-C ) :   1.7110 B( 14-C , 16-H ) :  -0.2966 B( 14-C , 17-S ) :  -0.1004
B( 14-C , 18-O ) :   0.1734 B( 14-C , 24-C ) :  -0.1439 B( 14-C , 25-H ) :   0.1160
B( 15-C , 16-H ) :   1.4310 B( 15-C , 17-S ) :  -0.1854 B( 15-C , 18-O ) :  -0.7849
B( 15-C , 19-O ) :   0.3073 B( 15-C , 24-C ) :  -0.2203 B( 15-C , 28-C ) :   0.1204
B( 16-H , 19-O ) :   0.1378 B( 16-H , 24-C ) :  -0.1460 B( 18-O , 24-C ) :   1.0684
B( 19-O , 28-C ) :   0.9986 B( 20-C , 21-H ) :   1.0669 B( 20-C , 22-H ) :   0.9909
B( 20-C , 23-H ) :   1.0668 B( 24-C , 25-H ) :   0.9384 B( 24-C , 26-H ) :   0.8748
B( 24-C , 27-H ) :   0.8748 B( 28-C , 29-H ) :   0.8867 B( 28-C , 30-H ) :   0.9357
B( 28-C , 31-H ) :   0.8867

MP2 TOTAL ENERGY:    -1126.784452797 Eh
FINAL SINGLE POINT ENERGY     -1126.784452797042

DIPOLE MOMENT
-------------
                                X             Y             Z
Electronic contribution:     -2.05038     -11.88397      -0.00008
Nuclear contribution   :      1.98072      12.76147       0.00009
                        -----------------------------------------
Total Dipole Moment    :     -0.06966       0.87750       0.00001
                        -----------------------------------------
Magnitude (a.u.)       :      0.88026
Magnitude (Debye)      :      2.23745

Rotational constants in cm-1:     0.019066     0.009123     0.006192
Rotational constants in MHz :   571.571113   273.486799   185.627574

                             ****ORCA TERMINATED NORMALLY****
TOTAL RUN TIME: 0 days 0 hours 29 minutes 48 seconds 540 msec
