                         Program Version 4.2.1 -  RELEASE  -
|  1> %pal
|  2>  nprocs 32
|  3> end
|  4> !RI-MP2 aug-cc-pVTZ aug-cc-pVTZ/C TightSCF
|  5> %maxcore 4500
|  6> *xyzfile 1 1  08_13TS.xyz
|  7>
|  8>
|  9>                          ****END OF INPUT****

CARTESIAN COORDINATES (ANGSTROEM)
---------------------------------
  C     -0.864787   -1.593375   -0.791594
  C     -1.700986   -0.618360   -0.241376
  C     -2.984266   -0.980127    0.155651
  C     -3.424948   -2.289444    0.012996
  C     -2.558263   -3.240349   -0.541251
  C     -1.279910   -2.906120   -0.952449
  H     -3.648982   -0.235785    0.577976
  H     -2.901251   -4.261492   -0.660106
  H     -0.632855   -3.652448   -1.396668
  C     -1.056218    0.692352   -0.168020
  C     -1.579946    1.890731    0.313195
  C      0.243945    0.648671   -0.657811
  C     -0.767357    3.018428    0.296055
  H     -2.592902    1.932504    0.683395
  C      1.070127    1.773366   -0.650406
  C      0.554878    2.962108   -0.177207
  H      1.134721    3.872848   -0.152409
  S      0.715584   -0.939873   -1.242796
  O      2.331575    1.582773   -1.099474
  O     -1.151692    4.232611    0.725582
  C     -4.813587   -2.688752    0.425662
  H     -5.324394   -1.878090    0.944569
  H     -5.413046   -2.958985   -0.446771
  H     -4.792438   -3.556168    1.088022
  C      3.168691    2.724700   -1.260829
  H      3.374154    3.196951   -0.297507
  H      2.708593    3.446113   -1.938754
  H      4.094711    2.357167   -1.694447
  C     -2.475227    4.404787    1.210686
  H     -2.653391    3.784060    2.092638
  H     -2.556403    5.453106    1.483883
  H     -3.209356    4.172611    0.435087
  C      2.199466   -1.552155    0.523830
  H      2.378616   -2.479414    0.007056
  H      2.782117   -0.697069    0.219320
  C      1.245407   -1.467176    1.670321
  H      1.780881   -1.510838    2.618775
  H      0.708066   -0.518211    1.656881
  H      0.524208   -2.282649    1.652091
  N      4.037934   -2.120720    1.614405
  H      4.258255   -1.380741    2.274408
  H      3.852063   -2.958966    2.157208
  C      5.142348   -2.333726    0.671287
  H      6.078814   -2.600419    1.165592
  H      5.302347   -1.423541    0.092622
  H      4.877324   -3.133956   -0.020264

 Total Charge           Charge          ....    1
 Multiplicity           Mult            ....    1
 Number of Electrons    NEL             ....  170
 Basis Dimension        Dim             .... 1568

ORBITAL ENERGIES
----------------

  NO   OCC          E(Eh)            E(eV)
   0   2.0000     -92.118110     -2506.6612
   1   2.0000     -20.704289      -563.3923
   2   2.0000     -20.683126      -562.8165
   3   2.0000     -15.704319      -427.3363
   4   2.0000     -11.469565      -312.1027
   5   2.0000     -11.424184      -310.8679
   6   2.0000     -11.414874      -310.6145
   7   2.0000     -11.386518      -309.8429
   8   2.0000     -11.380006      -309.6657
   9   2.0000     -11.375980      -309.5561
  10   2.0000     -11.370086      -309.3958
  11   2.0000     -11.369910      -309.3910
  12   2.0000     -11.366362      -309.2944
  13   2.0000     -11.363308      -309.2113
  14   2.0000     -11.360490      -309.1346
  15   2.0000     -11.353471      -308.9437
  16   2.0000     -11.349475      -308.8349
  17   2.0000     -11.341316      -308.6129
  18   2.0000     -11.339666      -308.5680
  19   2.0000     -11.331143      -308.3361
  20   2.0000     -11.331121      -308.3355
  21   2.0000     -11.312704      -307.8343
  22   2.0000      -9.117001      -248.0862
  23   2.0000      -6.797959      -184.9819
  24   2.0000      -6.797502      -184.9694
  25   2.0000      -6.796613      -184.9452
  26   2.0000      -1.531573       -41.6762
  27   2.0000      -1.514654       -41.2158
  28   2.0000      -1.330900       -36.2156
  29   2.0000      -1.317500       -35.8510
  30   2.0000      -1.258941       -34.2575
  31   2.0000      -1.211947       -32.9788
  32   2.0000      -1.184563       -32.2336
  33   2.0000      -1.162470       -31.6324
  34   2.0000      -1.143456       -31.1150
  35   2.0000      -1.106945       -30.1215
  36   2.0000      -1.094283       -29.7770
  37   2.0000      -1.053608       -28.6701
  38   2.0000      -1.038099       -28.2481
  39   2.0000      -1.035495       -28.1772
  40   2.0000      -1.022225       -27.8162
  41   2.0000      -0.994930       -27.0734
  42   2.0000      -0.964368       -26.2418
  43   2.0000      -0.915589       -24.9144
  44   2.0000      -0.904122       -24.6024
  45   2.0000      -0.890827       -24.2406
  46   2.0000      -0.828518       -22.5451
  47   2.0000      -0.827100       -22.5065
  48   2.0000      -0.810483       -22.0544
  49   2.0000      -0.793138       -21.5824
  50   2.0000      -0.778291       -21.1784
  51   2.0000      -0.775912       -21.1136
  52   2.0000      -0.769326       -20.9344
  53   2.0000      -0.758527       -20.6406
  54   2.0000      -0.751716       -20.4552
  55   2.0000      -0.749493       -20.3948
  56   2.0000      -0.741826       -20.1861
  57   2.0000      -0.737319       -20.0635
  58   2.0000      -0.728666       -19.8280
  59   2.0000      -0.716105       -19.4862
  60   2.0000      -0.711235       -19.3537
  61   2.0000      -0.699179       -19.0256
  62   2.0000      -0.694241       -18.8912
  63   2.0000      -0.675617       -18.3845
  64   2.0000      -0.672895       -18.3104
  65   2.0000      -0.666898       -18.1472
  66   2.0000      -0.659096       -17.9349
  67   2.0000      -0.655807       -17.8454
  68   2.0000      -0.653798       -17.7907
  69   2.0000      -0.640888       -17.4394
  70   2.0000      -0.634076       -17.2541
  71   2.0000      -0.625503       -17.0208
  72   2.0000      -0.621328       -16.9072
  73   2.0000      -0.607369       -16.5273
  74   2.0000      -0.607176       -16.5221
  75   2.0000      -0.603606       -16.4250
  76   2.0000      -0.590274       -16.0622
  77   2.0000      -0.586387       -15.9564
  78   2.0000      -0.566399       -15.4125
  79   2.0000      -0.559268       -15.2184
  80   2.0000      -0.524507       -14.2726
  81   2.0000      -0.478234       -13.0134
  82   2.0000      -0.438907       -11.9433
  83   2.0000      -0.408251       -11.1091
  84   2.0000      -0.400359       -10.8943
  85   0.0000      -0.064663        -1.7596
  86   0.0000      -0.052782        -1.4363
  87   0.0000      -0.050041        -1.3617
  88   0.0000      -0.043476        -1.1830
  89   0.0000      -0.041673        -1.1340

MULLIKEN ATOMIC CHARGES
-----------------------
   0 C :    1.004325
   1 C :    0.395147
   2 C :   -1.208652
   3 C :    1.501171
   4 C :   -0.442939
   5 C :   -0.923641
   6 H :   -0.269018
   7 H :    0.229315
   8 H :    0.377129
   9 C :    0.586965
  10 C :   -0.884547
  11 C :    1.021143
  12 C :    1.084598
  13 H :   -0.267267
  14 C :    0.721560
  15 C :   -0.295227
  16 H :    0.045004
  17 S :   -0.881014
  18 O :   -0.772056
  19 O :   -0.914344
  20 C :   -0.972410
  21 H :    0.286851
  22 H :    0.307825
  23 H :    0.264283
  24 C :   -1.047596
  25 H :    0.426528
  26 H :    0.403083
  27 H :    0.298477
  28 C :   -0.941837
  29 H :    0.373286
  30 H :    0.373973
  31 H :    0.386507
  32 C :   -0.619487
  33 H :    0.506061
  34 H :    0.601925
  35 C :   -0.894055
  36 H :    0.164904
  37 H :    0.476447
  38 H :    0.392578
  39 N :   -0.047293
  40 H :    0.017336
  41 H :    0.001894
  42 C :   -0.976855
  43 H :    0.363200
  44 H :    0.386049
  45 H :    0.360675
Sum of atomic charges:    1.0000000

LOEWDIN ATOMIC CHARGES
----------------------
   0 C :   -0.416459
   1 C :   -0.160270
   2 C :    0.267158
   3 C :   -0.098827
   4 C :    0.233974
   5 C :    0.174691
   6 H :   -0.166706
   7 H :   -0.163046
   8 H :   -0.176439
   9 C :   -0.179803
  10 C :    0.254036
  11 C :   -0.425652
  12 C :   -0.371759
  13 H :   -0.201957
  14 C :   -0.440167
  15 C :    0.240298
  16 H :   -0.190662
  17 S :    1.452443
  18 O :    0.568598
  19 O :    0.592635
  20 C :    0.597372
  21 H :   -0.171979
  22 H :   -0.156042
  23 H :   -0.161025
  24 C :    0.373736
  25 H :   -0.169112
  26 H :   -0.162858
  27 H :   -0.173739
  28 C :    0.369263
  29 H :   -0.168709
  30 H :   -0.171487
  31 H :   -0.167293
  32 C :    0.400948
  33 H :   -0.203787
  34 H :   -0.214552
  35 C :    0.584772
  36 H :   -0.164111
  37 H :   -0.182653
  38 H :   -0.154319
  39 N :    0.795965
  40 H :   -0.265648
  41 H :   -0.263236
  42 C :    0.515076
  43 H :   -0.154664
  44 H :   -0.162228
  45 H :   -0.161775

  Mayer bond orders larger than 0.100000
B(  0-C ,  1-C ) :   1.1362 B(  0-C ,  2-C ) :  -0.5414 B(  0-C ,  3-C ) :   0.3198
B(  0-C ,  4-C ) :  -0.1328 B(  0-C ,  5-C ) :   0.5153 B(  0-C ,  8-H ) :   0.1838
B(  0-C ,  9-C ) :   0.4212 B(  0-C , 10-C ) :   0.1688 B(  0-C , 11-C ) :   0.1607
B(  0-C , 12-C ) :  -0.2115 B(  0-C , 13-H ) :   0.2778 B(  0-C , 14-C ) :  -0.3056
B(  0-C , 15-C ) :  -0.1413 B(  0-C , 17-S ) :   0.5236 B(  1-C ,  2-C ) :  -0.1738
B(  1-C ,  3-C ) :   0.2031 B(  1-C ,  5-C ) :   0.4641 B(  1-C ,  6-H ) :  -0.3464
B(  1-C ,  7-H ) :   0.1002 B(  1-C ,  8-H ) :  -0.1318 B(  1-C ,  9-C ) :   0.2924
B(  1-C , 10-C ) :   0.3942 B(  1-C , 11-C ) :   0.1080 B(  1-C , 12-C ) :   0.3476
B(  1-C , 13-H ) :  -0.5553 B(  1-C , 14-C ) :   0.3389 B(  1-C , 15-C ) :   0.2163
B(  1-C , 17-S ) :   0.6246 B(  1-C , 20-C ) :  -0.1116 B(  2-C ,  3-C ) :   0.8852
B(  2-C ,  6-H ) :   2.2090 B(  2-C ,  8-H ) :   0.1358 B(  2-C ,  9-C ) :   0.1844
B(  2-C , 10-C ) :  -0.2276 B(  2-C , 11-C ) :   0.1521 B(  2-C , 13-H ) :  -0.1656
B(  3-C ,  4-C ) :   0.4578 B(  3-C ,  5-C ) :   0.1292 B(  3-C ,  6-H ) :  -0.3037
B(  3-C ,  7-H ) :  -0.2657 B(  3-C , 10-C ) :   0.2043 B(  3-C , 11-C ) :  -0.1322
B(  3-C , 20-C ) :   0.2309 B(  3-C , 22-H ) :  -0.1439 B(  4-C ,  5-C ) :   1.0435
B(  4-C ,  7-H ) :   1.2350 B(  4-C ,  8-H ) :  -0.1038 B(  4-C ,  9-C ) :   0.1577
B(  4-C , 17-S ) :  -0.1514 B(  5-C ,  8-H ) :   0.8807 B(  5-C , 11-C ) :  -0.2377
B(  5-C , 14-C ) :   0.2024 B(  5-C , 17-S ) :  -0.4959 B(  8-H , 10-C ) :  -0.1172
B(  9-C , 10-C ) :  -0.8542 B(  9-C , 11-C ) :   0.3969 B(  9-C , 13-H ) :  -0.4452
B(  9-C , 14-C ) :   0.4284 B(  9-C , 15-C ) :  -0.1377 B(  9-C , 17-S ) :   0.7491
B(  9-C , 35-C ) :  -0.1006 B( 10-C , 11-C ) :  -0.6000 B( 10-C , 12-C ) :   1.0073
B( 10-C , 13-H ) :   2.7722 B( 10-C , 15-C ) :  -0.2386 B( 10-C , 19-O ) :  -0.3972
B( 10-C , 28-C ) :  -0.1967 B( 11-C , 12-C ) :   0.8162 B( 11-C , 13-H ) :  -0.1347
B( 11-C , 14-C ) :   0.3856 B( 11-C , 15-C ) :  -0.2798 B( 11-C , 16-H ) :   0.1439
B( 11-C , 17-S ) :   0.4202 B( 11-C , 18-O ) :   0.2541 B( 11-C , 24-C ) :   0.2398
B( 12-C , 13-H ) :  -0.2460 B( 12-C , 14-C ) :   0.1598 B( 12-C , 15-C ) :   0.8513
B( 12-C , 16-H ) :  -0.2741 B( 12-C , 18-O ) :   0.1072 B( 13-H , 14-C ) :  -0.1179
B( 13-H , 28-C ) :  -0.2033 B( 14-C , 15-C ) :   1.3632 B( 14-C , 16-H ) :  -0.3279
B( 14-C , 17-S ) :  -0.4261 B( 14-C , 18-O ) :   0.2538 B( 14-C , 24-C ) :  -0.1727
B( 14-C , 27-H ) :   0.1258 B( 15-C , 16-H ) :   1.4732 B( 15-C , 17-S ) :  -0.1749
B( 15-C , 18-O ) :  -0.6798 B( 15-C , 19-O ) :   0.3206 B( 15-C , 24-C ) :  -0.2174
B( 15-C , 28-C ) :   0.1317 B( 16-H , 19-O ) :   0.1838 B( 16-H , 24-C ) :  -0.1293
B( 17-S , 32-C ) :   0.4795 B( 18-O , 24-C ) :   1.0976 B( 19-O , 28-C ) :   0.9868
B( 20-C , 21-H ) :   0.9977 B( 20-C , 22-H ) :   1.0301 B( 20-C , 23-H ) :   1.0642
B( 24-C , 25-H ) :   0.8361 B( 24-C , 26-H ) :   0.8510 B( 24-C , 27-H ) :   1.0171
B( 28-C , 29-H ) :   0.8766 B( 28-C , 30-H ) :   0.9353 B( 28-C , 31-H ) :   0.8760
B( 32-C , 33-H ) :   0.7429 B( 32-C , 34-H ) :   0.6828 B( 32-C , 35-C ) :   0.7436
B( 34-H , 35-C ) :   0.1456 B( 35-C , 36-H ) :   1.0417 B( 35-C , 37-H ) :   0.7872
B( 35-C , 38-H ) :   0.9193 B( 39-N , 40-H ) :   1.0823 B( 39-N , 41-H ) :   1.0806
B( 39-N , 42-C ) :   0.8972 B( 42-C , 43-H ) :   0.9027 B( 42-C , 44-H ) :   0.8428
B( 42-C , 45-H ) :   0.8693

MP2 TOTAL ENERGY:    -1301.237211970 Eh
FINAL SINGLE POINT ENERGY     -1301.237211969792

DIPOLE MOMENT
-------------
                                X             Y             Z
Electronic contribution:     -7.87971       5.66448     -11.15058
Nuclear contribution   :     10.23598      -7.26617      12.69105
                        -----------------------------------------
Total Dipole Moment    :      2.35627      -1.60169       1.54046
                        -----------------------------------------
Magnitude (a.u.)       :      3.23890
Magnitude (Debye)      :      8.23263

Rotational constants in cm-1:     0.008136     0.007443     0.004448
Rotational constants in MHz :   243.905454   223.145241   133.341413

                             ****ORCA TERMINATED NORMALLY****
TOTAL RUN TIME: 0 days 1 hours 19 minutes 13 seconds 956 msec
