                         Program Version 4.2.1 -  RELEASE  -
|  1> %pal
|  2>  nprocs 32
|  3> end
|  4> !RI-MP2 aug-cc-pVTZ aug-cc-pVTZ/C TightSCF
|  5> %maxcore 4500
|  6> *xyzfile 1 1  05_5R2.xyz
|  7>
|  8>
|  9>                          ****END OF INPUT****

CARTESIAN COORDINATES (ANGSTROEM)
---------------------------------
  C      1.173098   -0.640907    0.000038
  H     -2.079210   -1.231129    0.000036
  H     -2.065072    1.311037   -0.000071
  C      1.142423    0.743089   -0.000022
  C     -1.173103   -0.640898    0.000016
  N      0.000005    1.418718   -0.000060
  C     -1.142423    0.743090   -0.000045
  N     -0.000001   -1.287381    0.000055
  H      2.065080    1.311025   -0.000033
  H      2.079206   -1.231135    0.000074
  H     -0.000005   -2.305394    0.000102

 Total Charge           Charge          ....    1
 Multiplicity           Mult            ....    1
 Number of Electrons    NEL             ....   42
 Basis Dimension        Dim             ....  391

ORBITAL ENERGIES
----------------

  NO   OCC          E(Eh)            E(eV)
   0   2.0000     -15.897604      -432.5958
   1   2.0000     -15.801319      -429.9758
   2   2.0000     -11.522939      -313.5551
   3   2.0000     -11.522909      -313.5543
   4   2.0000     -11.488086      -312.6067
   5   2.0000     -11.488071      -312.6063
   6   2.0000      -1.571582       -42.7649
   7   2.0000      -1.458194       -39.6795
   8   2.0000      -1.287643       -35.0385
   9   2.0000      -1.153641       -31.3922
  10   2.0000      -1.123802       -30.5802
  11   2.0000      -1.010306       -27.4918
  12   2.0000      -0.938615       -25.5410
  13   2.0000      -0.895406       -24.3652
  14   2.0000      -0.855062       -23.2674
  15   2.0000      -0.841038       -22.8858
  16   2.0000      -0.825874       -22.4732
  17   2.0000      -0.769213       -20.9313
  18   2.0000      -0.672948       -18.3118
  19   2.0000      -0.639682       -17.4066
  20   2.0000      -0.572182       -15.5699
  21   0.0000      -0.154490        -4.2039
  22   0.0000      -0.104338        -2.8392
  23   0.0000      -0.093669        -2.5489
  24   0.0000      -0.074754        -2.0342
  25   0.0000      -0.070312        -1.9133

MULLIKEN ATOMIC CHARGES
-----------------------
   0 C :   -0.464817
   1 H :    0.638229
   2 H :    0.611903
   3 C :   -0.185622
   4 C :   -0.464826
   5 N :   -0.424860
   6 C :   -0.185619
   7 N :    0.088938
   8 H :    0.611902
   9 H :    0.638229
  10 H :    0.136542
Sum of atomic charges:    1.0000000

LOEWDIN ATOMIC CHARGES
----------------------
   0 C :    0.246085
   1 H :   -0.121402
   2 H :   -0.158321
   3 C :    0.113876
   4 C :    0.246083
   5 N :    0.445783
   6 C :    0.113877
   7 N :    0.577490
   8 H :   -0.158321
   9 H :   -0.121401
  10 H :   -0.183749

  Mayer bond orders larger than 0.100000
B(  0-C ,  3-C ) :   1.1326 B(  0-C ,  4-C ) :  -0.1577 B(  0-C ,  6-C ) :   0.1628
B(  0-C ,  7-N ) :   1.1723 B(  0-C ,  9-H ) :   0.5512 B(  1-H ,  4-C ) :   0.5512
B(  2-H ,  6-C ) :   0.5746 B(  3-C ,  4-C ) :   0.1628 B(  3-C ,  5-N ) :   0.9729
B(  3-C ,  6-C ) :  -0.1159 B(  3-C ,  7-N ) :  -0.1121 B(  3-C ,  8-H ) :   0.5746
B(  4-C ,  6-C ) :   1.1326 B(  4-C ,  7-N ) :   1.1723 B(  5-N ,  6-C ) :   0.9729
B(  6-C ,  7-N ) :  -0.1121 B(  7-N , 10-H ) :   1.0907

MP2 TOTAL ENERGY:     -264.148758913 Eh
FINAL SINGLE POINT ENERGY      -264.148758913037

DIPOLE MOMENT
-------------
                                X             Y             Z
Electronic contribution:      0.00002       0.31072      -0.00003
Nuclear contribution   :     -0.00000      -2.13581       0.00011
                        -----------------------------------------
Total Dipole Moment    :      0.00002      -1.82509       0.00008
                        -----------------------------------------
Magnitude (a.u.)       :      1.82509
Magnitude (Debye)      :      4.63901

Rotational constants in cm-1:     0.206278     0.195200     0.100293
Rotational constants in MHz :  6184.072384  5851.941244  3006.712136

                             ****ORCA TERMINATED NORMALLY****
TOTAL RUN TIME: 0 days 0 hours 0 minutes 56 seconds 537 msec
