                         Program Version 4.2.1 -  RELEASE  -
|  1> %pal
|  2>  nprocs 32
|  3> end
|  4> !RI-MP2 aug-cc-pVTZ aug-cc-pVTZ/C TightSCF
|  5> %maxcore 4500
|  6> *xyzfile 0 1  02_48R1.xyz
|  7>
|  8>
|  9>                          ****END OF INPUT****

CARTESIAN COORDINATES (ANGSTROEM)
---------------------------------
  C      2.663836   -0.703286    0.000015
  C      1.481755   -1.396616    0.000008
  C      0.254755   -0.701825    0.000002
  C      0.254755    0.701825    0.000002
  C      1.481755    1.396616    0.000008
  C      2.663836    0.703286    0.000015
  H      3.605713   -1.238204    0.000020
  H      1.486940   -2.478563    0.000008
  C     -1.023004   -1.348784   -0.000005
  C     -1.023004    1.348784   -0.000005
  H      1.486940    2.478563    0.000008
  H      3.605713    1.238204    0.000020
  N     -2.139768   -0.678130   -0.000012
  N     -2.139768    0.678130   -0.000012
  C     -1.141647    2.843363   -0.000008
  H     -0.666232    3.278786    0.882433
  H     -0.666216    3.278785   -0.882439
  H     -2.196003    3.110234   -0.000017
  C     -1.141647   -2.843363   -0.000008
  H     -0.666216   -3.278785   -0.882439
  H     -0.666232   -3.278786    0.882433
  H     -2.196003   -3.110234   -0.000017

 Total Charge           Charge          ....    0
 Multiplicity           Mult            ....    1
 Number of Electrons    NEL             ....   84
 Basis Dimension        Dim             ....  782

ORBITAL ENERGIES
----------------

  NO   OCC          E(Eh)            E(eV)
   0   2.0000     -15.584569      -424.0777
   1   2.0000     -15.583865      -424.0585
   2   2.0000     -11.281068      -306.9735
   3   2.0000     -11.281045      -306.9728
   4   2.0000     -11.261551      -306.4424
   5   2.0000     -11.260396      -306.4110
   6   2.0000     -11.258253      -306.3526
   7   2.0000     -11.257383      -306.3290
   8   2.0000     -11.256214      -306.2972
   9   2.0000     -11.255947      -306.2899
  10   2.0000     -11.227514      -305.5162
  11   2.0000     -11.227514      -305.5162
  12   2.0000      -1.328055       -36.1382
  13   2.0000      -1.181181       -32.1416
  14   2.0000      -1.145012       -31.1574
  15   2.0000      -1.070516       -29.1302
  16   2.0000      -1.041336       -28.3362
  17   2.0000      -0.998964       -27.1832
  18   2.0000      -0.951180       -25.8829
  19   2.0000      -0.879376       -23.9290
  20   2.0000      -0.877021       -23.8650
  21   2.0000      -0.802889       -21.8477
  22   2.0000      -0.743925       -20.2432
  23   2.0000      -0.721281       -19.6271
  24   2.0000      -0.674682       -18.3590
  25   2.0000      -0.644175       -17.5289
  26   2.0000      -0.627460       -17.0740
  27   2.0000      -0.612141       -16.6572
  28   2.0000      -0.595174       -16.1955
  29   2.0000      -0.583919       -15.8892
  30   2.0000      -0.583606       -15.8807
  31   2.0000      -0.556409       -15.1407
  32   2.0000      -0.543521       -14.7900
  33   2.0000      -0.537375       -14.6227
  34   2.0000      -0.535392       -14.5688
  35   2.0000      -0.518149       -14.0995
  36   2.0000      -0.499621       -13.5954
  37   2.0000      -0.446517       -12.1503
  38   2.0000      -0.396445       -10.7878
  39   2.0000      -0.391325       -10.6485
  40   2.0000      -0.359919        -9.7939
  41   2.0000      -0.324835        -8.8392
  42   0.0000       0.022145         0.6026
  43   0.0000       0.026508         0.7213
  44   0.0000       0.034464         0.9378
  45   0.0000       0.041076         1.1177
  46   0.0000       0.042434         1.1547

MULLIKEN ATOMIC CHARGES
-----------------------
   0 C :   -0.394086
   1 C :   -0.972413
   2 C :    1.236844
   3 C :    1.236756
   4 C :   -0.972367
   5 C :   -0.394124
   6 H :    0.521912
   7 H :   -0.167498
   8 C :    0.281892
   9 C :    0.281974
  10 H :   -0.167474
  11 H :    0.521922
  12 N :   -0.558358
  13 N :   -0.558352
  14 C :   -0.859534
  15 H :    0.292684
  16 H :    0.292684
  17 H :    0.325845
  18 C :   -0.859513
  19 H :    0.292683
  20 H :    0.292683
  21 H :    0.325841
Sum of atomic charges:    0.0000000

LOEWDIN ATOMIC CHARGES
----------------------
   0 C :    0.221259
   1 C :    0.235444
   2 C :   -0.095390
   3 C :   -0.095390
   4 C :    0.235444
   5 C :    0.221259
   6 H :   -0.176710
   7 H :   -0.182539
   8 C :   -0.295357
   9 C :   -0.295356
  10 H :   -0.182539
  11 H :   -0.176710
  12 N :    0.240108
  13 N :    0.240108
  14 C :    0.566935
  15 H :   -0.166000
  16 H :   -0.166002
  17 H :   -0.181746
  18 C :    0.566935
  19 H :   -0.166002
  20 H :   -0.166000
  21 H :   -0.181746

  Mayer bond orders larger than 0.100000
B(  0-C ,  1-C ) :   0.9380 B(  0-C ,  2-C ) :   0.1509 B(  0-C ,  4-C ) :  -0.1481
B(  0-C ,  5-C ) :   1.0060 B(  0-C ,  6-H ) :   0.6933 B(  0-C ,  7-H ) :  -0.1878
B(  0-C ,  9-C ) :   0.1004 B(  1-C ,  3-C ) :  -0.1835 B(  1-C ,  4-C ) :   0.2231
B(  1-C ,  5-C ) :  -0.1480 B(  1-C ,  6-H ) :  -0.2111 B(  1-C ,  7-H ) :   2.1575
B(  1-C , 10-H ) :   0.1211 B(  1-C , 12-N ) :  -0.1055 B(  2-C ,  3-C ) :   0.5095
B(  2-C ,  4-C ) :  -0.1835 B(  2-C ,  8-C ) :   0.3663 B(  2-C ,  9-C ) :   0.3213
B(  2-C , 10-H ) :  -0.1278 B(  2-C , 11-H ) :   0.2870 B(  2-C , 12-N ) :  -0.1474
B(  2-C , 18-C ) :   0.1722 B(  3-C ,  5-C ) :   0.1509 B(  3-C ,  6-H ) :   0.2870
B(  3-C ,  7-H ) :  -0.1278 B(  3-C ,  8-C ) :   0.3213 B(  3-C ,  9-C ) :   0.3663
B(  3-C , 13-N ) :  -0.1474 B(  3-C , 14-C ) :   0.1722 B(  4-C ,  5-C ) :   0.9380
B(  4-C ,  7-H ) :   0.1211 B(  4-C , 10-H ) :   2.1575 B(  4-C , 11-H ) :  -0.2110
B(  4-C , 13-N ) :  -0.1055 B(  5-C ,  8-C ) :   0.1004 B(  5-C , 10-H ) :  -0.1878
B(  5-C , 11-H ) :   0.6932 B(  7-H ,  8-C ) :  -0.2031 B(  7-H ,  9-C ) :  -0.1112
B(  7-H , 10-H ) :   0.1063 B(  8-C ,  9-C ) :   0.1515 B(  8-C , 10-H ) :  -0.1112
B(  8-C , 12-N ) :   1.0045 B(  8-C , 18-C ) :   0.6516 B(  9-C , 10-H ) :  -0.2031
B(  9-C , 13-N ) :   1.0044 B(  9-C , 14-C ) :   0.6516 B( 12-N , 13-N ) :  -0.5634
B( 14-C , 15-H ) :   1.0120 B( 14-C , 16-H ) :   1.0120 B( 14-C , 17-H ) :   0.8982
B( 18-C , 19-H ) :   1.0120 B( 18-C , 20-H ) :   1.0120 B( 18-C , 21-H ) :   0.8982

MP2 TOTAL ENERGY:     -495.572214860 Eh
FINAL SINGLE POINT ENERGY      -495.572214860269

DIPOLE MOMENT
-------------
                                X             Y             Z
Electronic contribution:     -1.17489      -0.00000      -0.00000
Nuclear contribution   :      3.09454       0.00000       0.00001
                        -----------------------------------------
Total Dipole Moment    :      1.91965      -0.00000       0.00001
                        -----------------------------------------
Magnitude (a.u.)       :      1.91965
Magnitude (Debye)      :      4.87935

Rotational constants in cm-1:     0.041848     0.037071     0.019803
Rotational constants in MHz :  1254.580894  1111.370144   593.667675

                             ****ORCA TERMINATED NORMALLY****
TOTAL RUN TIME: 0 days 0 hours 9 minutes 34 seconds 930 msec
