                         Program Version 4.2.1 -  RELEASE  -
|  1> %pal
|  2>  nprocs 32
|  3> end
|  4> !RI-MP2 aug-cc-pVTZ aug-cc-pVTZ/C TightSCF
|  5> %maxcore 4500
|  6> *xyzfile 0 2  03_5R2.xyz
|  7>
|  8>
|  9>                          ****END OF INPUT****

CARTESIAN COORDINATES (ANGSTROEM)
---------------------------------
  C      0.383108    0.007994   -0.178738
  C      1.076547    1.309361    0.037367
  C      1.124879   -1.271720    0.010758
  H      2.088941    1.272543   -0.372309
  H      1.164678    1.553046    1.106881
  H      0.551523    2.140462   -0.440316
  H      2.091246   -1.227771   -0.498059
  H      0.572628   -2.125726   -0.386710
  H      1.328767   -1.477112    1.072470
  S     -1.353599   -0.099333    0.034739
  H     -1.647407    1.180078   -0.254098

 Total Charge           Charge          ....    0
 Multiplicity           Mult            ....    2
 Number of Electrons    NEL             ....   41
 Basis Dimension        Dim             ....  349

ORBITAL ENERGIES
----------------
                 SPIN UP ORBITALS
  NO   OCC          E(Eh)            E(eV)
   0   1.0000     -91.959346     -2502.3410
   1   1.0000     -11.263962      -306.5080
   2   1.0000     -11.228849      -305.5525
   3   1.0000     -11.226375      -305.4852
   4   1.0000      -8.960498      -243.8275
   5   1.0000      -6.642101      -180.7407
   6   1.0000      -6.641162      -180.7152
   7   1.0000      -6.639736      -180.6764
   8   1.0000      -1.110058       -30.2062
   9   1.0000      -0.956826       -26.0365
  10   1.0000      -0.951946       -25.9038
  11   1.0000      -0.757256       -20.6060
  12   1.0000      -0.626238       -17.0408
  13   1.0000      -0.616499       -16.7758
  14   1.0000      -0.595170       -16.1954
  15   1.0000      -0.551282       -15.0012
  16   1.0000      -0.521034       -14.1781
  17   1.0000      -0.508839       -13.8462
  18   1.0000      -0.465130       -12.6568
  19   1.0000      -0.423952       -11.5363
  20   1.0000      -0.294524        -8.0144
  21   0.0000       0.029233         0.7955
  22   0.0000       0.038053         1.0355
  23   0.0000       0.042881         1.1669
  24   0.0000       0.046018         1.2522
  25   0.0000       0.059360         1.6153

                 SPIN DOWN ORBITALS
  NO   OCC          E(Eh)            E(eV)
   0   1.0000     -91.959136     -2502.3353
   1   1.0000     -11.238822      -305.8239
   2   1.0000     -11.231517      -305.6251
   3   1.0000     -11.229286      -305.5644
   4   1.0000      -8.960272      -243.8214
   5   1.0000      -6.642441      -180.7500
   6   1.0000      -6.641228      -180.7170
   7   1.0000      -6.638070      -180.6311
   8   1.0000      -1.072596       -29.1868
   9   1.0000      -0.953687       -25.9511
  10   1.0000      -0.951422       -25.8895
  11   1.0000      -0.712700       -19.3936
  12   1.0000      -0.613293       -16.6885
  13   1.0000      -0.587919       -15.9981
  14   1.0000      -0.577423       -15.7125
  15   1.0000      -0.541814       -14.7435
  16   1.0000      -0.518581       -14.1113
  17   1.0000      -0.502188       -13.6652
  18   1.0000      -0.450991       -12.2721
  19   1.0000      -0.376706       -10.2507
  20   0.0000       0.029271         0.7965
  21   0.0000       0.038157         1.0383
  22   0.0000       0.042925         1.1681
  23   0.0000       0.045178         1.2294
  24   0.0000       0.059443         1.6175

MULLIKEN ATOMIC CHARGES AND SPIN POPULATIONS
--------------------------------------------
   0 C :    0.335848    1.128674
   1 C :   -0.896793   -0.146365
   2 C :   -0.888512   -0.167504
   3 H :    0.280830    0.009034
   4 H :    0.288685    0.067788
   5 H :    0.287981    0.012444
   6 H :    0.290668    0.017062
   7 H :    0.311559    0.009087
   8 H :    0.274780    0.064649
   9 S :   -0.393679    0.008145
  10 H :    0.108632   -0.003014
Sum of atomic charges         :   -0.0000000

LOEWDIN ATOMIC CHARGES AND SPIN POPULATIONS
-------------------------------------------
   0 C :   -0.538726    0.560378
   1 C :    0.466504    0.105798
   2 C :    0.450440    0.103774
   3 H :   -0.184371    0.004605
   4 H :   -0.170404    0.026795
   5 H :   -0.198667    0.006531
   6 H :   -0.185032    0.008263
   7 H :   -0.200310    0.004071
   8 H :   -0.172435    0.025520
   9 S :    1.299984    0.143059
  10 H :   -0.566983    0.011206

  Mayer bond orders larger than 0.100000
B(  0-C ,  1-C ) :   0.8242 B(  0-C ,  2-C ) :   0.8483 B(  0-C ,  9-S ) :   0.8770
B(  1-C ,  3-H ) :   0.9467 B(  1-C ,  4-H ) :   0.9007 B(  1-C ,  5-H ) :   0.9795
B(  2-C ,  6-H ) :   0.9457 B(  2-C ,  7-H ) :   0.9578 B(  2-C ,  8-H ) :   0.9113
B(  9-S , 10-H ) :   1.0711

MP2 TOTAL ENERGY:     -515.923539195 Eh
FINAL SINGLE POINT ENERGY      -515.923539195297

DIPOLE MOMENT
-------------
                                X             Y             Z
Electronic contribution:     -5.84631      -1.02903      -0.26125
Nuclear contribution   :      6.34474       1.35108       0.23238
                        -----------------------------------------
Total Dipole Moment    :      0.49844       0.32205      -0.02887
                        -----------------------------------------
Magnitude (a.u.)       :      0.59413
Magnitude (Debye)      :      1.51016

Rotational constants in cm-1:     0.270947     0.155857     0.103343
Rotational constants in MHz :  8122.800837  4672.469117  3098.137527

                             ****ORCA TERMINATED NORMALLY****
TOTAL RUN TIME: 0 days 0 hours 1 minutes 2 seconds 837 msec
