                         Program Version 4.2.1 -  RELEASE  -
|  1> %pal
|  2>  nprocs 32
|  3> end
|  4> !RI-MP2 aug-cc-pVTZ aug-cc-pVTZ/C TightSCF
|  5> %maxcore 4500
|  6> *xyzfile 0 1  05_11R2.xyz
|  7>
|  8>
|  9>                          ****END OF INPUT****

CARTESIAN COORDINATES (ANGSTROEM)
---------------------------------
  C     -1.429767   -1.259794    0.000014
  N     -2.004476    0.013392   -0.000065
  C     -1.360759    1.238259   -0.000100
  N      0.015882    1.128355   -0.000063
  C      0.677060   -0.072800    0.000008
  C      0.031491   -1.247016    0.000036
  O     -1.940376    2.294706   -0.000086
  C      2.161989    0.071470    0.000045
  O      2.704785    1.143056    0.000016
  O      2.801518   -1.096961    0.000111
  H     -3.015662    0.052120   -0.000056
  H      0.554604    1.984921   -0.000055
  O     -2.116889   -2.253560    0.000054
  H      3.752964   -0.919238    0.000129
  H      0.555861   -2.188670    0.000093

 Total Charge           Charge          ....    0
 Multiplicity           Mult            ....    1
 Number of Electrons    NEL             ....   80
 Basis Dimension        Dim             ....  598

ORBITAL ENERGIES
----------------

  NO   OCC          E(Eh)            E(eV)
   0   2.0000     -20.658477      -562.1457
   1   2.0000     -20.600498      -560.5680
   2   2.0000     -20.555478      -559.3430
   3   2.0000     -20.550260      -559.2010
   4   2.0000     -15.643286      -425.6755
   5   2.0000     -15.634717      -425.4423
   6   2.0000     -11.440360      -311.3080
   7   2.0000     -11.421644      -310.7987
   8   2.0000     -11.391901      -309.9894
   9   2.0000     -11.355190      -308.9904
  10   2.0000     -11.279054      -306.9187
  11   2.0000      -1.520252       -41.3682
  12   2.0000      -1.446464       -39.3603
  13   2.0000      -1.418033       -38.5866
  14   2.0000      -1.415871       -38.5278
  15   2.0000      -1.321372       -35.9564
  16   2.0000      -1.254243       -34.1297
  17   2.0000      -1.114918       -30.3385
  18   2.0000      -0.988109       -26.8878
  19   2.0000      -0.913972       -24.8705
  20   2.0000      -0.877169       -23.8690
  21   2.0000      -0.814615       -22.1668
  22   2.0000      -0.780741       -21.2450
  23   2.0000      -0.759249       -20.6602
  24   2.0000      -0.745009       -20.2727
  25   2.0000      -0.695746       -18.9322
  26   2.0000      -0.689366       -18.7586
  27   2.0000      -0.673294       -18.3213
  28   2.0000      -0.667221       -18.1560
  29   2.0000      -0.646859       -17.6019
  30   2.0000      -0.626171       -17.0390
  31   2.0000      -0.620803       -16.8929
  32   2.0000      -0.583803       -15.8861
  33   2.0000      -0.547075       -14.8867
  34   2.0000      -0.520630       -14.1671
  35   2.0000      -0.518380       -14.1058
  36   2.0000      -0.488473       -13.2920
  37   2.0000      -0.459286       -12.4978
  38   2.0000      -0.445192       -12.1143
  39   2.0000      -0.382462       -10.4073
  40   0.0000       0.017402         0.4735
  41   0.0000       0.032724         0.8905
  42   0.0000       0.035421         0.9639
  43   0.0000       0.041343         1.1250
  44   0.0000       0.047269         1.2862

MULLIKEN ATOMIC CHARGES
-----------------------
   0 C :    0.265834
   1 N :    0.247399
   2 C :    0.076553
   3 N :   -0.071400
   4 C :    1.233996
   5 C :   -0.291323
   6 O :   -0.786368
   7 C :    0.625271
   8 O :   -0.871418
   9 O :   -0.437077
  10 H :    0.160840
  11 H :    0.151077
  12 O :   -0.847895
  13 H :    0.269719
  14 H :    0.274791
Sum of atomic charges:   -0.0000000

LOEWDIN ATOMIC CHARGES
----------------------
   0 C :   -0.666894
   1 N :    0.563123
   2 C :   -0.758321
   3 N :    0.547188
   4 C :   -0.221841
   5 C :    0.246645
   6 O :    0.451936
   7 C :   -0.774604
   8 O :    0.491569
   9 O :    0.855564
  10 H :   -0.264649
  11 H :   -0.287286
  12 O :    0.452745
  13 H :   -0.442660
  14 H :   -0.192514

  Mayer bond orders larger than 0.100000
B(  0-C ,  1-N ) :   0.9914 B(  0-C ,  2-C ) :  -0.1328 B(  0-C ,  4-C ) :   0.1033
B(  0-C ,  5-C ) :   0.5350 B(  0-C , 12-O ) :   1.3680 B(  1-N ,  2-C ) :   0.9637
B(  1-N ,  5-C ) :  -0.1010 B(  1-N ,  6-O ) :  -0.1160 B(  1-N , 10-H ) :   1.0617
B(  1-N , 12-O ) :  -0.1358 B(  2-C ,  3-N ) :   1.1351 B(  2-C ,  4-C ) :  -0.3286
B(  2-C ,  6-O ) :   1.6290 B(  3-N ,  4-C ) :   0.7339 B(  3-N ,  5-C ) :  -0.1644
B(  3-N ,  6-O ) :  -0.1398 B(  3-N , 11-H ) :   1.1118 B(  4-C ,  5-C ) :   1.0553
B(  4-C ,  7-C ) :   0.5325 B(  4-C , 11-H ) :  -0.1206 B(  5-C , 14-H ) :   1.1081
B(  7-C ,  8-O ) :   1.1417 B(  7-C ,  9-O ) :   0.9897 B(  9-O , 13-H ) :   0.9111

MP2 TOTAL ENERGY:     -602.439071726 Eh
FINAL SINGLE POINT ENERGY      -602.439071726207

DIPOLE MOMENT
-------------
                                X             Y             Z
Electronic contribution:     -0.17792       0.61454      -0.00009
Nuclear contribution   :      1.78926      -1.02295       0.00011
                        -----------------------------------------
Total Dipole Moment    :      1.61133      -0.40842       0.00002
                        -----------------------------------------
Magnitude (a.u.)       :      1.66229
Magnitude (Debye)      :      4.22520

Rotational constants in cm-1:     0.058257     0.029927     0.019771
Rotational constants in MHz :  1746.496900   897.181262   592.706145

                             ****ORCA TERMINATED NORMALLY****
TOTAL RUN TIME: 0 days 0 hours 3 minutes 36 seconds 459 msec
