                         Program Version 4.2.1 -  RELEASE  -
|  1> %pal
|  2>  nprocs 32
|  3> end
|  4> !RI-MP2 aug-cc-pVTZ aug-cc-pVTZ/C TightSCF
|  5> %maxcore 4500
|  6> *xyzfile 0 1  04_50R1.xyz
|  7>
|  8>
|  9>                          ****END OF INPUT****

CARTESIAN COORDINATES (ANGSTROEM)
---------------------------------
  C     -2.884500   -1.324864    0.041939
  C     -1.526500   -1.584368    0.093570
  C     -0.594518   -0.550381    0.029166
  C     -1.037959    0.764916   -0.083123
  C     -2.407942    1.018268   -0.130933
  C     -3.329183   -0.012621   -0.071825
  H     -3.595250   -2.140809    0.091044
  H     -1.176693   -2.607769    0.183666
  H     -2.750730    2.044306   -0.213205
  H     -4.389989    0.203461   -0.109917
  C      1.284803    1.488166    0.464530
  H      2.042633    2.250210    0.278706
  H      1.175937    1.392231    1.556332
  N      1.741227    0.239001   -0.120159
  C     -0.041394    1.892615   -0.154380
  H      0.125769    2.169475   -1.200145
  H     -0.438522    2.774228    0.355129
  C      0.873134   -0.896897    0.095823
  H      1.091169   -1.370349    1.068460
  H      1.096006   -1.644670   -0.669777
  C      3.099823    0.001252   -0.150240
  C      3.721633   -1.181733   -0.134484
  H      3.687944    0.911125   -0.221354
  H      3.201027   -2.125446   -0.052489
  H      4.797725   -1.215122   -0.225596

 Total Charge           Charge          ....    0
 Multiplicity           Mult            ....    1
 Number of Electrons    NEL             ....   86
 Basis Dimension        Dim             ....  851

ORBITAL ENERGIES
----------------

  NO   OCC          E(Eh)            E(eV)
   0   2.0000     -15.568106      -423.6297
   1   2.0000     -11.264767      -306.5299
   2   2.0000     -11.263209      -306.4875
   3   2.0000     -11.262371      -306.4647
   4   2.0000     -11.240000      -305.8560
   5   2.0000     -11.238325      -305.8104
   6   2.0000     -11.232469      -305.6510
   7   2.0000     -11.231705      -305.6302
   8   2.0000     -11.231411      -305.6222
   9   2.0000     -11.230944      -305.6095
  10   2.0000     -11.230203      -305.5894
  11   2.0000     -11.199434      -304.7521
  12   2.0000      -1.266503       -34.4633
  13   2.0000      -1.160994       -31.5923
  14   2.0000      -1.072355       -29.1803
  15   2.0000      -1.046723       -28.4828
  16   2.0000      -1.010987       -27.5104
  17   2.0000      -0.986474       -26.8433
  18   2.0000      -0.910375       -24.7726
  19   2.0000      -0.863406       -23.4945
  20   2.0000      -0.823208       -22.4006
  21   2.0000      -0.791962       -21.5504
  22   2.0000      -0.742435       -20.2027
  23   2.0000      -0.701412       -19.0864
  24   2.0000      -0.667629       -18.1671
  25   2.0000      -0.662837       -18.0367
  26   2.0000      -0.640779       -17.4365
  27   2.0000      -0.619914       -16.8687
  28   2.0000      -0.610792       -16.6205
  29   2.0000      -0.593677       -16.1548
  30   2.0000      -0.576936       -15.6992
  31   2.0000      -0.570924       -15.5356
  32   2.0000      -0.549602       -14.9554
  33   2.0000      -0.536021       -14.5859
  34   2.0000      -0.524578       -14.2745
  35   2.0000      -0.510647       -13.8954
  36   2.0000      -0.485450       -13.2098
  37   2.0000      -0.480982       -13.0882
  38   2.0000      -0.471109       -12.8195
  39   2.0000      -0.436763       -11.8849
  40   2.0000      -0.333380        -9.0717
  41   2.0000      -0.325047        -8.8450
  42   2.0000      -0.305444        -8.3116
  43   0.0000       0.027064         0.7364
  44   0.0000       0.029776         0.8102
  45   0.0000       0.031966         0.8698
  46   0.0000       0.040608         1.1050
  47   0.0000       0.041819         1.1380

MULLIKEN ATOMIC CHARGES
-----------------------
   0 C :   -0.452065
   1 C :   -1.320166
   2 C :    1.342427
   3 C :    1.102271
   4 C :   -1.185318
   5 C :   -0.343221
   6 H :    0.543154
   7 H :    0.053728
   8 H :    0.145879
   9 H :    0.529625
  10 C :   -0.449147
  11 H :    0.329112
  12 H :    0.220503
  13 N :   -0.049907
  14 C :   -0.476912
  15 H :    0.241154
  16 H :    0.255367
  17 C :   -0.651346
  18 H :    0.206831
  19 H :    0.212066
  20 C :   -0.504326
  21 C :   -1.109433
  22 H :    0.585480
  23 H :    0.459752
  24 H :    0.314492
Sum of atomic charges:   -0.0000000

LOEWDIN ATOMIC CHARGES
----------------------
   0 C :    0.198864
   1 C :    0.220324
   2 C :   -0.061608
   3 C :   -0.074082
   4 C :    0.220743
   5 C :    0.197945
   6 H :   -0.183361
   7 H :   -0.168293
   8 H :   -0.173136
   9 H :   -0.183475
  10 C :    0.184623
  11 H :   -0.147112
  12 H :   -0.115836
  13 N :    0.253998
  14 C :    0.301324
  15 H :   -0.131856
  16 H :   -0.143288
  17 C :    0.162370
  18 H :   -0.121901
  19 H :   -0.149432
  20 C :    0.061869
  21 C :    0.521077
  22 H :   -0.181347
  23 H :   -0.243280
  24 H :   -0.245130

  Mayer bond orders larger than 0.100000
B(  0-C ,  1-C ) :   1.1788 B(  0-C ,  2-C ) :   0.1370 B(  0-C ,  5-C ) :   0.9753
B(  0-C ,  6-H ) :   0.6514 B(  1-C ,  2-C ) :   0.1292 B(  1-C ,  6-H ) :  -0.1091
B(  1-C ,  7-H ) :   1.5867 B(  1-C , 17-C ) :   0.2573 B(  2-C ,  3-C ) :   0.9122
B(  2-C ,  4-C ) :   0.1622 B(  2-C ,  7-H ) :  -0.1361 B(  2-C , 17-C ) :   0.4291
B(  2-C , 20-C ) :  -0.1359 B(  3-C ,  4-C ) :   0.2877 B(  3-C , 10-C ) :   0.1050
B(  3-C , 13-N ) :  -0.1774 B(  3-C , 14-C ) :   0.1913 B(  3-C , 17-C ) :   0.1519
B(  4-C ,  5-C ) :   1.0164 B(  4-C ,  8-H ) :   1.3689 B(  4-C ,  9-H ) :  -0.1410
B(  5-C ,  9-H ) :   0.6834 B( 10-C , 11-H ) :   0.9292 B( 10-C , 12-H ) :   0.9829
B( 10-C , 13-N ) :   0.9726 B( 10-C , 14-C ) :   0.9798 B( 13-N , 17-C ) :   0.9167
B( 13-N , 20-C ) :   0.9476 B( 13-N , 21-C ) :  -0.5387 B( 13-N , 22-H ) :  -0.1479
B( 14-C , 15-H ) :   1.0209 B( 14-C , 16-H ) :   1.0674 B( 17-C , 18-H ) :   1.0585
B( 17-C , 19-H ) :   1.0389 B( 17-C , 20-C ) :   0.1458 B( 20-C , 21-C ) :   1.2147
B( 20-C , 22-H ) :   0.6037 B( 20-C , 23-H ) :  -0.1792 B( 21-C , 23-H ) :   0.8650
B( 21-C , 24-H ) :   1.0023

MP2 TOTAL ENERGY:     -480.720302675 Eh
FINAL SINGLE POINT ENERGY      -480.720302675272

DIPOLE MOMENT
-------------
                                X             Y             Z
Electronic contribution:     -5.22742      -0.25534      -0.68471
Nuclear contribution   :      4.94715       0.65148       0.85219
                        -----------------------------------------
Total Dipole Moment    :     -0.28027       0.39614       0.16748
                        -----------------------------------------
Magnitude (a.u.)       :      0.51335
Magnitude (Debye)      :      1.30484

Rotational constants in cm-1:     0.073921     0.020864     0.016594
Rotational constants in MHz :  2216.104961   625.475781   497.465667

                             ****ORCA TERMINATED NORMALLY****
TOTAL RUN TIME: 0 days 0 hours 12 minutes 39 seconds 411 msec
