                         Program Version 4.2.1 -  RELEASE  -
|  1> %pal
|  2>  nprocs 32
|  3> end
|  4> !RI-MP2 aug-cc-pVTZ aug-cc-pVTZ/C TightSCF
|  5> %maxcore 4500
|  6> *xyzfile 0 2  01_16P.xyz
|  7>
|  8>
|  9>                          ****END OF INPUT****

CARTESIAN COORDINATES (ANGSTROEM)
---------------------------------
  C     -2.690988    0.111628   -0.052190
  C     -1.706979   -1.072442    0.060571
  C     -0.567140   -0.068259    0.362618
  C     -1.480747    1.045433   -0.261918
  C      0.777571   -0.300672   -0.196006
  C      1.982109    0.400500    0.327204
  C      3.298656   -0.176011   -0.185959
  H     -3.191362    0.310094    0.897521
  H     -3.443129    0.073877   -0.840450
  H     -1.253081    1.180398   -1.321381
  H     -1.486859    2.020469    0.226758
  H      1.966163    0.380090    1.424215
  H      1.933400    1.470313    0.064282
  H      3.405965   -1.222909    0.106570
  H      4.155292    0.374528    0.207999
  H      3.345503   -0.129448   -1.276866
  H     -1.547232   -1.553382   -0.907620
  H     -1.908224   -1.843358    0.805288
  H      0.851338   -0.810015   -1.154245
  H     -0.502671    0.108271    1.442015

 Total Charge           Charge          ....    0
 Multiplicity           Mult            ....    2
 Number of Electrons    NEL             ....   55
 Basis Dimension        Dim             ....  621

ORBITAL ENERGIES
----------------
                 SPIN UP ORBITALS
  NO   OCC          E(Eh)            E(eV)
   0   1.0000     -11.220159      -305.3160
   1   1.0000     -11.219165      -305.2890
   2   1.0000     -11.218054      -305.2588
   3   1.0000     -11.217297      -305.2382
   4   1.0000     -11.215238      -305.1821
   5   1.0000     -11.214657      -305.1663
   6   1.0000     -11.210851      -305.0628
   7   1.0000      -1.135576       -30.9006
   8   1.0000      -1.061406       -28.8823
   9   1.0000      -0.958586       -26.0845
  10   1.0000      -0.895021       -24.3548
  11   1.0000      -0.857148       -23.3242
  12   1.0000      -0.788628       -21.4597
  13   1.0000      -0.744567       -20.2607
  14   1.0000      -0.648572       -17.6485
  15   1.0000      -0.635424       -17.2908
  16   1.0000      -0.613563       -16.6959
  17   1.0000      -0.578045       -15.7294
  18   1.0000      -0.543443       -14.7878
  19   1.0000      -0.535317       -14.5667
  20   1.0000      -0.517382       -14.0787
  21   1.0000      -0.510206       -13.8834
  22   1.0000      -0.489708       -13.3256
  23   1.0000      -0.476446       -12.9647
  24   1.0000      -0.452074       -12.3016
  25   1.0000      -0.440522       -11.9872
  26   1.0000      -0.427016       -11.6197
  27   1.0000      -0.315857        -8.5949
  28   0.0000       0.030976         0.8429
  29   0.0000       0.033750         0.9184
  30   0.0000       0.035241         0.9590
  31   0.0000       0.037601         1.0232
  32   0.0000       0.048249         1.3129

                 SPIN DOWN ORBITALS
  NO   OCC          E(Eh)            E(eV)
   0   1.0000     -11.223686      -305.4120
   1   1.0000     -11.221289      -305.3468
   2   1.0000     -11.215241      -305.1822
   3   1.0000     -11.213939      -305.1468
   4   1.0000     -11.213800      -305.1430
   5   1.0000     -11.210392      -305.0503
   6   1.0000     -11.195784      -304.6528
   7   1.0000      -1.127159       -30.6716
   8   1.0000      -1.043322       -28.3902
   9   1.0000      -0.937266       -25.5043
  10   1.0000      -0.889489       -24.2042
  11   1.0000      -0.852163       -23.1885
  12   1.0000      -0.765137       -20.8204
  13   1.0000      -0.735018       -20.0009
  14   1.0000      -0.644720       -17.5437
  15   1.0000      -0.630680       -17.1617
  16   1.0000      -0.597936       -16.2707
  17   1.0000      -0.573341       -15.6014
  18   1.0000      -0.534802       -14.5527
  19   1.0000      -0.532756       -14.4970
  20   1.0000      -0.512041       -13.9333
  21   1.0000      -0.491950       -13.3866
  22   1.0000      -0.483780       -13.1643
  23   1.0000      -0.470895       -12.8137
  24   1.0000      -0.449260       -12.2250
  25   1.0000      -0.430486       -11.7141
  26   1.0000      -0.422342       -11.4925
  27   0.0000       0.031097         0.8462
  28   0.0000       0.033759         0.9186
  29   0.0000       0.035349         0.9619
  30   0.0000       0.037128         1.0103
  31   0.0000       0.048318         1.3148

MULLIKEN ATOMIC CHARGES AND SPIN POPULATIONS
--------------------------------------------
   0 C :   -0.655693   -0.020591
   1 C :   -0.927847    0.048709
   2 C :    0.612545   -0.274402
   3 C :   -0.792894    0.129716
   4 C :   -0.735622    1.343192
   5 C :   -0.334751   -0.248016
   6 C :   -0.976504    0.036359
   7 H :    0.184159   -0.000278
   8 H :    0.397345   -0.000389
   9 H :    0.218912   -0.003788
  10 H :    0.375980   -0.004122
  11 H :    0.222642    0.021433
  12 H :    0.249749    0.067672
  13 H :    0.259108   -0.002131
  14 H :    0.287046   -0.003461
  15 H :    0.261161   -0.002181
  16 H :    0.158949   -0.001511
  17 H :    0.383504   -0.001587
  18 H :    0.416487   -0.097596
  19 H :    0.395725    0.012971
Sum of atomic charges         :   -0.0000000

LOEWDIN ATOMIC CHARGES AND SPIN POPULATIONS
-------------------------------------------
   0 C :    0.318075    0.006764
   1 C :    0.320990    0.013285
   2 C :   -0.023823    0.099206
   3 C :    0.333527    0.042922
   4 C :    0.299413    0.536953
   5 C :    0.220410    0.118262
   6 C :    0.565684    0.008775
   7 H :   -0.152729    0.000614
   8 H :   -0.151740    0.000776
   9 H :   -0.150220    0.005584
  10 H :   -0.147048    0.005733
  11 H :   -0.157241    0.011781
  12 H :   -0.145867    0.028934
  13 H :   -0.171533    0.003027
  14 H :   -0.173798    0.000433
  15 H :   -0.173710   -0.000009
  16 H :   -0.152037    0.000816
  17 H :   -0.144508    0.001562
  18 H :   -0.175200    0.109850
  19 H :   -0.138644    0.004732

  Mayer bond orders larger than 0.100000
B(  0-C ,  1-C ) :   1.1953 B(  0-C ,  2-C ) :  -0.4575 B(  0-C ,  3-C ) :   1.1658
B(  0-C ,  7-H ) :   1.0096 B(  0-C ,  8-H ) :   0.8209 B(  1-C ,  2-C ) :   0.8494
B(  1-C ,  3-C ) :   0.1426 B(  1-C , 16-H ) :   1.0622 B(  1-C , 17-H ) :   0.8208
B(  1-C , 19-H ) :  -0.1152 B(  2-C ,  3-C ) :   0.7524 B(  2-C ,  4-C ) :   0.6261
B(  2-C , 19-H ) :   0.8941 B(  3-C ,  9-H ) :   0.9862 B(  3-C , 10-H ) :   0.8346
B(  4-C ,  5-C ) :   0.7147 B(  4-C , 18-H ) :   0.7794 B(  5-C ,  6-C ) :   0.9463
B(  5-C , 11-H ) :   0.9826 B(  5-C , 12-H ) :   0.9241 B(  6-C , 13-H ) :   0.9719
B(  6-C , 14-H ) :   0.9791 B(  6-C , 15-H ) :   0.9650

MP2 TOTAL ENERGY:     -273.864353357 Eh
FINAL SINGLE POINT ENERGY      -273.864353357267

DIPOLE MOMENT
-------------
                                X             Y             Z
Electronic contribution:     -2.47608      -0.29214       0.36433
Nuclear contribution   :      2.47136       0.38151      -0.34642
                        -----------------------------------------
Total Dipole Moment    :     -0.00471       0.08937       0.01791
                        -----------------------------------------
Magnitude (a.u.)       :      0.09127
Magnitude (Debye)      :      0.23199

Rotational constants in cm-1:     0.266229     0.038751     0.036245
Rotational constants in MHz :  7981.334412  1161.725678  1086.599547

                             ****ORCA TERMINATED NORMALLY****
TOTAL RUN TIME: 0 days 0 hours 5 minutes 1 seconds 441 msec
