                         Program Version 4.2.1 -  RELEASE  -
|  1> %pal
|  2>  nprocs 32
|  3> end
|  4> !RI-MP2 aug-cc-pVTZ aug-cc-pVTZ/C TightSCF
|  5> %maxcore 4500
|  6> *xyzfile 0 2  01_25P.xyz
|  7>
|  8>
|  9>                          ****END OF INPUT****

CARTESIAN COORDINATES (ANGSTROEM)
---------------------------------
  C     -0.539119   -0.459062    0.000068
  C      0.630156   -1.387679   -0.359285
  C      1.908001   -0.604966   -0.007989
  H      0.600390   -1.593709   -1.433714
  H      0.565126   -2.350167    0.154181
  C      1.501514    0.887092   -0.037291
  H      2.713665   -0.823920   -0.710198
  H      2.274833   -0.883378    0.981729
  C      0.026980    0.919744   -0.481665
  H      2.125803    1.479979   -0.707242
  H      1.598166    1.335407    0.954760
  C     -0.720704    2.121150   -0.046660
  C     -0.782534   -0.465213    1.511506
  H      0.114465   -0.198658    2.074510
  H     -1.094714   -1.460466    1.838324
  H     -1.569318    0.240951    1.784937
  C     -1.823814   -0.831625   -0.728879
  H     -2.627765   -0.129109   -0.494598
  H     -2.161566   -1.830498   -0.439275
  H     -1.675873   -0.828374   -1.812189
  H     -1.566799    2.492960   -0.610278
  H     -0.495131    2.601751    0.897883
  H     -0.004164    0.870585   -1.577654

 Total Charge           Charge          ....    0
 Multiplicity           Mult            ....    2
 Number of Electrons    NEL             ....   63
 Basis Dimension        Dim             ....  713

ORBITAL ENERGIES
----------------
                 SPIN UP ORBITALS
  NO   OCC          E(Eh)            E(eV)
   0   1.0000     -11.226772      -305.4960
   1   1.0000     -11.223960      -305.4195
   2   1.0000     -11.218512      -305.2712
   3   1.0000     -11.212338      -305.1032
   4   1.0000     -11.211769      -305.0877
   5   1.0000     -11.209314      -305.0209
   6   1.0000     -11.206481      -304.9439
   7   1.0000     -11.206021      -304.9313
   8   1.0000      -1.142553       -31.0905
   9   1.0000      -1.023504       -27.8510
  10   1.0000      -1.011154       -27.5149
  11   1.0000      -0.928813       -25.2743
  12   1.0000      -0.906041       -24.6546
  13   1.0000      -0.859409       -23.3857
  14   1.0000      -0.768670       -20.9166
  15   1.0000      -0.717089       -19.5130
  16   1.0000      -0.644639       -17.5415
  17   1.0000      -0.627926       -17.0867
  18   1.0000      -0.612443       -16.6654
  19   1.0000      -0.591818       -16.1042
  20   1.0000      -0.579263       -15.7626
  21   1.0000      -0.546361       -14.8672
  22   1.0000      -0.539330       -14.6759
  23   1.0000      -0.523919       -14.2566
  24   1.0000      -0.505264       -13.7489
  25   1.0000      -0.475954       -12.9514
  26   1.0000      -0.474736       -12.9182
  27   1.0000      -0.457644       -12.4531
  28   1.0000      -0.450279       -12.2527
  29   1.0000      -0.445343       -12.1184
  30   1.0000      -0.438702       -11.9377
  31   1.0000      -0.337322        -9.1790
  32   0.0000       0.030183         0.8213
  33   0.0000       0.034817         0.9474
  34   0.0000       0.035694         0.9713
  35   0.0000       0.036045         0.9808
  36   0.0000       0.051642         1.4053

                 SPIN DOWN ORBITALS
  NO   OCC          E(Eh)            E(eV)
   0   1.0000     -11.224036      -305.4216
   1   1.0000     -11.221972      -305.3654
   2   1.0000     -11.212119      -305.0973
   3   1.0000     -11.211222      -305.0729
   4   1.0000     -11.209419      -305.0238
   5   1.0000     -11.206631      -304.9479
   6   1.0000     -11.206039      -304.9318
   7   1.0000     -11.200749      -304.7879
   8   1.0000      -1.137157       -30.9436
   9   1.0000      -1.020578       -27.7713
  10   1.0000      -0.985577       -26.8189
  11   1.0000      -0.928449       -25.2644
  12   1.0000      -0.892251       -24.2794
  13   1.0000      -0.824475       -22.4351
  14   1.0000      -0.761268       -20.7152
  15   1.0000      -0.709895       -19.3172
  16   1.0000      -0.642144       -17.4736
  17   1.0000      -0.624329       -16.9889
  18   1.0000      -0.605243       -16.4695
  19   1.0000      -0.588366       -16.0103
  20   1.0000      -0.573594       -15.6083
  21   1.0000      -0.545894       -14.8545
  22   1.0000      -0.534602       -14.5473
  23   1.0000      -0.523014       -14.2319
  24   1.0000      -0.502927       -13.6853
  25   1.0000      -0.471282       -12.8242
  26   1.0000      -0.466874       -12.7043
  27   1.0000      -0.450057       -12.2467
  28   1.0000      -0.445475       -12.1220
  29   1.0000      -0.441481       -12.0133
  30   1.0000      -0.428387       -11.6570
  31   0.0000       0.030405         0.8274
  32   0.0000       0.034728         0.9450
  33   0.0000       0.035771         0.9734
  34   0.0000       0.036132         0.9832
  35   0.0000       0.051432         1.3995

MULLIKEN ATOMIC CHARGES AND SPIN POPULATIONS
--------------------------------------------
   0 C :    1.901534    0.066146
   1 C :   -0.942069    0.001132
   2 C :   -0.654531    0.000362
   3 H :    0.102746   -0.000836
   4 H :    0.358951    0.004621
   5 C :   -0.644957    0.046790
   6 H :    0.355331    0.000665
   7 H :    0.163901    0.000149
   8 C :    0.423930   -0.247020
   9 H :    0.356753   -0.001994
  10 H :    0.148842   -0.001442
  11 C :   -1.271271    1.297442
  12 C :   -1.267353    0.007165
  13 H :    0.234357   -0.004329
  14 H :    0.199282    0.002175
  15 H :    0.253782   -0.013012
  16 C :   -1.377846   -0.009502
  17 H :    0.268273   -0.007195
  18 H :    0.233700   -0.000081
  19 H :    0.255636   -0.001432
  20 H :    0.310322   -0.067644
  21 H :    0.329587   -0.074118
  22 H :    0.261102    0.001958
Sum of atomic charges         :    0.0000000

LOEWDIN ATOMIC CHARGES AND SPIN POPULATIONS
-------------------------------------------
   0 C :   -0.330926    0.040004
   1 C :    0.305987    0.005376
   2 C :    0.326419    0.001530
   3 H :   -0.138508    0.000177
   4 H :   -0.130839    0.001714
   5 C :    0.312991    0.013230
   6 H :   -0.146491    0.000052
   7 H :   -0.148915    0.000276
   8 C :   -0.051474    0.110950
   9 H :   -0.139097    0.001653
  10 H :   -0.154770    0.000893
  11 C :    0.611297    0.552949
  12 C :    0.589777    0.009950
  13 H :   -0.160654    0.000326
  14 H :   -0.151979    0.000633
  15 H :   -0.158338    0.008060
  16 C :    0.589616    0.004783
  17 H :   -0.156819    0.002948
  18 H :   -0.152345    0.000469
  19 H :   -0.158228    0.000224
  20 H :   -0.209002    0.118623
  21 H :   -0.208009    0.117092
  22 H :   -0.139692    0.008088

  Mayer bond orders larger than 0.100000
B(  0-C ,  1-C ) :   0.4926 B(  0-C ,  2-C ) :  -0.1368 B(  0-C ,  8-C ) :   0.9484
B(  0-C , 11-C ) :   0.4017 B(  0-C , 12-C ) :   0.1640 B(  0-C , 14-H ) :  -0.1348
B(  0-C , 15-H ) :  -0.1252 B(  0-C , 17-H ) :  -0.1335 B(  0-C , 18-H ) :  -0.1363
B(  0-C , 19-H ) :  -0.1056 B(  1-C ,  2-C ) :   1.1263 B(  1-C ,  3-H ) :   1.1804
B(  1-C ,  4-H ) :   0.8897 B(  1-C ,  5-C ) :   0.1322 B(  1-C ,  7-H ) :   0.1061
B(  1-C ,  8-C ) :   0.1907 B(  2-C ,  5-C ) :   1.0063 B(  2-C ,  6-H ) :   0.8592
B(  2-C ,  7-H ) :   1.0766 B(  5-C ,  8-C ) :   0.8909 B(  5-C ,  9-H ) :   0.8211
B(  5-C , 10-H ) :   1.1514 B(  8-C , 11-C ) :   0.2301 B(  8-C , 22-H ) :   0.9353
B( 11-C , 20-H ) :   0.9360 B( 11-C , 21-H ) :   0.9859 B( 12-C , 13-H ) :   1.0818
B( 12-C , 14-H ) :   1.1255 B( 12-C , 15-H ) :   1.0881 B( 12-C , 16-C ) :   0.1240
B( 16-C , 17-H ) :   1.0732 B( 16-C , 18-H ) :   1.1117 B( 16-C , 19-H ) :   1.0780

MP2 TOTAL ENERGY:     -313.126383251 Eh
FINAL SINGLE POINT ENERGY      -313.126383250643

DIPOLE MOMENT
-------------
                                X             Y             Z
Electronic contribution:      1.29891       1.06775      -0.97075
Nuclear contribution   :     -1.27979      -1.14549       0.95880
                        -----------------------------------------
Total Dipole Moment    :      0.01911      -0.07774      -0.01196
                        -----------------------------------------
Magnitude (a.u.)       :      0.08094
Magnitude (Debye)      :      0.20573

Rotational constants in cm-1:     0.080282     0.071557     0.052288
Rotational constants in MHz :  2406.784208  2145.233954  1567.554266

                             ****ORCA TERMINATED NORMALLY****
TOTAL RUN TIME: 0 days 0 hours 9 minutes 47 seconds 228 msec
