                         Program Version 4.2.1 -  RELEASE  -
|  1> %pal
|  2>  nprocs 32
|  3> end
|  4> !RI-MP2 aug-cc-pVTZ aug-cc-pVTZ/C TightSCF
|  5> %maxcore 4500
|  6> *xyzfile 0 1  10_18TS.xyz
|  7>
|  8>
|  9>                          ****END OF INPUT****

CARTESIAN COORDINATES (ANGSTROEM)
---------------------------------
  C     -5.681392   -2.854624    0.251423
  C     -5.256793   -1.541335    0.381386
  C     -4.005629   -1.137915   -0.089039
  C     -3.180463   -2.101011   -0.678640
  C     -3.608991   -3.411574   -0.814294
  C     -4.860949   -3.797012   -0.352129
  H     -6.657849   -3.142044    0.622882
  H     -5.905514   -0.811491    0.852988
  H     -2.185547   -1.829538   -1.007769
  H     -2.953502   -4.141631   -1.274327
  H     -5.189700   -4.823849   -0.454799
  C     -3.594101    0.266091    0.081266
  H     -4.313327    0.892309    0.590937
  C     -2.731105    0.871533   -0.828376
  H     -2.282551    0.264281   -1.602272
  C     -2.794784    3.150355    0.107272
  C     -1.429714    2.633692   -1.867312
  C     -1.562450    3.651866    0.857165
  H     -3.511562    2.710853    0.794846
  H     -3.289139    3.985570   -0.401916
  C     -0.169132    3.133481   -1.166385
  H     -1.200505    1.817009   -2.550096
  H     -1.877740    3.445858   -2.451555
  C     -0.512002    4.185783   -0.114421
  H     -1.144901    2.829355    1.444290
  H     -1.868535    4.426520    1.564176
  H      0.332310    2.287334   -0.691276
  H      0.517133    3.537993   -1.914151
  H     -0.898403    5.084723   -0.609403
  H      0.386918    4.487157    0.427207
  N     -2.419937    2.165384   -0.901682
  N     -0.733582   -0.118716    0.428586
  N     -1.357676   -0.024467    1.556074
  N     -2.471519    0.162896    1.840766
  C      0.634652   -0.253265    0.449193
  C      1.257268   -0.366645   -0.799691
  C      1.488531   -0.254497    1.556497
  C      2.620509   -0.483587   -0.936925
  C      2.857663   -0.359671    1.412699
  C      3.465811   -0.482994    0.168734
  F      0.493863   -0.336921   -1.904873
  F      3.115600   -0.550899   -2.173985
  F      3.591740   -0.373763    2.522494
  F      0.988397   -0.149275    2.792987
  C      4.948006   -0.564848    0.057121
  O      5.713668    0.087894    0.711848
  O      5.321832   -1.462176   -0.858036
  C      6.732967   -1.579665   -1.070888
  H      6.847531   -2.331661   -1.846303
  H      7.146832   -0.625150   -1.395065
  H      7.229243   -1.892248   -0.152657

 Total Charge           Charge          ....    0
 Multiplicity           Mult            ....    1
 Number of Electrons    NEL             ....  226
 Basis Dimension        Dim             .... 1886

ORBITAL ENERGIES
----------------

  NO   OCC          E(Eh)            E(eV)
   0   2.0000     -26.335418      -716.6231
   1   2.0000     -26.331373      -716.5131
   2   2.0000     -26.330092      -716.4782
   3   2.0000     -26.325731      -716.3596
   4   2.0000     -20.610465      -560.8393
   5   2.0000     -20.551420      -559.2326
   6   2.0000     -15.717412      -427.6925
   7   2.0000     -15.680655      -426.6923
   8   2.0000     -15.615374      -424.9159
   9   2.0000     -15.604147      -424.6104
  10   2.0000     -11.395760      -310.0944
  11   2.0000     -11.365205      -309.2629
  12   2.0000     -11.363888      -309.2271
  13   2.0000     -11.343274      -308.6662
  14   2.0000     -11.342870      -308.6552
  15   2.0000     -11.325609      -308.1855
  16   2.0000     -11.323797      -308.1362
  17   2.0000     -11.288489      -307.1754
  18   2.0000     -11.283306      -307.0344
  19   2.0000     -11.283008      -307.0262
  20   2.0000     -11.274801      -306.8029
  21   2.0000     -11.245485      -306.0052
  22   2.0000     -11.240413      -305.8672
  23   2.0000     -11.239127      -305.8322
  24   2.0000     -11.238672      -305.8198
  25   2.0000     -11.238054      -305.8030
  26   2.0000     -11.230904      -305.6084
  27   2.0000     -11.230604      -305.6003
  28   2.0000     -11.226484      -305.4882
  29   2.0000     -11.224643      -305.4381
  30   2.0000     -11.224318      -305.4292
  31   2.0000      -1.661291       -45.2060
  32   2.0000      -1.657417       -45.1006
  33   2.0000      -1.643952       -44.7342
  34   2.0000      -1.639897       -44.6239
  35   2.0000      -1.474386       -40.1201
  36   2.0000      -1.472594       -40.0713
  37   2.0000      -1.371003       -37.3069
  38   2.0000      -1.307118       -35.5685
  39   2.0000      -1.265113       -34.4255
  40   2.0000      -1.191269       -32.4161
  41   2.0000      -1.158222       -31.5168
  42   2.0000      -1.113176       -30.2911
  43   2.0000      -1.077043       -29.3078
  44   2.0000      -1.065852       -29.0033
  45   2.0000      -1.051847       -28.6222
  46   2.0000      -1.051597       -28.6154
  47   2.0000      -1.012864       -27.5614
  48   2.0000      -0.995021       -27.0759
  49   2.0000      -0.990664       -26.9573
  50   2.0000      -0.934745       -25.4357
  51   2.0000      -0.923278       -25.1237
  52   2.0000      -0.892095       -24.2751
  53   2.0000      -0.885198       -24.0875
  54   2.0000      -0.843757       -22.9598
  55   2.0000      -0.835420       -22.7329
  56   2.0000      -0.824618       -22.4390
  57   2.0000      -0.820978       -22.3399
  58   2.0000      -0.805191       -21.9103
  59   2.0000      -0.800067       -21.7709
  60   2.0000      -0.775725       -21.1085
  61   2.0000      -0.771909       -21.0047
  62   2.0000      -0.761274       -20.7153
  63   2.0000      -0.740047       -20.1377
  64   2.0000      -0.737950       -20.0806
  65   2.0000      -0.730826       -19.8868
  66   2.0000      -0.726775       -19.7765
  67   2.0000      -0.723927       -19.6991
  68   2.0000      -0.720851       -19.6153
  69   2.0000      -0.706262       -19.2184
  70   2.0000      -0.705686       -19.2027
  71   2.0000      -0.703222       -19.1356
  72   2.0000      -0.697678       -18.9848
  73   2.0000      -0.682533       -18.5727
  74   2.0000      -0.679156       -18.4808
  75   2.0000      -0.672692       -18.3049
  76   2.0000      -0.668158       -18.1815
  77   2.0000      -0.661155       -17.9910
  78   2.0000      -0.648677       -17.6514
  79   2.0000      -0.644550       -17.5391
  80   2.0000      -0.640693       -17.4342
  81   2.0000      -0.633217       -17.2307
  82   2.0000      -0.632068       -17.1995
  83   2.0000      -0.620285       -16.8788
  84   2.0000      -0.619111       -16.8469
  85   2.0000      -0.603261       -16.4156
  86   2.0000      -0.595677       -16.2092
  87   2.0000      -0.592441       -16.1211
  88   2.0000      -0.585440       -15.9306
  89   2.0000      -0.581367       -15.8198
  90   2.0000      -0.578341       -15.7375
  91   2.0000      -0.559615       -15.2279
  92   2.0000      -0.557664       -15.1748
  93   2.0000      -0.546560       -14.8727
  94   2.0000      -0.534928       -14.5561
  95   2.0000      -0.534067       -14.5327
  96   2.0000      -0.520835       -14.1726
  97   2.0000      -0.517602       -14.0847
  98   2.0000      -0.506347       -13.7784
  99   2.0000      -0.496890       -13.5211
 100   2.0000      -0.488084       -13.2814
 101   2.0000      -0.484364       -13.1802
 102   2.0000      -0.476234       -12.9590
 103   2.0000      -0.470178       -12.7942
 104   2.0000      -0.466090       -12.6830
 105   2.0000      -0.458758       -12.4834
 106   2.0000      -0.450847       -12.2682
 107   2.0000      -0.443538       -12.0693
 108   2.0000      -0.365935        -9.9576
 109   2.0000      -0.359964        -9.7951
 110   2.0000      -0.335685        -9.1344
 111   2.0000      -0.321500        -8.7485
 112   2.0000      -0.273476        -7.4417
 113   0.0000       0.018247         0.4965
 114   0.0000       0.026204         0.7131
 115   0.0000       0.027843         0.7576
 116   0.0000       0.030690         0.8351
 117   0.0000       0.033675         0.9164

MULLIKEN ATOMIC CHARGES
-----------------------
   0 C :   -0.699072
   1 C :   -1.071157
   2 C :    1.880865
   3 C :   -0.284235
   4 C :   -1.286218
   5 C :   -0.062587
   6 H :    0.611305
   7 H :   -0.332771
   8 H :    0.271172
   9 H :    0.391131
  10 H :    0.536136
  11 C :    0.262756
  12 H :    0.135074
  13 C :    0.348849
  14 H :    0.851444
  15 C :   -1.041937
  16 C :   -0.972096
  17 C :   -0.506840
  18 H :    0.343390
  19 H :    0.279777
  20 C :   -0.569270
  21 H :    0.145810
  22 H :    0.280432
  23 C :   -0.591336
  24 H :    0.349096
  25 H :    0.321802
  26 H :    0.450931
  27 H :    0.279269
  28 H :    0.104971
  29 H :    0.277621
  30 N :   -0.314995
  31 N :    0.417355
  32 N :    0.315350
  33 N :   -0.970435
  34 C :   -0.119511
  35 C :    1.118853
  36 C :    0.355318
  37 C :    0.494302
  38 C :    0.862529
  39 C :    0.451272
  40 F :   -0.767191
  41 F :   -0.612284
  42 F :   -0.623100
  43 F :   -0.559002
  44 C :    0.318928
  45 O :   -0.872691
  46 O :   -0.389400
  47 C :   -0.895914
  48 H :    0.325714
  49 H :    0.390193
  50 H :    0.370397
Sum of atomic charges:    0.0000000

LOEWDIN ATOMIC CHARGES
----------------------
   0 C :    0.193584
   1 C :    0.212012
   2 C :   -0.152864
   3 C :    0.209081
   4 C :    0.200059
   5 C :    0.190058
   6 H :   -0.182017
   7 H :   -0.178408
   8 H :   -0.206680
   9 H :   -0.180903
  10 H :   -0.187805
  11 C :    0.067795
  12 H :   -0.220653
  13 C :    0.100489
  14 H :   -0.174971
  15 C :    0.233889
  16 C :    0.232899
  17 C :    0.314206
  18 H :   -0.168466
  19 H :   -0.118706
  20 C :    0.315471
  21 H :   -0.146436
  22 H :   -0.121628
  23 C :    0.304785
  24 H :   -0.149336
  25 H :   -0.131737
  26 H :   -0.171579
  27 H :   -0.128870
  28 H :   -0.136871
  29 H :   -0.135450
  30 N :    0.305158
  31 N :    0.216193
  32 N :   -0.131475
  33 N :    0.377056
  34 C :   -0.360502
  35 C :   -0.535117
  36 C :   -0.504856
  37 C :   -0.524851
  38 C :   -0.528110
  39 C :   -0.154238
  40 F :    0.530434
  41 F :    0.542526
  42 F :    0.549708
  43 F :    0.522842
  44 C :   -0.851678
  45 O :    0.476931
  46 O :    0.563669
  47 C :    0.365578
  48 H :   -0.183606
  49 H :   -0.178243
  50 H :   -0.178370

  Mayer bond orders larger than 0.100000
B(  0-C ,  1-C ) :   1.0522 B(  0-C ,  4-C ) :   0.2815 B(  0-C ,  5-C ) :   1.1015
B(  0-C ,  6-H ) :   0.4796 B(  0-C ,  7-H ) :  -0.1716 B(  0-C , 10-H ) :  -0.2287
B(  0-C , 11-C ) :   0.1250 B(  1-C ,  2-C ) :  -0.2299 B(  1-C ,  3-C ) :  -0.8360
B(  1-C ,  4-C ) :   0.2140 B(  1-C ,  5-C ) :  -0.2133 B(  1-C ,  6-H ) :  -0.2256
B(  1-C ,  7-H ) :   2.3855 B(  1-C ,  8-H ) :   0.1033 B(  1-C , 10-H ) :   0.1946
B(  1-C , 11-C ) :   0.5406 B(  2-C ,  3-C ) :   0.7777 B(  2-C ,  5-C ) :   0.1294
B(  2-C ,  7-H ) :  -0.5649 B(  2-C ,  8-H ) :  -0.2901 B(  2-C , 11-C ) :   0.6721
B(  2-C , 12-H ) :  -0.2278 B(  2-C , 13-C ) :   0.1458 B(  3-C ,  4-C ) :   0.9486
B(  3-C ,  5-C ) :  -0.1685 B(  3-C ,  7-H ) :   0.2648 B(  3-C ,  8-H ) :   1.3122
B(  3-C , 10-H ) :  -0.1079 B(  3-C , 11-C ) :   0.1985 B(  3-C , 12-H ) :  -0.1341
B(  4-C ,  5-C ) :   1.0912 B(  4-C ,  8-H ) :  -0.1768 B(  4-C ,  9-H ) :   0.8538
B(  4-C , 10-H ) :  -0.1994 B(  4-C , 11-C ) :   0.2209 B(  5-C ,  8-H ) :  -0.1032
B(  5-C , 10-H ) :   0.6721 B(  7-H ,  8-H ) :   0.2832 B(  7-H , 11-C ) :  -0.2784
B(  7-H , 12-H ) :  -0.1357 B( 11-C , 12-H ) :   1.1572 B( 11-C , 13-C ) :   0.8445
B( 11-C , 15-C ) :  -0.3332 B( 11-C , 18-H ) :  -0.1292 B( 11-C , 30-N ) :  -0.6222
B( 11-C , 32-N ) :   0.2890 B( 13-C , 14-H ) :   0.4550 B( 13-C , 15-C ) :  -0.1415
B( 13-C , 16-C ) :  -0.5698 B( 13-C , 21-H ) :  -0.1649 B( 13-C , 30-N ) :   0.9342
B( 14-H , 16-C ) :  -0.1024 B( 14-H , 30-N ) :  -0.4107 B( 15-C , 16-C ) :   0.1764
B( 15-C , 17-C ) :   0.8958 B( 15-C , 18-H ) :   0.9982 B( 15-C , 19-H ) :   1.0118
B( 15-C , 23-C ) :   0.1628 B( 15-C , 30-N ) :   1.2215 B( 16-C , 20-C ) :   0.9016
B( 16-C , 21-H ) :   1.1620 B( 16-C , 22-H ) :   1.0208 B( 16-C , 23-C ) :   0.1600
B( 16-C , 26-H ) :   0.1004 B( 16-C , 30-N ) :   1.2307 B( 17-C , 23-C ) :   0.8855
B( 17-C , 24-H ) :   0.9433 B( 17-C , 25-H ) :   0.9009 B( 20-C , 23-C ) :   0.8666
B( 20-C , 26-H ) :   0.7626 B( 20-C , 27-H ) :   0.9271 B( 23-C , 28-H ) :   1.0940
B( 23-C , 29-H ) :   0.9514 B( 23-C , 30-N ) :  -0.1386 B( 30-N , 31-N ) :  -0.1359
B( 30-N , 33-N ) :   0.1277 B( 31-N , 32-N ) :   1.0189 B( 31-N , 33-N ) :   0.7157
B( 31-N , 34-C ) :   0.3244 B( 31-N , 35-C ) :  -0.2258 B( 31-N , 36-C ) :  -0.5642
B( 31-N , 38-C ) :   0.1516 B( 32-N , 33-N ) :   0.2219 B( 32-N , 34-C ) :   0.2990
B( 32-N , 35-C ) :   0.1951 B( 32-N , 36-C ) :  -0.1870 B( 32-N , 38-C ) :  -0.2090
B( 32-N , 43-F ) :  -0.1027 B( 33-N , 34-C ) :   0.1209 B( 33-N , 35-C ) :   0.1806
B( 33-N , 36-C ) :  -0.2535 B( 34-C , 35-C ) :   0.6957 B( 34-C , 36-C ) :   0.7258
B( 34-C , 37-C ) :   0.1214 B( 34-C , 40-F ) :   0.2831 B( 34-C , 41-F ) :   0.1654
B( 34-C , 43-F ) :   0.3513 B( 35-C , 36-C ) :  -0.1825 B( 35-C , 37-C ) :   0.9197
B( 35-C , 38-C ) :   0.1919 B( 35-C , 40-F ) :  -0.1571 B( 35-C , 41-F ) :   0.2725
B( 36-C , 37-C ) :   0.1116 B( 36-C , 38-C ) :   0.9863 B( 36-C , 39-C ) :   0.2952
B( 36-C , 42-F ) :   0.4528 B( 37-C , 38-C ) :  -0.4312 B( 37-C , 39-C ) :   1.6004
B( 37-C , 44-C ) :   0.1614 B( 38-C , 39-C ) :   1.4733 B( 38-C , 42-F ) :  -0.1347
B( 38-C , 43-F ) :   0.1705 B( 39-C , 42-F ) :   0.3283 B( 39-C , 44-C ) :  -0.2610
B( 39-C , 45-O ) :   0.1037 B( 39-C , 46-O ) :  -0.1221 B( 40-F , 41-F ) :   0.1342
B( 42-F , 43-F ) :   0.1283 B( 44-C , 45-O ) :   1.3814 B( 44-C , 46-O ) :   1.0981
B( 44-C , 47-C ) :  -0.1196 B( 46-O , 47-C ) :   0.9088 B( 47-C , 48-H ) :   0.9242
B( 47-C , 49-H ) :   0.8495 B( 47-C , 50-H ) :   0.8644

MP2 TOTAL ENERGY:    -1578.297751007 Eh
FINAL SINGLE POINT ENERGY     -1578.297751006501

DIPOLE MOMENT
-------------
                                X             Y             Z
Electronic contribution:     26.98427     -15.90306       9.67314
Nuclear contribution   :    -27.98494      17.07455     -10.95196
                        -----------------------------------------
Total Dipole Moment    :     -1.00067       1.17149      -1.27882
                        -----------------------------------------
Magnitude (a.u.)       :      2.00228
Magnitude (Debye)      :      5.08939

Rotational constants in cm-1:     0.007271     0.002906     0.002554
Rotational constants in MHz :   217.965462    87.126265    76.554148

                             ****ORCA TERMINATED NORMALLY****
TOTAL RUN TIME: 0 days 2 hours 28 minutes 2 seconds 793 msec
