                         Program Version 4.2.1 -  RELEASE  -
|  1> %pal
|  2>  nprocs 32
|  3> end
|  4> !RI-MP2 aug-cc-pVTZ aug-cc-pVTZ/C TightSCF
|  5> %maxcore 4500
|  6> *xyzfile 0 1  03_28R1.xyz
|  7>
|  8>
|  9>                          ****END OF INPUT****

CARTESIAN COORDINATES (ANGSTROEM)
---------------------------------
  C      1.963488   -0.158892    0.000005
  C      0.564933   -0.766590   -0.000100
  C     -0.579649    0.213799   -0.000035
  O     -1.748986   -0.436848   -0.000075
  O     -0.494886    1.414709    0.000038
  C     -2.937728    0.377260   -0.000023
  C     -4.123842   -0.554665    0.000053
  C      2.274973    0.618102   -1.261739
  C      2.274875    0.617879    1.261909
  H      0.452659   -1.414285   -0.872937
  H     -2.918808    1.020195   -0.881493
  H     -2.918714    1.020226    0.881421
  H     -4.117731   -1.192322   -0.885114
  H     -5.048783    0.025311    0.000070
  H     -4.117663   -1.192266    0.885260
  H      2.098566   -0.001533   -2.142930
  H      3.322423    0.922468   -1.257765
  H      1.646869    1.506652   -1.319216
  H      2.098414   -0.001917    2.142976
  H      1.646757    1.506412    1.319502
  H      3.322321    0.922260    1.258065
  H      0.452606   -1.414470    0.872593
  F      2.823307   -1.290109   -0.000062

 Total Charge           Charge          ....    0
 Multiplicity           Mult            ....    1
 Number of Electrons    NEL             ....   80
 Basis Dimension        Dim             ....  759

ORBITAL ENERGIES
----------------

  NO   OCC          E(Eh)            E(eV)
   0   2.0000     -26.263901      -714.6771
   1   2.0000     -20.606679      -560.7362
   2   2.0000     -20.550788      -559.2154
   3   2.0000     -11.386760      -309.8495
   4   2.0000     -11.320010      -308.0331
   5   2.0000     -11.294067      -307.3272
   6   2.0000     -11.248586      -306.0896
   7   2.0000     -11.229283      -305.5643
   8   2.0000     -11.216399      -305.2137
   9   2.0000     -11.216386      -305.2134
  10   2.0000      -1.572282       -42.7840
  11   2.0000      -1.470877       -40.0246
  12   2.0000      -1.368818       -37.2474
  13   2.0000      -1.104955       -30.0674
  14   2.0000      -1.052941       -28.6520
  15   2.0000      -0.989804       -26.9339
  16   2.0000      -0.950501       -25.8644
  17   2.0000      -0.877924       -23.8895
  18   2.0000      -0.808171       -21.9915
  19   2.0000      -0.775041       -21.0899
  20   2.0000      -0.709685       -19.3115
  21   2.0000      -0.695809       -18.9339
  22   2.0000      -0.687960       -18.7203
  23   2.0000      -0.671342       -18.2681
  24   2.0000      -0.661384       -17.9972
  25   2.0000      -0.635494       -17.2927
  26   2.0000      -0.620415       -16.8824
  27   2.0000      -0.587548       -15.9880
  28   2.0000      -0.570598       -15.5268
  29   2.0000      -0.570390       -15.5211
  30   2.0000      -0.556126       -15.1329
  31   2.0000      -0.542578       -14.7643
  32   2.0000      -0.537616       -14.6293
  33   2.0000      -0.530622       -14.4390
  34   2.0000      -0.518102       -14.0983
  35   2.0000      -0.508669       -13.8416
  36   2.0000      -0.481182       -13.0936
  37   2.0000      -0.478660       -13.0250
  38   2.0000      -0.465835       -12.6760
  39   2.0000      -0.454320       -12.3627
  40   0.0000       0.025833         0.7029
  41   0.0000       0.034869         0.9488
  42   0.0000       0.035457         0.9648
  43   0.0000       0.037009         1.0071
  44   0.0000       0.046242         1.2583

MULLIKEN ATOMIC CHARGES
-----------------------
   0 C :    1.394590
   1 C :   -0.126510
   2 C :    0.477617
   3 O :   -0.344345
   4 O :   -0.844681
   5 C :   -0.236904
   6 C :   -0.962027
   7 C :   -1.153800
   8 C :   -1.153797
   9 H :    0.236217
  10 H :    0.324481
  11 H :    0.324510
  12 H :    0.254529
  13 H :    0.325079
  14 H :    0.254523
  15 H :    0.258102
  16 H :    0.269645
  17 H :    0.334549
  18 H :    0.258103
  19 H :    0.334548
  20 H :    0.269647
  21 H :    0.236199
  22 F :   -0.730273
Sum of atomic charges:    0.0000000

LOEWDIN ATOMIC CHARGES
----------------------
   0 C :   -0.699978
   1 C :    0.276451
   2 C :   -0.800838
   3 O :    0.595226
   4 O :    0.496764
   5 C :    0.033452
   6 C :    0.580627
   7 C :    0.583823
   8 C :    0.583822
   9 H :   -0.146497
  10 H :   -0.156898
  11 H :   -0.156908
  12 H :   -0.171192
  13 H :   -0.171506
  14 H :   -0.171191
  15 H :   -0.160142
  16 H :   -0.160677
  17 H :   -0.180820
  18 H :   -0.160142
  19 H :   -0.180819
  20 H :   -0.160677
  21 H :   -0.146498
  22 F :    0.474617

  Mayer bond orders larger than 0.100000
B(  0-C ,  1-C ) :   0.9981 B(  0-C ,  2-C ) :   0.1129 B(  0-C ,  7-C ) :   0.7421
B(  0-C ,  8-C ) :   0.7421 B(  0-C , 22-F ) :  -0.1491 B(  1-C ,  2-C ) :   0.4540
B(  1-C ,  3-O ) :  -0.1016 B(  1-C ,  9-H ) :   0.9781 B(  1-C , 21-H ) :   0.9781
B(  1-C , 22-F ) :   0.1585 B(  2-C ,  3-O ) :   1.0366 B(  2-C ,  4-O ) :   1.4176
B(  3-O ,  5-C ) :   0.8161 B(  5-C ,  6-C ) :   0.8844 B(  5-C , 10-H ) :   0.9051
B(  5-C , 11-H ) :   0.9051 B(  6-C , 12-H ) :   0.9820 B(  6-C , 13-H ) :   0.9269
B(  6-C , 14-H ) :   0.9820 B(  7-C ,  8-C ) :   0.1035 B(  7-C , 15-H ) :   0.9971
B(  7-C , 16-H ) :   1.0126 B(  7-C , 17-H ) :   0.9143 B(  7-C , 22-F ) :   0.1515
B(  8-C , 18-H ) :   0.9971 B(  8-C , 19-H ) :   0.9143 B(  8-C , 20-H ) :   1.0126
B(  8-C , 22-F ) :   0.1515

MP2 TOTAL ENERGY:     -523.983579900 Eh
FINAL SINGLE POINT ENERGY      -523.983579900291

DIPOLE MOMENT
-------------
                                X             Y             Z
Electronic contribution:      6.05699      -3.02709      -0.00049
Nuclear contribution   :     -7.00113       3.03808       0.00050
                        -----------------------------------------
Total Dipole Moment    :     -0.94414       0.01099       0.00001
                        -----------------------------------------
Magnitude (a.u.)       :      0.94421
Magnitude (Debye)      :      2.39998

Rotational constants in cm-1:     0.103490     0.019517     0.018548
Rotational constants in MHz :  3102.560735   585.103123   556.057485

                             ****ORCA TERMINATED NORMALLY****
TOTAL RUN TIME: 0 days 0 hours 6 minutes 31 seconds 800 msec
