                         Program Version 4.2.1 -  RELEASE  -
|  1> %pal
|  2>  nprocs 32
|  3> end
|  4> !RI-MP2 aug-cc-pVTZ aug-cc-pVTZ/C TightSCF
|  5> %maxcore 4500
|  6> *xyzfile 0 1  04_73R1.xyz
|  7>
|  8>
|  9>                          ****END OF INPUT****

CARTESIAN COORDINATES (ANGSTROEM)
---------------------------------
  N      1.217634   -1.626171    0.235430
  C      0.124074   -2.409341    0.783132
  H      1.843282   -1.137531    0.869609
  C     -1.110132   -1.534151    0.996340
  H     -0.099982   -3.231865    0.102550
  H      0.421078   -2.807779    1.749647
  O     -1.473112   -1.175686    2.098952
  N     -1.740719   -1.172964   -0.155172
  H     -1.285330   -1.414860   -1.030071
  C     -2.769828   -0.178015   -0.143668
  C     -2.261048    1.219394   -0.426833
  H     -3.545940   -0.406135   -0.877481
  H     -3.242680   -0.168070    0.839578
  O     -1.124070    1.530009   -0.667279
  O     -3.264249    2.106536   -0.390358
  H     -2.899384    2.982614   -0.578404
  C      1.241921   -1.261117   -1.062886
  C      2.253600   -0.174554   -1.400687
  O      0.464678   -1.702994   -1.900312
  N      1.876061    1.080577   -0.774015
  H      2.265552   -0.053208   -2.481207
  H      3.249746   -0.444307   -1.050699
  H      1.066023    1.555351   -1.146736
  C      2.200287    1.336260    0.519608
  C      1.669233    2.620604    1.095552
  O      2.897430    0.571641    1.174088
  H      0.946068    3.108713    0.443935
  H      2.509797    3.293390    1.273528
  H      1.206884    2.403067    2.057965

 Total Charge           Charge          ....    0
 Multiplicity           Mult            ....    1
 Number of Electrons    NEL             ....  122
 Basis Dimension        Dim             .... 1035

ORBITAL ENERGIES
----------------

  NO   OCC          E(Eh)            E(eV)
   0   2.0000     -20.635207      -561.5125
   1   2.0000     -20.574308      -559.8554
   2   2.0000     -20.534893      -558.7828
   3   2.0000     -20.529085      -558.6248
   4   2.0000     -20.528668      -558.6135
   5   2.0000     -15.595958      -424.3876
   6   2.0000     -15.593009      -424.3074
   7   2.0000     -15.586574      -424.1322
   8   2.0000     -11.408593      -310.4436
   9   2.0000     -11.360735      -309.1413
  10   2.0000     -11.360333      -309.1304
  11   2.0000     -11.353872      -308.9546
  12   2.0000     -11.295372      -307.3627
  13   2.0000     -11.283607      -307.0425
  14   2.0000     -11.282350      -307.0083
  15   2.0000     -11.238408      -305.8126
  16   2.0000      -1.493820       -40.6489
  17   2.0000      -1.404691       -38.2236
  18   2.0000      -1.395552       -37.9749
  19   2.0000      -1.391973       -37.8775
  20   2.0000      -1.388449       -37.7816
  21   2.0000      -1.254239       -34.1296
  22   2.0000      -1.246631       -33.9226
  23   2.0000      -1.235671       -33.6243
  24   2.0000      -1.050469       -28.5847
  25   2.0000      -1.029214       -28.0063
  26   2.0000      -0.990150       -26.9434
  27   2.0000      -0.950168       -25.8554
  28   2.0000      -0.857612       -23.3368
  29   2.0000      -0.811339       -22.0777
  30   2.0000      -0.799045       -21.7431
  31   2.0000      -0.788650       -21.4603
  32   2.0000      -0.744300       -20.2534
  33   2.0000      -0.733001       -19.9460
  34   2.0000      -0.730128       -19.8678
  35   2.0000      -0.713470       -19.4145
  36   2.0000      -0.692593       -18.8464
  37   2.0000      -0.672037       -18.2870
  38   2.0000      -0.669727       -18.2242
  39   2.0000      -0.662329       -18.0229
  40   2.0000      -0.658088       -17.9075
  41   2.0000      -0.629466       -17.1286
  42   2.0000      -0.614678       -16.7262
  43   2.0000      -0.609189       -16.5769
  44   2.0000      -0.600938       -16.3524
  45   2.0000      -0.591373       -16.0921
  46   2.0000      -0.577783       -15.7223
  47   2.0000      -0.572973       -15.5914
  48   2.0000      -0.560029       -15.2392
  49   2.0000      -0.552838       -15.0435
  50   2.0000      -0.544783       -14.8243
  51   2.0000      -0.543162       -14.7802
  52   2.0000      -0.526582       -14.3290
  53   2.0000      -0.511045       -13.9063
  54   2.0000      -0.484173       -13.1750
  55   2.0000      -0.457262       -12.4427
  56   2.0000      -0.453036       -12.3277
  57   2.0000      -0.438040       -11.9197
  58   2.0000      -0.408899       -11.1267
  59   2.0000      -0.402377       -10.9492
  60   2.0000      -0.395543       -10.7633
  61   0.0000       0.019857         0.5403
  62   0.0000       0.031988         0.8704
  63   0.0000       0.033518         0.9121
  64   0.0000       0.037971         1.0332
  65   0.0000       0.042389         1.1535

MULLIKEN ATOMIC CHARGES
-----------------------
   0 N :   -0.273361
   1 C :   -0.103603
   2 H :    0.284608
   3 C :    0.517259
   4 H :    0.343625
   5 H :    0.353095
   6 O :   -1.059648
   7 N :   -0.190161
   8 H :    0.148602
   9 C :    0.020727
  10 C :    0.348682
  11 H :    0.361695
  12 H :    0.376823
  13 O :   -0.613024
  14 O :   -0.590209
  15 H :    0.256712
  16 C :    0.578326
  17 C :   -0.183414
  18 O :   -1.091380
  19 N :   -0.207706
  20 H :    0.345825
  21 H :    0.360152
  22 H :    0.217826
  23 C :    0.932151
  24 C :   -0.967296
  25 O :   -1.108387
  26 H :    0.312399
  27 H :    0.347285
  28 H :    0.282397
Sum of atomic charges:   -0.0000000

LOEWDIN ATOMIC CHARGES
----------------------
   0 N :    0.572527
   1 C :    0.230802
   2 H :   -0.387751
   3 C :   -0.642384
   4 H :   -0.149363
   5 H :   -0.150067
   6 O :    0.459296
   7 N :    0.550046
   8 H :   -0.412434
   9 C :    0.187098
  10 C :   -0.756539
  11 H :   -0.141335
  12 H :   -0.169479
  13 O :    0.504103
  14 O :    0.847225
  15 H :   -0.460348
  16 C :   -0.624034
  17 C :    0.224461
  18 O :    0.501066
  19 N :    0.566016
  20 H :   -0.150592
  21 H :   -0.155306
  22 H :   -0.360224
  23 C :   -0.659631
  24 C :    0.605928
  25 O :    0.492340
  26 H :   -0.188948
  27 H :   -0.165665
  28 H :   -0.166811

  Mayer bond orders larger than 0.100000
B(  0-N ,  1-C ) :   1.0317 B(  0-N ,  2-H ) :   0.8430 B(  0-N , 16-C ) :   1.0391
B(  1-C ,  3-C ) :   0.5232 B(  1-C ,  4-H ) :   0.9481 B(  1-C ,  5-H ) :   0.9230
B(  1-C , 16-C ) :  -0.1446 B(  3-C ,  6-O ) :   1.0149 B(  3-C ,  7-N ) :   0.9001
B(  7-N ,  8-H ) :   0.9544 B(  7-N ,  9-C ) :   1.0166 B(  7-N , 10-C ) :   0.1026
B(  9-C , 10-C ) :   0.3557 B(  9-C , 11-H ) :   0.8924 B(  9-C , 12-H ) :   0.8753
B( 10-C , 13-O ) :   1.5373 B( 10-C , 14-O ) :   0.9599 B( 14-O , 15-H ) :   0.9457
B( 16-C , 17-C ) :   0.5877 B( 16-C , 18-O ) :   0.8570 B( 17-C , 19-N ) :   1.0130
B( 17-C , 20-H ) :   0.9241 B( 17-C , 21-H ) :   0.9586 B( 19-N , 22-H ) :   0.9481
B( 19-N , 23-C ) :   0.8361 B( 19-N , 24-C ) :   0.1002 B( 23-C , 24-C ) :   0.6570
B( 23-C , 25-O ) :   1.1354 B( 24-C , 26-H ) :   0.9290 B( 24-C , 27-H ) :   0.9295
B( 24-C , 28-H ) :   1.0070

MP2 TOTAL ENERGY:     -851.721812557 Eh
FINAL SINGLE POINT ENERGY      -851.721812556983

DIPOLE MOMENT
-------------
                                X             Y             Z
Electronic contribution:     -2.94890      -2.54812      -1.14404
Nuclear contribution   :      2.38200       3.65700       0.17155
                        -----------------------------------------
Total Dipole Moment    :     -0.56690       1.10888      -0.97249
                        -----------------------------------------
Magnitude (a.u.)       :      1.58011
Magnitude (Debye)      :      4.01631

Rotational constants in cm-1:     0.020513     0.014716     0.011767
Rotational constants in MHz :   614.966408   441.171065   352.766874

                             ****ORCA TERMINATED NORMALLY****
TOTAL RUN TIME: 0 days 0 hours 19 minutes 39 seconds 468 msec
