                         Program Version 4.2.1 -  RELEASE  -
|  1> %pal
|  2>  nprocs 32
|  3> end
|  4> !RI-MP2 aug-cc-pVTZ aug-cc-pVTZ/C TightSCF
|  5> %maxcore 4500
|  6> *xyzfile 0 1  02_32R2.xyz
|  7>
|  8>
|  9>                          ****END OF INPUT****

CARTESIAN COORDINATES (ANGSTROEM)
---------------------------------
  C      0.907898    0.813593   -0.000007
  C     -0.154084    0.087446    0.000015
  C      1.142448   -0.673532   -0.000001
  H      1.477833   -1.168206    0.912491
  H      1.477797   -1.168219   -0.912499
  C     -1.618202   -0.071480   -0.000003
  H     -2.125321    0.894336   -0.000146
  H     -1.938782   -0.637241   -0.878701
  H     -1.938834   -0.636999    0.878833
  H      1.378950    1.780174    0.000000

 Total Charge           Charge          ....    0
 Multiplicity           Mult            ....    1
 Number of Electrons    NEL             ....   30
 Basis Dimension        Dim             ....  322

ORBITAL ENERGIES
----------------

  NO   OCC          E(Eh)            E(eV)
   0   2.0000     -11.242715      -305.9298
   1   2.0000     -11.236064      -305.7489
   2   2.0000     -11.228915      -305.5543
   3   2.0000     -11.228306      -305.5377
   4   2.0000      -1.158650       -31.5285
   5   2.0000      -0.987727       -26.8774
   6   2.0000      -0.812479       -22.1087
   7   2.0000      -0.724737       -19.7211
   8   2.0000      -0.633863       -17.2483
   9   2.0000      -0.604917       -16.4606
  10   2.0000      -0.588063       -16.0020
  11   2.0000      -0.559086       -15.2135
  12   2.0000      -0.470682       -12.8079
  13   2.0000      -0.405586       -11.0365
  14   2.0000      -0.343446        -9.3456
  15   0.0000       0.030065         0.8181
  16   0.0000       0.035189         0.9575
  17   0.0000       0.040039         1.0895
  18   0.0000       0.043264         1.1773
  19   0.0000       0.058658         1.5962

MULLIKEN ATOMIC CHARGES
-----------------------
   0 C :   -1.241949
   1 C :    0.883498
   2 C :   -0.825051
   3 H :    0.324732
   4 H :    0.324714
   5 C :   -0.654901
   6 H :    0.293808
   7 H :    0.279846
   8 H :    0.279843
   9 H :    0.335461
Sum of atomic charges:    0.0000000

LOEWDIN ATOMIC CHARGES
----------------------
   0 C :    0.305992
   1 C :   -0.072506
   2 C :    0.301678
   3 H :   -0.198046
   4 H :   -0.198046
   5 C :    0.587544
   6 H :   -0.178446
   7 H :   -0.176172
   8 H :   -0.176172
   9 H :   -0.195825

  Mayer bond orders larger than 0.100000
B(  0-C ,  1-C ) :   0.6507 B(  0-C ,  2-C ) :   1.2368 B(  0-C ,  9-H ) :   1.1993
B(  1-C ,  2-C ) :   0.6328 B(  1-C ,  5-C ) :   0.7129 B(  2-C ,  3-H ) :   0.8615
B(  2-C ,  4-H ) :   0.8615 B(  5-C ,  6-H ) :   0.9783 B(  5-C ,  7-H ) :   0.9547
B(  5-C ,  8-H ) :   0.9547

MP2 TOTAL ENERGY:     -155.593487264 Eh
FINAL SINGLE POINT ENERGY      -155.593487264222

DIPOLE MOMENT
-------------
                                X             Y             Z
Electronic contribution:      1.39809       1.09619       0.00002
Nuclear contribution   :     -1.73776      -0.97510      -0.00002
                        -----------------------------------------
Total Dipole Moment    :     -0.33967       0.12109       0.00000
                        -----------------------------------------
Magnitude (a.u.)       :      0.36061
Magnitude (Debye)      :      0.91659

Rotational constants in cm-1:     0.692613     0.213517     0.174112
Rotational constants in MHz : 20764.013814  6401.083952  5219.756912

                             ****ORCA TERMINATED NORMALLY****
TOTAL RUN TIME: 0 days 0 hours 0 minutes 29 seconds 922 msec
