                         Program Version 4.2.1 -  RELEASE  -
|  1> %pal
|  2>  nprocs 32
|  3> end
|  4> !RI-MP2 aug-cc-pVTZ aug-cc-pVTZ/C TightSCF
|  5> %maxcore 4500
|  6> *xyzfile 0 1  04_47R1.xyz
|  7>
|  8>
|  9>                          ****END OF INPUT****

CARTESIAN COORDINATES (ANGSTROEM)
---------------------------------
  C     -0.515389    0.705590    0.007206
  C     -0.531708   -0.680780    0.007770
  N     -1.614249   -1.430424    0.005109
  C     -2.767462   -0.757484   -0.006682
  C     -2.862279    0.633156   -0.010121
  C     -1.705480    1.402746    0.000218
  C      0.896217    1.179545    0.018036
  C      0.887912   -1.181622    0.015855
  H     -3.668200   -1.361621   -0.013043
  H     -3.838936    1.099231   -0.020378
  H     -1.728380    2.485319   -0.000019
  O      1.324272   -2.289383   -0.033752
  O      1.329811    2.293709   -0.029530
  N      1.649767    0.000519    0.112651
  O      2.988675   -0.001511   -0.148220
  H      3.433976   -0.043031    0.707449

 Total Charge           Charge          ....    0
 Multiplicity           Mult            ....    1
 Number of Electrons    NEL             ....   84
 Basis Dimension        Dim             ....  644

ORBITAL ENERGIES
----------------

  NO   OCC          E(Eh)            E(eV)
   0   2.0000     -20.644230      -561.7581
   1   2.0000     -20.573674      -559.8381
   2   2.0000     -20.572990      -559.8195
   3   2.0000     -15.678349      -426.6296
   4   2.0000     -15.607919      -424.7131
   5   2.0000     -11.396339      -310.1101
   6   2.0000     -11.392696      -310.0110
   7   2.0000     -11.320823      -308.0552
   8   2.0000     -11.314778      -307.8908
   9   2.0000     -11.301047      -307.5171
  10   2.0000     -11.284925      -307.0784
  11   2.0000     -11.280578      -306.9601
  12   2.0000      -1.498992       -40.7897
  13   2.0000      -1.427430       -38.8424
  14   2.0000      -1.418698       -38.6047
  15   2.0000      -1.313400       -35.7394
  16   2.0000      -1.238203       -33.6932
  17   2.0000      -1.135273       -30.8923
  18   2.0000      -1.075548       -29.2672
  19   2.0000      -0.951259       -25.8851
  20   2.0000      -0.926548       -25.2127
  21   2.0000      -0.873329       -23.7645
  22   2.0000      -0.819901       -22.3106
  23   2.0000      -0.764463       -20.8021
  24   2.0000      -0.752298       -20.4711
  25   2.0000      -0.723227       -19.6800
  26   2.0000      -0.706012       -19.2116
  27   2.0000      -0.679501       -18.4902
  28   2.0000      -0.664739       -18.0885
  29   2.0000      -0.647317       -17.6144
  30   2.0000      -0.629042       -17.1171
  31   2.0000      -0.621703       -16.9174
  32   2.0000      -0.589252       -16.0344
  33   2.0000      -0.572833       -15.5876
  34   2.0000      -0.563730       -15.3399
  35   2.0000      -0.553212       -15.0537
  36   2.0000      -0.506751       -13.7894
  37   2.0000      -0.453673       -12.3451
  38   2.0000      -0.449391       -12.2286
  39   2.0000      -0.436448       -11.8763
  40   2.0000      -0.423762       -11.5312
  41   2.0000      -0.385618       -10.4932
  42   0.0000       0.018512         0.5037
  43   0.0000       0.031003         0.8436
  44   0.0000       0.033185         0.9030
  45   0.0000       0.034030         0.9260
  46   0.0000       0.044751         1.2177

MULLIKEN ATOMIC CHARGES
-----------------------
   0 C :    1.122365
   1 C :    0.733869
   2 N :   -0.529890
   3 C :   -0.469321
   4 C :   -0.308391
   5 C :   -1.325432
   6 C :    0.266057
   7 C :    0.304632
   8 H :    0.682707
   9 H :    0.330754
  10 H :    0.354215
  11 O :   -0.778311
  12 O :   -0.844412
  13 N :    0.771032
  14 O :   -0.513572
  15 H :    0.203698
Sum of atomic charges:    0.0000000

LOEWDIN ATOMIC CHARGES
----------------------
   0 C :   -0.123067
   1 C :   -0.309108
   2 N :    0.424818
   3 C :    0.051348
   4 C :    0.233004
   5 C :    0.257327
   6 C :   -0.646412
   7 C :   -0.626660
   8 H :   -0.180791
   9 H :   -0.179959
  10 H :   -0.149573
  11 O :    0.476717
  12 O :    0.469105
  13 N :   -0.015961
  14 O :    0.774420
  15 H :   -0.455209

  Mayer bond orders larger than 0.100000
B(  0-C ,  1-C ) :   0.6059 B(  0-C ,  3-C ) :  -0.2902 B(  0-C ,  5-C ) :   0.1607
B(  0-C ,  6-C ) :   0.6040 B(  0-C ,  7-C ) :   0.5633 B(  0-C , 13-N ) :  -0.1964
B(  1-C ,  2-N ) :   0.5552 B(  1-C ,  3-C ) :   0.1400 B(  1-C ,  5-C ) :   0.4237
B(  1-C ,  6-C ) :  -0.2581 B(  1-C ,  7-C ) :   0.1798 B(  1-C , 11-O ) :   0.1837
B(  1-C , 13-N ) :  -0.2607 B(  2-N ,  3-C ) :   1.4361 B(  2-N ,  4-C ) :  -0.1642
B(  3-C ,  4-C ) :   0.9176 B(  3-C ,  5-C ) :   0.2603 B(  3-C ,  8-H ) :   0.3707
B(  4-C ,  5-C ) :   1.3368 B(  4-C ,  9-H ) :   1.0315 B(  5-C , 10-H ) :   1.0035
B(  6-C ,  7-C ) :  -0.1166 B(  6-C , 12-O ) :   1.1795 B(  6-C , 13-N ) :   1.0476
B(  7-C , 11-O ) :   1.1957 B(  7-C , 13-N ) :   1.1049 B( 11-O , 13-N ) :  -0.1258
B( 12-O , 13-N ) :  -0.1298 B( 13-N , 14-O ) :   0.5246 B( 14-O , 15-H ) :   1.0223

MP2 TOTAL ENERGY:     -603.255630744 Eh
FINAL SINGLE POINT ENERGY      -603.255630744408

DIPOLE MOMENT
-------------
                                X             Y             Z
Electronic contribution:      3.98300      -1.26027      -0.05835
Nuclear contribution   :     -5.49095       2.08737       0.64534
                        -----------------------------------------
Total Dipole Moment    :     -1.50795       0.82711       0.58699
                        -----------------------------------------
Magnitude (a.u.)       :      1.81730
Magnitude (Debye)      :      4.61921

Rotational constants in cm-1:     0.058665     0.029619     0.019731
Rotational constants in MHz :  1758.717759   887.950990   591.513913

                             ****ORCA TERMINATED NORMALLY****
TOTAL RUN TIME: 0 days 0 hours 5 minutes 9 seconds 7 msec
