                         Program Version 4.2.1 -  RELEASE  -
|  1> %pal
|  2>  nprocs 32
|  3> end
|  4> !RI-MP2 aug-cc-pVTZ aug-cc-pVTZ/C TightSCF
|  5> %maxcore 4500
|  6> *xyzfile -1 1  09_16TS.xyz
|  7>
|  8>
|  9>                          ****END OF INPUT****

CARTESIAN COORDINATES (ANGSTROEM)
---------------------------------
  C      1.939775    0.307296    0.152705
  C      1.040754    1.522309    0.283994
  O      1.440858    2.581628   -0.245586
  C     -0.209355    1.348449    0.901510
  C     -1.422500    0.793445   -0.794104
  C     -2.630508    0.234246   -0.481243
  C     -3.302564   -0.156845    0.569265
  O     -4.575310   -0.729729    0.580521
  C     -5.159936   -0.886971   -0.686209
  H     -0.752012    2.249523    1.159816
  H     -0.377520    0.495982    1.546667
  H     -1.385738    1.815192   -1.159419
  H     -0.673903    0.156673   -1.256886
  H     -2.952102   -0.081974    1.599642
  H     -4.547962   -1.529182   -1.329889
  H     -5.269672    0.076960   -1.196072
  H     -6.139866   -1.340707   -0.524435
  C      1.502701   -1.003819    0.346254
  C      2.375497   -2.073916    0.199703
  C      3.704343   -1.853864   -0.140609
  C      4.148235   -0.552393   -0.344654
  C      3.270913    0.512840   -0.207678
  H      0.466223   -1.191864    0.596109
  H      2.012865   -3.085756    0.345431
  H      4.385789   -2.690078   -0.253588
  H      5.182297   -0.369709   -0.618089
  H      3.583093    1.535082   -0.382364

 Total Charge           Charge          ....   -1
 Multiplicity           Mult            ....    1
 Number of Electrons    NEL             ....  102
 Basis Dimension        Dim             ....  943

ORBITAL ENERGIES
----------------

  NO   OCC          E(Eh)            E(eV)
   0   2.0000     -20.434290      -556.0453
   1   2.0000     -20.347993      -553.6970
   2   2.0000     -11.155690      -303.5618
   3   2.0000     -11.146601      -303.3144
   4   2.0000     -11.133081      -302.9465
   5   2.0000     -11.129335      -302.8446
   6   2.0000     -11.128892      -302.8326
   7   2.0000     -11.128420      -302.8197
   8   2.0000     -11.125645      -302.7442
   9   2.0000     -11.122887      -302.6691
  10   2.0000     -11.117980      -302.5356
  11   2.0000     -11.116754      -302.5022
  12   2.0000     -11.042568      -300.4836
  13   2.0000     -11.039702      -300.4056
  14   2.0000      -1.251022       -34.0420
  15   2.0000      -1.185005       -32.2456
  16   2.0000      -1.045059       -28.4375
  17   2.0000      -0.921487       -25.0749
  18   2.0000      -0.907431       -24.6925
  19   2.0000      -0.904668       -24.6173
  20   2.0000      -0.836320       -22.7574
  21   2.0000      -0.816013       -22.2048
  22   2.0000      -0.750115       -20.4117
  23   2.0000      -0.724204       -19.7066
  24   2.0000      -0.710743       -19.3403
  25   2.0000      -0.619094       -16.8464
  26   2.0000      -0.587170       -15.9777
  27   2.0000      -0.573358       -15.6019
  28   2.0000      -0.535370       -14.5681
  29   2.0000      -0.519298       -14.1308
  30   2.0000      -0.510471       -13.8906
  31   2.0000      -0.508566       -13.8388
  32   2.0000      -0.493025       -13.4159
  33   2.0000      -0.484080       -13.1725
  34   2.0000      -0.478624       -13.0240
  35   2.0000      -0.457443       -12.4477
  36   2.0000      -0.436801       -11.8860
  37   2.0000      -0.420325       -11.4376
  38   2.0000      -0.409073       -11.1314
  39   2.0000      -0.405715       -11.0401
  40   2.0000      -0.378665       -10.3040
  41   2.0000      -0.369476       -10.0539
  42   2.0000      -0.365891        -9.9564
  43   2.0000      -0.359163        -9.7733
  44   2.0000      -0.349550        -9.5117
  45   2.0000      -0.257127        -6.9968
  46   2.0000      -0.250630        -6.8200
  47   2.0000      -0.230890        -6.2828
  48   2.0000      -0.222777        -6.0621
  49   2.0000      -0.179592        -4.8869
  50   2.0000      -0.102092        -2.7781
  51   0.0000       0.091661         2.4942
  52   0.0000       0.101206         2.7539
  53   0.0000       0.103719         2.8223
  54   0.0000       0.111609         3.0370
  55   0.0000       0.121055         3.2941

MULLIKEN ATOMIC CHARGES
-----------------------
   0 C :    1.543618
   1 C :    0.998963
   2 O :   -1.264119
   3 C :   -0.843417
   4 C :   -0.434526
   5 C :    0.111463
   6 C :   -0.546576
   7 O :   -0.602813
   8 C :   -0.879172
   9 H :    0.356575
  10 H :    0.278636
  11 H :    0.329706
  12 H :    0.305311
  13 H :    0.367456
  14 H :    0.313274
  15 H :    0.312745
  16 H :    0.382466
  17 C :   -0.380943
  18 C :   -1.276665
  19 C :   -0.133099
  20 C :   -0.613249
  21 C :   -1.055865
  22 H :    0.318425
  23 H :    0.321618
  24 H :    0.498105
  25 H :    0.485756
  26 H :    0.106326
Sum of atomic charges:   -1.0000000

LOEWDIN ATOMIC CHARGES
----------------------
   0 C :   -0.120634
   1 C :   -0.667471
   2 O :    0.367227
   3 C :    0.349889
   4 C :    0.318732
   5 C :    0.037563
   6 C :   -0.189998
   7 O :    0.482770
   8 C :    0.237601
   9 H :   -0.220636
  10 H :   -0.254043
  11 H :   -0.208589
  12 H :   -0.222485
  13 H :   -0.239541
  14 H :   -0.200054
  15 H :   -0.200068
  16 H :   -0.205900
  17 C :    0.199175
  18 C :    0.184579
  19 C :    0.166979
  20 C :    0.177896
  21 C :    0.193281
  22 H :   -0.198093
  23 H :   -0.191998
  24 H :   -0.196484
  25 H :   -0.194676
  26 H :   -0.205023

  Mayer bond orders larger than 0.100000
B(  0-C ,  1-C ) :   0.5264 B(  0-C ,  3-C ) :   0.1458 B(  0-C , 17-C ) :   0.6810
B(  0-C , 20-C ) :   0.1408 B(  0-C , 21-C ) :   0.4082 B(  0-C , 22-H ) :  -0.1002
B(  0-C , 24-H ) :   0.1166 B(  0-C , 26-H ) :  -0.1641 B(  1-C ,  2-O ) :   0.5787
B(  1-C ,  3-C ) :   1.0549 B(  1-C ,  9-H ) :  -0.1326 B(  1-C , 17-C ) :   0.1120
B(  1-C , 18-C ) :  -0.1400 B(  1-C , 19-C ) :   0.1782 B(  1-C , 21-C ) :   0.2750
B(  1-C , 25-H ) :   0.1347 B(  1-C , 26-H ) :  -0.2013 B(  2-O , 26-H ) :   0.1243
B(  3-C ,  4-C ) :   0.5594 B(  3-C ,  9-H ) :   0.8350 B(  3-C , 10-H ) :   1.0382
B(  3-C , 17-C ) :  -0.1028 B(  4-C ,  5-C ) :   1.2640 B(  4-C , 11-H ) :   0.9271
B(  4-C , 12-H ) :   0.9367 B(  5-C ,  6-C ) :   1.1150 B(  5-C ,  7-O ) :  -0.1098
B(  6-C ,  7-O ) :   0.5882 B(  6-C , 13-H ) :   1.0502 B(  7-O ,  8-C ) :   1.0066
B(  8-C , 14-H ) :   0.9171 B(  8-C , 15-H ) :   0.9154 B(  8-C , 16-H ) :   0.8684
B( 17-C , 18-C ) :   1.0020 B( 17-C , 19-C ) :  -0.1670 B( 17-C , 21-C ) :  -0.4374
B( 17-C , 22-H ) :   1.2775 B( 17-C , 26-H ) :   0.1805 B( 18-C , 19-C ) :   1.1658
B( 18-C , 20-C ) :   0.1860 B( 18-C , 21-C ) :   0.1694 B( 18-C , 22-H ) :  -0.1859
B( 18-C , 23-H ) :   0.9817 B( 18-C , 24-H ) :  -0.2111 B( 19-C , 20-C ) :   1.0614
B( 19-C , 21-C ) :  -0.2042 B( 19-C , 24-H ) :   0.7568 B( 20-C , 21-C ) :   1.0896
B( 20-C , 24-H ) :  -0.1714 B( 20-C , 25-H ) :   0.7574 B( 21-C , 22-H ) :   0.1185
B( 21-C , 24-H ) :   0.1694 B( 21-C , 25-H ) :  -0.1461 B( 21-C , 26-H ) :   1.4753

MP2 TOTAL ENERGY:     -614.273486773 Eh
FINAL SINGLE POINT ENERGY      -614.273486772660

DIPOLE MOMENT
-------------
                                X             Y             Z
Electronic contribution:      7.88137       1.97169       1.41586
Nuclear contribution   :     -6.53347      -3.94004      -1.47130
                        -----------------------------------------
Total Dipole Moment    :      1.34790      -1.96835      -0.05544
                        -----------------------------------------
Magnitude (a.u.)       :      2.38627
Magnitude (Debye)      :      6.06543

Rotational constants in cm-1:     0.043830     0.009379     0.008137
Rotational constants in MHz :  1313.988499   281.169528   243.948955

                             ****ORCA TERMINATED NORMALLY****
TOTAL RUN TIME: 0 days 0 hours 13 minutes 29 seconds 577 msec
