                         Program Version 4.2.1 -  RELEASE  -
|  1> %pal
|  2>  nprocs 32
|  3> end
|  4> !RI-MP2 aug-cc-pVTZ aug-cc-pVTZ/C TightSCF
|  5> %maxcore 4500
|  6> *xyzfile 0 1  06_16P.xyz
|  7>
|  8>
|  9>                          ****END OF INPUT****

CARTESIAN COORDINATES (ANGSTROEM)
---------------------------------
  C     -1.545972    1.519652   -1.605620
  H     -1.487852    1.326855   -2.677564
  H     -1.001553   -0.573850   -1.342076
  C      1.339358   -0.114034   -0.169057
  C      0.921262    0.492790    3.409930
  B      4.043838   -1.379705   -0.715042
  C      3.609942   -1.052930   -2.192677
  H      4.396400   -1.309734   -2.905685
  C      5.020957   -2.560765   -0.389414
  H      5.085483   -2.774298    0.678418
  C      0.498020    2.167587   -0.812052
  O      1.456562    2.859958   -0.640365
  H     -1.791982    1.096556    1.089028
  C     -3.128606   -0.409905    0.343710
  C     -5.528215   -0.125325    0.265114
  C     -4.562045   -2.254623   -0.275203
  H     -2.424818   -2.376233   -0.151281
  H     -6.672099   -1.850484   -0.302848
  H     -4.145013    1.420119    0.810963
  H     -2.559567    1.808663   -1.340041
  C     -1.012213    0.354581   -0.774749
  N      0.363089    0.803144   -0.553706
  C      2.701730    0.418104    0.266605
  O      3.612148   -0.651838    0.357166
  C      1.975497    0.165441    2.676747
  C      2.598913    1.065818    1.654837
  O      1.064284   -1.288132   -0.154963
  H      3.311918   -0.017289   -2.374180
  H      2.748101   -1.683256   -2.440563
  H      6.027688   -2.317534   -0.748858
  H      4.728316   -3.474070   -0.916256
  O     -0.669534    2.618792   -1.303280
  C     -1.744990    0.143827    0.554653
  H     -1.150233   -0.539805    1.162055
  C     -4.258130    0.388036    0.496393
  C     -5.682812   -1.447390   -0.123884
  C     -3.296315   -1.739057   -0.042767
  H     -4.675649   -3.290878   -0.570162
  H     -6.397145    0.508926    0.393217
  H      0.503517   -0.190141    4.139810
  H      0.443323    1.462930    3.313968
  H      3.625366    1.306861    1.944866
  H      2.052377    2.005134    1.576146
  H      2.432100   -0.812960    2.792061
  H      3.044563    1.169926   -0.443723

 Total Charge           Charge          ....    0
 Multiplicity           Mult            ....    1
 Number of Electrons    NEL             ....  168
 Basis Dimension        Dim             .... 1564

ORBITAL ENERGIES
----------------

  NO   OCC          E(Eh)            E(eV)
   0   2.0000     -20.625372      -561.2449
   1   2.0000     -20.561808      -559.5152
   2   2.0000     -20.555232      -559.3363
   3   2.0000     -20.555097      -559.3326
   4   2.0000     -15.631162      -425.3456
   5   2.0000     -11.430509      -311.0400
   6   2.0000     -11.378952      -309.6370
   7   2.0000     -11.316926      -307.9492
   8   2.0000     -11.305450      -307.6369
   9   2.0000     -11.301819      -307.5381
  10   2.0000     -11.253180      -306.2146
  11   2.0000     -11.246791      -306.0407
  12   2.0000     -11.245618      -306.0088
  13   2.0000     -11.245074      -305.9940
  14   2.0000     -11.243671      -305.9559
  15   2.0000     -11.242051      -305.9117
  16   2.0000     -11.241726      -305.9029
  17   2.0000     -11.235102      -305.7227
  18   2.0000     -11.233315      -305.6740
  19   2.0000     -11.222489      -305.3795
  20   2.0000     -11.190432      -304.5071
  21   2.0000     -11.180375      -304.2335
  22   2.0000      -7.603056      -206.8897
  23   2.0000      -1.501355       -40.8540
  24   2.0000      -1.428078       -38.8600
  25   2.0000      -1.395457       -37.9723
  26   2.0000      -1.375891       -37.4399
  27   2.0000      -1.278358       -34.7859
  28   2.0000      -1.172772       -31.9128
  29   2.0000      -1.102249       -29.9937
  30   2.0000      -1.089104       -29.6360
  31   2.0000      -1.036133       -28.1946
  32   2.0000      -1.027827       -27.9686
  33   2.0000      -1.014015       -27.5928
  34   2.0000      -0.962715       -26.1968
  35   2.0000      -0.957280       -26.0489
  36   2.0000      -0.929939       -25.3049
  37   2.0000      -0.921591       -25.0778
  38   2.0000      -0.880602       -23.9624
  39   2.0000      -0.865645       -23.5554
  40   2.0000      -0.840480       -22.8706
  41   2.0000      -0.810502       -22.0549
  42   2.0000      -0.780690       -21.2437
  43   2.0000      -0.762757       -20.7557
  44   2.0000      -0.742512       -20.2048
  45   2.0000      -0.726238       -19.7619
  46   2.0000      -0.710944       -19.3458
  47   2.0000      -0.706394       -19.2220
  48   2.0000      -0.692572       -18.8458
  49   2.0000      -0.663715       -18.0606
  50   2.0000      -0.659172       -17.9370
  51   2.0000      -0.651707       -17.7338
  52   2.0000      -0.646584       -17.5945
  53   2.0000      -0.638733       -17.3808
  54   2.0000      -0.626708       -17.0536
  55   2.0000      -0.623228       -16.9589
  56   2.0000      -0.608789       -16.5660
  57   2.0000      -0.598146       -16.2764
  58   2.0000      -0.595097       -16.1934
  59   2.0000      -0.588021       -16.0009
  60   2.0000      -0.583014       -15.8646
  61   2.0000      -0.578059       -15.7298
  62   2.0000      -0.574149       -15.6234
  63   2.0000      -0.558356       -15.1936
  64   2.0000      -0.553272       -15.0553
  65   2.0000      -0.540056       -14.6957
  66   2.0000      -0.529815       -14.4170
  67   2.0000      -0.525212       -14.2918
  68   2.0000      -0.520454       -14.1623
  69   2.0000      -0.515612       -14.0305
  70   2.0000      -0.510102       -13.8806
  71   2.0000      -0.505357       -13.7515
  72   2.0000      -0.501192       -13.6381
  73   2.0000      -0.496875       -13.5207
  74   2.0000      -0.495000       -13.4696
  75   2.0000      -0.485114       -13.2006
  76   2.0000      -0.474933       -12.9236
  77   2.0000      -0.469193       -12.7674
  78   2.0000      -0.444377       -12.0921
  79   2.0000      -0.429283       -11.6814
  80   2.0000      -0.426829       -11.6146
  81   2.0000      -0.366941        -9.9850
  82   2.0000      -0.349920        -9.5218
  83   2.0000      -0.341739        -9.2992
  84   0.0000       0.021113         0.5745
  85   0.0000       0.027153         0.7389
  86   0.0000       0.029253         0.7960
  87   0.0000       0.031167         0.8481
  88   0.0000       0.035105         0.9552

MULLIKEN ATOMIC CHARGES
-----------------------
   0 C :   -0.450451
   1 H :    0.279352
   2 H :    0.299686
   3 C :    0.713284
   4 C :   -1.208738
   5 B :    0.107873
   6 C :   -1.070254
   7 H :    0.132362
   8 C :   -1.083196
   9 H :    0.344790
  10 C :    0.350603
  11 O :   -0.987425
  12 H :    0.102651
  13 C :    2.004242
  14 C :   -0.678860
  15 C :   -1.034543
  16 H :   -0.026956
  17 H :    0.361591
  18 H :   -0.308951
  19 H :    0.348047
  20 C :    0.061837
  21 N :    0.877433
  22 C :    1.059935
  23 O :   -0.735482
  24 C :    0.171827
  25 C :   -0.296641
  26 O :   -1.466439
  27 H :    0.443318
  28 H :    0.312636
  29 H :    0.269740
  30 H :    0.262817
  31 O :   -0.508881
  32 C :   -0.069041
  33 H :    0.492581
  34 C :   -1.053813
  35 C :    0.014763
  36 C :   -0.908803
  37 H :    0.592432
  38 H :    0.676671
  39 H :    0.447065
  40 H :    0.287135
  41 H :    0.342200
  42 H :    0.123400
  43 H :    0.071522
  44 H :    0.336684
Sum of atomic charges:    0.0000000

LOEWDIN ATOMIC CHARGES
----------------------
   0 C :    0.140331
   1 H :   -0.131411
   2 H :   -0.136030
   3 C :   -0.609917
   4 C :    0.529157
   5 B :   -0.629146
   6 C :    0.687910
   7 H :   -0.182526
   8 C :    0.680987
   9 H :   -0.191318
  10 C :   -0.909634
  11 O :    0.491124
  12 H :   -0.138454
  13 C :   -0.108846
  14 C :    0.201641
  15 C :    0.204861
  16 H :   -0.164342
  17 H :   -0.183010
  18 H :   -0.173227
  19 H :   -0.152000
  20 C :   -0.090544
  21 N :    0.288445
  22 C :   -0.263008
  23 O :    0.659075
  24 C :    0.185050
  25 C :    0.270408
  26 O :    0.541776
  27 H :   -0.194033
  28 H :   -0.179855
  29 H :   -0.186332
  30 H :   -0.187103
  31 O :    0.613234
  32 C :    0.299379
  33 H :   -0.150224
  34 C :    0.215252
  35 C :    0.196199
  36 C :    0.224979
  37 H :   -0.179635
  38 H :   -0.180466
  39 H :   -0.219754
  40 H :   -0.213952
  41 H :   -0.132757
  42 H :   -0.186001
  43 H :   -0.171703
  44 H :   -0.184580

  Mayer bond orders larger than 0.100000
B(  0-C ,  1-H ) :   1.0248 B(  0-C , 19-H ) :   0.9816 B(  0-C , 20-C ) :   0.9287
B(  0-C , 31-O ) :   0.6472 B(  2-H , 20-C ) :   0.9365 B(  3-C ,  6-C ) :  -0.1949
B(  3-C , 20-C ) :   0.1141 B(  3-C , 21-N ) :   1.3504 B(  3-C , 22-C ) :   0.8082
B(  3-C , 23-O ) :   0.3162 B(  3-C , 25-C ) :   0.1668 B(  3-C , 26-O ) :   0.4338
B(  3-C , 28-H ) :  -0.1134 B(  3-C , 43-H ) :   0.1219 B(  4-C , 24-C ) :   1.1810
B(  4-C , 39-H ) :   0.7211 B(  4-C , 40-H ) :   1.0974 B(  5-B ,  6-C ) :   1.0763
B(  5-B ,  8-C ) :   0.9031 B(  5-B , 23-O ) :   1.1544 B(  5-B , 28-H ) :   0.1394
B(  6-C ,  7-H ) :   1.1213 B(  6-C , 27-H ) :   0.7675 B(  6-C , 28-H ) :   0.8668
B(  8-C ,  9-H ) :   0.8510 B(  8-C , 29-H ) :   0.9311 B(  8-C , 30-H ) :   0.9519
B( 10-C , 11-O ) :   1.5268 B( 10-C , 20-C ) :  -0.2267 B( 10-C , 21-N ) :   0.8324
B( 10-C , 31-O ) :   0.9040 B( 11-O , 21-N ) :  -0.1162 B( 11-O , 22-C ) :  -0.1064
B( 11-O , 31-O ) :  -0.3037 B( 12-H , 32-C ) :   1.1133 B( 12-H , 34-C ) :  -0.1093
B( 13-C , 14-C ) :   0.1259 B( 13-C , 16-H ) :  -0.4006 B( 13-C , 17-H ) :  -0.1484
B( 13-C , 18-H ) :  -0.4825 B( 13-C , 32-C ) :   0.2841 B( 13-C , 33-H ) :  -0.1332
B( 13-C , 34-C ) :   0.1694 B( 13-C , 35-C ) :   0.1507 B( 13-C , 36-C ) :   0.1705
B( 13-C , 37-H ) :   0.1117 B( 13-C , 38-H ) :   0.1172 B( 14-C , 15-C ) :   0.4342
B( 14-C , 16-H ) :  -0.1571 B( 14-C , 17-H ) :  -0.3340 B( 14-C , 18-H ) :  -0.1227
B( 14-C , 34-C ) :   1.3803 B( 14-C , 35-C ) :   1.1043 B( 14-C , 38-H ) :   0.4286
B( 15-C , 17-H ) :  -0.2329 B( 15-C , 34-C ) :   0.1679 B( 15-C , 35-C ) :   1.0955
B( 15-C , 36-C ) :   1.4970 B( 15-C , 37-H ) :   0.4526 B( 16-H , 17-H ) :   0.1088
B( 16-H , 18-H ) :   0.3316 B( 16-H , 32-C ) :  -0.2489 B( 16-H , 34-C ) :   0.3657
B( 16-H , 35-C ) :  -0.1092 B( 16-H , 36-C ) :   1.7786 B( 16-H , 38-H ) :  -0.1132
B( 17-H , 18-H ) :   0.1480 B( 17-H , 34-C ) :   0.3299 B( 17-H , 35-C ) :   0.9286
B( 17-H , 36-C ) :   0.1178 B( 18-H , 32-C ) :  -0.2837 B( 18-H , 34-C ) :   2.3892
B( 18-H , 35-C ) :  -0.1397 B( 18-H , 36-C ) :   0.2698 B( 18-H , 37-H ) :  -0.1707
B( 18-H , 38-H ) :  -0.1517 B( 20-C , 21-N ) :   0.5947 B( 20-C , 26-O ) :   0.1325
B( 20-C , 31-O ) :   0.2254 B( 20-C , 32-C ) :   0.8077 B( 21-N , 22-C ) :  -0.1344
B( 21-N , 26-O ) :  -0.1994 B( 21-N , 31-O ) :  -0.2404 B( 22-C , 25-C ) :   0.8815
B( 22-C , 44-H ) :   0.9661 B( 23-O , 25-C ) :  -0.1123 B( 24-C , 25-C ) :   0.7692
B( 24-C , 41-H ) :  -0.1365 B( 24-C , 43-H ) :   1.1704 B( 25-C , 41-H ) :   0.9406
B( 25-C , 42-H ) :   1.1268 B( 32-C , 33-H ) :   1.0117 B( 32-C , 34-C ) :   0.1717
B( 32-C , 35-C ) :   0.1481 B( 32-C , 36-C ) :   0.3114 B( 33-H , 36-C ) :  -0.1807
B( 34-C , 35-C ) :  -0.4437 B( 34-C , 36-C ) :  -0.7060 B( 34-C , 37-H ) :  -0.1270
B( 34-C , 38-H ) :  -0.2479 B( 35-C , 36-C ) :  -0.3123 B( 35-C , 37-H ) :   0.1123
B( 35-C , 38-H ) :   0.1695

MP2 TOTAL ENERGY:    -1039.667728026 Eh
FINAL SINGLE POINT ENERGY     -1039.667728026445

DIPOLE MOMENT
-------------
                                X             Y             Z
Electronic contribution:     -4.29778       7.67271      -2.66654
Nuclear contribution   :      2.92612      -7.94086       2.23519
                        -----------------------------------------
Total Dipole Moment    :     -1.37167      -0.26815      -0.43135
                        -----------------------------------------
Magnitude (a.u.)       :      1.46268
Magnitude (Debye)      :      3.71784

Rotational constants in cm-1:     0.014084     0.004807     0.004550
Rotational constants in MHz :   422.221142   144.110657   136.412898

                             ****ORCA TERMINATED NORMALLY****
TOTAL RUN TIME: 0 days 1 hours 9 minutes 42 seconds 614 msec
