                         Program Version 4.2.1 -  RELEASE  -
|  1> %pal
|  2>  nprocs 32
|  3> end
|  4> !RI-MP2 aug-cc-pVTZ aug-cc-pVTZ/C TightSCF
|  5> %maxcore 4500
|  6> *xyzfile 0 2  06_7TS.xyz
|  7>
|  8>
|  9>                          ****END OF INPUT****

CARTESIAN COORDINATES (ANGSTROEM)
---------------------------------
  C      1.886660   -1.009108    1.509835
  H      2.921868   -1.004646    1.863424
  H      1.262258   -0.606065    2.310344
  H      1.595697   -2.049343    1.348196
  C      2.752021   -0.741156   -1.447127
  H      2.462796   -1.776159   -1.640956
  H      2.622702   -0.179511   -2.374558
  H      3.815737   -0.730637   -1.192285
  C      2.178009    1.792187    0.238849
  H      2.034826    2.389220   -0.664200
  H      1.560904    2.228043    1.027441
  H      3.224910    1.885355    0.541726
  Si     1.726130   -0.001097   -0.065604
  H      0.225352   -0.030501   -0.541270
  C     -3.392459    0.183883   -0.774890
  C     -2.043300   -0.009384   -0.066927
  H     -3.432296    1.162450   -1.254635
  H     -3.533618   -0.583773   -1.536557
  H     -4.204707    0.112874   -0.047918
  C     -1.984369   -1.390845    0.585263
  C     -1.832630    1.097277    0.967276
  H     -1.019970   -1.541378    1.074379
  H     -2.768309   -1.505499    1.338006
  H     -2.108993   -2.166982   -0.171509
  H     -2.627125    1.090752    1.717387
  H     -0.880246    0.961998    1.484743
  H     -1.820379    2.071666    0.476458
  O     -1.110103    0.093796   -1.114179

 Total Charge           Charge          ....    0
 Multiplicity           Mult            ....    2
 Number of Electrons    NEL             ....   83
 Basis Dimension        Dim             ....  855

ORBITAL ENERGIES
----------------
                 SPIN UP ORBITALS
  NO   OCC          E(Eh)            E(eV)
   0   1.0000     -68.749316     -1870.7640
   1   1.0000     -20.589605      -560.2716
   2   1.0000     -11.282590      -307.0149
   3   1.0000     -11.218495      -305.2708
   4   1.0000     -11.213948      -305.1470
   5   1.0000     -11.211772      -305.0878
   6   1.0000     -11.198528      -304.7274
   7   1.0000     -11.195674      -304.6498
   8   1.0000     -11.194810      -304.6263
   9   1.0000      -6.097476      -165.9208
  10   1.0000      -4.206168      -114.4556
  11   1.0000      -4.202623      -114.3592
  12   1.0000      -4.202584      -114.3581
  13   1.0000      -1.383257       -37.6403
  14   1.0000      -1.061783       -28.8926
  15   1.0000      -0.965773       -26.2800
  16   1.0000      -0.943719       -25.6799
  17   1.0000      -0.939764       -25.5723
  18   1.0000      -0.923590       -25.1322
  19   1.0000      -0.921466       -25.0744
  20   1.0000      -0.764273       -20.7969
  21   1.0000      -0.700805       -19.0699
  22   1.0000      -0.632674       -17.2159
  23   1.0000      -0.630292       -17.1511
  24   1.0000      -0.626762       -17.0551
  25   1.0000      -0.581562       -15.8251
  26   1.0000      -0.570843       -15.5334
  27   1.0000      -0.564173       -15.3519
  28   1.0000      -0.558504       -15.1977
  29   1.0000      -0.556910       -15.1543
  30   1.0000      -0.541435       -14.7332
  31   1.0000      -0.539524       -14.6812
  32   1.0000      -0.534553       -14.5459
  33   1.0000      -0.529482       -14.4079
  34   1.0000      -0.525788       -14.3074
  35   1.0000      -0.517081       -14.0705
  36   1.0000      -0.512270       -13.9396
  37   1.0000      -0.465833       -12.6760
  38   1.0000      -0.441246       -12.0069
  39   1.0000      -0.431721       -11.7477
  40   1.0000      -0.430521       -11.7151
  41   1.0000      -0.367931       -10.0119
  42   0.0000       0.024680         0.6716
  43   0.0000       0.031806         0.8655
  44   0.0000       0.034099         0.9279
  45   0.0000       0.034908         0.9499
  46   0.0000       0.046138         1.2555

                 SPIN DOWN ORBITALS
  NO   OCC          E(Eh)            E(eV)
   0   1.0000     -68.747292     -1870.7089
   1   1.0000     -20.551907      -559.2458
   2   1.0000     -11.284703      -307.0724
   3   1.0000     -11.216379      -305.2132
   4   1.0000     -11.213606      -305.1377
   5   1.0000     -11.211526      -305.0811
   6   1.0000     -11.198223      -304.7191
   7   1.0000     -11.195436      -304.6433
   8   1.0000     -11.194514      -304.6182
   9   1.0000      -6.094519      -165.8403
  10   1.0000      -4.201363      -114.3249
  11   1.0000      -4.201317      -114.3237
  12   1.0000      -4.198146      -114.2374
  13   1.0000      -1.271593       -34.6018
  14   1.0000      -1.038550       -28.2604
  15   1.0000      -0.962671       -26.1956
  16   1.0000      -0.939196       -25.5568
  17   1.0000      -0.936452       -25.4822
  18   1.0000      -0.922519       -25.1030
  19   1.0000      -0.920438       -25.0464
  20   1.0000      -0.744021       -20.2458
  21   1.0000      -0.637777       -17.3548
  22   1.0000      -0.622407       -16.9365
  23   1.0000      -0.621393       -16.9090
  24   1.0000      -0.602511       -16.3951
  25   1.0000      -0.567849       -15.4520
  26   1.0000      -0.562343       -15.3021
  27   1.0000      -0.557912       -15.1816
  28   1.0000      -0.553578       -15.0636
  29   1.0000      -0.546147       -14.8614
  30   1.0000      -0.539649       -14.6846
  31   1.0000      -0.537823       -14.6349
  32   1.0000      -0.529135       -14.3985
  33   1.0000      -0.516699       -14.0601
  34   1.0000      -0.514662       -14.0047
  35   1.0000      -0.501506       -13.6467
  36   1.0000      -0.478442       -13.0191
  37   1.0000      -0.429223       -11.6797
  38   1.0000      -0.428496       -11.6600
  39   1.0000      -0.419702       -11.4207
  40   1.0000      -0.414774       -11.2866
  41   0.0000       0.024348         0.6625
  42   0.0000       0.031816         0.8658
  43   0.0000       0.034137         0.9289
  44   0.0000       0.034656         0.9430
  45   0.0000       0.046085         1.2540

MULLIKEN ATOMIC CHARGES AND SPIN POPULATIONS
--------------------------------------------
   0 C :   -1.114830    0.013943
   1 H :    0.247110    0.009514
   2 H :    0.281733   -0.002135
   3 H :    0.250448   -0.005650
   4 C :   -1.536295    0.006177
   5 H :    0.273286   -0.005709
   6 H :    0.250898   -0.005084
   7 H :    0.231270    0.008453
   8 C :   -1.270463    0.017160
   9 H :    0.273138   -0.003593
  10 H :    0.316033   -0.001396
  11 H :    0.269280    0.007774
  12 Si:    1.309905    0.391829
  13 H :    0.309861   -0.282268
  14 C :   -1.310955    0.062460
  15 C :    1.915172   -0.178271
  16 H :    0.272939    0.000289
  17 H :    0.270681   -0.001312
  18 H :    0.287733    0.015278
  19 C :   -1.363349    0.019125
  20 C :   -1.266648    0.016049
  21 H :    0.502366    0.001129
  22 H :    0.233920   -0.003622
  23 H :    0.265188   -0.001984
  24 H :    0.222424   -0.004404
  25 H :    0.430100    0.006239
  26 H :    0.265029   -0.002763
  27 O :   -0.815973    0.922772
Sum of atomic charges         :    0.0000000

LOEWDIN ATOMIC CHARGES AND SPIN POPULATIONS
-------------------------------------------
   0 C :    0.551012    0.020851
   1 H :   -0.233793    0.004896
   2 H :   -0.238584    0.000272
   3 H :   -0.236572    0.000336
   4 C :    0.558865    0.020291
   5 H :   -0.236545    0.000426
   6 H :   -0.236006    0.000424
   7 H :   -0.235670    0.004963
   8 C :    0.557712    0.018301
   9 H :   -0.234026    0.000283
  10 H :   -0.239283    0.000198
  11 H :   -0.235204    0.004508
  12 Si:    0.720199    0.086775
  13 H :   -0.403452    0.065785
  14 C :    0.571953    0.031938
  15 C :   -0.696960    0.045240
  16 H :   -0.163865    0.002035
  17 H :   -0.164209    0.002321
  18 H :   -0.159356    0.009001
  19 C :    0.573173   -0.004053
  20 C :    0.567826   -0.002801
  21 H :   -0.186933   -0.000733
  22 H :   -0.157323   -0.000890
  23 H :   -0.160097   -0.000494
  24 H :   -0.156918   -0.000698
  25 H :   -0.185741   -0.000331
  26 H :   -0.158961   -0.000458
  27 O :    0.618762    0.691611

  Mayer bond orders larger than 0.100000
B(  0-C ,  1-H ) :   0.8959 B(  0-C ,  2-H ) :   0.9964 B(  0-C ,  3-H ) :   1.0180
B(  0-C ,  4-C ) :   0.2274 B(  0-C ,  8-C ) :   0.1393 B(  0-C , 12-Si) :   0.6079
B(  0-C , 13-H ) :   0.1935 B(  4-C ,  5-H ) :   0.9811 B(  4-C ,  6-H ) :   1.0175
B(  4-C ,  7-H ) :   1.0348 B(  4-C ,  8-C ) :   0.2584 B(  4-C , 12-Si) :   0.1252
B(  4-C , 13-H ) :   0.1773 B(  8-C ,  9-H ) :   0.9647 B(  8-C , 10-H ) :   0.9456
B(  8-C , 11-H ) :   0.9343 B(  8-C , 12-Si) :   0.5892 B(  8-C , 13-H ) :   0.2508
B( 12-Si, 13-H ) :   0.7357 B( 14-C , 15-C ) :   0.2695 B( 14-C , 16-H ) :   1.0396
B( 14-C , 17-H ) :   1.0367 B( 14-C , 18-H ) :   1.0231 B( 15-C , 19-C ) :   0.6897
B( 15-C , 20-C ) :   0.7130 B( 19-C , 20-C ) :   0.1249 B( 19-C , 21-H ) :   0.7317
B( 19-C , 22-H ) :   1.0583 B( 19-C , 23-H ) :   1.0119 B( 19-C , 27-O ) :   0.1793
B( 20-C , 24-H ) :   1.0781 B( 20-C , 25-H ) :   0.7390 B( 20-C , 26-H ) :   1.0048
B( 20-C , 27-O ) :   0.1860

MP2 TOTAL ENERGY:     -641.657973772 Eh
FINAL SINGLE POINT ENERGY      -641.657973772124

DIPOLE MOMENT
-------------
                                X             Y             Z
Electronic contribution:      0.72072       0.24816      -3.45181
Nuclear contribution   :     -0.83687      -0.28632       3.96238
                        -----------------------------------------
Total Dipole Moment    :     -0.11615      -0.03817       0.51057
                        -----------------------------------------
Magnitude (a.u.)       :      0.52500
Magnitude (Debye)      :      1.33444

Rotational constants in cm-1:     0.062975     0.020430     0.020277
Rotational constants in MHz :  1887.933209   612.484480   607.878170

                             ****ORCA TERMINATED NORMALLY****
TOTAL RUN TIME: 0 days 0 hours 23 minutes 0 seconds 902 msec
