                         Program Version 4.2.1 -  RELEASE  -
|  1> %pal
|  2>  nprocs 32
|  3> end
|  4> !RI-MP2 aug-cc-pVTZ aug-cc-pVTZ/C TightSCF
|  5> %maxcore 4500
|  6> *xyzfile -1 1  08_15TS.xyz
|  7>
|  8>
|  9>                          ****END OF INPUT****

CARTESIAN COORDINATES (ANGSTROEM)
---------------------------------
  C      0.961186    1.880594    1.598927
  C     -0.008952    0.822692    0.994785
  C      0.223519    0.553424   -0.452893
  O      0.463061    1.536847   -1.261677
  C      0.649956    2.838675   -0.665252
  C      1.612424    2.761561    0.510817
  H     -0.337442    3.205937   -0.373327
  C     -3.290430    0.114829   -0.630731
  C     -3.931878   -0.114647    0.758657
  C     -5.276092   -0.852813    0.681331
  C     -6.179195   -0.151243   -0.325341
  O     -5.587444   -0.111601   -1.594728
  C     -4.376625    0.668529   -1.570251
  H     -4.608835    1.697423   -1.262903
  O      1.930428    1.269761    2.404937
  H      0.340356    2.547877    2.212960
  H      1.486730    0.453371    2.705533
  O      2.876678    2.313870    0.089663
  H      1.755413    3.772789    0.900207
  H      2.811780    1.344052    0.005311
  O     -2.233094    0.953097   -0.603308
  H     -3.030799   -0.901927   -1.018303
  O     -3.080422   -0.830950    1.646455
  H     -4.078061    0.875935    1.201440
  H     -3.267816   -1.764944    1.470656
  O     -7.388136   -0.854306   -0.438425
  H     -6.370912    0.883110    0.009043
  H     -7.767797   -0.607278   -1.287321
  O      2.065631   -0.187282   -0.369073
  C      2.348935   -1.429654   -0.183287
  O      1.544612   -2.304622    0.111458
  C      3.817452   -1.803370   -0.385848
  C      4.820314   -0.656507   -0.245462
  H      3.904738   -2.247029   -1.384421
  H      4.060077   -2.587211    0.329916
  C      6.233746   -1.252593   -0.225619
  O      6.660129   -1.924207    0.674367
  O      6.937747   -0.975004   -1.323405
  H      6.329887   -0.396587   -1.849914
  N      4.730845    0.298108   -1.359907
  H      4.664727   -0.171884    0.722450
  H      4.845340    1.249123   -1.023871
  H      3.799889    0.267837   -1.760686
  N     -5.031392   -2.258196    0.362189
  H     -5.756567   -0.816285    1.663932
  H     -5.886985   -2.789432    0.467713
  H     -4.751177   -2.339968   -0.610033
  N     -0.060613   -0.370417    1.817105
  H      0.391264   -1.159760    1.359024
  H     -1.035309   -0.615460    1.971797
  H      1.057941    3.452865   -1.464149
  H     -4.000650    0.687512   -2.590931
  H     -1.016320    1.255035    0.937013
  H     -0.151012   -0.343243   -0.915949

 Total Charge           Charge          ....   -1
 Multiplicity           Mult            ....    1
 Number of Electrons    NEL             ....  220
 Basis Dimension        Dim             .... 1886

ORBITAL ENERGIES
----------------

  NO   OCC          E(Eh)            E(eV)
   0   2.0000     -20.519996      -558.3775
   1   2.0000     -20.507748      -558.0442
   2   2.0000     -20.485070      -557.4271
   3   2.0000     -20.466678      -556.9266
   4   2.0000     -20.449433      -556.4573
   5   2.0000     -20.447405      -556.4022
   6   2.0000     -20.444955      -556.3355
   7   2.0000     -20.442893      -556.2794
   8   2.0000     -20.432139      -555.9868
   9   2.0000     -20.412813      -555.4609
  10   2.0000     -20.302048      -552.4468
  11   2.0000     -15.478012      -421.1781
  12   2.0000     -15.455858      -420.5753
  13   2.0000     -15.428278      -419.8248
  14   2.0000     -11.283649      -307.0437
  15   2.0000     -11.279970      -306.9436
  16   2.0000     -11.256826      -306.3138
  17   2.0000     -11.241654      -305.9009
  18   2.0000     -11.202905      -304.8465
  19   2.0000     -11.194875      -304.6280
  20   2.0000     -11.194360      -304.6140
  21   2.0000     -11.185297      -304.3674
  22   2.0000     -11.160566      -303.6944
  23   2.0000     -11.157494      -303.6109
  24   2.0000     -11.155577      -303.5587
  25   2.0000     -11.155426      -303.5546
  26   2.0000     -11.150343      -303.4163
  27   2.0000     -11.128761      -302.8290
  28   2.0000      -1.368019       -37.2257
  29   2.0000      -1.366445       -37.1828
  30   2.0000      -1.331975       -36.2449
  31   2.0000      -1.309108       -35.6227
  32   2.0000      -1.275664       -34.7126
  33   2.0000      -1.269120       -34.5345
  34   2.0000      -1.254667       -34.1412
  35   2.0000      -1.250198       -34.0196
  36   2.0000      -1.249603       -34.0034
  37   2.0000      -1.204971       -32.7889
  38   2.0000      -1.123156       -30.5626
  39   2.0000      -1.114941       -30.3391
  40   2.0000      -1.096431       -29.8354
  41   2.0000      -1.083013       -29.4703
  42   2.0000      -0.962465       -26.1900
  43   2.0000      -0.947410       -25.7803
  44   2.0000      -0.918605       -24.9965
  45   2.0000      -0.912312       -24.8253
  46   2.0000      -0.872959       -23.7544
  47   2.0000      -0.826191       -22.4818
  48   2.0000      -0.795792       -21.6546
  49   2.0000      -0.776949       -21.1418
  50   2.0000      -0.771739       -21.0001
  51   2.0000      -0.729151       -19.8412
  52   2.0000      -0.714883       -19.4529
  53   2.0000      -0.680473       -18.5166
  54   2.0000      -0.666441       -18.1348
  55   2.0000      -0.653155       -17.7733
  56   2.0000      -0.642843       -17.4926
  57   2.0000      -0.633930       -17.2501
  58   2.0000      -0.632785       -17.2189
  59   2.0000      -0.620434       -16.8829
  60   2.0000      -0.613651       -16.6983
  61   2.0000      -0.596918       -16.2430
  62   2.0000      -0.585832       -15.9413
  63   2.0000      -0.583572       -15.8798
  64   2.0000      -0.577863       -15.7244
  65   2.0000      -0.574525       -15.6336
  66   2.0000      -0.572087       -15.5673
  67   2.0000      -0.558614       -15.2007
  68   2.0000      -0.552507       -15.0345
  69   2.0000      -0.543124       -14.7792
  70   2.0000      -0.540480       -14.7072
  71   2.0000      -0.537953       -14.6384
  72   2.0000      -0.533835       -14.5264
  73   2.0000      -0.523386       -14.2421
  74   2.0000      -0.522013       -14.2047
  75   2.0000      -0.514993       -14.0137
  76   2.0000      -0.505511       -13.7557
  77   2.0000      -0.492658       -13.4059
  78   2.0000      -0.485049       -13.1989
  79   2.0000      -0.480947       -13.0872
  80   2.0000      -0.471945       -12.8423
  81   2.0000      -0.470357       -12.7991
  82   2.0000      -0.464845       -12.6491
  83   2.0000      -0.458746       -12.4831
  84   2.0000      -0.452231       -12.3058
  85   2.0000      -0.441908       -12.0249
  86   2.0000      -0.436894       -11.8885
  87   2.0000      -0.427159       -11.6236
  88   2.0000      -0.425928       -11.5901
  89   2.0000      -0.417981       -11.3738
  90   2.0000      -0.410554       -11.1717
  91   2.0000      -0.398645       -10.8477
  92   2.0000      -0.394465       -10.7339
  93   2.0000      -0.382478       -10.4077
  94   2.0000      -0.381702       -10.3866
  95   2.0000      -0.373370       -10.1599
  96   2.0000      -0.370030       -10.0690
  97   2.0000      -0.358369        -9.7517
  98   2.0000      -0.357363        -9.7243
  99   2.0000      -0.347109        -9.4453
 100   2.0000      -0.345181        -9.3929
 101   2.0000      -0.341072        -9.2810
 102   2.0000      -0.334664        -9.1067
 103   2.0000      -0.331580        -9.0227
 104   2.0000      -0.317593        -8.6421
 105   2.0000      -0.312722        -8.5096
 106   2.0000      -0.303108        -8.2480
 107   2.0000      -0.291352        -7.9281
 108   2.0000      -0.217312        -5.9134
 109   2.0000      -0.212127        -5.7723
 110   0.0000       0.088733         2.4145
 111   0.0000       0.090133         2.4526
 112   0.0000       0.097051         2.6409
 113   0.0000       0.099966         2.7202
 114   0.0000       0.101789         2.7698

MULLIKEN ATOMIC CHARGES
-----------------------
   0 C :   -0.045872
   1 C :    1.123436
   2 C :    0.781694
   3 O :   -0.986202
   4 C :   -0.759084
   5 C :    0.269613
   6 H :    0.339672
   7 C :    0.541112
   8 C :    0.390709
   9 C :    0.224553
  10 C :    0.645808
  11 O :   -0.950878
  12 C :   -0.460176
  13 H :    0.239570
  14 O :   -1.004066
  15 H :    0.239588
  16 H :    0.154859
  17 O :   -1.151260
  18 H :    0.461113
  19 H :    0.735527
  20 O :   -1.354526
  21 H :    0.221534
  22 O :   -0.858681
  23 H :    0.520391
  24 H :    0.095297
  25 O :   -0.779834
  26 H :    0.281737
  27 H :    0.134521
  28 O :   -0.321581
  29 C :    0.572484
  30 O :   -1.183563
  31 C :   -0.440566
  32 C :    0.831140
  33 H :    0.294471
  34 H :    0.189402
  35 C :    0.452255
  36 O :   -0.884804
  37 O :   -0.624090
  38 H :    0.308959
  39 N :   -0.647579
  40 H :    0.366485
  41 H :    0.061145
  42 H :    0.086640
  43 N :   -0.723755
  44 H :    0.315086
  45 H :    0.027363
  46 H :    0.150310
  47 N :   -1.103567
  48 H :    0.189181
  49 H :    0.241954
  50 H :    0.372306
  51 H :    0.337125
  52 H :    0.427259
  53 H :    0.655785
Sum of atomic charges:   -1.0000000

LOEWDIN ATOMIC CHARGES
----------------------
   0 C :   -0.213241
   1 C :   -0.099662
   2 C :   -0.158806
   3 O :    0.659179
   4 C :    0.130023
   5 C :   -0.232513
   6 H :   -0.137251
   7 C :   -0.530640
   8 C :   -0.251176
   9 C :   -0.123257
  10 C :   -0.542437
  11 O :    0.582189
  12 C :    0.035419
  13 H :   -0.164760
  14 O :    0.844341
  15 H :   -0.134190
  16 H :   -0.584691
  17 O :    0.860478
  18 H :   -0.141650
  19 H :   -0.756257
  20 O :    0.392538
  21 H :   -0.165919
  22 O :    0.868376
  23 H :   -0.145610
  24 H :   -0.535546
  25 O :    0.826319
  26 H :   -0.139305
  27 H :   -0.498566
  28 O :    0.576901
  29 C :   -0.921380
  30 O :    0.440967
  31 C :    0.278564
  32 C :   -0.116021
  33 H :   -0.140555
  34 H :   -0.167849
  35 C :   -0.799145
  36 O :    0.424812
  37 O :    0.832571
  38 H :   -0.616760
  39 N :    0.879091
  40 H :   -0.129617
  41 H :   -0.298224
  42 H :   -0.341475
  43 N :    0.863617
  44 H :   -0.128705
  45 H :   -0.314255
  46 H :   -0.320889
  47 N :    0.910272
  48 H :   -0.430806
  49 H :   -0.388464
  50 H :   -0.147875
  51 H :   -0.166775
  52 H :   -0.267828
  53 H :   -0.153555

  Mayer bond orders larger than 0.100000
B(  0-C ,  1-C ) :   0.8811 B(  0-C ,  4-C ) :   0.1750 B(  0-C ,  5-C ) :   1.0098
B(  0-C , 14-O ) :   0.2221 B(  0-C , 15-H ) :   1.0769 B(  0-C , 17-O ) :   0.1863
B(  0-C , 47-N ) :   0.4217 B(  0-C , 52-H ) :  -0.2065 B(  1-C ,  2-C ) :   0.7971
B(  1-C ,  3-O ) :   0.1169 B(  1-C ,  5-C ) :   0.1541 B(  1-C , 14-O ) :   0.1298
B(  1-C , 16-H ) :  -0.1001 B(  1-C , 20-O ) :  -0.2481 B(  1-C , 47-N ) :  -0.3329
B(  1-C , 52-H ) :   0.7519 B(  2-C , 28-O ) :   0.2818 B(  2-C , 47-N ) :   0.1588
B(  2-C , 52-H ) :   0.1194 B(  2-C , 53-H ) :   0.6784 B(  3-O ,  4-C ) :   0.9808
B(  3-O , 20-O ) :   0.1308 B(  3-O , 53-H ) :  -0.1973 B(  4-C ,  5-C ) :   0.9546
B(  4-C ,  6-H ) :   0.9944 B(  4-C , 17-O ) :   0.1706 B(  4-C , 50-H ) :   0.8856
B(  5-C , 14-O ) :   0.1611 B(  5-C , 17-O ) :   0.4329 B(  5-C , 18-H ) :   0.8228
B(  7-C ,  8-C ) :   0.8686 B(  7-C ,  9-C ) :   0.1324 B(  7-C , 12-C ) :   0.8547
B(  7-C , 20-O ) :   0.8278 B(  7-C , 21-H ) :   0.9785 B(  7-C , 43-N ) :  -0.1384
B(  8-C ,  9-C ) :   1.0674 B(  8-C , 22-O ) :   0.2203 B(  8-C , 23-H ) :   0.8195
B(  8-C , 43-N ) :   0.2799 B(  9-C , 10-C ) :   0.8641 B(  9-C , 22-O ) :   0.2303
B(  9-C , 23-H ) :  -0.1045 B(  9-C , 43-N ) :   0.1825 B(  9-C , 44-H ) :   0.8435
B( 10-C , 11-O ) :   0.7780 B( 10-C , 25-O ) :   0.4802 B( 10-C , 26-H ) :   1.1263
B( 10-C , 43-N ) :   0.1115 B( 11-O , 12-C ) :   0.7979 B( 12-C , 13-H ) :   1.0754
B( 12-C , 51-H ) :   0.9822 B( 14-O , 16-H ) :   0.9934 B( 16-H , 47-N ) :   0.1399
B( 17-O , 18-H ) :  -0.1273 B( 17-O , 19-H ) :   0.3336 B( 20-O , 21-H ) :  -0.1207
B( 20-O , 52-H ) :   0.1259 B( 22-O , 23-H ) :  -0.1542 B( 22-O , 24-H ) :   1.0856
B( 22-O , 47-N ) :  -0.1032 B( 25-O , 27-H ) :   1.0457 B( 28-O , 29-C ) :   1.3953
B( 29-C , 30-O ) :   1.0801 B( 29-C , 31-C ) :   0.3904 B( 30-O , 31-C ) :  -0.1236
B( 31-C , 32-C ) :   0.8826 B( 31-C , 33-H ) :   0.9938 B( 31-C , 34-H ) :   1.0653
B( 31-C , 35-C ) :   0.2040 B( 31-C , 36-O ) :   0.1110 B( 31-C , 39-N ) :   0.1869
B( 31-C , 40-H ) :   0.1165 B( 32-C , 35-C ) :   0.3439 B( 32-C , 39-N ) :   0.4321
B( 32-C , 40-H ) :   0.9311 B( 35-C , 36-O ) :   1.2346 B( 35-C , 37-O ) :   0.8566
B( 35-C , 40-H ) :  -0.1588 B( 37-O , 38-H ) :   0.7739 B( 38-H , 39-N ) :   0.1447
B( 39-N , 41-H ) :   1.0432 B( 39-N , 42-H ) :   0.9833 B( 43-N , 45-H ) :   1.0623
B( 43-N , 46-H ) :   0.9150 B( 47-N , 48-H ) :   0.8227 B( 47-N , 49-H ) :   0.9054
B( 47-N , 52-H ) :  -0.2019

MP2 TOTAL ENERGY:    -1538.417257829 Eh
FINAL SINGLE POINT ENERGY     -1538.417257829253

DIPOLE MOMENT
-------------
                                X             Y             Z
Electronic contribution:     14.54996      -3.24754      -1.46758
Nuclear contribution   :    -16.50452       4.90779       0.40847
                        -----------------------------------------
Total Dipole Moment    :     -1.95457       1.66026      -1.05912
                        -----------------------------------------
Magnitude (a.u.)       :      2.77462
Magnitude (Debye)      :      7.05252

Rotational constants in cm-1:     0.012665     0.002302     0.002190
Rotational constants in MHz :   379.694363    69.009933    65.668127

                             ****ORCA TERMINATED NORMALLY****
TOTAL RUN TIME: 0 days 2 hours 2 minutes 12 seconds 826 msec
