                         Program Version 4.2.1 -  RELEASE  -
|  1> %pal
|  2>  nprocs 32
|  3> end
|  4> !RI-MP2 aug-cc-pVTZ aug-cc-pVTZ/C TightSCF
|  5> %maxcore 4500
|  6> *xyzfile 1 1  10_15TS.xyz
|  7>
|  8>
|  9>                          ****END OF INPUT****

CARTESIAN COORDINATES (ANGSTROEM)
---------------------------------
  C     -1.675994   -0.862910    0.302207
  N     -0.344341   -0.777693    0.180438
  N      0.396110    0.176610    0.220212
  C      1.784421    0.037394    0.043253
  C      2.520345    1.215983    0.134466
  C      2.401250   -1.190654   -0.208711
  C      3.894631    1.168122   -0.027556
  H      2.011235    2.150544    0.331640
  C      3.770768   -1.223956   -0.368811
  H      1.807682   -2.093267   -0.275266
  C      4.515192   -0.047876   -0.278395
  H      4.480274    2.075278    0.041301
  H      4.268253   -2.164874   -0.564985
  H      5.589948   -0.085533   -0.405495
  C     -2.445108   -1.109161   -0.972668
  C     -2.159398   -1.482843    1.581697
  H     -1.672998   -1.040522    2.450550
  H     -3.238876   -1.375845    1.668404
  H     -1.929615   -2.551710    1.564333
  C     -2.378587    1.256671    0.488441
  C     -1.207190    1.941034    0.565961
  H     -2.871312    1.014756    1.425799
  H     -0.731989    2.144037    1.516478
  H     -0.788584    2.437806   -0.301009
  C     -3.233589    1.212343   -0.749411
  H     -4.095383    1.872265   -0.625817
  H     -2.663696    1.585456   -1.605032
  C     -3.689299   -0.221308   -1.006193
  H     -1.803824   -0.889394   -1.827994
  H     -2.711907   -2.168820   -1.015807
  H     -4.402612   -0.536061   -0.240081
  H     -4.193639   -0.323573   -1.967245

 Total Charge           Charge          ....    1
 Multiplicity           Mult            ....    1
 Number of Electrons    NEL             ....  108
 Basis Dimension        Dim             .... 1081

ORBITAL ENERGIES
----------------

  NO   OCC          E(Eh)            E(eV)
   0   2.0000     -15.821355      -430.5209
   1   2.0000     -15.807729      -430.1502
   2   2.0000     -11.513419      -313.2961
   3   2.0000     -11.410602      -310.4983
   4   2.0000     -11.405253      -310.3527
   5   2.0000     -11.390869      -309.9613
   6   2.0000     -11.390175      -309.9424
   7   2.0000     -11.375276      -309.5370
   8   2.0000     -11.375103      -309.5323
   9   2.0000     -11.372316      -309.4565
  10   2.0000     -11.366172      -309.2893
  11   2.0000     -11.365543      -309.2721
  12   2.0000     -11.361193      -309.1538
  13   2.0000     -11.358128      -309.0704
  14   2.0000     -11.356906      -309.0371
  15   2.0000      -1.576565       -42.9005
  16   2.0000      -1.334309       -36.3084
  17   2.0000      -1.282925       -34.9102
  18   2.0000      -1.237796       -33.6821
  19   2.0000      -1.188758       -32.3478
  20   2.0000      -1.166002       -31.7285
  21   2.0000      -1.152061       -31.3492
  22   2.0000      -1.106695       -30.1147
  23   2.0000      -1.082799       -29.4645
  24   2.0000      -1.002526       -27.2801
  25   2.0000      -0.975737       -26.5511
  26   2.0000      -0.958659       -26.0864
  27   2.0000      -0.915261       -24.9055
  28   2.0000      -0.889107       -24.1938
  29   2.0000      -0.857964       -23.3464
  30   2.0000      -0.831716       -22.6321
  31   2.0000      -0.808943       -22.0125
  32   2.0000      -0.799383       -21.7523
  33   2.0000      -0.790638       -21.5144
  34   2.0000      -0.777034       -21.1442
  35   2.0000      -0.752804       -20.4848
  36   2.0000      -0.746261       -20.3068
  37   2.0000      -0.738852       -20.1052
  38   2.0000      -0.726400       -19.7664
  39   2.0000      -0.720518       -19.6063
  40   2.0000      -0.711454       -19.3596
  41   2.0000      -0.702543       -19.1172
  42   2.0000      -0.690950       -18.8017
  43   2.0000      -0.656671       -17.8689
  44   2.0000      -0.645879       -17.5753
  45   2.0000      -0.635419       -17.2906
  46   2.0000      -0.629929       -17.1412
  47   2.0000      -0.626816       -17.0565
  48   2.0000      -0.616765       -16.7830
  49   2.0000      -0.614318       -16.7164
  50   2.0000      -0.555661       -15.1203
  51   2.0000      -0.506671       -13.7872
  52   2.0000      -0.468239       -12.7414
  53   2.0000      -0.465505       -12.6670
  54   0.0000      -0.093949        -2.5565
  55   0.0000      -0.086128        -2.3437
  56   0.0000      -0.061972        -1.6863
  57   0.0000      -0.054726        -1.4892
  58   0.0000      -0.053247        -1.4489

MULLIKEN ATOMIC CHARGES
-----------------------
   0 C :    1.022509
   1 N :   -1.721968
   2 N :    1.075116
   3 C :    0.759853
   4 C :   -0.443859
   5 C :   -0.172772
   6 C :   -0.816916
   7 H :    0.518492
   8 C :   -0.949848
   9 H :    0.508438
  10 C :   -0.310848
  11 H :    0.405869
  12 H :    0.503733
  13 H :    0.481642
  14 C :   -0.537694
  15 C :   -0.988242
  16 H :    0.281530
  17 H :    0.306246
  18 H :    0.301777
  19 C :   -0.188981
  20 C :   -0.910948
  21 H :    0.527823
  22 H :    0.441611
  23 H :    0.574637
  24 C :   -0.600479
  25 H :    0.274390
  26 H :    0.132391
  27 C :   -0.530202
  28 H :    0.182610
  29 H :    0.335848
  30 H :    0.152728
  31 H :    0.385515
Sum of atomic charges:    1.0000000

LOEWDIN ATOMIC CHARGES
----------------------
   0 C :   -0.211869
   1 N :    0.289680
   2 N :    0.287366
   3 C :   -0.261465
   4 C :    0.216812
   5 C :    0.229308
   6 C :    0.230498
   7 H :   -0.169361
   8 C :    0.230388
   9 H :   -0.174100
  10 C :    0.237036
  11 H :   -0.169699
  12 H :   -0.168988
  13 H :   -0.162116
  14 C :    0.331106
  15 C :    0.639394
  16 H :   -0.139905
  17 H :   -0.152862
  18 H :   -0.132091
  19 C :    0.164938
  20 C :    0.540661
  21 H :   -0.168796
  22 H :   -0.165393
  23 H :   -0.164491
  24 C :    0.291261
  25 H :   -0.125728
  26 H :   -0.137077
  27 C :    0.314619
  28 H :   -0.128848
  29 H :   -0.114596
  30 H :   -0.134952
  31 H :   -0.120731

  Mayer bond orders larger than 0.100000
B(  0-C ,  1-N ) :   1.4068 B(  0-C ,  3-C ) :   0.2689 B(  0-C , 14-C ) :   0.6843
B(  0-C , 15-C ) :   0.3562 B(  0-C , 16-H ) :  -0.1023 B(  0-C , 19-C ) :   0.2998
B(  0-C , 20-C ) :   0.1648 B(  1-N ,  2-N ) :  -0.8445 B(  1-N ,  3-C ) :   0.7432
B(  1-N ,  4-C ) :   0.1630 B(  1-N ,  5-C ) :   0.3186 B(  1-N ,  9-H ) :  -0.2490
B(  1-N , 15-C ) :  -0.1097 B(  1-N , 20-C ) :   0.1208 B(  2-N ,  3-C ) :  -0.1590
B(  2-N ,  4-C ) :  -0.3540 B(  2-N ,  5-C ) :  -0.8924 B(  2-N ,  6-C ) :   0.1668
B(  2-N ,  7-H ) :   0.1064 B(  2-N ,  9-H ) :   0.1565 B(  3-C ,  4-C ) :   0.6299
B(  3-C ,  5-C ) :   0.7446 B(  3-C ,  6-C ) :  -0.2410 B(  3-C ,  8-C ) :  -0.1146
B(  3-C , 10-C ) :  -0.1262 B(  4-C ,  5-C ) :  -0.1362 B(  4-C ,  6-C ) :   1.3008
B(  4-C ,  7-H ) :   0.6426 B(  4-C , 10-C ) :   0.1374 B(  5-C ,  8-C ) :   1.1800
B(  5-C ,  9-H ) :   0.8296 B(  6-C , 10-C ) :   1.1593 B(  6-C , 11-H ) :   0.8921
B(  6-C , 13-H ) :  -0.1013 B(  8-C , 10-C ) :   1.1379 B(  8-C , 12-H ) :   0.7076
B( 10-C , 13-H ) :   0.7924 B( 14-C , 27-C ) :   0.9939 B( 14-C , 28-H ) :   1.0559
B( 14-C , 29-H ) :   0.8789 B( 15-C , 16-H ) :   1.0302 B( 15-C , 17-H ) :   0.9915
B( 15-C , 18-H ) :   0.9796 B( 19-C , 20-C ) :   1.4209 B( 19-C , 21-H ) :   0.6966
B( 19-C , 24-C ) :   1.1431 B( 20-C , 22-H ) :   0.7703 B( 20-C , 23-H ) :   0.6844
B( 22-H , 24-C ) :   0.1041 B( 23-H , 24-C ) :  -0.1035 B( 24-C , 25-H ) :   0.9057
B( 24-C , 26-H ) :   1.1068 B( 24-C , 27-C ) :   1.0043 B( 27-C , 30-H ) :   1.0438
B( 27-C , 31-H ) :   0.8726

MP2 TOTAL ENERGY:     -613.517401118 Eh
FINAL SINGLE POINT ENERGY      -613.517401117914

DIPOLE MOMENT
-------------
                                X             Y             Z
Electronic contribution:     11.98330      -0.26435       0.09275
Nuclear contribution   :    -13.16651       0.04781       0.17505
                        -----------------------------------------
Total Dipole Moment    :     -1.18321      -0.21653       0.26780
                        -----------------------------------------
Magnitude (a.u.)       :      1.23231
Magnitude (Debye)      :      3.13229

Rotational constants in cm-1:     0.046504     0.010554     0.009584
Rotational constants in MHz :  1394.158992   316.400671   287.317399

                             ****ORCA TERMINATED NORMALLY****
TOTAL RUN TIME: 0 days 0 hours 28 minutes 32 seconds 176 msec
