                         Program Version 4.2.1 -  RELEASE  -
|  1> %pal
|  2>  nprocs 32
|  3> end
|  4> !RI-MP2 aug-cc-pVTZ aug-cc-pVTZ/C TightSCF
|  5> %maxcore 4500
|  6> *xyzfile 0 1  06_28P.xyz
|  7>
|  8>
|  9>                          ****END OF INPUT****

CARTESIAN COORDINATES (ANGSTROEM)
---------------------------------
  C      1.284905    2.330918    0.640552
  C      0.569877    1.166877    1.389354
  C     -1.411875    1.478220   -0.972103
  H      2.359744    2.219673    0.797572
  C     -0.687863    1.628147    2.157157
  H     -1.237754    0.752065    2.518454
  H     -0.353309    2.158203    3.055639
  H     -2.084989    1.373913   -1.827536
  H      1.271925    0.821235    2.151046
  C     -1.642071    2.551413    1.407974
  H     -2.426222    2.869560    2.102234
  H     -1.114282    3.467603    1.130042
  C     -2.317029    1.966185    0.173083
  H     -2.978836    1.153439    0.484135
  H     -2.975537    2.738244   -0.239627
  C     -0.375410    2.550118   -1.394436
  H     -0.310914    2.550400   -2.486861
  C      1.058353    2.401647   -0.875326
  H      1.496420    1.510652   -1.338053
  H      1.642026    3.240547   -1.267480
  H     -0.762064    3.538320   -1.124388
  H      1.009551    3.284200    1.101704
  C     -0.777486    0.084664   -0.737313
  H     -0.283616   -0.234088   -1.669929
  Si    -2.085110   -1.310457   -0.587674
  C     -2.635366   -1.636155    1.180089
  H     -3.165417   -0.786430    1.613976
  H     -3.312784   -2.494440    1.206442
  H     -1.787560   -1.866937    1.828877
  C     -1.401215   -2.911843   -1.303086
  H     -2.209835   -3.642243   -1.396299
  H     -0.983855   -2.755715   -2.301116
  H     -0.625758   -3.366745   -0.686702
  C     -3.584790   -0.862179   -1.630594
  H     -3.307103   -0.699792   -2.675276
  H     -4.303817   -1.685753   -1.606454
  H     -4.097751    0.034014   -1.278296
  B      0.324836    0.008171    0.351250
  C      1.342501   -1.249490    0.358701
  C      1.399585   -1.858347    1.729969
  H      1.971712   -1.301044    2.463400
  C      0.806431   -2.989906    2.083647
  H      0.235466   -3.587065    1.381716
  H      0.879456   -3.365325    3.096877
  C      2.687861   -0.720666   -0.051340
  O      3.540993   -0.300417    0.686073
  O      2.819082   -0.719881   -1.391879
  C      4.035858   -0.162242   -1.895919
  H      3.976840   -0.257831   -2.976906
  H      4.120735    0.886055   -1.608326
  H      4.895187   -0.708304   -1.508187
  H      1.035497   -1.982651   -0.385492

 Total Charge           Charge          ....    0
 Multiplicity           Mult            ....    1
 Number of Electrons    NEL             ....  168
 Basis Dimension        Dim             .... 1683

ORBITAL ENERGIES
----------------

  NO   OCC          E(Eh)            E(eV)
   0   2.0000     -68.756186     -1870.9509
   1   2.0000     -20.602842      -560.6318
   2   2.0000     -20.539885      -558.9187
   3   2.0000     -11.376885      -309.5808
   4   2.0000     -11.284651      -307.0710
   5   2.0000     -11.238418      -305.8129
   6   2.0000     -11.224700      -305.4396
   7   2.0000     -11.223409      -305.4045
   8   2.0000     -11.220677      -305.3301
   9   2.0000     -11.215999      -305.2029
  10   2.0000     -11.214232      -305.1548
  11   2.0000     -11.213613      -305.1379
  12   2.0000     -11.213152      -305.1254
  13   2.0000     -11.212971      -305.1204
  14   2.0000     -11.210659      -305.0575
  15   2.0000     -11.197484      -304.6990
  16   2.0000     -11.195744      -304.6517
  17   2.0000     -11.194592      -304.6203
  18   2.0000     -11.191861      -304.5460
  19   2.0000     -11.185825      -304.3818
  20   2.0000      -7.589887      -206.5313
  21   2.0000      -6.102714      -166.0633
  22   2.0000      -4.208988      -114.5324
  23   2.0000      -4.208893      -114.5298
  24   2.0000      -4.208873      -114.5293
  25   2.0000      -1.462716       -39.8025
  26   2.0000      -1.359542       -36.9950
  27   2.0000      -1.116662       -30.3859
  28   2.0000      -1.087845       -29.6018
  29   2.0000      -1.046368       -28.4731
  30   2.0000      -1.043382       -28.3919
  31   2.0000      -1.004162       -27.3246
  32   2.0000      -0.980097       -26.6698
  33   2.0000      -0.954696       -25.9786
  34   2.0000      -0.933774       -25.4093
  35   2.0000      -0.924378       -25.1536
  36   2.0000      -0.923537       -25.1307
  37   2.0000      -0.915065       -24.9002
  38   2.0000      -0.879559       -23.9340
  39   2.0000      -0.798238       -21.7212
  40   2.0000      -0.793022       -21.5792
  41   2.0000      -0.787161       -21.4197
  42   2.0000      -0.752722       -20.4826
  43   2.0000      -0.719842       -19.5879
  44   2.0000      -0.699954       -19.0467
  45   2.0000      -0.680660       -18.5217
  46   2.0000      -0.675795       -18.3893
  47   2.0000      -0.663285       -18.0489
  48   2.0000      -0.642075       -17.4718
  49   2.0000      -0.630885       -17.1673
  50   2.0000      -0.623444       -16.9648
  51   2.0000      -0.608596       -16.5607
  52   2.0000      -0.601069       -16.3559
  53   2.0000      -0.593890       -16.1606
  54   2.0000      -0.581016       -15.8102
  55   2.0000      -0.575337       -15.6557
  56   2.0000      -0.570711       -15.5298
  57   2.0000      -0.570517       -15.5245
  58   2.0000      -0.567199       -15.4343
  59   2.0000      -0.562391       -15.3034
  60   2.0000      -0.557103       -15.1596
  61   2.0000      -0.550865       -14.9898
  62   2.0000      -0.545758       -14.8508
  63   2.0000      -0.537172       -14.6172
  64   2.0000      -0.532178       -14.4813
  65   2.0000      -0.529803       -14.4167
  66   2.0000      -0.527643       -14.3579
  67   2.0000      -0.510791       -13.8993
  68   2.0000      -0.499329       -13.5874
  69   2.0000      -0.489638       -13.3237
  70   2.0000      -0.485081       -13.1997
  71   2.0000      -0.478984       -13.0338
  72   2.0000      -0.465191       -12.6585
  73   2.0000      -0.460820       -12.5395
  74   2.0000      -0.456550       -12.4233
  75   2.0000      -0.446639       -12.1537
  76   2.0000      -0.440213       -11.9788
  77   2.0000      -0.431982       -11.7548
  78   2.0000      -0.430341       -11.7102
  79   2.0000      -0.419608       -11.4181
  80   2.0000      -0.413631       -11.2555
  81   2.0000      -0.407252       -11.0819
  82   2.0000      -0.385236       -10.4828
  83   2.0000      -0.354149        -9.6369
  84   0.0000       0.021450         0.5837
  85   0.0000       0.027323         0.7435
  86   0.0000       0.028415         0.7732
  87   0.0000       0.030654         0.8341
  88   0.0000       0.038390         1.0447

MULLIKEN ATOMIC CHARGES
-----------------------
   0 C :   -0.771496
   1 C :    0.781085
   2 C :    0.045969
   3 H :    0.155955
   4 C :   -0.803202
   5 H :   -0.002401
   6 H :    0.157869
   7 H :    0.059682
   8 H :    0.123724
   9 C :   -0.428213
  10 H :    0.415053
  11 H :   -0.064262
  12 C :   -0.434665
  13 H :    0.156364
  14 H :    0.131834
  15 C :   -0.955396
  16 H :    0.193829
  17 C :   -0.401007
  18 H :    0.302764
  19 H :    0.436596
  20 H :   -0.117498
  21 H :   -0.040980
  22 C :    1.526179
  23 H :    0.439019
  24 Si:    3.736232
  25 C :   -1.274350
  26 H :    0.123721
  27 H :    0.191568
  28 H :    0.389619
  29 C :   -2.213202
  30 H :   -0.083688
  31 H :    0.195992
  32 H :    0.465024
  33 C :   -1.862384
  34 H :    0.152118
  35 H :    0.055497
  36 H :    0.289931
  37 B :   -0.998580
  38 C :    0.695485
  39 C :    0.131573
  40 H :    0.100420
  41 C :   -1.284705
  42 H :    0.702938
  43 H :    0.109386
  44 C :    0.732408
  45 O :   -1.406511
  46 O :   -0.482115
  47 C :   -1.076424
  48 H :    0.337455
  49 H :    0.440484
  50 H :    0.346043
  51 H :    0.579261
Sum of atomic charges:   -0.0000000

LOEWDIN ATOMIC CHARGES
----------------------
   0 C :    0.341543
   1 C :    0.156544
   2 C :    0.006330
   3 H :   -0.144155
   4 C :    0.326600
   5 H :   -0.138487
   6 H :   -0.129772
   7 H :   -0.160136
   8 H :   -0.164985
   9 C :    0.312707
  10 H :   -0.130585
  11 H :   -0.163503
  12 C :    0.315841
  13 H :   -0.179152
  14 H :   -0.124477
  15 C :    0.346836
  16 H :   -0.133980
  17 C :    0.318067
  18 H :   -0.171479
  19 H :   -0.128267
  20 H :   -0.143558
  21 H :   -0.144453
  22 C :    0.182264
  23 H :   -0.184318
  24 Si:    0.541394
  25 C :    0.606127
  26 H :   -0.231023
  27 H :   -0.216107
  28 H :   -0.241174
  29 C :    0.605322
  30 H :   -0.218943
  31 H :   -0.213119
  32 H :   -0.257677
  33 C :    0.596829
  34 H :   -0.215767
  35 H :   -0.222166
  36 H :   -0.229797
  37 B :   -0.497977
  38 C :    0.084702
  39 C :    0.193428
  40 H :   -0.179828
  41 C :    0.547956
  42 H :   -0.223856
  43 H :   -0.212318
  44 C :   -0.815642
  45 O :    0.509961
  46 O :    0.592596
  47 C :    0.360746
  48 H :   -0.181288
  49 H :   -0.176603
  50 H :   -0.177076
  51 H :   -0.194126

  Mayer bond orders larger than 0.100000
B(  0-C ,  1-C ) :   0.7266 B(  0-C ,  3-H ) :   1.2033 B(  0-C ,  8-H ) :  -0.3650
B(  0-C , 17-C ) :   0.6812 B(  0-C , 19-H ) :  -0.1611 B(  0-C , 21-H ) :   1.2761
B(  0-C , 37-B ) :   0.5208 B(  1-C ,  2-C ) :   0.1899 B(  1-C ,  3-H ) :  -0.1158
B(  1-C ,  4-C ) :   0.6773 B(  1-C ,  6-H ) :  -0.1507 B(  1-C ,  8-H ) :   1.1545
B(  1-C ,  9-C ) :   0.1196 B(  1-C , 17-C ) :   0.1348 B(  1-C , 22-C ) :  -0.1050
B(  1-C , 37-B ) :   0.9615 B(  1-C , 38-C ) :  -0.1278 B(  2-C ,  7-H ) :   1.1746
B(  2-C ,  9-C ) :   0.1764 B(  2-C , 12-C ) :   0.7616 B(  2-C , 14-H ) :  -0.1002
B(  2-C , 15-C ) :   0.5525 B(  2-C , 20-H ) :  -0.1654 B(  2-C , 22-C ) :   0.9051
B(  2-C , 23-H ) :  -0.2912 B(  2-C , 37-B ) :   0.4742 B(  3-H , 37-B ) :   0.1145
B(  4-C ,  5-H ) :   1.3837 B(  4-C ,  6-H ) :   1.1368 B(  4-C ,  8-H ) :  -0.2291
B(  4-C ,  9-C ) :   0.7102 B(  4-C , 11-H ) :   0.1155 B(  4-C , 37-B ) :  -0.1825
B(  5-H , 23-H ) :   0.1221 B(  5-H , 37-B ) :  -0.1975 B(  6-H ,  9-C ) :  -0.1091
B(  7-H , 15-C ) :  -0.2899 B(  7-H , 22-C ) :  -0.2389 B(  8-H , 37-B ) :  -0.1288
B(  9-C , 10-H ) :   0.7913 B(  9-C , 11-H ) :   1.3904 B(  9-C , 12-C ) :   0.7686
B(  9-C , 13-H ) :   0.1124 B(  9-C , 14-H ) :  -0.1240 B(  9-C , 37-B ) :  -0.1816
B( 11-H , 37-B ) :  -0.1969 B( 12-C , 13-H ) :   0.9636 B( 12-C , 14-H ) :   1.1884
B( 12-C , 22-C ) :   0.1772 B( 12-C , 37-B ) :  -0.2087 B( 13-H , 37-B ) :   0.1084
B( 15-C , 16-H ) :   1.0539 B( 15-C , 17-C ) :   0.8467 B( 15-C , 19-H ) :  -0.1080
B( 15-C , 20-H ) :   1.5141 B( 15-C , 22-C ) :   0.2089 B( 17-C , 18-H ) :   1.1204
B( 17-C , 19-H ) :   0.8720 B( 17-C , 37-B ) :  -0.1947 B( 18-H , 44-C ) :  -0.1115
B( 22-C , 23-H ) :   0.9931 B( 22-C , 24-Si) :   0.4536 B( 22-C , 25-C ) :   0.2931
B( 22-C , 37-B ) :  -0.1201 B( 22-C , 38-C ) :  -0.1462 B( 23-H , 24-Si) :  -0.2330
B( 23-H , 29-C ) :   0.1042 B( 23-H , 37-B ) :  -0.7108 B( 24-Si, 25-C ) :   0.1292
B( 24-Si, 27-H ) :  -0.1258 B( 24-Si, 29-C ) :  -1.8411 B( 24-Si, 30-H ) :  -0.3813
B( 24-Si, 31-H ) :  -0.2144 B( 24-Si, 33-C ) :  -1.2575 B( 24-Si, 34-H ) :  -0.2287
B( 24-Si, 35-H ) :  -0.2453 B( 24-Si, 37-B ) :   0.2470 B( 25-C , 26-H ) :   1.2850
B( 25-C , 27-H ) :   0.9630 B( 25-C , 28-H ) :   0.8958 B( 25-C , 29-C ) :   0.1550
B( 29-C , 30-H ) :   1.6229 B( 29-C , 31-H ) :   1.2874 B( 29-C , 32-H ) :   0.8323
B( 29-C , 37-B ) :   0.2582 B( 32-H , 37-B ) :  -0.1308 B( 33-C , 34-H ) :   1.2537
B( 33-C , 35-H ) :   1.3425 B( 33-C , 36-H ) :   1.0552 B( 33-C , 37-B ) :   0.3141
B( 37-B , 38-C ) :   1.5737 B( 37-B , 39-C ) :   0.4892 B( 37-B , 41-C ) :   0.4071
B( 37-B , 44-C ) :   0.6982 B( 37-B , 46-O ) :  -0.4003 B( 37-B , 51-H ) :  -0.2359
B( 38-C , 39-C ) :   0.6943 B( 38-C , 41-C ) :   0.1562 B( 38-C , 44-C ) :   0.6481
B( 38-C , 45-O ) :  -0.1451 B( 38-C , 51-H ) :   0.6012 B( 39-C , 40-H ) :   1.1739
B( 39-C , 41-C ) :   0.8213 B( 39-C , 43-H ) :  -0.1415 B( 39-C , 44-C ) :   0.1977
B( 39-C , 45-O ) :   0.1680 B( 39-C , 51-H ) :  -0.3883 B( 41-C , 42-H ) :   0.4913
B( 41-C , 43-H ) :   1.3205 B( 44-C , 45-O ) :   0.6495 B( 44-C , 46-O ) :   0.8683
B( 44-C , 47-C ) :  -0.1283 B( 44-C , 51-H ) :  -0.4972 B( 46-O , 47-C ) :   0.8951
B( 47-C , 48-H ) :   0.9570 B( 47-C , 49-H ) :   0.7988 B( 47-C , 50-H ) :   0.9518

MP2 TOTAL ENERGY:    -1129.147470009 Eh
FINAL SINGLE POINT ENERGY     -1129.147470008775

DIPOLE MOMENT
-------------
                                X             Y             Z
Electronic contribution:     13.35726      -3.95992       1.04369
Nuclear contribution   :    -13.86549       4.03823      -1.75439
                        -----------------------------------------
Total Dipole Moment    :     -0.50824       0.07831      -0.71069
                        -----------------------------------------
Magnitude (a.u.)       :      0.87723
Magnitude (Debye)      :      2.22973

Rotational constants in cm-1:     0.011522     0.008782     0.007159
Rotational constants in MHz :   345.433841   263.273837   214.609470

                             ****ORCA TERMINATED NORMALLY****
TOTAL RUN TIME: 0 days 2 hours 8 minutes 18 seconds 832 msec
