                         Program Version 4.2.1 -  RELEASE  -
|  1> %pal
|  2>  nprocs 32
|  3> end
|  4> !RI-MP2 aug-cc-pVTZ aug-cc-pVTZ/C TightSCF
|  5> %maxcore 4500
|  6> *xyzfile -1 1  05_4TS.xyz
|  7>
|  8>
|  9>                          ****END OF INPUT****

CARTESIAN COORDINATES (ANGSTROEM)
---------------------------------
  O     -2.809502   -1.405303    0.072114
  C     -1.547197   -1.082511   -0.492248
  C     -1.254121    0.396769   -0.282410
  H     -1.594998   -1.323112   -1.557097
  H     -0.759208   -1.691370   -0.034512
  C      0.131421    0.820451   -0.788324
  O      0.246897    2.232690   -0.734898
  C      1.204048    0.196337    0.104660
  H      0.239583    0.515480   -1.831655
  C      1.941219   -0.956510   -0.414547
  O      2.716842   -1.716982    0.209083
  H      1.533497   -1.255753   -1.409853
  O      1.293294    0.709929    1.249435
  H      2.397716    0.251569   -0.840923
  O     -1.435098    0.692443    1.098851
  H     -2.001459    0.985162   -0.824535
  H     -0.545675    0.703743    1.507707
  H      0.599154    2.407027    0.151287
  H     -2.820299   -0.942164    0.920124

 Total Charge           Charge          ....   -1
 Multiplicity           Mult            ....    1
 Number of Electrons    NEL             ....   80
 Basis Dimension        Dim             ....  667

ORBITAL ENERGIES
----------------

  NO   OCC          E(Eh)            E(eV)
   0   2.0000     -20.442805      -556.2770
   1   2.0000     -20.433703      -556.0293
   2   2.0000     -20.429308      -555.9097
   3   2.0000     -20.365928      -554.1851
   4   2.0000     -20.312648      -552.7353
   5   2.0000     -11.178906      -304.1935
   6   2.0000     -11.164666      -303.8060
   7   2.0000     -11.162547      -303.7484
   8   2.0000     -11.159744      -303.6721
   9   2.0000     -11.153409      -303.4997
  10   2.0000      -1.267248       -34.4836
  11   2.0000      -1.248543       -33.9746
  12   2.0000      -1.220797       -33.2196
  13   2.0000      -1.198283       -32.6069
  14   2.0000      -1.146890       -31.2085
  15   2.0000      -0.925847       -25.1936
  16   2.0000      -0.850697       -23.1486
  17   2.0000      -0.775647       -21.1064
  18   2.0000      -0.701951       -19.1010
  19   2.0000      -0.615855       -16.7583
  20   2.0000      -0.581545       -15.8246
  21   2.0000      -0.577940       -15.7265
  22   2.0000      -0.539068       -14.6688
  23   2.0000      -0.531379       -14.4596
  24   2.0000      -0.495341       -13.4789
  25   2.0000      -0.487126       -13.2554
  26   2.0000      -0.469309       -12.7706
  27   2.0000      -0.456199       -12.4138
  28   2.0000      -0.433262       -11.7897
  29   2.0000      -0.430215       -11.7068
  30   2.0000      -0.410638       -11.1740
  31   2.0000      -0.399229       -10.8636
  32   2.0000      -0.386308       -10.5120
  33   2.0000      -0.355637        -9.6774
  34   2.0000      -0.335322        -9.1246
  35   2.0000      -0.326826        -8.8934
  36   2.0000      -0.305781        -8.3207
  37   2.0000      -0.277570        -7.5531
  38   2.0000      -0.218102        -5.9349
  39   2.0000      -0.173815        -4.7298
  40   0.0000       0.111894         3.0448
  41   0.0000       0.119719         3.2577
  42   0.0000       0.123034         3.3479
  43   0.0000       0.130179         3.5423
  44   0.0000       0.135767         3.6944

MULLIKEN ATOMIC CHARGES
-----------------------
   0 O :   -0.736389
   1 C :   -0.192400
   2 C :    0.250711
   3 H :    0.314204
   4 H :    0.189536
   5 C :    0.429511
   6 O :   -0.907643
   7 C :    0.930435
   8 H :    0.355738
   9 C :    0.281573
  10 O :   -1.088366
  11 H :    0.300333
  12 O :   -1.242493
  13 H :    0.008179
  14 O :   -0.867135
  15 H :    0.322146
  16 H :    0.221432
  17 H :    0.235494
  18 H :    0.195135
Sum of atomic charges:   -1.0000000

LOEWDIN ATOMIC CHARGES
----------------------
   0 O :    0.803050
   1 C :    0.029690
   2 C :   -0.252991
   3 H :   -0.158063
   4 H :   -0.160561
   5 C :   -0.286943
   6 O :    0.825649
   7 C :   -0.601078
   8 H :   -0.158022
   9 C :   -0.405809
  10 O :    0.292599
  11 H :   -0.200835
  12 O :    0.469597
  13 H :   -0.127221
  14 O :    0.847840
  15 H :   -0.145800
  16 H :   -0.654473
  17 H :   -0.557376
  18 H :   -0.559252

  Mayer bond orders larger than 0.100000
B(  0-O ,  1-C ) :   0.5524 B(  0-O , 18-H ) :   0.9620 B(  1-C ,  2-C ) :   0.8525
B(  1-C ,  3-H ) :   0.9560 B(  1-C ,  4-H ) :   1.0246 B(  1-C , 14-O ) :   0.1234
B(  2-C ,  5-C ) :   1.0110 B(  2-C ,  6-O ) :   0.1314 B(  2-C ,  7-C ) :   0.1708
B(  2-C , 14-O ) :   0.3788 B(  2-C , 15-H ) :   0.9076 B(  5-C ,  6-O ) :   0.2435
B(  5-C ,  7-C ) :   0.8516 B(  5-C ,  8-H ) :   0.9577 B(  6-O , 17-H ) :   0.9987
B(  7-C ,  9-C ) :   0.8137 B(  7-C , 10-O ) :   0.1488 B(  7-C , 11-H ) :  -0.1266
B(  7-C , 12-O ) :   0.6206 B(  7-C , 13-H ) :   0.4583 B(  9-C , 10-O ) :   0.9251
B(  9-C , 11-H ) :   0.9988 B(  9-C , 13-H ) :   0.5674 B( 14-O , 16-H ) :   0.8636

MP2 TOTAL ENERGY:     -571.154042957 Eh
FINAL SINGLE POINT ENERGY      -571.154042956947

DIPOLE MOMENT
-------------
                                X             Y             Z
Electronic contribution:      0.74582       1.25663       2.76547
Nuclear contribution   :     -2.93656      -0.33961      -3.86992
                        -----------------------------------------
Total Dipole Moment    :     -2.19075       0.91702      -1.10445
                        -----------------------------------------
Magnitude (a.u.)       :      2.61918
Magnitude (Debye)      :      6.65743

Rotational constants in cm-1:     0.055459     0.032469     0.025379
Rotational constants in MHz :  1662.620421   973.400262   760.852609

                             ****ORCA TERMINATED NORMALLY****
TOTAL RUN TIME: 0 days 0 hours 4 minutes 36 seconds 36 msec
