                         Program Version 4.2.1 -  RELEASE  -
|  1> %pal
|  2>  nprocs 32
|  3> end
|  4> !RI-MP2 aug-cc-pVTZ aug-cc-pVTZ/C TightSCF
|  5> %maxcore 4500
|  6> *xyzfile 0 1  05_19R1.xyz
|  7>
|  8>
|  9>                          ****END OF INPUT****

CARTESIAN COORDINATES (ANGSTROEM)
---------------------------------
  C     -4.281495   -0.738302    0.014218
  C     -3.159832   -0.099179    0.005013
  C     -4.387588    0.761911    0.015081
  H     -4.832577   -1.661226    0.018572
  C     -1.716928   -0.073151   -0.006904
  C     -1.042384    1.146446   -0.015565
  C     -0.979954   -1.260727   -0.013002
  C      0.342407    1.184226   -0.028584
  H     -1.614356    2.065733   -0.014274
  C      0.400699   -1.226974   -0.026458
  H     -1.501058   -2.209913   -0.009922
  C      1.061160   -0.002198   -0.035486
  H      0.863356    2.132446   -0.041062
  H      0.969998   -2.147392   -0.037958
  C      2.558599    0.027656    0.001583
  F      3.101631   -0.998354   -0.677767
  F      3.058957    1.160310   -0.520235
  F      3.029498   -0.056909    1.263591
  H     -4.674561    1.278380    0.930911
  H     -4.689678    1.278296   -0.895939

 Total Charge           Charge          ....    0
 Multiplicity           Mult            ....    1
 Number of Electrons    NEL             ....   94
 Basis Dimension        Dim             ....  759

ORBITAL ENERGIES
----------------

  NO   OCC          E(Eh)            E(eV)
   0   2.0000     -26.337889      -716.6904
   1   2.0000     -26.336948      -716.6648
   2   2.0000     -26.332285      -716.5379
   3   2.0000     -11.509521      -313.1900
   4   2.0000     -11.273323      -306.7627
   5   2.0000     -11.271519      -306.7136
   6   2.0000     -11.263085      -306.4841
   7   2.0000     -11.262959      -306.4807
   8   2.0000     -11.258510      -306.3596
   9   2.0000     -11.258056      -306.3473
  10   2.0000     -11.257150      -306.3226
  11   2.0000     -11.252057      -306.1840
  12   2.0000     -11.246465      -306.0319
  13   2.0000      -1.726216       -46.9727
  14   2.0000      -1.633155       -44.4404
  15   2.0000      -1.627673       -44.2912
  16   2.0000      -1.199954       -32.6524
  17   2.0000      -1.171119       -31.8678
  18   2.0000      -1.081433       -29.4273
  19   2.0000      -1.045977       -28.4625
  20   2.0000      -0.974988       -26.5308
  21   2.0000      -0.887243       -24.1431
  22   2.0000      -0.868062       -23.6212
  23   2.0000      -0.828614       -22.5477
  24   2.0000      -0.817832       -22.2543
  25   2.0000      -0.811359       -22.0782
  26   2.0000      -0.796735       -21.6803
  27   2.0000      -0.768671       -20.9166
  28   2.0000      -0.712446       -19.3866
  29   2.0000      -0.709521       -19.3071
  30   2.0000      -0.705467       -19.1967
  31   2.0000      -0.668153       -18.1814
  32   2.0000      -0.659299       -17.9404
  33   2.0000      -0.656411       -17.8619
  34   2.0000      -0.649059       -17.6618
  35   2.0000      -0.645333       -17.5604
  36   2.0000      -0.617030       -16.7902
  37   2.0000      -0.612124       -16.6568
  38   2.0000      -0.611731       -16.6461
  39   2.0000      -0.543642       -14.7932
  40   2.0000      -0.536445       -14.5974
  41   2.0000      -0.528625       -14.3846
  42   2.0000      -0.493405       -13.4262
  43   2.0000      -0.430506       -11.7147
  44   2.0000      -0.416103       -11.3227
  45   2.0000      -0.363749        -9.8981
  46   2.0000      -0.324759        -8.8371
  47   0.0000       0.025344         0.6896
  48   0.0000       0.029731         0.8090
  49   0.0000       0.034326         0.9341
  50   0.0000       0.042146         1.1468
  51   0.0000       0.043770         1.1911

MULLIKEN ATOMIC CHARGES
-----------------------
   0 C :   -1.180333
   1 C :    1.636180
   2 C :   -1.177013
   3 H :    0.308575
   4 C :    2.365748
   5 C :   -1.236657
   6 C :   -1.353260
   7 C :   -0.780299
   8 H :    0.006868
   9 C :   -0.761778
  10 H :   -0.106905
  11 C :    0.897769
  12 H :    0.370005
  13 H :    0.402555
  14 C :    1.294993
  15 F :   -0.419514
  16 F :   -0.412368
  17 F :   -0.422377
  18 H :    0.275962
  19 H :    0.291848
Sum of atomic charges:    0.0000000

LOEWDIN ATOMIC CHARGES
----------------------
   0 C :    0.336461
   1 C :   -0.083977
   2 C :    0.319557
   3 H :   -0.183589
   4 C :   -0.109228
   5 C :    0.234467
   6 C :    0.234636
   7 C :    0.220246
   8 H :   -0.166584
   9 C :    0.218460
  10 H :   -0.163920
  11 C :   -0.153419
  12 H :   -0.179133
  13 H :   -0.175348
  14 C :   -1.488491
  15 F :    0.508499
  16 F :    0.512249
  17 F :    0.494809
  18 H :   -0.187851
  19 H :   -0.187843

  Mayer bond orders larger than 0.100000
B(  0-C ,  1-C ) :   0.4061 B(  0-C ,  2-C ) :   1.3496 B(  0-C ,  3-H ) :   1.3492
B(  0-C ,  6-C ) :   0.2289 B(  0-C , 10-H ) :  -0.1439 B(  1-C ,  2-C ) :  -0.2710
B(  1-C ,  3-H ) :  -0.1596 B(  1-C ,  4-C ) :   0.2099 B(  1-C ,  5-C ) :   0.3039
B(  1-C ,  6-C ) :   0.2463 B(  1-C ,  8-H ) :  -0.2084 B(  1-C , 10-H ) :  -0.2375
B(  2-C ,  5-C ) :   0.1254 B(  2-C , 18-H ) :   0.9964 B(  2-C , 19-H ) :   0.9710
B(  3-H ,  4-C ) :  -0.1038 B(  4-C ,  6-C ) :   0.1041 B(  4-C ,  8-H ) :  -0.3999
B(  4-C , 10-H ) :  -0.3619 B(  4-C , 13-H ) :  -0.1381 B(  5-C ,  6-C ) :  -0.4930
B(  5-C ,  7-C ) :   1.4790 B(  5-C ,  8-H ) :   1.8033 B(  5-C , 10-H ) :   0.2800
B(  5-C , 11-C ) :  -0.3132 B(  6-C ,  7-C ) :   0.1901 B(  6-C ,  8-H ) :   0.2479
B(  6-C ,  9-C ) :   1.4200 B(  6-C , 10-H ) :   1.9887 B(  6-C , 11-C ) :  -0.2231
B(  7-C , 11-C ) :   0.7101 B(  7-C , 12-H ) :   0.9102 B(  8-H , 10-H ) :   0.2187
B(  9-C , 10-H ) :  -0.1203 B(  9-C , 11-C ) :   0.7595 B(  9-C , 13-H ) :   0.8815
B( 11-C , 14-C ) :   1.0163 B( 11-C , 15-F ) :   0.1143 B( 11-C , 16-F ) :   0.1342
B( 14-C , 15-F ) :   0.7026 B( 14-C , 16-F ) :   0.6918 B( 14-C , 17-F ) :   0.7484

MP2 TOTAL ENERGY:     -683.607171883 Eh
FINAL SINGLE POINT ENERGY      -683.607171882958

DIPOLE MOMENT
-------------
                                X             Y             Z
Electronic contribution:     22.45827      -0.79371       0.07436
Nuclear contribution   :    -23.53875       0.60640      -0.10971
                        -----------------------------------------
Total Dipole Moment    :     -1.08048      -0.18731      -0.03535
                        -----------------------------------------
Magnitude (a.u.)       :      1.09716
Magnitude (Debye)      :      2.78876

Rotational constants in cm-1:     0.084910     0.012227     0.011349
Rotational constants in MHz :  2545.549068   366.549419   340.227221

                             ****ORCA TERMINATED NORMALLY****
TOTAL RUN TIME: 0 days 0 hours 6 minutes 52 seconds 721 msec
