                         Program Version 4.2.1 -  RELEASE  -
|  1> %pal
|  2>  nprocs 32
|  3> end
|  4> !RI-MP2 aug-cc-pVTZ aug-cc-pVTZ/C TightSCF
|  5> %maxcore 4500
|  6> *xyzfile 0 1  05_35R1.xyz
|  7>
|  8>
|  9>                          ****END OF INPUT****

CARTESIAN COORDINATES (ANGSTROEM)
---------------------------------
  C     -3.818620    0.035128   -0.824198
  O     -4.691530    0.357885    0.243670
  C     -4.492437   -0.433719    1.392550
  H     -3.490667   -0.298553    1.814301
  H     -4.635936   -1.499002    1.166871
  C     -2.395782    0.413640   -0.552251
  H     -2.232601    1.460477   -0.311679
  C     -1.381799   -0.446721   -0.592449
  H     -1.608829   -1.487337   -0.817243
  H     -5.235129   -0.123111    2.125902
  C      0.040215   -0.165261   -0.362417
  C      0.948389   -1.217417   -0.341864
  C      0.543071    1.126525   -0.154937
  C      2.306104   -1.016717   -0.116707
  H      0.589882   -2.228080   -0.503662
  C      1.883484    1.344431    0.069919
  H     -0.126883    1.976923   -0.175036
  C      2.778111    0.272078    0.092229
  H      2.973556   -1.866550   -0.108551
  H      2.272155    2.342293    0.228545
  O      4.077859    0.589043    0.319813
  C      5.027355   -0.456628    0.346825
  H      5.067702   -0.982149   -0.612156
  H      5.988462    0.014204    0.539819
  H      4.808229   -1.172488    1.144930
  H     -4.203379    0.592744   -1.681093
  H     -3.885737   -1.036833   -1.059017

 Total Charge           Charge          ....    0
 Multiplicity           Mult            ....    1
 Number of Electrons    NEL             ....   96
 Basis Dimension        Dim             ....  920

ORBITAL ENERGIES
----------------

  NO   OCC          E(Eh)            E(eV)
   0   2.0000     -20.588905      -560.2526
   1   2.0000     -20.552399      -559.2592
   2   2.0000     -11.302450      -307.5553
   3   2.0000     -11.287212      -307.1406
   4   2.0000     -11.275838      -306.8311
   5   2.0000     -11.262987      -306.4815
   6   2.0000     -11.241541      -305.8979
   7   2.0000     -11.239880      -305.8527
   8   2.0000     -11.237706      -305.7935
   9   2.0000     -11.236583      -305.7630
  10   2.0000     -11.232389      -305.6488
  11   2.0000     -11.229524      -305.5709
  12   2.0000     -11.225756      -305.4684
  13   2.0000      -1.417350       -38.5681
  14   2.0000      -1.370761       -37.3003
  15   2.0000      -1.162026       -31.6203
  16   2.0000      -1.083329       -29.4789
  17   2.0000      -1.028737       -27.9934
  18   2.0000      -1.018120       -27.7045
  19   2.0000      -0.965174       -26.2637
  20   2.0000      -0.938297       -25.5324
  21   2.0000      -0.873699       -23.7746
  22   2.0000      -0.842069       -22.9139
  23   2.0000      -0.812874       -22.1194
  24   2.0000      -0.761682       -20.7264
  25   2.0000      -0.724471       -19.7139
  26   2.0000      -0.680015       -18.5041
  27   2.0000      -0.675510       -18.3816
  28   2.0000      -0.660580       -17.9753
  29   2.0000      -0.652109       -17.7448
  30   2.0000      -0.638420       -17.3723
  31   2.0000      -0.633165       -17.2293
  32   2.0000      -0.620775       -16.8921
  33   2.0000      -0.592388       -16.1197
  34   2.0000      -0.588200       -16.0057
  35   2.0000      -0.563899       -15.3445
  36   2.0000      -0.548690       -14.9306
  37   2.0000      -0.534841       -14.5538
  38   2.0000      -0.526068       -14.3151
  39   2.0000      -0.518464       -14.1081
  40   2.0000      -0.505062       -13.7434
  41   2.0000      -0.485015       -13.1979
  42   2.0000      -0.481629       -13.1058
  43   2.0000      -0.470070       -12.7912
  44   2.0000      -0.421513       -11.4699
  45   2.0000      -0.395560       -10.7637
  46   2.0000      -0.346424        -9.4267
  47   2.0000      -0.290038        -7.8923
  48   0.0000       0.024961         0.6792
  49   0.0000       0.030538         0.8310
  50   0.0000       0.033535         0.9125
  51   0.0000       0.040209         1.0941
  52   0.0000       0.040612         1.1051

MULLIKEN ATOMIC CHARGES
-----------------------
   0 C :   -0.161636
   1 O :   -0.656092
   2 C :   -0.865674
   3 H :    0.399425
   4 H :    0.312988
   5 C :   -0.279628
   6 H :    0.119593
   7 C :   -0.333889
   8 H :   -0.098988
   9 H :    0.357918
  10 C :    2.104516
  11 C :   -1.003653
  12 C :   -0.455084
  13 C :   -0.415067
  14 H :   -0.058603
  15 C :   -0.942076
  16 H :   -0.233953
  17 C :    1.231809
  18 H :    0.365039
  19 H :    0.574405
  20 O :   -0.850203
  21 C :   -0.909843
  22 H :    0.364780
  23 H :    0.364985
  24 H :    0.364396
  25 H :    0.407794
  26 H :    0.296740
Sum of atomic charges:    0.0000000

LOEWDIN ATOMIC CHARGES
----------------------
   0 C :   -0.007490
   1 O :    0.542166
   2 C :    0.307783
   3 H :   -0.184055
   4 H :   -0.176122
   5 C :    0.212678
   6 H :   -0.184510
   7 C :    0.209579
   8 H :   -0.186471
   9 H :   -0.187125
  10 C :   -0.131163
  11 C :    0.206673
  12 C :    0.214323
  13 C :    0.214010
  14 H :   -0.174671
  15 C :    0.222442
  16 H :   -0.185093
  17 C :   -0.386393
  18 H :   -0.204678
  19 H :   -0.177475
  20 O :    0.575253
  21 C :    0.337226
  22 H :   -0.172796
  23 H :   -0.179469
  24 H :   -0.172835
  25 H :   -0.163523
  26 H :   -0.168261

  Mayer bond orders larger than 0.100000
B(  0-C ,  1-O ) :   0.8919 B(  0-C ,  5-C ) :   0.6841 B(  0-C , 25-H ) :   0.8743
B(  0-C , 26-H ) :   1.0221 B(  1-O ,  2-C ) :   0.9665 B(  2-C ,  3-H ) :   0.8233
B(  2-C ,  4-H ) :   0.8941 B(  2-C ,  9-H ) :   0.9381 B(  5-C ,  6-H ) :   1.5738
B(  5-C ,  7-C ) :   0.9743 B(  5-C , 11-C ) :   0.1154 B(  5-C , 15-C ) :  -0.1071
B(  5-C , 16-H ) :  -0.1309 B(  5-C , 17-C ) :   0.1089 B(  6-H ,  7-C ) :  -0.1570
B(  6-H , 10-C ) :  -0.1869 B(  6-H , 12-C ) :  -0.1192 B(  7-C ,  8-H ) :   1.5856
B(  7-C , 10-C ) :   0.1322 B(  7-C , 12-C ) :   0.4195 B(  7-C , 14-H ) :  -0.2060
B(  7-C , 15-C ) :   0.1125 B(  7-C , 18-H ) :   0.1654 B(  8-H , 10-C ) :  -0.1636
B(  8-H , 11-C ) :  -0.1167 B( 10-C , 12-C ) :   0.4005 B( 10-C , 13-C ) :   0.2658
B( 10-C , 14-H ) :  -0.4666 B( 10-C , 15-C ) :   0.2286 B( 10-C , 16-H ) :  -0.5261
B( 11-C , 12-C ) :  -0.5926 B( 11-C , 13-C ) :   0.8756 B( 11-C , 14-H ) :   1.9952
B( 11-C , 15-C ) :   0.1943 B( 11-C , 16-H ) :   0.2068 B( 11-C , 17-C ) :  -0.1812
B( 11-C , 18-H ) :  -0.2151 B( 12-C , 13-C ) :  -0.3282 B( 12-C , 14-H ) :   0.1053
B( 12-C , 15-C ) :   1.0362 B( 12-C , 16-H ) :   2.0970 B( 12-C , 17-C ) :  -0.3351
B( 13-C , 14-H ) :  -0.2801 B( 13-C , 15-C ) :   0.2887 B( 13-C , 17-C ) :   1.1999
B( 13-C , 18-H ) :   0.8239 B( 13-C , 20-O ) :  -0.3567 B( 14-H , 16-H ) :   0.2236
B( 15-C , 16-H ) :  -0.2095 B( 15-C , 17-C ) :   0.8083 B( 15-C , 19-H ) :   0.4439
B( 15-C , 20-O ) :   0.2339 B( 17-C , 18-H ) :   0.1402 B( 17-C , 19-H ) :   0.1398
B( 17-C , 20-O ) :   0.3608 B( 18-H , 21-C ) :  -0.1001 B( 20-O , 21-C ) :   1.0200
B( 21-C , 22-H ) :   0.8815 B( 21-C , 23-H ) :   0.9303 B( 21-C , 24-H ) :   0.8788

MP2 TOTAL ENERGY:     -576.876971783 Eh
FINAL SINGLE POINT ENERGY      -576.876971782508

DIPOLE MOMENT
-------------
                                X             Y             Z
Electronic contribution:      4.61480       3.51960      -1.73591
Nuclear contribution   :     -3.77203      -4.34224       1.78121
                        -----------------------------------------
Total Dipole Moment    :      0.84277      -0.82264       0.04530
                        -----------------------------------------
Magnitude (a.u.)       :      1.17858
Magnitude (Debye)      :      2.99571

Rotational constants in cm-1:     0.095289     0.008826     0.008599
Rotational constants in MHz :  2856.680151   264.599344   257.795495

                             ****ORCA TERMINATED NORMALLY****
TOTAL RUN TIME: 0 days 0 hours 11 minutes 31 seconds 254 msec
