                         Program Version 4.2.1 -  RELEASE  -
|  1> %pal
|  2>  nprocs 32
|  3> end
|  4> !RI-MP2 aug-cc-pVTZ aug-cc-pVTZ/C TightSCF
|  5> %maxcore 4500
|  6> *xyzfile 0 1  04_66P2.xyz
|  7>
|  8>
|  9>                          ****END OF INPUT****

CARTESIAN COORDINATES (ANGSTROEM)
---------------------------------
  H      1.179137   -1.223909   -1.682721
  C      0.778521   -1.205332   -0.666351
  N      1.276538    0.000010   -0.000020
  H      1.179195   -2.075910   -0.141563
  C     -0.778522   -1.205354   -0.666310
  C      0.778496    1.179745   -0.710695
  C      0.778542    0.025612    1.377005
  H     -1.179189   -1.223964   -1.682659
  H     -1.179143   -2.075932   -0.141484
  N     -1.276538   -0.000014    0.000023
  H      1.179133    2.069231   -0.218604
  H      1.179134    1.160566   -1.727045
  C     -0.778542    1.179722   -0.710684
  C     -0.778495    0.025615    1.377031
  H     -1.179199    2.069207   -0.218608
  H     -1.179193    1.160507   -1.727028
  H     -1.179126   -0.845286    1.901319
  H     -1.179138    0.915400    1.868571
  H      1.179206    0.915383    1.868553
  H      1.179186   -0.845303    1.901259

 Total Charge           Charge          ....    0
 Multiplicity           Mult            ....    1
 Number of Electrons    NEL             ....   62
 Basis Dimension        Dim             ....  644

ORBITAL ENERGIES
----------------

  NO   OCC          E(Eh)            E(eV)
   0   2.0000     -15.543544      -422.9613
   1   2.0000     -15.543531      -422.9610
   2   2.0000     -11.243248      -305.9443
   3   2.0000     -11.243247      -305.9443
   4   2.0000     -11.243222      -305.9436
   5   2.0000     -11.242698      -305.9294
   6   2.0000     -11.242698      -305.9294
   7   2.0000     -11.242685      -305.9290
   8   2.0000      -1.275809       -34.7165
   9   2.0000      -1.178475       -32.0679
  10   2.0000      -1.018036       -27.7022
  11   2.0000      -1.018036       -27.7022
  12   2.0000      -0.862506       -23.4700
  13   2.0000      -0.862505       -23.4700
  14   2.0000      -0.858237       -23.3538
  15   2.0000      -0.710085       -19.3224
  16   2.0000      -0.674579       -18.3562
  17   2.0000      -0.674577       -18.3562
  18   2.0000      -0.672363       -18.2959
  19   2.0000      -0.567537       -15.4435
  20   2.0000      -0.567296       -15.4369
  21   2.0000      -0.567294       -15.4368
  22   2.0000      -0.540710       -14.7135
  23   2.0000      -0.540708       -14.7134
  24   2.0000      -0.524599       -14.2751
  25   2.0000      -0.524599       -14.2751
  26   2.0000      -0.466730       -12.7004
  27   2.0000      -0.453810       -12.3488
  28   2.0000      -0.453807       -12.3487
  29   2.0000      -0.418422       -11.3858
  30   2.0000      -0.313487        -8.5304
  31   0.0000       0.030846         0.8394
  32   0.0000       0.036734         0.9996
  33   0.0000       0.036734         0.9996
  34   0.0000       0.040979         1.1151
  35   0.0000       0.050065         1.3623

MULLIKEN ATOMIC CHARGES
-----------------------
   0 H :    0.280688
   1 C :   -0.433385
   2 N :   -0.384563
   3 H :    0.280885
   4 C :   -0.433371
   5 C :   -0.433409
   6 C :   -0.433399
   7 H :    0.280782
   8 H :    0.280796
   9 N :   -0.384562
  10 H :    0.280766
  11 H :    0.280837
  12 C :   -0.433405
  13 C :   -0.433396
  14 H :    0.280868
  15 H :    0.280731
  16 H :    0.280805
  17 H :    0.280753
  18 H :    0.280855
  19 H :    0.280726
Sum of atomic charges:    0.0000000

LOEWDIN ATOMIC CHARGES
----------------------
   0 H :   -0.145468
   1 C :    0.199067
   2 N :    0.275610
   3 H :   -0.145467
   4 C :    0.199067
   5 C :    0.199067
   6 C :    0.199060
   7 H :   -0.145468
   8 H :   -0.145468
   9 N :    0.275610
  10 H :   -0.145468
  11 H :   -0.145467
  12 C :    0.199068
  13 C :    0.199060
  14 H :   -0.145468
  15 H :   -0.145468
  16 H :   -0.145466
  17 H :   -0.145467
  18 H :   -0.145467
  19 H :   -0.145467

  Mayer bond orders larger than 0.100000
B(  0-H ,  1-C ) :   0.9745 B(  1-C ,  2-N ) :   0.8026 B(  1-C ,  3-H ) :   0.9744
B(  1-C ,  4-C ) :   0.9147 B(  2-N ,  5-C ) :   0.8026 B(  2-N ,  6-C ) :   0.8026
B(  4-C ,  7-H ) :   0.9745 B(  4-C ,  8-H ) :   0.9744 B(  4-C ,  9-N ) :   0.8026
B(  5-C , 10-H ) :   0.9744 B(  5-C , 11-H ) :   0.9744 B(  5-C , 12-C ) :   0.9147
B(  6-C , 13-C ) :   0.9146 B(  6-C , 18-H ) :   0.9744 B(  6-C , 19-H ) :   0.9745
B(  9-N , 12-C ) :   0.8026 B(  9-N , 13-C ) :   0.8026 B( 12-C , 14-H ) :   0.9744
B( 12-C , 15-H ) :   0.9745 B( 13-C , 16-H ) :   0.9744 B( 13-C , 17-H ) :   0.9745

MP2 TOTAL ENERGY:     -344.631615413 Eh
FINAL SINGLE POINT ENERGY      -344.631615413324

DIPOLE MOMENT
-------------
                                X             Y             Z
Electronic contribution:     -0.00000       0.00002      -0.00001
Nuclear contribution   :      0.00000      -0.00001      -0.00001
                        -----------------------------------------
Total Dipole Moment    :     -0.00000       0.00001      -0.00001
                        -----------------------------------------
Magnitude (a.u.)       :      0.00001
Magnitude (Debye)      :      0.00004

Rotational constants in cm-1:     0.089162     0.084002     0.084002
Rotational constants in MHz :  2673.015146  2518.326007  2518.315994

                             ****ORCA TERMINATED NORMALLY****
TOTAL RUN TIME: 0 days 0 hours 5 minutes 0 seconds 812 msec
