                         Program Version 4.2.1 -  RELEASE  -
|  1> %pal
|  2>  nprocs 32
|  3> end
|  4> !RI-MP2 aug-cc-pVTZ aug-cc-pVTZ/C TightSCF
|  5> %maxcore 4500
|  6> *xyzfile -1 1  05_1TS.xyz
|  7>
|  8>
|  9>                          ****END OF INPUT****

CARTESIAN COORDINATES (ANGSTROEM)
---------------------------------
  O      1.407816    1.817604   -0.055324
  C      0.697819    0.785911    0.051541
  C      1.301744   -0.532783   -0.045701
  O      2.642916   -0.472412   -0.282217
  O      0.796021   -1.628727    0.345053
  C     -0.743743    0.897887    0.532981
  H      0.629926   -0.043241   -1.228868
  C     -1.847310    0.011283   -0.039446
  H     -1.050599    1.929824    0.383912
  H     -0.714764    0.707626    1.614048
  O     -2.908003    0.497467   -0.371217
  O     -1.625798   -1.282532   -0.087309
  H      2.819803    0.489553   -0.308164
  H     -0.639051   -1.508739    0.150932

 Total Charge           Charge          ....   -1
 Multiplicity           Mult            ....    1
 Number of Electrons    NEL             ....   70
 Basis Dimension        Dim             ....  529

ORBITAL ENERGIES
----------------

  NO   OCC          E(Eh)            E(eV)
   0   2.0000     -20.442921      -556.2802
   1   2.0000     -20.430796      -555.9502
   2   2.0000     -20.392515      -554.9086
   3   2.0000     -20.367700      -554.2333
   4   2.0000     -20.365355      -554.1695
   5   2.0000     -11.237253      -305.7812
   6   2.0000     -11.229352      -305.5662
   7   2.0000     -11.193839      -304.5998
   8   2.0000     -11.118438      -302.5481
   9   2.0000      -1.303023       -35.4570
  10   2.0000      -1.289946       -35.1012
  11   2.0000      -1.207136       -32.8478
  12   2.0000      -1.199265       -32.6336
  13   2.0000      -1.178340       -32.0643
  14   2.0000      -0.912624       -24.8338
  15   2.0000      -0.800893       -21.7934
  16   2.0000      -0.681826       -18.5534
  17   2.0000      -0.629427       -17.1276
  18   2.0000      -0.604032       -16.4365
  19   2.0000      -0.545682       -14.8488
  20   2.0000      -0.520369       -14.1600
  21   2.0000      -0.506903       -13.7935
  22   2.0000      -0.495352       -13.4792
  23   2.0000      -0.480101       -13.0642
  24   2.0000      -0.460356       -12.5269
  25   2.0000      -0.428116       -11.6496
  26   2.0000      -0.414211       -11.2713
  27   2.0000      -0.400052       -10.8860
  28   2.0000      -0.369695       -10.0599
  29   2.0000      -0.344126        -9.3641
  30   2.0000      -0.322394        -8.7728
  31   2.0000      -0.312065        -8.4917
  32   2.0000      -0.306351        -8.3362
  33   2.0000      -0.265173        -7.2157
  34   2.0000      -0.188852        -5.1389
  35   0.0000       0.125860         3.4248
  36   0.0000       0.129592         3.5264
  37   0.0000       0.137184         3.7330
  38   0.0000       0.142651         3.8817
  39   0.0000       0.158653         4.3172

MULLIKEN ATOMIC CHARGES
-----------------------
   0 O :   -1.170421
   1 C :    0.752263
   2 C :    0.836563
   3 O :   -0.620038
   4 O :   -0.831918
   5 C :   -0.088720
   6 H :   -0.039423
   7 C :    0.437940
   8 H :    0.203929
   9 H :    0.263128
  10 O :   -0.815803
  11 O :   -0.513188
  12 H :    0.254551
  13 H :    0.331137
Sum of atomic charges:   -1.0000000

LOEWDIN ATOMIC CHARGES
----------------------
   0 O :    0.407071
   1 C :   -0.629981
   2 C :   -0.838716
   3 O :    0.820964
   4 O :    0.527678
   5 C :    0.265654
   6 H :   -0.073165
   7 C :   -0.857593
   8 H :   -0.192333
   9 H :   -0.152696
  10 O :    0.381146
  11 O :    0.793473
  12 H :   -0.606424
  13 H :   -0.845079

  Mayer bond orders larger than 0.100000
B(  0-O ,  1-C ) :   0.7274 B(  1-C ,  2-C ) :   1.1455 B(  1-C ,  5-C ) :   0.8971
B(  1-C ,  6-H ) :   0.3879 B(  1-C ,  7-C ) :   0.1343 B(  2-C ,  3-O ) :   0.6505
B(  2-C ,  4-O ) :   1.1750 B(  2-C ,  6-H ) :   0.5396 B(  3-O , 12-H ) :   0.9140
B(  4-O , 13-H ) :   0.2461 B(  5-C ,  7-C ) :   0.6824 B(  5-C ,  8-H ) :   1.0123
B(  5-C ,  9-H ) :   0.8742 B(  7-C , 10-O ) :   1.4108 B(  7-C , 11-O ) :   1.0472
B( 11-O , 13-H ) :   0.7051

MP2 TOTAL ENERGY:     -530.790523745 Eh
FINAL SINGLE POINT ENERGY      -530.790523745113

DIPOLE MOMENT
-------------
                                X             Y             Z
Electronic contribution:     -0.71639      -1.17130      -0.01456
Nuclear contribution   :      1.02269       1.51729       0.58888
                        -----------------------------------------
Total Dipole Moment    :      0.30630       0.34599       0.57432
                        -----------------------------------------
Magnitude (a.u.)       :      0.73714
Magnitude (Debye)      :      1.87366

Rotational constants in cm-1:     0.099242     0.039304     0.029474
Rotational constants in MHz :  2975.207700  1178.308523   883.619781

                             ****ORCA TERMINATED NORMALLY****
TOTAL RUN TIME: 0 days 0 hours 2 minutes 23 seconds 591 msec
