                         Program Version 4.2.1 -  RELEASE  -
|  1> %pal
|  2>  nprocs 32
|  3> end
|  4> !RI-MP2 aug-cc-pVTZ aug-cc-pVTZ/C TightSCF
|  5> %maxcore 4500
|  6> *xyzfile 0 1  10_42R.xyz
|  7>
|  8>
|  9>                          ****END OF INPUT****

CARTESIAN COORDINATES (ANGSTROEM)
---------------------------------
  C     -0.456918    2.060901   -0.341823
  H     -0.444960    3.132828   -0.139748
  H     -0.698086    1.924127   -1.414299
  C     -1.526080    1.395355    0.486033
  C     -0.096378   -0.605530    0.665271
  H      0.227215   -0.389768    1.688581
  H     -0.046012   -1.679153    0.523672
  C      0.900192    0.080714   -0.282885
  H      0.567140   -0.124578   -1.320316
  N      0.857173    1.516969   -0.037591
  C     -2.575259   -0.856399    0.193967
  C     -2.357482    2.103378    1.242735
  C     -3.867795   -0.264045   -0.175421
  C     -5.021053   -0.919805   -0.309136
  C     -1.496549   -0.085766    0.444736
  C     -6.305864   -0.278439   -0.728201
  H     -7.078561   -0.406039    0.036100
  H     -6.177722    0.790625   -0.906942
  H     -6.693192   -0.732432   -1.645505
  C      2.305580   -0.479264   -0.145150
  C      1.923543    2.231389   -0.712125
  H      1.743709    3.302895   -0.604869
  H      1.939882    2.008448   -1.794839
  C      3.247776    1.854359   -0.076872
  H      3.275659    2.255729    0.940612
  C      3.416298    0.358577   -0.039635
  H      4.076855    2.305362   -0.628370
  C      4.687913   -0.200233    0.073809
  H      5.544900    0.460138    0.155779
  C      2.505752   -1.859625   -0.173967
  H      1.658454   -2.523706   -0.293655
  C      4.873492   -1.571220    0.070931
  H      5.870015   -1.986894    0.158871
  C      3.772468   -2.406766   -0.063957
  H      3.900631   -3.482211   -0.087062
  C     -2.540361   -2.361196    0.237104
  H     -2.818803   -2.783959   -0.731779
  H     -3.265911   -2.731250    0.966532
  H     -1.571868   -2.762672    0.518993
  H     -3.109063    1.624620    1.857762
  H     -2.302853    3.185805    1.274999
  H     -5.068316   -1.985368   -0.105093
  H     -3.864972    0.800352   -0.378761

 Total Charge           Charge          ....    0
 Multiplicity           Mult            ....    1
 Number of Electrons    NEL             ....  144
 Basis Dimension        Dim             .... 1449

ORBITAL ENERGIES
----------------

  NO   OCC          E(Eh)            E(eV)
   0   2.0000     -15.548014      -423.0830
   1   2.0000     -11.262388      -306.4652
   2   2.0000     -11.252978      -306.2091
   3   2.0000     -11.249456      -306.1133
   4   2.0000     -11.236034      -305.7480
   5   2.0000     -11.235371      -305.7300
   6   2.0000     -11.235293      -305.7279
   7   2.0000     -11.234013      -305.6930
   8   2.0000     -11.231660      -305.6290
   9   2.0000     -11.228919      -305.5544
  10   2.0000     -11.228320      -305.5381
  11   2.0000     -11.227039      -305.5033
  12   2.0000     -11.226095      -305.4776
  13   2.0000     -11.224404      -305.4316
  14   2.0000     -11.223805      -305.4152
  15   2.0000     -11.221754      -305.3594
  16   2.0000     -11.218193      -305.2626
  17   2.0000     -11.216915      -305.2278
  18   2.0000     -11.216889      -305.2271
  19   2.0000     -11.215836      -305.1984
  20   2.0000      -1.254018       -34.1236
  21   2.0000      -1.156312       -31.4649
  22   2.0000      -1.131200       -30.7815
  23   2.0000      -1.080812       -29.4104
  24   2.0000      -1.062442       -28.9105
  25   2.0000      -1.052683       -28.6450
  26   2.0000      -1.025527       -27.9060
  27   2.0000      -0.999839       -27.2070
  28   2.0000      -0.973473       -26.4896
  29   2.0000      -0.932032       -25.3619
  30   2.0000      -0.925314       -25.1791
  31   2.0000      -0.896230       -24.3877
  32   2.0000      -0.857294       -23.3282
  33   2.0000      -0.834298       -22.7024
  34   2.0000      -0.809855       -22.0373
  35   2.0000      -0.790749       -21.5174
  36   2.0000      -0.754796       -20.5391
  37   2.0000      -0.741610       -20.1802
  38   2.0000      -0.696246       -18.9458
  39   2.0000      -0.691174       -18.8078
  40   2.0000      -0.660080       -17.9617
  41   2.0000      -0.657812       -17.9000
  42   2.0000      -0.638999       -17.3880
  43   2.0000      -0.631772       -17.1914
  44   2.0000      -0.619674       -16.8622
  45   2.0000      -0.607138       -16.5211
  46   2.0000      -0.599134       -16.3033
  47   2.0000      -0.590126       -16.0581
  48   2.0000      -0.587655       -15.9909
  49   2.0000      -0.572363       -15.5748
  50   2.0000      -0.570898       -15.5349
  51   2.0000      -0.561904       -15.2902
  52   2.0000      -0.558321       -15.1927
  53   2.0000      -0.546836       -14.8802
  54   2.0000      -0.546127       -14.8609
  55   2.0000      -0.540282       -14.7018
  56   2.0000      -0.527228       -14.3466
  57   2.0000      -0.517886       -14.0924
  58   2.0000      -0.514941       -14.0123
  59   2.0000      -0.509862       -13.8740
  60   2.0000      -0.499613       -13.5952
  61   2.0000      -0.490899       -13.3580
  62   2.0000      -0.477717       -12.9993
  63   2.0000      -0.461400       -12.5553
  64   2.0000      -0.454909       -12.3787
  65   2.0000      -0.446658       -12.1542
  66   2.0000      -0.403828       -10.9887
  67   2.0000      -0.367231        -9.9929
  68   2.0000      -0.359419        -9.7803
  69   2.0000      -0.327864        -8.9216
  70   2.0000      -0.320877        -8.7315
  71   2.0000      -0.291755        -7.9391
  72   0.0000       0.024835         0.6758
  73   0.0000       0.027875         0.7585
  74   0.0000       0.028668         0.7801
  75   0.0000       0.034843         0.9481
  76   0.0000       0.035835         0.9751

MULLIKEN ATOMIC CHARGES
-----------------------
   0 C :   -0.820388
   1 H :    0.445805
   2 H :    0.178874
   3 C :    0.557250
   4 C :   -1.054983
   5 H :    0.078963
   6 H :    0.384490
   7 C :    0.360748
   8 H :    0.261280
   9 N :   -0.262739
  10 C :    1.369049
  11 C :   -1.827029
  12 C :   -0.181505
  13 C :   -0.633660
  14 C :    0.678865
  15 C :   -0.909561
  16 H :    0.247240
  17 H :    0.318401
  18 H :    0.256546
  19 C :    1.353905
  20 C :   -0.760636
  21 H :    0.357426
  22 H :    0.218719
  23 C :   -0.602305
  24 H :    0.186123
  25 C :    1.148194
  26 H :    0.214202
  27 C :   -1.121388
  28 H :    0.110987
  29 C :   -1.174890
  30 H :    0.124186
  31 C :   -0.335729
  32 H :    0.577790
  33 C :   -0.801805
  34 H :    0.492076
  35 C :   -1.208328
  36 H :    0.212587
  37 H :    0.153784
  38 H :    0.380290
  39 H :    0.458111
  40 H :    0.224214
  41 H :    0.239035
  42 H :    0.105806
Sum of atomic charges:    0.0000000

LOEWDIN ATOMIC CHARGES
----------------------
   0 C :    0.165890
   1 H :   -0.153334
   2 H :   -0.113680
   3 C :   -0.113969
   4 C :    0.320425
   5 H :   -0.112056
   6 H :   -0.216033
   7 C :   -0.105180
   8 H :   -0.106106
   9 N :    0.313174
  10 C :   -0.066047
  11 C :    0.563020
  12 C :    0.204872
  13 C :    0.218808
  14 C :   -0.035668
  15 C :    0.557289
  16 H :   -0.175943
  17 H :   -0.181541
  18 H :   -0.175705
  19 C :   -0.033364
  20 C :    0.168483
  21 H :   -0.139582
  22 H :   -0.113558
  23 C :    0.300226
  24 H :   -0.131611
  25 C :   -0.067648
  26 H :   -0.142988
  27 C :    0.221815
  28 H :   -0.172618
  29 C :    0.227909
  30 H :   -0.183059
  31 C :    0.198983
  32 H :   -0.182863
  33 C :    0.204728
  34 H :   -0.182818
  35 C :    0.578335
  36 H :   -0.154034
  37 H :   -0.164699
  38 H :   -0.200306
  39 H :   -0.200305
  40 H :   -0.203982
  41 H :   -0.197706
  42 H :   -0.217557

  Mayer bond orders larger than 0.100000
B(  0-C ,  1-H ) :   0.8886 B(  0-C ,  2-H ) :   1.0665 B(  0-C ,  3-C ) :   0.9711
B(  0-C ,  9-N ) :   0.8319 B(  0-C , 11-C ) :   0.2139 B(  1-H ,  9-N ) :  -0.1425
B(  2-H ,  3-C ) :   0.1359 B(  3-C ,  4-C ) :   0.2712 B(  3-C , 10-C ) :   0.1502
B(  3-C , 11-C ) :   0.6636 B(  3-C , 14-C ) :   0.7734 B(  3-C , 42-H ) :  -0.1682
B(  4-C ,  5-H ) :   1.2554 B(  4-C ,  6-H ) :   0.8796 B(  4-C ,  7-C ) :   0.6449
B(  4-C , 10-C ) :  -0.2256 B(  4-C , 12-C ) :  -0.1663 B(  4-C , 14-C ) :   1.3651
B(  4-C , 19-C ) :   0.1654 B(  4-C , 25-C ) :  -0.1222 B(  4-C , 29-C ) :   0.1444
B(  4-C , 35-C ) :   0.2684 B(  4-C , 39-H ) :  -0.1079 B(  6-H , 29-C ) :  -0.1603
B(  6-H , 35-C ) :   0.1178 B(  7-C ,  8-H ) :   0.9559 B(  7-C ,  9-N ) :   0.8258
B(  7-C , 19-C ) :   0.8533 B(  7-C , 23-C ) :  -0.1654 B(  7-C , 25-C ) :   0.2151
B(  7-C , 29-C ) :   0.5771 B(  8-H ,  9-N ) :  -0.1308 B(  9-N , 11-C ) :  -0.1290
B(  9-N , 19-C ) :  -0.2092 B(  9-N , 20-C ) :   1.0260 B(  9-N , 23-C ) :  -0.1126
B(  9-N , 25-C ) :  -0.1166 B( 10-C , 11-C ) :   0.4880 B( 10-C , 12-C ) :  -0.3652
B( 10-C , 13-C ) :   0.4744 B( 10-C , 14-C ) :   1.2896 B( 10-C , 35-C ) :   0.3908
B( 10-C , 36-H ) :  -0.1298 B( 10-C , 37-H ) :  -0.1487 B( 10-C , 39-H ) :   0.2911
B( 10-C , 41-H ) :  -0.1947 B( 11-C , 14-C ) :  -0.5851 B( 11-C , 39-H ) :   0.8222
B( 11-C , 40-H ) :   1.1515 B( 11-C , 42-H ) :  -0.1155 B( 12-C , 13-C ) :   0.4276
B( 12-C , 14-C ) :   0.6526 B( 12-C , 41-H ) :  -0.1696 B( 12-C , 42-H ) :   1.3605
B( 13-C , 15-C ) :   0.5905 B( 13-C , 41-H ) :   1.2592 B( 14-C , 35-C ) :  -0.2048
B( 14-C , 41-H ) :   0.1885 B( 15-C , 16-H ) :   1.0581 B( 15-C , 17-H ) :   0.9185
B( 15-C , 18-H ) :   1.0118 B( 19-C , 23-C ) :   0.2769 B( 19-C , 25-C ) :   0.8363
B( 19-C , 27-C ) :   0.4987 B( 19-C , 29-C ) :  -0.1597 B( 19-C , 33-C ) :  -0.1034
B( 20-C , 21-H ) :   0.8655 B( 20-C , 22-H ) :   1.0722 B( 20-C , 23-C ) :   1.0508
B( 20-C , 25-C ) :   0.1634 B( 23-C , 24-H ) :   1.1439 B( 23-C , 26-H ) :   1.1357
B( 23-C , 29-C ) :  -0.1143 B( 24-H , 25-C ) :  -0.1186 B( 25-C , 27-C ) :   0.3983
B( 25-C , 29-C ) :  -0.4319 B( 25-C , 31-C ) :   0.1960 B( 27-C , 28-H ) :   1.3914
B( 27-C , 31-C ) :   0.8858 B( 28-H , 31-C ) :  -0.1147 B( 29-C , 30-H ) :   1.4995
B( 29-C , 33-C ) :   1.3631 B( 31-C , 32-H ) :   0.5916 B( 31-C , 33-C ) :   1.0749
B( 32-H , 33-C ) :  -0.1222 B( 33-C , 34-H ) :   0.6882 B( 35-C , 36-H ) :   1.1726
B( 35-C , 37-H ) :   1.2516 B( 35-C , 38-H ) :   0.8071

MP2 TOTAL ENERGY:     -790.906584554 Eh
FINAL SINGLE POINT ENERGY      -790.906584553858

DIPOLE MOMENT
-------------
                                X             Y             Z
Electronic contribution:     14.53473      -0.15427       1.67460
Nuclear contribution   :    -14.60311       0.21583      -1.96622
                        -----------------------------------------
Total Dipole Moment    :     -0.06838       0.06156      -0.29162
                        -----------------------------------------
Magnitude (a.u.)       :      0.30579
Magnitude (Debye)      :      0.77727

Rotational constants in cm-1:     0.024956     0.005952     0.005005
Rotational constants in MHz :   748.169355   178.429639   150.058121

                             ****ORCA TERMINATED NORMALLY****
TOTAL RUN TIME: 0 days 1 hours 2 minutes 17 seconds 268 msec
