                         Program Version 4.2.1 -  RELEASE  -
|  1> %pal
|  2>  nprocs 32
|  3> end
|  4> !RI-MP2 aug-cc-pVTZ aug-cc-pVTZ/C TightSCF
|  5> %maxcore 4500
|  6> *xyzfile 0 2  01_23R.xyz
|  7>
|  8>
|  9>                          ****END OF INPUT****

CARTESIAN COORDINATES (ANGSTROEM)
---------------------------------
  C     -0.032803   -1.179687   -0.308029
  C     -0.582751    0.223476   -0.240587
  C      1.362941   -1.297987    0.298353
  C      2.253943   -0.154348   -0.175725
  C      1.675567    1.190243    0.260636
  C      0.192681    1.271210    0.025959
  C     -2.909826   -0.231497    0.581093
  C     -2.063213    0.368960   -0.488261
  H     -0.015937   -1.499535   -1.358356
  H     -0.726243   -1.859736    0.196401
  H      1.803643   -2.264975    0.043241
  H      1.286119   -1.263027    1.390700
  H      2.318841   -0.182099   -1.269024
  H      3.271521   -0.270442    0.205468
  H      2.174186    2.006802   -0.270612
  H      1.883587    1.359110    1.324932
  H     -3.921424   -0.557125    0.375077
  H     -2.574178   -0.222262    1.610786
  H     -2.300263    1.438266   -0.595355
  H     -2.319257   -0.085555   -1.453747
  H     -0.259830    2.258351    0.079849

 Total Charge           Charge          ....    0
 Multiplicity           Mult            ....    2
 Number of Electrons    NEL             ....   61
 Basis Dimension        Dim             ....  667

ORBITAL ENERGIES
----------------
                 SPIN UP ORBITALS
  NO   OCC          E(Eh)            E(eV)
   0   1.0000     -11.227724      -305.5219
   1   1.0000     -11.223857      -305.4167
   2   1.0000     -11.223138      -305.3971
   3   1.0000     -11.217588      -305.2461
   4   1.0000     -11.216855      -305.2262
   5   1.0000     -11.214289      -305.1563
   6   1.0000     -11.213603      -305.1377
   7   1.0000     -11.210181      -305.0445
   8   1.0000      -1.128858       -30.7178
   9   1.0000      -1.057863       -28.7859
  10   1.0000      -1.000152       -27.2155
  11   1.0000      -0.978726       -26.6325
  12   1.0000      -0.860060       -23.4034
  13   1.0000      -0.834640       -22.7117
  14   1.0000      -0.793336       -21.5878
  15   1.0000      -0.690892       -18.8001
  16   1.0000      -0.653707       -17.7883
  17   1.0000      -0.609863       -16.5952
  18   1.0000      -0.606524       -16.5044
  19   1.0000      -0.593426       -16.1479
  20   1.0000      -0.580103       -15.7854
  21   1.0000      -0.549915       -14.9639
  22   1.0000      -0.531750       -14.4697
  23   1.0000      -0.520729       -14.1698
  24   1.0000      -0.515196       -14.0192
  25   1.0000      -0.503633       -13.7046
  26   1.0000      -0.462594       -12.5878
  27   1.0000      -0.447401       -12.1744
  28   1.0000      -0.431941       -11.7537
  29   1.0000      -0.349246        -9.5035
  30   1.0000      -0.333372        -9.0715
  31   0.0000       0.030515         0.8304
  32   0.0000       0.033331         0.9070
  33   0.0000       0.035329         0.9613
  34   0.0000       0.037599         1.0231
  35   0.0000       0.047013         1.2793

                 SPIN DOWN ORBITALS
  NO   OCC          E(Eh)            E(eV)
   0   1.0000     -11.226708      -305.4943
   1   1.0000     -11.221153      -305.3431
   2   1.0000     -11.217353      -305.2397
   3   1.0000     -11.216937      -305.2284
   4   1.0000     -11.214292      -305.1564
   5   1.0000     -11.213611      -305.1379
   6   1.0000     -11.212105      -305.0969
   7   1.0000     -11.204063      -304.8781
   8   1.0000      -1.126449       -30.6522
   9   1.0000      -1.044703       -28.4278
  10   1.0000      -1.001296       -27.2467
  11   1.0000      -0.953947       -25.9582
  12   1.0000      -0.846797       -23.0425
  13   1.0000      -0.815500       -22.1909
  14   1.0000      -0.774633       -21.0788
  15   1.0000      -0.689356       -18.7583
  16   1.0000      -0.650428       -17.6990
  17   1.0000      -0.607588       -16.5333
  18   1.0000      -0.593697       -16.1553
  19   1.0000      -0.584959       -15.9175
  20   1.0000      -0.578616       -15.7449
  21   1.0000      -0.543949       -14.8016
  22   1.0000      -0.528366       -14.3776
  23   1.0000      -0.514865       -14.0102
  24   1.0000      -0.507499       -13.8097
  25   1.0000      -0.496807       -13.5188
  26   1.0000      -0.462159       -12.5760
  27   1.0000      -0.446664       -12.1543
  28   1.0000      -0.430223       -11.7070
  29   1.0000      -0.333322        -9.0702
  30   0.0000       0.030642         0.8338
  31   0.0000       0.033560         0.9132
  32   0.0000       0.035159         0.9567
  33   0.0000       0.037829         1.0294
  34   0.0000       0.047027         1.2797

MULLIKEN ATOMIC CHARGES AND SPIN POPULATIONS
--------------------------------------------
   0 C :   -0.408703   -0.014150
   1 C :    1.094780    0.152326
   2 C :   -0.557931    0.001981
   3 C :   -0.531993   -0.001453
   4 C :   -0.154526    0.018964
   5 C :   -1.267710   -0.112212
   6 C :   -1.093821    1.263522
   7 C :   -0.253617   -0.229347
   8 H :    0.224856    0.003690
   9 H :    0.317084   -0.013958
  10 H :    0.295885    0.000173
  11 H :    0.164534   -0.000127
  12 H :    0.195464    0.000516
  13 H :    0.268450    0.000115
  14 H :    0.310512   -0.003565
  15 H :    0.239357   -0.004769
  16 H :    0.369628   -0.083978
  17 H :    0.379004   -0.072281
  18 H :    0.234540    0.068831
  19 H :    0.175970    0.017570
  20 H :   -0.001764    0.008152
Sum of atomic charges         :   -0.0000000

LOEWDIN ATOMIC CHARGES AND SPIN POPULATIONS
-------------------------------------------
   0 C :    0.278458    0.015664
   1 C :   -0.094893    0.036720
   2 C :    0.286274    0.000896
   3 C :    0.280368   -0.000101
   4 C :    0.267733   -0.008055
   5 C :    0.260010   -0.028435
   6 C :    0.596029    0.566526
   7 C :    0.203353    0.131410
   8 H :   -0.134047    0.002309
   9 H :   -0.149404    0.010430
  10 H :   -0.140249    0.000048
  11 H :   -0.136731    0.000104
  12 H :   -0.138393   -0.000021
  13 H :   -0.141229    0.000061
  14 H :   -0.151236   -0.001072
  15 H :   -0.145899   -0.001991
  16 H :   -0.224636    0.121634
  17 H :   -0.217754    0.120113
  18 H :   -0.166384    0.031358
  19 H :   -0.155012    0.008875
  20 H :   -0.176358   -0.006472

  Mayer bond orders larger than 0.100000
B(  0-C ,  1-C ) :   0.6645 B(  0-C ,  2-C ) :   0.9484 B(  0-C ,  8-H ) :   1.0048
B(  0-C ,  9-H ) :   0.9310 B(  1-C ,  4-C ) :   0.1158 B(  1-C ,  5-C ) :   0.7549
B(  1-C ,  7-C ) :   0.8026 B(  1-C , 20-H ) :  -0.3054 B(  2-C ,  3-C ) :   0.9040
B(  2-C , 10-H ) :   0.9285 B(  2-C , 11-H ) :   1.0529 B(  3-C ,  4-C ) :   0.9147
B(  3-C ,  5-C ) :   0.1318 B(  3-C , 12-H ) :   1.0134 B(  3-C , 13-H ) :   0.9619
B(  4-C ,  5-C ) :   0.5623 B(  4-C , 14-H ) :   0.9875 B(  4-C , 15-H ) :   1.0021
B(  5-C , 14-H ) :  -0.1737 B(  5-C , 20-H ) :   1.5778 B(  6-C ,  7-C ) :   0.7549
B(  6-C , 16-H ) :   0.8507 B(  6-C , 17-H ) :   0.8739 B(  7-C , 18-H ) :   0.9259
B(  7-C , 19-H ) :   1.0617

MP2 TOTAL ENERGY:     -311.906746587 Eh
FINAL SINGLE POINT ENERGY      -311.906746586651

DIPOLE MOMENT
-------------
                                X             Y             Z
Electronic contribution:     -0.59763       1.15223      -0.33811
Nuclear contribution   :      0.65130      -1.19840       0.29310
                        -----------------------------------------
Total Dipole Moment    :      0.05366      -0.04618      -0.04501
                        -----------------------------------------
Magnitude (a.u.)       :      0.08389
Magnitude (Debye)      :      0.21324

Rotational constants in cm-1:     0.133460     0.046688     0.038301
Rotational constants in MHz :  4001.021924  1399.659448  1148.245496

                             ****ORCA TERMINATED NORMALLY****
TOTAL RUN TIME: 0 days 0 hours 12 minutes 32 seconds 484 msec
