                         Program Version 4.2.1 -  RELEASE  -
|  1> %pal
|  2>  nprocs 32
|  3> end
|  4> !RI-MP2 aug-cc-pVTZ aug-cc-pVTZ/C TightSCF
|  5> %maxcore 4500
|  6> *xyzfile 0 1  10_76TS.xyz
|  7>
|  8>
|  9>                          ****END OF INPUT****

CARTESIAN COORDINATES (ANGSTROEM)
---------------------------------
  C     -0.481370   -1.341382    0.137182
  C     -1.696843   -1.296350   -0.443535
  C      0.720345   -0.868066   -0.465978
  C      1.988226   -1.021535    0.109240
  C      2.890891    0.734569    0.623677
  C      3.203574   -1.471110   -0.672027
  H      1.957083   -1.470346    1.103953
  C     -2.223206    1.257435    0.424254
  C     -1.201862    1.785883   -0.276574
  H     -2.000705    0.807483    1.387753
  C     -3.673510    1.356557    0.071002
  C      0.156298    1.611863    0.107236
  C      1.245348    2.100018   -0.592636
  C      2.545172    1.694510   -0.340077
  C      4.332768    0.263702    0.670096
  H      2.359616    0.767366    1.568809
  C      4.422160   -1.203527    0.202039
  H      3.261613   -0.916670   -1.613968
  H      3.127294   -2.533297   -0.925259
  H      5.362176   -1.404244   -0.315921
  H      4.386412   -1.875736    1.065018
  H      4.757277    0.379684    1.669701
  H      4.924724    0.892476    0.000828
  C     -2.948558   -1.906160    0.110364
  H     -1.764598   -0.915005   -1.459577
  C     -4.510625    0.146808    0.496319
  H     -3.785377    1.531931   -1.004007
  H     -4.091817    2.241229    0.568339
  C     -4.244125   -1.166363   -0.242504
  H     -5.564460    0.404469    0.356383
  H     -4.381422   -0.015276    1.573275
  H     -2.863243   -2.013900    1.197259
  H     -3.036220   -2.926245   -0.285679
  H     -4.269478   -0.985266   -1.323834
  H     -5.079595   -1.840446   -0.032395
  H     -0.400860   -1.742521    1.147080
  H      0.662140   -0.574143   -1.509446
  H     -1.402011    2.267840   -1.231690
  H      0.323970    1.150379    1.071824
  H      1.057803    2.716798   -1.467268
  H      3.311579    1.992331   -1.049630

 Total Charge           Charge          ....    0
 Multiplicity           Mult            ....    1
 Number of Electrons    NEL             ....  126
 Basis Dimension        Dim             .... 1334

ORBITAL ENERGIES
----------------

  NO   OCC          E(Eh)            E(eV)
   0   2.0000     -11.234371      -305.7028
   1   2.0000     -11.229183      -305.5616
   2   2.0000     -11.228813      -305.5515
   3   2.0000     -11.226829      -305.4976
   4   2.0000     -11.225839      -305.4706
   5   2.0000     -11.224154      -305.4248
   6   2.0000     -11.222872      -305.3899
   7   2.0000     -11.221458      -305.3514
   8   2.0000     -11.221100      -305.3417
   9   2.0000     -11.220013      -305.3121
  10   2.0000     -11.217884      -305.2541
  11   2.0000     -11.217709      -305.2494
  12   2.0000     -11.215324      -305.1845
  13   2.0000     -11.214493      -305.1619
  14   2.0000     -11.213556      -305.1364
  15   2.0000     -11.213446      -305.1334
  16   2.0000     -11.208136      -304.9889
  17   2.0000      -1.127878       -30.6911
  18   2.0000      -1.106547       -30.1107
  19   2.0000      -1.088903       -29.6306
  20   2.0000      -1.066885       -29.0314
  21   2.0000      -1.049049       -28.5461
  22   2.0000      -1.006719       -27.3942
  23   2.0000      -0.990897       -26.9637
  24   2.0000      -0.938307       -25.5326
  25   2.0000      -0.927628       -25.2421
  26   2.0000      -0.859097       -23.3772
  27   2.0000      -0.848219       -23.0812
  28   2.0000      -0.782995       -21.3064
  29   2.0000      -0.781586       -21.2680
  30   2.0000      -0.764306       -20.7978
  31   2.0000      -0.754167       -20.5219
  32   2.0000      -0.747433       -20.3387
  33   2.0000      -0.708902       -19.2902
  34   2.0000      -0.652110       -17.7448
  35   2.0000      -0.643466       -17.5096
  36   2.0000      -0.637351       -17.3432
  37   2.0000      -0.623297       -16.9608
  38   2.0000      -0.618673       -16.8350
  39   2.0000      -0.616161       -16.7666
  40   2.0000      -0.595551       -16.2058
  41   2.0000      -0.589176       -16.0323
  42   2.0000      -0.568117       -15.4593
  43   2.0000      -0.557122       -15.1601
  44   2.0000      -0.545645       -14.8478
  45   2.0000      -0.538988       -14.6666
  46   2.0000      -0.520006       -14.1501
  47   2.0000      -0.511920       -13.9300
  48   2.0000      -0.503809       -13.7093
  49   2.0000      -0.502200       -13.6656
  50   2.0000      -0.490481       -13.3467
  51   2.0000      -0.483383       -13.1535
  52   2.0000      -0.475315       -12.9340
  53   2.0000      -0.470738       -12.8094
  54   2.0000      -0.467802       -12.7296
  55   2.0000      -0.466463       -12.6931
  56   2.0000      -0.462583       -12.5875
  57   2.0000      -0.460338       -12.5264
  58   2.0000      -0.453194       -12.3320
  59   2.0000      -0.392011       -10.6672
  60   2.0000      -0.373854       -10.1731
  61   2.0000      -0.278807        -7.5867
  62   2.0000      -0.231576        -6.3015
  63   0.0000       0.027191         0.7399
  64   0.0000       0.029104         0.7920
  65   0.0000       0.030246         0.8230
  66   0.0000       0.033581         0.9138
  67   0.0000       0.038879         1.0580

MULLIKEN ATOMIC CHARGES
-----------------------
   0 C :   -0.059757
   1 C :    0.227204
   2 C :   -0.165468
   3 C :    0.517367
   4 C :    0.378381
   5 C :   -0.713388
   6 H :    0.285977
   7 C :    0.258091
   8 C :   -0.786737
   9 H :   -0.035464
  10 C :   -0.371206
  11 C :    0.923083
  12 C :   -0.465261
  13 C :   -0.760873
  14 C :   -0.802394
  15 H :    0.592283
  16 C :   -0.664149
  17 H :    0.132885
  18 H :    0.371440
  19 H :    0.424766
  20 H :    0.074678
  21 H :    0.275608
  22 H :    0.144513
  23 C :   -0.255513
  24 H :   -0.226688
  25 C :   -0.436974
  26 H :    0.159474
  27 H :    0.325062
  28 C :   -0.479517
  29 H :    0.264205
  30 H :    0.137580
  31 H :    0.166752
  32 H :    0.347350
  33 H :    0.136446
  34 H :    0.239586
  35 H :   -0.157932
  36 H :   -0.206814
  37 H :   -0.203024
  38 H :   -0.056572
  39 H :    0.177605
  40 H :    0.287395
Sum of atomic charges:    0.0000000

LOEWDIN ATOMIC CHARGES
----------------------
   0 C :    0.175666
   1 C :    0.200828
   2 C :    0.190682
   3 C :    0.122472
   4 C :    0.126861
   5 C :    0.269726
   6 H :   -0.155350
   7 C :    0.204364
   8 C :    0.188921
   9 H :   -0.164255
  10 C :    0.271303
  11 C :    0.153589
  12 C :    0.185347
  13 C :    0.193329
  14 C :    0.300550
  15 H :   -0.168634
  16 C :    0.298120
  17 H :   -0.137038
  18 H :   -0.135042
  19 H :   -0.140556
  20 H :   -0.145752
  21 H :   -0.141494
  22 H :   -0.162027
  23 C :    0.266166
  24 H :   -0.161098
  25 C :    0.285274
  26 H :   -0.146169
  27 H :   -0.142527
  28 C :    0.286994
  29 H :   -0.146024
  30 H :   -0.142048
  31 H :   -0.147952
  32 H :   -0.144781
  33 H :   -0.141810
  34 H :   -0.147271
  35 H :   -0.165276
  36 H :   -0.158013
  37 H :   -0.167346
  38 H :   -0.196409
  39 H :   -0.178589
  40 H :   -0.184729

  Mayer bond orders larger than 0.100000
B(  0-C ,  1-C ) :   1.0882 B(  0-C ,  2-C ) :   0.7620 B(  0-C ,  3-C ) :   0.1790
B(  0-C , 24-H ) :  -0.1659 B(  0-C , 35-H ) :   1.6587 B(  1-C ,  2-C ) :   0.1657
B(  1-C ,  3-C ) :   0.3012 B(  1-C , 23-C ) :   0.3730 B(  1-C , 24-H ) :   1.5373
B(  1-C , 32-H ) :  -0.1307 B(  1-C , 35-H ) :  -0.2364 B(  1-C , 36-H ) :  -0.1797
B(  2-C ,  3-C ) :   1.0089 B(  2-C , 11-C ) :   0.2331 B(  2-C , 13-C ) :   0.2319
B(  2-C , 24-H ) :  -0.1740 B(  2-C , 36-H ) :   1.5013 B(  3-C ,  4-C ) :   0.2347
B(  3-C ,  5-C ) :   0.5143 B(  3-C ,  6-H ) :   0.9971 B(  3-C , 16-C ) :  -0.2218
B(  3-C , 36-H ) :  -0.2053 B(  4-C , 12-C ) :  -0.1454 B(  4-C , 13-C ) :   1.2176
B(  4-C , 14-C ) :   1.0224 B(  4-C , 15-H ) :   0.6308 B(  5-C , 16-C ) :   1.1474
B(  5-C , 17-H ) :   1.1704 B(  5-C , 18-H ) :   0.8451 B(  6-H , 16-C ) :  -0.1195
B(  6-H , 36-H ) :   0.1570 B(  7-C ,  8-C ) :   1.1422 B(  7-C ,  9-H ) :   1.3507
B(  7-C , 10-C ) :   0.4411 B(  7-C , 12-C ) :   0.3575 B(  7-C , 27-H ) :  -0.1560
B(  7-C , 37-H ) :  -0.1593 B(  7-C , 38-H ) :  -0.1360 B(  7-C , 40-H ) :   0.1740
B(  8-C , 11-C ) :   0.1218 B(  8-C , 37-H ) :   2.0225 B(  8-C , 38-H ) :  -0.1765
B(  9-H , 11-C ) :  -0.2719 B(  9-H , 13-C ) :   0.1263 B(  9-H , 24-H ) :   0.2465
B(  9-H , 37-H ) :   0.1828 B(  9-H , 38-H ) :  -0.1001 B( 10-C , 25-C ) :   0.9119
B( 10-C , 26-H ) :   1.0849 B( 10-C , 27-H ) :   0.9758 B( 11-C , 12-C ) :   1.0414
B( 11-C , 37-H ) :  -0.3061 B( 11-C , 38-H ) :   1.7889 B( 11-C , 39-H ) :  -0.1070
B( 12-C , 13-C ) :   0.9607 B( 12-C , 37-H ) :  -0.1439 B( 12-C , 38-H ) :  -0.2953
B( 12-C , 39-H ) :   1.1819 B( 12-C , 40-H ) :  -0.1142 B( 13-C , 38-H ) :   0.1610
B( 13-C , 40-H ) :   0.9686 B( 14-C , 15-H ) :  -0.1685 B( 14-C , 16-C ) :   0.9395
B( 14-C , 21-H ) :   0.9846 B( 14-C , 22-H ) :   1.1615 B( 15-H , 38-H ) :  -0.1005
B( 16-C , 19-H ) :   0.8160 B( 16-C , 20-H ) :   1.1969 B( 23-C , 28-C ) :   0.9062
B( 23-C , 31-H ) :   1.0868 B( 23-C , 32-H ) :   0.9409 B( 24-H , 35-H ) :   0.2205
B( 25-C , 28-C ) :   0.8981 B( 25-C , 29-H ) :   0.9630 B( 25-C , 30-H ) :   1.0709
B( 28-C , 33-H ) :   1.0890 B( 28-C , 34-H ) :   0.9886 B( 38-H , 39-H ) :   0.1099
B( 38-H , 40-H ) :  -0.2157

MP2 TOTAL ENERGY:     -660.718522689 Eh
FINAL SINGLE POINT ENERGY      -660.718522688667

DIPOLE MOMENT
-------------
                                X             Y             Z
Electronic contribution:      2.93780       3.80703      -0.47342
Nuclear contribution   :     -3.26193      -4.20796       0.50932
                        -----------------------------------------
Total Dipole Moment    :     -0.32413      -0.40093       0.03590
                        -----------------------------------------
Magnitude (a.u.)       :      0.51681
Magnitude (Debye)      :      1.31363

Rotational constants in cm-1:     0.033537     0.008290     0.007013
Rotational constants in MHz :  1005.421649   248.533494   210.243881

                             ****ORCA TERMINATED NORMALLY****
TOTAL RUN TIME: 0 days 0 hours 49 minutes 0 seconds 871 msec
