                         Program Version 4.2.1 -  RELEASE  -
|  1> %pal
|  2>  nprocs 32
|  3> end
|  4> !RI-MP2 aug-cc-pVTZ aug-cc-pVTZ/C TightSCF
|  5> %maxcore 4500
|  6> *xyzfile 0 1  02_44TS.xyz
|  7>
|  8>
|  9>                          ****END OF INPUT****

CARTESIAN COORDINATES (ANGSTROEM)
---------------------------------
  C     -0.907374    1.217133   -0.455359
  C     -0.474402    1.510775    0.810110
  C     -0.680469   -0.781424    0.951898
  C     -0.370654    0.374869    1.634761
  H     -0.811023   -1.755439    1.404689
  H      0.005516    0.394594    2.648853
  H     -0.164765    2.502450    1.114696
  H     -1.151325    1.933297   -1.226837
  S     -1.717344   -0.398406   -0.507970
  C      2.723605    0.292868    0.264588
  C      1.002059    0.027283   -1.207256
  C      0.930476   -1.114414   -0.421100
  C      2.173034   -1.129107    0.448433
  H      2.535174    0.928236    1.128204
  H      0.614729    0.163131   -2.203950
  H      0.523742   -2.029759   -0.824724
  H      2.876538   -1.878998    0.078645
  H      1.969274   -1.350090    1.496363
  H      3.786690    0.322303    0.026986
  O     -3.153259   -0.258251   -0.093224
  O      2.017673    0.852860   -0.865759

 Total Charge           Charge          ....    0
 Multiplicity           Mult            ....    1
 Number of Electrons    NEL             ....   90
 Basis Dimension        Dim             ....  740

ORBITAL ENERGIES
----------------

  NO   OCC          E(Eh)            E(eV)
   0   2.0000     -92.066962     -2505.2694
   1   2.0000     -20.595645      -560.4360
   2   2.0000     -20.499344      -557.8155
   3   2.0000     -11.324439      -308.1537
   4   2.0000     -11.299266      -307.4687
   5   2.0000     -11.283246      -307.0327
   6   2.0000     -11.257764      -306.3393
   7   2.0000     -11.256689      -306.3101
   8   2.0000     -11.253085      -306.2120
   9   2.0000     -11.252284      -306.1902
  10   2.0000     -11.239479      -305.8418
  11   2.0000      -9.052157      -246.3217
  12   2.0000      -6.733480      -183.2273
  13   2.0000      -6.733396      -183.2250
  14   2.0000      -6.732097      -183.1897
  15   2.0000      -1.429723       -38.9047
  16   2.0000      -1.325633       -36.0723
  17   2.0000      -1.158708       -31.5300
  18   2.0000      -1.086085       -29.5539
  19   2.0000      -1.025433       -27.9035
  20   2.0000      -0.988393       -26.8955
  21   2.0000      -0.954645       -25.9772
  22   2.0000      -0.847564       -23.0634
  23   2.0000      -0.803600       -21.8671
  24   2.0000      -0.779366       -21.2076
  25   2.0000      -0.747713       -20.3463
  26   2.0000      -0.730833       -19.8870
  27   2.0000      -0.703149       -19.1337
  28   2.0000      -0.691863       -18.8265
  29   2.0000      -0.619153       -16.8480
  30   2.0000      -0.586092       -15.9484
  31   2.0000      -0.581371       -15.8199
  32   2.0000      -0.578832       -15.7508
  33   2.0000      -0.574112       -15.6224
  34   2.0000      -0.561303       -15.2738
  35   2.0000      -0.560043       -15.2396
  36   2.0000      -0.546668       -14.8756
  37   2.0000      -0.541089       -14.7238
  38   2.0000      -0.512636       -13.9495
  39   2.0000      -0.507256       -13.8031
  40   2.0000      -0.455166       -12.3857
  41   2.0000      -0.416052       -11.3214
  42   2.0000      -0.369261       -10.0481
  43   2.0000      -0.345368        -9.3979
  44   2.0000      -0.297874        -8.1056
  45   0.0000       0.020950         0.5701
  46   0.0000       0.028792         0.7835
  47   0.0000       0.030412         0.8276
  48   0.0000       0.034439         0.9371
  49   0.0000       0.043180         1.1750

MULLIKEN ATOMIC CHARGES
-----------------------
   0 C :   -0.221155
   1 C :   -0.517521
   2 C :    0.013223
   3 C :   -0.785755
   4 H :    0.536596
   5 H :    0.342611
   6 H :    0.408210
   7 H :    0.558024
   8 S :    0.543071
   9 C :   -0.345864
  10 C :   -0.448642
  11 C :   -0.217602
  12 C :   -0.482013
  13 H :    0.337239
  14 H :    0.676406
  15 H :    0.562609
  16 H :    0.250170
  17 H :    0.274812
  18 H :    0.354800
  19 O :   -1.036064
  20 O :   -0.803153
Sum of atomic charges:    0.0000000

LOEWDIN ATOMIC CHARGES
----------------------
   0 C :   -0.031653
   1 C :    0.101099
   2 C :   -0.050884
   3 C :    0.106324
   4 H :   -0.194679
   5 H :   -0.174253
   6 H :   -0.163873
   7 H :   -0.219730
   8 S :    0.843704
   9 C :    0.107931
  10 C :   -0.132839
  11 C :    0.075015
  12 C :    0.287593
  13 H :   -0.157802
  14 H :   -0.172987
  15 H :   -0.178457
  16 H :   -0.144319
  17 H :   -0.156516
  18 H :   -0.149375
  19 O :   -0.181512
  20 O :    0.587214

  Mayer bond orders larger than 0.100000
B(  0-C ,  1-C ) :   1.4062 B(  0-C ,  7-H ) :   0.7098 B(  0-C ,  8-S ) :   1.0415
B(  0-C , 10-C ) :   0.3594 B(  1-C ,  3-C ) :   1.2328 B(  1-C ,  6-H ) :   0.9111
B(  2-C ,  3-C ) :   1.3786 B(  2-C ,  4-H ) :   0.7158 B(  2-C ,  8-S ) :   0.9368
B(  2-C , 11-C ) :   0.4017 B(  3-C ,  4-H ) :  -0.1014 B(  3-C ,  5-H ) :   0.9845
B(  3-C ,  8-S ) :   0.1410 B(  3-C , 10-C ) :   0.1067 B(  3-C , 11-C ) :   0.1272
B(  8-S , 19-O ) :   1.0203 B(  9-C , 12-C ) :   0.9967 B(  9-C , 13-H ) :   0.9327
B(  9-C , 18-H ) :   0.9089 B(  9-C , 20-O ) :   0.7829 B( 10-C , 11-C ) :   1.4460
B( 10-C , 12-C ) :   0.1283 B( 10-C , 14-H ) :   0.4981 B( 10-C , 20-O ) :   0.8658
B( 11-C , 12-C ) :   0.8867 B( 11-C , 15-H ) :   0.6792 B( 12-C , 16-H ) :   0.9325
B( 12-C , 17-H ) :   0.9690

MP2 TOTAL ENERGY:     -858.038140991 Eh
FINAL SINGLE POINT ENERGY      -858.038140990619

DIPOLE MOMENT
-------------
                                X             Y             Z
Electronic contribution:     -7.73828       0.45688      -3.34026
Nuclear contribution   :     10.14763      -0.74333       3.61781
                        -----------------------------------------
Total Dipole Moment    :      2.40935      -0.28645       0.27755
                        -----------------------------------------
Magnitude (a.u.)       :      2.44214
Magnitude (Debye)      :      6.20743

Rotational constants in cm-1:     0.068931     0.025555     0.025183
Rotational constants in MHz :  2066.506381   766.123549   754.955807

                             ****ORCA TERMINATED NORMALLY****
TOTAL RUN TIME: 0 days 0 hours 9 minutes 4 seconds 844 msec
