                         Program Version 4.2.1 -  RELEASE  -
|  1> %pal
|  2>  nprocs 32
|  3> end
|  4> !RI-MP2 aug-cc-pVTZ aug-cc-pVTZ/C TightSCF
|  5> %maxcore 4500
|  6> *xyzfile 0 2  01_11P.xyz
|  7>
|  8>
|  9>                          ****END OF INPUT****

CARTESIAN COORDINATES (ANGSTROEM)
---------------------------------
  C      0.315530    1.493620   -0.127760
  C      1.567469    0.688041   -0.021934
  C      1.316513   -0.745123    0.452037
  C      0.236834   -1.432832   -0.384109
  C     -1.056964   -0.647292   -0.445550
  C     -0.988153    0.858736   -0.323657
  C     -1.621987   -0.000283    0.776217
  H      0.387247    2.571006   -0.216141
  H      2.287854    1.185008    0.635743
  H      2.058144    0.644258   -1.009255
  H      1.023505   -0.737116    1.505901
  H      2.242927   -1.321680    0.396139
  H      0.042018   -2.435653    0.008295
  H      0.611416   -1.563019   -1.405742
  H     -1.782067   -1.030850   -1.155147
  H     -1.704879    1.431421   -0.902274
  H     -2.698632    0.050061    0.880241
  H     -1.082989   -0.082642    1.710780

 Total Charge           Charge          ....    0
 Multiplicity           Mult            ....    2
 Number of Electrons    NEL             ....   53
 Basis Dimension        Dim             ....  575

ORBITAL ENERGIES
----------------
                 SPIN UP ORBITALS
  NO   OCC          E(Eh)            E(eV)
   0   1.0000     -11.225443      -305.4598
   1   1.0000     -11.222496      -305.3796
   2   1.0000     -11.219143      -305.2884
   3   1.0000     -11.219005      -305.2846
   4   1.0000     -11.218102      -305.2601
   5   1.0000     -11.216777      -305.2240
   6   1.0000     -11.216158      -305.2072
   7   1.0000      -1.163412       -31.6580
   8   1.0000      -1.056807       -28.7572
   9   1.0000      -1.006035       -27.3756
  10   1.0000      -0.889890       -24.2151
  11   1.0000      -0.829934       -22.5837
  12   1.0000      -0.786359       -21.3979
  13   1.0000      -0.708381       -19.2760
  14   1.0000      -0.682102       -18.5609
  15   1.0000      -0.617640       -16.8068
  16   1.0000      -0.606202       -16.4956
  17   1.0000      -0.579483       -15.7685
  18   1.0000      -0.568431       -15.4678
  19   1.0000      -0.543690       -14.7945
  20   1.0000      -0.510647       -13.8954
  21   1.0000      -0.488422       -13.2906
  22   1.0000      -0.471476       -12.8295
  23   1.0000      -0.454618       -12.3708
  24   1.0000      -0.433678       -11.8010
  25   1.0000      -0.398054       -10.8316
  26   1.0000      -0.295797        -8.0490
  27   0.0000       0.029736         0.8092
  28   0.0000       0.034861         0.9486
  29   0.0000       0.036158         0.9839
  30   0.0000       0.037609         1.0234
  31   0.0000       0.050340         1.3698

                 SPIN DOWN ORBITALS
  NO   OCC          E(Eh)            E(eV)
   0   1.0000     -11.226798      -305.4967
   1   1.0000     -11.224171      -305.4252
   2   1.0000     -11.219774      -305.3056
   3   1.0000     -11.218248      -305.2641
   4   1.0000     -11.215823      -305.1981
   5   1.0000     -11.215252      -305.1825
   6   1.0000     -11.195489      -304.6447
   7   1.0000      -1.154125       -31.4054
   8   1.0000      -1.050281       -28.5796
   9   1.0000      -0.978842       -26.6356
  10   1.0000      -0.868876       -23.6433
  11   1.0000      -0.828487       -22.5443
  12   1.0000      -0.772360       -21.0170
  13   1.0000      -0.696612       -18.9558
  14   1.0000      -0.673385       -18.3237
  15   1.0000      -0.611497       -16.6397
  16   1.0000      -0.600684       -16.3455
  17   1.0000      -0.575150       -15.6506
  18   1.0000      -0.548893       -14.9361
  19   1.0000      -0.536788       -14.6067
  20   1.0000      -0.504476       -13.7275
  21   1.0000      -0.479905       -13.0589
  22   1.0000      -0.465709       -12.6726
  23   1.0000      -0.448909       -12.2154
  24   1.0000      -0.404301       -11.0016
  25   1.0000      -0.392021       -10.6674
  26   0.0000       0.029662         0.8071
  27   0.0000       0.034871         0.9489
  28   0.0000       0.036290         0.9875
  29   0.0000       0.037357         1.0165
  30   0.0000       0.050474         1.3735

MULLIKEN ATOMIC CHARGES AND SPIN POPULATIONS
--------------------------------------------
   0 C :   -0.620405    1.291643
   1 C :   -0.218829   -0.199127
   2 C :   -0.390162    0.032464
   3 C :   -0.385364   -0.014070
   4 C :   -0.128942    0.051246
   5 C :   -0.358105   -0.295263
   6 C :   -1.131738    0.136589
   7 H :    0.348945   -0.123798
   8 H :    0.266703    0.034719
   9 H :    0.199321    0.076089
  10 H :    0.203223    0.001413
  11 H :    0.331036   -0.005309
  12 H :    0.231623    0.002540
  13 H :    0.142244   -0.000289
  14 H :    0.530746   -0.000300
  15 H :    0.309450    0.023260
  16 H :    0.390053    0.004175
  17 H :    0.280200   -0.015981
Sum of atomic charges         :    0.0000000

LOEWDIN ATOMIC CHARGES AND SPIN POPULATIONS
-------------------------------------------
   0 C :    0.319073    0.524873
   1 C :    0.258417    0.113654
   2 C :    0.279526    0.006585
   3 C :    0.305001    0.002227
   4 C :    0.051293    0.022218
   5 C :    0.040140    0.094633
   6 C :    0.396154    0.058848
   7 H :   -0.183897    0.106529
   8 H :   -0.153111    0.011088
   9 H :   -0.143798    0.030579
  10 H :   -0.153902    0.001435
  11 H :   -0.139944    0.000512
  12 H :   -0.139166    0.000867
  13 H :   -0.140714   -0.000039
  14 H :   -0.129320    0.004175
  15 H :   -0.145943    0.002366
  16 H :   -0.153429    0.010996
  17 H :   -0.166380    0.008453

  Mayer bond orders larger than 0.100000
B(  0-C ,  1-C ) :   0.5250 B(  0-C ,  5-C ) :   0.7140 B(  0-C ,  7-H ) :   0.8862
B(  1-C ,  2-C ) :   0.8959 B(  1-C ,  3-C ) :   0.1330 B(  1-C ,  8-H ) :   0.9866
B(  1-C ,  9-H ) :   0.9928 B(  2-C ,  3-C ) :   0.9044 B(  2-C , 10-H ) :   1.0051
B(  2-C , 11-H ) :   0.9306 B(  3-C ,  4-C ) :   0.6140 B(  3-C , 12-H ) :   0.9751
B(  3-C , 13-H ) :   1.0852 B(  4-C ,  5-C ) :   0.6708 B(  4-C ,  6-C ) :   0.7308
B(  4-C , 14-H ) :   0.5790 B(  5-C ,  6-C ) :   1.1709 B(  5-C , 15-H ) :   0.8633
B(  6-C , 14-H ) :  -0.1538 B(  6-C , 16-H ) :   0.7853 B(  6-C , 17-H ) :   0.9670

MP2 TOTAL ENERGY:     -272.675351898 Eh
FINAL SINGLE POINT ENERGY      -272.675351898498

DIPOLE MOMENT
-------------
                                X             Y             Z
Electronic contribution:     -1.42866       1.25648      -0.53622
Nuclear contribution   :      1.44817      -1.34844       0.46915
                        -----------------------------------------
Total Dipole Moment    :      0.01950      -0.09196      -0.06707
                        -----------------------------------------
Magnitude (a.u.)       :      0.11548
Magnitude (Debye)      :      0.29353

Rotational constants in cm-1:     0.132539     0.101002     0.070283
Rotational constants in MHz :  3973.431737  3027.971008  2107.016827

                             ****ORCA TERMINATED NORMALLY****
TOTAL RUN TIME: 0 days 0 hours 5 minutes 7 seconds 187 msec
