                         Program Version 4.2.1 -  RELEASE  -
|  1> %pal
|  2>  nprocs 32
|  3> end
|  4> !RI-MP2 aug-cc-pVTZ aug-cc-pVTZ/C TightSCF
|  5> %maxcore 4500
|  6> *xyzfile -1 1  09_4TS.xyz
|  7>
|  8>
|  9>                          ****END OF INPUT****

CARTESIAN COORDINATES (ANGSTROEM)
---------------------------------
  C     -1.748819    1.141747   -0.373565
  C     -1.222917   -0.188060    0.151598
  C     -0.295167   -0.107935    1.208538
  O     -1.555997   -1.243161   -0.435799
  C      1.483508    0.255754   -0.004787
  H     -2.526207    1.533784    0.290237
  H     -0.933327    1.871354   -0.411925
  H     -2.174313    0.996259   -1.368166
  H     -0.063836   -1.024640    1.742823
  H     -0.196510    0.816510    1.759000
  C      1.734269   -1.172144   -0.308769
  H      2.054302   -1.714057    0.585995
  H      2.526545   -1.253137   -1.062951
  H      0.829791   -1.658614   -0.681751
  C      1.780374    1.457667   -0.134479
  H      2.544043    2.055655   -0.598077

 Total Charge           Charge          ....   -1
 Multiplicity           Mult            ....    1
 Number of Electrons    NEL             ....   54
 Basis Dimension        Dim             ....  529

ORBITAL ENERGIES
----------------

  NO   OCC          E(Eh)            E(eV)
   0   2.0000     -20.320656      -552.9532
   1   2.0000     -11.123715      -302.6917
   2   2.0000     -11.089724      -301.7667
   3   2.0000     -11.079889      -301.4991
   4   2.0000     -11.055801      -300.8436
   5   2.0000     -11.013082      -299.6812
   6   2.0000     -11.011655      -299.6424
   7   2.0000      -1.152980       -31.3742
   8   2.0000      -0.889971       -24.2173
   9   2.0000      -0.842870       -22.9357
  10   2.0000      -0.773432       -21.0462
  11   2.0000      -0.753996       -20.5173
  12   2.0000      -0.538818       -14.6620
  13   2.0000      -0.517853       -14.0915
  14   2.0000      -0.447707       -12.1827
  15   2.0000      -0.446683       -12.1549
  16   2.0000      -0.433031       -11.7834
  17   2.0000      -0.430438       -11.7128
  18   2.0000      -0.420389       -11.4394
  19   2.0000      -0.405891       -11.0449
  20   2.0000      -0.368041       -10.0149
  21   2.0000      -0.339059        -9.2263
  22   2.0000      -0.306581        -8.3425
  23   2.0000      -0.224751        -6.1158
  24   2.0000      -0.211948        -5.7674
  25   2.0000      -0.195418        -5.3176
  26   2.0000      -0.080907        -2.2016
  27   0.0000       0.118940         3.2365
  28   0.0000       0.121038         3.2936
  29   0.0000       0.126799         3.4504
  30   0.0000       0.129162         3.5147
  31   0.0000       0.140268         3.8169

MULLIKEN ATOMIC CHARGES
-----------------------
   0 C :   -0.857272
   1 C :    0.618258
   2 C :   -0.715481
   3 O :   -1.123053
   4 C :    1.173862
   5 H :    0.282157
   6 H :    0.351954
   7 H :    0.248987
   8 H :    0.337588
   9 H :    0.276404
  10 C :   -0.811755
  11 H :    0.280748
  12 H :    0.255113
  13 H :    0.304394
  14 C :   -1.939155
  15 H :    0.317251
Sum of atomic charges:   -1.0000000

LOEWDIN ATOMIC CHARGES
----------------------
   0 C :    0.523999
   1 C :   -0.712624
   2 C :    0.323457
   3 O :    0.341541
   4 C :   -0.144198
   5 H :   -0.190478
   6 H :   -0.223064
   7 H :   -0.201214
   8 H :   -0.240892
   9 H :   -0.262514
  10 C :    0.474089
  11 H :   -0.191969
  12 H :   -0.189121
  13 H :   -0.231271
  14 C :    0.308251
  15 H :   -0.383991

  Mayer bond orders larger than 0.100000
B(  0-C ,  1-C ) :   0.8733 B(  0-C ,  5-H ) :   0.9743 B(  0-C ,  6-H ) :   0.8502
B(  0-C ,  7-H ) :   0.9866 B(  1-C ,  2-C ) :   1.0938 B(  1-C ,  3-O ) :   0.9791
B(  1-C ,  4-C ) :   0.1031 B(  1-C , 14-C ) :   0.1080 B(  2-C ,  4-C ) :   0.5098
B(  2-C ,  8-H ) :   0.9220 B(  2-C ,  9-H ) :   0.9748 B(  4-C , 10-C ) :   0.7500
B(  4-C , 14-C ) :   0.6009 B( 10-C , 11-H ) :   0.9780 B( 10-C , 12-H ) :   1.0054
B( 10-C , 13-H ) :   0.9108 B( 14-C , 15-H ) :   1.1169

MP2 TOTAL ENERGY:     -308.569092961 Eh
FINAL SINGLE POINT ENERGY      -308.569092960522

DIPOLE MOMENT
-------------
                                X             Y             Z
Electronic contribution:     -1.67654      -1.62896      -0.33626
Nuclear contribution   :      2.08628       1.64315       0.25445
                        -----------------------------------------
Total Dipole Moment    :      0.40974       0.01419      -0.08181
                        -----------------------------------------
Magnitude (a.u.)       :      0.41807
Magnitude (Debye)      :      1.06264

Rotational constants in cm-1:     0.122564     0.064712     0.051226
Rotational constants in MHz :  3674.364237  1940.005408  1535.711666

                             ****ORCA TERMINATED NORMALLY****
TOTAL RUN TIME: 0 days 0 hours 2 minutes 48 seconds 922 msec
