                         Program Version 4.2.1 -  RELEASE  -
|  1> %pal
|  2>  nprocs 32
|  3> end
|  4> !RI-MP2 aug-cc-pVTZ aug-cc-pVTZ/C TightSCF
|  5> %maxcore 4500
|  6> *xyzfile 1 1  05_42P1.xyz
|  7>
|  8>
|  9>                          ****END OF INPUT****

CARTESIAN COORDINATES (ANGSTROEM)
---------------------------------
  C      0.163818    4.221662   -0.000254
  C     -0.854858    3.571371    0.689540
  C     -0.922775    2.193466    0.678161
  C      0.055826    1.439130    0.000021
  C      1.089938    2.115224   -0.678271
  C      1.129027    3.494246   -0.689905
  H      0.205811    5.304052   -0.000368
  H     -1.591124    4.144475    1.237894
  H     -1.698317    1.684691    1.234817
  H      1.823734    1.547781   -1.234808
  H      1.907487    4.008466   -1.238361
  C     -0.000006   -0.000037    0.000074
  C     -1.274287   -0.671263    0.000141
  C     -2.376915   -0.113864   -0.678130
  C     -1.438202   -1.895775    0.678559
  C     -3.590749   -0.769491   -0.689462
  H     -2.252399    0.805226   -1.234875
  C     -2.665488   -2.525862    0.690247
  H     -0.609751   -2.312950    1.235176
  C     -3.738070   -1.968927    0.000487
  H     -4.425363   -0.352527   -1.237903
  H     -2.793633   -3.449919    1.238814
  H     -4.696470   -2.473704    0.000627
  C      1.218450   -0.767974    0.000005
  C      2.360966   -0.297671    0.678249
  C      1.286952   -2.001518   -0.678390
  C      3.520366   -1.045355    0.689520
  H      2.308046    0.628290    1.235020
  C      2.461731   -2.724798   -0.690113
  H      0.428609   -2.353225   -1.234932
  C      3.574271   -2.252604   -0.000431
  H      4.384799   -0.694308    1.237927
  H      2.517903   -3.656004   -1.238683
  H      4.490690   -2.830106   -0.000637

 Total Charge           Charge          ....    1
 Multiplicity           Mult            ....    1
 Number of Electrons    NEL             ....  128
 Basis Dimension        Dim             .... 1219

ORBITAL ENERGIES
----------------

  NO   OCC          E(Eh)            E(eV)
   0   2.0000     -11.469155      -312.0916
   1   2.0000     -11.389807      -309.9324
   2   2.0000     -11.389804      -309.9323
   3   2.0000     -11.389775      -309.9315
   4   2.0000     -11.387036      -309.8570
   5   2.0000     -11.387030      -309.8569
   6   2.0000     -11.387030      -309.8568
   7   2.0000     -11.386792      -309.8504
   8   2.0000     -11.386786      -309.8502
   9   2.0000     -11.386785      -309.8502
  10   2.0000     -11.382358      -309.7297
  11   2.0000     -11.382349      -309.7295
  12   2.0000     -11.382348      -309.7294
  13   2.0000     -11.364704      -309.2493
  14   2.0000     -11.364702      -309.2493
  15   2.0000     -11.364701      -309.2492
  16   2.0000     -11.364652      -309.2479
  17   2.0000     -11.364649      -309.2478
  18   2.0000     -11.364649      -309.2478
  19   2.0000      -1.339399       -36.4469
  20   2.0000      -1.295910       -35.2635
  21   2.0000      -1.295909       -35.2635
  22   2.0000      -1.237635       -33.6778
  23   2.0000      -1.169411       -31.8213
  24   2.0000      -1.169408       -31.8212
  25   2.0000      -1.157469       -31.4963
  26   2.0000      -1.153109       -31.3777
  27   2.0000      -1.153107       -31.3776
  28   2.0000      -1.066803       -29.0292
  29   2.0000      -0.987448       -26.8698
  30   2.0000      -0.987447       -26.8698
  31   2.0000      -0.960513       -26.1369
  32   2.0000      -0.960511       -26.1368
  33   2.0000      -0.959647       -26.1133
  34   2.0000      -0.905000       -24.6263
  35   2.0000      -0.852333       -23.1932
  36   2.0000      -0.852330       -23.1931
  37   2.0000      -0.828488       -22.5443
  38   2.0000      -0.794922       -21.6309
  39   2.0000      -0.794920       -21.6309
  40   2.0000      -0.769448       -20.9378
  41   2.0000      -0.765470       -20.8295
  42   2.0000      -0.765468       -20.8295
  43   2.0000      -0.747818       -20.3492
  44   2.0000      -0.730861       -19.8878
  45   2.0000      -0.729822       -19.8595
  46   2.0000      -0.729818       -19.8594
  47   2.0000      -0.723267       -19.6811
  48   2.0000      -0.723264       -19.6810
  49   2.0000      -0.660112       -17.9626
  50   2.0000      -0.653731       -17.7889
  51   2.0000      -0.645096       -17.5539
  52   2.0000      -0.645093       -17.5539
  53   2.0000      -0.640937       -17.4408
  54   2.0000      -0.640932       -17.4406
  55   2.0000      -0.633446       -17.2369
  56   2.0000      -0.624099       -16.9826
  57   2.0000      -0.624098       -16.9826
  58   2.0000      -0.530240       -14.4286
  59   2.0000      -0.486231       -13.2310
  60   2.0000      -0.476733       -12.9726
  61   2.0000      -0.476732       -12.9725
  62   2.0000      -0.465206       -12.6589
  63   2.0000      -0.465204       -12.6588
  64   0.0000      -0.144911        -3.9432
  65   0.0000      -0.060320        -1.6414
  66   0.0000      -0.049055        -1.3348
  67   0.0000      -0.049055        -1.3348
  68   0.0000      -0.048117        -1.3093

MULLIKEN ATOMIC CHARGES
-----------------------
   0 C :    0.103274
   1 C :   -0.944708
   2 C :   -1.046738
   3 C :    3.229664
   4 C :   -1.046412
   5 C :   -0.944548
   6 H :    0.619933
   7 H :    0.520521
   8 H :   -0.114892
   9 H :   -0.114669
  10 H :    0.520416
  11 C :   -1.345032
  12 C :    3.228822
  13 C :   -1.047091
  14 C :   -1.046290
  15 C :   -0.944316
  16 H :   -0.114797
  17 C :   -0.944135
  18 H :   -0.114876
  19 C :    0.103308
  20 H :    0.520362
  21 H :    0.520249
  22 H :    0.620199
  23 C :    3.228501
  24 C :   -1.046835
  25 C :   -1.045842
  26 C :   -0.944588
  27 H :   -0.114769
  28 C :   -0.944468
  29 H :   -0.114920
  30 C :    0.103340
  31 H :    0.520714
  32 H :    0.520326
  33 H :    0.620301
Sum of atomic charges:    1.0000000

LOEWDIN ATOMIC CHARGES
----------------------
   0 C :    0.252427
   1 C :    0.251506
   2 C :    0.244381
   3 C :   -0.097928
   4 C :    0.244383
   5 C :    0.251506
   6 H :   -0.154560
   7 H :   -0.166379
   8 H :   -0.161149
   9 H :   -0.161157
  10 H :   -0.166379
  11 C :   -0.009858
  12 C :   -0.097959
  13 C :    0.244368
  14 C :    0.244386
  15 C :    0.251498
  16 H :   -0.161143
  17 C :    0.251498
  18 H :   -0.161140
  19 C :    0.252419
  20 H :   -0.166380
  21 H :   -0.166380
  22 H :   -0.154562
  23 C :   -0.097962
  24 C :    0.244366
  25 C :    0.244389
  26 C :    0.251499
  27 H :   -0.161135
  28 C :    0.251499
  29 H :   -0.161146
  30 C :    0.252414
  31 H :   -0.166378
  32 H :   -0.166380
  33 H :   -0.154564

  Mayer bond orders larger than 0.100000
B(  0-C ,  1-C ) :   1.1221 B(  0-C ,  2-C ) :  -0.2233 B(  0-C ,  4-C ) :  -0.2231
B(  0-C ,  5-C ) :   1.1223 B(  0-C ,  6-H ) :   0.5685 B(  0-C ,  8-H ) :  -0.1340
B(  0-C ,  9-H ) :  -0.1339 B(  0-C , 11-C ) :   0.1111 B(  1-C ,  2-C ) :   1.6596
B(  1-C ,  3-C ) :  -0.2129 B(  1-C ,  4-C ) :   0.1167 B(  1-C ,  5-C ) :   0.3380
B(  1-C ,  6-H ) :  -0.2396 B(  1-C ,  7-H ) :   0.6291 B(  1-C ,  9-H ) :  -0.1172
B(  1-C , 11-C ) :   0.1550 B(  2-C ,  4-C ) :  -0.7420 B(  2-C ,  5-C ) :   0.1169
B(  2-C ,  8-H ) :   2.1108 B(  2-C ,  9-H ) :   0.2068 B(  2-C , 11-C ) :   0.6212
B(  2-C , 12-C ) :  -0.1480 B(  2-C , 13-C ) :   0.3027 B(  2-C , 23-C ) :  -0.1986
B(  3-C ,  5-C ) :  -0.2131 B(  3-C ,  8-H ) :  -0.4955 B(  3-C ,  9-H ) :  -0.4952
B(  3-C , 11-C ) :  -0.1969 B(  3-C , 13-C ) :  -0.1482 B(  3-C , 14-C ) :  -0.1986
B(  3-C , 18-H ) :  -0.1357 B(  3-C , 24-C ) :  -0.1482 B(  3-C , 25-C ) :  -0.1985
B(  3-C , 29-H ) :  -0.1353 B(  4-C ,  5-C ) :   1.6594 B(  4-C ,  8-H ) :   0.2068
B(  4-C ,  9-H ) :   2.1102 B(  4-C , 11-C ) :   0.6208 B(  4-C , 12-C ) :  -0.1985
B(  4-C , 23-C ) :  -0.1479 B(  4-C , 24-C ) :   0.3027 B(  5-C ,  6-H ) :  -0.2395
B(  5-C ,  8-H ) :  -0.1172 B(  5-C , 10-H ) :   0.6291 B(  5-C , 11-C ) :   0.1552
B(  8-H ,  9-H ) :   0.3251 B(  8-H , 11-C ) :  -0.1546 B(  8-H , 23-C ) :  -0.1358
B(  9-H , 11-C ) :  -0.1546 B(  9-H , 12-C ) :  -0.1357 B( 11-C , 12-C ) :  -0.1972
B( 11-C , 13-C ) :   0.6213 B( 11-C , 14-C ) :   0.6209 B( 11-C , 15-C ) :   0.1554
B( 11-C , 16-H ) :  -0.1546 B( 11-C , 17-C ) :   0.1548 B( 11-C , 18-H ) :  -0.1541
B( 11-C , 19-C ) :   0.1110 B( 11-C , 23-C ) :  -0.1967 B( 11-C , 24-C ) :   0.6209
B( 11-C , 25-C ) :   0.6206 B( 11-C , 26-C ) :   0.1551 B( 11-C , 27-H ) :  -0.1551
B( 11-C , 28-C ) :   0.1551 B( 11-C , 29-H ) :  -0.1551 B( 11-C , 30-C ) :   0.1110
B( 12-C , 15-C ) :  -0.2129 B( 12-C , 16-H ) :  -0.4951 B( 12-C , 17-C ) :  -0.2128
B( 12-C , 18-H ) :  -0.4954 B( 12-C , 24-C ) :  -0.1983 B( 12-C , 25-C ) :  -0.1480
B( 12-C , 27-H ) :  -0.1351 B( 13-C , 14-C ) :  -0.7412 B( 13-C , 15-C ) :   1.6597
B( 13-C , 16-H ) :   2.1101 B( 13-C , 17-C ) :   0.1168 B( 13-C , 18-H ) :   0.2070
B( 13-C , 19-C ) :  -0.2232 B( 13-C , 23-C ) :  -0.1987 B( 14-C , 15-C ) :   0.1170
B( 14-C , 16-H ) :   0.2068 B( 14-C , 17-C ) :   1.6592 B( 14-C , 18-H ) :   2.1102
B( 14-C , 19-C ) :  -0.2231 B( 14-C , 23-C ) :  -0.1481 B( 14-C , 25-C ) :   0.3028
B( 15-C , 17-C ) :   0.3377 B( 15-C , 18-H ) :  -0.1170 B( 15-C , 19-C ) :   1.1220
B( 15-C , 20-H ) :   0.6296 B( 15-C , 22-H ) :  -0.2394 B( 16-H , 17-C ) :  -0.1171
B( 16-H , 18-H ) :   0.3251 B( 16-H , 19-C ) :  -0.1339 B( 16-H , 23-C ) :  -0.1356
B( 17-C , 19-C ) :   1.1222 B( 17-C , 21-H ) :   0.6296 B( 17-C , 22-H ) :  -0.2395
B( 18-H , 19-C ) :  -0.1338 B( 19-C , 22-H ) :   0.5683 B( 23-C , 26-C ) :  -0.2130
B( 23-C , 27-H ) :  -0.4947 B( 23-C , 28-C ) :  -0.2132 B( 23-C , 29-H ) :  -0.4951
B( 24-C , 25-C ) :  -0.7417 B( 24-C , 26-C ) :   1.6603 B( 24-C , 27-H ) :   2.1098
B( 24-C , 28-C ) :   0.1170 B( 24-C , 29-H ) :   0.2066 B( 24-C , 30-C ) :  -0.2231
B( 25-C , 26-C ) :   0.1169 B( 25-C , 27-H ) :   0.2065 B( 25-C , 28-C ) :   1.6597
B( 25-C , 29-H ) :   2.1102 B( 25-C , 30-C ) :  -0.2230 B( 26-C , 28-C ) :   0.3378
B( 26-C , 29-H ) :  -0.1170 B( 26-C , 30-C ) :   1.1220 B( 26-C , 31-H ) :   0.6288
B( 26-C , 33-H ) :  -0.2396 B( 27-H , 28-C ) :  -0.1169 B( 27-H , 29-H ) :   0.3252
B( 27-H , 30-C ) :  -0.1339 B( 28-C , 30-C ) :   1.1222 B( 28-C , 32-H ) :   0.6293
B( 28-C , 33-H ) :  -0.2396 B( 29-H , 30-C ) :  -0.1340 B( 30-C , 33-H ) :   0.5681

MP2 TOTAL ENERGY:     -731.260411331 Eh
FINAL SINGLE POINT ENERGY      -731.260411331111

DIPOLE MOMENT
-------------
                                X             Y             Z
Electronic contribution:     -0.00003       0.00000       0.00026
Nuclear contribution   :      0.00002       0.00024      -0.00029
                        -----------------------------------------
Total Dipole Moment    :     -0.00000       0.00024      -0.00003
                        -----------------------------------------
Magnitude (a.u.)       :      0.00024
Magnitude (Debye)      :      0.00061

Rotational constants in cm-1:     0.013440     0.013439     0.007214
Rotational constants in MHz :   402.915489   402.888050   216.268905

                             ****ORCA TERMINATED NORMALLY****
TOTAL RUN TIME: 0 days 0 hours 43 minutes 30 seconds 585 msec
