                         Program Version 4.2.1 -  RELEASE  -
|  1> %pal
|  2>  nprocs 32
|  3> end
|  4> !RI-MP2 aug-cc-pVTZ aug-cc-pVTZ/C TightSCF
|  5> %maxcore 4500
|  6> *xyzfile 1 1  02_33TS.xyz
|  7>
|  8>
|  9>                          ****END OF INPUT****

CARTESIAN COORDINATES (ANGSTROEM)
---------------------------------
  C     -1.896755    1.172722    0.166910
  N     -0.899292    0.616958   -0.398319
  N      0.193609    1.111172   -0.856699
  C      1.319321    0.633203   -0.333724
  C      2.538919    0.915800   -1.019745
  C      1.329555   -0.211334    0.820603
  C      3.706142    0.408835   -0.545801
  H      2.490806    1.525751   -1.912384
  C      2.566595   -0.674440    1.311262
  H      0.461624   -0.225282    1.463180
  C      3.718603   -0.383720    0.633943
  H      4.637653    0.610658   -1.058426
  H      2.596089   -1.256938    2.222870
  H      4.667369   -0.745352    1.011528
  C     -3.176584    0.430165    0.380815
  C     -1.767211    2.580328    0.662980
  H     -1.309323    3.201149   -0.110633
  H     -2.738564    2.986839    0.937384
  H     -1.117643    2.618070    1.541133
  C     -0.891295   -1.595833   -0.683018
  C      0.348571   -1.984872   -0.227560
  H     -0.993298   -1.364390   -1.737724
  H      1.175744   -2.084807   -0.916610
  H      0.422129   -2.536114    0.701831
  C     -2.162312   -1.895929    0.048485
  C     -3.300219   -0.933701   -0.284145
  H     -3.316636    0.344162    1.465827
  H     -3.982923    1.089530    0.045030
  H     -3.364213   -0.811791   -1.369283
  H     -4.247886   -1.372619    0.030348
  H     -2.461233   -2.908696   -0.242450
  H     -1.979910   -1.934432    1.127476

 Total Charge           Charge          ....    1
 Multiplicity           Mult            ....    1
 Number of Electrons    NEL             ....  108
 Basis Dimension        Dim             .... 1081

ORBITAL ENERGIES
----------------

  NO   OCC          E(Eh)            E(eV)
   0   2.0000     -15.787012      -429.5864
   1   2.0000     -15.785584      -429.5476
   2   2.0000     -11.466229      -312.0119
   3   2.0000     -11.433408      -311.1188
   4   2.0000     -11.428886      -310.9958
   5   2.0000     -11.409253      -310.4616
   6   2.0000     -11.400141      -310.2136
   7   2.0000     -11.388776      -309.9043
   8   2.0000     -11.378074      -309.6131
   9   2.0000     -11.376890      -309.5809
  10   2.0000     -11.376452      -309.5690
  11   2.0000     -11.373376      -309.4853
  12   2.0000     -11.369931      -309.3915
  13   2.0000     -11.365403      -309.2683
  14   2.0000     -11.359292      -309.1021
  15   2.0000      -1.537032       -41.8248
  16   2.0000      -1.342351       -36.5272
  17   2.0000      -1.285917       -34.9916
  18   2.0000      -1.235891       -33.6303
  19   2.0000      -1.195476       -32.5306
  20   2.0000      -1.175044       -31.9746
  21   2.0000      -1.154622       -31.4189
  22   2.0000      -1.111279       -30.2394
  23   2.0000      -1.079735       -29.3811
  24   2.0000      -1.014885       -27.6164
  25   2.0000      -0.980705       -26.6863
  26   2.0000      -0.967448       -26.3256
  27   2.0000      -0.921969       -25.0881
  28   2.0000      -0.896513       -24.3954
  29   2.0000      -0.846590       -23.0369
  30   2.0000      -0.819038       -22.2872
  31   2.0000      -0.808569       -22.0023
  32   2.0000      -0.806917       -21.9573
  33   2.0000      -0.777836       -21.1660
  34   2.0000      -0.770662       -20.9708
  35   2.0000      -0.753213       -20.4960
  36   2.0000      -0.747561       -20.3422
  37   2.0000      -0.743238       -20.2245
  38   2.0000      -0.739416       -20.1205
  39   2.0000      -0.706679       -19.2297
  40   2.0000      -0.703396       -19.1404
  41   2.0000      -0.694197       -18.8901
  42   2.0000      -0.682425       -18.5697
  43   2.0000      -0.670781       -18.2529
  44   2.0000      -0.658249       -17.9119
  45   2.0000      -0.645674       -17.5697
  46   2.0000      -0.632751       -17.2180
  47   2.0000      -0.623807       -16.9747
  48   2.0000      -0.618120       -16.8199
  49   2.0000      -0.608891       -16.5688
  50   2.0000      -0.549212       -14.9448
  51   2.0000      -0.521266       -14.1844
  52   2.0000      -0.497523       -13.5383
  53   2.0000      -0.438445       -11.9307
  54   0.0000      -0.138597        -3.7714
  55   0.0000      -0.066523        -1.8102
  56   0.0000      -0.054682        -1.4880
  57   0.0000      -0.053627        -1.4593
  58   0.0000      -0.051243        -1.3944

MULLIKEN ATOMIC CHARGES
-----------------------
   0 C :    0.215187
   1 N :    1.369615
   2 N :   -2.014182
   3 C :    1.380649
   4 C :   -1.023876
   5 C :    0.338642
   6 C :   -0.567606
   7 H :    0.565308
   8 C :   -1.411198
   9 H :    0.626526
  10 C :   -0.247137
  11 H :    0.490268
  12 H :    0.211728
  13 H :    0.593656
  14 C :   -0.291828
  15 C :   -0.929322
  16 H :    0.302028
  17 H :    0.288020
  18 H :    0.259947
  19 C :    0.100247
  20 C :   -1.023155
  21 H :    0.511817
  22 H :    0.489298
  23 H :    0.288384
  24 C :   -0.378489
  25 C :   -0.574771
  26 H :    0.215931
  27 H :    0.349215
  28 H :    0.122177
  29 H :    0.319671
  30 H :    0.277615
  31 H :    0.145634
Sum of atomic charges:    1.0000000

LOEWDIN ATOMIC CHARGES
----------------------
   0 C :   -0.173960
   1 N :    0.216993
   2 N :    0.340345
   3 C :   -0.301565
   4 C :    0.248579
   5 C :    0.175010
   6 C :    0.247370
   7 H :   -0.155413
   8 C :    0.246917
   9 H :   -0.163219
  10 C :    0.257264
  11 H :   -0.165773
  12 H :   -0.161336
  13 H :   -0.150067
  14 C :    0.319897
  15 C :    0.642570
  16 H :   -0.152150
  17 H :   -0.156963
  18 H :   -0.143521
  19 C :    0.173392
  20 C :    0.512789
  21 H :   -0.147865
  22 H :   -0.177251
  23 H :   -0.175068
  24 C :    0.295567
  25 C :    0.313085
  26 H :   -0.121323
  27 H :   -0.129229
  28 H :   -0.130594
  29 H :   -0.128662
  30 H :   -0.124490
  31 H :   -0.131328

  Mayer bond orders larger than 0.100000
B(  0-C ,  1-N ) :   1.4876 B(  0-C ,  2-N ) :  -0.4331 B(  0-C ,  9-H ) :  -0.1011
B(  0-C , 14-C ) :   0.5074 B(  0-C , 15-C ) :   0.5290 B(  0-C , 25-C ) :   0.1151
B(  1-N ,  2-N ) :  -2.2005 B(  1-N ,  3-C ) :   0.2339 B(  1-N ,  4-C ) :  -0.1228
B(  1-N , 15-C ) :  -0.1112 B(  1-N , 19-C ) :   0.1045 B(  1-N , 20-C ) :   0.1509
B(  1-N , 21-H ) :  -0.1251 B(  2-N ,  3-C ) :   0.6329 B(  2-N ,  4-C ) :   0.4232
B(  2-N ,  5-C ) :  -0.3844 B(  2-N ,  6-C ) :   0.1559 B(  2-N ,  9-H ) :   0.1109
B(  3-C ,  4-C ) :   0.3459 B(  3-C ,  5-C ) :   0.8690 B(  4-C ,  5-C ) :   0.2670
B(  4-C ,  6-C ) :   1.5268 B(  4-C ,  7-H ) :   0.5661 B(  5-C ,  8-C ) :   0.5313
B(  5-C ,  9-H ) :   0.7195 B(  5-C , 10-C ) :   0.1930 B(  5-C , 20-C ) :   0.1873
B(  6-C , 10-C ) :   0.9331 B(  6-C , 11-H ) :   0.7079 B(  8-C ,  9-H ) :  -0.5543
B(  8-C , 10-C ) :   1.3992 B(  8-C , 12-H ) :   1.2736 B(  8-C , 13-H ) :  -0.1257
B(  9-H , 20-C ) :   0.1540 B( 10-C , 11-H ) :  -0.1110 B( 10-C , 13-H ) :   0.6134
B( 14-C , 25-C ) :   0.9312 B( 14-C , 26-H ) :   1.0246 B( 14-C , 27-H ) :   0.9235
B( 15-C , 16-H ) :   1.0324 B( 15-C , 17-H ) :   0.9592 B( 15-C , 18-H ) :   1.0254
B( 19-C , 20-C ) :   1.1573 B( 19-C , 21-H ) :   0.8109 B( 19-C , 24-C ) :   0.8827
B( 20-C , 22-H ) :   0.7622 B( 20-C , 23-H ) :   1.0382 B( 24-C , 25-C ) :   0.9726
B( 24-C , 30-H ) :   0.9301 B( 24-C , 31-H ) :   1.0671 B( 25-C , 28-H ) :   1.0948
B( 25-C , 29-H ) :   0.9324

MP2 TOTAL ENERGY:     -613.516973766 Eh
FINAL SINGLE POINT ENERGY      -613.516973766425

DIPOLE MOMENT
-------------
                                X             Y             Z
Electronic contribution:      8.97111       2.81008      -2.56639
Nuclear contribution   :     -9.21822      -2.90257       3.24591
                        -----------------------------------------
Total Dipole Moment    :     -0.24711      -0.09249       0.67952
                        -----------------------------------------
Magnitude (a.u.)       :      0.72894
Magnitude (Debye)      :      1.85283

Rotational constants in cm-1:     0.038171     0.014263     0.011910
Rotational constants in MHz :  1144.350838   427.592164   357.040571

                             ****ORCA TERMINATED NORMALLY****
TOTAL RUN TIME: 0 days 0 hours 35 minutes 12 seconds 862 msec
