                         Program Version 4.2.1 -  RELEASE  -
|  1> %pal
|  2>  nprocs 32
|  3> end
|  4> !RI-MP2 aug-cc-pVTZ aug-cc-pVTZ/C TightSCF
|  5> %maxcore 4500
|  6> *xyzfile -1 1  10_47P.xyz
|  7>
|  8>
|  9>                          ****END OF INPUT****

CARTESIAN COORDINATES (ANGSTROEM)
---------------------------------
  C     -0.198971   -0.734658   -0.555812
  C      1.002421   -1.132745   -1.137383
  C     -0.409000    0.644195   -0.388173
  C      2.060552   -1.691448   -0.216644
  H      2.996701   -1.876555   -0.756756
  C      0.718615    1.458208   -0.068014
  C      2.256371   -0.583263    0.851357
  H      1.498923   -0.728963    1.629426
  C      2.105864    0.858887    0.318252
  H      2.452278    1.544416    1.098684
  H      2.787594    1.013996   -0.525324
  H      1.790021   -2.633719    0.273476
  H      3.233064   -0.669825    1.349640
  O      0.635623    2.698559    0.064161
  C     -1.171811   -1.710524    0.075978
  H     -0.629550   -2.394302    0.742502
  H     -1.609733   -2.341474   -0.706419
  C     -1.785093    1.241130   -0.236120
  H     -1.790885    1.912524    0.631561
  H     -2.051744    1.877618   -1.091355
  C     -2.839464    0.140874   -0.057888
  H     -3.758942    0.560891    0.364895
  H     -3.106345   -0.283037   -1.034306
  C     -2.294384   -0.985905    0.819989
  H     -1.907119   -0.553839    1.750111
  H     -3.087177   -1.690643    1.096145
  H      1.427327   -0.354078   -1.768810

 Total Charge           Charge          ....   -1
 Multiplicity           Mult            ....    1
 Number of Electrons    NEL             ....   90
 Basis Dimension        Dim             ....  897

ORBITAL ENERGIES
----------------

  NO   OCC          E(Eh)            E(eV)
   0   2.0000     -20.329290      -553.1881
   1   2.0000     -11.134400      -302.9824
   2   2.0000     -11.091853      -301.8247
   3   2.0000     -11.087975      -301.7191
   4   2.0000     -11.084666      -301.6291
   5   2.0000     -11.080981      -301.5288
   6   2.0000     -11.078042      -301.4489
   7   2.0000     -11.077098      -301.4231
   8   2.0000     -11.073595      -301.3278
   9   2.0000     -11.067604      -301.1648
  10   2.0000     -11.025344      -300.0149
  11   2.0000     -11.014468      -299.7189
  12   2.0000      -1.164554       -31.6891
  13   2.0000      -0.986054       -26.8319
  14   2.0000      -0.935642       -25.4601
  15   2.0000      -0.867130       -23.5958
  16   2.0000      -0.863061       -23.4851
  17   2.0000      -0.817589       -22.2477
  18   2.0000      -0.735443       -20.0124
  19   2.0000      -0.708163       -19.2701
  20   2.0000      -0.672049       -18.2874
  21   2.0000      -0.631330       -17.1794
  22   2.0000      -0.584468       -15.9042
  23   2.0000      -0.528456       -14.3800
  24   2.0000      -0.484161       -13.1747
  25   2.0000      -0.482453       -13.1282
  26   2.0000      -0.464617       -12.6429
  27   2.0000      -0.455769       -12.4021
  28   2.0000      -0.441723       -12.0199
  29   2.0000      -0.438327       -11.9275
  30   2.0000      -0.414436       -11.2774
  31   2.0000      -0.402377       -10.9492
  32   2.0000      -0.381868       -10.3912
  33   2.0000      -0.376504       -10.2452
  34   2.0000      -0.363471        -9.8905
  35   2.0000      -0.346060        -9.4168
  36   2.0000      -0.339414        -9.2359
  37   2.0000      -0.332701        -9.0533
  38   2.0000      -0.317864        -8.6495
  39   2.0000      -0.307671        -8.3721
  40   2.0000      -0.302361        -8.2277
  41   2.0000      -0.291770        -7.9395
  42   2.0000      -0.218771        -5.9531
  43   2.0000      -0.166752        -4.5376
  44   2.0000      -0.079202        -2.1552
  45   0.0000       0.103421         2.8142
  46   0.0000       0.109662         2.9840
  47   0.0000       0.114797         3.1238
  48   0.0000       0.118683         3.2295
  49   0.0000       0.125356         3.4111

MULLIKEN ATOMIC CHARGES
-----------------------
   0 C :    0.745645
   1 C :   -1.461163
   2 C :    0.421647
   3 C :   -0.435466
   4 H :    0.339339
   5 C :    0.779066
   6 C :   -0.499422
   7 H :    0.213555
   8 C :   -0.404975
   9 H :    0.194239
  10 H :    0.206066
  11 H :    0.196547
  12 H :    0.329119
  13 O :   -1.402082
  14 C :   -0.538948
  15 H :    0.220868
  16 H :    0.226806
  17 C :   -0.461131
  18 H :    0.055514
  19 H :    0.373215
  20 C :   -0.530934
  21 H :    0.305447
  22 H :    0.135322
  23 C :   -0.506799
  24 H :    0.156991
  25 H :    0.277657
  26 H :    0.063877
Sum of atomic charges:   -1.0000000

LOEWDIN ATOMIC CHARGES
----------------------
   0 C :   -0.175344
   1 C :    0.174569
   2 C :   -0.114568
   3 C :    0.210471
   4 H :   -0.170061
   5 C :   -0.561470
   6 C :    0.266070
   7 H :   -0.158331
   8 C :    0.267928
   9 H :   -0.189420
  10 H :   -0.161843
  11 H :   -0.173071
  12 H :   -0.157633
  13 O :    0.371678
  14 C :    0.276760
  15 H :   -0.148839
  16 H :   -0.154853
  17 C :    0.236495
  18 H :   -0.168742
  19 H :   -0.151849
  20 C :    0.265388
  21 H :   -0.151708
  22 H :   -0.148006
  23 C :    0.264600
  24 H :   -0.142809
  25 H :   -0.151299
  26 H :   -0.254112

  Mayer bond orders larger than 0.100000
B(  0-C ,  1-C ) :   0.8491 B(  0-C ,  2-C ) :   1.1415 B(  0-C , 14-C ) :   0.6460
B(  0-C , 16-H ) :  -0.1368 B(  0-C , 17-C ) :   0.1700 B(  1-C ,  3-C ) :   0.9657
B(  1-C ,  4-H ) :  -0.1276 B(  1-C ,  5-C ) :   0.2718 B(  1-C , 14-C ) :  -0.2442
B(  1-C , 17-C ) :  -0.1380 B(  1-C , 26-H ) :   1.2537 B(  2-C ,  5-C ) :   1.2988
B(  2-C ,  8-C ) :   0.1164 B(  2-C , 13-O ) :   0.2795 B(  2-C , 17-C ) :   0.3505
B(  2-C , 19-H ) :  -0.1048 B(  3-C ,  4-H ) :   0.9001 B(  3-C ,  6-C ) :   0.8205
B(  3-C , 11-H ) :   1.0043 B(  5-C ,  6-C ) :   0.1098 B(  5-C ,  8-C ) :   0.7272
B(  5-C , 13-O ) :   0.3036 B(  5-C , 17-C ) :   0.1296 B(  6-C ,  7-H ) :   1.0694
B(  6-C ,  8-C ) :   0.9020 B(  6-C , 12-H ) :   0.8607 B(  8-C ,  9-H ) :   0.9661
B(  8-C , 10-H ) :   1.0412 B( 14-C , 15-H ) :   1.0368 B( 14-C , 16-H ) :   1.0938
B( 14-C , 23-C ) :   0.9300 B( 17-C , 18-H ) :   1.2203 B( 17-C , 19-H ) :   0.8773
B( 17-C , 20-C ) :   0.8904 B( 20-C , 21-H ) :   0.9235 B( 20-C , 22-H ) :   1.0987
B( 20-C , 23-C ) :   0.8819 B( 23-C , 24-H ) :   1.0811 B( 23-C , 25-H ) :   0.9357

MP2 TOTAL ENERGY:     -502.378666057 Eh
FINAL SINGLE POINT ENERGY      -502.378666057249

DIPOLE MOMENT
-------------
                                X             Y             Z
Electronic contribution:      1.09779       5.36299      -2.18041
Nuclear contribution   :     -1.78736      -6.73186       3.12761
                        -----------------------------------------
Total Dipole Moment    :     -0.68957      -1.36887       0.94720
                        -----------------------------------------
Magnitude (a.u.)       :      1.80181
Magnitude (Debye)      :      4.57984

Rotational constants in cm-1:     0.044702     0.030389     0.020684
Rotational constants in MHz :  1340.145451   911.035863   620.091261

                             ****ORCA TERMINATED NORMALLY****
TOTAL RUN TIME: 0 days 0 hours 17 minutes 16 seconds 697 msec
