                         Program Version 4.2.1 -  RELEASE  -
|  1> %pal
|  2>  nprocs 32
|  3> end
|  4> !RI-MP2 aug-cc-pVTZ aug-cc-pVTZ/C TightSCF
|  5> %maxcore 4500
|  6> *xyzfile 0 2  01_8P.xyz
|  7>
|  8>
|  9>                          ****END OF INPUT****

CARTESIAN COORDINATES (ANGSTROEM)
---------------------------------
  C      2.431669   -0.647951   -0.142953
  C      1.026935   -0.173209    0.021223
  H      2.475541   -1.732772   -0.066286
  H      3.075605   -0.206182    0.622966
  H      2.829355   -0.337431   -1.113094
  N      0.053095   -0.959652    0.219693
  C      0.672370    1.299701    0.000157
  C     -0.852562    1.249331   -0.118119
  H      1.164504    1.836187   -0.813750
  H      1.005506    1.764017    0.935452
  C     -1.184392   -0.180397    0.379654
  H     -1.154705    1.347960   -1.162878
  H     -1.363600    2.022995    0.455007
  C     -2.337179   -0.826232   -0.290802
  H     -3.266976   -0.285628   -0.415152
  H     -2.295406   -1.877273   -0.540028
  H     -1.382536   -0.141768    1.464943

 Total Charge           Charge          ....    0
 Multiplicity           Mult            ....    2
 Number of Electrons    NEL             ....   53
 Basis Dimension        Dim             ....  552

ORBITAL ENERGIES
----------------
                 SPIN UP ORBITALS
  NO   OCC          E(Eh)            E(eV)
   0   1.0000     -15.540897      -422.8893
   1   1.0000     -11.269994      -306.6721
   2   1.0000     -11.251187      -306.1604
   3   1.0000     -11.232150      -305.6423
   4   1.0000     -11.224639      -305.4379
   5   1.0000     -11.224609      -305.4371
   6   1.0000     -11.222609      -305.3827
   7   1.0000      -1.251105       -34.0443
   8   1.0000      -1.052271       -28.6338
   9   1.0000      -1.028143       -27.9772
  10   1.0000      -0.971242       -26.4288
  11   1.0000      -0.874543       -23.7975
  12   1.0000      -0.793021       -21.5792
  13   1.0000      -0.707413       -19.2497
  14   1.0000      -0.664956       -18.0944
  15   1.0000      -0.637484       -17.3468
  16   1.0000      -0.599442       -16.3117
  17   1.0000      -0.580980       -15.8093
  18   1.0000      -0.570649       -15.5281
  19   1.0000      -0.563878       -15.3439
  20   1.0000      -0.524044       -14.2600
  21   1.0000      -0.499721       -13.5981
  22   1.0000      -0.493532       -13.4297
  23   1.0000      -0.488625       -13.2962
  24   1.0000      -0.402531       -10.9534
  25   1.0000      -0.395223       -10.7546
  26   1.0000      -0.343900        -9.3580
  27   0.0000       0.028285         0.7697
  28   0.0000       0.032901         0.8953
  29   0.0000       0.037481         1.0199
  30   0.0000       0.039326         1.0701
  31   0.0000       0.051908         1.4125

                 SPIN DOWN ORBITALS
  NO   OCC          E(Eh)            E(eV)
   0   1.0000     -15.538738      -422.8306
   1   1.0000     -11.271401      -306.7104
   2   1.0000     -11.254551      -306.2519
   3   1.0000     -11.232013      -305.6386
   4   1.0000     -11.224450      -305.4328
   5   1.0000     -11.223164      -305.3978
   6   1.0000     -11.199231      -304.7466
   7   1.0000      -1.248048       -33.9611
   8   1.0000      -1.040529       -28.3142
   9   1.0000      -1.024070       -27.8664
  10   1.0000      -0.947586       -25.7851
  11   1.0000      -0.845619       -23.0105
  12   1.0000      -0.771952       -21.0059
  13   1.0000      -0.704720       -19.1764
  14   1.0000      -0.659116       -17.9355
  15   1.0000      -0.634447       -17.2642
  16   1.0000      -0.595144       -16.1947
  17   1.0000      -0.576890       -15.6980
  18   1.0000      -0.564619       -15.3641
  19   1.0000      -0.554158       -15.0794
  20   1.0000      -0.518623       -14.1125
  21   1.0000      -0.495990       -13.4966
  22   1.0000      -0.489954       -13.3323
  23   1.0000      -0.480818       -13.0837
  24   1.0000      -0.399611       -10.8740
  25   1.0000      -0.383002       -10.4220
  26   0.0000       0.028205         0.7675
  27   0.0000       0.033072         0.8999
  28   0.0000       0.037381         1.0172
  29   0.0000       0.039601         1.0776
  30   0.0000       0.052039         1.4160

MULLIKEN ATOMIC CHARGES AND SPIN POPULATIONS
--------------------------------------------
   0 C :   -0.902024    0.009546
   1 C :    0.332126   -0.062337
   2 H :    0.308277   -0.000210
   3 H :    0.277612   -0.002546
   4 H :    0.277868   -0.002722
   5 N :   -0.722779    0.070682
   6 C :   -0.613172    0.002023
   7 C :   -0.486248    0.051527
   8 H :    0.301531   -0.000361
   9 H :    0.229712   -0.002988
  10 C :    0.702600   -0.223507
  11 H :    0.235990   -0.002735
  12 H :    0.318095   -0.006690
  13 C :   -1.294853    1.242447
  14 H :    0.366226   -0.069837
  15 H :    0.380285   -0.078710
  16 H :    0.288754    0.076417
Sum of atomic charges         :   -0.0000000

LOEWDIN ATOMIC CHARGES AND SPIN POPULATIONS
-------------------------------------------
   0 C :    0.588866   -0.005245
   1 C :   -0.294049   -0.018947
   2 H :   -0.178079   -0.000086
   3 H :   -0.167861   -0.000917
   4 H :   -0.169112   -0.000997
   5 N :    0.433851    0.032974
   6 C :    0.305564   -0.001905
   7 C :    0.298323    0.019781
   8 H :   -0.144399   -0.000218
   9 H :   -0.138603   -0.000511
  10 C :   -0.248322    0.129613
  11 H :   -0.151617    0.008445
  12 H :   -0.143065    0.001488
  13 C :    0.600204    0.563492
  14 H :   -0.220651    0.119844
  15 H :   -0.225035    0.122627
  16 H :   -0.146014    0.030562

  Mayer bond orders larger than 0.100000
B(  0-C ,  1-C ) :   0.5863 B(  0-C ,  2-H ) :   0.9351 B(  0-C ,  3-H ) :   0.9993
B(  0-C ,  4-H ) :   1.0068 B(  1-C ,  5-N ) :   1.3619 B(  1-C ,  6-C ) :   0.8532
B(  1-C , 10-C ) :  -0.1844 B(  5-N , 10-C ) :   0.5683 B(  6-C ,  7-C ) :   1.0680
B(  6-C ,  8-H ) :   0.9139 B(  6-C ,  9-H ) :   0.9751 B(  6-C , 10-C ) :   0.1006
B(  7-C , 10-C ) :   0.8668 B(  7-C , 11-H ) :   0.9738 B(  7-C , 12-H ) :   0.9466
B( 10-C , 13-C ) :   0.4620 B( 10-C , 16-H ) :   0.9427 B( 13-C , 14-H ) :   0.8935
B( 13-C , 15-H ) :   0.8742

MP2 TOTAL ENERGY:     -288.724088250 Eh
FINAL SINGLE POINT ENERGY      -288.724088249784

DIPOLE MOMENT
-------------
                                X             Y             Z
Electronic contribution:     -0.81375      -1.60394       0.63371
Nuclear contribution   :      1.12589       2.46841      -0.65376
                        -----------------------------------------
Total Dipole Moment    :      0.31213       0.86447      -0.02005
                        -----------------------------------------
Magnitude (a.u.)       :      0.91932
Magnitude (Debye)      :      2.33671

Rotational constants in cm-1:     0.174815     0.070550     0.053871
Rotational constants in MHz :  5240.829400  2115.034151  1615.015058

                             ****ORCA TERMINATED NORMALLY****
TOTAL RUN TIME: 0 days 0 hours 8 minutes 44 seconds 677 msec
