                         Program Version 4.2.1 -  RELEASE  -
|  1> %pal
|  2>  nprocs 32
|  3> end
|  4> !RI-MP2 aug-cc-pVTZ aug-cc-pVTZ/C TightSCF
|  5> %maxcore 4500
|  6> *xyzfile 0 1  10_1P.xyz
|  7>
|  8>
|  9>                          ****END OF INPUT****

CARTESIAN COORDINATES (ANGSTROEM)
---------------------------------
  C      1.589184    1.109703    0.633758
  C      0.530021   -0.036584    0.696989
  C      0.747814    2.380556    0.724325
  C      2.405219    1.129550   -0.661345
  C      1.086809   -1.334814    0.118106
  C     -0.753144    0.534902   -0.012858
  C      0.062718   -0.262845    2.152337
  C      1.878035   -1.238472   -1.163878
  C      3.017363   -0.220430   -1.025384
  C      4.074307   -0.685895   -0.025464
  C     -0.471984    2.043652   -0.106278
  C     -1.959013    0.223914    0.957399
  C     -1.405551   -0.666427    2.065198
  N     -3.028228   -0.299372    0.078399
  O     -2.765300    0.469833   -1.100644
  C     -1.582706   -1.468275   -1.422847
  C     -2.757568   -1.655784   -0.432878
  H      2.263063    1.009892    1.487119
  H      1.238783    3.274492    0.341702
  H      0.424216    2.589686    1.747586
  H      3.186226    1.889810   -0.569663
  H      1.761673    1.454466   -1.487826
  O      0.941267   -2.392596    0.686460
  H      0.160672    0.670279    2.711900
  H      0.671943   -1.014401    2.652168
  H      1.209581   -0.913184   -1.966911
  H      2.243486   -2.236333   -1.408187
  H      3.497636   -0.123344   -2.003342
  H      4.524224   -1.627475   -0.346702
  H      3.655098   -0.853242    0.969690
  H      4.872118    0.054240    0.069024
  O     -1.085947    2.823167   -0.780779
  H     -1.459604   -1.720479    1.801481
  H     -1.939444   -0.532131    3.006374
  H     -2.550358   -2.350803    0.375815
  H     -3.660515   -1.988337   -0.941088
  C     -1.401525    0.048315   -1.327235
  H     -1.875445   -1.733364   -2.438690
  H     -0.715498   -2.062838   -1.157964
  H     -2.351037    1.153646    1.371598
  H     -1.039258    0.545402   -2.222844

 Total Charge           Charge          ....    0
 Multiplicity           Mult            ....    1
 Number of Electrons    NEL             ....  148
 Basis Dimension        Dim             .... 1403

ORBITAL ENERGIES
----------------

  NO   OCC          E(Eh)            E(eV)
   0   2.0000     -20.580618      -560.0271
   1   2.0000     -20.557414      -559.3957
   2   2.0000     -20.550377      -559.2042
   3   2.0000     -15.608627      -424.7323
   4   2.0000     -11.339674      -308.5682
   5   2.0000     -11.330904      -308.3296
   6   2.0000     -11.294521      -307.3395
   7   2.0000     -11.270657      -306.6902
   8   2.0000     -11.264702      -306.5281
   9   2.0000     -11.259154      -306.3771
  10   2.0000     -11.256709      -306.3106
  11   2.0000     -11.253454      -306.2221
  12   2.0000     -11.252410      -306.1936
  13   2.0000     -11.244353      -305.9744
  14   2.0000     -11.242732      -305.9303
  15   2.0000     -11.242176      -305.9152
  16   2.0000     -11.234707      -305.7119
  17   2.0000     -11.230524      -305.5981
  18   2.0000     -11.230460      -305.5963
  19   2.0000     -11.230253      -305.5907
  20   2.0000      -1.437441       -39.1147
  21   2.0000      -1.404712       -38.2242
  22   2.0000      -1.396842       -38.0100
  23   2.0000      -1.191025       -32.4094
  24   2.0000      -1.146692       -31.2031
  25   2.0000      -1.117520       -30.4093
  26   2.0000      -1.075029       -29.2530
  27   2.0000      -1.061795       -28.8929
  28   2.0000      -1.021688       -27.8015
  29   2.0000      -1.003303       -27.3013
  30   2.0000      -0.967952       -26.3393
  31   2.0000      -0.960711       -26.1423
  32   2.0000      -0.889456       -24.2033
  33   2.0000      -0.851941       -23.1825
  34   2.0000      -0.833696       -22.6860
  35   2.0000      -0.819785       -22.3075
  36   2.0000      -0.796892       -21.6845
  37   2.0000      -0.779338       -21.2069
  38   2.0000      -0.748435       -20.3660
  39   2.0000      -0.721724       -19.6391
  40   2.0000      -0.703816       -19.1518
  41   2.0000      -0.695724       -18.9316
  42   2.0000      -0.672044       -18.2872
  43   2.0000      -0.667001       -18.1500
  44   2.0000      -0.657166       -17.8824
  45   2.0000      -0.647771       -17.6268
  46   2.0000      -0.636337       -17.3156
  47   2.0000      -0.619895       -16.8682
  48   2.0000      -0.616677       -16.7806
  49   2.0000      -0.607636       -16.5346
  50   2.0000      -0.601577       -16.3697
  51   2.0000      -0.584659       -15.9094
  52   2.0000      -0.571520       -15.5519
  53   2.0000      -0.563459       -15.3325
  54   2.0000      -0.556799       -15.1513
  55   2.0000      -0.549468       -14.9518
  56   2.0000      -0.545200       -14.8356
  57   2.0000      -0.539824       -14.6894
  58   2.0000      -0.529712       -14.4142
  59   2.0000      -0.518624       -14.1125
  60   2.0000      -0.514526       -14.0010
  61   2.0000      -0.507845       -13.8192
  62   2.0000      -0.501634       -13.6501
  63   2.0000      -0.500240       -13.6122
  64   2.0000      -0.485517       -13.2116
  65   2.0000      -0.481943       -13.1143
  66   2.0000      -0.475924       -12.9505
  67   2.0000      -0.468862       -12.7584
  68   2.0000      -0.461271       -12.5518
  69   2.0000      -0.454720       -12.3736
  70   2.0000      -0.438517       -11.9327
  71   2.0000      -0.416750       -11.3404
  72   2.0000      -0.390689       -10.6312
  73   2.0000      -0.387430       -10.5425
  74   0.0000       0.019880         0.5410
  75   0.0000       0.024531         0.6675
  76   0.0000       0.029268         0.7964
  77   0.0000       0.032103         0.8736
  78   0.0000       0.038433         1.0458

MULLIKEN ATOMIC CHARGES
-----------------------
   0 C :   -0.203834
   1 C :    2.693951
   2 C :   -0.862888
   3 C :   -0.613847
   4 C :    1.616075
   5 C :    1.820009
   6 C :   -1.771042
   7 C :   -0.812344
   8 C :   -0.042695
   9 C :   -1.130419
  10 C :    0.608911
  11 C :    0.176084
  12 C :   -0.687734
  13 N :   -0.841817
  14 O :   -1.059529
  15 C :   -0.841940
  16 C :   -0.461010
  17 H :    0.452752
  18 H :    0.183050
  19 H :    0.312441
  20 H :    0.433774
  21 H :    0.018987
  22 O :   -1.738699
  23 H :    0.097688
  24 H :    0.161699
  25 H :    0.155668
  26 H :    0.395509
  27 H :    0.444852
  28 H :    0.199208
  29 H :    0.364611
  30 H :    0.208271
  31 O :   -1.474883
  32 H :    0.089388
  33 H :    0.385471
  34 H :    0.270610
  35 H :    0.409544
  36 C :   -0.165238
  37 H :    0.235346
  38 H :    0.222473
  39 H :    0.334688
  40 H :    0.416858
Sum of atomic charges:   -0.0000000

LOEWDIN ATOMIC CHARGES
----------------------
   0 C :    0.030523
   1 C :   -0.190615
   2 C :    0.340395
   3 C :    0.321474
   4 C :   -0.479847
   5 C :   -0.174161
   6 C :    0.322622
   7 C :    0.321446
   8 C :   -0.005325
   9 C :    0.607979
  10 C :   -0.473223
  11 C :   -0.067895
  12 C :    0.355780
  13 N :    0.151218
  14 O :    0.519251
  15 C :    0.349505
  16 C :    0.212082
  17 H :   -0.116492
  18 H :   -0.130616
  19 H :   -0.135421
  20 H :   -0.119472
  21 H :   -0.127583
  22 O :    0.544457
  23 H :   -0.147445
  24 H :   -0.141298
  25 H :   -0.144094
  26 H :   -0.134791
  27 H :   -0.117645
  28 H :   -0.152697
  29 H :   -0.163672
  30 H :   -0.152582
  31 O :    0.517175
  32 H :   -0.180661
  33 H :   -0.119777
  34 H :   -0.170988
  35 H :   -0.143258
  36 C :   -0.204879
  37 H :   -0.132936
  38 H :   -0.209420
  39 H :   -0.125124
  40 H :   -0.131988

  Mayer bond orders larger than 0.100000
B(  0-C ,  1-C ) :   0.3578 B(  0-C ,  2-C ) :   1.0471 B(  0-C ,  3-C ) :   0.7731
B(  0-C ,  4-C ) :  -0.1826 B(  0-C ,  5-C ) :   0.2910 B(  0-C ,  6-C ) :  -0.1351
B(  0-C ,  9-C ) :   0.1008 B(  0-C , 17-H ) :   0.8911 B(  1-C ,  3-C ) :  -0.1458
B(  1-C ,  4-C ) :   0.9674 B(  1-C ,  5-C ) :   0.7087 B(  1-C ,  6-C ) :  -0.3821
B(  1-C ,  9-C ) :  -0.1204 B(  1-C , 10-C ) :   0.2743 B(  1-C , 11-C ) :  -0.1473
B(  1-C , 12-C ) :  -0.5986 B(  1-C , 16-C ) :  -0.1102 B(  1-C , 21-H ) :  -0.1007
B(  1-C , 22-O ) :  -0.3497 B(  1-C , 23-H ) :  -0.2675 B(  1-C , 24-H ) :  -0.2236
B(  1-C , 32-H ) :  -0.1911 B(  2-C ,  5-C ) :  -0.3427 B(  2-C , 10-C ) :   1.1104
B(  2-C , 17-H ) :  -0.1633 B(  2-C , 18-H ) :   0.9669 B(  2-C , 19-H ) :   1.1296
B(  3-C ,  8-C ) :   1.0110 B(  3-C , 17-H ) :  -0.1184 B(  3-C , 20-H ) :   0.7821
B(  3-C , 21-H ) :   1.3829 B(  4-C ,  5-C ) :   0.1645 B(  4-C ,  6-C ) :  -0.1107
B(  4-C ,  7-C ) :   1.0207 B(  4-C , 15-C ) :  -0.1994 B(  4-C , 22-O ) :  -0.6294
B(  5-C ,  6-C ) :   0.2844 B(  5-C , 10-C ) :   0.7391 B(  5-C , 11-C ) :   0.8406
B(  5-C , 12-C ) :   0.3676 B(  5-C , 13-N ) :   0.1721 B(  5-C , 14-O ) :  -0.1326
B(  5-C , 15-C ) :   0.3042 B(  5-C , 31-O ) :  -0.1446 B(  6-C , 12-C ) :   1.3581
B(  6-C , 22-O ) :   0.3087 B(  6-C , 23-H ) :   1.2653 B(  6-C , 24-H ) :   1.2487
B(  7-C ,  8-C ) :   0.9775 B(  7-C , 22-O ) :   0.4230 B(  7-C , 25-H ) :   1.2225
B(  7-C , 26-H ) :   0.7079 B(  8-C ,  9-C ) :   0.7704 B(  8-C , 27-H ) :   0.8309
B(  9-C , 28-H ) :   1.0880 B(  9-C , 29-H ) :   0.9219 B(  9-C , 30-H ) :   1.0576
B( 10-C , 31-O ) :  -0.2995 B( 10-C , 36-C ) :  -0.1404 B( 11-C , 12-C ) :   0.7196
B( 11-C , 13-N ) :  -0.1476 B( 11-C , 14-O ) :   0.1075 B( 11-C , 15-C ) :  -0.1257
B( 11-C , 31-O ) :   0.1533 B( 11-C , 36-C ) :   0.4428 B( 11-C , 39-H ) :   1.0714
B( 12-C , 32-H ) :   1.2595 B( 12-C , 33-H ) :   0.8254 B( 13-N , 14-O ) :   0.7394
B( 13-N , 15-C ) :   0.2220 B( 13-N , 16-C ) :   0.7140 B( 13-N , 35-H ) :  -0.1444
B( 13-N , 39-H ) :  -0.2221 B( 14-O , 15-C ) :   0.2024 B( 14-O , 36-C ) :   0.4025
B( 14-O , 40-H ) :  -0.2476 B( 15-C , 16-C ) :   1.0814 B( 15-C , 36-C ) :   0.5990
B( 15-C , 37-H ) :   0.9264 B( 15-C , 38-H ) :   0.9795 B( 16-C , 34-H ) :   1.0297
B( 16-C , 35-H ) :   0.8718 B( 22-O , 38-H ) :   0.1374 B( 31-O , 36-C ) :   0.3566
B( 36-C , 40-H ) :   1.0079

MP2 TOTAL ENERGY:     -901.014690597 Eh
FINAL SINGLE POINT ENERGY      -901.014690596543

DIPOLE MOMENT
-------------
                                X             Y             Z
Electronic contribution:    -12.28111       4.15519      -1.66989
Nuclear contribution   :     14.18696      -4.54420       1.99154
                        -----------------------------------------
Total Dipole Moment    :      1.90585      -0.38901       0.32165
                        -----------------------------------------
Magnitude (a.u.)       :      1.97157
Magnitude (Debye)      :      5.01132

Rotational constants in cm-1:     0.019635     0.011773     0.010144
Rotational constants in MHz :   588.656563   352.932882   304.102310

                             ****ORCA TERMINATED NORMALLY****
TOTAL RUN TIME: 0 days 1 hours 14 minutes 30 seconds 443 msec
