                         Program Version 4.2.1 -  RELEASE  -
|  1> %pal
|  2>  nprocs 32
|  3> end
|  4> !RI-MP2 aug-cc-pVTZ aug-cc-pVTZ/C TightSCF
|  5> %maxcore 4500
|  6> *xyzfile 0 1  02_5TS.xyz
|  7>
|  8>
|  9>                          ****END OF INPUT****

CARTESIAN COORDINATES (ANGSTROEM)
---------------------------------
  C     -1.585831   -1.540798    0.509369
  C     -2.996923   -0.962574    0.309291
  C     -2.774819    0.550866    0.196464
  C     -1.396081    0.660737   -0.428213
  C     -0.713531   -0.570177   -0.262989
  H     -1.315286   -1.537469    1.571496
  H     -1.492356   -2.567788    0.153565
  H     -3.683613   -1.234699    1.111345
  H     -3.414017   -1.339376   -0.627850
  H     -3.540412    1.061970   -0.389568
  H     -2.748767    1.018799    1.188135
  C      0.619837   -0.674299   -0.435501
  H     -1.388044    2.550150   -0.755601
  C      1.719802   -1.259995   -0.842306
  H      1.681832   -1.991787   -1.643518
  C      3.039223   -0.850638   -0.256713
  H      3.645849   -0.362405   -1.027084
  H      3.609736   -1.713788    0.096289
  C      2.741215    0.118275    0.892086
  H      2.480254   -0.450330    1.788816
  H      3.609297    0.734964    1.132374
  C      1.590739    0.962278    0.511474
  C      0.986432    2.016400    0.332600
  H      0.766779    3.057242    0.359712
  N     -0.798805    1.724867   -0.873070

 Total Charge           Charge          ....    0
 Multiplicity           Mult            ....    1
 Number of Electrons    NEL             ....   86
 Basis Dimension        Dim             ....  851

ORBITAL ENERGIES
----------------

  NO   OCC          E(Eh)            E(eV)
   0   2.0000     -15.539827      -422.8602
   1   2.0000     -11.262588      -306.4706
   2   2.0000     -11.260490      -306.4135
   3   2.0000     -11.244208      -305.9705
   4   2.0000     -11.233434      -305.6773
   5   2.0000     -11.232344      -305.6476
   6   2.0000     -11.231525      -305.6253
   7   2.0000     -11.226920      -305.5000
   8   2.0000     -11.224443      -305.4326
   9   2.0000     -11.223157      -305.3976
  10   2.0000     -11.216447      -305.2150
  11   2.0000     -11.215026      -305.1764
  12   2.0000      -1.208696       -32.8903
  13   2.0000      -1.123415       -30.5697
  14   2.0000      -1.102233       -29.9933
  15   2.0000      -1.028259       -27.9804
  16   2.0000      -1.005168       -27.3520
  17   2.0000      -0.948543       -25.8112
  18   2.0000      -0.927432       -25.2367
  19   2.0000      -0.865441       -23.5499
  20   2.0000      -0.803778       -21.8719
  21   2.0000      -0.771709       -20.9993
  22   2.0000      -0.716867       -19.5069
  23   2.0000      -0.674249       -18.3473
  24   2.0000      -0.671601       -18.2752
  25   2.0000      -0.645620       -17.5682
  26   2.0000      -0.631982       -17.1971
  27   2.0000      -0.626617       -17.0511
  28   2.0000      -0.578394       -15.7389
  29   2.0000      -0.559844       -15.2341
  30   2.0000      -0.546933       -14.8828
  31   2.0000      -0.537045       -14.6137
  32   2.0000      -0.528958       -14.3937
  33   2.0000      -0.516841       -14.0639
  34   2.0000      -0.509403       -13.8616
  35   2.0000      -0.504323       -13.7233
  36   2.0000      -0.485116       -13.2007
  37   2.0000      -0.455418       -12.3926
  38   2.0000      -0.423563       -11.5257
  39   2.0000      -0.384941       -10.4748
  40   2.0000      -0.356730        -9.7071
  41   2.0000      -0.340776        -9.2730
  42   2.0000      -0.276368        -7.5204
  43   0.0000       0.028953         0.7878
  44   0.0000       0.030249         0.8231
  45   0.0000       0.033523         0.9122
  46   0.0000       0.037051         1.0082
  47   0.0000       0.043701         1.1892

MULLIKEN ATOMIC CHARGES
-----------------------
   0 C :   -0.916929
   1 C :   -0.593894
   2 C :   -0.331026
   3 C :   -0.013772
   4 C :    1.019694
   5 H :    0.200365
   6 H :    0.240121
   7 H :    0.316932
   8 H :    0.222658
   9 H :    0.372632
  10 H :    0.213202
  11 C :    1.302766
  12 H :   -0.016053
  13 C :   -1.669775
  14 H :    0.206443
  15 C :   -0.347405
  16 H :    0.259512
  17 H :    0.318223
  18 C :   -0.420999
  19 H :    0.221543
  20 H :    0.253833
  21 C :    0.986519
  22 C :   -1.310648
  23 H :    0.289814
  24 N :   -0.803758
Sum of atomic charges:    0.0000000

LOEWDIN ATOMIC CHARGES
----------------------
   0 C :    0.291191
   1 C :    0.299421
   2 C :    0.315668
   3 C :   -0.314898
   4 C :   -0.119991
   5 H :   -0.139385
   6 H :   -0.144230
   7 H :   -0.143065
   8 H :   -0.143932
   9 H :   -0.143385
  10 H :   -0.135500
  11 C :    0.081868
  12 H :   -0.382646
  13 C :    0.223732
  14 H :   -0.174373
  15 C :    0.253591
  16 H :   -0.144093
  17 H :   -0.147724
  18 C :    0.232352
  19 H :   -0.148441
  20 H :   -0.149729
  21 C :   -0.015023
  22 C :    0.361325
  23 H :   -0.251314
  24 N :    0.638582

  Mayer bond orders larger than 0.100000
B(  0-C ,  1-C ) :   1.0896 B(  0-C ,  3-C ) :   0.1344 B(  0-C ,  4-C ) :   0.8984
B(  0-C ,  5-H ) :   1.0035 B(  0-C ,  6-H ) :   1.0041 B(  0-C , 11-C ) :  -0.2136
B(  1-C ,  2-C ) :   1.0132 B(  1-C ,  3-C ) :   0.1004 B(  1-C ,  4-C ) :  -0.1215
B(  1-C ,  7-H ) :   0.9260 B(  1-C ,  8-H ) :   0.9853 B(  2-C ,  3-C ) :   0.7513
B(  2-C ,  9-H ) :   0.9162 B(  2-C , 10-H ) :   0.9736 B(  3-C ,  4-C ) :   0.5924
B(  3-C ,  9-H ) :  -0.1235 B(  3-C , 11-C ) :   0.4625 B(  3-C , 13-C ) :   0.1153
B(  3-C , 21-C ) :   0.1327 B(  3-C , 22-C ) :   0.1098 B(  3-C , 24-N ) :   0.7992
B(  4-C , 11-C ) :   0.6567 B(  4-C , 13-C ) :   0.2283 B(  4-C , 14-H ) :  -0.1968
B(  4-C , 24-N ) :  -0.1751 B( 11-C , 13-C ) :  -0.1386 B( 11-C , 21-C ) :   0.3860
B( 12-H , 24-N ) :   1.1161 B( 13-C , 14-H ) :   1.3082 B( 13-C , 15-C ) :   0.7846
B( 13-C , 18-C ) :   0.2606 B( 15-C , 16-H ) :   0.9735 B( 15-C , 17-H ) :   0.9325
B( 15-C , 18-C ) :   1.0623 B( 18-C , 19-H ) :   0.9739 B( 18-C , 20-H ) :   0.9941
B( 18-C , 21-C ) :   0.7802 B( 18-C , 22-C ) :  -0.1121 B( 21-C , 22-C ) :   0.9317
B( 21-C , 23-H ) :  -0.3340 B( 22-C , 23-H ) :   1.4460 B( 22-C , 24-N ) :   0.3341

MP2 TOTAL ENERGY:     -480.578097627 Eh
FINAL SINGLE POINT ENERGY      -480.578097626550

DIPOLE MOMENT
-------------
                                X             Y             Z
Electronic contribution:      1.70203       2.57972      -2.43409
Nuclear contribution   :     -1.81914      -2.80402       2.99531
                        -----------------------------------------
Total Dipole Moment    :     -0.11712      -0.22429       0.56123
                        -----------------------------------------
Magnitude (a.u.)       :      0.61563
Magnitude (Debye)      :      1.56481

Rotational constants in cm-1:     0.059250     0.023673     0.019175
Rotational constants in MHz :  1776.259744   709.695404   574.860082

                             ****ORCA TERMINATED NORMALLY****
TOTAL RUN TIME: 0 days 0 hours 13 minutes 8 seconds 176 msec
