                         Program Version 4.2.1 -  RELEASE  -
|  1> %pal
|  2>  nprocs 32
|  3> end
|  4> !RI-MP2 aug-cc-pVTZ aug-cc-pVTZ/C TightSCF
|  5> %maxcore 4500
|  6> *xyzfile 0 1  10_55R.xyz
|  7>
|  8>
|  9>                          ****END OF INPUT****

CARTESIAN COORDINATES (ANGSTROEM)
---------------------------------
  S     -1.232660   -0.235035    0.141959
  C     -0.254425   -1.390641   -0.934291
  C      0.857753   -2.243894   -0.272366
  C      1.767207   -1.315069    0.482543
  C      1.312009    1.806067   -0.440986
  C      0.011509    2.410494   -0.011708
  C     -1.119820    1.487319   -0.504020
  C      2.361568   -0.302604   -0.155653
  C      2.004770    1.009206    0.377326
  O     -0.713826   -0.245790    1.507598
  O     -2.625117   -0.605475   -0.107077
  H     -1.039831   -2.011181   -1.364814
  H      0.170658   -0.769919   -1.722763
  H      1.363440   -2.769860   -1.088104
  H      0.417691   -2.995874    0.381908
  H     -0.182987    3.398897   -0.439597
  H     -0.038671    2.498928    1.074460
  H     -1.126804    1.395083   -1.592004
  H     -2.099500    1.862508   -0.202594
  H      1.426792    1.668785   -1.515614
  H      1.843284    1.075536    1.448498
  H      2.537500   -0.364787   -1.227993
  H      1.519093   -1.182700    1.528029

 Total Charge           Charge          ....    0
 Multiplicity           Mult            ....    1
 Number of Electrons    NEL             ....   92
 Basis Dimension        Dim             ....  786

ORBITAL ENERGIES
----------------

  NO   OCC          E(Eh)            E(eV)
   0   2.0000     -92.176541     -2508.2512
   1   2.0000     -20.540966      -558.9481
   2   2.0000     -20.535876      -558.8096
   3   2.0000     -11.286720      -307.1273
   4   2.0000     -11.284530      -307.0677
   5   2.0000     -11.262925      -306.4798
   6   2.0000     -11.258287      -306.3536
   7   2.0000     -11.254802      -306.2587
   8   2.0000     -11.249159      -306.1052
   9   2.0000     -11.239428      -305.8404
  10   2.0000     -11.237504      -305.7880
  11   2.0000      -9.146230      -248.8816
  12   2.0000      -6.830380      -185.8641
  13   2.0000      -6.830342      -185.8631
  14   2.0000      -6.830112      -185.8568
  15   2.0000      -1.437456       -39.1152
  16   2.0000      -1.327648       -36.1271
  17   2.0000      -1.147816       -31.2337
  18   2.0000      -1.104575       -30.0570
  19   2.0000      -1.071411       -29.1546
  20   2.0000      -0.990154       -26.9435
  21   2.0000      -0.957130       -26.0448
  22   2.0000      -0.870361       -23.6837
  23   2.0000      -0.814564       -22.1654
  24   2.0000      -0.780904       -21.2495
  25   2.0000      -0.763681       -20.7808
  26   2.0000      -0.700522       -19.0622
  27   2.0000      -0.661241       -17.9933
  28   2.0000      -0.650418       -17.6988
  29   2.0000      -0.646562       -17.5939
  30   2.0000      -0.641826       -17.4650
  31   2.0000      -0.626522       -17.0485
  32   2.0000      -0.593715       -16.1558
  33   2.0000      -0.587500       -15.9867
  34   2.0000      -0.582707       -15.8563
  35   2.0000      -0.559274       -15.2186
  36   2.0000      -0.547584       -14.9005
  37   2.0000      -0.527334       -14.3495
  38   2.0000      -0.520311       -14.1584
  39   2.0000      -0.502907       -13.6848
  40   2.0000      -0.483416       -13.1544
  41   2.0000      -0.480750       -13.0819
  42   2.0000      -0.462928       -12.5969
  43   2.0000      -0.427474       -11.6322
  44   2.0000      -0.423744       -11.5307
  45   2.0000      -0.301054        -8.1921
  46   0.0000       0.021659         0.5894
  47   0.0000       0.028157         0.7662
  48   0.0000       0.036314         0.9882
  49   0.0000       0.037169         1.0114
  50   0.0000       0.047666         1.2970

MULLIKEN ATOMIC CHARGES
-----------------------
   0 S :    2.225700
   1 C :   -0.583731
   2 C :   -0.278151
   3 C :   -0.430762
   4 C :   -0.489316
   5 C :   -0.250128
   6 C :   -0.653239
   7 C :   -0.360996
   8 C :   -0.258731
   9 O :   -1.070893
  10 O :   -1.131879
  11 H :    0.223354
  12 H :    0.241058
  13 H :    0.268008
  14 H :    0.262260
  15 H :    0.312494
  16 H :    0.189301
  17 H :    0.211986
  18 H :    0.273933
  19 H :    0.214022
  20 H :    0.329449
  21 H :    0.399965
  22 H :    0.356297
Sum of atomic charges:   -0.0000000

LOEWDIN ATOMIC CHARGES
----------------------
   0 S :    0.364135
   1 C :    0.246815
   2 C :    0.258594
   3 C :    0.185392
   4 C :    0.189007
   5 C :    0.238355
   6 C :    0.228737
   7 C :    0.180609
   8 C :    0.180473
   9 O :    0.056652
  10 O :    0.027885
  11 H :   -0.203156
  12 H :   -0.207005
  13 H :   -0.147922
  14 H :   -0.153868
  15 H :   -0.150281
  16 H :   -0.160442
  17 H :   -0.186537
  18 H :   -0.199737
  19 H :   -0.181009
  20 H :   -0.175357
  21 H :   -0.176775
  22 H :   -0.214566

  Mayer bond orders larger than 0.100000
B(  0-S ,  1-C ) :   0.9311 B(  0-S ,  6-C ) :   0.9415 B(  0-S ,  9-O ) :   1.1108
B(  0-S , 10-O ) :   0.7885 B(  1-C ,  2-C ) :   0.8594 B(  1-C , 11-H ) :   0.8879
B(  1-C , 12-H ) :   1.0145 B(  2-C ,  3-C ) :   0.8878 B(  2-C , 13-H ) :   0.9780
B(  2-C , 14-H ) :   0.9510 B(  3-C ,  4-C ) :   0.1139 B(  3-C ,  7-C ) :   1.5062
B(  3-C ,  8-C ) :  -0.1293 B(  3-C , 22-H ) :   0.9208 B(  4-C ,  5-C ) :   0.8678
B(  4-C ,  8-C ) :   1.4044 B(  4-C , 19-H ) :   1.0368 B(  5-C ,  6-C ) :   0.9246
B(  5-C , 15-H ) :   0.9275 B(  5-C , 16-H ) :   1.0096 B(  6-C ,  9-O ) :   0.1654
B(  6-C , 17-H ) :   0.9888 B(  6-C , 18-H ) :   0.9156 B(  7-C ,  8-C ) :   0.9406
B(  7-C , 21-H ) :   0.8373 B(  8-C , 20-H ) :   0.9478 B( 10-O , 11-H ) :   0.1298

MP2 TOTAL ENERGY:     -859.250494050 Eh
FINAL SINGLE POINT ENERGY      -859.250494050473

DIPOLE MOMENT
-------------
                                X             Y             Z
Electronic contribution:     -3.98252      -1.45660       3.34857
Nuclear contribution   :      4.79106       1.80490      -4.71765
                        -----------------------------------------
Total Dipole Moment    :      0.80854       0.34829      -1.36908
                        -----------------------------------------
Magnitude (a.u.)       :      1.62770
Magnitude (Debye)      :      4.13730

Rotational constants in cm-1:     0.043375     0.036164     0.024060
Rotational constants in MHz :  1300.339701  1084.165332   721.290627

                             ****ORCA TERMINATED NORMALLY****
TOTAL RUN TIME: 0 days 0 hours 9 minutes 29 seconds 611 msec
