                         Program Version 4.2.1 -  RELEASE  -
|  1> %pal
|  2>  nprocs 32
|  3> end
|  4> !RI-MP2 aug-cc-pVTZ aug-cc-pVTZ/C TightSCF
|  5> %maxcore 4500
|  6> *xyzfile 0 2  01_14P.xyz
|  7>
|  8>
|  9>                          ****END OF INPUT****

CARTESIAN COORDINATES (ANGSTROEM)
---------------------------------
  C     -0.500200   -0.586849   -0.341007
  C      0.778707   -1.349361    0.016692
  C      1.909537   -0.298940    0.001788
  H      0.965704   -2.184947   -0.660926
  H      0.667097   -1.772868    1.020157
  C      1.203851    1.075610    0.002508
  H      2.542624   -0.408146   -0.880509
  H      2.561703   -0.414021    0.869149
  C     -0.272282    0.790161    0.333828
  H      1.257821    1.532131   -0.990254
  H      1.649484    1.784920    0.701383
  C     -1.209486    1.855282   -0.090344
  C     -1.784230   -1.285733    0.070966
  H     -1.805555   -1.445425    1.153434
  H     -1.875578   -2.262321   -0.410870
  H     -2.662709   -0.695722   -0.199377
  H     -2.055500    2.151005    0.515646
  H     -1.111746    2.300127   -1.074647
  H     -0.370418    0.629902    1.415292
  H     -0.518309   -0.415655   -1.425067

 Total Charge           Charge          ....    0
 Multiplicity           Mult            ....    2
 Number of Electrons    NEL             ....   55
 Basis Dimension        Dim             ....  621

ORBITAL ENERGIES
----------------
                 SPIN UP ORBITALS
  NO   OCC          E(Eh)            E(eV)
   0   1.0000     -11.224075      -305.4226
   1   1.0000     -11.219685      -305.3032
   2   1.0000     -11.218764      -305.2781
   3   1.0000     -11.212797      -305.1157
   4   1.0000     -11.212032      -305.0949
   5   1.0000     -11.210492      -305.0530
   6   1.0000     -11.207653      -304.9758
   7   1.0000      -1.133818       -30.8528
   8   1.0000      -1.010495       -27.4970
   9   1.0000      -1.005445       -27.3596
  10   1.0000      -0.906297       -24.6616
  11   1.0000      -0.866594       -23.5812
  12   1.0000      -0.768915       -20.9232
  13   1.0000      -0.754535       -20.5319
  14   1.0000      -0.641361       -17.4523
  15   1.0000      -0.626453       -17.0467
  16   1.0000      -0.599378       -16.3099
  17   1.0000      -0.588959       -16.0264
  18   1.0000      -0.570078       -15.5126
  19   1.0000      -0.538270       -14.6471
  20   1.0000      -0.514735       -14.0066
  21   1.0000      -0.481365       -13.0986
  22   1.0000      -0.478978       -13.0337
  23   1.0000      -0.468128       -12.7384
  24   1.0000      -0.455234       -12.3876
  25   1.0000      -0.449421       -12.2294
  26   1.0000      -0.446559       -12.1515
  27   1.0000      -0.337461        -9.1828
  28   0.0000       0.031213         0.8493
  29   0.0000       0.035712         0.9718
  30   0.0000       0.035854         0.9756
  31   0.0000       0.037323         1.0156
  32   0.0000       0.052842         1.4379

                 SPIN DOWN ORBITALS
  NO   OCC          E(Eh)            E(eV)
   0   1.0000     -11.222224      -305.3723
   1   1.0000     -11.217015      -305.2305
   2   1.0000     -11.212229      -305.1003
   3   1.0000     -11.211304      -305.0751
   4   1.0000     -11.210474      -305.0525
   5   1.0000     -11.207743      -304.9782
   6   1.0000     -11.200875      -304.7913
   7   1.0000      -1.127798       -30.6890
   8   1.0000      -1.003217       -27.2989
   9   1.0000      -0.984368       -26.7860
  10   1.0000      -0.894620       -24.3438
  11   1.0000      -0.829559       -22.5735
  12   1.0000      -0.763077       -20.7644
  13   1.0000      -0.746428       -20.3113
  14   1.0000      -0.636901       -17.3310
  15   1.0000      -0.623754       -16.9732
  16   1.0000      -0.593547       -16.1512
  17   1.0000      -0.586050       -15.9472
  18   1.0000      -0.563633       -15.3372
  19   1.0000      -0.534193       -14.5361
  20   1.0000      -0.512196       -13.9376
  21   1.0000      -0.473489       -12.8843
  22   1.0000      -0.469928       -12.7874
  23   1.0000      -0.459986       -12.5169
  24   1.0000      -0.448038       -12.1917
  25   1.0000      -0.445784       -12.1304
  26   1.0000      -0.440547       -11.9879
  27   0.0000       0.031493         0.8570
  28   0.0000       0.035234         0.9588
  29   0.0000       0.036058         0.9812
  30   0.0000       0.037490         1.0201
  31   0.0000       0.052111         1.4180

MULLIKEN ATOMIC CHARGES AND SPIN POPULATIONS
--------------------------------------------
   0 C :    0.167545    0.070226
   1 C :   -0.642404    0.002906
   2 C :   -0.655452    0.002007
   3 H :    0.369354    0.003669
   4 H :    0.136700   -0.000202
   5 C :   -0.651535    0.054730
   6 H :    0.258045    0.000892
   7 H :    0.248935    0.000014
   8 C :    0.698322   -0.207966
   9 H :    0.120724    0.001993
  10 H :    0.359107   -0.005885
  11 C :   -1.331045    1.250828
  12 C :   -1.038176   -0.005383
  13 H :    0.245711   -0.000916
  14 H :    0.238513   -0.000102
  15 H :    0.277326   -0.005324
  16 H :    0.288523   -0.091131
  17 H :    0.357167   -0.062676
  18 H :    0.262180    0.001399
  19 H :    0.290460   -0.009078
Sum of atomic charges         :   -0.0000000

LOEWDIN ATOMIC CHARGES AND SPIN POPULATIONS
-------------------------------------------
   0 C :   -0.039632    0.036835
   1 C :    0.309013    0.005610
   2 C :    0.326331    0.002698
   3 H :   -0.137544    0.001669
   4 H :   -0.143338    0.000363
   5 C :    0.307955    0.020095
   6 H :   -0.150135    0.000598
   7 H :   -0.150195    0.000195
   8 C :   -0.069703    0.112418
   9 H :   -0.150014    0.001759
  10 H :   -0.140483    0.002548
  11 C :    0.612210    0.556182
  12 C :    0.592885    0.006942
  13 H :   -0.161627    0.000239
  14 H :   -0.160865    0.000500
  15 H :   -0.165370    0.005293
  16 H :   -0.215761    0.121646
  17 H :   -0.209714    0.117230
  18 H :   -0.133738    0.002774
  19 H :   -0.120274    0.004406

  Mayer bond orders larger than 0.100000
B(  0-C ,  1-C ) :   0.8510 B(  0-C ,  8-C ) :   0.8909 B(  0-C , 11-C ) :   0.1409
B(  0-C , 12-C ) :   0.5707 B(  0-C , 19-H ) :   0.8938 B(  1-C ,  2-C ) :   1.0394
B(  1-C ,  3-H ) :   0.8343 B(  1-C ,  4-H ) :   1.0926 B(  1-C ,  5-C ) :   0.1055
B(  2-C ,  5-C ) :   1.0328 B(  2-C ,  6-H ) :   0.9646 B(  2-C ,  7-H ) :   0.9806
B(  5-C ,  8-C ) :   0.8053 B(  5-C ,  9-H ) :   1.1330 B(  5-C , 10-H ) :   0.8556
B(  8-C , 11-C ) :   0.2011 B(  8-C , 18-H ) :   0.9528 B( 11-C , 16-H ) :   0.9907
B( 11-C , 17-H ) :   0.9598 B( 12-C , 13-H ) :   1.0203 B( 12-C , 14-H ) :   1.0340
B( 12-C , 15-H ) :   0.9899

MP2 TOTAL ENERGY:     -273.896526389 Eh
FINAL SINGLE POINT ENERGY      -273.896526389342

DIPOLE MOMENT
-------------
                                X             Y             Z
Electronic contribution:      0.83628       1.19817      -0.04695
Nuclear contribution   :     -0.80290      -1.27657       0.03551
                        -----------------------------------------
Total Dipole Moment    :      0.03338      -0.07840      -0.01143
                        -----------------------------------------
Magnitude (a.u.)       :      0.08597
Magnitude (Debye)      :      0.21852

Rotational constants in cm-1:     0.107864     0.092909     0.054586
Rotational constants in MHz :  3233.684589  2785.328680  1636.459866

                             ****ORCA TERMINATED NORMALLY****
TOTAL RUN TIME: 0 days 0 hours 5 minutes 33 seconds 661 msec
