                         Program Version 4.2.1 -  RELEASE  -
|  1> %pal
|  2>  nprocs 32
|  3> end
|  4> !RI-MP2 aug-cc-pVTZ aug-cc-pVTZ/C TightSCF
|  5> %maxcore 4500
|  6> *xyzfile -1 1  05_6P.xyz
|  7>
|  8>
|  9>                          ****END OF INPUT****

CARTESIAN COORDINATES (ANGSTROEM)
---------------------------------
  C      1.051874   -0.848598   -0.267729
  C      2.598645   -0.805502   -0.564168
  C      3.120016    0.372226    0.281378
  C      2.418841    1.718563    0.046113
  C      0.956912    1.612933   -0.274430
  C      0.312284    0.455326   -0.403339
  H      0.408475    2.545929   -0.392802
  C     -1.163475    0.438406   -0.717988
  C     -2.048393   -0.050235    0.440681
  H     -1.352218   -0.207194   -1.585352
  H     -1.502168    1.441778   -0.979784
  C     -3.516320    0.254910    0.114235
  O     -3.961146    1.368848    0.039359
  O     -4.251921   -0.836174   -0.097995
  N     -1.910568   -1.492712    0.686599
  H     -1.797263    0.538460    1.326851
  O      4.037141    0.320454    1.067845
  O      3.173485   -1.974283   -0.439530
  H     -3.620184   -1.580034    0.065611
  H     -1.074783   -1.863714    0.250474
  H     -1.841358   -1.697033    1.675761
  H      2.584233    2.337228    0.934522
  H      2.945797    2.222498   -0.774052
  H      0.961210   -1.262690    0.744536
  H      0.651768   -1.603074   -0.954904
  H      2.647697   -0.342098   -1.603003

 Total Charge           Charge          ....   -1
 Multiplicity           Mult            ....    1
 Number of Electrons    NEL             ....  106
 Basis Dimension        Dim             ....  920

ORBITAL ENERGIES
----------------

  NO   OCC          E(Eh)            E(eV)
   0   2.0000     -20.511633      -558.1499
   1   2.0000     -20.450911      -556.4976
   2   2.0000     -20.391417      -554.8787
   3   2.0000     -20.251874      -551.0815
   4   2.0000     -15.486911      -421.4203
   5   2.0000     -11.286687      -307.1264
   6   2.0000     -11.198541      -304.7278
   7   2.0000     -11.165029      -303.8159
   8   2.0000     -11.147256      -303.3323
   9   2.0000     -11.126715      -302.7733
  10   2.0000     -11.118717      -302.5557
  11   2.0000     -11.112870      -302.3966
  12   2.0000     -11.106642      -302.2271
  13   2.0000     -11.089729      -301.7669
  14   2.0000      -1.370119       -37.2828
  15   2.0000      -1.272531       -34.6273
  16   2.0000      -1.232545       -33.5393
  17   2.0000      -1.130933       -30.7742
  18   2.0000      -1.078643       -29.3514
  19   2.0000      -1.007555       -27.4170
  20   2.0000      -0.935091       -25.4451
  21   2.0000      -0.873523       -23.7698
  22   2.0000      -0.832418       -22.6513
  23   2.0000      -0.780564       -21.2402
  24   2.0000      -0.717819       -19.5328
  25   2.0000      -0.705652       -19.2018
  26   2.0000      -0.642270       -17.4771
  27   2.0000      -0.624777       -17.0010
  28   2.0000      -0.610422       -16.6104
  29   2.0000      -0.585450       -15.9309
  30   2.0000      -0.551124       -14.9968
  31   2.0000      -0.542092       -14.7511
  32   2.0000      -0.533562       -14.5190
  33   2.0000      -0.517038       -14.0693
  34   2.0000      -0.503882       -13.7113
  35   2.0000      -0.492200       -13.3934
  36   2.0000      -0.472804       -12.8656
  37   2.0000      -0.465023       -12.6539
  38   2.0000      -0.446069       -12.1382
  39   2.0000      -0.437025       -11.8921
  40   2.0000      -0.422273       -11.4906
  41   2.0000      -0.399941       -10.8829
  42   2.0000      -0.389428       -10.5969
  43   2.0000      -0.387195       -10.5361
  44   2.0000      -0.384768       -10.4701
  45   2.0000      -0.369890       -10.0652
  46   2.0000      -0.339430        -9.2364
  47   2.0000      -0.333904        -9.0860
  48   2.0000      -0.325054        -8.8452
  49   2.0000      -0.267049        -7.2668
  50   2.0000      -0.234325        -6.3763
  51   2.0000      -0.163009        -4.4357
  52   2.0000      -0.160596        -4.3700
  53   0.0000       0.097033         2.6404
  54   0.0000       0.103933         2.8282
  55   0.0000       0.107960         2.9377
  56   0.0000       0.116410         3.1677
  57   0.0000       0.122235         3.3262

MULLIKEN ATOMIC CHARGES
-----------------------
   0 C :   -0.568794
   1 C :    0.872805
   2 C :    0.408884
   3 C :   -0.215095
   4 C :   -1.309278
   5 C :    1.396477
   6 H :    0.153963
   7 C :   -0.768811
   8 C :    0.478935
   9 H :    0.304279
  10 H :    0.170992
  11 C :    0.551077
  12 O :   -0.876082
  13 O :   -0.601104
  14 N :   -0.584938
  15 H :    0.408999
  16 O :   -1.047136
  17 O :   -1.307558
  18 H :    0.277821
  19 H :    0.239766
  20 H :    0.023803
  21 H :    0.223860
  22 H :    0.274867
  23 H :    0.173244
  24 H :    0.193314
  25 H :    0.125709
Sum of atomic charges:   -1.0000000

LOEWDIN ATOMIC CHARGES
----------------------
   0 C :    0.235342
   1 C :   -0.645550
   2 C :   -0.527049
   3 C :    0.247050
   4 C :    0.240569
   5 C :   -0.077103
   6 H :   -0.179785
   7 C :    0.282401
   8 C :   -0.091825
   9 H :   -0.130989
  10 H :   -0.169052
  11 C :   -0.798261
  12 O :    0.423810
  13 O :    0.833200
  14 N :    0.891568
  15 H :   -0.129974
  16 O :    0.431120
  17 O :    0.232235
  18 H :   -0.612096
  19 H :   -0.357602
  20 H :   -0.270886
  21 H :   -0.176147
  22 H :   -0.159467
  23 H :   -0.157314
  24 H :   -0.161803
  25 H :   -0.172391

  Mayer bond orders larger than 0.100000
B(  0-C ,  1-C ) :   0.6834 B(  0-C ,  2-C ) :   0.3878 B(  0-C ,  5-C ) :   0.6471
B(  0-C , 16-O ) :   0.1883 B(  0-C , 17-O ) :   0.1524 B(  0-C , 23-H ) :   0.9519
B(  0-C , 24-H ) :   1.0599 B(  1-C ,  2-C ) :   0.6623 B(  1-C ,  4-C ) :   0.1061
B(  1-C , 17-O ) :   0.5078 B(  1-C , 25-H ) :   1.1734 B(  2-C ,  3-C ) :   0.8126
B(  2-C ,  4-C ) :   0.2052 B(  2-C ,  5-C ) :  -0.2346 B(  2-C , 16-O ) :   0.9561
B(  2-C , 17-O ) :   0.1956 B(  3-C ,  4-C ) :   0.8430 B(  3-C ,  5-C ) :   0.1177
B(  3-C , 21-H ) :   0.9892 B(  3-C , 22-H ) :   0.9881 B(  4-C ,  5-C ) :   0.6980
B(  4-C ,  6-H ) :   1.2542 B(  5-C ,  6-H ) :  -0.1886 B(  5-C ,  7-C ) :   0.7044
B(  7-C ,  8-C ) :   0.8907 B(  7-C ,  9-H ) :   1.0466 B(  7-C , 10-H ) :   1.0054
B(  7-C , 11-C ) :   0.1603 B(  7-C , 14-N ) :   0.1176 B(  8-C , 11-C ) :   0.5834
B(  8-C , 14-N ) :   0.5172 B(  8-C , 15-H ) :   0.8884 B( 11-C , 12-O ) :   1.2694
B( 11-C , 13-O ) :   0.7578 B( 11-C , 14-N ) :   0.2285 B( 11-C , 15-H ) :  -0.1185
B( 13-O , 18-H ) :   0.8002 B( 14-N , 18-H ) :   0.1722 B( 14-N , 19-H ) :   0.8284
B( 14-N , 20-H ) :   1.0822

MP2 TOTAL ENERGY:     -704.625804579 Eh
FINAL SINGLE POINT ENERGY      -704.625804579180

DIPOLE MOMENT
-------------
                                X             Y             Z
Electronic contribution:     -2.84595       0.96243       1.58427
Nuclear contribution   :     -1.01068       0.50108      -1.27268
                        -----------------------------------------
Total Dipole Moment    :     -3.85664       1.46351       0.31159
                        -----------------------------------------
Magnitude (a.u.)       :      4.13674
Magnitude (Debye)      :     10.51475

Rotational constants in cm-1:     0.052943     0.010337     0.009207
Rotational constants in MHz :  1587.202526   309.887442   276.007165

                             ****ORCA TERMINATED NORMALLY****
TOTAL RUN TIME: 0 days 0 hours 14 minutes 8 seconds 763 msec
