                         Program Version 4.2.1 -  RELEASE  -
|  1> %pal
|  2>  nprocs 32
|  3> end
|  4> !RI-MP2 aug-cc-pVTZ aug-cc-pVTZ/C TightSCF
|  5> %maxcore 4500
|  6> *xyzfile 0 1  10_35P.xyz
|  7>
|  8>
|  9>                          ****END OF INPUT****

CARTESIAN COORDINATES (ANGSTROEM)
---------------------------------
  C     -1.036896    1.530876   -0.632977
  H     -0.967504    1.803168   -1.707128
  C     -2.028280    0.421520   -0.476746
  C     -0.209983   -1.154071    0.104602
  H      0.012768   -1.227563    1.174228
  H     -0.011060   -2.138592   -0.326905
  C      0.714554   -0.111191   -0.524935
  H      0.607853   -0.186889   -1.625270
  N      0.265310    1.204892   -0.084877
  C     -2.670479   -1.855415    0.043461
  C     -3.470037    0.705585   -0.807398
  C     -3.969652   -1.563233    0.097032
  C     -4.441897   -0.132011    0.031050
  C     -1.655071   -0.808581   -0.115571
  C     -4.602262    0.426056    1.451178
  H     -4.994948    1.446083    1.425726
  H     -5.289735   -0.187185    2.037633
  H     -3.639865    0.439999    1.967473
  C      1.233991    2.254980   -0.327534
  H      1.522683    2.301281   -1.393997
  H      0.771841    3.212459   -0.077081
  C      2.172397   -0.368854   -0.194170
  C      2.997487    0.630344    0.320825
  C      2.458269    2.019280    0.535083
  H      2.180289    2.152815    1.584979
  H      3.232317    2.756314    0.306127
  H     -1.409810    2.422309   -0.117278
  C      4.329139    0.337341    0.609802
  H      4.964137    1.121731    1.008235
  C      2.712945   -1.632201   -0.435152
  H      2.088930   -2.408977   -0.860939
  C      4.851148   -0.924535    0.387637
  H      5.889113   -1.133195    0.617215
  C      4.036692   -1.914979   -0.146786
  H      4.433521   -2.904063   -0.341309
  H     -3.629517    0.489627   -1.872411
  H     -3.691535    1.768877   -0.672826
  H     -5.420788   -0.102929   -0.455894
  H     -4.705729   -2.343139    0.261177
  H     -2.332529   -2.881846    0.145978

 Total Charge           Charge          ....    0
 Multiplicity           Mult            ....    1
 Number of Electrons    NEL             ....  136
 Basis Dimension        Dim             .... 1357

ORBITAL ENERGIES
----------------

  NO   OCC          E(Eh)            E(eV)
   0   2.0000     -15.545363      -423.0108
   1   2.0000     -11.259099      -306.3757
   2   2.0000     -11.251841      -306.1781
   3   2.0000     -11.248063      -306.0754
   4   2.0000     -11.233557      -305.6806
   5   2.0000     -11.232335      -305.6474
   6   2.0000     -11.230133      -305.5875
   7   2.0000     -11.227642      -305.5197
   8   2.0000     -11.226948      -305.5008
   9   2.0000     -11.225881      -305.4718
  10   2.0000     -11.225126      -305.4512
  11   2.0000     -11.223013      -305.3937
  12   2.0000     -11.222847      -305.3892
  13   2.0000     -11.222753      -305.3866
  14   2.0000     -11.222314      -305.3747
  15   2.0000     -11.220553      -305.3268
  16   2.0000     -11.220394      -305.3224
  17   2.0000     -11.218915      -305.2822
  18   2.0000     -11.210449      -305.0518
  19   2.0000      -1.252027       -34.0694
  20   2.0000      -1.155988       -31.4560
  21   2.0000      -1.141852       -31.0714
  22   2.0000      -1.076886       -29.3036
  23   2.0000      -1.056997       -28.7624
  24   2.0000      -1.039490       -28.2860
  25   2.0000      -1.017853       -27.6972
  26   2.0000      -0.991938       -26.9920
  27   2.0000      -0.969183       -26.3728
  28   2.0000      -0.927835       -25.2477
  29   2.0000      -0.881292       -23.9812
  30   2.0000      -0.860540       -23.4165
  31   2.0000      -0.841258       -22.8918
  32   2.0000      -0.819134       -22.2898
  33   2.0000      -0.809503       -22.0277
  34   2.0000      -0.763849       -20.7854
  35   2.0000      -0.741574       -20.1793
  36   2.0000      -0.693078       -18.8596
  37   2.0000      -0.675461       -18.3802
  38   2.0000      -0.662590       -18.0300
  39   2.0000      -0.650460       -17.6999
  40   2.0000      -0.640594       -17.4314
  41   2.0000      -0.624661       -16.9979
  42   2.0000      -0.616889       -16.7864
  43   2.0000      -0.608751       -16.5650
  44   2.0000      -0.594597       -16.1798
  45   2.0000      -0.593277       -16.1439
  46   2.0000      -0.584232       -15.8978
  47   2.0000      -0.570499       -15.5241
  48   2.0000      -0.562803       -15.3146
  49   2.0000      -0.558446       -15.1961
  50   2.0000      -0.546242       -14.8640
  51   2.0000      -0.534108       -14.5338
  52   2.0000      -0.532554       -14.4915
  53   2.0000      -0.521479       -14.1902
  54   2.0000      -0.513611       -13.9761
  55   2.0000      -0.504293       -13.7225
  56   2.0000      -0.498719       -13.5708
  57   2.0000      -0.485170       -13.2022
  58   2.0000      -0.477530       -12.9943
  59   2.0000      -0.472620       -12.8606
  60   2.0000      -0.460770       -12.5382
  61   2.0000      -0.448861       -12.2141
  62   2.0000      -0.427523       -11.6335
  63   2.0000      -0.404151       -10.9975
  64   2.0000      -0.358659        -9.7596
  65   2.0000      -0.326434        -8.8827
  66   2.0000      -0.319462        -8.6930
  67   2.0000      -0.291451        -7.9308
  68   0.0000       0.026279         0.7151
  69   0.0000       0.028758         0.7825
  70   0.0000       0.029354         0.7988
  71   0.0000       0.034233         0.9315
  72   0.0000       0.037367         1.0168

MULLIKEN ATOMIC CHARGES
-----------------------
   0 C :   -0.643508
   1 H :    0.239237
   2 C :    0.441156
   3 C :   -0.705747
   4 H :    0.290916
   5 H :    0.194133
   6 C :   -0.052211
   7 H :    0.152106
   8 N :   -0.380336
   9 C :   -1.302457
  10 C :   -0.718977
  11 C :   -0.611772
  12 C :    0.322507
  13 C :    1.393683
  14 C :   -1.023116
  15 H :    0.222251
  16 H :    0.270010
  17 H :    0.317341
  18 C :   -0.666569
  19 H :    0.228808
  20 H :    0.364883
  21 C :    1.595803
  22 C :    1.076630
  23 C :   -0.587218
  24 H :    0.209937
  25 H :    0.218452
  26 H :    0.176580
  27 C :   -1.108966
  28 H :    0.029329
  29 C :   -1.133748
  30 H :   -0.058920
  31 C :   -0.288246
  32 H :    0.638135
  33 C :   -0.601167
  34 H :    0.474374
  35 H :    0.194532
  36 H :    0.264366
  37 H :    0.351003
  38 H :    0.301468
  39 H :   -0.084684
Sum of atomic charges:   -0.0000000

LOEWDIN ATOMIC CHARGES
----------------------
   0 C :    0.168271
   1 H :   -0.111963
   2 C :   -0.035491
   3 C :    0.303247
   4 H :   -0.118748
   5 H :   -0.159105
   6 C :   -0.112926
   7 H :   -0.104135
   8 N :    0.315571
   9 C :    0.237093
  10 C :    0.299807
  11 C :    0.245931
  12 C :   -0.041802
  13 C :   -0.060767
  14 C :    0.593148
  15 H :   -0.162055
  16 H :   -0.161508
  17 H :   -0.159132
  18 C :    0.165066
  19 H :   -0.114474
  20 H :   -0.137240
  21 C :   -0.041635
  22 C :   -0.068686
  23 C :    0.299877
  24 H :   -0.131555
  25 H :   -0.143305
  26 H :   -0.139026
  27 C :    0.221719
  28 H :   -0.173123
  29 C :    0.225329
  30 H :   -0.180988
  31 C :    0.198193
  32 H :   -0.183364
  33 C :    0.203156
  34 H :   -0.183175
  35 H :   -0.125634
  36 H :   -0.143394
  37 H :   -0.135739
  38 H :   -0.169354
  39 H :   -0.178082

  Mayer bond orders larger than 0.100000
B(  0-C ,  1-H ) :   1.1514 B(  0-C ,  2-C ) :   0.6125 B(  0-C ,  8-N ) :   0.7580
B(  0-C , 13-C ) :  -0.1490 B(  0-C , 20-H ) :  -0.1036 B(  0-C , 26-H ) :   1.2167
B(  1-H ,  2-C ) :  -0.1695 B(  1-H ,  8-N ) :  -0.1059 B(  2-C , 10-C ) :   0.4483
B(  2-C , 12-C ) :   0.1515 B(  2-C , 13-C ) :   1.9948 B(  2-C , 26-H ) :  -0.1304
B(  2-C , 35-H ) :  -0.1613 B(  2-C , 39-H ) :   0.1258 B(  3-C ,  4-H ) :   1.0207
B(  3-C ,  5-H ) :   1.1945 B(  3-C ,  6-C ) :   0.8744 B(  3-C ,  8-N ) :   0.2033
B(  3-C ,  9-C ) :   0.1410 B(  3-C , 13-C ) :   0.2200 B(  3-C , 22-C ) :  -0.1165
B(  3-C , 29-C ) :   0.1061 B(  6-C ,  7-H ) :   0.9774 B(  6-C ,  8-N ) :   0.8764
B(  6-C , 13-C ) :   0.1310 B(  6-C , 18-C ) :   0.1094 B(  6-C , 21-C ) :   0.8219
B(  6-C , 22-C ) :   0.4351 B(  6-C , 23-C ) :  -0.1218 B(  6-C , 29-C ) :   0.6341
B(  8-N , 13-C ) :  -0.1677 B(  8-N , 18-C ) :   0.9780 B(  8-N , 21-C ) :  -0.2696
B(  8-N , 22-C ) :  -0.1612 B(  9-C , 11-C ) :   1.4570 B(  9-C , 39-H ) :   1.6312
B( 10-C , 11-C ) :   0.1820 B( 10-C , 12-C ) :   1.0112 B( 10-C , 13-C ) :  -0.1045
B( 10-C , 14-C ) :   0.1130 B( 10-C , 35-H ) :   1.1011 B( 10-C , 36-H ) :   0.9963
B( 11-C , 12-C ) :   0.7220 B( 11-C , 14-C ) :   0.1255 B( 11-C , 37-H ) :  -0.1198
B( 11-C , 38-H ) :   1.0340 B( 11-C , 39-H ) :  -0.1485 B( 12-C , 14-C ) :   0.6569
B( 12-C , 37-H ) :   0.9222 B( 13-C , 39-H ) :  -0.2559 B( 14-C , 15-H ) :   1.0176
B( 14-C , 16-H ) :   1.0101 B( 14-C , 17-H ) :   0.9344 B( 18-C , 19-H ) :   1.0481
B( 18-C , 20-H ) :   0.8913 B( 18-C , 22-C ) :   0.1134 B( 18-C , 23-C ) :   1.0349
B( 21-C , 22-C ) :   0.7950 B( 21-C , 23-C ) :   0.2035 B( 21-C , 27-C ) :   0.5131
B( 21-C , 29-C ) :  -0.1934 B( 21-C , 30-H ) :  -0.2556 B( 21-C , 31-C ) :  -0.1162
B( 22-C , 24-H ) :  -0.1251 B( 22-C , 27-C ) :   0.4542 B( 22-C , 29-C ) :  -0.5011
B( 22-C , 30-H ) :   0.1056 B( 22-C , 31-C ) :   0.2058 B( 23-C , 24-H ) :   1.1125
B( 23-C , 25-H ) :   1.1246 B( 23-C , 27-C ) :   0.1227 B( 27-C , 28-H ) :   1.5680
B( 27-C , 31-C ) :   0.9130 B( 28-H , 31-C ) :  -0.1346 B( 29-C , 30-H ) :   1.7680
B( 29-C , 31-C ) :   0.1179 B( 29-C , 33-C ) :   1.3472 B( 31-C , 32-H ) :   0.4845
B( 31-C , 33-C ) :   1.0586 B( 32-H , 33-C ) :  -0.1008 B( 33-C , 34-H ) :   0.7523

MP2 TOTAL ENERGY:     -751.715648532 Eh
FINAL SINGLE POINT ENERGY      -751.715648532000

DIPOLE MOMENT
-------------
                                X             Y             Z
Electronic contribution:     10.37330      -4.17641      -1.31468
Nuclear contribution   :    -10.55517       4.47828       1.09457
                        -----------------------------------------
Total Dipole Moment    :     -0.18187       0.30187      -0.22011
                        -----------------------------------------
Magnitude (a.u.)       :      0.41551
Magnitude (Debye)      :      1.05614

Rotational constants in cm-1:     0.032058     0.007008     0.006118
Rotational constants in MHz :   961.078494   210.082000   183.424634

                             ****ORCA TERMINATED NORMALLY****
TOTAL RUN TIME: 0 days 0 hours 56 minutes 37 seconds 680 msec
