                         Program Version 4.2.1 -  RELEASE  -
|  1> %pal
|  2>  nprocs 32
|  3> end
|  4> !RI-MP2 aug-cc-pVTZ aug-cc-pVTZ/C TightSCF
|  5> %maxcore 4500
|  6> *xyzfile 0 1  04_54P2.xyz
|  7>
|  8>
|  9>                          ****END OF INPUT****

CARTESIAN COORDINATES (ANGSTROEM)
---------------------------------
  H      1.520659    1.763747    0.027283
  N      0.648351    1.262780    0.050174
  C      0.662831   -0.087241    0.006248
  C     -0.709214   -0.744628    0.114273
  O      1.670544   -0.759020   -0.089845
  N     -1.817788    0.186166   -0.070461
  H     -0.758448   -1.165389    1.120981
  H     -0.704927   -1.590402   -0.579257
  H     -2.635352   -0.089278    0.455995
  H     -2.086312    0.265115   -1.043313
  H     -0.235614    1.736955    0.155957

 Total Charge           Charge          ....    0
 Multiplicity           Mult            ....    1
 Number of Electrons    NEL             ....   40
 Basis Dimension        Dim             ....  368

ORBITAL ENERGIES
----------------

  NO   OCC          E(Eh)            E(eV)
   0   2.0000     -20.509690      -558.0970
   1   2.0000     -15.575245      -423.8240
   2   2.0000     -15.566422      -423.5839
   3   2.0000     -11.341743      -308.6245
   4   2.0000     -11.271119      -306.7027
   5   2.0000      -1.375371       -37.4258
   6   2.0000      -1.220990       -33.2248
   7   2.0000      -1.185992       -32.2725
   8   2.0000      -0.957448       -26.0535
   9   2.0000      -0.788656       -21.4604
  10   2.0000      -0.730014       -19.8647
  11   2.0000      -0.694751       -18.9051
  12   2.0000      -0.658131       -17.9087
  13   2.0000      -0.611011       -16.6265
  14   2.0000      -0.593075       -16.1384
  15   2.0000      -0.575634       -15.6638
  16   2.0000      -0.519933       -14.1481
  17   2.0000      -0.442059       -12.0290
  18   2.0000      -0.407155       -11.0792
  19   2.0000      -0.402013       -10.9393
  20   0.0000       0.022143         0.6026
  21   0.0000       0.034607         0.9417
  22   0.0000       0.038844         1.0570
  23   0.0000       0.044685         1.2159
  24   0.0000       0.060318         1.6413

MULLIKEN ATOMIC CHARGES
-----------------------
   0 H :    0.157083
   1 N :   -0.316653
   2 C :    0.416548
   3 C :    0.037428
   4 O :   -0.789757
   5 N :   -0.516511
   6 H :    0.311172
   7 H :    0.308192
   8 H :    0.126310
   9 H :    0.089981
  10 H :    0.176207
Sum of atomic charges:    0.0000000

LOEWDIN ATOMIC CHARGES
----------------------
   0 H :   -0.287110
   1 N :    0.845801
   2 C :   -0.690279
   3 C :    0.169392
   4 O :    0.414970
   5 N :    0.833260
   6 H :   -0.152834
   7 H :   -0.157396
   8 H :   -0.316087
   9 H :   -0.308768
  10 H :   -0.350950

  Mayer bond orders larger than 0.100000
B(  0-H ,  1-N ) :   1.0124 B(  1-N ,  2-C ) :   0.9880 B(  1-N , 10-H ) :   1.0319
B(  2-C ,  3-C ) :   0.6206 B(  2-C ,  4-O ) :   1.4271 B(  2-C ,  5-N ) :   0.1047
B(  3-C ,  5-N ) :   0.7642 B(  3-C ,  6-H ) :   0.9104 B(  3-C ,  7-H ) :   0.9418
B(  5-N ,  8-H ) :   1.0021 B(  5-N ,  9-H ) :   1.0369

MP2 TOTAL ENERGY:     -264.116535655 Eh
FINAL SINGLE POINT ENERGY      -264.116535655057

DIPOLE MOMENT
-------------
                                X             Y             Z
Electronic contribution:      3.37989      -0.23110      -0.13064
Nuclear contribution   :     -4.94903       0.93016       0.13802
                        -----------------------------------------
Total Dipole Moment    :     -1.56914       0.69906       0.00738
                        -----------------------------------------
Magnitude (a.u.)       :      1.71783
Magnitude (Debye)      :      4.36639

Rotational constants in cm-1:     0.323708     0.133575     0.098218
Rotational constants in MHz :  9704.511427  4004.467309  2944.499699

                             ****ORCA TERMINATED NORMALLY****
TOTAL RUN TIME: 0 days 0 hours 0 minutes 40 seconds 567 msec
