                         Program Version 4.2.1 -  RELEASE  -
|  1> %pal
|  2>  nprocs 32
|  3> end
|  4> !RI-MP2 aug-cc-pVTZ aug-cc-pVTZ/C TightSCF
|  5> %maxcore 4500
|  6> *xyzfile 0 1  09_12R1.xyz
|  7>
|  8>
|  9>                          ****END OF INPUT****

CARTESIAN COORDINATES (ANGSTROEM)
---------------------------------
  C     -2.414506   -0.803625    0.004131
  C     -1.248911   -0.713170    0.616173
  S      0.000000    0.393490    0.000000
  O     -0.553839    1.107462   -1.142959
  O      0.553834    1.107463    1.142961
  C      1.248914   -0.713166   -0.616175
  C      2.414508   -0.803623   -0.004130
  H      0.966305   -1.237523   -1.520426
  H      3.197288   -1.445930   -0.388676
  H      2.611909   -0.223410    0.890125
  H     -0.966298   -1.237531    1.520421
  H     -2.611910   -0.223409   -0.890122
  H     -3.197284   -1.445935    0.388676

 Total Charge           Charge          ....    0
 Multiplicity           Mult            ....    1
 Number of Electrons    NEL             ....   62
 Basis Dimension        Dim             ....  464

ORBITAL ENERGIES
----------------

  NO   OCC          E(Eh)            E(eV)
   0   2.0000     -92.184005     -2508.4543
   1   2.0000     -20.544141      -559.0345
   2   2.0000     -20.544121      -559.0340
   3   2.0000     -11.279874      -306.9410
   4   2.0000     -11.279862      -306.9406
   5   2.0000     -11.275542      -306.8231
   6   2.0000     -11.275541      -306.8231
   7   2.0000      -9.153165      -249.0703
   8   2.0000      -6.837840      -186.0671
   9   2.0000      -6.837560      -186.0595
  10   2.0000      -6.837402      -186.0552
  11   2.0000      -1.445401       -39.3314
  12   2.0000      -1.334804       -36.3219
  13   2.0000      -1.108907       -30.1749
  14   2.0000      -1.086574       -29.5672
  15   2.0000      -0.936597       -25.4861
  16   2.0000      -0.837048       -22.7772
  17   2.0000      -0.768679       -20.9168
  18   2.0000      -0.718351       -19.5473
  19   2.0000      -0.683725       -18.6051
  20   2.0000      -0.664706       -18.0876
  21   2.0000      -0.658762       -17.9258
  22   2.0000      -0.615782       -16.7563
  23   2.0000      -0.577549       -15.7159
  24   2.0000      -0.574494       -15.6328
  25   2.0000      -0.500545       -13.6205
  26   2.0000      -0.497063       -13.5258
  27   2.0000      -0.474317       -12.9068
  28   2.0000      -0.444593       -12.0980
  29   2.0000      -0.441985       -12.0270
  30   2.0000      -0.408341       -11.1115
  31   0.0000       0.023044         0.6271
  32   0.0000       0.028938         0.7874
  33   0.0000       0.037246         1.0135
  34   0.0000       0.045522         1.2387
  35   0.0000       0.051238         1.3943

MULLIKEN ATOMIC CHARGES
-----------------------
   0 C :   -1.002030
   1 C :   -0.439110
   2 S :    2.132876
   3 O :   -1.003312
   4 O :   -1.003311
   5 C :   -0.439112
   6 C :   -1.002029
   7 H :    0.501220
   8 H :    0.455057
   9 H :    0.421737
  10 H :    0.501220
  11 H :    0.421737
  12 H :    0.455057
Sum of atomic charges:   -0.0000000

LOEWDIN ATOMIC CHARGES
----------------------
   0 C :    0.483358
   1 C :    0.062402
   2 S :    0.191728
   3 O :    0.033338
   4 O :    0.033338
   5 C :    0.062403
   6 C :    0.483359
   7 H :   -0.229739
   8 H :   -0.209712
   9 H :   -0.235513
  10 H :   -0.229738
  11 H :   -0.235513
  12 H :   -0.209712

  Mayer bond orders larger than 0.100000
B(  0-C ,  1-C ) :   1.4913 B(  0-C , 11-H ) :   0.8288 B(  0-C , 12-H ) :   0.7871
B(  1-C ,  2-S ) :   1.0505 B(  1-C ,  5-C ) :   0.1923 B(  1-C , 10-H ) :   0.6917
B(  2-S ,  3-O ) :   1.1809 B(  2-S ,  4-O ) :   1.1809 B(  2-S ,  5-C ) :   1.0505
B(  5-C ,  6-C ) :   1.4913 B(  5-C ,  7-H ) :   0.6917 B(  6-C ,  8-H ) :   0.7871
B(  6-C ,  9-H ) :   0.8288

MP2 TOTAL ENERGY:     -703.580092552 Eh
FINAL SINGLE POINT ENERGY      -703.580092552437

DIPOLE MOMENT
-------------
                                X             Y             Z
Electronic contribution:     -0.00000       3.69736       0.00000
Nuclear contribution   :      0.00001      -5.70718      -0.00000
                        -----------------------------------------
Total Dipole Moment    :      0.00001      -2.00981      -0.00000
                        -----------------------------------------
Magnitude (a.u.)       :      2.00981
Magnitude (Debye)      :      5.10853

Rotational constants in cm-1:     0.123460     0.059979     0.055702
Rotational constants in MHz :  3701.239318  1798.138895  1669.907424

                             ****ORCA TERMINATED NORMALLY****
TOTAL RUN TIME: 0 days 0 hours 1 minutes 29 seconds 819 msec
