                         Program Version 4.2.1 -  RELEASE  -
|  1> %pal
|  2>  nprocs 32
|  3> end
|  4> !RI-MP2 aug-cc-pVTZ aug-cc-pVTZ/C TightSCF
|  5> %maxcore 4500
|  6> *xyzfile 0 2  04_89P1.xyz
|  7>
|  8>
|  9>                          ****END OF INPUT****

CARTESIAN COORDINATES (ANGSTROEM)
---------------------------------
  C      1.041118   -0.578917    0.338243
  C     -0.020913   -0.898082   -0.665864
  C     -1.282738   -1.579558   -0.279090
  H      0.158294   -0.660911   -1.710237
  C     -2.539675   -0.692194   -0.344448
  H     -1.181133   -1.981221    0.733884
  H     -1.454325   -2.441025   -0.934927
  C     -2.548488    0.500502    0.605338
  H     -3.408077   -1.314766   -0.110973
  H     -2.688352   -0.335635   -1.370374
  N     -1.690226    1.602775    0.136132
  H     -2.187702    0.191241    1.590264
  H     -3.582731    0.838962    0.736796
  C      1.806022    0.689067   -0.069261
  N      1.894487   -1.734924    0.579748
  H      0.548285   -0.342652    1.291074
  H      2.367584   -1.991585   -0.280170
  H     -2.004944    1.916279   -0.777973
  H     -1.781534    2.401799    0.756762
  O      2.995716    0.716121   -0.228067
  O      1.047296    1.772865   -0.223045
  H      2.625702   -1.489625    1.239642
  H      0.083055    1.577378   -0.075544

 Total Charge           Charge          ....    0
 Multiplicity           Mult            ....    2
 Number of Electrons    NEL             ....   79
 Basis Dimension        Dim             ....  759

ORBITAL ENERGIES
----------------
                 SPIN UP ORBITALS
  NO   OCC          E(Eh)            E(eV)
   0   1.0000     -20.574564      -559.8624
   1   1.0000     -20.522501      -558.4456
   2   1.0000     -15.581767      -424.0014
   3   1.0000     -15.542449      -422.9315
   4   1.0000     -11.356840      -309.0353
   5   1.0000     -11.276022      -306.8362
   6   1.0000     -11.272935      -306.7522
   7   1.0000     -11.243433      -305.9494
   8   1.0000     -11.241899      -305.9076
   9   1.0000     -11.234679      -305.7112
  10   1.0000      -1.435395       -39.0591
  11   1.0000      -1.339826       -36.4585
  12   1.0000      -1.218209       -33.1491
  13   1.0000      -1.195774       -32.5387
  14   1.0000      -1.090638       -29.6778
  15   1.0000      -1.013937       -27.5906
  16   1.0000      -0.938635       -25.5416
  17   1.0000      -0.856780       -23.3142
  18   1.0000      -0.810006       -22.0414
  19   1.0000      -0.789841       -21.4927
  20   1.0000      -0.722123       -19.6500
  21   1.0000      -0.695652       -18.9296
  22   1.0000      -0.676126       -18.3983
  23   1.0000      -0.661525       -18.0010
  24   1.0000      -0.647100       -17.6085
  25   1.0000      -0.634059       -17.2536
  26   1.0000      -0.608935       -16.5700
  27   1.0000      -0.596521       -16.2322
  28   1.0000      -0.573930       -15.6174
  29   1.0000      -0.571433       -15.5495
  30   1.0000      -0.558260       -15.1910
  31   1.0000      -0.527321       -14.3491
  32   1.0000      -0.516110       -14.0441
  33   1.0000      -0.506711       -13.7883
  34   1.0000      -0.488294       -13.2872
  35   1.0000      -0.454755       -12.3745
  36   1.0000      -0.451253       -12.2792
  37   1.0000      -0.430483       -11.7140
  38   1.0000      -0.395292       -10.7564
  39   1.0000      -0.349125        -9.5002
  40   0.0000       0.018686         0.5085
  41   0.0000       0.028413         0.7732
  42   0.0000       0.030408         0.8274
  43   0.0000       0.035969         0.9788
  44   0.0000       0.048200         1.3116

                 SPIN DOWN ORBITALS
  NO   OCC          E(Eh)            E(eV)
   0   1.0000     -20.574269      -559.8543
   1   1.0000     -20.522725      -558.4517
   2   1.0000     -15.581300      -423.9887
   3   1.0000     -15.539978      -422.8643
   4   1.0000     -11.356353      -309.0221
   5   1.0000     -11.276180      -306.8404
   6   1.0000     -11.276123      -306.8389
   7   1.0000     -11.241179      -305.8880
   8   1.0000     -11.237927      -305.7995
   9   1.0000     -11.217264      -305.2373
  10   1.0000      -1.434890       -39.0454
  11   1.0000      -1.339803       -36.4579
  12   1.0000      -1.217116       -33.1194
  13   1.0000      -1.186519       -32.2868
  14   1.0000      -1.073253       -29.2047
  15   1.0000      -0.989283       -26.9198
  16   1.0000      -0.937876       -25.5209
  17   1.0000      -0.839099       -22.8331
  18   1.0000      -0.806208       -21.9380
  19   1.0000      -0.768761       -20.9190
  20   1.0000      -0.718204       -19.5433
  21   1.0000      -0.693108       -18.8604
  22   1.0000      -0.666239       -18.1293
  23   1.0000      -0.657164       -17.8823
  24   1.0000      -0.644244       -17.5308
  25   1.0000      -0.629316       -17.1246
  26   1.0000      -0.605670       -16.4811
  27   1.0000      -0.590771       -16.0757
  28   1.0000      -0.569989       -15.5102
  29   1.0000      -0.566866       -15.4252
  30   1.0000      -0.550573       -14.9818
  31   1.0000      -0.512108       -13.9352
  32   1.0000      -0.510834       -13.9005
  33   1.0000      -0.499877       -13.6023
  34   1.0000      -0.485204       -13.2031
  35   1.0000      -0.454926       -12.3792
  36   1.0000      -0.445856       -12.1324
  37   1.0000      -0.426480       -11.6051
  38   1.0000      -0.392459       -10.6794
  39   0.0000       0.018549         0.5047
  40   0.0000       0.028465         0.7746
  41   0.0000       0.030464         0.8290
  42   0.0000       0.035634         0.9697
  43   0.0000       0.047764         1.2997

MULLIKEN ATOMIC CHARGES AND SPIN POPULATIONS
--------------------------------------------
   0 C :    0.940435   -0.187747
   1 C :   -0.640363    1.494509
   2 C :   -0.233139   -0.238243
   3 H :    0.316742   -0.234708
   4 C :   -0.508489    0.077561
   5 H :    0.153937   -0.012909
   6 H :    0.328156    0.062457
   7 C :   -0.239169   -0.003085
   8 H :    0.280442   -0.001975
   9 H :    0.212218   -0.003280
  10 N :   -0.072590   -0.005656
  11 H :    0.238264   -0.000240
  12 H :    0.292584    0.002465
  13 C :    0.335989    0.015295
  14 N :   -0.767976    0.023106
  15 H :    0.294963   -0.000928
  16 H :    0.104428   -0.003578
  17 H :   -0.086620   -0.002003
  18 H :   -0.046926    0.002611
  19 O :   -0.919981   -0.005465
  20 O :   -0.594228    0.005787
  21 H :    0.105617    0.015874
  22 H :    0.505707    0.000154
Sum of atomic charges         :    0.0000000

LOEWDIN ATOMIC CHARGES AND SPIN POPULATIONS
-------------------------------------------
   0 C :   -0.195052    0.099964
   1 C :    0.278752    0.545465
   2 C :    0.267268    0.102895
   3 H :   -0.158735    0.103826
   4 C :    0.290491    0.028909
   5 H :   -0.150744    0.002146
   6 H :   -0.145713    0.017297
   7 C :    0.193622    0.003109
   8 H :   -0.145698    0.004391
   9 H :   -0.142632    0.002433
  10 N :    0.870020    0.010189
  11 H :   -0.142548    0.000052
  12 H :   -0.141577    0.000407
  13 C :   -0.801250    0.009794
  14 N :    0.848805    0.032443
  15 H :   -0.150066    0.007910
  16 H :   -0.317731    0.006246
  17 H :   -0.273628    0.000626
  18 H :   -0.270235    0.001158
  19 O :    0.431033   -0.003164
  20 O :    0.849935    0.007573
  21 H :   -0.320485    0.005594
  22 H :   -0.673832    0.010737

  Mayer bond orders larger than 0.100000
B(  0-C ,  1-C ) :   0.5817 B(  0-C , 13-C ) :   0.6995 B(  0-C , 14-N ) :   0.3423
B(  0-C , 15-H ) :   0.9521 B(  0-C , 19-O ) :  -0.1470 B(  1-C ,  2-C ) :   0.7607
B(  1-C ,  3-H ) :   0.8827 B(  1-C ,  4-C ) :   0.1436 B(  1-C , 13-C ) :   0.1330
B(  2-C ,  4-C ) :   0.8505 B(  2-C ,  5-H ) :   1.0181 B(  2-C ,  6-H ) :   0.9074
B(  4-C ,  7-C ) :   0.8854 B(  4-C ,  8-H ) :   0.9268 B(  4-C ,  9-H ) :   1.0166
B(  7-C , 10-N ) :   0.8134 B(  7-C , 11-H ) :   0.9822 B(  7-C , 12-H ) :   0.9447
B( 10-N , 17-H ) :   1.1630 B( 10-N , 18-H ) :   1.1461 B( 10-N , 22-H ) :   0.1537
B( 13-C , 19-O ) :   1.3862 B( 13-C , 20-O ) :   1.0258 B( 14-N , 16-H ) :   0.9733
B( 14-N , 21-H ) :   0.9752 B( 20-O , 22-H ) :   0.5071

MP2 TOTAL ENERGY:     -495.481270205 Eh
FINAL SINGLE POINT ENERGY      -495.481270205051

DIPOLE MOMENT
-------------
                                X             Y             Z
Electronic contribution:     10.16294       3.55158      -0.89488
Nuclear contribution   :    -12.71394      -3.67215       1.10913
                        -----------------------------------------
Total Dipole Moment    :     -2.55100      -0.12057       0.21425
                        -----------------------------------------
Magnitude (a.u.)       :      2.56282
Magnitude (Debye)      :      6.51416

Rotational constants in cm-1:     0.064884     0.029446     0.022054
Rotational constants in MHz :  1945.175343   882.771851   661.157386

                             ****ORCA TERMINATED NORMALLY****
TOTAL RUN TIME: 0 days 0 hours 12 minutes 6 seconds 6 msec
