                         Program Version 4.2.1 -  RELEASE  -
|  1> %pal
|  2>  nprocs 32
|  3> end
|  4> !RI-MP2 aug-cc-pVTZ aug-cc-pVTZ/C TightSCF
|  5> %maxcore 4500
|  6> *xyzfile 0 1  09_18P.xyz
|  7>
|  8>
|  9>                          ****END OF INPUT****

CARTESIAN COORDINATES (ANGSTROEM)
---------------------------------
  N     -0.319928    0.891959   -0.521109
  C     -1.644435    0.449823   -0.438084
  C     -1.799904   -0.844235   -0.141864
  S     -0.227264   -1.639022    0.094932
  C      0.669470   -0.037955   -0.065209
  C     -2.735545    1.426873   -0.726896
  H     -2.683541    2.293991   -0.064042
  H     -3.710069    0.962502   -0.597181
  H     -2.671505    1.791805   -1.755156
  C     -3.030344   -1.674092   -0.009261
  H     -3.927002   -1.072306   -0.154546
  H     -3.096321   -2.136112    0.980366
  H     -3.050926   -2.480646   -0.748383
  C      0.031780    2.293948   -0.633068
  H     -0.598561    2.771948   -1.380633
  H      1.058581    2.377930   -0.976805
  H     -0.063809    2.833722    0.316387
  C      1.805728   -0.247496   -1.092259
  O      1.783186    0.328878   -2.146637
  C      2.916956   -1.189213   -0.711818
  H      3.410378   -1.533934   -1.618425
  H      2.559608   -2.034604   -0.124345
  H      3.642758   -0.650009   -0.097697
  S      1.500228    0.473744    1.534167
  C      0.033174    0.610770    2.579036
  H     -0.496136   -0.340834    2.605609
  H     -0.631299    1.398086    2.226357
  H      0.383144    0.857642    3.580309

 Total Charge           Charge          ....    0
 Multiplicity           Mult            ....    1
 Number of Electrons    NEL             ....  116
 Basis Dimension        Dim             ....  951

ORBITAL ENERGIES
----------------

  NO   OCC          E(Eh)            E(eV)
   0   2.0000     -91.964237     -2502.4741
   1   2.0000     -91.954647     -2502.2131
   2   2.0000     -20.551253      -559.2280
   3   2.0000     -15.578718      -423.9185
   4   2.0000     -11.343169      -308.6633
   5   2.0000     -11.338623      -308.5396
   6   2.0000     -11.279866      -306.9408
   7   2.0000     -11.254867      -306.2605
   8   2.0000     -11.254822      -306.2593
   9   2.0000     -11.244762      -305.9855
  10   2.0000     -11.239532      -305.8432
  11   2.0000     -11.233852      -305.6887
  12   2.0000     -11.232609      -305.6548
  13   2.0000      -8.964819      -243.9451
  14   2.0000      -8.955342      -243.6872
  15   2.0000      -6.645933      -180.8450
  16   2.0000      -6.645045      -180.8209
  17   2.0000      -6.643990      -180.7921
  18   2.0000      -6.636453      -180.5871
  19   2.0000      -6.635499      -180.5611
  20   2.0000      -6.634576      -180.5360
  21   2.0000      -1.401436       -38.1350
  22   2.0000      -1.283836       -34.9350
  23   2.0000      -1.098389       -29.8887
  24   2.0000      -1.089247       -29.6399
  25   2.0000      -1.023486       -27.8505
  26   2.0000      -1.012984       -27.5647
  27   2.0000      -0.982743       -26.7418
  28   2.0000      -0.938743       -25.5445
  29   2.0000      -0.919873       -25.0310
  30   2.0000      -0.855046       -23.2670
  31   2.0000      -0.817392       -22.2424
  32   2.0000      -0.756676       -20.5902
  33   2.0000      -0.704880       -19.1808
  34   2.0000      -0.679279       -18.4841
  35   2.0000      -0.652402       -17.7528
  36   2.0000      -0.633979       -17.2515
  37   2.0000      -0.623349       -16.9622
  38   2.0000      -0.608968       -16.5709
  39   2.0000      -0.602626       -16.3983
  40   2.0000      -0.596107       -16.2209
  41   2.0000      -0.584762       -15.9122
  42   2.0000      -0.577697       -15.7199
  43   2.0000      -0.574993       -15.6464
  44   2.0000      -0.569248       -15.4900
  45   2.0000      -0.549773       -14.9601
  46   2.0000      -0.547220       -14.8906
  47   2.0000      -0.541791       -14.7429
  48   2.0000      -0.530697       -14.4410
  49   2.0000      -0.508050       -13.8247
  50   2.0000      -0.492982       -13.4147
  51   2.0000      -0.478296       -13.0151
  52   2.0000      -0.456712       -12.4278
  53   2.0000      -0.435329       -11.8459
  54   2.0000      -0.411177       -11.1887
  55   2.0000      -0.393930       -10.7194
  56   2.0000      -0.348937        -9.4951
  57   2.0000      -0.270568        -7.3625
  58   0.0000       0.023763         0.6466
  59   0.0000       0.031404         0.8545
  60   0.0000       0.032402         0.8817
  61   0.0000       0.035761         0.9731
  62   0.0000       0.044944         1.2230

MULLIKEN ATOMIC CHARGES
-----------------------
   0 N :    0.084848
   1 C :   -0.323893
   2 C :    1.061437
   3 S :   -0.490452
   4 C :    1.184114
   5 C :   -0.992001
   6 H :    0.154891
   7 H :    0.315071
   8 H :    0.252658
   9 C :   -0.974397
  10 H :    0.360484
  11 H :    0.222059
  12 H :    0.256256
  13 C :   -1.230286
  14 H :    0.293279
  15 H :    0.369386
  16 H :    0.327155
  17 C :    0.431264
  18 O :   -1.036870
  19 C :   -0.818640
  20 H :    0.324919
  21 H :    0.319098
  22 H :    0.327454
  23 S :   -0.408343
  24 C :   -0.906915
  25 H :    0.331362
  26 H :    0.324961
  27 H :    0.241101
Sum of atomic charges:    0.0000000

LOEWDIN ATOMIC CHARGES
----------------------
   0 N :    0.139044
   1 C :   -0.309913
   2 C :   -0.464406
   3 S :    1.251683
   4 C :   -1.013957
   5 C :    0.594212
   6 H :   -0.158672
   7 H :   -0.186802
   8 H :   -0.154369
   9 C :    0.498653
  10 H :   -0.196971
  11 H :   -0.178684
  12 H :   -0.175763
  13 C :    0.445974
  14 H :   -0.169954
  15 H :   -0.190976
  16 H :   -0.164332
  17 C :   -0.664538
  18 O :    0.493224
  19 C :    0.531047
  20 H :   -0.175673
  21 H :   -0.205686
  22 H :   -0.187819
  23 S :    1.187721
  24 C :    0.216162
  25 H :   -0.265205
  26 H :   -0.246437
  27 H :   -0.247563

  Mayer bond orders larger than 0.100000
B(  0-N ,  1-C ) :   0.6912 B(  0-N ,  2-C ) :  -0.3371 B(  0-N ,  4-C ) :   1.1227
B(  0-N ,  5-C ) :  -0.2646 B(  0-N , 13-C ) :   0.9380 B(  0-N , 17-C ) :   0.1329
B(  1-C ,  2-C ) :   1.2789 B(  1-C ,  3-S ) :   0.3775 B(  1-C ,  4-C ) :   0.2994
B(  1-C ,  5-C ) :   0.6433 B(  1-C ,  6-H ) :  -0.1019 B(  1-C ,  8-H ) :  -0.1057
B(  2-C ,  3-S ) :   0.6277 B(  2-C ,  5-C ) :  -0.1309 B(  2-C ,  9-C ) :   0.5198
B(  3-S ,  4-C ) :   0.4665 B(  3-S , 17-C ) :   0.1314 B(  4-C , 17-C ) :   0.8673
B(  4-C , 18-O ) :   0.1021 B(  4-C , 23-S ) :   0.6679 B(  4-C , 24-C ) :  -0.1566
B(  5-C ,  6-H ) :   1.2165 B(  5-C ,  7-H ) :   0.9354 B(  5-C ,  8-H ) :   1.1107
B(  9-C , 10-H ) :   0.8574 B(  9-C , 11-H ) :   1.0971 B(  9-C , 12-H ) :   1.0459
B( 13-C , 14-H ) :   0.9843 B( 13-C , 15-H ) :   0.9429 B( 13-C , 16-H ) :   0.9425
B( 17-C , 18-O ) :   0.9279 B( 17-C , 19-C ) :   0.7477 B( 17-C , 23-S ) :   0.1031
B( 19-C , 20-H ) :   0.9424 B( 19-C , 21-H ) :   0.9428 B( 19-C , 22-H ) :   0.9319
B( 23-S , 24-C ) :   0.9364 B( 24-C , 25-H ) :   0.9049 B( 24-C , 26-H ) :   0.9022
B( 24-C , 27-H ) :   1.0162

MP2 TOTAL ENERGY:    -1276.439314710 Eh
FINAL SINGLE POINT ENERGY     -1276.439314710067

DIPOLE MOMENT
-------------
                                X             Y             Z
Electronic contribution:      8.93887      -4.77078      -1.31034
Nuclear contribution   :     -9.91101       5.09752       2.10960
                        -----------------------------------------
Total Dipole Moment    :     -0.97214       0.32674       0.79926
                        -----------------------------------------
Magnitude (a.u.)       :      1.30024
Magnitude (Debye)      :      3.30495

Rotational constants in cm-1:     0.027371     0.017861     0.017663
Rotational constants in MHz :   820.556839   535.462130   529.515280

                             ****ORCA TERMINATED NORMALLY****
TOTAL RUN TIME: 0 days 0 hours 19 minutes 59 seconds 230 msec
