                         Program Version 4.2.1 -  RELEASE  -
|  1> %pal
|  2>  nprocs 32
|  3> end
|  4> !RI-MP2 aug-cc-pVTZ aug-cc-pVTZ/C TightSCF
|  5> %maxcore 4500
|  6> *xyzfile 1 1  08_13R1.xyz
|  7>
|  8>
|  9>                          ****END OF INPUT****

CARTESIAN COORDINATES (ANGSTROEM)
---------------------------------
  C      1.737334   -0.864522   -0.417892
  C      1.364871    0.460783   -0.193021
  C      2.363616    1.412212   -0.053153
  C      3.705513    1.044267   -0.131226
  C      4.033094   -0.295860   -0.359013
  C      3.054830   -1.266009   -0.515292
  H      2.103675    2.449751    0.118762
  H      5.075557   -0.582985   -0.423987
  H      3.326500   -2.296170   -0.709120
  C     -0.092146    0.641581   -0.142645
  C     -0.810331    1.812725    0.039653
  C     -0.768891   -0.558897   -0.321505
  C     -2.206118    1.736918    0.044892
  H     -0.299262    2.754340    0.168314
  C     -2.160053   -0.649073   -0.314320
  C     -2.877863    0.516753   -0.128066
  H     -3.957480    0.530464   -0.108704
  S      0.312475   -1.922839   -0.595041
  O     -2.671725   -1.880772   -0.472075
  O     -3.008421    2.792845    0.212541
  C      4.790823    2.073745   -0.002236
  H      5.184958    2.335580   -0.987489
  H      4.422249    2.987605    0.462713
  H      5.623073    1.696989    0.593324
  C     -4.091445   -2.028339   -0.547170
  H     -4.269421   -3.086739   -0.712672
  H     -4.559791   -1.716334    0.388048
  H     -4.491688   -1.451838   -1.382803
  C     -2.439604    4.084890    0.395023
  H     -1.849381    4.376824   -0.476608
  H     -3.280989    4.762430    0.506588
  H     -1.824419    4.115613    1.297299
  C      0.259198   -2.879962    0.979769
  C      0.400623   -2.047038    2.232668
  H      0.338236   -2.711490    3.096031
  H      1.361258   -1.533751    2.272790
  H     -0.398694   -1.311077    2.317926
  H     -0.698366   -3.398091    0.915946
  H      1.054831   -3.617328    0.861766

 Total Charge           Charge          ....    1
 Multiplicity           Mult            ....    1
 Number of Electrons    NEL             ....  152
 Basis Dimension        Dim             .... 1361

ORBITAL ENERGIES
----------------

  NO   OCC          E(Eh)            E(eV)
   0   2.0000     -92.198646     -2508.8527
   1   2.0000     -20.721361      -563.8569
   2   2.0000     -20.703795      -563.3789
   3   2.0000     -11.450210      -311.5760
   4   2.0000     -11.441856      -311.3487
   5   2.0000     -11.417441      -310.6844
   6   2.0000     -11.408076      -310.4295
   7   2.0000     -11.401299      -310.2451
   8   2.0000     -11.397066      -310.1299
   9   2.0000     -11.392746      -310.0124
  10   2.0000     -11.390175      -309.9424
  11   2.0000     -11.386094      -309.8314
  12   2.0000     -11.383371      -309.7573
  13   2.0000     -11.377327      -309.5928
  14   2.0000     -11.365803      -309.2792
  15   2.0000     -11.362286      -309.1835
  16   2.0000     -11.353932      -308.9562
  17   2.0000     -11.353623      -308.9478
  18   2.0000     -11.349624      -308.8390
  19   2.0000     -11.330532      -308.3194
  20   2.0000      -9.194031      -250.1823
  21   2.0000      -6.874975      -187.0776
  22   2.0000      -6.874926      -187.0762
  23   2.0000      -6.873827      -187.0463
  24   2.0000      -1.551042       -42.2060
  25   2.0000      -1.536810       -41.8187
  26   2.0000      -1.354669       -36.8624
  27   2.0000      -1.285211       -34.9724
  28   2.0000      -1.257903       -34.2293
  29   2.0000      -1.202391       -32.7187
  30   2.0000      -1.177622       -32.0447
  31   2.0000      -1.164548       -31.6889
  32   2.0000      -1.132553       -30.8183
  33   2.0000      -1.117411       -30.4063
  34   2.0000      -1.071199       -29.1488
  35   2.0000      -1.059372       -28.8270
  36   2.0000      -1.049893       -28.5690
  37   2.0000      -0.996027       -27.1033
  38   2.0000      -0.984628       -26.7931
  39   2.0000      -0.937070       -25.4990
  40   2.0000      -0.925203       -25.1760
  41   2.0000      -0.916414       -24.9369
  42   2.0000      -0.849663       -23.1205
  43   2.0000      -0.832878       -22.6638
  44   2.0000      -0.815471       -22.1901
  45   2.0000      -0.796302       -21.6685
  46   2.0000      -0.788248       -21.4493
  47   2.0000      -0.786682       -21.4067
  48   2.0000      -0.772310       -21.0156
  49   2.0000      -0.767290       -20.8790
  50   2.0000      -0.763825       -20.7847
  51   2.0000      -0.758251       -20.6331
  52   2.0000      -0.750588       -20.4245
  53   2.0000      -0.736255       -20.0345
  54   2.0000      -0.723653       -19.6916
  55   2.0000      -0.703096       -19.1322
  56   2.0000      -0.693624       -18.8745
  57   2.0000      -0.690506       -18.7896
  58   2.0000      -0.678914       -18.4742
  59   2.0000      -0.671682       -18.2774
  60   2.0000      -0.662857       -18.0373
  61   2.0000      -0.655964       -17.8497
  62   2.0000      -0.648454       -17.6453
  63   2.0000      -0.645003       -17.5514
  64   2.0000      -0.642705       -17.4889
  65   2.0000      -0.629266       -17.1232
  66   2.0000      -0.626459       -17.0468
  67   2.0000      -0.624606       -16.9964
  68   2.0000      -0.619194       -16.8491
  69   2.0000      -0.607747       -16.5376
  70   2.0000      -0.596250       -16.2248
  71   2.0000      -0.582289       -15.8449
  72   2.0000      -0.498730       -13.5711
  73   2.0000      -0.467908       -12.7324
  74   2.0000      -0.444914       -12.1067
  75   2.0000      -0.433755       -11.8031
  76   0.0000      -0.065183        -1.7737
  77   0.0000      -0.056982        -1.5505
  78   0.0000      -0.050817        -1.3828
  79   0.0000      -0.047966        -1.3052
  80   0.0000      -0.045959        -1.2506

MULLIKEN ATOMIC CHARGES
-----------------------
   0 C :    0.851970
   1 C :    0.805360
   2 C :   -1.233834
   3 C :    1.395311
   4 C :   -0.462039
   5 C :   -1.081376
   6 H :   -0.208569
   7 H :    0.222954
   8 H :    0.470506
   9 C :    0.377690
  10 C :   -0.859693
  11 C :    1.178716
  12 C :    0.990168
  13 H :   -0.255166
  14 C :    0.713596
  15 C :   -0.253333
  16 H :    0.110789
  17 S :   -0.561570
  18 O :   -0.846864
  19 O :   -0.893208
  20 C :   -0.952075
  21 H :    0.337309
  22 H :    0.296344
  23 H :    0.276566
  24 C :   -1.007273
  25 H :    0.316524
  26 H :    0.421895
  27 H :    0.414289
  28 C :   -0.944625
  29 H :    0.387462
  30 H :    0.379404
  31 H :    0.376767
  32 C :   -0.306711
  33 C :   -1.068626
  34 H :    0.255316
  35 H :    0.398912
  36 H :    0.389986
  37 H :    0.310476
  38 H :    0.256654
Sum of atomic charges:    1.0000000

LOEWDIN ATOMIC CHARGES
----------------------
   0 C :   -0.322738
   1 C :   -0.141989
   2 C :    0.277947
   3 C :   -0.085823
   4 C :    0.250092
   5 C :    0.197897
   6 H :   -0.161951
   7 H :   -0.159870
   8 H :   -0.165671
   9 C :   -0.161236
  10 C :    0.264984
  11 C :   -0.339638
  12 C :   -0.362033
  13 H :   -0.199378
  14 C :   -0.431689
  15 C :    0.252390
  16 H :   -0.186306
  17 S :    1.526929
  18 O :    0.577485
  19 O :    0.600824
  20 C :    0.607231
  21 H :   -0.150952
  22 H :   -0.167488
  23 H :   -0.160357
  24 C :    0.390611
  25 H :   -0.169675
  26 H :   -0.164888
  27 H :   -0.162460
  28 C :    0.382329
  29 H :   -0.165957
  30 H :   -0.168612
  31 H :   -0.166489
  32 C :    0.156920
  33 C :    0.571088
  34 H :   -0.151564
  35 H :   -0.165539
  36 H :   -0.166161
  37 H :   -0.192071
  38 H :   -0.186192

  Mayer bond orders larger than 0.100000
B(  0-C ,  1-C ) :   1.1018 B(  0-C ,  2-C ) :  -0.2635 B(  0-C ,  3-C ) :   0.3141
B(  0-C ,  4-C ) :  -0.2024 B(  0-C ,  5-C ) :   0.3484 B(  0-C ,  8-H ) :   0.1376
B(  0-C ,  9-C ) :   0.4356 B(  0-C , 12-C ) :  -0.1230 B(  0-C , 13-H ) :   0.3418
B(  0-C , 14-C ) :  -0.3047 B(  0-C , 15-C ) :  -0.1657 B(  0-C , 17-S ) :   0.6873
B(  1-C ,  4-C ) :   0.1574 B(  1-C ,  5-C ) :   0.4125 B(  1-C ,  6-H ) :  -0.2742
B(  1-C , 10-C ) :   0.4303 B(  1-C , 11-C ) :   0.5144 B(  1-C , 12-C ) :   0.3116
B(  1-C , 13-H ) :  -0.6832 B(  1-C , 14-C ) :   0.1912 B(  1-C , 15-C ) :   0.2171
B(  1-C , 17-S ) :   0.2678 B(  2-C ,  3-C ) :   0.6718 B(  2-C ,  6-H ) :   2.1341
B(  2-C ,  8-H ) :   0.1183 B(  2-C ,  9-C ) :   0.1385 B(  2-C , 10-C ) :  -0.1527
B(  2-C , 13-H ) :  -0.1888 B(  2-C , 17-S ) :  -0.1241 B(  3-C ,  4-C ) :   0.6135
B(  3-C ,  5-C ) :   0.2378 B(  3-C ,  6-H ) :  -0.2970 B(  3-C ,  7-H ) :  -0.2221
B(  3-C ,  9-C ) :   0.1618 B(  3-C , 10-C ) :   0.2091 B(  3-C , 11-C ) :  -0.2104
B(  3-C , 20-C ) :   0.3477 B(  3-C , 21-H ) :  -0.1286 B(  4-C ,  5-C ) :   1.1196
B(  4-C ,  7-H ) :   1.2413 B(  4-C , 17-S ) :  -0.1173 B(  5-C ,  8-H ) :   0.6994
B(  5-C ,  9-C ) :   0.1580 B(  5-C , 11-C ) :  -0.1946 B(  5-C , 17-S ) :  -0.4349
B(  6-H ,  9-C ) :  -0.1151 B(  8-H , 10-C ) :  -0.1170 B(  9-C , 10-C ) :  -0.6337
B(  9-C , 11-C ) :  -0.1179 B(  9-C , 13-H ) :  -0.3205 B(  9-C , 14-C ) :   0.3900
B(  9-C , 17-S ) :   0.8979 B( 10-C , 11-C ) :  -0.7850 B( 10-C , 12-C ) :   0.8815
B( 10-C , 13-H ) :   2.8571 B( 10-C , 15-C ) :  -0.3978 B( 10-C , 19-O ) :  -0.4694
B( 10-C , 28-C ) :  -0.1815 B( 11-C , 12-C ) :   0.7502 B( 11-C , 13-H ) :  -0.1873
B( 11-C , 14-C ) :   0.8229 B( 11-C , 15-C ) :  -0.2890 B( 11-C , 16-H ) :   0.2147
B( 11-C , 17-S ) :   0.2387 B( 11-C , 18-O ) :   0.2973 B( 11-C , 24-C ) :   0.2601
B( 12-C , 13-H ) :  -0.2533 B( 12-C , 14-C ) :   0.1769 B( 12-C , 15-C ) :   0.9416
B( 12-C , 16-H ) :  -0.2286 B( 12-C , 18-O ) :   0.1143 B( 13-H , 14-C ) :  -0.1718
B( 13-H , 28-C ) :  -0.2027 B( 14-C , 15-C ) :   1.5469 B( 14-C , 16-H ) :  -0.2874
B( 14-C , 17-S ) :  -0.2401 B( 14-C , 18-O ) :   0.2575 B( 14-C , 24-C ) :  -0.1866
B( 14-C , 25-H ) :   0.1094 B( 15-C , 16-H ) :   1.3404 B( 15-C , 17-S ) :  -0.1850
B( 15-C , 18-O ) :  -0.6858 B( 15-C , 19-O ) :   0.3390 B( 15-C , 24-C ) :  -0.2140
B( 15-C , 28-C ) :   0.1369 B( 16-H , 19-O ) :   0.1811 B( 16-H , 24-C ) :  -0.1359
B( 17-S , 32-C ) :   0.8169 B( 17-S , 33-C ) :   0.1946 B( 18-O , 24-C ) :   1.0775
B( 19-O , 28-C ) :   0.9844 B( 20-C , 21-H ) :   0.9726 B( 20-C , 22-H ) :   0.9872
B( 20-C , 23-H ) :   1.0341 B( 24-C , 25-H ) :   0.9954 B( 24-C , 26-H ) :   0.8346
B( 24-C , 27-H ) :   0.8358 B( 28-C , 29-H ) :   0.8723 B( 28-C , 30-H ) :   0.9305
B( 28-C , 31-H ) :   0.8727 B( 32-C , 33-C ) :   0.8140 B( 32-C , 37-H ) :   0.8935
B( 32-C , 38-H ) :   0.9453 B( 33-C , 34-H ) :   1.0100 B( 33-C , 35-H ) :   0.8789
B( 33-C , 36-H ) :   0.8821

MP2 TOTAL ENERGY:    -1205.586379007 Eh
FINAL SINGLE POINT ENERGY     -1205.586379007476

DIPOLE MOMENT
-------------
                                X             Y             Z
Electronic contribution:     -2.23189      -5.10519      -7.70151
Nuclear contribution   :      2.76117       4.37671       8.21091
                        -----------------------------------------
Total Dipole Moment    :      0.52928      -0.72848       0.50940
                        -----------------------------------------
Magnitude (a.u.)       :      1.03456
Magnitude (Debye)      :      2.62964

Rotational constants in cm-1:     0.014150     0.008473     0.005778
Rotational constants in MHz :   424.196476   254.025898   173.210124

                             ****ORCA TERMINATED NORMALLY****
TOTAL RUN TIME: 0 days 0 hours 54 minutes 27 seconds 682 msec
