                         Program Version 4.2.1 -  RELEASE  -
|  1> %pal
|  2>  nprocs 32
|  3> end
|  4> !RI-MP2 aug-cc-pVTZ aug-cc-pVTZ/C TightSCF
|  5> %maxcore 4500
|  6> *xyzfile 0 2  03_34R2.xyz
|  7>
|  8>
|  9>                          ****END OF INPUT****

CARTESIAN COORDINATES (ANGSTROEM)
---------------------------------
  O     -2.133264   -0.580539    0.000009
  C     -1.597183    0.466600   -0.000009
  C     -0.118263    0.767834    0.000000
  C      0.778869   -0.468577   -0.000012
  H      0.067521    1.404933    0.870625
  H      0.067536    1.404964   -0.870598
  H      0.542624   -1.080693    0.873721
  C      2.257118   -0.098404    0.000007
  H      0.542640   -1.080665   -0.873769
  H      2.518711    0.491142   -0.882550
  H      2.885142   -0.991194   -0.000005
  H      2.518697    0.491109    0.882590

 Total Charge           Charge          ....    0
 Multiplicity           Mult            ....    2
 Number of Electrons    NEL             ....   39
 Basis Dimension        Dim             ....  391

ORBITAL ENERGIES
----------------
                 SPIN UP ORBITALS
  NO   OCC          E(Eh)            E(eV)
   0   1.0000     -20.592993      -560.3638
   1   1.0000     -11.334697      -308.4328
   2   1.0000     -11.261667      -306.4455
   3   1.0000     -11.237858      -305.7977
   4   1.0000     -11.226352      -305.4846
   5   1.0000      -1.441277       -39.2191
   6   1.0000      -1.094980       -29.7959
   7   1.0000      -0.985807       -26.8252
   8   1.0000      -0.845855       -23.0169
   9   1.0000      -0.761750       -20.7283
  10   1.0000      -0.678974       -18.4758
  11   1.0000      -0.660227       -17.9657
  12   1.0000      -0.641466       -17.4552
  13   1.0000      -0.583673       -15.8825
  14   1.0000      -0.570661       -15.5285
  15   1.0000      -0.530827       -14.4445
  16   1.0000      -0.530205       -14.4276
  17   1.0000      -0.502589       -13.6762
  18   1.0000      -0.490207       -13.3392
  19   1.0000      -0.355038        -9.6611
  20   0.0000       0.027044         0.7359
  21   0.0000       0.036501         0.9932
  22   0.0000       0.037852         1.0300
  23   0.0000       0.044177         1.2021
  24   0.0000       0.059325         1.6143

                 SPIN DOWN ORBITALS
  NO   OCC          E(Eh)            E(eV)
   0   1.0000     -20.582088      -560.0671
   1   1.0000     -11.315222      -307.9028
   2   1.0000     -11.256325      -306.3002
   3   1.0000     -11.236790      -305.7686
   4   1.0000     -11.226174      -305.4797
   5   1.0000      -1.413789       -38.4712
   6   1.0000      -1.083261       -29.4770
   7   1.0000      -0.968922       -26.3657
   8   1.0000      -0.834662       -22.7123
   9   1.0000      -0.729492       -19.8505
  10   1.0000      -0.657042       -17.8790
  11   1.0000      -0.635490       -17.2926
  12   1.0000      -0.589109       -16.0305
  13   1.0000      -0.580734       -15.8026
  14   1.0000      -0.532485       -14.4896
  15   1.0000      -0.523525       -14.2458
  16   1.0000      -0.509474       -13.8635
  17   1.0000      -0.489965       -13.3326
  18   1.0000      -0.485645       -13.2151
  19   0.0000       0.026050         0.7089
  20   0.0000       0.036096         0.9822
  21   0.0000       0.037940         1.0324
  22   0.0000       0.042538         1.1575
  23   0.0000       0.059485         1.6187

MULLIKEN ATOMIC CHARGES AND SPIN POPULATIONS
--------------------------------------------
   0 O :   -0.501056    0.162389
   1 C :   -0.155714    0.769301
   2 C :   -0.051327    0.026291
   3 C :   -0.350919    0.059683
   4 H :    0.304169   -0.012037
   5 H :    0.304170   -0.012038
   6 H :    0.268958    0.001392
   7 C :   -0.927979   -0.000732
   8 H :    0.268959    0.001391
   9 H :    0.281785    0.000157
  10 H :    0.277169    0.004048
  11 H :    0.281785    0.000156
Sum of atomic charges         :   -0.0000000

LOEWDIN ATOMIC CHARGES AND SPIN POPULATIONS
-------------------------------------------
   0 O :    0.354509    0.248581
   1 C :   -0.205515    0.545420
   2 C :    0.199866    0.147255
   3 C :    0.231422    0.029387
   4 H :   -0.174122    0.008248
   5 H :   -0.174123    0.008248
   6 H :   -0.149891    0.000593
   7 C :    0.576189    0.007936
   8 H :   -0.149891    0.000593
   9 H :   -0.169359    0.000330
  10 H :   -0.169727    0.003077
  11 H :   -0.169359    0.000330

  Mayer bond orders larger than 0.100000
B(  0-O ,  1-C ) :   1.8486 B(  1-C ,  2-C ) :   0.3922 B(  2-C ,  3-C ) :   0.9136
B(  2-C ,  4-H ) :   0.9416 B(  2-C ,  5-H ) :   0.9416 B(  3-C ,  6-H ) :   0.9327
B(  3-C ,  7-C ) :   0.8837 B(  3-C ,  8-H ) :   0.9327 B(  7-C ,  9-H ) :   0.9332
B(  7-C , 10-H ) :   0.9729 B(  7-C , 11-H ) :   0.9332

MP2 TOTAL ENERGY:     -231.355295328 Eh
FINAL SINGLE POINT ENERGY      -231.355295327896

DIPOLE MOMENT
-------------
                                X             Y             Z
Electronic contribution:     -8.32385      -0.11569      -0.00002
Nuclear contribution   :      9.38417       0.64947       0.00001
                        -----------------------------------------
Total Dipole Moment    :      1.06032       0.53378      -0.00000
                        -----------------------------------------
Magnitude (a.u.)       :      1.18709
Magnitude (Debye)      :      3.01735

Rotational constants in cm-1:     0.556824     0.085411     0.077197
Rotational constants in MHz : 16693.167535  2560.559437  2314.321740

                             ****ORCA TERMINATED NORMALLY****
TOTAL RUN TIME: 0 days 0 hours 1 minutes 38 seconds 58 msec
