                         Program Version 4.2.1 -  RELEASE  -
|  1> %pal
|  2>  nprocs 32
|  3> end
|  4> !RI-MP2 aug-cc-pVTZ aug-cc-pVTZ/C TightSCF
|  5> %maxcore 4500
|  6> *xyzfile 0 1  05_23R1.xyz
|  7>
|  8>
|  9>                          ****END OF INPUT****

CARTESIAN COORDINATES (ANGSTROEM)
---------------------------------
  C     -1.374708    0.583860   -0.160744
  C      0.102894    0.253520   -0.085056
  C      0.986845    0.724621   -1.047611
  C      0.598510   -0.499150    0.976144
  C      2.347280    0.459865   -0.951009
  H      0.607937    1.302011   -1.884553
  C      1.954576   -0.771149    1.072253
  H     -0.091941   -0.881723    1.718664
  C      2.834054   -0.289323    0.109961
  H      3.025351    0.833303   -1.709150
  H      2.328641   -1.361626    1.900294
  H      3.893600   -0.502024    0.185610
  O     -2.188101   -0.528224    0.170063
  C     -2.144661   -1.568649   -0.780208
  H     -1.140340   -1.996800   -0.868943
  H     -2.833776   -2.340461   -0.440766
  H     -2.464105   -1.212431   -1.768055
  C     -1.751885    1.700624    0.796853
  H     -1.549306    1.394030    1.824573
  H     -1.170266    2.598943    0.584013
  H     -2.814119    1.930989    0.704472
  H     -1.604302    0.896259   -1.190151

 Total Charge           Charge          ....    0
 Multiplicity           Mult            ....    1
 Number of Electrons    NEL             ....   74
 Basis Dimension        Dim             ....  736

ORBITAL ENERGIES
----------------

  NO   OCC          E(Eh)            E(eV)
   0   2.0000     -20.554949      -559.3286
   1   2.0000     -11.284619      -307.0701
   2   2.0000     -11.265671      -306.5545
   3   2.0000     -11.235286      -305.7277
   4   2.0000     -11.234727      -305.7125
   5   2.0000     -11.233953      -305.6914
   6   2.0000     -11.232278      -305.6458
   7   2.0000     -11.231592      -305.6272
   8   2.0000     -11.228766      -305.5503
   9   2.0000     -11.213194      -305.1265
  10   2.0000      -1.377205       -37.4757
  11   2.0000      -1.157800       -31.5053
  12   2.0000      -1.059494       -28.8303
  13   2.0000      -1.016193       -27.6520
  14   2.0000      -0.992669       -27.0119
  15   2.0000      -0.914052       -24.8726
  16   2.0000      -0.859228       -23.3808
  17   2.0000      -0.829193       -22.5635
  18   2.0000      -0.784442       -21.3458
  19   2.0000      -0.705848       -19.2071
  20   2.0000      -0.670872       -18.2554
  21   2.0000      -0.652357       -17.7515
  22   2.0000      -0.631494       -17.1838
  23   2.0000      -0.618345       -16.8260
  24   2.0000      -0.612265       -16.6606
  25   2.0000      -0.585904       -15.9433
  26   2.0000      -0.582519       -15.8512
  27   2.0000      -0.545670       -14.8484
  28   2.0000      -0.528626       -14.3846
  29   2.0000      -0.514633       -14.0039
  30   2.0000      -0.500697       -13.6247
  31   2.0000      -0.494328       -13.4514
  32   2.0000      -0.488498       -13.2927
  33   2.0000      -0.464710       -12.6454
  34   2.0000      -0.423461       -11.5229
  35   2.0000      -0.338410        -9.2086
  36   2.0000      -0.331174        -9.0117
  37   0.0000       0.027075         0.7368
  38   0.0000       0.032286         0.8785
  39   0.0000       0.034943         0.9508
  40   0.0000       0.039287         1.0690
  41   0.0000       0.046153         1.2559

MULLIKEN ATOMIC CHARGES
-----------------------
   0 C :    0.705494
   1 C :    1.697335
   2 C :   -1.261686
   3 C :   -0.806018
   4 C :   -0.513613
   5 H :   -0.060947
   6 C :   -0.853763
   7 H :    0.224364
   8 C :   -0.162089
   9 H :    0.519186
  10 H :    0.457687
  11 H :    0.468197
  12 O :   -0.812181
  13 C :   -0.975154
  14 H :    0.394615
  15 H :    0.340208
  16 H :    0.315933
  17 C :   -1.000998
  18 H :    0.286642
  19 H :    0.315075
  20 H :    0.248455
  21 H :    0.473259
Sum of atomic charges:   -0.0000000

LOEWDIN ATOMIC CHARGES
----------------------
   0 C :   -0.315311
   1 C :   -0.129474
   2 C :    0.215619
   3 C :    0.209273
   4 C :    0.198271
   5 H :   -0.173086
   6 C :    0.202191
   7 H :   -0.169638
   8 C :    0.192713
   9 H :   -0.182578
  10 H :   -0.181753
  11 H :   -0.184892
  12 O :    0.571217
  13 C :    0.326180
  14 H :   -0.178643
  15 H :   -0.181557
  16 H :   -0.171735
  17 C :    0.593627
  18 H :   -0.164001
  19 H :   -0.161750
  20 H :   -0.163981
  21 H :   -0.150693

  Mayer bond orders larger than 0.100000
B(  0-C ,  1-C ) :   0.8057 B(  0-C ,  2-C ) :   0.1107 B(  0-C ,  3-C ) :   0.1233
B(  0-C , 12-O ) :   0.4186 B(  0-C , 17-C ) :   0.5980 B(  0-C , 21-H ) :   0.9036
B(  1-C ,  2-C ) :  -0.2439 B(  1-C ,  3-C ) :   0.4517 B(  1-C ,  4-C ) :   0.2711
B(  1-C ,  5-H ) :  -0.3722 B(  1-C ,  7-H ) :  -0.2131 B(  1-C , 17-C ) :   0.1680
B(  2-C ,  3-C ) :  -0.1383 B(  2-C ,  4-C ) :   1.2580 B(  2-C ,  5-H ) :   1.9423
B(  2-C ,  7-H ) :   0.3739 B(  2-C ,  8-C ) :  -0.1814 B(  2-C ,  9-H ) :  -0.1819
B(  2-C , 11-H ) :   0.1619 B(  3-C ,  5-H ) :   0.1600 B(  3-C ,  6-C ) :   1.4653
B(  3-C ,  7-H ) :   1.2538 B(  4-C ,  5-H ) :  -0.1662 B(  4-C ,  6-C ) :   0.1486
B(  4-C ,  7-H ) :  -0.1491 B(  4-C ,  8-C ) :   1.1008 B(  4-C ,  9-H ) :   0.7506
B(  4-C , 11-H ) :  -0.1794 B(  6-C ,  7-H ) :  -0.1139 B(  6-C ,  8-C ) :   1.1946
B(  6-C , 10-H ) :   0.8036 B(  6-C , 11-H ) :  -0.1566 B(  8-C , 11-H ) :   0.8037
B( 12-O , 13-C ) :   1.0583 B( 12-O , 17-C ) :   0.1127 B( 12-O , 21-H ) :  -0.1617
B( 13-C , 14-H ) :   0.8265 B( 13-C , 15-H ) :   0.9628 B( 13-C , 16-H ) :   0.9129
B( 17-C , 18-H ) :   0.9648 B( 17-C , 19-H ) :   0.9764 B( 17-C , 20-H ) :   1.0049

MP2 TOTAL ENERGY:     -424.538600353 Eh
FINAL SINGLE POINT ENERGY      -424.538600353420

DIPOLE MOMENT
-------------
                                X             Y             Z
Electronic contribution:      4.15744      -0.64694       0.57480
Nuclear contribution   :     -3.92574       0.66547      -0.96055
                        -----------------------------------------
Total Dipole Moment    :      0.23169       0.01854      -0.38575
                        -----------------------------------------
Magnitude (a.u.)       :      0.45036
Magnitude (Debye)      :      1.14473

Rotational constants in cm-1:     0.079739     0.029872     0.028117
Rotational constants in MHz :  2390.510137   895.527537   842.939134

                             ****ORCA TERMINATED NORMALLY****
TOTAL RUN TIME: 0 days 0 hours 6 minutes 18 seconds 542 msec
