                         Program Version 4.2.1 -  RELEASE  -
|  1> %pal
|  2>  nprocs 32
|  3> end
|  4> !RI-MP2 aug-cc-pVTZ aug-cc-pVTZ/C TightSCF
|  5> %maxcore 4500
|  6> *xyzfile 0 1  02_23TS.xyz
|  7>
|  8>
|  9>                          ****END OF INPUT****

CARTESIAN COORDINATES (ANGSTROEM)
---------------------------------
  O     -4.233978    0.356902    0.103768
  C     -3.109672    1.208239    0.196074
  C     -2.088650    0.793656   -0.827948
  C     -0.729318    1.084308   -0.805768
  C     -0.051404    1.710792    0.375301
  O      1.366134    1.621669    0.169956
  H     -0.317886    1.229437    1.318936
  H     -0.286750    2.774423    0.457459
  H     -2.685310    1.200617    1.208939
  H     -3.490442    2.211773   -0.007222
  C     -3.842601   -1.009676    0.253644
  C      1.998231    0.598917    0.800378
  C      2.777375   -0.246324   -0.192201
  O      1.889952    0.392444    1.975021
  C     -2.453603   -1.223866   -0.283738
  H     -4.597685   -1.597668   -0.268950
  H     -3.865475   -1.275447    1.317602
  C     -1.431528   -1.581393    0.582906
  C     -0.084337   -1.475285    0.254071
  H     -2.357409   -1.476003   -1.333010
  H     -1.678661   -1.737356    1.629080
  C      0.339749   -0.922318   -0.941831
  H      0.624648   -1.614467    1.058752
  C      1.782956   -0.659136   -1.313486
  H     -0.299507   -1.050562   -1.806839
  H      1.786335    0.122069   -2.076571
  H      2.187256   -1.554134   -1.801110
  C      3.397512   -1.455529    0.506244
  H      4.026929   -1.139265    1.338593
  H      4.015860   -2.009018   -0.203878
  H      2.645920   -2.137209    0.901774
  C      3.891347    0.611157   -0.811435
  H      4.391652    0.046655   -1.601804
  H      4.639599    0.877723   -0.062106
  H      3.488185    1.527814   -1.241947
  H     -2.525528    0.712826   -1.819645
  H     -0.254936    1.318411   -1.751268

 Total Charge           Charge          ....    0
 Multiplicity           Mult            ....    1
 Number of Electrons    NEL             ....  128
 Basis Dimension        Dim             .... 1242

ORBITAL ENERGIES
----------------

  NO   OCC          E(Eh)            E(eV)
   0   2.0000     -20.584997      -560.1463
   1   2.0000     -20.556275      -559.3647
   2   2.0000     -20.546741      -559.1052
   3   2.0000     -11.373747      -309.4954
   4   2.0000     -11.295017      -307.3530
   5   2.0000     -11.281890      -306.9958
   6   2.0000     -11.278877      -306.9139
   7   2.0000     -11.258231      -306.3520
   8   2.0000     -11.256412      -306.3025
   9   2.0000     -11.246111      -306.0223
  10   2.0000     -11.245872      -306.0157
  11   2.0000     -11.243977      -305.9642
  12   2.0000     -11.243414      -305.9489
  13   2.0000     -11.228071      -305.5313
  14   2.0000     -11.227647      -305.5198
  15   2.0000     -11.224443      -305.4326
  16   2.0000     -11.218505      -305.2710
  17   2.0000      -1.456138       -39.6235
  18   2.0000      -1.378426       -37.5089
  19   2.0000      -1.362592       -37.0780
  20   2.0000      -1.135018       -30.8854
  21   2.0000      -1.113730       -30.3061
  22   2.0000      -1.075642       -29.2697
  23   2.0000      -1.034719       -28.1561
  24   2.0000      -0.993211       -27.0266
  25   2.0000      -0.968713       -26.3600
  26   2.0000      -0.942872       -25.6569
  27   2.0000      -0.911590       -24.8056
  28   2.0000      -0.875051       -23.8114
  29   2.0000      -0.844955       -22.9924
  30   2.0000      -0.813604       -22.1393
  31   2.0000      -0.777389       -21.1538
  32   2.0000      -0.756988       -20.5987
  33   2.0000      -0.719698       -19.5840
  34   2.0000      -0.691711       -18.8224
  35   2.0000      -0.684828       -18.6351
  36   2.0000      -0.675198       -18.3731
  37   2.0000      -0.668920       -18.2022
  38   2.0000      -0.659712       -17.9517
  39   2.0000      -0.647673       -17.6241
  40   2.0000      -0.631211       -17.1761
  41   2.0000      -0.621147       -16.9023
  42   2.0000      -0.603292       -16.4164
  43   2.0000      -0.592455       -16.1215
  44   2.0000      -0.589874       -16.0513
  45   2.0000      -0.574747       -15.6397
  46   2.0000      -0.559436       -15.2230
  47   2.0000      -0.553198       -15.0533
  48   2.0000      -0.547659       -14.9026
  49   2.0000      -0.541297       -14.7294
  50   2.0000      -0.535904       -14.5827
  51   2.0000      -0.524546       -14.2736
  52   2.0000      -0.518478       -14.1085
  53   2.0000      -0.511841       -13.9279
  54   2.0000      -0.496151       -13.5010
  55   2.0000      -0.484367       -13.1803
  56   2.0000      -0.476321       -12.9613
  57   2.0000      -0.466161       -12.6849
  58   2.0000      -0.460980       -12.5439
  59   2.0000      -0.452946       -12.3253
  60   2.0000      -0.433102       -11.7853
  61   2.0000      -0.425594       -11.5810
  62   2.0000      -0.319284        -8.6882
  63   2.0000      -0.300580        -8.1792
  64   0.0000       0.023163         0.6303
  65   0.0000       0.029794         0.8107
  66   0.0000       0.031625         0.8606
  67   0.0000       0.032905         0.8954
  68   0.0000       0.040636         1.1058

MULLIKEN ATOMIC CHARGES
-----------------------
   0 O :   -0.827481
   1 C :   -0.111227
   2 C :   -0.442013
   3 C :   -0.344179
   4 C :   -0.180081
   5 O :   -0.873650
   6 H :    0.396587
   7 H :    0.363507
   8 H :    0.279261
   9 H :    0.351149
  10 C :   -0.536897
  11 C :    1.213142
  12 C :    2.094841
  13 O :   -1.270164
  14 C :    0.183994
  15 H :    0.301963
  16 H :    0.297610
  17 C :   -1.048990
  18 C :   -0.206634
  19 H :    0.601835
  20 H :   -0.119370
  21 C :    0.070747
  22 H :    0.360603
  23 C :   -0.575632
  24 H :    0.199953
  25 H :    0.120288
  26 H :    0.457265
  27 C :   -1.516450
  28 H :    0.216715
  29 H :    0.162547
  30 H :    0.408471
  31 C :   -1.414860
  32 H :    0.197298
  33 H :    0.265114
  34 H :    0.341117
  35 H :    0.298124
  36 H :    0.285499
Sum of atomic charges:    0.0000000

LOEWDIN ATOMIC CHARGES
----------------------
   0 O :    0.575088
   1 C :    0.015416
   2 C :    0.148034
   3 C :    0.175810
   4 C :    0.063986
   5 O :    0.613123
   6 H :   -0.172580
   7 H :   -0.137605
   8 H :   -0.149284
   9 H :   -0.149990
  10 C :    0.051963
  11 C :   -0.808804
  12 C :   -0.336459
  13 O :    0.516574
  14 C :    0.135124
  15 H :   -0.154952
  16 H :   -0.161586
  17 C :    0.208606
  18 C :    0.199179
  19 H :   -0.173385
  20 H :   -0.172900
  21 C :    0.195656
  22 H :   -0.221991
  23 C :    0.302570
  24 H :   -0.179514
  25 H :   -0.157454
  26 H :   -0.129377
  27 C :    0.584417
  28 H :   -0.154646
  29 H :   -0.153062
  30 H :   -0.173962
  31 C :    0.594146
  32 H :   -0.148702
  33 H :   -0.149334
  34 H :   -0.165784
  35 H :   -0.155159
  36 H :   -0.173161

  Mayer bond orders larger than 0.100000
B(  0-O ,  1-C ) :   0.7039 B(  0-O , 10-C ) :   0.9025 B(  1-C ,  2-C ) :   0.8592
B(  1-C ,  3-C ) :   0.1635 B(  1-C ,  8-H ) :   0.9999 B(  1-C ,  9-H ) :   0.9289
B(  1-C , 10-C ) :   0.1102 B(  2-C ,  3-C ) :   1.1866 B(  2-C , 14-C ) :   0.2805
B(  2-C , 18-C ) :   0.1868 B(  2-C , 35-H ) :   1.0039 B(  2-C , 36-H ) :  -0.2042
B(  3-C ,  4-C ) :   0.7877 B(  3-C ,  5-O ) :   0.1116 B(  3-C , 17-C ) :   0.1627
B(  3-C , 21-C ) :   0.2206 B(  3-C , 35-H ) :  -0.1374 B(  3-C , 36-H ) :   0.8724
B(  4-C ,  5-O ) :   0.6868 B(  4-C ,  6-H ) :   0.9723 B(  4-C ,  7-H ) :   0.9156
B(  4-C , 21-C ) :   0.1671 B(  5-O ,  6-H ) :  -0.1316 B(  5-O , 11-C ) :   0.9532
B(  5-O , 12-C ) :  -0.4208 B(  5-O , 23-C ) :   0.1025 B( 10-C , 14-C ) :   1.0853
B( 10-C , 15-H ) :   0.9807 B( 10-C , 16-H ) :   0.9982 B( 10-C , 19-H ) :  -0.1565
B( 11-C , 12-C ) :   0.9353 B( 11-C , 13-O ) :   0.5550 B( 12-C , 17-C ) :  -0.1373
B( 12-C , 21-C ) :   0.1545 B( 12-C , 23-C ) :   1.0455 B( 12-C , 28-H ) :  -0.1890
B( 12-C , 29-H ) :  -0.1749 B( 12-C , 31-C ) :   0.1253 B( 12-C , 32-H ) :  -0.1579
B( 12-C , 33-H ) :  -0.1391 B( 13-O , 22-H ) :   0.1610 B( 13-O , 27-C ) :   0.1116
B( 14-C , 17-C ) :   1.1250 B( 14-C , 18-C ) :   0.1703 B( 14-C , 19-H ) :   0.6381
B( 14-C , 24-H ) :  -0.1123 B( 17-C , 18-C ) :   0.4695 B( 17-C , 19-H ) :  -0.1258
B( 17-C , 20-H ) :   1.6941 B( 17-C , 21-C ) :   0.2438 B( 17-C , 22-H ) :  -0.2238
B( 17-C , 23-C ) :  -0.1799 B( 17-C , 24-H ) :   0.3364 B( 18-C , 20-H ) :  -0.3525
B( 18-C , 21-C ) :   1.0479 B( 18-C , 22-H ) :   0.9592 B( 18-C , 24-H ) :  -0.1086
B( 18-C , 35-H ) :  -0.1530 B( 20-H , 21-C ) :   0.1168 B( 20-H , 22-H ) :  -0.1458
B( 20-H , 24-H ) :   0.1174 B( 21-C , 22-H ) :  -0.1190 B( 21-C , 23-C ) :   0.3616
B( 21-C , 24-H ) :   0.9943 B( 21-C , 25-H ) :  -0.1154 B( 21-C , 26-H ) :  -0.1548
B( 21-C , 35-H ) :   0.1369 B( 23-C , 24-H ) :  -0.1428 B( 23-C , 25-H ) :   1.2525
B( 23-C , 26-H ) :   0.7987 B( 23-C , 27-C ) :   0.1041 B( 24-H , 36-H ) :   0.1154
B( 27-C , 28-H ) :   1.1595 B( 27-C , 29-H ) :   1.2224 B( 27-C , 30-H ) :   0.9613
B( 31-C , 32-H ) :   1.1820 B( 31-C , 33-H ) :   1.1128 B( 31-C , 34-H ) :   0.9673

MP2 TOTAL ENERGY:     -769.641344688 Eh
FINAL SINGLE POINT ENERGY      -769.641344688023

DIPOLE MOMENT
-------------
                                X             Y             Z
Electronic contribution:     -5.18256       3.40536       3.68283
Nuclear contribution   :      5.52521      -3.59302      -4.78910
                        -----------------------------------------
Total Dipole Moment    :      0.34265      -0.18766      -1.10627
                        -----------------------------------------
Magnitude (a.u.)       :      1.17323
Magnitude (Debye)      :      2.98210

Rotational constants in cm-1:     0.035308     0.010097     0.009360
Rotational constants in MHz :  1058.496562   302.706455   280.615256

                             ****ORCA TERMINATED NORMALLY****
TOTAL RUN TIME: 0 days 0 hours 43 minutes 0 seconds 70 msec
