                         Program Version 4.2.1 -  RELEASE  -
|  1> %pal
|  2>  nprocs 32
|  3> end
|  4> !RI-MP2 aug-cc-pVTZ aug-cc-pVTZ/C TightSCF
|  5> %maxcore 4500
|  6> *xyzfile 0 2  01_24P.xyz
|  7>
|  8>
|  9>                          ****END OF INPUT****

CARTESIAN COORDINATES (ANGSTROEM)
---------------------------------
  C     -0.258153   -0.968032    0.255067
  C      1.001766   -0.092862    0.018357
  C      0.429883    1.306718   -0.349133
  C     -1.056485    1.262139    0.002271
  H      0.543173    1.482095   -1.422918
  H      0.962055    2.111999    0.162126
  C     -1.451197   -0.193203   -0.331391
  H     -1.654290    1.998364   -0.537829
  H     -1.209922    1.434785    1.072729
  C      1.852057   -0.020220    1.287474
  H      2.755094    0.573933    1.122420
  H      2.161036   -1.018611    1.609797
  H      1.292865    0.437189    2.108103
  C      1.845146   -0.648777   -1.130035
  H      2.671193    0.026344   -1.370913
  H      1.243060   -0.774916   -2.033889
  H      2.271192   -1.621798   -0.870605
  C     -2.772674   -0.616384    0.186526
  H     -2.917538   -0.745464    1.253579
  H     -3.635571   -0.719819   -0.457750
  H     -0.426242   -1.099400    1.329045
  H     -0.158232   -1.966411   -0.175984
  H     -1.439934   -0.294561   -1.422724

 Total Charge           Charge          ....    0
 Multiplicity           Mult            ....    2
 Number of Electrons    NEL             ....   63
 Basis Dimension        Dim             ....  713

ORBITAL ENERGIES
----------------
                 SPIN UP ORBITALS
  NO   OCC          E(Eh)            E(eV)
   0   1.0000     -11.226728      -305.4948
   1   1.0000     -11.224288      -305.4284
   2   1.0000     -11.220889      -305.3359
   3   1.0000     -11.214211      -305.1542
   4   1.0000     -11.210441      -305.0516
   5   1.0000     -11.209918      -305.0374
   6   1.0000     -11.207812      -304.9801
   7   1.0000     -11.207755      -304.9785
   8   1.0000      -1.140439       -31.0329
   9   1.0000      -1.049358       -28.5545
  10   1.0000      -0.981694       -26.7132
  11   1.0000      -0.928435       -25.2640
  12   1.0000      -0.921469       -25.0745
  13   1.0000      -0.852912       -23.2089
  14   1.0000      -0.764371       -20.7996
  15   1.0000      -0.725741       -19.7484
  16   1.0000      -0.654989       -17.8231
  17   1.0000      -0.624941       -17.0055
  18   1.0000      -0.598453       -16.2847
  19   1.0000      -0.581280       -15.8174
  20   1.0000      -0.574257       -15.6263
  21   1.0000      -0.567131       -15.4324
  22   1.0000      -0.543183       -14.7808
  23   1.0000      -0.521706       -14.1963
  24   1.0000      -0.499517       -13.5925
  25   1.0000      -0.493414       -13.4265
  26   1.0000      -0.476828       -12.9752
  27   1.0000      -0.463578       -12.6146
  28   1.0000      -0.443636       -12.0719
  29   1.0000      -0.440232       -11.9793
  30   1.0000      -0.436613       -11.8808
  31   1.0000      -0.338005        -9.1976
  32   0.0000       0.029766         0.8100
  33   0.0000       0.034434         0.9370
  34   0.0000       0.035006         0.9526
  35   0.0000       0.036513         0.9936
  36   0.0000       0.048999         1.3333

                 SPIN DOWN ORBITALS
  NO   OCC          E(Eh)            E(eV)
   0   1.0000     -11.226707      -305.4942
   1   1.0000     -11.224189      -305.4257
   2   1.0000     -11.211737      -305.0869
   3   1.0000     -11.209786      -305.0338
   4   1.0000     -11.209048      -305.0137
   5   1.0000     -11.207787      -304.9794
   6   1.0000     -11.207750      -304.9784
   7   1.0000     -11.201076      -304.7968
   8   1.0000      -1.136335       -30.9213
   9   1.0000      -1.037023       -28.2188
  10   1.0000      -0.968701       -26.3597
  11   1.0000      -0.928391       -25.2628
  12   1.0000      -0.893348       -24.3092
  13   1.0000      -0.828455       -22.5434
  14   1.0000      -0.751229       -20.4420
  15   1.0000      -0.723393       -19.6845
  16   1.0000      -0.651796       -17.7363
  17   1.0000      -0.622141       -16.9293
  18   1.0000      -0.593785       -16.1577
  19   1.0000      -0.580029       -15.7834
  20   1.0000      -0.572138       -15.5687
  21   1.0000      -0.563555       -15.3351
  22   1.0000      -0.538577       -14.6554
  23   1.0000      -0.517329       -14.0772
  24   1.0000      -0.498676       -13.5697
  25   1.0000      -0.473189       -12.8761
  26   1.0000      -0.466153       -12.6847
  27   1.0000      -0.457918       -12.4606
  28   1.0000      -0.443124       -12.0580
  29   1.0000      -0.437683       -11.9100
  30   1.0000      -0.434027       -11.8105
  31   0.0000       0.030025         0.8170
  32   0.0000       0.034627         0.9423
  33   0.0000       0.035152         0.9565
  34   0.0000       0.035795         0.9740
  35   0.0000       0.049060         1.3350

MULLIKEN ATOMIC CHARGES AND SPIN POPULATIONS
--------------------------------------------
   0 C :   -0.845382    0.047580
   1 C :    1.791092    0.010338
   2 C :   -0.825615   -0.000695
   3 C :   -0.736242    0.077136
   4 H :    0.141894   -0.001008
   5 H :    0.315153    0.003676
   6 C :    0.772405   -0.204029
   7 H :    0.371895   -0.018839
   8 H :    0.128345    0.002652
   9 C :   -1.280026    0.000725
  10 H :    0.245407    0.000586
  11 H :    0.233216    0.000284
  12 H :    0.320132    0.000061
  13 C :   -1.330423    0.000922
  14 H :    0.223580   -0.000021
  15 H :    0.314979    0.000610
  16 H :    0.245242   -0.000017
  17 C :   -1.399771    1.245363
  18 H :    0.318770   -0.087562
  19 H :    0.317588   -0.067923
  20 H :    0.143001    0.002295
  21 H :    0.326701   -0.007427
  22 H :    0.208060   -0.004708
Sum of atomic charges         :    0.0000000

LOEWDIN ATOMIC CHARGES AND SPIN POPULATIONS
-------------------------------------------
   0 C :    0.307672    0.021749
   1 C :   -0.312752    0.002717
   2 C :    0.313363    0.006407
   3 C :    0.306160    0.035075
   4 H :   -0.143539    0.000394
   5 H :   -0.136822    0.001852
   6 C :   -0.068421    0.115218
   7 H :   -0.134390    0.003534
   8 H :   -0.137253    0.004396
   9 C :    0.582181    0.000691
  10 H :   -0.155932    0.000268
  11 H :   -0.153195    0.000059
  12 H :   -0.155835   -0.000030
  13 C :    0.581659    0.000300
  14 H :   -0.153565    0.000082
  15 H :   -0.155896    0.000015
  16 H :   -0.156025    0.000031
  17 C :    0.617104    0.559003
  18 H :   -0.212634    0.117656
  19 H :   -0.220084    0.123776
  20 H :   -0.145988    0.001920
  21 H :   -0.130472    0.002772
  22 H :   -0.135337    0.002116

  Mayer bond orders larger than 0.100000
B(  0-C ,  1-C ) :   0.8000 B(  0-C ,  3-C ) :   0.1524 B(  0-C ,  6-C ) :   1.0095
B(  0-C , 20-H ) :   1.1354 B(  0-C , 21-H ) :   0.9360 B(  1-C ,  2-C ) :   0.7482
B(  1-C ,  9-C ) :   0.2280 B(  1-C , 10-H ) :  -0.1143 B(  1-C , 11-H ) :  -0.1352
B(  1-C , 13-C ) :   0.2319 B(  1-C , 14-H ) :  -0.1327 B(  1-C , 16-H ) :  -0.1161
B(  2-C ,  3-C ) :   1.0821 B(  2-C ,  4-H ) :   1.1376 B(  2-C ,  5-H ) :   0.9383
B(  3-C ,  6-C ) :   0.8528 B(  3-C ,  7-H ) :   0.8626 B(  3-C ,  8-H ) :   1.1458
B(  6-C , 22-H ) :   1.0283 B(  9-C , 10-H ) :   1.0704 B(  9-C , 11-H ) :   1.0865
B(  9-C , 12-H ) :   0.9948 B(  9-C , 13-C ) :   0.1219 B( 13-C , 14-H ) :   1.1064
B( 13-C , 15-H ) :   1.0063 B( 13-C , 16-H ) :   1.0654 B( 17-C , 18-H ) :   1.0530
B( 17-C , 19-H ) :   0.9317

MP2 TOTAL ENERGY:     -313.125524417 Eh
FINAL SINGLE POINT ENERGY      -313.125524417265

DIPOLE MOMENT
-------------
                                X             Y             Z
Electronic contribution:     -2.56609       0.24758      -0.43108
Nuclear contribution   :      2.61510      -0.18754       0.38854
                        -----------------------------------------
Total Dipole Moment    :      0.04901       0.06004      -0.04254
                        -----------------------------------------
Magnitude (a.u.)       :      0.08841
Magnitude (Debye)      :      0.22473

Rotational constants in cm-1:     0.113457     0.048248     0.045462
Rotational constants in MHz :  3401.341684  1446.432003  1362.904377

                             ****ORCA TERMINATED NORMALLY****
TOTAL RUN TIME: 0 days 0 hours 9 minutes 10 seconds 653 msec
