                         Program Version 4.2.1 -  RELEASE  -
|  1> %pal
|  2>  nprocs 32
|  3> end
|  4> !RI-MP2 aug-cc-pVTZ aug-cc-pVTZ/C TightSCF
|  5> %maxcore 4500
|  6> *xyzfile 0 2  04_1TS.xyz
|  7>
|  8>
|  9>                          ****END OF INPUT****

CARTESIAN COORDINATES (ANGSTROEM)
---------------------------------
  C     -1.324764   -0.871902   -0.068585
  H     -0.116702   -1.277127   -0.021726
  H     -1.606203   -1.105432   -1.094667
  H     -1.875561   -1.464953    0.658718
  C     -1.169531    0.598608    0.234373
  H     -2.000194    1.170484   -0.194290
  C      1.294533    0.252562    0.230088
  H      2.246596    0.557722   -0.220312
  O      1.117265   -1.099527   -0.088291
  H     -1.193284    0.764867    1.315166
  H      1.370868    0.396527    1.317627
  C      0.159377    1.112811   -0.325473
  H      0.320518    2.160630   -0.059398
  H      0.158153    1.041028   -1.417212

 Total Charge           Charge          ....    0
 Multiplicity           Mult            ....    2
 Number of Electrons    NEL             ....   41
 Basis Dimension        Dim             ....  437

ORBITAL ENERGIES
----------------
                 SPIN UP ORBITALS
  NO   OCC          E(Eh)            E(eV)
   0   1.0000     -20.586875      -560.1973
   1   1.0000     -11.272621      -306.7436
   2   1.0000     -11.236587      -305.7631
   3   1.0000     -11.228952      -305.5553
   4   1.0000     -11.228342      -305.5387
   5   1.0000      -1.381747       -37.5993
   6   1.0000      -1.081729       -29.4353
   7   1.0000      -0.989058       -26.9136
   8   1.0000      -0.859136       -23.3783
   9   1.0000      -0.809498       -22.0276
  10   1.0000      -0.712242       -19.3811
  11   1.0000      -0.652777       -17.7630
  12   1.0000      -0.617445       -16.8015
  13   1.0000      -0.605992       -16.4899
  14   1.0000      -0.569203       -15.4888
  15   1.0000      -0.556339       -15.1388
  16   1.0000      -0.514298       -13.9948
  17   1.0000      -0.498537       -13.5659
  18   1.0000      -0.486584       -13.2406
  19   1.0000      -0.448709       -12.2100
  20   1.0000      -0.389207       -10.5909
  21   0.0000       0.029018         0.7896
  22   0.0000       0.036901         1.0041
  23   0.0000       0.038268         1.0413
  24   0.0000       0.041378         1.1259
  25   0.0000       0.056729         1.5437

                 SPIN DOWN ORBITALS
  NO   OCC          E(Eh)            E(eV)
   0   1.0000     -20.555812      -559.3521
   1   1.0000     -11.274460      -306.7937
   2   1.0000     -11.230182      -305.5888
   3   1.0000     -11.227398      -305.5130
   4   1.0000     -11.221825      -305.3614
   5   1.0000      -1.290173       -35.1074
   6   1.0000      -1.066275       -29.0148
   7   1.0000      -0.964371       -26.2419
   8   1.0000      -0.832404       -22.6509
   9   1.0000      -0.788938       -21.4681
  10   1.0000      -0.659128       -17.9358
  11   1.0000      -0.637417       -17.3450
  12   1.0000      -0.609484       -16.5849
  13   1.0000      -0.577620       -15.7179
  14   1.0000      -0.547656       -14.9025
  15   1.0000      -0.501521       -13.6471
  16   1.0000      -0.489173       -13.3111
  17   1.0000      -0.481544       -13.1035
  18   1.0000      -0.450187       -12.2502
  19   1.0000      -0.427650       -11.6370
  20   0.0000       0.029058         0.7907
  21   0.0000       0.036913         1.0044
  22   0.0000       0.038293         1.0420
  23   0.0000       0.041510         1.1295
  24   0.0000       0.056207         1.5295

MULLIKEN ATOMIC CHARGES AND SPIN POPULATIONS
--------------------------------------------
   0 C :   -0.814401    0.730768
   1 H :    0.313281   -0.384138
   2 H :    0.272857   -0.024276
   3 H :    0.309618   -0.007677
   4 C :   -0.388823   -0.105480
   5 H :    0.288228    0.039575
   6 C :   -0.216617   -0.118870
   7 H :    0.332492    0.050137
   8 O :   -0.606035    0.755992
   9 H :    0.241583   -0.002697
  10 H :    0.232990   -0.002835
  11 C :   -0.529744    0.076487
  12 H :    0.314993   -0.007745
  13 H :    0.249579    0.000760
Sum of atomic charges         :   -0.0000000

LOEWDIN ATOMIC CHARGES AND SPIN POPULATIONS
-------------------------------------------
   0 C :    0.572432    0.240892
   1 H :   -0.602339    0.060369
   2 H :   -0.151648    0.035580
   3 H :   -0.155628    0.042925
   4 C :    0.259250    0.029022
   5 H :   -0.145921    0.012743
   6 C :   -0.005589    0.029744
   7 H :   -0.160745    0.015643
   8 O :    0.706597    0.527756
   9 H :   -0.148742   -0.000640
  10 H :   -0.155618   -0.003938
  11 C :    0.275125    0.009892
  12 H :   -0.143679   -0.000214
  13 H :   -0.143495    0.000225

  Mayer bond orders larger than 0.100000
B(  0-C ,  1-H ) :   0.4230 B(  0-C ,  2-H ) :   0.9771 B(  0-C ,  3-H ) :   0.9440
B(  0-C ,  4-C ) :   0.9050 B(  1-H ,  8-O ) :   0.2867 B(  4-C ,  5-H ) :   0.9298
B(  4-C ,  9-H ) :   0.9642 B(  4-C , 11-C ) :   0.8671 B(  6-C ,  7-H ) :   0.9160
B(  6-C ,  8-O ) :   0.7141 B(  6-C , 10-H ) :   0.9888 B(  6-C , 11-C ) :   0.9310
B( 11-C , 12-H ) :   0.9105 B( 11-C , 13-H ) :   0.9471

MP2 TOTAL ENERGY:     -232.504378539 Eh
FINAL SINGLE POINT ENERGY      -232.504378539334

DIPOLE MOMENT
-------------
                                X             Y             Z
Electronic contribution:      2.40748      -1.64859      -0.19977
Nuclear contribution   :     -2.82054       2.34474       0.29753
                        -----------------------------------------
Total Dipole Moment    :     -0.41306       0.69615       0.09776
                        -----------------------------------------
Magnitude (a.u.)       :      0.81535
Magnitude (Debye)      :      2.07246

Rotational constants in cm-1:     0.236798     0.157552     0.106568
Rotational constants in MHz :  7099.033074  4723.288663  3194.832145

                             ****ORCA TERMINATED NORMALLY****
TOTAL RUN TIME: 0 days 0 hours 2 minutes 33 seconds 73 msec
