                         Program Version 4.2.1 -  RELEASE  -
|  1> %pal
|  2>  nprocs 32
|  3> end
|  4> !RI-MP2 aug-cc-pVTZ aug-cc-pVTZ/C TightSCF
|  5> %maxcore 4500
|  6> *xyzfile -1 1  08_9TS.xyz
|  7>
|  8>
|  9>                          ****END OF INPUT****

CARTESIAN COORDINATES (ANGSTROEM)
---------------------------------
  N     -3.362127   -1.690786    1.455408
  C     -2.219146   -1.173149    1.886744
  N     -1.649336   -0.201174    1.122562
  C     -2.515961   -0.088520    0.086329
  C     -3.564054   -0.999668    0.290448
  C     -4.565027   -1.049066   -0.668263
  N     -2.466252    0.717948   -0.995735
  C     -3.481847    0.572368   -1.832222
  N     -4.522851   -0.263572   -1.729576
  C      0.763493   -0.334856    0.591134
  C      1.224458    0.535101    1.735791
  O      0.747555    0.254781   -0.526972
  H      0.462831   -1.365051    0.637997
  C      1.248611    1.948932    1.081424
  C      1.314399    1.627731   -0.413814
  C      0.558933    2.509836   -1.380040
  H      2.351468    1.493478   -0.736958
  O      2.769334   -1.426034    0.428693
  P      3.884546   -1.076932   -0.512864
  O      3.966966    0.291910   -1.126765
  O      5.266897   -1.430261    0.277144
  O      3.936865   -2.164259   -1.744958
  O     -0.767263    2.786945   -0.993686
  H      0.598365    2.044199   -2.370824
  H      1.090762    3.462936   -1.441904
  H     -1.354212    1.978383   -1.081018
  O      0.144128    2.712326    1.491977
  H      2.159508    2.473132    1.377623
  H     -0.445837    2.848272    0.726100
  O      0.463673    0.434299    2.888936
  H      2.235126    0.198430    1.961187
  H     -0.427511    0.723706    2.635538
  H     -1.744592   -1.502029    2.802473
  H     -3.475618    1.210488   -2.710231
  H      6.022331   -1.082885   -0.205330
  H      3.777257   -1.693939   -2.567595
  O     -5.606443   -1.894429   -0.549331
  H     -5.470953   -2.386554    0.271809

 Total Charge           Charge          ....   -1
 Multiplicity           Mult            ....    1
 Number of Electrons    NEL             ....  190
 Basis Dimension        Dim             .... 1430

ORBITAL ENERGIES
----------------

  NO   OCC          E(Eh)            E(eV)
   0   2.0000     -79.950919     -2175.5751
   1   2.0000     -20.551379      -559.2314
   2   2.0000     -20.507933      -558.0492
   3   2.0000     -20.468011      -556.9629
   4   2.0000     -20.466191      -556.9134
   5   2.0000     -20.462616      -556.8161
   6   2.0000     -20.456307      -556.6444
   7   2.0000     -20.454303      -556.5899
   8   2.0000     -20.381143      -554.5991
   9   2.0000     -20.377811      -554.5084
  10   2.0000     -15.464815      -420.8190
  11   2.0000     -15.454777      -420.5459
  12   2.0000     -15.438051      -420.0907
  13   2.0000     -15.436889      -420.0591
  14   2.0000     -11.296740      -307.3999
  15   2.0000     -11.248514      -306.0876
  16   2.0000     -11.212997      -305.1211
  17   2.0000     -11.209341      -305.0217
  18   2.0000     -11.207019      -304.9585
  19   2.0000     -11.204508      -304.8902
  20   2.0000     -11.200340      -304.7767
  21   2.0000     -11.188072      -304.4429
  22   2.0000     -11.183323      -304.3137
  23   2.0000     -11.135786      -303.0201
  24   2.0000      -7.467250      -203.1942
  25   2.0000      -5.365944      -146.0148
  26   2.0000      -5.365344      -145.9984
  27   2.0000      -5.364312      -145.9704
  28   2.0000      -1.403551       -38.1926
  29   2.0000      -1.335960       -36.3533
  30   2.0000      -1.297893       -35.3175
  31   2.0000      -1.293390       -35.1949
  32   2.0000      -1.275518       -34.7086
  33   2.0000      -1.252642       -34.0861
  34   2.0000      -1.241633       -33.7865
  35   2.0000      -1.228246       -33.4223
  36   2.0000      -1.179488       -32.0955
  37   2.0000      -1.178515       -32.0690
  38   2.0000      -1.144157       -31.1341
  39   2.0000      -1.090222       -29.6665
  40   2.0000      -1.024912       -27.8893
  41   2.0000      -0.981202       -26.6999
  42   2.0000      -0.946754       -25.7625
  43   2.0000      -0.922896       -25.1133
  44   2.0000      -0.832630       -22.6570
  45   2.0000      -0.791163       -21.5286
  46   2.0000      -0.762507       -20.7489
  47   2.0000      -0.753856       -20.5135
  48   2.0000      -0.726525       -19.7698
  49   2.0000      -0.702814       -19.1245
  50   2.0000      -0.691123       -18.8064
  51   2.0000      -0.667751       -18.1704
  52   2.0000      -0.655873       -17.8472
  53   2.0000      -0.633705       -17.2440
  54   2.0000      -0.620129       -16.8746
  55   2.0000      -0.617815       -16.8116
  56   2.0000      -0.603630       -16.4256
  57   2.0000      -0.599475       -16.3126
  58   2.0000      -0.563294       -15.3280
  59   2.0000      -0.558648       -15.2016
  60   2.0000      -0.554736       -15.0951
  61   2.0000      -0.544557       -14.8182
  62   2.0000      -0.535222       -14.5641
  63   2.0000      -0.529447       -14.4070
  64   2.0000      -0.521299       -14.1853
  65   2.0000      -0.517750       -14.0887
  66   2.0000      -0.510657       -13.8957
  67   2.0000      -0.507086       -13.7985
  68   2.0000      -0.498794       -13.5729
  69   2.0000      -0.494327       -13.4513
  70   2.0000      -0.486975       -13.2513
  71   2.0000      -0.472469       -12.8565
  72   2.0000      -0.468640       -12.7523
  73   2.0000      -0.459972       -12.5165
  74   2.0000      -0.442646       -12.0450
  75   2.0000      -0.435089       -11.8394
  76   2.0000      -0.434025       -11.8104
  77   2.0000      -0.416394       -11.3307
  78   2.0000      -0.414611       -11.2822
  79   2.0000      -0.408382       -11.1126
  80   2.0000      -0.400343       -10.8939
  81   2.0000      -0.393653       -10.7118
  82   2.0000      -0.386827       -10.5261
  83   2.0000      -0.365901        -9.9567
  84   2.0000      -0.351599        -9.5675
  85   2.0000      -0.350713        -9.5434
  86   2.0000      -0.346467        -9.4278
  87   2.0000      -0.333690        -9.0802
  88   2.0000      -0.329494        -8.9660
  89   2.0000      -0.326086        -8.8733
  90   2.0000      -0.325011        -8.8440
  91   2.0000      -0.311697        -8.4817
  92   2.0000      -0.307936        -8.3794
  93   2.0000      -0.246565        -6.7094
  94   2.0000      -0.203777        -5.5451
  95   0.0000       0.096041         2.6134
  96   0.0000       0.102243         2.7822
  97   0.0000       0.104173         2.8347
  98   0.0000       0.106606         2.9009
  99   0.0000       0.111331         3.0295

MULLIKEN ATOMIC CHARGES
-----------------------
   0 N :   -1.225340
   1 C :   -0.493640
   2 N :   -0.013147
   3 C :   -0.685005
   4 C :    2.095634
   5 C :   -0.050149
   6 N :   -0.233854
   7 C :   -0.667045
   8 N :   -0.380995
   9 C :   -0.011990
  10 C :    0.728937
  11 O :   -0.677325
  12 H :    0.593194
  13 C :    0.164646
  14 C :    0.156830
  15 C :   -0.341866
  16 H :    0.550832
  17 O :   -0.989936
  18 P :    1.862179
  19 O :   -0.994043
  20 O :   -0.589301
  21 O :   -0.628930
  22 O :   -0.786799
  23 H :    0.285175
  24 H :    0.306887
  25 H :    0.469036
  26 O :   -1.020883
  27 H :    0.423189
  28 H :    0.318885
  29 O :   -1.050572
  30 H :    0.432943
  31 H :    0.349492
  32 H :    0.620134
  33 H :    0.546741
  34 H :    0.130113
  35 H :    0.180240
  36 O :   -0.591871
  37 H :    0.217605
Sum of atomic charges:   -1.0000000

LOEWDIN ATOMIC CHARGES
----------------------
   0 N :    0.357320
   1 C :   -0.191665
   2 N :    0.367506
   3 C :   -0.508722
   4 C :   -0.378387
   5 C :   -0.573082
   6 N :    0.417940
   7 C :   -0.154226
   8 N :    0.365267
   9 C :   -0.091331
  10 C :   -0.222734
  11 O :    0.678853
  12 H :   -0.162011
  13 C :   -0.183557
  14 C :   -0.122180
  15 C :    0.086145
  16 H :   -0.272470
  17 O :    0.070589
  18 P :   -0.467973
  19 O :    0.020816
  20 O :    0.586667
  21 O :    0.588535
  22 O :    0.867035
  23 H :   -0.142071
  24 H :   -0.148130
  25 H :   -0.683872
  26 O :    0.867953
  27 H :   -0.132120
  28 H :   -0.666461
  29 O :    0.853582
  30 H :   -0.186268
  31 H :   -0.594268
  32 H :   -0.195148
  33 H :   -0.201460
  34 H :   -0.590791
  35 H :   -0.609683
  36 O :    0.844462
  37 H :   -0.494058

  Mayer bond orders larger than 0.100000
B(  0-N ,  1-C ) :   1.1772 B(  0-N ,  2-N ) :  -0.2365 B(  0-N ,  3-C ) :   0.9048
B(  0-N ,  4-C ) :  -0.4589 B(  1-C ,  2-N ) :   1.4980 B(  1-C ,  3-C ) :  -0.5714
B(  1-C ,  4-C ) :  -0.1497 B(  1-C , 32-H ) :   0.4520 B(  2-N ,  3-C ) :   0.6018
B(  2-N ,  5-C ) :  -0.1327 B(  2-N ,  6-N ) :  -0.2833 B(  2-N , 29-O ) :  -0.1365
B(  3-C ,  4-C ) :   0.4368 B(  3-C ,  5-C ) :   1.5335 B(  3-C ,  6-N ) :   1.1071
B(  3-C ,  7-C ) :  -0.5156 B(  4-C ,  5-C ) :  -0.5035 B(  4-C ,  6-N ) :  -0.2480
B(  5-C ,  7-C ) :  -0.2813 B(  5-C ,  8-N ) :   0.7125 B(  5-C , 36-O ) :   0.7016
B(  5-C , 37-H ) :   0.1497 B(  6-N ,  7-C ) :   1.6861 B(  6-N , 22-O ) :  -0.1350
B(  7-C ,  8-N ) :   0.9826 B(  7-C , 33-H ) :   0.5954 B(  8-N , 36-O ) :  -0.1693
B(  9-C , 10-C ) :   0.7707 B(  9-C , 11-O ) :   0.9360 B(  9-C , 12-H ) :   0.6586
B(  9-C , 13-C ) :   0.1860 B(  9-C , 17-O ) :  -0.1904 B(  9-C , 29-O ) :   0.2534
B( 10-C , 13-C ) :   1.0791 B( 10-C , 26-O ) :   0.1923 B( 10-C , 30-H ) :   0.7959
B( 11-O , 14-C ) :   0.6076 B( 13-C , 14-C ) :   1.1094 B( 13-C , 26-O ) :   0.1218
B( 13-C , 27-H ) :   0.8434 B( 13-C , 29-O ) :   0.2281 B( 14-C , 15-C ) :   0.6695
B( 14-C , 16-H ) :   0.7308 B( 14-C , 26-O ) :   0.1917 B( 15-C , 22-O ) :   0.7654
B( 15-C , 23-H ) :   1.0357 B( 15-C , 24-H ) :   1.0421 B( 15-C , 25-H ) :   0.1147
B( 16-H , 19-O ) :  -0.1374 B( 17-O , 18-P ) :   1.4848 B( 17-O , 21-O ) :   0.1134
B( 18-P , 19-O ) :   1.4190 B( 18-P , 20-O ) :   0.5608 B( 18-P , 21-O ) :   0.5542
B( 20-O , 34-H ) :   1.0325 B( 21-O , 35-H ) :   0.9999 B( 22-O , 25-H ) :   0.5977
B( 26-O , 27-H ) :  -0.1142 B( 26-O , 28-H ) :   0.7695 B( 29-O , 30-H ) :  -0.1242
B( 29-O , 31-H ) :   0.8114 B( 36-O , 37-H ) :   0.9529

MP2 TOTAL ENERGY:    -1624.608127262 Eh
FINAL SINGLE POINT ENERGY     -1624.608127261601

DIPOLE MOMENT
-------------
                                X             Y             Z
Electronic contribution:     -1.47016      -8.13423      -0.50173
Nuclear contribution   :      2.11985       9.14850      -0.20534
                        -----------------------------------------
Total Dipole Moment    :      0.64969       1.01427      -0.70707
                        -----------------------------------------
Magnitude (a.u.)       :      1.39671
Magnitude (Debye)      :      3.55015

Rotational constants in cm-1:     0.012226     0.004125     0.003938
Rotational constants in MHz :   366.526828   123.662004   118.053493

                             ****ORCA TERMINATED NORMALLY****
TOTAL RUN TIME: 0 days 0 hours 56 minutes 25 seconds 998 msec
