                         Program Version 4.2.1 -  RELEASE  -
|  1> %pal
|  2>  nprocs 32
|  3> end
|  4> !RI-MP2 aug-cc-pVTZ aug-cc-pVTZ/C TightSCF
|  5> %maxcore 4500
|  6> *xyzfile 0 1  05_16R1.xyz
|  7>
|  8>
|  9>                          ****END OF INPUT****

CARTESIAN COORDINATES (ANGSTROEM)
---------------------------------
  C      2.428229    0.545421   -0.717635
  C      0.953592    0.354489   -0.448549
  C      0.152064    1.415320   -0.048638
  C      0.371358   -0.898574   -0.620487
  C     -1.208758    1.243055    0.169051
  H      0.591825    2.395224    0.101241
  C     -0.982237   -1.090196   -0.399517
  H      0.993202   -1.734124   -0.918987
  C     -1.762437   -0.012085   -0.008445
  H     -1.830895    2.071281    0.481087
  H     -1.434079   -2.064517   -0.530499
  O      3.233911   -0.476400   -0.174093
  C      3.296111   -0.451087    1.235363
  H      2.311791   -0.612058    1.688373
  H      3.965424   -1.253922    1.539736
  H      3.697270    0.505928    1.592926
  Cl    -3.471768   -0.246191    0.270932
  H      2.748438    1.526531   -0.341133
  H      2.618262    0.524052   -1.792708

 Total Charge           Charge          ....    0
 Multiplicity           Mult            ....    1
 Number of Electrons    NEL             ....   82
 Basis Dimension        Dim             ....  671

ORBITAL ENERGIES
----------------

  NO   OCC          E(Eh)            E(eV)
   0   2.0000    -104.841240     -2852.8752
   1   2.0000     -20.564832      -559.5975
   2   2.0000     -11.303419      -307.5817
   3   2.0000     -11.288735      -307.1821
   4   2.0000     -11.272970      -306.7531
   5   2.0000     -11.251174      -306.1600
   6   2.0000     -11.250499      -306.1416
   7   2.0000     -11.249383      -306.1113
   8   2.0000     -11.248182      -306.0786
   9   2.0000     -11.245197      -305.9974
  10   2.0000     -10.564957      -287.4871
  11   2.0000      -8.031848      -218.5577
  12   2.0000      -8.029980      -218.5069
  13   2.0000      -8.029971      -218.5066
  14   2.0000      -1.384973       -37.6870
  15   2.0000      -1.194345       -32.4998
  16   2.0000      -1.126287       -30.6478
  17   2.0000      -1.035446       -28.1759
  18   2.0000      -1.030754       -28.0482
  19   2.0000      -0.958985       -26.0953
  20   2.0000      -0.883762       -24.0484
  21   2.0000      -0.851702       -23.1760
  22   2.0000      -0.802132       -21.8271
  23   2.0000      -0.704816       -19.1790
  24   2.0000      -0.679317       -18.4851
  25   2.0000      -0.666117       -18.1260
  26   2.0000      -0.648707       -17.6522
  27   2.0000      -0.634954       -17.2780
  28   2.0000      -0.623629       -16.9698
  29   2.0000      -0.603403       -16.4194
  30   2.0000      -0.566365       -15.4116
  31   2.0000      -0.553364       -15.0578
  32   2.0000      -0.535351       -14.5676
  33   2.0000      -0.523321       -14.2403
  34   2.0000      -0.513805       -13.9813
  35   2.0000      -0.481792       -13.1102
  36   2.0000      -0.464849       -12.6492
  37   2.0000      -0.455082       -12.3834
  38   2.0000      -0.433965       -11.8088
  39   2.0000      -0.355078        -9.6622
  40   2.0000      -0.334357        -9.0983
  41   0.0000       0.026906         0.7321
  42   0.0000       0.033455         0.9104
  43   0.0000       0.035929         0.9777
  44   0.0000       0.038065         1.0358
  45   0.0000       0.047309         1.2873

MULLIKEN ATOMIC CHARGES
-----------------------
   0 C :   -0.149239
   1 C :    1.384274
   2 C :   -0.835652
   3 C :   -0.555184
   4 C :   -0.837035
   5 H :    0.187685
   6 C :   -0.891557
   7 H :    0.298896
   8 C :    0.764907
   9 H :    0.473512
  10 H :    0.477808
  11 O :   -0.662452
  12 C :   -0.868126
  13 H :    0.388948
  14 H :    0.343279
  15 H :    0.312054
  16 Cl:   -0.533903
  17 H :    0.281017
  18 H :    0.420767
Sum of atomic charges:   -0.0000000

LOEWDIN ATOMIC CHARGES
----------------------
   0 C :    0.012453
   1 C :   -0.129924
   2 C :    0.206585
   3 C :    0.206453
   4 C :    0.112248
   5 H :   -0.173665
   6 C :    0.115315
   7 H :   -0.167032
   8 C :   -0.769765
   9 H :   -0.198971
  10 H :   -0.198327
  11 O :    0.551647
  12 C :    0.321081
  13 H :   -0.178654
  14 H :   -0.182262
  15 H :   -0.173319
  16 Cl:    0.961668
  17 H :   -0.163606
  18 H :   -0.151927

  Mayer bond orders larger than 0.100000
B(  0-C ,  1-C ) :   0.5234 B(  0-C ,  2-C ) :   0.1062 B(  0-C ,  3-C ) :   0.1980
B(  0-C , 11-O ) :   0.8031 B(  0-C , 17-H ) :   1.0380 B(  0-C , 18-H ) :   0.8826
B(  1-C ,  2-C ) :   0.2755 B(  1-C ,  3-C ) :   0.6289 B(  1-C ,  5-H ) :  -0.1488
B(  1-C ,  7-H ) :  -0.1895 B(  2-C ,  4-C ) :   1.2629 B(  2-C ,  5-H ) :   1.3209
B(  2-C ,  7-H ) :   0.1775 B(  3-C ,  6-C ) :   1.3177 B(  3-C ,  7-H ) :   1.0998
B(  3-C ,  8-C ) :  -0.1081 B(  4-C ,  6-C ) :   0.1355 B(  4-C ,  8-C ) :   1.2110
B(  4-C ,  9-H ) :   0.8079 B(  6-C ,  8-C ) :   1.2454 B(  6-C , 10-H ) :   0.7820
B(  8-C , 16-Cl) :   0.5092 B( 11-O , 12-C ) :   0.9637 B( 12-C , 13-H ) :   0.8264
B( 12-C , 14-H ) :   0.9545 B( 12-C , 15-H ) :   0.9048

MP2 TOTAL ENERGY:     -844.429517832 Eh
FINAL SINGLE POINT ENERGY      -844.429517832323

DIPOLE MOMENT
-------------
                                X             Y             Z
Electronic contribution:    -17.81320      -1.26408      -1.21039
Nuclear contribution   :     18.36782       1.67472       1.40586
                        -----------------------------------------
Total Dipole Moment    :      0.55463       0.41063       0.19546
                        -----------------------------------------
Magnitude (a.u.)       :      0.71724
Magnitude (Debye)      :      1.82308

Rotational constants in cm-1:     0.111266     0.017222     0.016340
Rotational constants in MHz :  3335.659169   516.288022   489.854441

                             ****ORCA TERMINATED NORMALLY****
TOTAL RUN TIME: 0 days 0 hours 4 minutes 56 seconds 83 msec
