                         Program Version 4.2.1 -  RELEASE  -
|  1> %pal
|  2>  nprocs 32
|  3> end
|  4> !RI-MP2 aug-cc-pVTZ aug-cc-pVTZ/C TightSCF
|  5> %maxcore 4500
|  6> *xyzfile 0 1  04_35P2.xyz
|  7>
|  8>
|  9>                          ****END OF INPUT****

CARTESIAN COORDINATES (ANGSTROEM)
---------------------------------
  S      0.000000    0.227448   -0.443016
  C      1.354260   -0.801428    0.184664
  H      1.257899   -0.891884    1.266726
  H      1.331934   -1.778302   -0.299472
  H      2.281547   -0.286871   -0.060773
  C     -1.354260   -0.801429    0.184664
  O      0.000000    1.486512    0.382416
  H     -1.331933   -1.778304   -0.299471
  H     -2.281547   -0.286872   -0.060774
  H     -1.257899   -0.891883    1.266726

 Total Charge           Charge          ....    0
 Multiplicity           Mult            ....    1
 Number of Electrons    NEL             ....   42
 Basis Dimension        Dim             ....  326

ORBITAL ENERGIES
----------------

  NO   OCC          E(Eh)            E(eV)
   0   2.0000     -92.070684     -2505.3707
   1   2.0000     -20.503101      -557.9177
   2   2.0000     -11.264417      -306.5204
   3   2.0000     -11.264406      -306.5201
   4   2.0000      -9.057200      -246.4590
   5   2.0000      -6.738899      -183.3748
   6   2.0000      -6.738711      -183.3696
   7   2.0000      -6.737321      -183.3318
   8   2.0000      -1.329266       -36.1712
   9   2.0000      -1.063258       -28.9327
  10   2.0000      -0.976819       -26.5806
  11   2.0000      -0.818021       -22.2595
  12   2.0000      -0.642139       -17.4735
  13   2.0000      -0.627692       -17.0804
  14   2.0000      -0.621430       -16.9100
  15   2.0000      -0.588084       -16.0026
  16   2.0000      -0.560667       -15.2565
  17   2.0000      -0.545558       -14.8454
  18   2.0000      -0.512767       -13.9531
  19   2.0000      -0.417882       -11.3711
  20   2.0000      -0.368274       -10.0212
  21   0.0000       0.024269         0.6604
  22   0.0000       0.035523         0.9666
  23   0.0000       0.041909         1.1404
  24   0.0000       0.046827         1.2742
  25   0.0000       0.058660         1.5962

MULLIKEN ATOMIC CHARGES
-----------------------
   0 S :    0.774083
   1 C :   -0.822915
   2 H :    0.276981
   3 H :    0.331897
   4 H :    0.297773
   5 C :   -0.822915
   6 O :   -0.941556
   7 H :    0.331897
   8 H :    0.297773
   9 H :    0.276981
Sum of atomic charges:   -0.0000000

LOEWDIN ATOMIC CHARGES
----------------------
   0 S :    0.801811
   1 C :    0.384369
   2 H :   -0.224512
   3 H :   -0.229202
   4 H :   -0.234252
   5 C :    0.384370
   6 O :   -0.194619
   7 H :   -0.229201
   8 H :   -0.234252
   9 H :   -0.224512

  Mayer bond orders larger than 0.100000
B(  0-S ,  1-C ) :   0.9210 B(  0-S ,  5-C ) :   0.9210 B(  0-S ,  6-O ) :   1.2931
B(  1-C ,  2-H ) :   0.8990 B(  1-C ,  3-H ) :   0.8746 B(  1-C ,  4-H ) :   0.9325
B(  5-C ,  7-H ) :   0.8746 B(  5-C ,  8-H ) :   0.9325 B(  5-C ,  9-H ) :   0.8990

MP2 TOTAL ENERGY:     -552.452066304 Eh
FINAL SINGLE POINT ENERGY      -552.452066303916

DIPOLE MOMENT
-------------
                                X             Y             Z
Electronic contribution:     -0.00000       4.12887      -2.09566
Nuclear contribution   :      0.00000      -5.95432       1.85025
                        -----------------------------------------
Total Dipole Moment    :      0.00000      -1.82545      -0.24541
                        -----------------------------------------
Magnitude (a.u.)       :      1.84187
Magnitude (Debye)      :      4.68166

Rotational constants in cm-1:     0.230997     0.227453     0.138748
Rotational constants in MHz :  6925.118025  6818.878939  4159.574044

                             ****ORCA TERMINATED NORMALLY****
TOTAL RUN TIME: 0 days 0 hours 0 minutes 34 seconds 702 msec
