                         Program Version 4.2.1 -  RELEASE  -
|  1> %pal
|  2>  nprocs 32
|  3> end
|  4> !RI-MP2 aug-cc-pVTZ aug-cc-pVTZ/C TightSCF
|  5> %maxcore 4500
|  6> *xyzfile 0 1  04_30R1.xyz
|  7>
|  8>
|  9>                          ****END OF INPUT****

CARTESIAN COORDINATES (ANGSTROEM)
---------------------------------
  C      0.037273   -0.693679    1.192770
  C      0.037273    0.636609    1.237671
  H      0.117860   -1.301117    2.085073
  C     -0.098335    1.488656    0.000000
  H      0.121596    1.123347    2.200997
  C      0.037273    0.636609   -1.237671
  H      0.660040    2.280919    0.000000
  H     -1.063219    2.015723    0.000000
  C      0.037273   -0.693679   -1.192770
  H      0.121596    1.123347   -2.200997
  H      0.117860   -1.301117   -2.085073
  H      0.186586   -2.370996    0.000000
  N     -0.080980   -1.402458    0.000000

 Total Charge           Charge          ....    0
 Multiplicity           Mult            ....    1
 Number of Electrons    NEL             ....   44
 Basis Dimension        Dim             ....  437

ORBITAL ENERGIES
----------------

  NO   OCC          E(Eh)            E(eV)
   0   2.0000     -15.576356      -423.8542
   1   2.0000     -11.260359      -306.4100
   2   2.0000     -11.260342      -306.4095
   3   2.0000     -11.224740      -305.4407
   4   2.0000     -11.209940      -305.0380
   5   2.0000     -11.209923      -305.0375
   6   2.0000      -1.256022       -34.1781
   7   2.0000      -1.061444       -28.8834
   8   2.0000      -1.025491       -27.9050
   9   2.0000      -0.890597       -24.2344
  10   2.0000      -0.821795       -22.3622
  11   2.0000      -0.735758       -20.0210
  12   2.0000      -0.673065       -18.3150
  13   2.0000      -0.627132       -17.0651
  14   2.0000      -0.592554       -16.1242
  15   2.0000      -0.590473       -16.0676
  16   2.0000      -0.584553       -15.9065
  17   2.0000      -0.521555       -14.1922
  18   2.0000      -0.503938       -13.7128
  19   2.0000      -0.469752       -12.7826
  20   2.0000      -0.365736        -9.9522
  21   2.0000      -0.279419        -7.6034
  22   0.0000       0.026412         0.7187
  23   0.0000       0.035367         0.9624
  24   0.0000       0.036260         0.9867
  25   0.0000       0.048445         1.3182
  26   0.0000       0.050082         1.3628

MULLIKEN ATOMIC CHARGES
-----------------------
   0 C :   -0.514035
   1 C :   -0.513222
   2 H :    0.752448
   3 C :   -0.151229
   4 H :    0.157425
   5 C :   -0.513222
   6 H :    0.249314
   7 H :    0.277463
   8 C :   -0.514035
   9 H :    0.157425
  10 H :    0.752448
  11 H :    0.041699
  12 N :   -0.182478
Sum of atomic charges:    0.0000000

LOEWDIN ATOMIC CHARGES
----------------------
   0 C :    0.099163
   1 C :    0.219504
   2 H :   -0.175810
   3 C :    0.224369
   4 H :   -0.198365
   5 C :    0.219504
   6 H :   -0.165566
   7 H :   -0.159989
   8 C :    0.099163
   9 H :   -0.198365
  10 H :   -0.175810
  11 H :   -0.293146
  12 N :    0.505349

  Mayer bond orders larger than 0.100000
B(  0-C ,  1-C ) :   1.3647 B(  0-C ,  2-H ) :   0.2296 B(  0-C , 12-N ) :   1.0777
B(  1-C ,  3-C ) :   0.8727 B(  1-C ,  4-H ) :   1.2681 B(  1-C ,  5-C ) :   0.1292
B(  1-C , 12-N ) :  -0.1571 B(  3-C ,  5-C ) :   0.8727 B(  3-C ,  6-H ) :   1.0796
B(  3-C ,  7-H ) :   0.9463 B(  5-C ,  8-C ) :   1.3647 B(  5-C ,  9-H ) :   1.2681
B(  5-C , 12-N ) :  -0.1571 B(  8-C , 10-H ) :   0.2296 B(  8-C , 12-N ) :   1.0777
B( 11-H , 12-N ) :   1.1339

MP2 TOTAL ENERGY:     -248.941692994 Eh
FINAL SINGLE POINT ENERGY      -248.941692994190

DIPOLE MOMENT
-------------
                                X             Y             Z
Electronic contribution:     -0.08740      -2.09369       0.00000
Nuclear contribution   :      0.26674       1.59109       0.00000
                        -----------------------------------------
Total Dipole Moment    :      0.17934      -0.50261       0.00000
                        -----------------------------------------
Magnitude (a.u.)       :      0.53364
Magnitude (Debye)      :      1.35641

Rotational constants in cm-1:     0.184376     0.171420     0.090672
Rotational constants in MHz :  5527.448975  5139.030376  2718.266424

                             ****ORCA TERMINATED NORMALLY****
TOTAL RUN TIME: 0 days 0 hours 1 minutes 10 seconds 813 msec
