                         Program Version 4.2.1 -  RELEASE  -
|  1> %pal
|  2>  nprocs 32
|  3> end
|  4> !RI-MP2 aug-cc-pVTZ aug-cc-pVTZ/C TightSCF
|  5> %maxcore 4500
|  6> *xyzfile 1 1  09_25TS.xyz
|  7>
|  8>
|  9>                          ****END OF INPUT****

CARTESIAN COORDINATES (ANGSTROEM)
---------------------------------
  C      0.146869   -0.018567   -0.094694
  C      0.198189    1.527736   -0.121246
  C      0.946350    1.869533    1.169086
  N      2.140697    1.021614    1.132507
  H      0.356140    1.601025    2.043828
  H      1.196273    2.928181    1.239974
  C      1.475329   -0.611322    0.397595
  C      2.569468   -0.919357   -0.625706
  N      3.766454   -1.421745    0.031610
  H      2.733028   -0.040255   -1.250576
  H      2.172484   -1.705257   -1.270119
  N      1.429819   -1.531550    1.367178
  C      0.441268   -1.633016    2.431354
  N      1.054699    1.942808   -1.242314
  C      1.198059    3.377621   -1.496798
  H      1.655823    3.878807   -0.642470
  H      0.259863    3.890634   -1.730287
  H     -0.546743   -1.846404    2.027465
  H      4.487673   -0.720088    0.135505
  H      4.173882   -2.207109   -0.457335
  C     -0.318235   -0.660027   -1.404886
  H     -0.593936   -0.289328    0.654730
  C     -0.885684   -2.041992   -1.189639
  H      0.450818   -0.702716   -2.174097
  H     -1.150282   -0.082542   -1.815526
  O     -0.863122   -2.761351   -2.313278
  O     -1.332772   -2.447359   -0.149547
  C     -1.193457    2.190985   -0.152700
  C     -2.222977    1.704988    0.868333
  H     -1.620762    2.076443   -1.151487
  H     -1.048110    3.262769   -0.007569
  C     -2.939613    0.448261    0.439506
  H     -3.002205    2.465292    0.975159
  H     -1.811718    1.561670    1.867998
  O     -3.296443   -0.311945    1.479372
  O     -3.174456    0.154403   -0.702718
  H     -3.751381   -1.097641    1.138859
  H     -1.304481   -3.608356   -2.148617
  H      0.729048    1.499585   -2.092400
  H      0.402624   -0.728507    3.046341
  H      0.727833   -2.461837    3.074971
  H      1.873652    3.508184   -2.341588
  H      2.570130    0.857974    2.037874
  H      2.822697    1.410925    0.488482
  H      2.316921   -2.008381    1.496166

 Total Charge           Charge          ....    1
 Multiplicity           Mult            ....    1
 Number of Electrons    NEL             ....  156
 Basis Dimension        Dim             .... 1495

ORBITAL ENERGIES
----------------

  NO   OCC          E(Eh)            E(eV)
   0   2.0000     -20.720433      -563.8317
   1   2.0000     -20.713144      -563.6333
   2   2.0000     -20.658468      -562.1455
   3   2.0000     -20.650395      -561.9258
   4   2.0000     -15.752652      -428.6515
   5   2.0000     -15.708136      -427.4401
   6   2.0000     -15.684869      -426.8070
   7   2.0000     -15.679512      -426.6612
   8   2.0000     -11.499108      -312.9066
   9   2.0000     -11.489640      -312.6490
  10   2.0000     -11.483689      -312.4871
  11   2.0000     -11.411959      -310.5352
  12   2.0000     -11.407086      -310.4026
  13   2.0000     -11.404366      -310.3286
  14   2.0000     -11.387046      -309.8573
  15   2.0000     -11.376789      -309.5782
  16   2.0000     -11.371269      -309.4280
  17   2.0000     -11.365126      -309.2608
  18   2.0000     -11.360613      -309.1380
  19   2.0000     -11.354314      -308.9666
  20   2.0000      -1.580240       -43.0005
  21   2.0000      -1.572408       -42.7874
  22   2.0000      -1.476599       -40.1803
  23   2.0000      -1.468395       -39.9571
  24   2.0000      -1.425812       -38.7983
  25   2.0000      -1.380559       -37.5669
  26   2.0000      -1.338150       -36.4129
  27   2.0000      -1.319427       -35.9034
  28   2.0000      -1.232614       -33.5411
  29   2.0000      -1.194396       -32.5012
  30   2.0000      -1.136646       -30.9297
  31   2.0000      -1.130212       -30.7546
  32   2.0000      -1.060648       -28.8617
  33   2.0000      -1.047135       -28.4940
  34   2.0000      -1.043843       -28.4044
  35   2.0000      -1.028689       -27.9920
  36   2.0000      -0.945774       -25.7358
  37   2.0000      -0.935849       -25.4657
  38   2.0000      -0.905577       -24.6420
  39   2.0000      -0.885523       -24.0963
  40   2.0000      -0.858098       -23.3500
  41   2.0000      -0.842608       -22.9285
  42   2.0000      -0.828956       -22.5570
  43   2.0000      -0.820446       -22.3255
  44   2.0000      -0.814320       -22.1588
  45   2.0000      -0.813772       -22.1439
  46   2.0000      -0.811380       -22.0788
  47   2.0000      -0.808753       -22.0073
  48   2.0000      -0.797950       -21.7133
  49   2.0000      -0.774850       -21.0847
  50   2.0000      -0.763792       -20.7838
  51   2.0000      -0.753235       -20.4966
  52   2.0000      -0.749480       -20.3944
  53   2.0000      -0.734915       -19.9980
  54   2.0000      -0.729799       -19.8588
  55   2.0000      -0.722888       -19.6708
  56   2.0000      -0.708587       -19.2816
  57   2.0000      -0.704274       -19.1643
  58   2.0000      -0.692530       -18.8447
  59   2.0000      -0.688577       -18.7371
  60   2.0000      -0.685352       -18.6494
  61   2.0000      -0.679461       -18.4891
  62   2.0000      -0.670293       -18.2396
  63   2.0000      -0.663336       -18.0503
  64   2.0000      -0.652135       -17.7455
  65   2.0000      -0.649763       -17.6810
  66   2.0000      -0.642526       -17.4840
  67   2.0000      -0.628246       -17.0955
  68   2.0000      -0.620469       -16.8838
  69   2.0000      -0.605996       -16.4900
  70   2.0000      -0.602000       -16.3813
  71   2.0000      -0.594738       -16.1837
  72   2.0000      -0.584243       -15.8981
  73   2.0000      -0.565952       -15.4003
  74   2.0000      -0.557069       -15.1586
  75   2.0000      -0.547555       -14.8997
  76   2.0000      -0.512283       -13.9399
  77   2.0000      -0.505591       -13.7578
  78   0.0000      -0.071730        -1.9519
  79   0.0000      -0.057889        -1.5752
  80   0.0000      -0.052461        -1.4275
  81   0.0000      -0.050505        -1.3743
  82   0.0000      -0.039932        -1.0866

MULLIKEN ATOMIC CHARGES
-----------------------
   0 C :    2.215490
   1 C :    1.886739
   2 C :   -0.912673
   3 N :   -0.169617
   4 H :    0.218403
   5 H :    0.202468
   6 C :    1.100064
   7 C :   -0.223860
   8 N :   -0.645477
   9 H :    0.449746
  10 H :    0.235234
  11 N :   -0.957513
  12 C :   -1.224237
  13 N :   -0.363794
  14 C :   -1.124504
  15 H :    0.350526
  16 H :    0.318873
  17 H :    0.454219
  18 H :    0.072459
  19 H :    0.053438
  20 C :   -0.341825
  21 H :   -0.042877
  22 C :    0.522656
  23 H :    0.061675
  24 H :    0.432917
  25 O :   -0.692635
  26 O :   -0.876672
  27 C :   -0.702474
  28 C :   -0.668221
  29 H :    0.147507
  30 H :    0.269305
  31 C :    1.339480
  32 H :    0.433721
  33 H :    0.120519
  34 O :   -0.649767
  35 O :   -1.102695
  36 H :    0.203069
  37 H :    0.245810
  38 H :   -0.102472
  39 H :    0.284485
  40 H :    0.381187
  41 H :    0.292678
  42 H :   -0.115344
  43 H :   -0.245886
  44 H :   -0.130124
Sum of atomic charges:    1.0000000

LOEWDIN ATOMIC CHARGES
----------------------
   0 C :    0.054376
   1 C :   -0.343913
   2 C :    0.272167
   3 N :    0.873509
   4 H :   -0.133698
   5 H :   -0.120661
   6 C :   -0.195890
   7 C :    0.225496
   8 N :    0.884643
   9 H :   -0.147857
  10 H :   -0.135862
  11 N :    0.600227
  12 C :    0.550075
  13 N :    0.601274
  14 C :    0.506556
  15 H :   -0.170359
  16 H :   -0.158608
  17 H :   -0.206016
  18 H :   -0.291921
  19 H :   -0.286465
  20 C :    0.311236
  21 H :   -0.231291
  22 C :   -0.760772
  23 H :   -0.162680
  24 H :   -0.182761
  25 O :    0.867566
  26 O :    0.515795
  27 C :    0.333853
  28 C :    0.316005
  29 H :   -0.142848
  30 H :   -0.142170
  31 C :   -0.791286
  32 H :   -0.125194
  33 H :   -0.161820
  34 O :    0.864238
  35 O :    0.513580
  36 H :   -0.443621
  37 H :   -0.441043
  38 H :   -0.312549
  39 H :   -0.149546
  40 H :   -0.142989
  41 H :   -0.152745
  42 H :   -0.202665
  43 H :   -0.241730
  44 H :   -0.311634

  Mayer bond orders larger than 0.100000
B(  0-C ,  1-C ) :   0.7227 B(  0-C ,  2-C ) :  -0.1204 B(  0-C ,  3-N ) :  -0.1396
B(  0-C ,  6-C ) :   0.9157 B(  0-C ,  9-H ) :   0.1212 B(  0-C , 11-N ) :  -0.4616
B(  0-C , 12-C ) :  -0.2959 B(  0-C , 20-C ) :   0.2813 B(  0-C , 21-H ) :   0.3857
B(  0-C , 22-C ) :   0.8063 B(  0-C , 23-H ) :  -0.1538 B(  0-C , 24-H ) :  -0.1911
B(  0-C , 25-O ) :   0.1095 B(  0-C , 26-O ) :  -0.3729 B(  0-C , 27-C ) :  -0.1084
B(  0-C , 28-C ) :  -0.2546 B(  0-C , 33-H ) :  -0.1359 B(  0-C , 35-O ) :  -0.2160
B(  0-C , 38-H ) :  -0.2443 B(  0-C , 44-H ) :  -0.1000 B(  1-C ,  2-C ) :   0.2862
B(  1-C ,  4-H ) :  -0.1857 B(  1-C ,  5-H ) :  -0.2570 B(  1-C ,  6-C ) :   0.3445
B(  1-C , 13-N ) :   0.4113 B(  1-C , 20-C ) :   0.2045 B(  1-C , 21-H ) :  -0.4321
B(  1-C , 27-C ) :   0.1105 B(  1-C , 29-H ) :  -0.3038 B(  1-C , 30-H ) :  -0.1149
B(  1-C , 35-O ) :   0.1379 B(  1-C , 38-H ) :   0.1626 B(  2-C ,  3-N ) :   0.9685
B(  2-C ,  4-H ) :   1.2583 B(  2-C ,  5-H ) :   1.1716 B(  2-C , 21-H ) :  -0.1454
B(  3-N ,  6-C ) :   0.1036 B(  3-N , 11-N ) :   0.1881 B(  3-N , 42-H ) :   1.1589
B(  3-N , 43-H ) :   1.3851 B(  6-C ,  7-C ) :   0.5333 B(  6-C ,  8-N ) :  -0.1116
B(  6-C ,  9-H ) :  -0.1601 B(  6-C , 10-H ) :  -0.1893 B(  6-C , 11-N ) :   0.5214
B(  6-C , 12-C ) :   0.1185 B(  6-C , 20-C ) :  -0.2074 B(  6-C , 21-H ) :  -0.1155
B(  6-C , 22-C ) :  -0.1476 B(  6-C , 26-O ) :   0.1711 B(  6-C , 44-H ) :   0.1210
B(  7-C ,  8-N ) :   0.6456 B(  7-C ,  9-H ) :   0.9385 B(  7-C , 10-H ) :   1.1956
B(  7-C , 11-N ) :  -0.1903 B(  7-C , 13-N ) :  -0.1134 B(  8-N , 18-H ) :   1.0533
B(  8-N , 19-H ) :   1.0152 B( 11-N , 12-C ) :   1.0957 B( 11-N , 21-H ) :  -0.1037
B( 11-N , 40-H ) :  -0.1033 B( 11-N , 44-H ) :   1.2586 B( 12-C , 17-H ) :   0.7844
B( 12-C , 39-H ) :   1.0108 B( 12-C , 40-H ) :   0.9253 B( 13-N , 14-C ) :   1.0012
B( 13-N , 20-C ) :   0.1124 B( 13-N , 27-C ) :  -0.1295 B( 13-N , 38-H ) :   0.9700
B( 14-C , 15-H ) :   0.9487 B( 14-C , 16-H ) :   0.9165 B( 14-C , 27-C ) :  -0.1327
B( 14-C , 41-H ) :   1.0221 B( 20-C , 22-C ) :  -0.2606 B( 20-C , 23-H ) :   1.0851
B( 20-C , 24-H ) :   1.0168 B( 20-C , 25-O ) :  -0.3729 B( 20-C , 38-H ) :   0.1493
B( 21-H , 22-C ) :   0.2479 B( 21-H , 24-H ) :   0.1601 B( 21-H , 26-O ) :  -0.2252
B( 21-H , 28-C ) :   0.2371 B( 21-H , 31-C ) :   0.2169 B( 21-H , 35-O ) :   0.2164
B( 22-C , 23-H ) :  -0.1412 B( 22-C , 24-H ) :  -0.1606 B( 22-C , 25-O ) :   0.7761
B( 22-C , 26-O ) :   1.3911 B( 23-H , 25-O ) :   0.3202 B( 25-O , 37-H ) :   1.0114
B( 27-C , 28-C ) :   0.9720 B( 27-C , 29-H ) :   1.4052 B( 27-C , 30-H ) :   0.9492
B( 27-C , 35-O ) :  -0.1415 B( 28-C , 29-H ) :   0.1077 B( 28-C , 31-C ) :   0.9419
B( 28-C , 32-H ) :   0.8260 B( 28-C , 33-H ) :   1.1759 B( 28-C , 35-O ) :   0.1480
B( 31-C , 32-H ) :  -0.1193 B( 31-C , 33-H ) :   0.1018 B( 31-C , 34-O ) :   0.6785
B( 31-C , 35-O ) :   0.8549 B( 34-O , 36-H ) :   0.9953

MP2 TOTAL ENERGY:     -990.294425524 Eh
FINAL SINGLE POINT ENERGY      -990.294425524145

DIPOLE MOMENT
-------------
                                X             Y             Z
Electronic contribution:    -11.46216     -10.72081      -2.42831
Nuclear contribution   :     14.27831      11.57450       3.18570
                        -----------------------------------------
Total Dipole Moment    :      2.81615       0.85369       0.75739
                        -----------------------------------------
Magnitude (a.u.)       :      3.03860
Magnitude (Debye)      :      7.72352

Rotational constants in cm-1:     0.012841     0.010783     0.008448
Rotational constants in MHz :   384.954825   323.265309   253.253708

                             ****ORCA TERMINATED NORMALLY****
TOTAL RUN TIME: 0 days 1 hours 20 minutes 6 seconds 207 msec
