                         Program Version 4.2.1 -  RELEASE  -
|  1> %pal
|  2>  nprocs 32
|  3> end
|  4> !RI-MP2 aug-cc-pVTZ aug-cc-pVTZ/C TightSCF
|  5> %maxcore 4500
|  6> *xyzfile 0 1  02_10TS.xyz
|  7>
|  8>
|  9>                          ****END OF INPUT****

CARTESIAN COORDINATES (ANGSTROEM)
---------------------------------
  C     -0.577330   -1.859458    0.499727
  C     -1.546128   -1.101542   -0.121963
  C     -0.326905    1.079853    0.252651
  C      1.019420    0.840730   -0.035867
  C      1.244971   -0.973738   -0.871540
  C      0.756412   -1.844034    0.100012
  C      2.051033    0.854919    1.079984
  H      1.768383    0.091925    1.814720
  C      2.702670   -1.009014   -1.267954
  H      2.920037   -1.960720   -1.765302
  H      2.889825   -0.228101   -2.012686
  C      3.666010   -0.809425   -0.096088
  C      3.461370    0.553113    0.563628
  H      3.736215    1.335502   -0.157013
  H      4.164745    0.649262    1.397062
  H     -1.365363   -0.766513   -1.134401
  H     -0.671767    1.079278    1.279084
  C     -1.184502    1.691359   -0.749968
  O     -0.925342    1.639734   -1.945999
  H      1.348316    1.311592   -0.960651
  H      0.568329   -0.696111   -1.672979
  H      3.464388   -1.582212    0.654792
  C      5.112025   -0.972861   -0.554173
  H      5.281035   -1.960769   -0.989294
  H      5.808502   -0.847970    0.278299
  H      5.364323   -0.226888   -1.313853
  C     -2.936218   -1.013883    0.320797
  C     -3.852796   -0.584459   -0.559379
  H     -3.491259   -0.316211   -1.549244
  C     -5.323080   -0.417581   -0.362022
  H     -5.658598   -0.679041    0.640140
  H     -5.876074   -1.039481   -1.072455
  H     -5.619280    0.617220   -0.560301
  C     -3.245263   -1.416532    1.736237
  H     -4.269309   -1.184454    2.019481
  H     -2.577680   -0.905643    2.435080
  H     -3.097623   -2.490385    1.880314
  C     -2.409736    2.424147   -0.257548
  H     -3.120854    2.544671   -1.073581
  H     -2.879927    1.905752    0.578027
  H     -2.106178    3.416201    0.090380
  C      2.055509    2.214951    1.785967
  H      1.082704    2.443738    2.222653
  H      2.298603    3.014482    1.080538
  H      2.802460    2.232138    2.583807
  H     -0.829832   -2.406391    1.401292
  H      1.463838   -2.408010    0.699072

 Total Charge           Charge          ....    0
 Multiplicity           Mult            ....    1
 Number of Electrons    NEL             ....  144
 Basis Dimension        Dim             .... 1518

ORBITAL ENERGIES
----------------

  NO   OCC          E(Eh)            E(eV)
   0   2.0000     -20.506967      -558.0229
   1   2.0000     -11.303886      -307.5944
   2   2.0000     -11.252495      -306.1959
   3   2.0000     -11.244298      -305.9729
   4   2.0000     -11.238928      -305.8268
   5   2.0000     -11.236293      -305.7551
   6   2.0000     -11.235957      -305.7459
   7   2.0000     -11.232644      -305.6558
   8   2.0000     -11.229950      -305.5825
   9   2.0000     -11.227056      -305.5037
  10   2.0000     -11.225677      -305.4662
  11   2.0000     -11.225505      -305.4615
  12   2.0000     -11.222031      -305.3670
  13   2.0000     -11.221292      -305.3469
  14   2.0000     -11.216435      -305.2147
  15   2.0000     -11.213979      -305.1479
  16   2.0000     -11.212375      -305.1042
  17   2.0000     -11.211425      -305.0784
  18   2.0000     -11.209310      -305.0208
  19   2.0000      -1.351120       -36.7658
  20   2.0000      -1.142392       -31.0861
  21   2.0000      -1.121906       -30.5286
  22   2.0000      -1.081255       -29.4224
  23   2.0000      -1.071192       -29.1486
  24   2.0000      -1.023800       -27.8590
  25   2.0000      -1.012972       -27.5644
  26   2.0000      -0.984404       -26.7870
  27   2.0000      -0.969818       -26.3901
  28   2.0000      -0.935368       -25.4526
  29   2.0000      -0.923268       -25.1234
  30   2.0000      -0.895896       -24.3786
  31   2.0000      -0.859873       -23.3983
  32   2.0000      -0.829398       -22.5691
  33   2.0000      -0.781561       -21.2674
  34   2.0000      -0.774182       -21.0666
  35   2.0000      -0.731510       -19.9054
  36   2.0000      -0.710305       -19.3284
  37   2.0000      -0.702727       -19.1222
  38   2.0000      -0.677160       -18.4265
  39   2.0000      -0.651646       -17.7322
  40   2.0000      -0.637644       -17.3512
  41   2.0000      -0.634977       -17.2786
  42   2.0000      -0.619624       -16.8608
  43   2.0000      -0.612831       -16.6760
  44   2.0000      -0.596580       -16.2338
  45   2.0000      -0.588705       -16.0195
  46   2.0000      -0.584740       -15.9116
  47   2.0000      -0.575702       -15.6657
  48   2.0000      -0.572093       -15.5674
  49   2.0000      -0.564066       -15.3490
  50   2.0000      -0.563020       -15.3206
  51   2.0000      -0.550623       -14.9832
  52   2.0000      -0.542488       -14.7618
  53   2.0000      -0.538767       -14.6606
  54   2.0000      -0.536090       -14.5877
  55   2.0000      -0.530176       -14.4268
  56   2.0000      -0.525151       -14.2901
  57   2.0000      -0.522235       -14.2107
  58   2.0000      -0.515114       -14.0170
  59   2.0000      -0.506620       -13.7858
  60   2.0000      -0.496910       -13.5216
  61   2.0000      -0.486820       -13.2471
  62   2.0000      -0.482009       -13.1161
  63   2.0000      -0.473445       -12.8831
  64   2.0000      -0.462395       -12.5824
  65   2.0000      -0.450411       -12.2563
  66   2.0000      -0.447499       -12.1771
  67   2.0000      -0.439022       -11.9464
  68   2.0000      -0.391463       -10.6522
  69   2.0000      -0.379766       -10.3340
  70   2.0000      -0.314827        -8.5669
  71   2.0000      -0.265451        -7.2233
  72   0.0000       0.022657         0.6165
  73   0.0000       0.026605         0.7240
  74   0.0000       0.030408         0.8274
  75   0.0000       0.031747         0.8639
  76   0.0000       0.038411         1.0452

MULLIKEN ATOMIC CHARGES
-----------------------
   0 C :   -0.519055
   1 C :   -0.500208
   2 C :   -0.489168
   3 C :    0.361077
   4 C :    0.530864
   5 C :   -0.356193
   6 C :    0.384090
   7 H :    0.058139
   8 C :   -0.797074
   9 H :    0.399962
  10 H :    0.038127
  11 C :    0.307736
  12 C :   -0.664590
  13 H :    0.049265
  14 H :    0.453187
  15 H :   -0.637032
  16 H :    0.047810
  17 C :    1.350791
  18 O :   -1.387910
  19 H :    0.206566
  20 H :    0.701432
  21 H :    0.296269
  22 C :   -1.315007
  23 H :    0.235642
  24 H :    0.226684
  25 H :    0.240368
  26 C :    1.925278
  27 C :   -0.252160
  28 H :    0.232325
  29 C :   -1.194237
  30 H :    0.395703
  31 H :    0.204489
  32 H :    0.212529
  33 C :   -0.940250
  34 H :    0.229738
  35 H :    0.248315
  36 H :    0.262653
  37 C :   -0.867371
  38 H :    0.271478
  39 H :    0.376639
  40 H :    0.316780
  41 C :   -1.330314
  42 H :    0.319892
  43 H :    0.254497
  44 H :    0.187171
  45 H :   -0.417189
  46 H :    0.342262
Sum of atomic charges:    0.0000000

LOEWDIN ATOMIC CHARGES
----------------------
   0 C :    0.219286
   1 C :    0.189696
   2 C :    0.177286
   3 C :    0.123881
   4 C :    0.146648
   5 C :    0.227094
   6 C :   -0.015058
   7 H :   -0.125626
   8 C :    0.303401
   9 H :   -0.130067
  10 H :   -0.131977
  11 C :   -0.028091
  12 C :    0.301967
  13 H :   -0.125308
  14 H :   -0.133663
  15 H :   -0.225777
  16 H :   -0.177760
  17 C :   -0.597647
  18 O :    0.468089
  19 H :   -0.161144
  20 H :   -0.174526
  21 H :   -0.138885
  22 C :    0.596717
  23 H :   -0.160540
  24 H :   -0.160601
  25 H :   -0.155795
  26 C :   -0.100629
  27 C :    0.233686
  28 H :   -0.172017
  29 C :    0.580631
  30 H :   -0.196972
  31 H :   -0.166263
  32 H :   -0.166751
  33 C :    0.576608
  34 H :   -0.193756
  35 H :   -0.159317
  36 H :   -0.160748
  37 C :    0.577769
  38 H :   -0.174747
  39 H :   -0.187976
  40 H :   -0.161892
  41 C :    0.601772
  42 H :   -0.170902
  43 H :   -0.150785
  44 H :   -0.159872
  45 H :   -0.189533
  46 H :   -0.169905

  Mayer bond orders larger than 0.100000
B(  0-C ,  1-C ) :   1.0438 B(  0-C ,  3-C ) :   0.1148 B(  0-C ,  6-C ) :  -0.1286
B(  0-C , 15-H ) :  -0.3441 B(  0-C , 26-C ) :   0.6221 B(  0-C , 27-C ) :   0.1193
B(  0-C , 33-C ) :  -0.2239 B(  0-C , 45-H ) :   2.3154 B(  0-C , 46-H ) :  -0.1971
B(  1-C ,  2-C ) :   0.2222 B(  1-C ,  4-C ) :  -0.2108 B(  1-C ,  8-C ) :   0.1335
B(  1-C , 15-H ) :   2.8711 B(  1-C , 18-O ) :   0.1186 B(  1-C , 20-H ) :  -0.2580
B(  1-C , 26-C ) :   0.3689 B(  1-C , 27-C ) :   0.3091 B(  1-C , 28-H ) :  -0.1318
B(  1-C , 33-C ) :   0.2298 B(  1-C , 34-H ) :   0.1410 B(  1-C , 45-H ) :  -0.1584
B(  2-C ,  3-C ) :   0.7964 B(  2-C ,  4-C ) :   0.1561 B(  2-C ,  5-C ) :   0.1971
B(  2-C ,  6-C ) :   0.1721 B(  2-C , 16-H ) :   1.0174 B(  2-C , 17-C ) :   0.5756
B(  2-C , 19-H ) :  -0.1435 B(  2-C , 20-H ) :   0.2384 B(  2-C , 37-C ) :   0.1330
B(  2-C , 41-C ) :  -0.1758 B(  2-C , 46-H ) :  -0.1428 B(  3-C ,  5-C ) :   0.1518
B(  3-C ,  6-C ) :   1.0283 B(  3-C ,  8-C ) :   0.2588 B(  3-C , 16-H ) :   0.1675
B(  3-C , 17-C ) :   0.6539 B(  3-C , 18-O ) :  -0.1022 B(  3-C , 19-H ) :   0.8844
B(  3-C , 41-C ) :   0.1019 B(  3-C , 46-H ) :   0.1853 B(  4-C ,  5-C ) :   1.1879
B(  4-C ,  6-C ) :   0.1314 B(  4-C ,  8-C ) :   0.7043 B(  4-C , 10-H ) :  -0.1277
B(  4-C , 15-H ) :  -0.2697 B(  4-C , 16-H ) :   0.1101 B(  4-C , 18-O ) :   0.1224
B(  4-C , 20-H ) :   0.5639 B(  4-C , 26-C ) :   0.1306 B(  4-C , 27-C ) :   0.1581
B(  4-C , 28-H ) :   0.1071 B(  4-C , 46-H ) :  -0.1223 B(  5-C ,  6-C ) :   0.1099
B(  5-C ,  7-H ) :  -0.1135 B(  5-C ,  8-C ) :  -0.3012 B(  5-C , 15-H ) :   0.1768
B(  5-C , 20-H ) :  -0.1417 B(  5-C , 27-C ) :   0.1117 B(  5-C , 45-H ) :  -0.5830
B(  5-C , 46-H ) :   0.9812 B(  6-C ,  7-H ) :   1.1216 B(  6-C , 12-C ) :   0.8644
B(  6-C , 19-H ) :  -0.1598 B(  6-C , 41-C ) :   0.3850 B(  6-C , 43-H ) :  -0.1154
B(  8-C ,  9-H ) :   0.8905 B(  8-C , 10-H ) :   1.3382 B(  8-C , 11-C ) :   0.9183
B(  8-C , 12-C ) :   0.1311 B(  8-C , 20-H ) :  -0.2154 B( 11-C , 12-C ) :   0.8722
B( 11-C , 21-H ) :   0.9239 B( 11-C , 22-C ) :   0.4927 B( 11-C , 25-H ) :  -0.1434
B( 12-C , 13-H ) :   1.2919 B( 12-C , 14-H ) :   0.7574 B( 12-C , 21-H ) :   0.1226
B( 12-C , 41-C ) :   0.1073 B( 15-H , 16-H ) :   0.1737 B( 15-H , 20-H ) :  -0.4232
B( 15-H , 26-C ) :  -0.5534 B( 15-H , 28-H ) :  -0.2383 B( 15-H , 34-H ) :   0.1316
B( 15-H , 45-H ) :   0.2581 B( 15-H , 46-H ) :  -0.1709 B( 17-C , 18-O ) :   0.2750
B( 17-C , 19-H ) :   0.2456 B( 17-C , 37-C ) :   0.4718 B( 18-O , 19-H ) :   0.1592
B( 20-H , 27-C ) :   0.1300 B( 20-H , 28-H ) :   0.2568 B( 22-C , 23-H ) :   1.0493
B( 22-C , 24-H ) :   1.0897 B( 22-C , 25-H ) :   1.1108 B( 26-C , 27-C ) :   0.3925
B( 26-C , 28-H ) :  -0.3028 B( 26-C , 29-C ) :   0.3484 B( 26-C , 33-C ) :   0.3077
B( 26-C , 34-H ) :  -0.1635 B( 26-C , 45-H ) :   0.1949 B( 26-C , 46-H ) :  -0.1206
B( 27-C , 28-H ) :   1.3617 B( 27-C , 29-C ) :   0.3246 B( 27-C , 31-H ) :  -0.1376
B( 27-C , 33-C ) :  -0.1792 B( 27-C , 45-H ) :  -0.2499 B( 27-C , 46-H ) :   0.1621
B( 28-H , 29-C ) :  -0.2935 B( 29-C , 30-H ) :   0.8188 B( 29-C , 31-H ) :   1.1882
B( 29-C , 32-H ) :   1.1427 B( 33-C , 34-H ) :   0.9764 B( 33-C , 35-H ) :   1.0695
B( 33-C , 36-H ) :   1.0978 B( 33-C , 45-H ) :  -0.1050 B( 37-C , 38-H ) :   0.9914
B( 37-C , 39-H ) :   0.9296 B( 37-C , 40-H ) :   0.9589 B( 41-C , 42-H ) :   0.9491
B( 41-C , 43-H ) :   1.0957 B( 41-C , 44-H ) :   1.1414

MP2 TOTAL ENERGY:     -776.301865324 Eh
FINAL SINGLE POINT ENERGY      -776.301865323905

DIPOLE MOMENT
-------------
                                X             Y             Z
Electronic contribution:     -3.65124      -1.49443      -5.75815
Nuclear contribution   :      3.51357       1.00599       7.02253
                        -----------------------------------------
Total Dipole Moment    :     -0.13767      -0.48845       1.26438
                        -----------------------------------------
Magnitude (a.u.)       :      1.36242
Magnitude (Debye)      :      3.46301

Rotational constants in cm-1:     0.021996     0.007221     0.006532
Rotational constants in MHz :   659.410562   216.466133   195.834295

                             ****ORCA TERMINATED NORMALLY****
TOTAL RUN TIME: 0 days 1 hours 26 minutes 1 seconds 447 msec
