                         Program Version 4.2.1 -  RELEASE  -
|  1> %pal
|  2>  nprocs 32
|  3> end
|  4> !RI-MP2 aug-cc-pVTZ aug-cc-pVTZ/C TightSCF
|  5> %maxcore 4500
|  6> *xyzfile 0 1  10_80TS.xyz
|  7>
|  8>
|  9>                          ****END OF INPUT****

CARTESIAN COORDINATES (ANGSTROEM)
---------------------------------
  C      3.050029    0.203603    0.073296
  C      2.379470   -0.827626   -0.827713
  C      0.878400   -0.819242   -0.694120
  C      0.189376    0.323378   -0.341715
  C      0.900064    1.494977    0.285141
  C      2.377598    1.561803   -0.092688
  H      4.114320    0.268740   -0.162274
  H      2.973173   -0.114704    1.118409
  H      2.766029   -1.831276   -0.633581
  H      2.622493   -0.616570   -1.875919
  H      0.394952    2.423760    0.013446
  H      0.801706    1.407417    1.375763
  H      2.874674    2.317579    0.518678
  H      2.471273    1.886580   -1.134180
  C     -1.229421    0.268251   -0.260815
  C     -1.922912   -0.659425   -1.116915
  C     -1.957747    1.480470    0.005417
  H      0.347013   -1.574420   -1.262353
  N     -2.464391   -1.422575   -1.782086
  N     -2.532799    2.441303    0.259396
  C     -1.620551   -0.764083    1.566044
  H     -2.591295   -1.173239    1.307671
  C     -0.533066   -1.588573    1.591748
  H     -1.647104    0.071844    2.258300
  C      0.557178   -1.948577    1.139982
  H      1.442583   -2.546533    1.168899

 Total Charge           Charge          ....    0
 Multiplicity           Mult            ....    1
 Number of Electrons    NEL             ....   98
 Basis Dimension        Dim             ....  920

ORBITAL ENERGIES
----------------

  NO   OCC          E(Eh)            E(eV)
   0   2.0000     -15.583442      -424.0470
   1   2.0000     -15.580937      -423.9788
   2   2.0000     -11.334906      -308.4385
   3   2.0000     -11.303231      -307.5766
   4   2.0000     -11.290794      -307.2381
   5   2.0000     -11.288808      -307.1841
   6   2.0000     -11.279782      -306.9385
   7   2.0000     -11.275635      -306.8256
   8   2.0000     -11.275566      -306.8237
   9   2.0000     -11.257645      -306.3361
  10   2.0000     -11.252515      -306.1965
  11   2.0000     -11.250722      -306.1477
  12   2.0000     -11.241856      -305.9065
  13   2.0000     -11.241224      -305.8893
  14   2.0000      -1.250393       -34.0249
  15   2.0000      -1.232505       -33.5382
  16   2.0000      -1.179331       -32.0912
  17   2.0000      -1.114082       -30.3157
  18   2.0000      -1.089305       -29.6415
  19   2.0000      -1.040411       -28.3110
  20   2.0000      -1.011217       -27.5166
  21   2.0000      -0.961659       -26.1681
  22   2.0000      -0.885829       -24.1046
  23   2.0000      -0.853610       -23.2279
  24   2.0000      -0.781455       -21.2645
  25   2.0000      -0.765254       -20.8236
  26   2.0000      -0.739748       -20.1296
  27   2.0000      -0.712944       -19.4002
  28   2.0000      -0.668546       -18.1921
  29   2.0000      -0.655733       -17.8434
  30   2.0000      -0.642008       -17.4699
  31   2.0000      -0.614752       -16.7283
  32   2.0000      -0.607633       -16.5345
  33   2.0000      -0.597808       -16.2672
  34   2.0000      -0.583203       -15.8698
  35   2.0000      -0.576034       -15.6747
  36   2.0000      -0.568299       -15.4642
  37   2.0000      -0.560408       -15.2495
  38   2.0000      -0.543932       -14.8011
  39   2.0000      -0.496873       -13.5206
  40   2.0000      -0.495614       -13.4863
  41   2.0000      -0.489073       -13.3084
  42   2.0000      -0.485111       -13.2006
  43   2.0000      -0.483368       -13.1531
  44   2.0000      -0.477178       -12.9847
  45   2.0000      -0.470270       -12.7967
  46   2.0000      -0.413242       -11.2449
  47   2.0000      -0.363965        -9.9040
  48   2.0000      -0.343609        -9.3501
  49   0.0000       0.018668         0.5080
  50   0.0000       0.027291         0.7426
  51   0.0000       0.029761         0.8098
  52   0.0000       0.035099         0.9551
  53   0.0000       0.041068         1.1175

MULLIKEN ATOMIC CHARGES
-----------------------
   0 C :   -0.473189
   1 C :   -0.406959
   2 C :   -0.579997
   3 C :    0.070139
   4 C :   -0.734027
   5 C :   -0.569126
   6 H :    0.324283
   7 H :    0.164627
   8 H :    0.233118
   9 H :    0.292127
  10 H :    0.267083
  11 H :    0.214526
  12 H :    0.323566
  13 H :    0.139256
  14 C :    0.274452
  15 C :    1.180691
  16 C :    1.085874
  17 H :    0.206446
  18 N :   -1.090506
  19 N :   -1.119078
  20 C :   -0.227501
  21 H :    0.337185
  22 C :   -0.154838
  23 H :    0.374334
  24 C :   -0.632317
  25 H :    0.499832
Sum of atomic charges:   -0.0000000

LOEWDIN ATOMIC CHARGES
----------------------
   0 C :    0.294399
   1 C :    0.285767
   2 C :    0.162683
   3 C :   -0.125827
   4 C :    0.298833
   5 C :    0.308610
   6 H :   -0.134106
   7 H :   -0.137461
   8 H :   -0.149431
   9 H :   -0.131298
  10 H :   -0.155040
  11 H :   -0.121789
  12 H :   -0.133421
  13 H :   -0.131912
  14 C :   -0.292223
  15 C :   -0.274932
  16 C :   -0.265355
  17 H :   -0.174667
  18 N :    0.323466
  19 N :    0.315344
  20 C :    0.407228
  21 H :   -0.184499
  22 C :    0.038010
  23 H :   -0.179150
  24 C :    0.384589
  25 H :   -0.227818

  Mayer bond orders larger than 0.100000
B(  0-C ,  1-C ) :   0.9000 B(  0-C ,  5-C ) :   0.8976 B(  0-C ,  6-H ) :   0.8989
B(  0-C ,  7-H ) :   1.0688 B(  1-C ,  2-C ) :   0.7466 B(  1-C ,  5-C ) :   0.1306
B(  1-C ,  8-H ) :   1.0260 B(  1-C ,  9-H ) :   0.9398 B(  2-C ,  3-C ) :   1.3101
B(  2-C , 14-C ) :  -0.2284 B(  2-C , 17-H ) :   1.0543 B(  2-C , 20-C ) :   0.1188
B(  2-C , 24-C ) :   0.5352 B(  3-C ,  4-C ) :   0.9163 B(  3-C , 14-C ) :   0.7687
B(  3-C , 15-C ) :   0.8745 B(  3-C , 16-C ) :   0.3619 B(  4-C ,  5-C ) :   0.8949
B(  4-C , 10-H ) :   0.9319 B(  4-C , 11-H ) :   1.0421 B(  4-C , 14-C ) :  -0.2246
B(  4-C , 15-C ) :   0.1126 B(  4-C , 24-C ) :   0.1077 B(  5-C , 12-H ) :   0.9082
B(  5-C , 13-H ) :   1.1161 B( 14-C , 15-C ) :   0.4710 B( 14-C , 16-C ) :   0.8854
B( 14-C , 17-H ) :  -0.1451 B( 14-C , 18-N ) :   0.7034 B( 14-C , 19-N ) :   0.7782
B( 14-C , 20-C ) :   0.3154 B( 14-C , 22-C ) :   0.1321 B( 14-C , 24-C ) :   0.1841
B( 15-C , 16-C ) :  -0.2137 B( 15-C , 18-N ) :   1.0180 B( 16-C , 19-N ) :   1.0746
B( 20-C , 21-H ) :   0.9614 B( 20-C , 22-C ) :   0.9949 B( 20-C , 23-H ) :   0.8861
B( 20-C , 24-C ) :  -0.1952 B( 22-C , 24-C ) :   1.8540 B( 22-C , 25-H ) :  -0.1438
B( 24-C , 25-H ) :   0.8715

MP2 TOTAL ENERGY:     -572.696274619 Eh
FINAL SINGLE POINT ENERGY      -572.696274618843

DIPOLE MOMENT
-------------
                                X             Y             Z
Electronic contribution:    -14.22427      -0.90988      -1.95942
Nuclear contribution   :     16.52335       0.52461       2.68114
                        -----------------------------------------
Total Dipole Moment    :      2.29908      -0.38527       0.72172
                        -----------------------------------------
Magnitude (a.u.)       :      2.44031
Magnitude (Debye)      :      6.20276

Rotational constants in cm-1:     0.033445     0.020375     0.017059
Rotational constants in MHz :  1002.647805   610.827558   511.419981

                             ****ORCA TERMINATED NORMALLY****
TOTAL RUN TIME: 0 days 0 hours 18 minutes 35 seconds 654 msec
