                         Program Version 4.2.1 -  RELEASE  -
|  1> %pal
|  2>  nprocs 32
|  3> end
|  4> !RI-MP2 aug-cc-pVTZ aug-cc-pVTZ/C TightSCF
|  5> %maxcore 4500
|  6> *xyzfile 0 1  02_7P.xyz
|  7>
|  8>
|  9>                          ****END OF INPUT****

CARTESIAN COORDINATES (ANGSTROEM)
---------------------------------
  O     -6.598913    0.392072    1.321540
  C     -5.977665    0.689440    0.070693
  C     -4.538391    1.151756    0.387323
  C     -3.625313    0.137244   -0.306980
  C     -4.480028   -1.137120   -0.378698
  C     -5.829086   -0.571663   -0.802374
  C     -2.229192   -0.099381    0.280332
  C     -1.815984   -1.623194    0.148013
  C     -2.476366   -2.317649   -1.020813
  C     -3.773951   -2.132644   -1.241877
  C     -1.236398    0.812334   -0.366990
  C     -0.425357    1.645839    0.276106
  C     -0.328226   -1.779863    0.153242
  C      0.384978   -2.155734    1.208202
  C      1.862171   -2.179696    1.232081
  O      2.401622   -2.000530    0.017102
  C      3.833082   -1.808491   -0.101301
  C      4.423326   -3.011683   -0.816278
  C      4.222023   -4.325193   -0.070778
  C      0.581158    2.459366   -0.451115
  C      1.655226    3.107824    0.401705
  C      1.136813    4.473231    0.871954
  O      2.502880   -2.317261    2.244972
  C      4.030572   -0.504391   -0.855056
  C      3.474146    0.713141   -0.124718
  C      3.495852    1.965398   -0.997212
  C      3.002623    3.244345   -0.322294
  O      3.974076    3.761915    0.587302
  O      0.543601    2.607217   -1.654942
  H     -4.348754    2.176324    0.066135
  H     -4.414453    1.115784    1.471756
  H     -6.553545    1.465767   -0.441784
  H     -6.666334   -1.259719   -0.666319
  H     -5.795636   -0.289496   -1.860192
  H     -4.583418   -1.539083    0.639077
  H     -4.295770   -2.647357   -2.041763
  H     -1.885319   -2.999716   -1.622118
  H      0.198449   -1.528228   -0.762066
  H     -0.078752   -2.405238    2.155846
  H      4.237530   -1.738279    0.910054
  H      3.547533   -0.594848   -1.833933
  H      5.100480   -0.371411   -1.042904
  H      2.447142    0.494724    0.179050
  H      4.045515    0.865133    0.799613
  H      4.514445    2.160193   -1.345816
  H      2.883934    1.790208   -1.884195
  H      2.907121    4.015431   -1.087981
  H      1.805917    2.478187    1.286052
  H     -1.164321    0.778116   -1.452654
  H     -3.494760    0.451686   -1.348760
  H      3.983585   -3.072876   -1.816960
  H      5.492012   -2.820493   -0.953508
  H      3.161295   -4.559081    0.035209
  H      4.653206   -4.281241    0.931538
  H      4.692045   -5.151643   -0.606940
  H      0.224561    4.375027    1.464326
  H      0.917430    5.109089    0.011532
  H      1.895358    4.964722    1.480077
  H      4.184588    3.082939    1.234945
  H     -7.515457    0.149346    1.165384
  H     -0.431236    1.699366    1.360459
  H     -2.205256   -2.093845    1.057571
  H     -2.241335    0.113907    1.352469

 Total Charge           Charge          ....    0
 Multiplicity           Mult            ....    1
 Number of Electrons    NEL             ....  218
 Basis Dimension        Dim             .... 2116

ORBITAL ENERGIES
----------------

  NO   OCC          E(Eh)            E(eV)
   0   2.0000     -20.592691      -560.3556
   1   2.0000     -20.563758      -559.5683
   2   2.0000     -20.553872      -559.2993
   3   2.0000     -20.539845      -558.9176
   4   2.0000     -20.537370      -558.8502
   5   2.0000     -11.377158      -309.5882
   6   2.0000     -11.328688      -308.2693
   7   2.0000     -11.288914      -307.1870
   8   2.0000     -11.286108      -307.1106
   9   2.0000     -11.277698      -306.8818
  10   2.0000     -11.262075      -306.4566
  11   2.0000     -11.259352      -306.3826
  12   2.0000     -11.258879      -306.3697
  13   2.0000     -11.255660      -306.2821
  14   2.0000     -11.241102      -305.8859
  15   2.0000     -11.238434      -305.8133
  16   2.0000     -11.238276      -305.8090
  17   2.0000     -11.237951      -305.8002
  18   2.0000     -11.237319      -305.7830
  19   2.0000     -11.236389      -305.7577
  20   2.0000     -11.234997      -305.7198
  21   2.0000     -11.231873      -305.6348
  22   2.0000     -11.226108      -305.4779
  23   2.0000     -11.225501      -305.4614
  24   2.0000     -11.225384      -305.4582
  25   2.0000     -11.224760      -305.4413
  26   2.0000     -11.221717      -305.3584
  27   2.0000     -11.214980      -305.1751
  28   2.0000     -11.211385      -305.0773
  29   2.0000      -1.456301       -39.6280
  30   2.0000      -1.386542       -37.7297
  31   2.0000      -1.368403       -37.2361
  32   2.0000      -1.359791       -37.0018
  33   2.0000      -1.356528       -36.9130
  34   2.0000      -1.178716       -32.0745
  35   2.0000      -1.124068       -30.5874
  36   2.0000      -1.108001       -30.1503
  37   2.0000      -1.092565       -29.7302
  38   2.0000      -1.084479       -29.5102
  39   2.0000      -1.066210       -29.0130
  40   2.0000      -1.048214       -28.5233
  41   2.0000      -1.020687       -27.7743
  42   2.0000      -0.992962       -27.0199
  43   2.0000      -0.973814       -26.4988
  44   2.0000      -0.963026       -26.2053
  45   2.0000      -0.927549       -25.2399
  46   2.0000      -0.907798       -24.7024
  47   2.0000      -0.882148       -24.0045
  48   2.0000      -0.851027       -23.1576
  49   2.0000      -0.838201       -22.8086
  50   2.0000      -0.818330       -22.2679
  51   2.0000      -0.814677       -22.1685
  52   2.0000      -0.797184       -21.6925
  53   2.0000      -0.787159       -21.4197
  54   2.0000      -0.773832       -21.0570
  55   2.0000      -0.767320       -20.8798
  56   2.0000      -0.739836       -20.1320
  57   2.0000      -0.732363       -19.9286
  58   2.0000      -0.707064       -19.2402
  59   2.0000      -0.694019       -18.8852
  60   2.0000      -0.689718       -18.7682
  61   2.0000      -0.675734       -18.3876
  62   2.0000      -0.672136       -18.2897
  63   2.0000      -0.665057       -18.0971
  64   2.0000      -0.662104       -18.0168
  65   2.0000      -0.652384       -17.7523
  66   2.0000      -0.643242       -17.5035
  67   2.0000      -0.640288       -17.4231
  68   2.0000      -0.635092       -17.2817
  69   2.0000      -0.621571       -16.9138
  70   2.0000      -0.620233       -16.8774
  71   2.0000      -0.601773       -16.3751
  72   2.0000      -0.595763       -16.2115
  73   2.0000      -0.589994       -16.0546
  74   2.0000      -0.577852       -15.7242
  75   2.0000      -0.575729       -15.6664
  76   2.0000      -0.574439       -15.6313
  77   2.0000      -0.570049       -15.5118
  78   2.0000      -0.565759       -15.3951
  79   2.0000      -0.561041       -15.2667
  80   2.0000      -0.554502       -15.0888
  81   2.0000      -0.546707       -14.8766
  82   2.0000      -0.541064       -14.7231
  83   2.0000      -0.537569       -14.6280
  84   2.0000      -0.529816       -14.4170
  85   2.0000      -0.526216       -14.3191
  86   2.0000      -0.521520       -14.1913
  87   2.0000      -0.511518       -13.9191
  88   2.0000      -0.510381       -13.8882
  89   2.0000      -0.506369       -13.7790
  90   2.0000      -0.504460       -13.7270
  91   2.0000      -0.499843       -13.6014
  92   2.0000      -0.493035       -13.4162
  93   2.0000      -0.491841       -13.3837
  94   2.0000      -0.488877       -13.3030
  95   2.0000      -0.474937       -12.9237
  96   2.0000      -0.473966       -12.8973
  97   2.0000      -0.472687       -12.8625
  98   2.0000      -0.464936       -12.6515
  99   2.0000      -0.460543       -12.5320
 100   2.0000      -0.449664       -12.2360
 101   2.0000      -0.444553       -12.0969
 102   2.0000      -0.440182       -11.9780
 103   2.0000      -0.439460       -11.9583
 104   2.0000      -0.425387       -11.5754
 105   2.0000      -0.404763       -11.0142
 106   2.0000      -0.387177       -10.5356
 107   2.0000      -0.376860       -10.2549
 108   2.0000      -0.356160        -9.6916
 109   0.0000       0.020182         0.5492
 110   0.0000       0.025711         0.6996
 111   0.0000       0.027997         0.7618
 112   0.0000       0.030180         0.8212
 113   0.0000       0.032539         0.8854

MULLIKEN ATOMIC CHARGES
-----------------------
   0 O :   -0.722383
   1 C :    0.267700
   2 C :   -0.925082
   3 C :    0.719264
   4 C :    0.548727
   5 C :   -1.045675
   6 C :    0.492208
   7 C :    0.863564
   8 C :   -1.061260
   9 C :   -1.404123
  10 C :    0.439660
  11 C :   -0.419773
  12 C :   -0.256965
  13 C :   -0.507677
  14 C :    1.621675
  15 O :   -0.190993
  16 C :    0.596974
  17 C :   -0.771328
  18 C :   -1.108964
  19 C :    1.995975
  20 C :    0.522196
  21 C :   -1.265513
  22 O :   -1.408141
  23 C :   -0.742166
  24 C :   -0.289475
  25 C :   -0.737965
  26 C :    0.456872
  27 O :   -0.946891
  28 O :   -1.539665
  29 H :    0.302961
  30 H :    0.235064
  31 H :    0.354367
  32 H :    0.355165
  33 H :    0.159978
  34 H :    0.286375
  35 H :    0.597706
  36 H :    0.293762
  37 H :   -0.314512
  38 H :    0.199688
  39 H :    0.534439
  40 H :    0.181789
  41 H :    0.252991
  42 H :    0.555908
  43 H :    0.217872
  44 H :    0.339231
  45 H :    0.207456
  46 H :    0.343690
  47 H :   -0.011283
  48 H :   -0.319411
  49 H :    0.311358
  50 H :    0.186101
  51 H :    0.235459
  52 H :    0.292545
  53 H :    0.222848
  54 H :    0.277031
  55 H :    0.298656
  56 H :    0.264124
  57 H :    0.277678
  58 H :    0.147364
  59 H :    0.109951
  60 H :   -0.407777
  61 H :    0.196854
  62 H :   -0.366207
Sum of atomic charges:    0.0000000

LOEWDIN ATOMIC CHARGES
----------------------
   0 O :    0.833881
   1 C :   -0.200263
   2 C :    0.354509
   3 C :    0.013487
   4 C :   -0.024648
   5 C :    0.332664
   6 C :    0.057696
   7 C :    0.002852
   8 C :    0.265361
   9 C :    0.271688
  10 C :    0.234057
  11 C :    0.251350
  12 C :    0.215483
  13 C :    0.233955
  14 C :   -0.845699
  15 O :    0.615300
  16 C :   -0.225904
  17 C :    0.276781
  18 C :    0.585745
  19 C :   -0.536971
  20 C :   -0.042085
  21 C :    0.603638
  22 O :    0.470747
  23 C :    0.302238
  24 C :    0.284390
  25 C :    0.308902
  26 C :   -0.232694
  27 O :    0.850170
  28 O :    0.509847
  29 H :   -0.130444
  30 H :   -0.150954
  31 H :   -0.131377
  32 H :   -0.134949
  33 H :   -0.133171
  34 H :   -0.107280
  35 H :   -0.161724
  36 H :   -0.169510
  37 H :   -0.170336
  38 H :   -0.184835
  39 H :   -0.170329
  40 H :   -0.131475
  41 H :   -0.129541
  42 H :   -0.169854
  43 H :   -0.128878
  44 H :   -0.133416
  45 H :   -0.163448
  46 H :   -0.135817
  47 H :   -0.154199
  48 H :   -0.150016
  49 H :   -0.127479
  50 H :   -0.139883
  51 H :   -0.141726
  52 H :   -0.173685
  53 H :   -0.163042
  54 H :   -0.169084
  55 H :   -0.160037
  56 H :   -0.153796
  57 H :   -0.165367
  58 H :   -0.494446
  59 H :   -0.484897
  60 H :   -0.175670
  61 H :   -0.141626
  62 H :   -0.134191

  Mayer bond orders larger than 0.100000
B(  0-O ,  1-C ) :   0.3491 B(  0-O ,  2-C ) :   0.1607 B(  0-O ,  5-C ) :   0.1816
B(  0-O , 59-H ) :   1.0365 B(  1-C ,  2-C ) :   1.0956 B(  1-C ,  5-C ) :   1.0804
B(  1-C , 31-H ) :   0.9273 B(  2-C ,  3-C ) :   0.6977 B(  2-C ,  4-C ) :   0.1047
B(  2-C ,  5-C ) :   0.2935 B(  2-C ,  6-C ) :  -0.1005 B(  2-C , 10-C ) :  -0.1619
B(  2-C , 29-H ) :   0.9494 B(  2-C , 30-H ) :   1.0940 B(  3-C ,  4-C ) :   0.7530
B(  3-C ,  5-C ) :  -0.3277 B(  3-C ,  6-C ) :   0.9262 B(  3-C ,  7-C ) :   0.1572
B(  3-C ,  8-C ) :  -0.1658 B(  3-C ,  9-C ) :   0.5940 B(  3-C , 10-C ) :  -0.2698
B(  3-C , 12-C ) :   0.1490 B(  3-C , 49-H ) :   1.0016 B(  4-C ,  5-C ) :   0.7360
B(  4-C ,  8-C ) :   0.1586 B(  4-C ,  9-C ) :   0.1113 B(  4-C , 34-H ) :   0.9982
B(  4-C , 35-H ) :   0.1088 B(  4-C , 49-H ) :  -0.1008 B(  5-C ,  7-C ) :  -0.1250
B(  5-C , 32-H ) :   0.8883 B(  5-C , 33-H ) :   1.2030 B(  6-C ,  7-C ) :   0.8544
B(  6-C ,  8-C ) :   0.4905 B(  6-C , 10-C ) :   0.9023 B(  6-C , 11-C ) :   0.2502
B(  6-C , 12-C ) :  -0.1361 B(  6-C , 19-C ) :   0.1101 B(  6-C , 60-H ) :  -0.2133
B(  6-C , 62-H ) :   0.6710 B(  7-C ,  8-C ) :   0.6555 B(  7-C ,  9-C ) :  -0.1581
B(  7-C , 10-C ) :   0.2839 B(  7-C , 12-C ) :   0.3956 B(  7-C , 37-H ) :   0.1423
B(  7-C , 61-H ) :   1.3333 B(  8-C ,  9-C ) :   1.2903 B(  8-C , 10-C ) :  -0.1721
B(  8-C , 11-C ) :   0.1033 B(  8-C , 12-C ) :  -0.2504 B(  8-C , 36-H ) :   0.9926
B(  8-C , 61-H ) :  -0.3392 B(  9-C , 12-C ) :   0.1065 B(  9-C , 34-H ) :  -0.1923
B(  9-C , 35-H ) :   0.3964 B(  9-C , 61-H ) :  -0.2397 B( 10-C , 11-C ) :   1.1990
B( 10-C , 13-C ) :  -0.1174 B( 10-C , 14-C ) :   0.1054 B( 10-C , 19-C ) :   0.2115
B( 10-C , 20-C ) :   0.1736 B( 10-C , 28-O ) :  -0.2018 B( 10-C , 48-H ) :   1.7051
B( 10-C , 49-H ) :  -0.1980 B( 10-C , 60-H ) :  -0.1119 B( 10-C , 62-H ) :   0.1115
B( 11-C , 19-C ) :   0.9644 B( 11-C , 20-C ) :  -0.2697 B( 11-C , 28-O ) :   0.3409
B( 11-C , 35-H ) :   0.1349 B( 11-C , 47-H ) :  -0.1378 B( 11-C , 48-H ) :  -0.2445
B( 11-C , 60-H ) :   1.7502 B( 12-C , 13-C ) :   1.3650 B( 12-C , 14-C ) :   0.1975
B( 12-C , 15-O ) :  -0.3398 B( 12-C , 37-H ) :   1.9237 B( 13-C , 14-C ) :   0.5826
B( 13-C , 22-O ) :  -0.4127 B( 13-C , 35-H ) :   0.1793 B( 13-C , 36-H ) :  -0.2007
B( 13-C , 38-H ) :   1.1556 B( 14-C , 15-O ) :   1.1787 B( 14-C , 16-C ) :  -0.1842
B( 14-C , 22-O ) :   0.4905 B( 14-C , 36-H ) :   0.1048 B( 14-C , 39-H ) :  -0.1225
B( 15-O , 16-C ) :   0.6834 B( 15-O , 18-C ) :  -0.1360 B( 15-O , 22-O ) :   0.2346
B( 15-O , 39-H ) :  -0.1356 B( 16-C , 17-C ) :   0.5644 B( 16-C , 22-O ) :   0.1547
B( 16-C , 23-C ) :   0.8559 B( 16-C , 39-H ) :   0.8197 B( 17-C , 18-C ) :   0.9147
B( 17-C , 50-H ) :   1.0768 B( 17-C , 51-H ) :   1.0130 B( 18-C , 52-H ) :   0.9458
B( 18-C , 53-H ) :   1.0541 B( 18-C , 54-H ) :   0.9904 B( 19-C , 20-C ) :   1.1534
B( 19-C , 21-C ) :  -0.1612 B( 19-C , 28-O ) :  -0.3321 B( 19-C , 47-H ) :   0.2099
B( 19-C , 48-H ) :  -0.1931 B( 19-C , 60-H ) :  -0.1617 B( 20-C , 21-C ) :   0.4159
B( 20-C , 25-C ) :   0.1661 B( 20-C , 26-C ) :   0.9755 B( 20-C , 27-O ) :   0.3439
B( 20-C , 28-O ) :  -0.1030 B( 20-C , 47-H ) :   1.0693 B( 20-C , 56-H ) :  -0.1541
B( 20-C , 60-H ) :  -0.2438 B( 21-C , 55-H ) :   0.9904 B( 21-C , 56-H ) :   1.0969
B( 21-C , 57-H ) :   1.0339 B( 22-O , 39-H ) :  -0.1180 B( 23-C , 24-C ) :   0.8979
B( 23-C , 25-C ) :   0.1119 B( 23-C , 40-H ) :   1.0547 B( 23-C , 41-H ) :   0.9215
B( 23-C , 43-H ) :   0.1017 B( 24-C , 25-C ) :   0.6284 B( 24-C , 26-C ) :   0.1438
B( 24-C , 42-H ) :   0.7506 B( 24-C , 43-H ) :   1.0201 B( 25-C , 26-C ) :   0.8948
B( 25-C , 27-O ) :   0.2703 B( 25-C , 44-H ) :   0.8470 B( 25-C , 45-H ) :   1.1422
B( 26-C , 27-O ) :  -0.2003 B( 26-C , 28-O ) :   0.1123 B( 26-C , 46-H ) :   1.0138
B( 27-O , 46-H ) :  -0.1189 B( 27-O , 58-H ) :   1.0620 B( 28-O , 48-H ) :   0.1018
B( 36-H , 38-H ) :  -0.1201 B( 36-H , 61-H ) :   0.1012 B( 48-H , 60-H ) :   0.3716
B( 48-H , 62-H ) :   0.1542

MP2 TOTAL ENERGY:    -1308.624242001 Eh
FINAL SINGLE POINT ENERGY     -1308.624242000923

DIPOLE MOMENT
-------------
                                X             Y             Z
Electronic contribution:     -6.82751      -0.65262       2.67621
Nuclear contribution   :      5.35236      -0.02857      -3.18066
                        -----------------------------------------
Total Dipole Moment    :     -1.47515      -0.68118      -0.50444
                        -----------------------------------------
Magnitude (a.u.)       :      1.70133
Magnitude (Debye)      :      4.32444

Rotational constants in cm-1:     0.006914     0.003254     0.002429
Rotational constants in MHz :   207.289546    97.563700    72.828608

                             ****ORCA TERMINATED NORMALLY****
TOTAL RUN TIME: 0 days 3 hours 34 minutes 11 seconds 370 msec
