                         Program Version 4.2.1 -  RELEASE  -
|  1> %pal
|  2>  nprocs 32
|  3> end
|  4> !RI-MP2 aug-cc-pVTZ aug-cc-pVTZ/C TightSCF
|  5> %maxcore 4500
|  6> *xyzfile 1 1  10_12P.xyz
|  7>
|  8>
|  9>                          ****END OF INPUT****

CARTESIAN COORDINATES (ANGSTROEM)
---------------------------------
  C      2.375768   -0.475052   -0.128904
  N      0.966002   -0.895188   -0.109822
  N      0.208582    0.073461   -0.165270
  C     -1.213912   -0.098748   -0.103377
  C     -2.044953    0.877316   -0.641931
  C     -1.722424   -1.251701    0.485510
  C     -3.415192    0.683720   -0.593850
  H     -1.647038    1.766785   -1.109762
  C     -3.093154   -1.424876    0.531094
  H     -1.050942   -1.988967    0.903119
  C     -3.938268   -0.461479   -0.008303
  H     -4.074788    1.429479   -1.017517
  H     -3.504527   -2.312670    0.993179
  H     -5.010830   -0.603283    0.031097
  C      2.933453   -0.796569    1.261973
  H      2.429993   -0.226260    2.043927
  H      2.832936   -1.858843    1.484000
  H      3.993393   -0.539844    1.279249
  C      3.080224   -1.298916   -1.203092
  H      2.630847   -1.138719   -2.184337
  H      4.126717   -0.994352   -1.252111
  H      3.039825   -2.362285   -0.968042
  C      2.325305    1.034704   -0.444014
  C      0.869565    1.435413   -0.220718
  C      0.577056    2.205794    1.057794
  H      0.965559    1.683010    1.932850
  H      1.071088    3.175734    0.995390
  H     -0.489186    2.377809    1.197945
  H      2.992559    1.600733    0.203262
  H      2.621638    1.216842   -1.476267
  H      0.449864    1.949277   -1.083422

 Total Charge           Charge          ....    1
 Multiplicity           Mult            ....    1
 Number of Electrons    NEL             ....  102
 Basis Dimension        Dim             .... 1035

ORBITAL ENERGIES
----------------

  NO   OCC          E(Eh)            E(eV)
   0   2.0000     -15.887833      -432.3299
   1   2.0000     -15.834723      -430.8847
   2   2.0000     -11.454273      -311.6866
   3   2.0000     -11.439521      -311.2852
   4   2.0000     -11.434488      -311.1482
   5   2.0000     -11.391675      -309.9832
   6   2.0000     -11.387899      -309.8805
   7   2.0000     -11.385895      -309.8260
   8   2.0000     -11.374797      -309.5240
   9   2.0000     -11.374605      -309.5187
  10   2.0000     -11.372497      -309.4614
  11   2.0000     -11.371278      -309.4282
  12   2.0000     -11.366011      -309.2849
  13   2.0000     -11.360098      -309.1240
  14   2.0000      -1.621879       -44.1336
  15   2.0000      -1.335805       -36.3491
  16   2.0000      -1.279066       -34.8052
  17   2.0000      -1.269638       -34.5486
  18   2.0000      -1.186386       -32.2832
  19   2.0000      -1.167535       -31.7702
  20   2.0000      -1.105267       -30.0759
  21   2.0000      -1.095150       -29.8006
  22   2.0000      -1.087775       -29.5999
  23   2.0000      -1.021648       -27.8005
  24   2.0000      -0.982191       -26.7268
  25   2.0000      -0.963387       -26.2151
  26   2.0000      -0.920197       -25.0398
  27   2.0000      -0.895947       -24.3799
  28   2.0000      -0.837525       -22.7902
  29   2.0000      -0.822343       -22.3771
  30   2.0000      -0.805698       -21.9242
  31   2.0000      -0.774405       -21.0726
  32   2.0000      -0.772428       -21.0188
  33   2.0000      -0.753446       -20.5023
  34   2.0000      -0.745497       -20.2860
  35   2.0000      -0.738103       -20.0848
  36   2.0000      -0.723741       -19.6940
  37   2.0000      -0.719090       -19.5674
  38   2.0000      -0.703899       -19.1541
  39   2.0000      -0.688617       -18.7382
  40   2.0000      -0.683962       -18.6115
  41   2.0000      -0.677341       -18.4314
  42   2.0000      -0.657273       -17.8853
  43   2.0000      -0.652650       -17.7595
  44   2.0000      -0.648944       -17.6587
  45   2.0000      -0.643643       -17.5144
  46   2.0000      -0.629152       -17.1201
  47   2.0000      -0.614369       -16.7178
  48   2.0000      -0.610285       -16.6067
  49   2.0000      -0.483372       -13.1532
  50   2.0000      -0.481141       -13.0925
  51   0.0000      -0.103258        -2.8098
  52   0.0000      -0.067774        -1.8442
  53   0.0000      -0.056085        -1.5262
  54   0.0000      -0.052860        -1.4384
  55   0.0000      -0.052378        -1.4253

MULLIKEN ATOMIC CHARGES
-----------------------
   0 C :    1.263501
   1 N :   -1.328109
   2 N :    1.331623
   3 C :    1.359790
   4 C :   -0.464713
   5 C :   -0.858674
   6 C :   -0.877993
   7 H :    0.574345
   8 C :   -0.739459
   9 H :    0.488919
  10 C :   -0.328928
  11 H :    0.380614
  12 H :    0.467113
  13 H :    0.508512
  14 C :   -1.194077
  15 H :    0.395725
  16 H :    0.263823
  17 H :    0.261230
  18 C :   -1.273847
  19 H :    0.303698
  20 H :    0.279730
  21 H :    0.257329
  22 C :   -0.549840
  23 C :   -0.314011
  24 C :   -1.003039
  25 H :    0.335088
  26 H :    0.273541
  27 H :    0.344219
  28 H :    0.288653
  29 H :    0.231448
  30 H :    0.323788
Sum of atomic charges:    1.0000000

LOEWDIN ATOMIC CHARGES
----------------------
   0 C :   -0.426017
   1 N :    0.499224
   2 N :    0.176418
   3 C :   -0.177131
   4 C :    0.236419
   5 C :    0.242916
   6 C :    0.241046
   7 H :   -0.177343
   8 C :    0.240675
   9 H :   -0.173343
  10 C :    0.243318
  11 H :   -0.164101
  12 H :   -0.163896
  13 H :   -0.160311
  14 C :    0.625462
  15 H :   -0.157729
  16 H :   -0.144555
  17 H :   -0.138593
  18 C :    0.622361
  19 H :   -0.148433
  20 H :   -0.139140
  21 H :   -0.145884
  22 C :    0.365101
  23 C :   -0.006090
  24 C :    0.647983
  25 H :   -0.151542
  26 H :   -0.137630
  27 H :   -0.155729
  28 H :   -0.121699
  29 H :   -0.124945
  30 H :   -0.126811

  Mayer bond orders larger than 0.100000
B(  0-C ,  1-N ) :   0.9366 B(  0-C , 14-C ) :   0.4315 B(  0-C , 18-C ) :   0.2893
B(  0-C , 22-C ) :   0.8042 B(  1-N ,  2-N ) :  -0.5074 B(  1-N ,  3-C ) :  -0.2745
B(  1-N ,  5-C ) :   0.1522 B(  1-N ,  9-H ) :  -0.2379 B(  1-N , 22-C ) :   0.1118
B(  1-N , 23-C ) :  -0.1022 B(  2-N ,  3-C ) :   0.4908 B(  2-N ,  4-C ) :  -0.5686
B(  2-N ,  5-C ) :  -0.6777 B(  2-N , 23-C ) :   1.0205 B(  2-N , 30-H ) :   0.1347
B(  3-C ,  4-C ) :   0.6150 B(  3-C ,  5-C ) :   0.1822 B(  3-C ,  6-C ) :  -0.3795
B(  3-C ,  7-H ) :  -0.1693 B(  3-C ,  8-C ) :  -0.2561 B(  3-C , 10-C ) :  -0.1220
B(  4-C ,  5-C ) :   0.1682 B(  4-C ,  6-C ) :   1.3578 B(  4-C ,  7-H ) :   0.5848
B(  4-C , 10-C ) :   0.1645 B(  5-C ,  8-C ) :   1.3595 B(  5-C ,  9-H ) :   0.8368
B(  5-C , 10-C ) :   0.1273 B(  6-C ,  7-H ) :  -0.1371 B(  6-C , 10-C ) :   1.1787
B(  6-C , 11-H ) :   0.9378 B(  6-C , 13-H ) :  -0.1021 B(  8-C , 10-C ) :   1.1298
B(  8-C , 12-H ) :   0.7999 B( 10-C , 13-H ) :   0.7264 B( 14-C , 15-H ) :   0.8860
B( 14-C , 16-H ) :   1.0559 B( 14-C , 17-H ) :   1.0328 B( 18-C , 19-H ) :   1.0163
B( 18-C , 20-H ) :   1.0286 B( 18-C , 21-H ) :   1.0958 B( 22-C , 23-C ) :   0.9806
B( 22-C , 28-H ) :   1.0006 B( 22-C , 29-H ) :   1.0047 B( 23-C , 24-C ) :   0.7764
B( 23-C , 30-H ) :   0.8500 B( 24-C , 25-H ) :   0.9392 B( 24-C , 26-H ) :   0.9973
B( 24-C , 27-H ) :   0.9548

MP2 TOTAL ENERGY:     -575.569489622 Eh
FINAL SINGLE POINT ENERGY      -575.569489622409

DIPOLE MOMENT
-------------
                                X             Y             Z
Electronic contribution:    -10.87973      -2.57614      -2.05857
Nuclear contribution   :     11.63417       3.23928       2.01426
                        -----------------------------------------
Total Dipole Moment    :      0.75444       0.66313      -0.04431
                        -----------------------------------------
Magnitude (a.u.)       :      1.00543
Magnitude (Debye)      :      2.55559

Rotational constants in cm-1:     0.048130     0.014536     0.012836
Rotational constants in MHz :  1442.887937   435.789255   384.815283

                             ****ORCA TERMINATED NORMALLY****
TOTAL RUN TIME: 0 days 0 hours 25 minutes 31 seconds 6 msec
