                         Program Version 4.2.1 -  RELEASE  -
|  1> %pal
|  2>  nprocs 32
|  3> end
|  4> !RI-MP2 aug-cc-pVTZ aug-cc-pVTZ/C TightSCF
|  5> %maxcore 4500
|  6> *xyzfile 1 2  04_6P1.xyz
|  7>
|  8>
|  9>                          ****END OF INPUT****

CARTESIAN COORDINATES (ANGSTROEM)
---------------------------------
  N      1.809943   -0.045707   -0.000001
  C      0.586243   -0.822323    0.000002
  H      2.392204   -0.198915   -0.831068
  H      2.392201   -0.198905    0.831070
  C     -0.573481    0.090010    0.000002
  H      0.635928   -1.901484   -0.000005
  O     -0.303964    1.288928    0.000000
  N     -1.799539   -0.431035   -0.000001
  H     -1.974233   -1.423828    0.000001
  H     -2.591208    0.197924   -0.000003
  H      1.427421    0.944857   -0.000007

 Total Charge           Charge          ....    1
 Multiplicity           Mult            ....    2
 Number of Electrons    NEL             ....   39
 Basis Dimension        Dim             ....  368

ORBITAL ENERGIES
----------------
                 SPIN UP ORBITALS
  NO   OCC          E(Eh)            E(eV)
   0   1.0000     -20.725007      -563.9561
   1   1.0000     -15.896580      -432.5679
   2   1.0000     -15.766699      -429.0337
   3   1.0000     -11.552810      -314.3680
   4   1.0000     -11.524891      -313.6082
   5   1.0000      -1.600555       -43.5533
   6   1.0000      -1.517257       -41.2867
   7   1.0000      -1.406879       -38.2831
   8   1.0000      -1.209365       -32.9085
   9   1.0000      -1.005014       -27.3478
  10   1.0000      -0.995179       -27.0802
  11   1.0000      -0.980554       -26.6822
  12   1.0000      -0.919404       -25.0183
  13   1.0000      -0.866680       -23.5836
  14   1.0000      -0.846363       -23.0307
  15   1.0000      -0.793921       -21.6037
  16   1.0000      -0.782243       -21.2859
  17   1.0000      -0.650460       -17.6999
  18   1.0000      -0.630195       -17.1485
  19   1.0000      -0.611413       -16.6374
  20   0.0000      -0.113342        -3.0842
  21   0.0000      -0.085123        -2.3163
  22   0.0000      -0.078822        -2.1448
  23   0.0000      -0.068774        -1.8714
  24   0.0000      -0.047696        -1.2979

                 SPIN DOWN ORBITALS
  NO   OCC          E(Eh)            E(eV)
   0   1.0000     -20.717783      -563.7595
   1   1.0000     -15.899350      -432.6433
   2   1.0000     -15.765734      -429.0074
   3   1.0000     -11.557436      -314.4938
   4   1.0000     -11.500184      -312.9359
   5   1.0000      -1.587038       -43.1855
   6   1.0000      -1.509151       -41.0661
   7   1.0000      -1.401533       -38.1376
   8   1.0000      -1.149021       -31.2664
   9   1.0000      -0.995048       -27.0766
  10   1.0000      -0.991731       -26.9864
  11   1.0000      -0.960080       -26.1251
  12   1.0000      -0.916191       -24.9308
  13   1.0000      -0.861114       -23.4321
  14   1.0000      -0.840656       -22.8754
  15   1.0000      -0.775453       -21.1011
  16   1.0000      -0.758457       -20.6387
  17   1.0000      -0.639643       -17.4056
  18   1.0000      -0.581863       -15.8333
  19   0.0000      -0.142792        -3.8856
  20   0.0000      -0.112153        -3.0519
  21   0.0000      -0.083588        -2.2745
  22   0.0000      -0.077298        -2.1034
  23   0.0000      -0.068401        -1.8613

MULLIKEN ATOMIC CHARGES AND SPIN POPULATIONS
--------------------------------------------
   0 N :    0.170013   -0.084704
   1 C :   -0.271050    1.101208
   2 H :    0.151724    0.023206
   3 H :    0.151724    0.023206
   4 C :    0.664806   -0.177026
   5 H :    0.502740   -0.064700
   6 O :   -0.695765    0.156620
   7 N :   -0.289853    0.028000
   8 H :    0.144121    0.000363
   9 H :    0.195486   -0.005848
  10 H :    0.276053   -0.000324
Sum of atomic charges         :    1.0000000

LOEWDIN ATOMIC CHARGES AND SPIN POPULATIONS
-------------------------------------------
   0 N :    1.044553    0.100364
   1 C :    0.373208    0.551792
   2 H :   -0.123996    0.017074
   3 H :   -0.123996    0.017074
   4 C :   -0.614627    0.084100
   5 H :   -0.142771    0.106542
   6 O :    0.544777    0.114151
   7 N :    0.882205    0.008891
   8 H :   -0.265963   -0.001230
   9 H :   -0.248579    0.001563
  10 H :   -0.324813   -0.000321

  Mayer bond orders larger than 0.100000
B(  0-N ,  1-C ) :   0.8508 B(  0-N ,  2-H ) :   1.0052 B(  0-N ,  3-H ) :   1.0052
B(  0-N , 10-H ) :   0.8844 B(  1-C ,  4-C ) :   0.8187 B(  1-C ,  5-H ) :   0.6946
B(  4-C ,  6-O ) :   1.3917 B(  4-C ,  7-N ) :   1.0879 B(  7-N ,  8-H ) :   1.0526
B(  7-N ,  9-H ) :   1.0425

MP2 TOTAL ENERGY:     -263.800566880 Eh
FINAL SINGLE POINT ENERGY      -263.800566880302

DIPOLE MOMENT
-------------
                                X             Y             Z
Electronic contribution:     -0.49343       0.88581       0.00001
Nuclear contribution   :      2.30955      -2.59881      -0.00001
                        -----------------------------------------
Total Dipole Moment    :      1.81613      -1.71299      -0.00000
                        -----------------------------------------
Magnitude (a.u.)       :      2.49653
Magnitude (Debye)      :      6.34567

Rotational constants in cm-1:     0.371160     0.132901     0.099468
Rotational constants in MHz : 11127.109637  3984.272969  2981.984985

                             ****ORCA TERMINATED NORMALLY****
TOTAL RUN TIME: 0 days 0 hours 1 minutes 12 seconds 466 msec
