                         Program Version 4.2.1 -  RELEASE  -
|  1> %pal
|  2>  nprocs 32
|  3> end
|  4> !RI-MP2 aug-cc-pVTZ aug-cc-pVTZ/C TightSCF
|  5> %maxcore 4500
|  6> *xyzfile 0 2  06_34P.xyz
|  7>
|  8>
|  9>                          ****END OF INPUT****

CARTESIAN COORDINATES (ANGSTROEM)
---------------------------------
  Si    -0.727017   -0.004328   -0.273321
  Si    -0.828645    2.122130    0.715434
  Si     0.059982   -1.567247    1.294348
  Si    -2.873045   -0.640706   -0.992872
  C     -3.713784    0.806078   -1.864934
  H     -4.681683    0.501141   -2.273163
  H     -3.890327    1.640101   -1.181977
  H     -3.108119    1.179515   -2.694378
  C     -2.718447   -2.060640   -2.224206
  H     -2.237074   -2.931926   -1.774488
  H     -3.703251   -2.371592   -2.584631
  H     -2.125291   -1.767104   -3.093776
  C     -3.964514   -1.193993    0.440619
  H     -4.045084   -0.420957    1.208024
  H     -4.974732   -1.418784    0.086730
  H     -3.573527   -2.096333    0.916121
  C     -0.177875   -3.323826    0.650179
  H      0.206658   -4.054602    1.367419
  H     -1.233597   -3.548526    0.481744
  H      0.348442   -3.478242   -0.295070
  C      1.875294   -1.338558    1.743396
  H      2.084907   -0.316905    2.065369
  H      2.139914   -2.009826    2.565831
  H      2.535531   -1.565441    0.905571
  C     -0.944026   -1.359575    2.878574
  H     -2.017560   -1.445633    2.701011
  H     -0.664021   -2.124437    3.608664
  H     -0.760181   -0.385148    3.337607
  C      0.697522    2.463664    1.767870
  H      0.670022    3.479531    2.172507
  H      0.761092    1.773005    2.611980
  H      1.613983    2.358388    1.183198
  C     -0.944521    3.436480   -0.631484
  H     -1.829425    3.290601   -1.255068
  H     -1.006501    4.436491   -0.192758
  H     -0.070576    3.415851   -1.286706
  C     -2.353210    2.248506    1.818638
  H     -2.391010    3.223470    2.312837
  H     -3.275015    2.133711    1.243835
  H     -2.350347    1.481872    2.596743
  C      0.358817    0.114321   -1.868355
  C      1.707567    0.666559   -1.618680
  C      2.932523   -0.177557   -1.624600
  H      2.686042   -1.185734   -1.267532
  H      3.284318   -0.326545   -2.659770
  C      4.080587    0.395102   -0.797189
  H      3.738796    0.550209    0.231307
  H      4.341979    1.386445   -1.185121
  C      5.321309   -0.489994   -0.789429
  H      5.661251   -0.646019   -1.819032
  H      5.053297   -1.480287   -0.404570
  C      6.458064    0.089427    0.044375
  H      6.151479    0.223688    1.085147
  H      7.334510   -0.562038    0.037172
  H      6.766586    1.066537   -0.336974
  H      0.417690   -0.881631   -2.318302
  H     -0.208721    0.744861   -2.563211
  H      1.819852    1.738435   -1.491183

 Total Charge           Charge          ....    0
 Multiplicity           Mult            ....    2
 Number of Electrons    NEL             ....  185
 Basis Dimension        Dim             .... 1787

ORBITAL ENERGIES
----------------
                 SPIN UP ORBITALS
  NO   OCC          E(Eh)            E(eV)
   0   1.0000     -68.746207     -1870.6794
   1   1.0000     -68.745086     -1870.6489
   2   1.0000     -68.744824     -1870.6418
   3   1.0000     -68.726309     -1870.1379
   4   1.0000     -11.220061      -305.3134
   5   1.0000     -11.216571      -305.2184
   6   1.0000     -11.215172      -305.1804
   7   1.0000     -11.213426      -305.1328
   8   1.0000     -11.209139      -305.0162
   9   1.0000     -11.207920      -304.9830
  10   1.0000     -11.196530      -304.6731
  11   1.0000     -11.196021      -304.6592
  12   1.0000     -11.195984      -304.6582
  13   1.0000     -11.195339      -304.6407
  14   1.0000     -11.195226      -304.6376
  15   1.0000     -11.194658      -304.6221
  16   1.0000     -11.194641      -304.6217
  17   1.0000     -11.194512      -304.6181
  18   1.0000     -11.193820      -304.5993
  19   1.0000      -6.094036      -165.8271
  20   1.0000      -6.093104      -165.8018
  21   1.0000      -6.092779      -165.7929
  22   1.0000      -6.078063      -165.3925
  23   1.0000      -4.200195      -114.2931
  24   1.0000      -4.200059      -114.2894
  25   1.0000      -4.200002      -114.2879
  26   1.0000      -4.199382      -114.2710
  27   1.0000      -4.199044      -114.2618
  28   1.0000      -4.199022      -114.2612
  29   1.0000      -4.198936      -114.2589
  30   1.0000      -4.198787      -114.2548
  31   1.0000      -4.198736      -114.2534
  32   1.0000      -4.184084      -113.8547
  33   1.0000      -4.183388      -113.8358
  34   1.0000      -4.183327      -113.8341
  35   1.0000      -1.091965       -29.7139
  36   1.0000      -1.041637       -28.3444
  37   1.0000      -0.969804       -26.3897
  38   1.0000      -0.963825       -26.2270
  39   1.0000      -0.960863       -26.1464
  40   1.0000      -0.960393       -26.1336
  41   1.0000      -0.923487       -25.1294
  42   1.0000      -0.921510       -25.0756
  43   1.0000      -0.921009       -25.0619
  44   1.0000      -0.919015       -25.0077
  45   1.0000      -0.918252       -24.9869
  46   1.0000      -0.917406       -24.9639
  47   1.0000      -0.874486       -23.7960
  48   1.0000      -0.794430       -21.6175
  49   1.0000      -0.781399       -21.2629
  50   1.0000      -0.698399       -19.0044
  51   1.0000      -0.648987       -17.6598
  52   1.0000      -0.625634       -17.0244
  53   1.0000      -0.622982       -16.9522
  54   1.0000      -0.609141       -16.5756
  55   1.0000      -0.593388       -16.1469
  56   1.0000      -0.585747       -15.9390
  57   1.0000      -0.582916       -15.8620
  58   1.0000      -0.573214       -15.5980
  59   1.0000      -0.572229       -15.5712
  60   1.0000      -0.564378       -15.3575
  61   1.0000      -0.561246       -15.2723
  62   1.0000      -0.559916       -15.2361
  63   1.0000      -0.555093       -15.1049
  64   1.0000      -0.553736       -15.0679
  65   1.0000      -0.553200       -15.0533
  66   1.0000      -0.547421       -14.8961
  67   1.0000      -0.544103       -14.8058
  68   1.0000      -0.538861       -14.6631
  69   1.0000      -0.538646       -14.6573
  70   1.0000      -0.538222       -14.6458
  71   1.0000      -0.534635       -14.5482
  72   1.0000      -0.533230       -14.5099
  73   1.0000      -0.531349       -14.4588
  74   1.0000      -0.529394       -14.4056
  75   1.0000      -0.526539       -14.3278
  76   1.0000      -0.525492       -14.2994
  77   1.0000      -0.525129       -14.2895
  78   1.0000      -0.502634       -13.6774
  79   1.0000      -0.490747       -13.3539
  80   1.0000      -0.469128       -12.7656
  81   1.0000      -0.464828       -12.6486
  82   1.0000      -0.459696       -12.5090
  83   1.0000      -0.438067       -11.9204
  84   1.0000      -0.430155       -11.7051
  85   1.0000      -0.429670       -11.6919
  86   1.0000      -0.425096       -11.5675
  87   1.0000      -0.424232       -11.5439
  88   1.0000      -0.421824       -11.4784
  89   1.0000      -0.412429       -11.2228
  90   1.0000      -0.336759        -9.1637
  91   1.0000      -0.334197        -9.0940
  92   1.0000      -0.291063        -7.9202
  93   0.0000       0.022657         0.6165
  94   0.0000       0.027744         0.7550
  95   0.0000       0.027927         0.7599
  96   0.0000       0.028801         0.7837
  97   0.0000       0.036011         0.9799

                 SPIN DOWN ORBITALS
  NO   OCC          E(Eh)            E(eV)
   0   1.0000     -68.746229     -1870.6800
   1   1.0000     -68.744980     -1870.6460
   2   1.0000     -68.744850     -1870.6425
   3   1.0000     -68.725569     -1870.1178
   4   1.0000     -11.219854      -305.3078
   5   1.0000     -11.215188      -305.1808
   6   1.0000     -11.212814      -305.1162
   7   1.0000     -11.210855      -305.0629
   8   1.0000     -11.209151      -305.0165
   9   1.0000     -11.196536      -304.6732
  10   1.0000     -11.196277      -304.6662
  11   1.0000     -11.195982      -304.6582
  12   1.0000     -11.195918      -304.6564
  13   1.0000     -11.195352      -304.6410
  14   1.0000     -11.195220      -304.6374
  15   1.0000     -11.194662      -304.6222
  16   1.0000     -11.194589      -304.6203
  17   1.0000     -11.194533      -304.6187
  18   1.0000     -11.193822      -304.5994
  19   1.0000      -6.094071      -165.8281
  20   1.0000      -6.092944      -165.7974
  21   1.0000      -6.092819      -165.7940
  22   1.0000      -6.076899      -165.3608
  23   1.0000      -4.200274      -114.2953
  24   1.0000      -4.200072      -114.2898
  25   1.0000      -4.200014      -114.2882
  26   1.0000      -4.199042      -114.2617
  27   1.0000      -4.199026      -114.2613
  28   1.0000      -4.198943      -114.2590
  29   1.0000      -4.198932      -114.2588
  30   1.0000      -4.198802      -114.2552
  31   1.0000      -4.198758      -114.2540
  32   1.0000      -4.182945      -113.8237
  33   1.0000      -4.182764      -113.8188
  34   1.0000      -4.181642      -113.7883
  35   1.0000      -1.080048       -29.3896
  36   1.0000      -1.019334       -27.7375
  37   1.0000      -0.969229       -26.3741
  38   1.0000      -0.962024       -26.1780
  39   1.0000      -0.960703       -26.1421
  40   1.0000      -0.958273       -26.0759
  41   1.0000      -0.923359       -25.1259
  42   1.0000      -0.921485       -25.0749
  43   1.0000      -0.920938       -25.0600
  44   1.0000      -0.918987       -25.0069
  45   1.0000      -0.918195       -24.9853
  46   1.0000      -0.917346       -24.9623
  47   1.0000      -0.869310       -23.6551
  48   1.0000      -0.790882       -21.5210
  49   1.0000      -0.743356       -20.2277
  50   1.0000      -0.693787       -18.8789
  51   1.0000      -0.642245       -17.4764
  52   1.0000      -0.624668       -16.9981
  53   1.0000      -0.622357       -16.9352
  54   1.0000      -0.603855       -16.4317
  55   1.0000      -0.588321       -16.0090
  56   1.0000      -0.583161       -15.8686
  57   1.0000      -0.575082       -15.6488
  58   1.0000      -0.572873       -15.5887
  59   1.0000      -0.571559       -15.5529
  60   1.0000      -0.564111       -15.3502
  61   1.0000      -0.560314       -15.2469
  62   1.0000      -0.559357       -15.2209
  63   1.0000      -0.553992       -15.0749
  64   1.0000      -0.553154       -15.0521
  65   1.0000      -0.552963       -15.0469
  66   1.0000      -0.543273       -14.7832
  67   1.0000      -0.539827       -14.6894
  68   1.0000      -0.538634       -14.6570
  69   1.0000      -0.537157       -14.6168
  70   1.0000      -0.534557       -14.5460
  71   1.0000      -0.533585       -14.5196
  72   1.0000      -0.532191       -14.4816
  73   1.0000      -0.530993       -14.4491
  74   1.0000      -0.528741       -14.3878
  75   1.0000      -0.526114       -14.3163
  76   1.0000      -0.525086       -14.2883
  77   1.0000      -0.524759       -14.2794
  78   1.0000      -0.493621       -13.4321
  79   1.0000      -0.485632       -13.2147
  80   1.0000      -0.466096       -12.6831
  81   1.0000      -0.461687       -12.5631
  82   1.0000      -0.454494       -12.3674
  83   1.0000      -0.435315       -11.8455
  84   1.0000      -0.430047       -11.7022
  85   1.0000      -0.429599       -11.6900
  86   1.0000      -0.424914       -11.5625
  87   1.0000      -0.424076       -11.5397
  88   1.0000      -0.421805       -11.4779
  89   1.0000      -0.392487       -10.6801
  90   1.0000      -0.333719        -9.0809
  91   1.0000      -0.333617        -9.0782
  92   0.0000       0.022656         0.6165
  93   0.0000       0.027757         0.7553
  94   0.0000       0.027931         0.7601
  95   0.0000       0.028862         0.7854
  96   0.0000       0.036020         0.9802

MULLIKEN ATOMIC CHARGES AND SPIN POPULATIONS
--------------------------------------------
   0 Si:    2.082509    0.087116
   1 Si:    2.478522    0.007413
   2 Si:    2.613005   -0.009192
   3 Si:    1.768819    0.023959
   4 C :   -1.468164    0.000364
   5 H :    0.064126    0.000554
   6 H :    0.334884    0.000094
   7 H :    0.204340    0.000114
   8 C :   -1.615810   -0.001947
   9 H :    0.380794    0.000201
  10 H :    0.028939    0.000344
  11 H :    0.231179   -0.000313
  12 C :   -1.263937    0.001010
  13 H :    0.288608   -0.001859
  14 H :    0.181026    0.001445
  15 H :    0.248531   -0.001248
  16 C :   -1.603528   -0.001061
  17 H :    0.009941    0.000034
  18 H :    0.306591    0.000236
  19 H :    0.245063    0.000103
  20 C :   -1.687538    0.004930
  21 H :    0.356564    0.003450
  22 H :    0.057795    0.000477
  23 H :    0.210374    0.001961
  24 C :   -1.422857   -0.002465
  25 H :    0.307516   -0.000454
  26 H :    0.065612    0.000009
  27 H :    0.292737   -0.000657
  28 C :   -1.550571    0.003698
  29 H :    0.077135    0.001470
  30 H :    0.267938   -0.000431
  31 H :    0.341622   -0.002308
  32 C :   -1.709420   -0.001102
  33 H :    0.335673   -0.000300
  34 H :   -0.004285    0.000275
  35 H :    0.321703   -0.000009
  36 C :   -1.508351   -0.004075
  37 H :    0.046353    0.000088
  38 H :    0.315199    0.000204
  39 H :    0.319372   -0.001464
  40 C :   -0.133290   -0.245828
  41 C :   -0.925368    1.584846
  42 C :   -0.425290   -0.321247
  43 H :    0.127739   -0.027199
  44 H :    0.442725    0.116340
  45 C :   -0.340352    0.069043
  46 H :    0.364037    0.009249
  47 H :    0.366045    0.003388
  48 C :   -0.554506   -0.001706
  49 H :    0.229000    0.000693
  50 H :    0.237536   -0.000750
  51 C :   -1.056253   -0.000896
  52 H :    0.269753    0.000101
  53 H :    0.281902    0.000183
  54 H :    0.249474   -0.000054
  55 H :   -0.130408   -0.005846
  56 H :    0.246251    0.091922
  57 H :   -0.197007   -0.382902
Sum of atomic charges         :   -0.0000000

LOEWDIN ATOMIC CHARGES AND SPIN POPULATIONS
-------------------------------------------
   0 Si:    0.524377    0.036941
   1 Si:    0.421655    0.002322
   2 Si:    0.432800    0.001890
   3 Si:    0.423579    0.009613
   4 C :    0.542099    0.000617
   5 H :   -0.227554    0.000203
   6 H :   -0.246307    0.000053
   7 H :   -0.231987    0.000197
   8 C :    0.545598   -0.000252
   9 H :   -0.243747    0.000013
  10 H :   -0.228736    0.000010
  11 H :   -0.233264    0.000147
  12 C :    0.542794    0.003687
  13 H :   -0.240184    0.000215
  14 H :   -0.225983    0.000818
  15 H :   -0.243332    0.000152
  16 C :    0.543184   -0.000134
  17 H :   -0.227857   -0.000060
  18 H :   -0.245691    0.000023
  19 H :   -0.230722    0.000045
  20 C :    0.557052    0.001036
  21 H :   -0.240817    0.000401
  22 H :   -0.220249    0.000089
  23 H :   -0.261185    0.000526
  24 C :    0.545641    0.000359
  25 H :   -0.249330    0.000105
  26 H :   -0.224276    0.000070
  27 H :   -0.240878    0.000056
  28 C :    0.545751    0.001702
  29 H :   -0.226041    0.000236
  30 H :   -0.242853    0.000125
  31 H :   -0.238348    0.002637
  32 C :    0.549330   -0.000256
  33 H :   -0.240965   -0.000031
  34 H :   -0.227304   -0.000030
  35 H :   -0.238766   -0.000555
  36 C :    0.544783   -0.000301
  37 H :   -0.225345   -0.000073
  38 H :   -0.244822    0.000028
  39 H :   -0.241773    0.000032
  40 C :    0.165260    0.114665
  41 C :    0.210746    0.527382
  42 C :    0.235649    0.113487
  43 H :   -0.169313    0.008798
  44 H :   -0.134229    0.029191
  45 C :    0.250446    0.009878
  46 H :   -0.157992    0.003416
  47 H :   -0.136761   -0.000398
  48 C :    0.254152    0.002008
  49 H :   -0.144014    0.000743
  50 H :   -0.145419    0.000265
  51 C :    0.577975    0.000075
  52 H :   -0.169232    0.000023
  53 H :   -0.172138    0.000051
  54 H :   -0.169535    0.000018
  55 H :   -0.217881    0.005601
  56 H :   -0.219090    0.016476
  57 H :   -0.188952    0.105668

  Mayer bond orders larger than 0.100000
B(  0-Si,  1-Si) :   0.4711 B(  0-Si,  2-Si) :   0.2660 B(  0-Si,  4-C ) :   0.1767
B(  0-Si,  8-C ) :   0.1480 B(  0-Si, 12-C ) :  -0.1076 B(  0-Si, 16-C ) :   0.1475
B(  0-Si, 20-C ) :   0.1932 B(  0-Si, 32-C ) :   0.1819 B(  0-Si, 41-C ) :   0.3962
B(  0-Si, 57-H ) :   0.2107 B(  1-Si,  2-Si) :   0.3732 B(  1-Si,  3-Si) :   0.1888
B(  1-Si, 16-C ) :  -0.1414 B(  1-Si, 31-H ) :   0.1046 B(  1-Si, 32-C ) :  -0.2537
B(  1-Si, 34-H ) :  -0.1260 B(  1-Si, 42-C ) :   0.1032 B(  2-Si,  3-Si) :   0.1524
B(  2-Si,  4-C ) :  -0.1097 B(  2-Si, 16-C ) :  -0.3697 B(  2-Si, 17-H ) :  -0.1606
B(  2-Si, 32-C ) :  -0.1048 B(  2-Si, 41-C ) :   0.1021 B(  2-Si, 55-H ) :  -0.1333
B(  2-Si, 57-H ) :  -0.1091 B(  3-Si, 12-C ) :   0.4816 B(  4-C ,  5-H ) :   1.2052
B(  4-C ,  6-H ) :   0.9564 B(  4-C ,  7-H ) :   1.1038 B(  8-C ,  9-H ) :   0.8993
B(  8-C , 10-H ) :   1.3005 B(  8-C , 11-H ) :   1.0979 B(  8-C , 12-C ) :   0.2162
B( 12-C , 13-H ) :   1.0134 B( 12-C , 14-H ) :   0.9657 B( 12-C , 15-H ) :   1.0799
B( 16-C , 17-H ) :   1.3462 B( 16-C , 18-H ) :   1.0286 B( 16-C , 19-H ) :   1.0587
B( 20-C , 21-H ) :   0.9413 B( 20-C , 22-H ) :   1.2098 B( 20-C , 23-H ) :   1.1691
B( 24-C , 25-H ) :   1.0467 B( 24-C , 26-H ) :   1.1847 B( 24-C , 27-H ) :   1.0389
B( 28-C , 29-H ) :   1.1660 B( 28-C , 30-H ) :   1.0662 B( 28-C , 31-H ) :   1.0089
B( 28-C , 32-C ) :   0.1013 B( 32-C , 33-H ) :   0.9857 B( 32-C , 34-H ) :   1.3514
B( 32-C , 35-H ) :   1.0040 B( 32-C , 36-C ) :   0.1762 B( 36-C , 37-H ) :   1.2121
B( 36-C , 38-H ) :   1.0188 B( 36-C , 39-H ) :   1.0237 B( 40-C , 41-C ) :   0.5377
B( 40-C , 43-H ) :   0.1005 B( 40-C , 55-H ) :   1.4091 B( 40-C , 56-H ) :   1.1400
B( 40-C , 57-H ) :  -0.3558 B( 41-C , 42-C ) :   0.7608 B( 41-C , 43-H ) :   0.1265
B( 41-C , 44-H ) :  -0.1412 B( 41-C , 56-H ) :  -0.2068 B( 41-C , 57-H ) :   1.6470
B( 42-C , 43-H ) :   1.1738 B( 42-C , 44-H ) :   0.7400 B( 42-C , 45-C ) :   0.9594
B( 45-C , 46-H ) :   0.9274 B( 45-C , 47-H ) :   0.8168 B( 45-C , 48-C ) :   0.9353
B( 48-C , 49-H ) :   0.9820 B( 48-C , 50-H ) :   0.9824 B( 48-C , 51-C ) :   0.9414
B( 51-C , 52-H ) :   0.9632 B( 51-C , 53-H ) :   0.9982 B( 51-C , 54-H ) :   0.9923
B( 56-H , 57-H ) :  -0.1543

MP2 TOTAL ENERGY:    -1749.997929306 Eh
FINAL SINGLE POINT ENERGY     -1749.997929306287

DIPOLE MOMENT
-------------
                                X             Y             Z
Electronic contribution:    -10.16955       0.36673      -2.11839
Nuclear contribution   :     10.19388      -0.40667       2.08994
                        -----------------------------------------
Total Dipole Moment    :      0.02433      -0.03993      -0.02845
                        -----------------------------------------
Magnitude (a.u.)       :      0.05474
Magnitude (Debye)      :      0.13913

Rotational constants in cm-1:     0.010529     0.005379     0.004992
Rotational constants in MHz :   315.659409   161.257623   149.653672

                             ****ORCA TERMINATED NORMALLY****
TOTAL RUN TIME: 0 days 3 hours 10 minutes 16 seconds 666 msec
