                         Program Version 4.2.1 -  RELEASE  -
|  1> %pal
|  2>  nprocs 32
|  3> end
|  4> !RI-MP2 aug-cc-pVTZ aug-cc-pVTZ/C TightSCF
|  5> %maxcore 4500
|  6> *xyzfile 0 1  05_12P2.xyz
|  7>
|  8>
|  9>                          ****END OF INPUT****

CARTESIAN COORDINATES (ANGSTROEM)
---------------------------------
  C      1.071126    1.297726   -0.145823
  C      1.440334   -1.234958    0.054180
  C     -0.011487   -1.441355   -0.393256
  C     -0.920279   -0.286383   -0.009985
  C     -0.366144    1.008983   -0.589869
  H     -0.024457   -1.553198   -1.483962
  H     -0.381198   -2.374913    0.038448
  H     -0.991168   -0.199454    1.074013
  H     -0.392314    0.937148   -1.682381
  H     -1.002909    1.845462   -0.295209
  N      1.872987    0.088370   -0.451454
  O      3.209124    0.314701   -0.000855
  C      1.627634    2.426193   -1.017568
  H      0.974917    3.299649   -0.959361
  H      2.621174    2.725077   -0.681846
  H      1.688385    2.104808   -2.059225
  C      1.120507    1.751349    1.321562
  H      2.149408    1.749429    1.680804
  H      0.734525    2.769865    1.396675
  H      0.519183    1.131544    1.982993
  C      2.310683   -2.282411   -0.645299
  H      3.341070   -2.229639   -0.293275
  H      1.933077   -3.285488   -0.435129
  H      2.298789   -2.123546   -1.725361
  C      1.585625   -1.423346    1.572459
  H      1.490569   -2.483661    1.816732
  H      2.569687   -1.087095    1.897834
  H      0.831910   -0.887048    2.144798
  H      3.723932    0.339656   -0.811879
  N     -2.275074   -0.543615   -0.472005
  C     -3.362574   -0.013036    0.146499
  C     -4.699595   -0.326585   -0.483969
  H     -5.178242    0.611018   -0.768673
  H     -4.628189   -0.973180   -1.359446
  H     -5.331980   -0.804779    0.264309
  O     -3.272331    0.667861    1.151799
  H     -2.400892   -1.042498   -1.337785

 Total Charge           Charge          ....    0
 Multiplicity           Mult            ....    1
 Number of Electrons    NEL             ....  118
 Basis Dimension        Dim             .... 1196

ORBITAL ENERGIES
----------------

  NO   OCC          E(Eh)            E(eV)
   0   2.0000     -20.579940      -560.0087
   1   2.0000     -20.510518      -558.1196
   2   2.0000     -15.596598      -424.4050
   3   2.0000     -15.582331      -424.0168
   4   2.0000     -11.345493      -308.7266
   5   2.0000     -11.266257      -306.5704
   6   2.0000     -11.262870      -306.4783
   7   2.0000     -11.261510      -306.4413
   8   2.0000     -11.235543      -305.7347
   9   2.0000     -11.227286      -305.5100
  10   2.0000     -11.216923      -305.2280
  11   2.0000     -11.210523      -305.0538
  12   2.0000     -11.206782      -304.9520
  13   2.0000     -11.206000      -304.9308
  14   2.0000     -11.201389      -304.8053
  15   2.0000      -1.403174       -38.1823
  16   2.0000      -1.378560       -37.5125
  17   2.0000      -1.237152       -33.6646
  18   2.0000      -1.173791       -31.9405
  19   2.0000      -1.091954       -29.7136
  20   2.0000      -1.050254       -28.5789
  21   2.0000      -0.993616       -27.0377
  22   2.0000      -0.977809       -26.6075
  23   2.0000      -0.938688       -25.5430
  24   2.0000      -0.929307       -25.2877
  25   2.0000      -0.924366       -25.1533
  26   2.0000      -0.839958       -22.8564
  27   2.0000      -0.796986       -21.6871
  28   2.0000      -0.785087       -21.3633
  29   2.0000      -0.719167       -19.5695
  30   2.0000      -0.692494       -18.8437
  31   2.0000      -0.682156       -18.5624
  32   2.0000      -0.661593       -18.0029
  33   2.0000      -0.656474       -17.8636
  34   2.0000      -0.642576       -17.4854
  35   2.0000      -0.619426       -16.8554
  36   2.0000      -0.606850       -16.5132
  37   2.0000      -0.602446       -16.3934
  38   2.0000      -0.582173       -15.8417
  39   2.0000      -0.577554       -15.7161
  40   2.0000      -0.575068       -15.6484
  41   2.0000      -0.564240       -15.3538
  42   2.0000      -0.553571       -15.0634
  43   2.0000      -0.549747       -14.9594
  44   2.0000      -0.532795       -14.4981
  45   2.0000      -0.531004       -14.4493
  46   2.0000      -0.526311       -14.3217
  47   2.0000      -0.518687       -14.1142
  48   2.0000      -0.514997       -14.0138
  49   2.0000      -0.506777       -13.7901
  50   2.0000      -0.492724       -13.4077
  51   2.0000      -0.475445       -12.9375
  52   2.0000      -0.472884       -12.8678
  53   2.0000      -0.465733       -12.6732
  54   2.0000      -0.454203       -12.3595
  55   2.0000      -0.438966       -11.9449
  56   2.0000      -0.417474       -11.3601
  57   2.0000      -0.384656       -10.4670
  58   2.0000      -0.366094        -9.9619
  59   0.0000       0.020567         0.5597
  60   0.0000       0.027794         0.7563
  61   0.0000       0.030734         0.8363
  62   0.0000       0.035449         0.9646
  63   0.0000       0.042156         1.1471

MULLIKEN ATOMIC CHARGES
-----------------------
   0 C :    2.452863
   1 C :    2.449502
   2 C :   -1.279351
   3 C :    1.181526
   4 C :   -1.042033
   5 H :    0.218366
   6 H :    0.355321
   7 H :    0.523266
   8 H :    0.218142
   9 H :    0.368862
  10 N :   -0.490736
  11 O :   -0.761736
  12 C :   -1.705322
  13 H :    0.203566
  14 H :    0.235125
  15 H :    0.227920
  16 C :   -1.222537
  17 H :    0.233507
  18 H :    0.122452
  19 H :    0.271385
  20 C :   -1.688875
  21 H :    0.242754
  22 H :    0.188726
  23 H :    0.230103
  24 C :   -1.251978
  25 H :    0.090167
  26 H :    0.223552
  27 H :    0.300335
  28 H :    0.137785
  29 N :   -0.600499
  30 C :    0.618108
  31 C :   -0.851551
  32 H :    0.313805
  33 H :    0.280054
  34 H :    0.314196
  35 O :   -1.043007
  36 H :   -0.063766
Sum of atomic charges:   -0.0000000

LOEWDIN ATOMIC CHARGES
----------------------
   0 C :   -0.429850
   1 C :   -0.430916
   2 C :    0.314155
   3 C :   -0.096376
   4 C :    0.319177
   5 H :   -0.129058
   6 H :   -0.120463
   7 H :   -0.162154
   8 H :   -0.127657
   9 H :   -0.124166
  10 N :    0.152299
  11 O :    0.761281
  12 C :    0.580542
  13 H :   -0.156078
  14 H :   -0.165496
  15 H :   -0.157928
  16 C :    0.608686
  17 H :   -0.163628
  18 H :   -0.151174
  19 H :   -0.190994
  20 C :    0.580515
  21 H :   -0.165424
  22 H :   -0.156818
  23 H :   -0.157488
  24 C :    0.607357
  25 H :   -0.152642
  26 H :   -0.163540
  27 H :   -0.192661
  28 H :   -0.482575
  29 N :    0.584623
  30 C :   -0.674648
  31 C :    0.598776
  32 H :   -0.171006
  33 H :   -0.184136
  34 H :   -0.171710
  35 O :    0.452252
  36 H :   -0.281079

  Mayer bond orders larger than 0.100000
B(  0-C ,  1-C ) :   0.1192 B(  0-C ,  4-C ) :   0.1705 B(  0-C , 10-N ) :   0.2782
B(  0-C , 11-O ) :  -0.2799 B(  0-C , 12-C ) :  -0.4394 B(  0-C , 13-H ) :  -0.1798
B(  0-C , 14-H ) :  -0.1854 B(  0-C , 15-H ) :  -0.2730 B(  0-C , 16-C ) :   0.2783
B(  0-C , 17-H ) :  -0.1085 B(  0-C , 18-H ) :  -0.1588 B(  1-C ,  2-C ) :   0.1920
B(  1-C ,  3-C ) :   0.1657 B(  1-C , 10-N ) :   0.2229 B(  1-C , 11-O ) :  -0.2798
B(  1-C , 20-C ) :  -0.4392 B(  1-C , 21-H ) :  -0.1693 B(  1-C , 22-H ) :  -0.2021
B(  1-C , 23-H ) :  -0.2598 B(  1-C , 24-C ) :   0.2200 B(  1-C , 25-H ) :  -0.2017
B(  1-C , 26-H ) :  -0.1265 B(  2-C ,  3-C ) :   0.6062 B(  2-C ,  4-C ) :   0.2604
B(  2-C ,  5-H ) :   1.1490 B(  2-C ,  6-H ) :   0.8360 B(  2-C , 10-N ) :   0.3364
B(  2-C , 29-N ) :   0.2251 B(  3-C ,  4-C ) :   0.7447 B(  3-C ,  7-H ) :   0.8424
B(  3-C , 10-N ) :  -0.2526 B(  3-C , 29-N ) :   0.1074 B(  3-C , 30-C ) :  -0.1007
B(  4-C ,  7-H ) :   0.1648 B(  4-C ,  8-H ) :   1.0870 B(  4-C ,  9-H ) :   0.8942
B(  4-C , 10-N ) :   0.2564 B(  7-H , 29-N ) :  -0.3960 B(  7-H , 30-C ) :  -0.1244
B(  7-H , 35-O ) :  -0.1454 B( 10-N , 11-O ) :   0.4206 B( 10-N , 12-C ) :   0.1283
B( 10-N , 20-C ) :   0.1214 B( 11-O , 28-H ) :   1.0456 B( 12-C , 13-H ) :   1.1848
B( 12-C , 14-H ) :   1.1187 B( 12-C , 15-H ) :   1.2056 B( 12-C , 16-C ) :   0.1527
B( 16-C , 17-H ) :   1.0700 B( 16-C , 18-H ) :   1.1806 B( 16-C , 19-H ) :   1.1034
B( 20-C , 21-H ) :   1.1048 B( 20-C , 22-H ) :   1.2005 B( 20-C , 23-H ) :   1.1990
B( 20-C , 24-C ) :   0.1531 B( 24-C , 25-H ) :   1.2062 B( 24-C , 26-H ) :   1.0982
B( 24-C , 27-H ) :   1.0757 B( 29-N , 30-C ) :   1.1707 B( 29-N , 36-H ) :   1.2656
B( 30-C , 31-C ) :   0.4928 B( 30-C , 35-O ) :   1.5202 B( 31-C , 32-H ) :   0.9863
B( 31-C , 33-H ) :   0.9804 B( 31-C , 34-H ) :   0.9984 B( 31-C , 35-O ) :  -0.1493

MP2 TOTAL ENERGY:     -691.035821398 Eh
FINAL SINGLE POINT ENERGY      -691.035821398187

DIPOLE MOMENT
-------------
                                X             Y             Z
Electronic contribution:     -4.63236       0.73794       0.21558
Nuclear contribution   :      4.69671      -1.56976      -1.63819
                        -----------------------------------------
Total Dipole Moment    :      0.06435      -0.83182      -1.42261
                        -----------------------------------------
Magnitude (a.u.)       :      1.64921
Magnitude (Debye)      :      4.19196

Rotational constants in cm-1:     0.033058     0.012568     0.010800
Rotational constants in MHz :   991.039904   376.780740   323.784964

                             ****ORCA TERMINATED NORMALLY****
TOTAL RUN TIME: 0 days 0 hours 34 minutes 25 seconds 663 msec
