                         Program Version 4.2.1 -  RELEASE  -
|  1> %pal
|  2>  nprocs 32
|  3> end
|  4> !RI-MP2 aug-cc-pVTZ aug-cc-pVTZ/C TightSCF
|  5> %maxcore 4500
|  6> *xyzfile 0 2  01_5R.xyz
|  7>
|  8>
|  9>                          ****END OF INPUT****

CARTESIAN COORDINATES (ANGSTROEM)
---------------------------------
  C     -1.952005   -0.484139    0.082717
  C     -0.486618   -0.583316    0.390266
  C      0.317552    0.661039    0.048009
  H     -0.104313   -1.465022   -0.139847
  H     -0.396250   -0.837186    1.454796
  C      1.809692    0.497740    0.344163
  H     -0.081334    1.511822    0.604865
  H      0.176340    0.902462   -1.009066
  C      2.483986   -0.518224   -0.505689
  H      1.957660    0.258396    1.403652
  H      2.296755    1.475236    0.200887
  O     -2.487198    0.471546   -0.413098
  H     -2.549921   -1.381606    0.346202
  H      2.171404   -0.665578   -1.533290
  H      3.391601   -1.009488   -0.180203

 Total Charge           Charge          ....    0
 Multiplicity           Mult            ....    2
 Number of Electrons    NEL             ....   47
 Basis Dimension        Dim             ....  483

ORBITAL ENERGIES
----------------
                 SPIN UP ORBITALS
  NO   OCC          E(Eh)            E(eV)
   0   1.0000     -20.556538      -559.3718
   1   1.0000     -11.329959      -308.3039
   2   1.0000     -11.240846      -305.8790
   3   1.0000     -11.234631      -305.7098
   4   1.0000     -11.229896      -305.5810
   5   1.0000     -11.227859      -305.5256
   6   1.0000      -1.396895       -38.0114
   7   1.0000      -1.098125       -29.8815
   8   1.0000      -1.020381       -27.7660
   9   1.0000      -0.915452       -24.9107
  10   1.0000      -0.816403       -22.2155
  11   1.0000      -0.765437       -20.8286
  12   1.0000      -0.678468       -18.4620
  13   1.0000      -0.651758       -17.7352
  14   1.0000      -0.640167       -17.4198
  15   1.0000      -0.605559       -16.4781
  16   1.0000      -0.578368       -15.7382
  17   1.0000      -0.557420       -15.1682
  18   1.0000      -0.515890       -14.0381
  19   1.0000      -0.507912       -13.8210
  20   1.0000      -0.488311       -13.2876
  21   1.0000      -0.481923       -13.1138
  22   1.0000      -0.419539       -11.4162
  23   1.0000      -0.355734        -9.6800
  24   0.0000       0.027078         0.7368
  25   0.0000       0.033350         0.9075
  26   0.0000       0.036210         0.9853
  27   0.0000       0.040379         1.0988
  28   0.0000       0.052497         1.4285

                 SPIN DOWN ORBITALS
  NO   OCC          E(Eh)            E(eV)
   0   1.0000     -20.556421      -559.3687
   1   1.0000     -11.330030      -308.3058
   2   1.0000     -11.240756      -305.8765
   3   1.0000     -11.233001      -305.6655
   4   1.0000     -11.227173      -305.5069
   5   1.0000     -11.211225      -305.0729
   6   1.0000      -1.396638       -38.0045
   7   1.0000      -1.090028       -29.6612
   8   1.0000      -1.000662       -27.2294
   9   1.0000      -0.884088       -24.0573
  10   1.0000      -0.791020       -21.5247
  11   1.0000      -0.759603       -20.6699
  12   1.0000      -0.676643       -18.4124
  13   1.0000      -0.647916       -17.6307
  14   1.0000      -0.636003       -17.3065
  15   1.0000      -0.596314       -16.2265
  16   1.0000      -0.566018       -15.4021
  17   1.0000      -0.548247       -14.9185
  18   1.0000      -0.507748       -13.8165
  19   1.0000      -0.501706       -13.6521
  20   1.0000      -0.482968       -13.1422
  21   1.0000      -0.479596       -13.0505
  22   1.0000      -0.418428       -11.3860
  23   0.0000       0.027322         0.7435
  24   0.0000       0.033307         0.9063
  25   0.0000       0.036511         0.9935
  26   0.0000       0.040477         1.1014
  27   0.0000       0.052239         1.4215

MULLIKEN ATOMIC CHARGES AND SPIN POPULATIONS
--------------------------------------------
   0 C :   -0.184687   -0.000407
   1 C :   -0.273203    0.000928
   2 C :   -0.284019    0.037999
   3 H :    0.311846   -0.013495
   4 H :    0.257789   -0.000970
   5 C :   -0.183891   -0.202936
   6 H :    0.293161   -0.004603
   7 H :    0.215274   -0.002592
   8 C :   -1.088484    1.233372
   9 H :    0.187732    0.013815
  10 H :    0.261151    0.080905
  11 O :   -0.756855    0.002300
  12 H :    0.488583    0.000333
  13 H :    0.368621   -0.065592
  14 H :    0.386982   -0.079058
Sum of atomic charges         :    0.0000000

LOEWDIN ATOMIC CHARGES AND SPIN POPULATIONS
-------------------------------------------
   0 C :   -0.210837    0.000075
   1 C :    0.246138    0.009222
   2 C :    0.243362    0.010137
   3 H :   -0.156580    0.009188
   4 H :   -0.148081    0.000361
   5 C :    0.209617    0.126245
   6 H :   -0.143322    0.000580
   7 H :   -0.146609   -0.000379
   8 C :    0.588612    0.562814
   9 H :   -0.159610    0.007441
  10 H :   -0.152350    0.032585
  11 O :    0.448487    0.001856
  12 H :   -0.175823   -0.000148
  13 H :   -0.218691    0.119159
  14 H :   -0.224313    0.120865

  Mayer bond orders larger than 0.100000
B(  0-C ,  1-C ) :   0.7867 B(  0-C , 11-O ) :   1.5725 B(  0-C , 12-H ) :   0.7326
B(  1-C ,  2-C ) :   0.9205 B(  1-C ,  3-H ) :   0.9252 B(  1-C ,  4-H ) :   0.9672
B(  2-C ,  5-C ) :   0.9281 B(  2-C ,  6-H ) :   0.9073 B(  2-C ,  7-H ) :   0.9789
B(  5-C ,  8-C ) :   0.7399 B(  5-C ,  9-H ) :   1.0049 B(  5-C , 10-H ) :   0.9509
B(  8-C , 13-H ) :   0.8989 B(  8-C , 14-H ) :   0.8395

MP2 TOTAL ENERGY:     -270.557108213 Eh
FINAL SINGLE POINT ENERGY      -270.557108213412

DIPOLE MOMENT
-------------
                                X             Y             Z
Electronic contribution:     -6.30457       0.51898      -0.68499
Nuclear contribution   :      7.07468      -1.24797       1.18363
                        -----------------------------------------
Total Dipole Moment    :      0.77010      -0.72899       0.49864
                        -----------------------------------------
Magnitude (a.u.)       :      1.17181
Magnitude (Debye)      :      2.97849

Rotational constants in cm-1:     0.332229     0.054159     0.051464
Rotational constants in MHz :  9959.987586  1623.646700  1542.859103

                             ****ORCA TERMINATED NORMALLY****
TOTAL RUN TIME: 0 days 0 hours 2 minutes 10 seconds 230 msec
