                         Program Version 4.2.1 -  RELEASE  -
|  1> %pal
|  2>  nprocs 32
|  3> end
|  4> !RI-MP2 aug-cc-pVTZ aug-cc-pVTZ/C TightSCF
|  5> %maxcore 4500
|  6> *xyzfile 0 1  02_24TS.xyz
|  7>
|  8>
|  9>                          ****END OF INPUT****

CARTESIAN COORDINATES (ANGSTROEM)
---------------------------------
  C      2.485343   -0.947783   -0.169996
  C      1.001627   -1.058158   -0.329573
  C      0.182035   -1.716405    0.558014
  C     -1.206572   -1.555316    0.507919
  C     -1.823272   -0.723668   -0.393674
  C     -0.612558    1.266697    0.087586
  C     -1.710693    2.234632    0.205218
  H     -1.320335    3.223516    0.460902
  H     -2.428239    1.941430    0.974126
  C      0.583999    0.959324    0.075272
  C     -3.304798   -0.497965   -0.373370
  H     -3.802778   -1.185962   -1.064547
  H     -3.572770    0.510544   -0.690765
  H     -1.334682   -0.511708   -1.336611
  H     -1.797589   -1.947506    1.330722
  H      0.648751   -0.885747   -1.340606
  C      2.019037    1.282410    0.264047
  H      2.242701    1.252015    1.340296
  H      2.247792    2.281143   -0.108501
  H      3.032029   -1.558488   -0.889889
  H      2.784918   -1.242123    0.845386
  H      0.619221   -2.164005    1.445651
  H     -3.721733   -0.664386    0.621883
  H     -2.257972    2.331244   -0.735121
  O      2.871975    0.394679   -0.430199

 Total Charge           Charge          ....    0
 Multiplicity           Mult            ....    1
 Number of Electrons    NEL             ....   82
 Basis Dimension        Dim             ....  828

ORBITAL ENERGIES
----------------

  NO   OCC          E(Eh)            E(eV)
   0   2.0000     -20.557651      -559.4021
   1   2.0000     -11.291718      -307.2633
   2   2.0000     -11.276766      -306.8564
   3   2.0000     -11.241384      -305.8936
   4   2.0000     -11.240342      -305.8653
   5   2.0000     -11.239048      -305.8300
   6   2.0000     -11.226082      -305.4772
   7   2.0000     -11.222471      -305.3790
   8   2.0000     -11.220733      -305.3317
   9   2.0000     -11.220251      -305.3186
  10   2.0000     -11.216839      -305.2257
  11   2.0000      -1.381756       -37.5995
  12   2.0000      -1.112372       -30.2692
  13   2.0000      -1.059198       -28.8222
  14   2.0000      -1.040110       -28.3028
  15   2.0000      -0.994793       -27.0697
  16   2.0000      -0.959633       -26.1129
  17   2.0000      -0.905645       -24.6438
  18   2.0000      -0.855460       -23.2782
  19   2.0000      -0.809654       -22.0318
  20   2.0000      -0.733694       -19.9648
  21   2.0000      -0.685964       -18.6660
  22   2.0000      -0.675024       -18.3683
  23   2.0000      -0.657364       -17.8878
  24   2.0000      -0.634124       -17.2554
  25   2.0000      -0.616390       -16.7728
  26   2.0000      -0.602382       -16.3916
  27   2.0000      -0.597687       -16.2639
  28   2.0000      -0.579635       -15.7727
  29   2.0000      -0.555549       -15.1172
  30   2.0000      -0.550492       -14.9796
  31   2.0000      -0.546617       -14.8742
  32   2.0000      -0.538124       -14.6431
  33   2.0000      -0.514818       -14.0089
  34   2.0000      -0.495802       -13.4915
  35   2.0000      -0.485265       -13.2047
  36   2.0000      -0.467050       -12.7091
  37   2.0000      -0.431405       -11.7391
  38   2.0000      -0.360715        -9.8156
  39   2.0000      -0.319240        -8.6870
  40   2.0000      -0.287508        -7.8235
  41   0.0000       0.027454         0.7471
  42   0.0000       0.032987         0.8976
  43   0.0000       0.035178         0.9573
  44   0.0000       0.036093         0.9821
  45   0.0000       0.044941         1.2229

MULLIKEN ATOMIC CHARGES
-----------------------
   0 C :   -0.246052
   1 C :    0.431751
   2 C :   -0.844500
   3 C :   -0.751162
   4 C :    0.427570
   5 C :    0.762455
   6 C :   -1.052229
   7 H :    0.203368
   8 H :    0.249922
   9 C :    0.027188
  10 C :   -0.868367
  11 H :    0.267576
  12 H :    0.324891
  13 H :    0.080306
  14 H :    0.110170
  15 H :    0.321028
  16 C :   -0.536335
  17 H :    0.284644
  18 H :    0.320505
  19 H :    0.338551
  20 H :    0.276256
  21 H :    0.142091
  22 H :    0.258729
  23 H :    0.220905
  24 O :   -0.749258
Sum of atomic charges:   -0.0000000

LOEWDIN ATOMIC CHARGES
----------------------
   0 C :    0.030946
   1 C :    0.094939
   2 C :    0.187677
   3 C :    0.181476
   4 C :    0.149505
   5 C :    0.086977
   6 C :    0.526238
   7 H :   -0.171967
   8 H :   -0.178424
   9 C :    0.036542
  10 C :    0.567071
  11 H :   -0.162204
  12 H :   -0.199535
  13 H :   -0.200960
  14 H :   -0.180153
  15 H :   -0.181232
  16 C :   -0.002049
  17 H :   -0.151885
  18 H :   -0.163555
  19 H :   -0.153617
  20 H :   -0.151862
  21 H :   -0.175783
  22 H :   -0.168958
  23 H :   -0.183474
  24 O :    0.564289

  Mayer bond orders larger than 0.100000
B(  0-C ,  1-C ) :   0.8085 B(  0-C , 16-C ) :   0.1449 B(  0-C , 19-H ) :   0.9496
B(  0-C , 20-H ) :   1.0374 B(  0-C , 24-O ) :   0.7812 B(  1-C ,  2-C ) :   0.9829
B(  1-C ,  3-C ) :  -0.1635 B(  1-C ,  5-C ) :  -0.1091 B(  1-C ,  9-C ) :   0.4189
B(  1-C , 15-H ) :   0.9282 B(  1-C , 24-O ) :   0.1633 B(  2-C ,  3-C ) :   0.8641
B(  2-C ,  4-C ) :   0.1087 B(  2-C ,  9-C ) :   0.1556 B(  2-C , 14-H ) :  -0.1230
B(  2-C , 21-H ) :   1.2647 B(  3-C ,  4-C ) :   1.0439 B(  3-C , 10-C ) :   0.1062
B(  3-C , 14-H ) :   1.3472 B(  3-C , 21-H ) :  -0.1789 B(  4-C ,  5-C ) :   0.4133
B(  4-C , 10-C ) :   0.3732 B(  4-C , 13-H ) :   1.1772 B(  5-C ,  6-C ) :   0.8009
B(  5-C ,  9-C ) :   1.6725 B(  5-C , 16-C ) :  -0.5291 B(  6-C ,  7-H ) :   1.0561
B(  6-C ,  8-H ) :   1.0365 B(  6-C , 23-H ) :   1.0618 B(  9-C , 16-C ) :   1.3659
B( 10-C , 11-H ) :   1.0264 B( 10-C , 12-H ) :   0.9293 B( 10-C , 22-H ) :   1.0558
B( 16-C , 17-H ) :   1.0216 B( 16-C , 18-H ) :   1.0341 B( 16-C , 24-O ) :   0.8316

MP2 TOTAL ENERGY:     -463.625512745 Eh
FINAL SINGLE POINT ENERGY      -463.625512744775

DIPOLE MOMENT
-------------
                                X             Y             Z
Electronic contribution:      8.17667      -1.20851      -0.58802
Nuclear contribution   :     -8.83226       1.42108       0.86744
                        -----------------------------------------
Total Dipole Moment    :     -0.65559       0.21257       0.27942
                        -----------------------------------------
Magnitude (a.u.)       :      0.74368
Magnitude (Debye)      :      1.89027

Rotational constants in cm-1:     0.059429     0.027278     0.020078
Rotational constants in MHz :  1781.650953   817.777248   601.923643

                             ****ORCA TERMINATED NORMALLY****
TOTAL RUN TIME: 0 days 0 hours 10 minutes 20 seconds 635 msec
