                         Program Version 4.2.1 -  RELEASE  -
|  1> %pal
|  2>  nprocs 32
|  3> end
|  4> !RI-MP2 aug-cc-pVTZ aug-cc-pVTZ/C TightSCF
|  5> %maxcore 4500
|  6> *xyzfile 0 2  06_20P.xyz
|  7>
|  8>
|  9>                          ****END OF INPUT****

CARTESIAN COORDINATES (ANGSTROEM)
---------------------------------
  C      0.579734   -0.259093   -2.122271
  C      1.886670    0.377812   -2.345393
  Si    -0.033037   -0.010184   -0.283218
  F      2.955712   -0.252919   -1.783635
  Si    -0.497523    2.268983    0.073911
  Si     1.562858   -0.733585    1.287586
  Si    -2.035156   -1.213587    0.010550
  C     -2.090338    2.763451   -0.807775
  H     -2.282117    3.833013   -0.682717
  H     -2.035436    2.561377   -1.880441
  H     -2.954155    2.224263   -0.413127
  C     -0.705348    2.590239    1.919694
  H     -0.993152    3.631217    2.092378
  H     -1.475907    1.954758    2.360343
  H      0.224921    2.411320    2.463380
  C      0.885447    3.382607   -0.562058
  H      0.703601    4.416422   -0.253921
  H      1.861108    3.085108   -0.172294
  H      0.941216    3.373696   -1.652950
  C      0.697041   -0.931050    2.953113
  H     -0.065492   -1.712501    2.921902
  H      1.422058   -1.210056    3.723186
  H      0.213664   -0.005837    3.273670
  C      2.313288   -2.390524    0.804380
  H      2.891767   -2.300859   -0.116725
  H      2.986104   -2.745035    1.590727
  H      1.546207   -3.153478    0.653809
  C      2.941981    0.533668    1.482158
  H      3.469694    0.684673    0.538797
  H      2.558368    1.499938    1.817725
  H      3.670839    0.192490    2.223073
  C     -1.701161   -3.050332    0.275536
  H     -1.105778   -3.219786    1.175563
  H     -2.641923   -3.595737    0.394100
  H     -1.162893   -3.493753   -0.564434
  C     -2.963527   -0.566755    1.518967
  H     -3.869899   -1.156152    1.684891
  H     -2.356556   -0.629857    2.424474
  H     -3.266779    0.474629    1.392078
  C     -3.142320   -1.004056   -1.501834
  H     -4.081614   -1.548032   -1.366783
  H     -3.388309    0.046570   -1.670783
  H     -2.670103   -1.383508   -2.410680
  C      0.575941   -1.734567   -2.548901
  H     -0.424091   -2.162140   -2.475621
  H      0.912428   -1.838171   -3.583474
  H      1.239848   -2.330198   -1.922071
  H     -0.138076    0.294029   -2.737836
  H      2.044607    1.446678   -2.410818

 Total Charge           Charge          ....    0
 Multiplicity           Mult            ....    2
 Number of Electrons    NEL             ....  169
 Basis Dimension        Dim             .... 1534

ORBITAL ENERGIES
----------------
                 SPIN UP ORBITALS
  NO   OCC          E(Eh)            E(eV)
   0   1.0000     -68.750578     -1870.7983
   1   1.0000     -68.750248     -1870.7894
   2   1.0000     -68.746106     -1870.6767
   3   1.0000     -68.732413     -1870.3040
   4   1.0000     -26.295440      -715.5353
   5   1.0000     -11.308927      -307.7316
   6   1.0000     -11.228456      -305.5418
   7   1.0000     -11.221111      -305.3420
   8   1.0000     -11.200390      -304.7781
   9   1.0000     -11.200018      -304.7680
  10   1.0000     -11.198929      -304.7384
  11   1.0000     -11.198751      -304.7335
  12   1.0000     -11.198644      -304.7306
  13   1.0000     -11.198217      -304.7190
  14   1.0000     -11.195275      -304.6389
  15   1.0000     -11.191530      -304.5370
  16   1.0000     -11.191054      -304.5241
  17   1.0000      -6.098459      -165.9475
  18   1.0000      -6.098088      -165.9374
  19   1.0000      -6.093845      -165.8220
  20   1.0000      -6.084113      -165.5571
  21   1.0000      -4.204602      -114.4130
  22   1.0000      -4.204476      -114.4096
  23   1.0000      -4.204436      -114.4085
  24   1.0000      -4.204428      -114.4083
  25   1.0000      -4.204009      -114.3969
  26   1.0000      -4.203981      -114.3961
  27   1.0000      -4.200066      -114.2896
  28   1.0000      -4.199851      -114.2837
  29   1.0000      -4.199760      -114.2813
  30   1.0000      -4.190269      -114.0230
  31   1.0000      -4.189417      -113.9998
  32   1.0000      -4.189321      -113.9972
  33   1.0000      -1.612208       -43.8704
  34   1.0000      -1.068833       -29.0844
  35   1.0000      -0.971129       -26.4258
  36   1.0000      -0.965494       -26.2724
  37   1.0000      -0.960635       -26.1402
  38   1.0000      -0.940061       -25.5803
  39   1.0000      -0.926484       -25.2109
  40   1.0000      -0.925559       -25.1857
  41   1.0000      -0.923046       -25.1174
  42   1.0000      -0.921930       -25.0870
  43   1.0000      -0.918436       -24.9919
  44   1.0000      -0.916388       -24.9362
  45   1.0000      -0.817485       -22.2449
  46   1.0000      -0.724414       -19.7123
  47   1.0000      -0.713822       -19.4241
  48   1.0000      -0.699811       -19.0428
  49   1.0000      -0.653925       -17.7942
  50   1.0000      -0.626718       -17.0539
  51   1.0000      -0.622831       -16.9481
  52   1.0000      -0.600907       -16.3515
  53   1.0000      -0.589756       -16.0481
  54   1.0000      -0.583370       -15.8743
  55   1.0000      -0.575769       -15.6675
  56   1.0000      -0.575487       -15.6598
  57   1.0000      -0.567077       -15.4309
  58   1.0000      -0.563236       -15.3264
  59   1.0000      -0.559535       -15.2257
  60   1.0000      -0.555324       -15.1111
  61   1.0000      -0.554248       -15.0818
  62   1.0000      -0.551630       -15.0106
  63   1.0000      -0.542377       -14.7588
  64   1.0000      -0.541453       -14.7337
  65   1.0000      -0.538483       -14.6529
  66   1.0000      -0.536720       -14.6049
  67   1.0000      -0.534676       -14.5493
  68   1.0000      -0.532313       -14.4850
  69   1.0000      -0.530650       -14.4397
  70   1.0000      -0.529360       -14.4046
  71   1.0000      -0.528613       -14.3843
  72   1.0000      -0.524923       -14.2839
  73   1.0000      -0.508028       -13.8241
  74   1.0000      -0.504721       -13.7342
  75   1.0000      -0.448284       -12.1984
  76   1.0000      -0.434656       -11.8276
  77   1.0000      -0.431497       -11.7416
  78   1.0000      -0.429203       -11.6792
  79   1.0000      -0.428163       -11.6509
  80   1.0000      -0.423206       -11.5160
  81   1.0000      -0.422787       -11.5046
  82   1.0000      -0.342665        -9.3244
  83   1.0000      -0.338061        -9.1991
  84   1.0000      -0.318395        -8.6640
  85   0.0000       0.022023         0.5993
  86   0.0000       0.027545         0.7495
  87   0.0000       0.028181         0.7669
  88   0.0000       0.030080         0.8185
  89   0.0000       0.038582         1.0499

                 SPIN DOWN ORBITALS
  NO   OCC          E(Eh)            E(eV)
   0   1.0000     -68.750609     -1870.7992
   1   1.0000     -68.750118     -1870.7858
   2   1.0000     -68.746134     -1870.6774
   3   1.0000     -68.731659     -1870.2835
   4   1.0000     -26.291459      -715.4270
   5   1.0000     -11.283340      -307.0353
   6   1.0000     -11.231067      -305.6129
   7   1.0000     -11.219974      -305.3110
   8   1.0000     -11.200392      -304.7782
   9   1.0000     -11.200005      -304.7676
  10   1.0000     -11.198971      -304.7395
  11   1.0000     -11.198647      -304.7307
  12   1.0000     -11.198609      -304.7296
  13   1.0000     -11.198222      -304.7191
  14   1.0000     -11.195250      -304.6382
  15   1.0000     -11.191544      -304.5374
  16   1.0000     -11.191051      -304.5240
  17   1.0000      -6.098507      -165.9488
  18   1.0000      -6.097890      -165.9320
  19   1.0000      -6.093886      -165.8231
  20   1.0000      -6.082972      -165.5261
  21   1.0000      -4.204709      -114.4159
  22   1.0000      -4.204495      -114.4101
  23   1.0000      -4.204456      -114.4091
  24   1.0000      -4.203987      -114.3963
  25   1.0000      -4.203906      -114.3941
  26   1.0000      -4.203883      -114.3935
  27   1.0000      -4.200158      -114.2921
  28   1.0000      -4.199874      -114.2844
  29   1.0000      -4.199778      -114.2818
  30   1.0000      -4.188983      -113.9880
  31   1.0000      -4.188773      -113.9823
  32   1.0000      -4.187556      -113.9492
  33   1.0000      -1.599935       -43.5364
  34   1.0000      -1.051814       -28.6213
  35   1.0000      -0.970894       -26.4194
  36   1.0000      -0.965078       -26.2611
  37   1.0000      -0.960551       -26.1379
  38   1.0000      -0.926429       -25.2094
  39   1.0000      -0.925705       -25.1897
  40   1.0000      -0.923268       -25.1234
  41   1.0000      -0.922488       -25.1022
  42   1.0000      -0.918620       -24.9969
  43   1.0000      -0.916693       -24.9445
  44   1.0000      -0.906873       -24.6773
  45   1.0000      -0.800411       -21.7803
  46   1.0000      -0.713887       -19.4258
  47   1.0000      -0.705172       -19.1887
  48   1.0000      -0.656364       -17.8606
  49   1.0000      -0.639458       -17.4005
  50   1.0000      -0.625953       -17.0330
  51   1.0000      -0.622112       -16.9285
  52   1.0000      -0.597136       -16.2489
  53   1.0000      -0.588589       -16.0163
  54   1.0000      -0.581734       -15.8298
  55   1.0000      -0.575589       -15.6626
  56   1.0000      -0.575010       -15.6468
  57   1.0000      -0.566680       -15.4201
  58   1.0000      -0.562524       -15.3070
  59   1.0000      -0.558778       -15.2051
  60   1.0000      -0.555058       -15.1039
  61   1.0000      -0.553932       -15.0732
  62   1.0000      -0.550889       -14.9905
  63   1.0000      -0.542209       -14.7543
  64   1.0000      -0.541234       -14.7277
  65   1.0000      -0.538156       -14.6440
  66   1.0000      -0.536484       -14.5985
  67   1.0000      -0.534541       -14.5456
  68   1.0000      -0.532060       -14.4781
  69   1.0000      -0.530535       -14.4366
  70   1.0000      -0.528949       -14.3934
  71   1.0000      -0.525114       -14.2891
  72   1.0000      -0.523648       -14.2492
  73   1.0000      -0.504269       -13.7219
  74   1.0000      -0.498342       -13.5606
  75   1.0000      -0.438068       -11.9204
  76   1.0000      -0.434541       -11.8245
  77   1.0000      -0.431244       -11.7347
  78   1.0000      -0.428267       -11.6537
  79   1.0000      -0.424316       -11.5462
  80   1.0000      -0.423192       -11.5156
  81   1.0000      -0.394326       -10.7301
  82   1.0000      -0.338813        -9.2196
  83   1.0000      -0.337386        -9.1807
  84   0.0000       0.022021         0.5992
  85   0.0000       0.027559         0.7499
  86   0.0000       0.028009         0.7622
  87   0.0000       0.029830         0.8117
  88   0.0000       0.038589         1.0501

MULLIKEN ATOMIC CHARGES AND SPIN POPULATIONS
--------------------------------------------
   0 C :    0.353725   -0.230438
   1 C :   -0.797559    1.227858
   2 Si:    1.820587   -0.001100
   3 F :   -0.583218    0.012594
   4 Si:    1.890769   -0.002805
   5 Si:    2.632037   -0.004609
   6 Si:    3.056113    0.033341
   7 C :   -1.499030    0.000203
   8 H :    0.042601   -0.000055
   9 H :    0.207438    0.000376
  10 H :    0.351326    0.000422
  11 C :   -1.218615   -0.001652
  12 H :    0.199048   -0.000596
  13 H :    0.272013   -0.000529
  14 H :    0.269451   -0.000654
  15 C :   -1.651556   -0.000297
  16 H :    0.019678    0.000785
  17 H :    0.347783    0.005359
  18 H :    0.162544    0.001863
  19 C :   -1.528387   -0.000664
  20 H :    0.305495    0.000417
  21 H :    0.061470    0.000395
  22 H :    0.292206   -0.001749
  23 C :   -1.650194    0.000337
  24 H :    0.260315    0.000129
  25 H :   -0.038015   -0.000097
  26 H :    0.343253    0.000080
  27 C :   -1.531907    0.001051
  28 H :    0.305004    0.000548
  29 H :    0.334203    0.000130
  30 H :    0.013909   -0.000166
  31 C :   -1.532093   -0.001064
  32 H :    0.318406    0.000269
  33 H :    0.029268    0.000148
  34 H :    0.231023   -0.000668
  35 C :   -1.848565    0.005861
  36 H :   -0.021400    0.001875
  37 H :    0.306254   -0.001612
  38 H :    0.304084   -0.001460
  39 C :   -1.693054   -0.004255
  40 H :    0.017085   -0.000047
  41 H :    0.347153    0.000011
  42 H :    0.263592   -0.000828
  43 C :   -1.345622    0.058911
  44 H :    0.367579    0.003036
  45 H :    0.171021    0.010385
  46 H :    0.349106   -0.006904
  47 H :    0.164067   -0.006858
  48 H :    0.529608   -0.097276
Sum of atomic charges         :   -0.0000000

LOEWDIN ATOMIC CHARGES AND SPIN POPULATIONS
-------------------------------------------
   0 C :   -0.158398    0.109129
   1 C :   -0.141370    0.577139
   2 Si:    0.530863    0.038022
   3 F :    0.450932    0.107412
   4 Si:    0.426389    0.001697
   5 Si:    0.423174    0.001616
   6 Si:    0.422983    0.013039
   7 C :    0.543304   -0.000146
   8 H :   -0.226345   -0.000046
   9 H :   -0.230547    0.000013
  10 H :   -0.248484    0.000008
  11 C :    0.546287   -0.000116
  12 H :   -0.223775   -0.000056
  13 H :   -0.245887    0.000051
  14 H :   -0.242560    0.000009
  15 C :    0.543817    0.001469
  16 H :   -0.226175    0.000170
  17 H :   -0.239140    0.000952
  18 H :   -0.243087    0.000552
  19 C :    0.544564    0.000810
  20 H :   -0.245368    0.000099
  21 H :   -0.223883    0.000146
  22 H :   -0.244825    0.000086
  23 C :    0.547021   -0.000067
  24 H :   -0.248522    0.000036
  25 H :   -0.226364   -0.000047
  26 H :   -0.238466   -0.000014
  27 C :    0.545398   -0.000222
  28 H :   -0.247891   -0.000091
  29 H :   -0.245861    0.000015
  30 H :   -0.226033   -0.000072
  31 C :    0.548440    0.000860
  32 H :   -0.243537    0.000081
  33 H :   -0.225587    0.000154
  34 H :   -0.239443   -0.000062
  35 C :    0.546098    0.005013
  36 H :   -0.223408    0.001099
  37 H :   -0.241486    0.000294
  38 H :   -0.245553    0.000180
  39 C :    0.552298   -0.000734
  40 H :   -0.225805   -0.000164
  41 H :   -0.242644   -0.000028
  42 H :   -0.239810   -0.000099
  43 C :    0.522427    0.017076
  44 H :   -0.202849    0.001021
  45 H :   -0.156992    0.006286
  46 H :   -0.186352    0.000787
  47 H :   -0.213516    0.004663
  48 H :   -0.234028    0.111979

  Mayer bond orders larger than 0.100000
B(  0-C ,  1-C ) :   0.4907 B(  0-C ,  2-Si) :   0.9057 B(  0-C ,  4-Si) :  -0.2216
B(  0-C ,  5-Si) :   0.1236 B(  0-C ,  6-Si) :  -0.1670 B(  0-C , 43-C ) :   0.6557
B(  0-C , 47-H ) :   1.0509 B(  1-C ,  2-Si) :  -0.1362 B(  1-C ,  3-F ) :   0.7318
B(  1-C ,  4-Si) :   0.1123 B(  1-C , 43-C ) :   0.1702 B(  1-C , 47-H ) :  -0.1514
B(  1-C , 48-H ) :   0.6708 B(  2-Si,  4-Si) :   0.1122 B(  2-Si,  6-Si) :   0.1752
B(  2-Si,  7-C ) :   0.1645 B(  2-Si, 11-C ) :  -0.1812 B(  2-Si, 15-C ) :   0.1083
B(  2-Si, 23-C ) :   0.2010 B(  2-Si, 27-C ) :   0.2227 B(  2-Si, 31-C ) :   0.1314
B(  2-Si, 39-C ) :   0.3102 B(  2-Si, 43-C ) :  -0.1433 B(  3-F ,  5-Si) :  -0.1558
B(  4-Si,  5-Si) :   0.2297 B(  4-Si,  6-Si) :   0.2640 B(  4-Si,  7-C ) :  -0.1567
B(  4-Si, 11-C ) :   0.5950 B(  4-Si, 12-H ) :  -0.1009 B(  4-Si, 13-H ) :   0.1229
B(  4-Si, 15-C ) :  -0.2909 B(  4-Si, 16-H ) :  -0.1415 B(  5-Si,  6-Si) :   0.3500
B(  5-Si,  7-C ) :  -0.1239 B(  5-Si, 23-C ) :  -0.2305 B(  5-Si, 25-H ) :  -0.1566
B(  5-Si, 27-C ) :  -0.1419 B(  6-Si, 27-C ) :  -0.1091 B(  6-Si, 33-H ) :  -0.1084
B(  6-Si, 35-C ) :  -0.8876 B(  6-Si, 36-H ) :  -0.1452 B(  6-Si, 39-C ) :  -0.3415
B(  6-Si, 40-H ) :  -0.1460 B(  6-Si, 44-H ) :  -0.1165 B(  7-C ,  8-H ) :   1.2720
B(  7-C ,  9-H ) :   1.0996 B(  7-C , 10-H ) :   0.9408 B( 11-C , 12-H ) :   0.9549
B( 11-C , 13-H ) :   1.0330 B( 11-C , 14-H ) :   1.0342 B( 11-C , 15-C ) :   0.2045
B( 15-C , 16-H ) :   1.3007 B( 15-C , 17-H ) :   0.9674 B( 15-C , 18-H ) :   1.1998
B( 19-C , 20-H ) :   1.0110 B( 19-C , 21-H ) :   1.2095 B( 19-C , 22-H ) :   1.0512
B( 19-C , 23-C ) :   0.1326 B( 23-C , 24-H ) :   1.0807 B( 23-C , 25-H ) :   1.3796
B( 23-C , 26-H ) :   0.9426 B( 27-C , 28-H ) :   1.0101 B( 27-C , 29-H ) :   0.9766
B( 27-C , 30-H ) :   1.2876 B( 31-C , 32-H ) :   1.0049 B( 31-C , 33-H ) :   1.2666
B( 31-C , 34-H ) :   1.1168 B( 31-C , 35-C ) :   0.1051 B( 35-C , 36-H ) :   1.3911
B( 35-C , 37-H ) :   1.0682 B( 35-C , 38-H ) :   1.0465 B( 35-C , 39-C ) :   0.1873
B( 39-C , 40-H ) :   1.3296 B( 39-C , 41-H ) :   0.9553 B( 39-C , 42-H ) :   1.0998
B( 43-C , 44-H ) :   0.8821 B( 43-C , 45-H ) :   1.1701 B( 43-C , 46-H ) :   0.9917
B( 43-C , 47-H ) :  -0.1172

MP2 TOTAL ENERGY:    -1731.458919034 Eh
FINAL SINGLE POINT ENERGY     -1731.458919034042

DIPOLE MOMENT
-------------
                                X             Y             Z
Electronic contribution:     10.83175       0.36758      -8.38957
Nuclear contribution   :    -11.43209      -0.12795       8.36554
                        -----------------------------------------
Total Dipole Moment    :     -0.60034       0.23963      -0.02403
                        -----------------------------------------
Magnitude (a.u.)       :      0.64685
Magnitude (Debye)      :      1.64415

Rotational constants in cm-1:     0.010383     0.009586     0.008374
Rotational constants in MHz :   311.285875   287.371942   251.031486

                             ****ORCA TERMINATED NORMALLY****
TOTAL RUN TIME: 0 days 2 hours 16 minutes 26 seconds 460 msec
