                         Program Version 4.2.1 -  RELEASE  -
|  1> %pal
|  2>  nprocs 32
|  3> end
|  4> !RI-MP2 aug-cc-pVTZ aug-cc-pVTZ/C TightSCF
|  5> %maxcore 4500
|  6> *xyzfile 0 1  10_81TS.xyz
|  7>
|  8>
|  9>                          ****END OF INPUT****

CARTESIAN COORDINATES (ANGSTROEM)
---------------------------------
  C      2.663683   -1.294692    0.042394
  C      2.226563   -0.297431    1.108985
  C      0.816423    0.190604    0.904386
  C     -0.138170   -0.620621    0.319251
  C      0.265892   -1.806644   -0.518859
  C      1.615802   -2.390777   -0.112061
  H      3.633368   -1.722527    0.306134
  H      2.791598   -0.779549   -0.915970
  H      2.917875    0.543711    1.170235
  H      2.266247   -0.776585    2.095107
  H     -0.509039   -2.573829   -0.477273
  H      0.307575   -1.476823   -1.565918
  H      1.931330   -3.127943   -0.853207
  H      1.509108   -2.924151    0.838249
  C     -1.476179   -0.173211    0.250312
  C     -1.943006    0.773613    1.223820
  C     -2.489337   -1.035465   -0.287204
  H      0.473073    0.953677    1.594194
  N     -2.294114    1.550406    1.993673
  N     -3.290419   -1.715680   -0.751314
  C     -1.413751    1.302680   -1.414734
  H     -2.254041    1.895023   -1.070766
  C     -0.149937    1.746429   -1.211368
  H     -1.616930    0.642258   -2.251501
  C      0.976130    1.760952   -0.698393
  C      2.318596    2.342087   -0.585758
  H      2.398774    3.184703   -1.274708
  H      2.509224    2.712209    0.423259
  H      3.097308    1.621602   -0.838975

 Total Charge           Charge          ....    0
 Multiplicity           Mult            ....    1
 Number of Electrons    NEL             ....  106
 Basis Dimension        Dim             .... 1012

ORBITAL ENERGIES
----------------

  NO   OCC          E(Eh)            E(eV)
   0   2.0000     -15.576977      -423.8711
   1   2.0000     -15.575244      -423.8239
   2   2.0000     -11.323519      -308.1286
   3   2.0000     -11.294412      -307.3366
   4   2.0000     -11.285404      -307.0914
   5   2.0000     -11.283846      -307.0490
   6   2.0000     -11.280489      -306.9577
   7   2.0000     -11.276006      -306.8357
   8   2.0000     -11.270159      -306.6766
   9   2.0000     -11.266778      -306.5846
  10   2.0000     -11.248068      -306.0755
  11   2.0000     -11.247541      -306.0611
  12   2.0000     -11.247425      -306.0580
  13   2.0000     -11.240122      -305.8593
  14   2.0000     -11.239185      -305.8338
  15   2.0000      -1.244220       -33.8569
  16   2.0000      -1.226692       -33.3800
  17   2.0000      -1.174275       -31.9537
  18   2.0000      -1.111643       -30.2493
  19   2.0000      -1.096868       -29.8473
  20   2.0000      -1.039705       -28.2918
  21   2.0000      -1.027190       -27.9513
  22   2.0000      -0.999049       -27.1855
  23   2.0000      -0.927833       -25.2476
  24   2.0000      -0.880482       -23.9591
  25   2.0000      -0.850059       -23.1313
  26   2.0000      -0.776124       -21.1194
  27   2.0000      -0.752006       -20.4631
  28   2.0000      -0.711017       -19.3477
  29   2.0000      -0.699958       -19.0468
  30   2.0000      -0.656697       -17.8696
  31   2.0000      -0.641617       -17.4593
  32   2.0000      -0.636884       -17.3305
  33   2.0000      -0.621700       -16.9173
  34   2.0000      -0.612837       -16.6762
  35   2.0000      -0.606938       -16.5156
  36   2.0000      -0.596817       -16.2402
  37   2.0000      -0.581561       -15.8251
  38   2.0000      -0.574846       -15.6423
  39   2.0000      -0.570377       -15.5208
  40   2.0000      -0.563002       -15.3201
  41   2.0000      -0.555634       -15.1196
  42   2.0000      -0.538895       -14.6641
  43   2.0000      -0.492173       -13.3927
  44   2.0000      -0.489791       -13.3279
  45   2.0000      -0.484170       -13.1749
  46   2.0000      -0.481576       -13.1044
  47   2.0000      -0.476878       -12.9765
  48   2.0000      -0.469238       -12.7686
  49   2.0000      -0.465700       -12.6723
  50   2.0000      -0.395831       -10.7711
  51   2.0000      -0.346923        -9.4403
  52   2.0000      -0.336617        -9.1598
  53   0.0000       0.017592         0.4787
  54   0.0000       0.026221         0.7135
  55   0.0000       0.027397         0.7455
  56   0.0000       0.034314         0.9337
  57   0.0000       0.040734         1.1084

MULLIKEN ATOMIC CHARGES
-----------------------
   0 C :   -0.422315
   1 C :   -0.491479
   2 C :   -0.329266
   3 C :   -0.179118
   4 C :   -0.746376
   5 C :   -0.576053
   6 H :    0.283208
   7 H :    0.189442
   8 H :    0.179081
   9 H :    0.359998
  10 H :    0.292745
  11 H :    0.191056
  12 H :    0.332051
  13 H :    0.114701
  14 C :    0.291862
  15 C :    1.258360
  16 C :    1.190092
  17 H :    0.160246
  18 N :   -1.118683
  19 N :   -1.161923
  20 C :   -0.676393
  21 H :    0.296483
  22 C :   -0.596897
  23 H :    0.344328
  24 C :    0.848713
  25 C :   -0.787465
  26 H :    0.298807
  27 H :    0.193322
  28 H :    0.261473
Sum of atomic charges:    0.0000000

LOEWDIN ATOMIC CHARGES
----------------------
   0 C :    0.297120
   1 C :    0.288522
   2 C :    0.194656
   3 C :   -0.130007
   4 C :    0.300986
   5 C :    0.310496
   6 H :   -0.131587
   7 H :   -0.142084
   8 H :   -0.172604
   9 H :   -0.127981
  10 H :   -0.156955
  11 H :   -0.120907
  12 H :   -0.133160
  13 H :   -0.131815
  14 C :   -0.284257
  15 C :   -0.281117
  16 C :   -0.270966
  17 H :   -0.174087
  18 N :    0.320357
  19 N :    0.310199
  20 C :    0.428745
  21 H :   -0.190542
  22 C :    0.069327
  23 H :   -0.181552
  24 C :    0.073902
  25 C :    0.546611
  26 H :   -0.163661
  27 H :   -0.165145
  28 H :   -0.182496

  Mayer bond orders larger than 0.100000
B(  0-C ,  1-C ) :   0.8857 B(  0-C ,  5-C ) :   0.8988 B(  0-C ,  6-H ) :   0.9317
B(  0-C ,  7-H ) :   1.0901 B(  1-C ,  2-C ) :   0.8157 B(  1-C ,  5-C ) :   0.1279
B(  1-C ,  8-H ) :   1.0840 B(  1-C ,  9-H ) :   0.8601 B(  2-C ,  3-C ) :   1.2623
B(  2-C , 14-C ) :  -0.1717 B(  2-C , 17-H ) :   1.0914 B(  2-C , 20-C ) :   0.1230
B(  2-C , 24-C ) :   0.4103 B(  3-C ,  4-C ) :   0.9776 B(  3-C , 14-C ) :   0.6784
B(  3-C , 15-C ) :   0.9395 B(  3-C , 16-C ) :   0.3686 B(  3-C , 22-C ) :   0.1171
B(  3-C , 24-C ) :   0.1474 B(  4-C ,  5-C ) :   0.9342 B(  4-C , 10-H ) :   0.8956
B(  4-C , 11-H ) :   1.0838 B(  4-C , 14-C ) :  -0.2755 B(  4-C , 15-C ) :   0.1247
B(  5-C , 12-H ) :   0.8998 B(  5-C , 13-H ) :   1.1407 B( 14-C , 15-C ) :   0.3514
B( 14-C , 16-C ) :   0.8343 B( 14-C , 17-H ) :  -0.1606 B( 14-C , 18-N ) :   0.8341
B( 14-C , 19-N ) :   0.8690 B( 14-C , 20-C ) :   0.2789 B( 14-C , 22-C ) :   0.1276
B( 15-C , 16-C ) :  -0.2712 B( 15-C , 18-N ) :   0.9001 B( 16-C , 19-N ) :   0.9202
B( 16-C , 20-C ) :   0.1219 B( 20-C , 21-H ) :   1.0867 B( 20-C , 22-C ) :   1.1399
B( 20-C , 23-H ) :   0.9573 B( 21-H , 24-C ) :  -0.1086 B( 22-C , 24-C ) :   1.3619
B( 22-C , 25-C ) :  -0.2559 B( 24-C , 25-C ) :   0.5455 B( 24-C , 26-H ) :  -0.1318
B( 25-C , 26-H ) :   0.9988 B( 25-C , 27-H ) :   1.0929 B( 25-C , 28-H ) :   1.0124

MP2 TOTAL ENERGY:     -611.929922605 Eh
FINAL SINGLE POINT ENERGY      -611.929922605240

DIPOLE MOMENT
-------------
                                X             Y             Z
Electronic contribution:    -16.78888       1.95684       2.17623
Nuclear contribution   :     19.50172      -1.83664      -2.82530
                        -----------------------------------------
Total Dipole Moment    :      2.71284       0.12020      -0.64907
                        -----------------------------------------
Magnitude (a.u.)       :      2.79199
Magnitude (Debye)      :      7.09668

Rotational constants in cm-1:     0.026636     0.018475     0.014373
Rotational constants in MHz :   798.513830   553.860935   430.877337

                             ****ORCA TERMINATED NORMALLY****
TOTAL RUN TIME: 0 days 0 hours 23 minutes 27 seconds 827 msec
