                         Program Version 4.2.1 -  RELEASE  -
|  1> %pal
|  2>  nprocs 32
|  3> end
|  4> !RI-MP2 aug-cc-pVTZ aug-cc-pVTZ/C TightSCF
|  5> %maxcore 4500
|  6> *xyzfile 0 1  07_5TS.xyz
|  7>
|  8>
|  9>                          ****END OF INPUT****

CARTESIAN COORDINATES (ANGSTROEM)
---------------------------------
  C     -2.175398   -1.198349   -0.402162
  C     -3.544157   -1.092293   -0.214017
  C     -4.109364    0.121710    0.158172
  C     -3.288391    1.225240    0.351229
  C     -1.915264    1.111979    0.193798
  C     -1.330898   -0.104889   -0.180432
  H     -1.737402   -2.135495   -0.724833
  H     -4.177663   -1.956974   -0.375422
  H     -5.181557    0.209001    0.286636
  H     -3.720483    2.179079    0.632133
  H     -1.279245    1.976168    0.347310
  C      0.111113   -0.242377   -0.379767
  C      1.005383    0.214487    0.526270
  H      0.827599    0.675176    1.496246
  H      1.582868   -0.664949   -1.264718
  P      2.570685   -0.125993   -0.215875
  C      3.658201   -1.220939    0.765284
  H      3.929513   -0.748502    1.711300
  H      3.126646   -2.148853    0.974714
  H      4.568881   -1.447660    0.209028
  C      3.601813    1.350644   -0.528986
  H      3.034750    2.052470   -1.140033
  H      3.874362    1.838783    0.408587
  H      4.513232    1.070358   -1.059160

 Total Charge           Charge          ....    0
 Multiplicity           Mult            ....    1
 Number of Electrons    NEL             ....   88
 Basis Dimension        Dim             ....  809

ORBITAL ENERGIES
----------------

  NO   OCC          E(Eh)            E(eV)
   0   2.0000     -79.991552     -2176.6808
   1   2.0000     -11.252233      -306.1888
   2   2.0000     -11.252066      -306.1843
   3   2.0000     -11.214921      -305.1735
   4   2.0000     -11.214161      -305.1528
   5   2.0000     -11.213527      -305.1356
   6   2.0000     -11.210310      -305.0480
   7   2.0000     -11.208803      -305.0070
   8   2.0000     -11.206866      -304.9543
   9   2.0000     -11.198815      -304.7353
  10   2.0000     -11.191087      -304.5250
  11   2.0000      -7.530146      -204.9057
  12   2.0000      -5.424742      -147.6147
  13   2.0000      -5.424547      -147.6094
  14   2.0000      -5.424497      -147.6081
  15   2.0000      -1.135129       -30.8884
  16   2.0000      -1.067526       -29.0489
  17   2.0000      -1.025206       -27.8973
  18   2.0000      -0.993736       -27.0409
  19   2.0000      -0.971940       -26.4478
  20   2.0000      -0.968801       -26.3624
  21   2.0000      -0.831390       -22.6233
  22   2.0000      -0.804044       -21.8792
  23   2.0000      -0.761201       -20.7133
  24   2.0000      -0.709627       -19.3099
  25   2.0000      -0.672768       -18.3070
  26   2.0000      -0.631820       -17.1927
  27   2.0000      -0.616079       -16.7644
  28   2.0000      -0.607055       -16.5188
  29   2.0000      -0.602767       -16.4021
  30   2.0000      -0.592279       -16.1167
  31   2.0000      -0.585231       -15.9249
  32   2.0000      -0.578830       -15.7508
  33   2.0000      -0.564164       -15.3517
  34   2.0000      -0.519175       -14.1275
  35   2.0000      -0.510586       -13.8937
  36   2.0000      -0.488145       -13.2831
  37   2.0000      -0.477729       -12.9997
  38   2.0000      -0.467406       -12.7188
  39   2.0000      -0.451465       -12.2850
  40   2.0000      -0.366206        -9.9650
  41   2.0000      -0.322623        -8.7790
  42   2.0000      -0.317557        -8.6412
  43   2.0000      -0.259391        -7.0584
  44   0.0000       0.019231         0.5233
  45   0.0000       0.030703         0.8355
  46   0.0000       0.031832         0.8662
  47   0.0000       0.036873         1.0034
  48   0.0000       0.043226         1.1763

MULLIKEN ATOMIC CHARGES
-----------------------
   0 C :   -1.247749
   1 C :   -0.551626
   2 C :    0.014652
   3 C :   -0.664367
   4 C :   -0.929682
   5 C :    2.042400
   6 H :   -0.043122
   7 H :    0.446996
   8 H :    0.445999
   9 H :    0.419901
  10 H :    0.000271
  11 C :   -0.337838
  12 C :   -0.521269
  13 H :    0.433484
  14 H :    0.171367
  15 P :    0.751229
  16 C :   -1.121823
  17 H :    0.305453
  18 H :    0.295655
  19 H :    0.293082
  20 C :   -1.092430
  21 H :    0.296784
  22 H :    0.306957
  23 H :    0.285676
Sum of atomic charges:    0.0000000

LOEWDIN ATOMIC CHARGES
----------------------
   0 C :    0.184274
   1 C :    0.181515
   2 C :    0.179525
   3 C :    0.182432
   4 C :    0.183991
   5 C :   -0.218051
   6 H :   -0.186058
   7 H :   -0.187145
   8 H :   -0.191353
   9 H :   -0.187401
  10 H :   -0.187963
  11 C :    0.023185
  12 C :   -0.007420
  13 H :   -0.244779
  14 H :   -0.270990
  15 P :    1.040133
  16 C :    0.511244
  17 H :   -0.214134
  18 H :   -0.219839
  19 H :   -0.224070
  20 C :    0.510642
  21 H :   -0.219773
  22 H :   -0.214147
  23 H :   -0.223819

  Mayer bond orders larger than 0.100000
B(  0-C ,  1-C ) :   1.2181 B(  0-C ,  2-C ) :  -0.2780 B(  0-C ,  3-C ) :   0.1744
B(  0-C ,  4-C ) :  -0.3128 B(  0-C ,  5-C ) :   0.1636 B(  0-C ,  6-H ) :   1.8220
B(  0-C ,  7-H ) :  -0.1323 B(  0-C ,  8-H ) :   0.1704 B(  0-C , 10-H ) :   0.3454
B(  0-C , 11-C ) :   0.4331 B(  1-C ,  2-C ) :   1.0581 B(  1-C ,  5-C ) :   0.1568
B(  1-C ,  6-H ) :  -0.1207 B(  1-C ,  7-H ) :   0.8499 B(  1-C ,  8-H ) :  -0.1926
B(  2-C ,  3-C ) :   1.1005 B(  2-C ,  4-C ) :  -0.1961 B(  2-C ,  8-H ) :   0.8408
B(  2-C , 11-C ) :   0.1854 B(  3-C ,  4-C ) :   1.3339 B(  3-C ,  5-C ) :   0.2119
B(  3-C ,  8-H ) :  -0.1994 B(  3-C ,  9-H ) :   0.8667 B(  3-C , 11-C ) :  -0.1051
B(  4-C ,  5-C ) :   0.5802 B(  4-C ,  6-H ) :   0.2053 B(  4-C , 10-H ) :   1.5572
B(  4-C , 11-C ) :   0.4322 B(  5-C ,  6-H ) :  -0.2279 B(  5-C , 10-H ) :  -0.3337
B(  5-C , 11-C ) :   0.1646 B(  6-H , 10-H ) :   0.1724 B(  6-H , 11-C ) :  -0.2498
B( 10-H , 11-C ) :  -0.1137 B( 11-C , 12-C ) :   1.0378 B( 11-C , 14-H ) :   0.3581
B( 11-C , 15-P ) :  -0.6844 B( 12-C , 13-H ) :   0.8592 B( 12-C , 15-P ) :   1.4432
B( 14-H , 15-P ) :   0.6914 B( 15-P , 16-C ) :   0.8407 B( 15-P , 20-C ) :   0.8478
B( 16-C , 17-H ) :   0.8894 B( 16-C , 18-H ) :   0.9585 B( 16-C , 19-H ) :   0.9279
B( 16-C , 20-C ) :   0.1752 B( 20-C , 21-H ) :   0.9424 B( 20-C , 22-H ) :   0.8963
B( 20-C , 23-H ) :   0.9325

MP2 TOTAL ENERGY:     -728.816842021 Eh
FINAL SINGLE POINT ENERGY      -728.816842021361

DIPOLE MOMENT
-------------
                                X             Y             Z
Electronic contribution:     -4.72504      -0.80609      -1.34206
Nuclear contribution   :      6.95883       1.02531       1.71864
                        -----------------------------------------
Total Dipole Moment    :      2.23379       0.21922       0.37658
                        -----------------------------------------
Magnitude (a.u.)       :      2.27589
Magnitude (Debye)      :      5.78485

Rotational constants in cm-1:     0.096716     0.012669     0.011727
Rotational constants in MHz :  2899.466034   379.803134   351.560880

                             ****ORCA TERMINATED NORMALLY****
TOTAL RUN TIME: 0 days 0 hours 8 minutes 42 seconds 176 msec
