                         Program Version 4.2.1 -  RELEASE  -
|  1> %pal
|  2>  nprocs 32
|  3> end
|  4> !RI-MP2 aug-cc-pVTZ aug-cc-pVTZ/C TightSCF
|  5> %maxcore 4500
|  6> *xyzfile -1 1  05_6TS.xyz
|  7>
|  8>
|  9>                          ****END OF INPUT****

CARTESIAN COORDINATES (ANGSTROEM)
---------------------------------
  C      1.011217    0.925145   -0.818237
  C      2.302486    0.984359    0.019178
  C      2.998506   -0.294851    0.271734
  C      2.369565   -1.563018   -0.335264
  C      0.903358   -1.516331   -0.621508
  C      0.258091   -0.373056   -0.833119
  H      0.350975   -2.454292   -0.635345
  C     -1.232991   -0.331057   -1.007498
  C     -1.919984    0.406162    0.163800
  H     -1.621755   -1.352313   -1.065604
  H     -1.523632    0.182980   -1.927259
  C     -3.428597    0.196153    0.042978
  O     -4.108394    0.708402   -0.805751
  O     -3.916934   -0.647473    0.954014
  N     -1.460843   -0.112412    1.454414
  H     -1.735620    1.477603    0.059651
  O      4.145516   -0.398341    0.739556
  O      2.772063    2.110435    0.249949
  H      1.861631    0.110609    1.213979
  H     -3.133303   -0.862996    1.518559
  H     -0.530777   -0.518253    1.362372
  H     -1.381087    0.630316    2.138795
  H      2.931643   -1.764023   -1.258070
  H      2.608320   -2.387492    0.339764
  H      1.305565    1.186136   -1.844382
  H      0.386027    1.753398   -0.477885

 Total Charge           Charge          ....   -1
 Multiplicity           Mult            ....    1
 Number of Electrons    NEL             ....  106
 Basis Dimension        Dim             ....  920

ORBITAL ENERGIES
----------------

  NO   OCC          E(Eh)            E(eV)
   0   2.0000     -20.509422      -558.0897
   1   2.0000     -20.449337      -556.4548
   2   2.0000     -20.328119      -553.1562
   3   2.0000     -20.324214      -553.0500
   4   2.0000     -15.477789      -421.1720
   5   2.0000     -11.284921      -307.0783
   6   2.0000     -11.193950      -304.6029
   7   2.0000     -11.162405      -303.7445
   8   2.0000     -11.159886      -303.6759
   9   2.0000     -11.150590      -303.4230
  10   2.0000     -11.130155      -302.8669
  11   2.0000     -11.120777      -302.6117
  12   2.0000     -11.110394      -302.3292
  13   2.0000     -11.106476      -302.2226
  14   2.0000      -1.367661       -37.2159
  15   2.0000      -1.270386       -34.5689
  16   2.0000      -1.187521       -32.3141
  17   2.0000      -1.154690       -31.4207
  18   2.0000      -1.125736       -30.6328
  19   2.0000      -1.015257       -27.6265
  20   2.0000      -0.934622       -25.4324
  21   2.0000      -0.873517       -23.7696
  22   2.0000      -0.852486       -23.1973
  23   2.0000      -0.781793       -21.2737
  24   2.0000      -0.731657       -19.9094
  25   2.0000      -0.713545       -19.4166
  26   2.0000      -0.640788       -17.4367
  27   2.0000      -0.625023       -17.0077
  28   2.0000      -0.608747       -16.5648
  29   2.0000      -0.581803       -15.8317
  30   2.0000      -0.544715       -14.8224
  31   2.0000      -0.536368       -14.5953
  32   2.0000      -0.521409       -14.1883
  33   2.0000      -0.514415       -13.9979
  34   2.0000      -0.506932       -13.7943
  35   2.0000      -0.495113       -13.4727
  36   2.0000      -0.474082       -12.9004
  37   2.0000      -0.455010       -12.3815
  38   2.0000      -0.444134       -12.0855
  39   2.0000      -0.435342       -11.8462
  40   2.0000      -0.432239       -11.7618
  41   2.0000      -0.406688       -11.0665
  42   2.0000      -0.397417       -10.8143
  43   2.0000      -0.382569       -10.4102
  44   2.0000      -0.381315       -10.3761
  45   2.0000      -0.378724       -10.3056
  46   2.0000      -0.365098        -9.9348
  47   2.0000      -0.328723        -8.9450
  48   2.0000      -0.300150        -8.1675
  49   2.0000      -0.257493        -7.0067
  50   2.0000      -0.248353        -6.7580
  51   2.0000      -0.210525        -5.7287
  52   2.0000      -0.154228        -4.1967
  53   0.0000       0.099000         2.6939
  54   0.0000       0.105384         2.8676
  55   0.0000       0.110015         2.9937
  56   0.0000       0.116087         3.1589
  57   0.0000       0.122841         3.3427

MULLIKEN ATOMIC CHARGES
-----------------------
   0 C :   -0.456905
   1 C :    0.958353
   2 C :    0.896336
   3 C :   -0.191921
   4 C :   -1.324650
   5 C :    1.190448
   6 H :    0.306928
   7 C :   -0.842609
   8 C :    0.638892
   9 H :    0.291033
  10 H :    0.221500
  11 C :    0.528651
  12 O :   -0.897121
  13 O :   -0.615810
  14 N :   -0.695321
  15 H :    0.415756
  16 O :   -1.232547
  17 O :   -1.282737
  18 H :   -0.254212
  19 H :    0.279714
  20 H :    0.265699
  21 H :    0.004203
  22 H :    0.252256
  23 H :    0.168029
  24 H :    0.243417
  25 H :    0.132617
Sum of atomic charges:   -1.0000000

LOEWDIN ATOMIC CHARGES
----------------------
   0 C :    0.257846
   1 C :   -0.653421
   2 C :   -0.664369
   3 C :    0.237744
   4 C :    0.231012
   5 C :   -0.114350
   6 H :   -0.172603
   7 C :    0.290564
   8 C :   -0.107448
   9 H :   -0.149910
  10 H :   -0.134037
  11 C :   -0.802644
  12 O :    0.422388
  13 O :    0.833771
  14 N :    0.887049
  15 H :   -0.144342
  16 O :    0.354780
  17 O :    0.361865
  18 H :   -0.070537
  19 H :   -0.606648
  20 H :   -0.342136
  21 H :   -0.270839
  22 H :   -0.156122
  23 H :   -0.170151
  24 H :   -0.140204
  25 H :   -0.177257

  Mayer bond orders larger than 0.100000
B(  0-C ,  1-C ) :   0.8644 B(  0-C ,  5-C ) :   0.9003 B(  0-C , 18-H ) :  -0.1038
B(  0-C , 24-H ) :   1.0123 B(  0-C , 25-H ) :   1.0571 B(  1-C ,  2-C ) :   1.0109
B(  1-C , 16-O ) :   0.1046 B(  1-C , 17-O ) :   0.4191 B(  1-C , 18-H ) :   0.5071
B(  2-C ,  3-C ) :   0.8475 B(  2-C ,  4-C ) :   0.1685 B(  2-C ,  5-C ) :  -0.1702
B(  2-C , 16-O ) :   0.4202 B(  2-C , 18-H ) :   0.5763 B(  3-C ,  4-C ) :   0.6894
B(  3-C , 22-H ) :   0.9514 B(  3-C , 23-H ) :   1.0641 B(  4-C ,  5-C ) :   0.8030
B(  4-C ,  6-H ) :   0.9471 B(  4-C ,  7-C ) :   0.2455 B(  5-C ,  7-C ) :   0.5329
B(  5-C , 18-H ) :   0.1369 B(  7-C ,  8-C ) :   0.9191 B(  7-C ,  9-H ) :   1.0428
B(  7-C , 10-H ) :   1.0308 B(  7-C , 11-C ) :   0.1329 B(  7-C , 14-N ) :   0.1219
B(  8-C , 11-C ) :   0.4595 B(  8-C , 14-N ) :   0.4948 B(  8-C , 15-H ) :   0.9310
B(  9-H , 11-C ) :  -0.1023 B( 11-C , 12-O ) :   1.2376 B( 11-C , 13-O ) :   0.8214
B( 11-C , 14-N ) :   0.1592 B( 11-C , 15-H ) :  -0.1691 B( 13-O , 19-H ) :   0.8067
B( 14-N , 19-H ) :   0.1471 B( 14-N , 20-H ) :   0.7628 B( 14-N , 21-H ) :   1.1042
B( 17-O , 25-H ) :   0.1931

MP2 TOTAL ENERGY:     -704.609290774 Eh
FINAL SINGLE POINT ENERGY      -704.609290774429

DIPOLE MOMENT
-------------
                                X             Y             Z
Electronic contribution:     -3.07340       2.34508       0.00364
Nuclear contribution   :     -0.50549      -3.95100      -0.54618
                        -----------------------------------------
Total Dipole Moment    :     -3.57888      -1.60592      -0.54254
                        -----------------------------------------
Magnitude (a.u.)       :      3.96002
Magnitude (Debye)      :     10.06556

Rotational constants in cm-1:     0.052687     0.010729     0.010222
Rotational constants in MHz :  1579.510468   321.635939   306.447158

                             ****ORCA TERMINATED NORMALLY****
TOTAL RUN TIME: 0 days 0 hours 14 minutes 29 seconds 227 msec
