                         Program Version 4.2.1 -  RELEASE  -
|  1> %pal
|  2>  nprocs 32
|  3> end
|  4> !RI-MP2 aug-cc-pVTZ aug-cc-pVTZ/C TightSCF
|  5> %maxcore 4500
|  6> *xyzfile 0 1  02_49TS.xyz
|  7>
|  8>
|  9>                          ****END OF INPUT****

CARTESIAN COORDINATES (ANGSTROEM)
---------------------------------
  C      2.014930   -0.342297   -1.474132
  C      0.986214    0.277831    0.991452
  H      0.519976    0.404455    1.959999
  C      0.627630    1.083703   -0.085926
  C      1.149592    0.749371   -1.336771
  C      2.934539   -0.609964   -0.338486
  C      2.260970   -0.424486    1.033393
  O      2.772983   -0.855782    2.041869
  O      4.076788   -0.959931   -0.462961
  H      0.803554    1.253566   -2.227707
  C     -0.314974    2.274703    0.109015
  C     -1.446637    1.955750    1.093941
  H     -2.086794    2.833963    1.202827
  H     -2.063454    1.130197    0.742143
  H     -1.073477    1.706687    2.087618
  C     -0.943319    2.741364   -1.208148
  H     -1.621748    3.573489   -1.010334
  H     -0.194355    3.099033   -1.917093
  H     -1.520678    1.944829   -1.680785
  C      0.535252    3.423746    0.682025
  H     -0.084183    4.311329    0.834154
  H      0.974780    3.145045    1.641736
  H      1.349178    3.686968    0.002900
  C     -3.951660   -0.866852   -0.068491
  C     -3.150025   -0.670873   -1.182864
  C     -3.393776   -1.386312    1.096173
  H     -3.577374   -0.267909   -2.093290
  C     -1.801362   -0.995782   -1.142288
  H     -4.013314   -1.543131    1.970784
  C     -2.048484   -1.699124    1.141845
  C     -1.227282   -1.514639    0.022162
  H     -1.195777   -0.847215   -2.026318
  C      0.183730   -1.872005    0.096755
  H     -1.614466   -2.093785    2.053697
  C      0.974028   -2.045501   -1.043227
  H     -5.005516   -0.620048   -0.104540
  H      2.435435   -0.560434   -2.449985
  H      0.518146   -2.309175    1.028703
  H      0.485047   -2.090905   -2.007108
  H      1.830661   -2.703056   -0.957229

 Total Charge           Charge          ....    0
 Multiplicity           Mult            ....    1
 Number of Electrons    NEL             ....  144
 Basis Dimension        Dim             .... 1380

ORBITAL ENERGIES
----------------

  NO   OCC          E(Eh)            E(eV)
   0   2.0000     -20.562616      -559.5372
   1   2.0000     -20.546122      -559.0884
   2   2.0000     -11.339555      -308.5650
   3   2.0000     -11.331518      -308.3463
   4   2.0000     -11.279670      -306.9354
   5   2.0000     -11.277629      -306.8799
   6   2.0000     -11.265049      -306.5376
   7   2.0000     -11.264381      -306.5194
   8   2.0000     -11.261883      -306.4514
   9   2.0000     -11.255440      -306.2761
  10   2.0000     -11.251844      -306.1782
  11   2.0000     -11.250953      -306.1540
  12   2.0000     -11.250546      -306.1429
  13   2.0000     -11.249753      -306.1214
  14   2.0000     -11.248989      -306.1006
  15   2.0000     -11.248881      -306.0976
  16   2.0000     -11.248401      -306.0846
  17   2.0000     -11.223559      -305.4086
  18   2.0000     -11.221884      -305.3630
  19   2.0000     -11.217351      -305.2396
  20   2.0000      -1.412787       -38.4439
  21   2.0000      -1.378961       -37.5234
  22   2.0000      -1.184591       -32.2344
  23   2.0000      -1.168552       -31.7979
  24   2.0000      -1.111503       -30.2455
  25   2.0000      -1.084816       -29.5193
  26   2.0000      -1.036396       -28.2018
  27   2.0000      -1.027185       -27.9511
  28   2.0000      -1.007684       -27.4205
  29   2.0000      -0.966233       -26.2925
  30   2.0000      -0.943083       -25.6626
  31   2.0000      -0.940626       -25.5957
  32   2.0000      -0.877792       -23.8859
  33   2.0000      -0.845762       -23.0144
  34   2.0000      -0.841807       -22.9067
  35   2.0000      -0.826140       -22.4804
  36   2.0000      -0.788311       -21.4510
  37   2.0000      -0.753059       -20.4918
  38   2.0000      -0.722261       -19.6537
  39   2.0000      -0.696608       -18.9557
  40   2.0000      -0.691032       -18.8039
  41   2.0000      -0.673973       -18.3397
  42   2.0000      -0.661219       -17.9927
  43   2.0000      -0.650072       -17.6893
  44   2.0000      -0.639327       -17.3970
  45   2.0000      -0.629568       -17.1314
  46   2.0000      -0.619292       -16.8518
  47   2.0000      -0.615926       -16.7602
  48   2.0000      -0.605332       -16.4719
  49   2.0000      -0.603969       -16.4348
  50   2.0000      -0.600622       -16.3437
  51   2.0000      -0.588673       -16.0186
  52   2.0000      -0.581272       -15.8172
  53   2.0000      -0.559873       -15.2349
  54   2.0000      -0.553822       -15.0703
  55   2.0000      -0.549046       -14.9403
  56   2.0000      -0.542500       -14.7622
  57   2.0000      -0.531329       -14.4582
  58   2.0000      -0.520110       -14.1529
  59   2.0000      -0.518865       -14.1190
  60   2.0000      -0.510562       -13.8931
  61   2.0000      -0.501234       -13.6393
  62   2.0000      -0.499267       -13.5857
  63   2.0000      -0.494969       -13.4688
  64   2.0000      -0.471794       -12.8382
  65   2.0000      -0.464152       -12.6302
  66   2.0000      -0.463950       -12.6247
  67   2.0000      -0.401286       -10.9195
  68   2.0000      -0.379787       -10.3345
  69   2.0000      -0.357731        -9.7344
  70   2.0000      -0.352233        -9.5847
  71   2.0000      -0.287231        -7.8159
  72   0.0000       0.016532         0.4498
  73   0.0000       0.018884         0.5138
  74   0.0000       0.024214         0.6589
  75   0.0000       0.028204         0.7675
  76   0.0000       0.030667         0.8345

MULLIKEN ATOMIC CHARGES
-----------------------
   0 C :   -0.198665
   1 C :   -0.422702
   2 H :    0.025300
   3 C :    1.293224
   4 C :   -0.379517
   5 C :    1.019571
   6 C :    1.358046
   7 O :   -1.317750
   8 O :   -1.160815
   9 H :   -0.510240
  10 C :    1.689237
  11 C :   -1.564531
  12 H :   -0.014475
  13 H :    0.874269
  14 H :    0.269381
  15 C :   -1.527048
  16 H :    0.113482
  17 H :    0.253871
  18 H :    0.520193
  19 C :   -1.564558
  20 H :    0.214364
  21 H :    0.283138
  22 H :    0.307486
  23 C :   -0.258030
  24 C :   -0.418735
  25 C :   -0.544847
  26 H :    0.414868
  27 C :   -0.842293
  28 H :    0.456760
  29 C :   -0.610678
  30 C :    1.726341
  31 H :   -0.443589
  32 C :   -0.477250
  33 H :    0.191905
  34 C :   -0.748026
  35 H :    0.728946
  36 H :    0.406434
  37 H :    0.127833
  38 H :    0.302147
  39 H :    0.426953
Sum of atomic charges:   -0.0000000

LOEWDIN ATOMIC CHARGES
----------------------
   0 C :    0.128455
   1 C :    0.197933
   2 H :   -0.175769
   3 C :   -0.093502
   4 C :    0.228713
   5 C :   -0.550244
   6 C :   -0.564739
   7 O :    0.477662
   8 O :    0.496446
   9 H :   -0.185121
  10 C :   -0.324043
  11 C :    0.597638
  12 H :   -0.145793
  13 H :   -0.199154
  14 H :   -0.164169
  15 C :    0.579970
  16 H :   -0.151714
  17 H :   -0.163311
  18 H :   -0.160143
  19 C :    0.598496
  20 H :   -0.151636
  21 H :   -0.153019
  22 H :   -0.150013
  23 C :    0.202982
  24 C :    0.206221
  25 C :    0.206586
  26 H :   -0.172071
  27 C :    0.213223
  28 H :   -0.174647
  29 C :    0.221889
  30 C :   -0.129610
  31 H :   -0.184949
  32 C :    0.199845
  33 H :   -0.162627
  34 C :    0.446953
  35 H :   -0.177354
  36 H :   -0.146036
  37 H :   -0.169051
  38 H :   -0.186102
  39 H :   -0.168198

  Mayer bond orders larger than 0.100000
B(  0-C ,  3-C ) :   0.6394 B(  0-C ,  4-C ) :   0.8279 B(  0-C ,  5-C ) :   1.0257
B(  0-C ,  9-H ) :  -0.2707 B(  0-C , 34-C ) :   0.6329 B(  0-C , 36-H ) :   0.6524
B(  1-C ,  2-H ) :   1.2064 B(  1-C ,  3-C ) :   0.9105 B(  1-C ,  4-C ) :  -0.3046
B(  1-C ,  5-C ) :   0.3286 B(  1-C ,  6-C ) :   0.5772 B(  1-C ,  7-O ) :   0.2453
B(  1-C , 10-C ) :   0.1606 B(  1-C , 11-C ) :  -0.1203 B(  1-C , 27-C ) :   0.1457
B(  1-C , 32-C ) :   0.2020 B(  1-C , 34-C ) :   0.1112 B(  2-H ,  3-C ) :   0.1065
B(  2-H ,  6-C ) :  -0.1236 B(  2-H ,  7-O ) :   0.2013 B(  2-H ,  9-H ) :   0.1838
B(  2-H , 10-C ) :  -0.2001 B(  3-C ,  4-C ) :   0.4651 B(  3-C ,  5-C ) :  -0.4488
B(  3-C ,  6-C ) :   0.4611 B(  3-C ,  7-O ) :   0.1536 B(  3-C ,  9-H ) :  -0.6547
B(  3-C , 10-C ) :   0.9314 B(  3-C , 19-C ) :  -0.2638 B(  3-C , 27-C ) :   0.1103
B(  3-C , 29-C ) :  -0.1065 B(  3-C , 31-H ) :   0.1074 B(  3-C , 32-C ) :   0.2730
B(  4-C ,  5-C ) :   0.3430 B(  4-C ,  9-H ) :   2.1875 B(  4-C , 10-C ) :   0.3639
B(  4-C , 11-C ) :   0.1533 B(  4-C , 32-C ) :   0.1959 B(  4-C , 36-H ) :  -0.1420
B(  5-C ,  6-C ) :   0.7585 B(  6-C ,  7-O ) :  -0.2421 B(  6-C ,  8-O ) :   0.1920
B(  6-C , 29-C ) :   0.1819 B(  7-O , 32-C ) :   0.1782 B(  8-O , 36-H ) :   0.2614
B(  9-H , 10-C ) :  -0.1618 B( 10-C , 11-C ) :   0.4287 B( 10-C , 15-C ) :   0.2405
B( 10-C , 16-H ) :  -0.1376 B( 10-C , 20-H ) :  -0.1504 B( 10-C , 21-H ) :  -0.1028
B( 11-C , 12-H ) :   1.4467 B( 11-C , 13-H ) :   0.3243 B( 11-C , 14-H ) :   1.1271
B( 11-C , 15-C ) :   0.1196 B( 11-C , 19-C ) :   0.1414 B( 12-H , 13-H ) :  -0.1708
B( 15-C , 16-H ) :   1.2612 B( 15-C , 17-H ) :   1.1665 B( 15-C , 18-H ) :   0.7720
B( 15-C , 19-C ) :   0.1512 B( 19-C , 20-H ) :   1.1601 B( 19-C , 21-H ) :   1.0657
B( 19-C , 22-H ) :   1.0577 B( 23-C , 24-C ) :   1.1069 B( 23-C , 25-C ) :   1.1575
B( 23-C , 27-C ) :   0.2311 B( 23-C , 29-C ) :   0.1909 B( 23-C , 35-H ) :   0.3487
B( 24-C , 26-H ) :   0.9337 B( 24-C , 27-C ) :   1.5213 B( 24-C , 29-C ) :   0.1379
B( 24-C , 30-C ) :   0.3023 B( 24-C , 31-H ) :  -0.2965 B( 24-C , 32-C ) :  -0.2543
B( 25-C , 27-C ) :   0.1389 B( 25-C , 28-H ) :   0.8235 B( 25-C , 29-C ) :   1.2272
B( 25-C , 30-C ) :   0.1336 B( 25-C , 33-H ) :  -0.1177 B( 26-H , 30-C ) :  -0.1294
B( 26-H , 31-H ) :  -0.1387 B( 27-C , 30-C ) :   0.5187 B( 27-C , 31-H ) :   2.4298
B( 27-C , 32-C ) :   0.4364 B( 27-C , 33-H ) :   0.1027 B( 27-C , 34-C ) :  -0.3073
B( 27-C , 35-H ) :  -0.1868 B( 27-C , 38-H ) :  -0.2055 B( 28-H , 30-C ) :  -0.1040
B( 29-C , 30-C ) :   0.7740 B( 29-C , 31-H ) :  -0.1030 B( 29-C , 32-C ) :   0.3044
B( 29-C , 33-H ) :   1.1971 B( 30-C , 31-H ) :  -0.5723 B( 30-C , 32-C ) :   0.3800
B( 30-C , 35-H ) :   0.2164 B( 30-C , 37-H ) :  -0.2348 B( 31-H , 34-C ) :  -0.1770
B( 32-C , 33-H ) :  -0.1121 B( 32-C , 34-C ) :   0.9974 B( 32-C , 37-H ) :   1.3255
B( 32-C , 39-H ) :  -0.1474 B( 34-C , 38-H ) :   1.0970 B( 34-C , 39-H ) :   0.7605

MP2 TOTAL ENERGY:     -846.655784076 Eh
FINAL SINGLE POINT ENERGY      -846.655784075678

DIPOLE MOMENT
-------------
                                X             Y             Z
Electronic contribution:     12.59300     -13.50954       1.78951
Nuclear contribution   :    -15.14321      14.13433      -2.94768
                        -----------------------------------------
Total Dipole Moment    :     -2.55021       0.62479      -1.15817
                        -----------------------------------------
Magnitude (a.u.)       :      2.86972
Magnitude (Debye)      :      7.29426

Rotational constants in cm-1:     0.016540     0.010291     0.008293
Rotational constants in MHz :   495.856448   308.523705   248.610677

                             ****ORCA TERMINATED NORMALLY****
TOTAL RUN TIME: 0 days 1 hours 18 minutes 19 seconds 31 msec
