                         Program Version 4.2.1 -  RELEASE  -
|  1> %pal
|  2>  nprocs 32
|  3> end
|  4> !RI-MP2 aug-cc-pVTZ aug-cc-pVTZ/C TightSCF
|  5> %maxcore 4500
|  6> *xyzfile 0 1  10_50P.xyz
|  7>
|  8>
|  9>                          ****END OF INPUT****

CARTESIAN COORDINATES (ANGSTROEM)
---------------------------------
  C      1.722265    0.707465   -0.000027
  C      0.389276    0.615791   -0.000025
  C     -0.389276   -0.615791    0.000008
  C     -1.722265   -0.707465    0.000022
  C      2.716364   -0.410547    0.000000
  H      2.252408   -1.395635    0.000134
  H      3.366313   -0.345410   -0.877639
  H      3.366455   -0.345239    0.877520
  C     -2.716364    0.410547    0.000015
  H     -2.252409    1.395635   -0.000234
  H     -3.366543    0.345177   -0.877434
  H     -3.366225    0.345473    0.877725
  H      2.151886    1.705695   -0.000056
  H     -0.167975    1.546002   -0.000046
  H      0.167975   -1.546002    0.000021
  H     -2.151886   -1.705694    0.000053

 Total Charge           Charge          ....    0
 Multiplicity           Mult            ....    1
 Number of Electrons    NEL             ....   46
 Basis Dimension        Dim             ....  506

ORBITAL ENERGIES
----------------

  NO   OCC          E(Eh)            E(eV)
   0   2.0000     -11.229897      -305.5810
   1   2.0000     -11.229890      -305.5809
   2   2.0000     -11.223400      -305.4042
   3   2.0000     -11.222566      -305.3815
   4   2.0000     -11.220650      -305.3294
   5   2.0000     -11.220650      -305.3294
   6   2.0000      -1.099825       -29.9278
   7   2.0000      -1.045961       -28.4620
   8   2.0000      -0.960304       -26.1312
   9   2.0000      -0.911759       -24.8102
  10   2.0000      -0.787314       -21.4239
  11   2.0000      -0.703430       -19.1413
  12   2.0000      -0.666106       -18.1257
  13   2.0000      -0.605508       -16.4767
  14   2.0000      -0.584691       -15.9103
  15   2.0000      -0.569016       -15.4837
  16   2.0000      -0.564839       -15.3700
  17   2.0000      -0.522945       -14.2301
  18   2.0000      -0.521283       -14.1848
  19   2.0000      -0.520629       -14.1670
  20   2.0000      -0.462325       -12.5805
  21   2.0000      -0.422435       -11.4950
  22   2.0000      -0.303315        -8.2536
  23   0.0000       0.030020         0.8169
  24   0.0000       0.032955         0.8967
  25   0.0000       0.036455         0.9920
  26   0.0000       0.045063         1.2262
  27   0.0000       0.048900         1.3306

MULLIKEN ATOMIC CHARGES
-----------------------
   0 C :   -0.519747
   1 C :    0.052122
   2 C :    0.052114
   3 C :   -0.519744
   4 C :   -0.786606
   5 H :    0.391646
   6 H :    0.235555
   7 H :    0.235519
   8 C :   -0.786608
   9 H :    0.391645
  10 H :    0.235497
  11 H :    0.235576
  12 H :    0.246197
  13 H :    0.145318
  14 H :    0.145318
  15 H :    0.246198
Sum of atomic charges:    0.0000000

LOEWDIN ATOMIC CHARGES
----------------------
   0 C :    0.211662
   1 C :    0.186660
   2 C :    0.186660
   3 C :    0.211662
   4 C :    0.556214
   5 H :   -0.200781
   6 H :   -0.172862
   7 H :   -0.172865
   8 C :    0.556215
   9 H :   -0.200781
  10 H :   -0.172867
  11 H :   -0.172860
  12 H :   -0.191042
  13 H :   -0.216986
  14 H :   -0.216986
  15 H :   -0.191043

  Mayer bond orders larger than 0.100000
B(  0-C ,  1-C ) :   1.2573 B(  0-C ,  2-C ) :   0.1392 B(  0-C ,  3-C ) :   0.1032
B(  0-C ,  4-C ) :   0.8573 B(  0-C , 12-H ) :   1.0783 B(  0-C , 13-H ) :  -0.1599
B(  1-C ,  2-C ) :   0.4765 B(  1-C ,  3-C ) :   0.1392 B(  1-C , 13-H ) :   1.2705
B(  1-C , 14-H ) :  -0.1164 B(  2-C ,  3-C ) :   1.2573 B(  2-C , 13-H ) :  -0.1164
B(  2-C , 14-H ) :   1.2705 B(  3-C ,  8-C ) :   0.8573 B(  3-C , 14-H ) :  -0.1599
B(  3-C , 15-H ) :   1.0783 B(  4-C ,  5-H ) :   0.8145 B(  4-C ,  6-H ) :   1.0287
B(  4-C ,  7-H ) :   1.0288 B(  8-C ,  9-H ) :   0.8145 B(  8-C , 10-H ) :   1.0288
B(  8-C , 11-H ) :   1.0287 B( 13-H , 14-H ) :   0.1767

MP2 TOTAL ENERGY:     -234.093922656 Eh
FINAL SINGLE POINT ENERGY      -234.093922656438

DIPOLE MOMENT
-------------
                                X             Y             Z
Electronic contribution:      0.00000      -0.00000      -0.00004
Nuclear contribution   :     -0.00000       0.00000       0.00005
                        -----------------------------------------
Total Dipole Moment    :      0.00000       0.00000       0.00001
                        -----------------------------------------
Magnitude (a.u.)       :      0.00001
Magnitude (Debye)      :      0.00002

Rotational constants in cm-1:     0.389165     0.052578     0.047124
Rotational constants in MHz : 11666.881579  1576.246365  1412.743453

                             ****ORCA TERMINATED NORMALLY****
TOTAL RUN TIME: 0 days 0 hours 1 minutes 37 seconds 688 msec
