                         Program Version 4.2.1 -  RELEASE  -
|  1> %pal
|  2>  nprocs 32
|  3> end
|  4> !RI-MP2 aug-cc-pVTZ aug-cc-pVTZ/C TightSCF
|  5> %maxcore 4500
|  6> *xyzfile 0 1  02_9P.xyz
|  7>
|  8>
|  9>                          ****END OF INPUT****

CARTESIAN COORDINATES (ANGSTROEM)
---------------------------------
  C     -3.363589    0.926032   -0.095798
  C     -1.930701    1.225151   -0.542758
  C     -0.950467    0.215379    0.077930
  C     -1.391543   -1.234260   -0.215504
  C     -3.810088   -0.507316   -0.371585
  H     -1.881282    1.096270   -1.632929
  H     -3.443099    1.119622    0.982795
  H     -4.047176    1.628309   -0.583519
  H     -3.788820   -0.663290   -1.458497
  H     -2.859901   -1.384926    1.348501
  H     -3.107707   -2.514378    0.024654
  C     -2.819978   -1.483530    0.255580
  C      0.514406    0.476399   -0.352821
  C     -0.404833   -2.190076    0.386659
  C      1.335964   -0.834403   -0.645111
  C      0.894005   -1.983811    0.215049
  C     -5.232043   -0.754854    0.117739
  H     -5.556654   -1.774745   -0.102959
  H     -5.939193   -0.067892   -0.353418
  H     -5.299368   -0.610583    1.200321
  C      1.263466    1.342459    0.650893
  O      1.787393    2.376327    0.305193
  C      1.331874    0.894082    2.091593
  C      2.826993   -0.547918   -0.690810
  C      3.649232   -0.926960    0.285711
  H      3.227903   -1.475984    1.122409
  C      5.118390   -0.665075    0.406231
  H      5.323145   -0.046774    1.285659
  H      5.536585   -0.153222   -0.458422
  H      5.667994   -1.600651    0.544409
  C      3.253731    0.251382   -1.891089
  H      4.334495    0.300237   -2.003169
  H      2.881395    1.277201   -1.818957
  H      2.840447   -0.184243   -2.805497
  C     -1.575662    2.673747   -0.216324
  H     -1.576182    2.836409    0.866300
  H     -0.594823    2.963345   -0.592565
  H     -2.314042    3.352742   -0.649108
  H      1.188909   -0.179409    2.204529
  H      0.540962    1.401888    2.650579
  H      2.288370    1.202186    2.510488
  H      1.629991   -2.667582    0.618422
  H     -0.771814   -3.039294    0.954764
  H      1.044609   -1.102283   -1.669522
  H      0.511503    1.054528   -1.277972
  H     -1.019005    0.327694    1.166624
  H     -1.371321   -1.364356   -1.308964

 Total Charge           Charge          ....    0
 Multiplicity           Mult            ....    1
 Number of Electrons    NEL             ....  144
 Basis Dimension        Dim             .... 1518

ORBITAL ENERGIES
----------------

  NO   OCC          E(Eh)            E(eV)
   0   2.0000     -20.533105      -558.7342
   1   2.0000     -11.319874      -308.0294
   2   2.0000     -11.244105      -305.9677
   3   2.0000     -11.236862      -305.7706
   4   2.0000     -11.233351      -305.6750
   5   2.0000     -11.231668      -305.6292
   6   2.0000     -11.231076      -305.6131
   7   2.0000     -11.225747      -305.4681
   8   2.0000     -11.225231      -305.4541
   9   2.0000     -11.224511      -305.4345
  10   2.0000     -11.223112      -305.3964
  11   2.0000     -11.222733      -305.3861
  12   2.0000     -11.220408      -305.3228
  13   2.0000     -11.219727      -305.3043
  14   2.0000     -11.217298      -305.2382
  15   2.0000     -11.215337      -305.1848
  16   2.0000     -11.212987      -305.1209
  17   2.0000     -11.211930      -305.0921
  18   2.0000     -11.206180      -304.9357
  19   2.0000      -1.380260       -37.5588
  20   2.0000      -1.164508       -31.6879
  21   2.0000      -1.121633       -30.5212
  22   2.0000      -1.080157       -29.3926
  23   2.0000      -1.066322       -29.0161
  24   2.0000      -1.026135       -27.9225
  25   2.0000      -1.012127       -27.5414
  26   2.0000      -0.990130       -26.9428
  27   2.0000      -0.969553       -26.3829
  28   2.0000      -0.926751       -25.2182
  29   2.0000      -0.921191       -25.0669
  30   2.0000      -0.894071       -24.3289
  31   2.0000      -0.855465       -23.2784
  32   2.0000      -0.833937       -22.6926
  33   2.0000      -0.789688       -21.4885
  34   2.0000      -0.766194       -20.8492
  35   2.0000      -0.736443       -20.0396
  36   2.0000      -0.729233       -19.8434
  37   2.0000      -0.683746       -18.6057
  38   2.0000      -0.673690       -18.3320
  39   2.0000      -0.658569       -17.9206
  40   2.0000      -0.641038       -17.4435
  41   2.0000      -0.627816       -17.0837
  42   2.0000      -0.620013       -16.8714
  43   2.0000      -0.613543       -16.6953
  44   2.0000      -0.607477       -16.5303
  45   2.0000      -0.600535       -16.3414
  46   2.0000      -0.581583       -15.8257
  47   2.0000      -0.576232       -15.6801
  48   2.0000      -0.567377       -15.4391
  49   2.0000      -0.561895       -15.2899
  50   2.0000      -0.554023       -15.0757
  51   2.0000      -0.549173       -14.9438
  52   2.0000      -0.543986       -14.8026
  53   2.0000      -0.540838       -14.7169
  54   2.0000      -0.532253       -14.4833
  55   2.0000      -0.529407       -14.4059
  56   2.0000      -0.527536       -14.3550
  57   2.0000      -0.522911       -14.2291
  58   2.0000      -0.510498       -13.8914
  59   2.0000      -0.505198       -13.7471
  60   2.0000      -0.493109       -13.4182
  61   2.0000      -0.487318       -13.2606
  62   2.0000      -0.478525       -13.0213
  63   2.0000      -0.469029       -12.7629
  64   2.0000      -0.463392       -12.6095
  65   2.0000      -0.459160       -12.4944
  66   2.0000      -0.449988       -12.2448
  67   2.0000      -0.425354       -11.5745
  68   2.0000      -0.419626       -11.4186
  69   2.0000      -0.392303       -10.6751
  70   2.0000      -0.352110        -9.5814
  71   2.0000      -0.336310        -9.1515
  72   0.0000       0.023769         0.6468
  73   0.0000       0.027710         0.7540
  74   0.0000       0.028209         0.7676
  75   0.0000       0.032143         0.8747
  76   0.0000       0.037099         1.0095

MULLIKEN ATOMIC CHARGES
-----------------------
   0 C :   -0.720701
   1 C :    0.087632
   2 C :    0.645889
   3 C :    0.730134
   4 C :    0.099884
   5 H :    0.146909
   6 H :    0.051301
   7 H :    0.452607
   8 H :    0.263912
   9 H :    0.053138
  10 H :    0.409786
  11 C :   -0.674706
  12 C :    0.077840
  13 C :   -1.555329
  14 C :    0.478972
  15 C :   -0.657931
  16 C :   -1.260251
  17 H :    0.236652
  18 H :    0.241417
  19 H :    0.233165
  20 C :    2.151886
  21 O :   -1.522613
  22 C :   -1.014050
  23 C :    0.829184
  24 C :   -0.293723
  25 H :    0.156702
  26 C :   -1.295485
  27 H :    0.205854
  28 H :    0.388698
  29 H :    0.235069
  30 C :   -1.172698
  31 H :    0.328171
  32 H :    0.296992
  33 H :    0.213225
  34 C :   -1.335897
  35 H :    0.202050
  36 H :    0.380556
  37 H :    0.135709
  38 H :    0.348519
  39 H :    0.244435
  40 H :    0.130325
  41 H :    0.037317
  42 H :    0.239975
  43 H :    0.242026
  44 H :   -0.559838
  45 H :    0.799662
  46 H :    0.287625
Sum of atomic charges:    0.0000000

LOEWDIN ATOMIC CHARGES
----------------------
   0 C :    0.306588
   1 C :    0.007833
   2 C :    0.054094
   3 C :   -0.000423
   4 C :   -0.024721
   5 H :   -0.112817
   6 H :   -0.123578
   7 H :   -0.128667
   8 H :   -0.116975
   9 H :   -0.122121
  10 H :   -0.126079
  11 C :    0.304484
  12 C :    0.058007
  13 C :    0.271153
  14 C :    0.001877
  15 C :    0.250258
  16 C :    0.596819
  17 H :   -0.161179
  18 H :   -0.160901
  19 H :   -0.158014
  20 C :   -0.519000
  21 O :    0.511442
  22 C :    0.603738
  23 C :   -0.077312
  24 C :    0.235458
  25 H :   -0.205928
  26 C :    0.579396
  27 H :   -0.167508
  28 H :   -0.199127
  29 H :   -0.170014
  30 C :    0.596490
  31 H :   -0.189756
  32 H :   -0.171638
  33 H :   -0.157644
  34 C :    0.606961
  35 H :   -0.147117
  36 H :   -0.185425
  37 H :   -0.154537
  38 H :   -0.184124
  39 H :   -0.157732
  40 H :   -0.164005
  41 H :   -0.183375
  42 H :   -0.161499
  43 H :   -0.139452
  44 H :   -0.159492
  45 H :   -0.142664
  46 H :   -0.111776

  Mayer bond orders larger than 0.100000
B(  0-C ,  1-C ) :   0.7309 B(  0-C ,  2-C ) :  -0.1048 B(  0-C ,  4-C ) :   0.9390
B(  0-C ,  6-H ) :   1.3185 B(  0-C ,  7-H ) :   0.7839 B(  0-C , 11-C ) :   0.1257
B(  1-C ,  2-C ) :   0.8750 B(  1-C ,  3-C ) :   0.3631 B(  1-C ,  5-H ) :   1.0699
B(  1-C , 12-C ) :  -0.1566 B(  1-C , 13-C ) :   0.1316 B(  1-C , 34-C ) :   0.5433
B(  1-C , 44-H ) :  -0.1182 B(  1-C , 45-H ) :  -0.1647 B(  2-C ,  3-C ) :   1.0451
B(  2-C ,  5-H ) :  -0.1552 B(  2-C , 12-C ) :   1.5513 B(  2-C , 13-C ) :   0.2830
B(  2-C , 15-C ) :   0.1397 B(  2-C , 20-C ) :   0.1037 B(  2-C , 23-C ) :  -0.1797
B(  2-C , 42-H ) :  -0.1498 B(  2-C , 45-H ) :   0.1461 B(  2-C , 46-H ) :  -0.1338
B(  3-C ,  9-H ) :  -0.1832 B(  3-C , 11-C ) :   0.4529 B(  3-C , 12-C ) :  -0.1682
B(  3-C , 13-C ) :   0.2367 B(  3-C , 41-H ) :   0.1456 B(  3-C , 46-H ) :   1.1067
B(  4-C ,  8-H ) :   0.8904 B(  4-C , 11-C ) :   0.9740 B(  4-C , 16-C ) :   0.6500
B(  4-C , 19-H ) :  -0.1130 B(  9-H , 11-C ) :   1.4069 B( 10-H , 11-C ) :   0.8353
B( 11-C , 13-C ) :  -0.3701 B( 12-C , 13-C ) :   0.3278 B( 12-C , 14-C ) :   0.7323
B( 12-C , 20-C ) :   0.4142 B( 12-C , 21-O ) :   0.1769 B( 12-C , 22-C ) :   0.1691
B( 12-C , 23-C ) :   0.7213 B( 12-C , 42-H ) :   0.1694 B( 12-C , 44-H ) :   0.6596
B( 12-C , 45-H ) :  -0.1033 B( 13-C , 14-C ) :   0.5086 B( 13-C , 15-C ) :   0.9173
B( 13-C , 23-C ) :  -0.1112 B( 13-C , 24-C ) :   0.1012 B( 13-C , 41-H ) :  -0.2756
B( 13-C , 42-H ) :   0.9905 B( 13-C , 43-H ) :  -0.3637 B( 13-C , 46-H ) :  -0.3380
B( 14-C , 15-C ) :   0.5912 B( 14-C , 20-C ) :   0.2161 B( 14-C , 23-C ) :   0.5987
B( 14-C , 25-H ) :  -0.1145 B( 14-C , 30-C ) :   0.1527 B( 14-C , 32-H ) :   0.1005
B( 14-C , 41-H ) :  -0.1930 B( 14-C , 43-H ) :   1.3051 B( 15-C , 20-C ) :  -0.1248
B( 15-C , 23-C ) :   0.2202 B( 15-C , 25-H ) :  -0.1330 B( 15-C , 41-H ) :   1.5534
B( 15-C , 43-H ) :  -0.1944 B( 16-C , 17-H ) :   1.0504 B( 16-C , 18-H ) :   1.0642
B( 16-C , 19-H ) :   1.0913 B( 20-C , 21-O ) :  -0.3853 B( 20-C , 22-C ) :   0.5354
B( 20-C , 23-C ) :  -0.1165 B( 20-C , 44-H ) :   0.2710 B( 20-C , 45-H ) :   0.2440
B( 21-O , 44-H ) :   0.4670 B( 22-C , 38-H ) :   0.9844 B( 22-C , 39-H ) :   1.0321
B( 22-C , 40-H ) :   1.1183 B( 23-C , 24-C ) :   0.8208 B( 23-C , 25-H ) :  -0.3115
B( 23-C , 26-C ) :   0.2543 B( 23-C , 30-C ) :   0.5510 B( 23-C , 32-H ) :  -0.1372
B( 23-C , 41-H ) :   0.1229 B( 23-C , 44-H ) :   0.1107 B( 24-C , 25-H ) :   1.6679
B( 24-C , 26-C ) :   0.4091 B( 24-C , 27-H ) :  -0.1360 B( 24-C , 29-H ) :  -0.1319
B( 24-C , 30-C ) :  -0.2776 B( 24-C , 41-H ) :  -0.2154 B( 25-H , 26-C ) :  -0.3114
B( 26-C , 27-H ) :   1.1811 B( 26-C , 28-H ) :   0.8337 B( 26-C , 29-H ) :   1.1356
B( 30-C , 31-H ) :   0.8919 B( 30-C , 32-H ) :   1.0528 B( 30-C , 33-H ) :   1.1459
B( 34-C , 35-H ) :   1.1640 B( 34-C , 36-H ) :   0.8746 B( 34-C , 37-H ) :   1.2180

MP2 TOTAL ENERGY:     -776.364665675 Eh
FINAL SINGLE POINT ENERGY      -776.364665674772

DIPOLE MOMENT
-------------
                                X             Y             Z
Electronic contribution:      6.19985      -0.69363      -0.68170
Nuclear contribution   :     -6.77703      -0.24064       0.79939
                        -----------------------------------------
Total Dipole Moment    :     -0.57718      -0.93427       0.11768
                        -----------------------------------------
Magnitude (a.u.)       :      1.10447
Magnitude (Debye)      :      2.80733

Rotational constants in cm-1:     0.024514     0.007758     0.006764
Rotational constants in MHz :   734.914516   232.593064   202.769088

                             ****ORCA TERMINATED NORMALLY****
TOTAL RUN TIME: 0 days 1 hours 24 minutes 13 seconds 578 msec
