                         Program Version 4.2.1 -  RELEASE  -
|  1> %pal
|  2>  nprocs 32
|  3> end
|  4> !RI-MP2 aug-cc-pVTZ aug-cc-pVTZ/C TightSCF
|  5> %maxcore 4500
|  6> *xyzfile 0 1  10_3R1.xyz
|  7>
|  8>
|  9>                          ****END OF INPUT****

CARTESIAN COORDINATES (ANGSTROEM)
---------------------------------
  C     -3.470088   -0.520534    0.000021
  N     -2.117811    0.060095    0.000012
  C     -1.075541   -0.722589   -0.000024
  O     -2.093080    1.330404    0.000052
  C      0.313833   -0.310102   -0.000017
  H     -3.981742   -0.151853   -0.886945
  H     -3.429058   -1.607399   -0.000143
  H     -3.981626   -0.152119    0.887166
  C      1.275473   -1.331602   -0.000060
  C      2.625543   -1.037769   -0.000055
  C      3.046237    0.287769   -0.000007
  C      2.105292    1.306512    0.000035
  C      0.746949    1.022213    0.000031
  H      0.951830   -2.366795   -0.000097
  H      3.352732   -1.840598   -0.000088
  H      4.103923    0.522093   -0.000004
  H      2.428929    2.340428    0.000071
  H      0.010203    1.810016    0.000063
  H     -1.292065   -1.781050   -0.000064

 Total Charge           Charge          ....    0
 Multiplicity           Mult            ....    1
 Number of Electrons    NEL             ....   72
 Basis Dimension        Dim             ....  667

ORBITAL ENERGIES
----------------

  NO   OCC          E(Eh)            E(eV)
   0   2.0000     -20.509213      -558.0841
   1   2.0000     -15.715766      -427.6477
   2   2.0000     -11.292525      -307.2852
   3   2.0000     -11.278727      -306.9098
   4   2.0000     -11.253625      -306.2267
   5   2.0000     -11.246891      -306.0435
   6   2.0000     -11.242413      -305.9216
   7   2.0000     -11.238897      -305.8259
   8   2.0000     -11.235063      -305.7216
   9   2.0000     -11.233565      -305.6808
  10   2.0000      -1.443923       -39.2912
  11   2.0000      -1.176475       -32.0135
  12   2.0000      -1.149459       -31.2784
  13   2.0000      -1.054133       -28.6844
  14   2.0000      -1.023024       -27.8379
  15   2.0000      -0.986203       -26.8360
  16   2.0000      -0.864007       -23.5108
  17   2.0000      -0.834176       -22.6991
  18   2.0000      -0.781211       -21.2578
  19   2.0000      -0.710523       -19.3343
  20   2.0000      -0.707267       -19.2457
  21   2.0000      -0.673158       -18.3176
  22   2.0000      -0.664274       -18.0758
  23   2.0000      -0.625917       -17.0321
  24   2.0000      -0.615222       -16.7410
  25   2.0000      -0.592744       -16.1294
  26   2.0000      -0.581002       -15.8099
  27   2.0000      -0.569322       -15.4920
  28   2.0000      -0.547364       -14.8945
  29   2.0000      -0.511438       -13.9169
  30   2.0000      -0.509472       -13.8634
  31   2.0000      -0.498415       -13.5626
  32   2.0000      -0.412266       -11.2183
  33   2.0000      -0.389935       -10.6107
  34   2.0000      -0.342641        -9.3237
  35   2.0000      -0.302539        -8.2325
  36   0.0000       0.022127         0.6021
  37   0.0000       0.029553         0.8042
  38   0.0000       0.035682         0.9710
  39   0.0000       0.044047         1.1986
  40   0.0000       0.046141         1.2556

MULLIKEN ATOMIC CHARGES
-----------------------
   0 C :   -0.870778
   1 N :    0.264584
   2 C :   -0.374572
   3 O :   -0.894229
   4 C :    2.117817
   5 H :    0.348127
   6 H :    0.339041
   7 H :    0.348114
   8 C :   -0.914341
   9 C :   -0.794074
  10 C :   -0.127548
  11 C :   -0.812292
  12 C :   -0.634929
  13 H :   -0.089037
  14 H :    0.550905
  15 H :    0.401807
  16 H :    0.504864
  17 H :    0.107240
  18 H :    0.529299
Sum of atomic charges:   -0.0000000

LOEWDIN ATOMIC CHARGES
----------------------
   0 C :    0.521005
   1 N :   -0.269927
   2 C :    0.152952
   3 O :    0.331114
   4 C :   -0.109845
   5 H :   -0.158326
   6 H :   -0.177531
   7 H :   -0.158320
   8 C :    0.201777
   9 C :    0.198465
  10 C :    0.199167
  11 C :    0.208482
  12 C :    0.231924
  13 H :   -0.179248
  14 H :   -0.183349
  15 H :   -0.180192
  16 H :   -0.181090
  17 H :   -0.256758
  18 H :   -0.190301

  Mayer bond orders larger than 0.100000
B(  0-C ,  1-N ) :   0.7831 B(  0-C ,  5-H ) :   0.9009 B(  0-C ,  6-H ) :   0.8913
B(  0-C ,  7-H ) :   0.9009 B(  1-N ,  2-C ) :   1.9006 B(  1-N ,  3-O ) :   0.8827
B(  1-N ,  4-C ) :  -0.3562 B(  1-N , 14-H ) :   0.1187 B(  2-C ,  4-C ) :  -0.1026
B(  2-C ,  8-C ) :   0.2976 B(  2-C ,  9-C ) :   0.1172 B(  2-C , 10-C ) :   0.1881
B(  2-C , 12-C ) :   0.3417 B(  2-C , 13-H ) :  -0.3576 B(  2-C , 14-H ) :   0.1463
B(  2-C , 16-H ) :   0.1622 B(  2-C , 17-H ) :  -0.1831 B(  2-C , 18-H ) :   0.5705
B(  3-O , 12-C ) :  -0.1018 B(  4-C ,  8-C ) :   0.1387 B(  4-C , 12-C ) :   0.3451
B(  4-C , 13-H ) :  -0.3119 B(  4-C , 17-H ) :  -0.3653 B(  8-C ,  9-C ) :   1.1499
B(  8-C , 10-C ) :  -0.2729 B(  8-C , 12-C ) :  -0.4761 B(  8-C , 13-H ) :   2.0455
B(  8-C , 14-H ) :  -0.1567 B(  8-C , 15-H ) :   0.1899 B(  8-C , 17-H ) :   0.3101
B(  9-C , 10-C ) :   1.0772 B(  9-C , 11-C ) :   0.2390 B(  9-C , 13-H ) :  -0.1775
B(  9-C , 14-H ) :   0.5928 B(  9-C , 15-H ) :  -0.1777 B( 10-C , 11-C ) :   1.1062
B( 10-C , 12-C ) :  -0.1923 B( 10-C , 15-H ) :   0.8972 B( 10-C , 17-H ) :  -0.1007
B( 11-C , 12-C ) :   1.1943 B( 11-C , 15-H ) :  -0.2071 B( 11-C , 16-H ) :   0.6571
B( 12-C , 13-H ) :   0.2617 B( 12-C , 15-H ) :   0.1030 B( 12-C , 16-H ) :  -0.1156
B( 12-C , 17-H ) :   1.5859 B( 13-H , 17-H ) :   0.2848 B( 13-H , 18-H ) :  -0.1040
B( 14-H , 17-H ) :  -0.1218

MP2 TOTAL ENERGY:     -439.324403112 Eh
FINAL SINGLE POINT ENERGY      -439.324403111674

DIPOLE MOMENT
-------------
                                X             Y             Z
Electronic contribution:      1.96927       1.66342      -0.00000
Nuclear contribution   :     -1.88307      -3.20726      -0.00004
                        -----------------------------------------
Total Dipole Moment    :      0.08620      -1.54385      -0.00004
                        -----------------------------------------
Magnitude (a.u.)       :      1.54625
Magnitude (Debye)      :      3.93026

Rotational constants in cm-1:     0.127023     0.025986     0.021661
Rotational constants in MHz :  3808.065976   779.046980   649.374950

                             ****ORCA TERMINATED NORMALLY****
TOTAL RUN TIME: 0 days 0 hours 5 minutes 31 seconds 817 msec
