                         Program Version 4.2.1 -  RELEASE  -
|  1> %pal
|  2>  nprocs 32
|  3> end
|  4> !RI-MP2 aug-cc-pVTZ aug-cc-pVTZ/C TightSCF
|  5> %maxcore 4500
|  6> *xyzfile 1 1  10_31R.xyz
|  7>
|  8>
|  9>                          ****END OF INPUT****

CARTESIAN COORDINATES (ANGSTROEM)
---------------------------------
  C      4.058588   -1.873412    0.211846
  C      3.300113   -1.713039   -1.112218
  C      2.320947   -0.196495    0.172472
  C      3.355778   -0.823003    1.120101
  H      3.975463   -2.889140    0.593584
  H      5.115488   -1.646378    0.075342
  H      2.888251   -1.258524    2.002685
  H      4.039834   -0.044885    1.457866
  C      3.042148   -0.202247   -1.172326
  H      2.413859    0.114061   -2.005044
  H      3.952084    0.394553   -1.148516
  H      3.742268   -2.195634   -1.979035
  H      1.818038    0.704071    0.504660
  N      1.316660   -1.272681   -0.095439
  N      1.935332   -2.259154   -0.880289
  C     -1.677357    1.566388   -0.889477
  C     -0.482262    2.156934   -0.265537
  C     -0.333085    2.276504    1.121078
  C      0.548616    2.633389   -1.079683
  C      0.793261    2.873327    1.668040
  H     -1.113817    1.917188    1.781713
  C      1.674276    3.235247   -0.534368
  H      0.446578    2.561053   -2.157010
  C      1.802060    3.358686    0.842785
  H      0.880591    2.969721    2.743552
  H      2.446974    3.622366   -1.187774
  H      2.672996    3.838975    1.270969
  C     -2.874347    1.432265   -0.321625
  C      0.126987   -1.363311    0.358765
  C     -4.082010    0.864689   -0.995790
  H     -4.840255    1.651985   -1.064519
  H     -3.828935    0.585041   -2.022928
  C     -0.748029   -2.528947    0.097815
  H     -0.117401   -3.423050    0.062116
  H     -1.168793   -2.418305   -0.909912
  C     -1.874578   -2.673992    1.127354
  H     -2.366665   -3.632924    0.947873
  H     -1.433572   -2.743033    2.125782
  C     -2.910343   -1.551685    1.088635
  H     -3.557108   -1.648082    1.964588
  H     -2.417085   -0.580976    1.193903
  C     -4.710123   -0.340893   -0.280673
  H     -5.607504   -0.620144   -0.836490
  H     -5.053835   -0.043715    0.715836
  C     -3.784362   -1.556232   -0.165705
  H     -4.380917   -2.472871   -0.161611
  H     -3.165035   -1.605251   -1.068872
  H      1.407063   -2.390119   -1.738964
  H     -0.203990   -0.518405    0.952968
  H     -1.562750    1.266872   -1.929223
  H     -3.023440    1.783338    0.697619

 Total Charge           Charge          ....    1
 Multiplicity           Mult            ....    1
 Number of Electrons    NEL             ....  162
 Basis Dimension        Dim             .... 1679

ORBITAL ENERGIES
----------------

  NO   OCC          E(Eh)            E(eV)
   0   2.0000     -15.831348      -430.7929
   1   2.0000     -15.751879      -428.6304
   2   2.0000     -11.475088      -312.2530
   3   2.0000     -11.420019      -310.7545
   4   2.0000     -11.405695      -310.3647
   5   2.0000     -11.380231      -309.6718
   6   2.0000     -11.364795      -309.2518
   7   2.0000     -11.359696      -309.1130
   8   2.0000     -11.353385      -308.9413
   9   2.0000     -11.350211      -308.8549
  10   2.0000     -11.348883      -308.8188
  11   2.0000     -11.342379      -308.6418
  12   2.0000     -11.341113      -308.6074
  13   2.0000     -11.340398      -308.5879
  14   2.0000     -11.338647      -308.5403
  15   2.0000     -11.337836      -308.5182
  16   2.0000     -11.336668      -308.4864
  17   2.0000     -11.332123      -308.3627
  18   2.0000     -11.329607      -308.2943
  19   2.0000     -11.320839      -308.0557
  20   2.0000     -11.320381      -308.0432
  21   2.0000     -11.315566      -307.9122
  22   2.0000      -1.540890       -41.9298
  23   2.0000      -1.330130       -36.1947
  24   2.0000      -1.269895       -34.5556
  25   2.0000      -1.259992       -34.2861
  26   2.0000      -1.222510       -33.2662
  27   2.0000      -1.199030       -32.6273
  28   2.0000      -1.164964       -31.7003
  29   2.0000      -1.132429       -30.8150
  30   2.0000      -1.124638       -30.6030
  31   2.0000      -1.112328       -30.2680
  32   2.0000      -1.096440       -29.8357
  33   2.0000      -1.069822       -29.1113
  34   2.0000      -1.020980       -27.7823
  35   2.0000      -0.985336       -26.8124
  36   2.0000      -0.967646       -26.3310
  37   2.0000      -0.952128       -25.9087
  38   2.0000      -0.936007       -25.4700
  39   2.0000      -0.916583       -24.9415
  40   2.0000      -0.903846       -24.5949
  41   2.0000      -0.891872       -24.2691
  42   2.0000      -0.871954       -23.7271
  43   2.0000      -0.856313       -23.3015
  44   2.0000      -0.829023       -22.5589
  45   2.0000      -0.808333       -21.9959
  46   2.0000      -0.799250       -21.7487
  47   2.0000      -0.780711       -21.2442
  48   2.0000      -0.760230       -20.6869
  49   2.0000      -0.759074       -20.6554
  50   2.0000      -0.750000       -20.4085
  51   2.0000      -0.745496       -20.2860
  52   2.0000      -0.740010       -20.1367
  53   2.0000      -0.730610       -19.8809
  54   2.0000      -0.712005       -19.3746
  55   2.0000      -0.705657       -19.2019
  56   2.0000      -0.697161       -18.9707
  57   2.0000      -0.690560       -18.7911
  58   2.0000      -0.680129       -18.5073
  59   2.0000      -0.677452       -18.4344
  60   2.0000      -0.665926       -18.1208
  61   2.0000      -0.655953       -17.8494
  62   2.0000      -0.649706       -17.6794
  63   2.0000      -0.641712       -17.4619
  64   2.0000      -0.636606       -17.3229
  65   2.0000      -0.625590       -17.0232
  66   2.0000      -0.621840       -16.9211
  67   2.0000      -0.614322       -16.7166
  68   2.0000      -0.612933       -16.6788
  69   2.0000      -0.605488       -16.4762
  70   2.0000      -0.599163       -16.3040
  71   2.0000      -0.595296       -16.1988
  72   2.0000      -0.591858       -16.1053
  73   2.0000      -0.584280       -15.8991
  74   2.0000      -0.572333       -15.5740
  75   2.0000      -0.565339       -15.3837
  76   2.0000      -0.554043       -15.0763
  77   2.0000      -0.527776       -14.3615
  78   2.0000      -0.502656       -13.6780
  79   2.0000      -0.449506       -12.2317
  80   2.0000      -0.408109       -11.1052
  81   0.0000      -0.065108        -1.7717
  82   0.0000      -0.058437        -1.5902
  83   0.0000      -0.050500        -1.3742
  84   0.0000      -0.045100        -1.2272
  85   0.0000      -0.042885        -1.1670

MULLIKEN ATOMIC CHARGES
-----------------------
   0 C :   -0.546111
   1 C :   -0.458226
   2 C :   -0.066940
   3 C :   -1.256174
   4 H :    0.325456
   5 H :    0.282677
   6 H :    0.232639
   7 H :    0.233117
   8 C :   -1.000635
   9 H :    0.391081
  10 H :    0.236807
  11 H :    0.570815
  12 H :    1.076627
  13 N :    0.386530
  14 N :   -0.783047
  15 C :   -0.143819
  16 C :    1.874890
  17 C :   -0.207384
  18 C :   -0.923395
  19 C :   -0.925481
  20 H :    0.047476
  21 C :   -0.508390
  22 H :    0.019800
  23 C :   -0.237387
  24 H :    0.455593
  25 H :    0.453221
  26 H :    0.682303
  27 C :   -0.046132
  28 C :   -0.210928
  29 C :   -0.293943
  30 H :    0.349851
  31 H :    0.144406
  32 C :   -0.195641
  33 H :    0.492544
  34 H :    0.279638
  35 C :   -0.723097
  36 H :    0.211446
  37 H :    0.160032
  38 C :   -0.535002
  39 H :    0.269490
  40 H :    0.438798
  41 C :   -0.495706
  42 H :    0.250030
  43 H :    0.143603
  44 C :   -0.465823
  45 H :    0.236317
  46 H :    0.220638
  47 H :   -0.101753
  48 H :    1.145580
  49 H :   -0.485071
  50 H :   -0.001328
Sum of atomic charges:    1.0000000

LOEWDIN ATOMIC CHARGES
----------------------
   0 C :    0.362538
   1 C :   -0.039204
   2 C :   -0.006107
   3 C :    0.374956
   4 H :   -0.134697
   5 H :   -0.129606
   6 H :   -0.129542
   7 H :   -0.125402
   8 C :    0.363425
   9 H :   -0.121676
  10 H :   -0.110943
  11 H :   -0.099394
  12 H :   -0.188342
  13 N :    0.237400
  14 N :    0.583193
  15 C :    0.223133
  16 C :   -0.145050
  17 C :    0.201726
  18 C :    0.207485
  19 C :    0.210158
  20 H :   -0.180529
  21 C :    0.203030
  22 H :   -0.167809
  23 C :    0.205692
  24 H :   -0.168618
  25 H :   -0.167237
  26 H :   -0.171677
  27 C :    0.224607
  28 C :    0.272386
  29 C :    0.283894
  30 H :   -0.135412
  31 H :   -0.149964
  32 C :    0.340141
  33 H :   -0.136865
  34 H :   -0.135297
  35 C :    0.325431
  36 H :   -0.128311
  37 H :   -0.131708
  38 C :    0.294958
  39 H :   -0.125385
  40 H :   -0.187565
  41 C :    0.309836
  42 H :   -0.138070
  43 H :   -0.137484
  44 C :    0.299776
  45 H :   -0.131299
  46 H :   -0.156004
  47 H :   -0.261271
  48 H :   -0.140026
  49 H :   -0.179828
  50 H :   -0.163444

  Mayer bond orders larger than 0.100000
B(  0-C ,  1-C ) :   1.0478 B(  0-C ,  2-C ) :  -0.4475 B(  0-C ,  3-C ) :   1.3974
B(  0-C ,  4-H ) :   0.9313 B(  0-C ,  5-H ) :   0.9398 B(  0-C , 12-H ) :  -0.1100
B(  1-C ,  2-C ) :  -0.1309 B(  1-C ,  3-C ) :   0.1315 B(  1-C ,  8-C ) :   1.3304
B(  1-C , 11-H ) :   0.6681 B(  1-C , 12-H ) :  -0.2032 B(  1-C , 14-N ) :   1.0678
B(  1-C , 28-C ) :  -0.1773 B(  2-C ,  3-C ) :   0.3023 B(  2-C ,  8-C ) :   0.5887
B(  2-C , 13-N ) :   1.4242 B(  2-C , 16-C ) :   0.1308 B(  2-C , 17-C ) :   0.1438
B(  2-C , 28-C ) :  -0.3646 B(  3-C ,  6-H ) :   1.0660 B(  3-C ,  7-H ) :   1.0363
B(  3-C ,  8-C ) :   0.3411 B(  3-C , 12-H ) :  -0.4540 B(  3-C , 13-N ) :  -0.1150
B(  3-C , 14-N ) :   0.1793 B(  8-C ,  9-H ) :   0.8362 B(  8-C , 10-H ) :   1.0956
B(  8-C , 12-H ) :  -0.2038 B(  8-C , 13-N ) :  -0.3864 B( 12-H , 18-C ) :   0.1529
B( 13-N , 14-N ) :   0.3764 B( 13-N , 28-C ) :   1.1658 B( 13-N , 32-C ) :  -0.2991
B( 13-N , 47-H ) :   0.1020 B( 13-N , 48-H ) :  -0.2528 B( 14-N , 28-C ) :  -0.2774
B( 14-N , 32-C ) :  -0.1268 B( 14-N , 47-H ) :   1.0726 B( 15-C , 18-C ) :   0.1927
B( 15-C , 19-C ) :  -0.1117 B( 15-C , 27-C ) :   1.2929 B( 15-C , 49-H ) :   1.9175
B( 16-C , 17-C ) :   1.0207 B( 16-C , 18-C ) :   0.8978 B( 16-C , 20-H ) :  -0.2678
B( 16-C , 22-H ) :  -0.1743 B( 16-C , 23-C ) :  -0.1551 B( 16-C , 25-H ) :  -0.1024
B( 16-C , 26-H ) :   0.1486 B( 16-C , 27-C ) :   0.2955 B( 16-C , 49-H ) :  -0.3616
B( 16-C , 50-H ) :  -0.1103 B( 17-C , 18-C ) :  -0.1303 B( 17-C , 19-C ) :   1.5118
B( 17-C , 20-H ) :   1.5157 B( 17-C , 23-C ) :   0.1910 B( 17-C , 26-H ) :  -0.1128
B( 17-C , 27-C ) :  -0.1647 B( 17-C , 50-H ) :  -0.1316 B( 18-C , 19-C ) :   0.2366
B( 18-C , 21-C ) :   1.3151 B( 18-C , 22-H ) :   1.5466 B( 18-C , 23-C ) :   0.2105
B( 18-C , 27-C ) :   0.1523 B( 18-C , 49-H ) :  -0.1140 B( 19-C , 20-H ) :  -0.1904
B( 19-C , 23-C ) :   1.2263 B( 19-C , 24-H ) :   0.8156 B( 19-C , 28-C ) :   0.1090
B( 19-C , 49-H ) :  -0.1130 B( 20-H , 27-C ) :  -0.1231 B( 21-C , 22-H ) :  -0.1294
B( 21-C , 23-C ) :   1.1665 B( 21-C , 25-H ) :   0.8433 B( 23-C , 26-H ) :   0.4120
B( 27-C , 29-C ) :   0.5485 B( 27-C , 30-H ) :  -0.1234 B( 27-C , 50-H ) :   1.5237
B( 28-C , 32-C ) :   0.3308 B( 28-C , 33-H ) :  -0.2472 B( 28-C , 35-C ) :   0.1551
B( 28-C , 48-H ) :  -0.2661 B( 29-C , 30-H ) :   0.9243 B( 29-C , 31-H ) :   1.0922
B( 29-C , 41-C ) :   0.9145 B( 32-C , 33-H ) :   0.8192 B( 32-C , 34-H ) :   1.0176
B( 32-C , 35-C ) :   1.0324 B( 32-C , 38-C ) :   0.1008 B( 33-H , 35-C ) :  -0.1073
B( 34-H , 35-C ) :   0.1332 B( 35-C , 36-H ) :   1.0562 B( 35-C , 37-H ) :   1.0391
B( 35-C , 38-C ) :   0.9743 B( 35-C , 48-H ) :  -0.1229 B( 38-C , 39-H ) :   0.9994
B( 38-C , 40-H ) :   0.8128 B( 38-C , 44-C ) :   0.7679 B( 40-H , 44-C ) :   0.1151
B( 41-C , 42-H ) :   0.9696 B( 41-C , 43-H ) :   1.0923 B( 41-C , 44-C ) :   0.9614
B( 44-C , 45-H ) :   0.9890 B( 44-C , 46-H ) :   1.0526 B( 49-H , 50-H ) :   0.1464

MP2 TOTAL ENERGY:     -886.966588973 Eh
FINAL SINGLE POINT ENERGY      -886.966588972670

DIPOLE MOMENT
-------------
                                X             Y             Z
Electronic contribution:      9.58629       7.43977      -1.15697
Nuclear contribution   :     -8.25608      -8.99746       0.90092
                        -----------------------------------------
Total Dipole Moment    :      1.33021      -1.55769      -0.25605
                        -----------------------------------------
Magnitude (a.u.)       :      2.06432
Magnitude (Debye)      :      5.24708

Rotational constants in cm-1:     0.011783     0.007438     0.005276
Rotational constants in MHz :   353.236068   222.994492   158.163755

                             ****ORCA TERMINATED NORMALLY****
TOTAL RUN TIME: 0 days 1 hours 32 minutes 51 seconds 213 msec
