                         Program Version 4.2.1 -  RELEASE  -
|  1> %pal
|  2>  nprocs 32
|  3> end
|  4> !RI-MP2 aug-cc-pVTZ aug-cc-pVTZ/C TightSCF
|  5> %maxcore 4500
|  6> *xyzfile 0 1  02_31R1.xyz
|  7>
|  8>
|  9>                          ****END OF INPUT****

CARTESIAN COORDINATES (ANGSTROEM)
---------------------------------
  C     -0.207372    1.876458   -0.791156
  C      0.039483    1.864940    0.601155
  C     -0.124108    3.052047    1.301945
  C     -0.504554    4.222575    0.655950
  C     -0.729386    4.223304   -0.713361
  C     -0.583538    3.050194   -1.437013
  H      0.057967    3.064137    2.370849
  H     -0.620987    5.137019    1.224989
  H     -1.022530    5.136157   -1.217000
  H     -0.765385    3.033181   -2.504164
  C     -0.079158    0.596969   -1.402507
  C      0.079158   -0.596969   -1.402507
  C      0.207372   -1.876458   -0.791156
  C      0.583538   -3.050194   -1.437013
  C     -0.039483   -1.864940    0.601155
  C      0.729386   -4.223304   -0.713361
  H      0.765385   -3.033181   -2.504164
  C      0.124108   -3.052047    1.301945
  C      0.504554   -4.222575    0.655950
  H      1.022530   -5.136157   -1.217000
  H     -0.057967   -3.064137    2.370849
  H      0.620987   -5.137019    1.224989
  C     -0.504554   -0.598835    1.284873
  H     -1.432785   -0.273821    0.808646
  H     -0.758528   -0.843371    2.317365
  C      0.504554    0.598835    1.284873
  H      1.432785    0.273821    0.808646
  H      0.758528    0.843371    2.317365

 Total Charge           Charge          ....    0
 Multiplicity           Mult            ....    1
 Number of Electrons    NEL             ....  108
 Basis Dimension        Dim             .... 1012

ORBITAL ENERGIES
----------------

  NO   OCC          E(Eh)            E(eV)
   0   2.0000     -11.259522      -306.3872
   1   2.0000     -11.259522      -306.3872
   2   2.0000     -11.249956      -306.1269
   3   2.0000     -11.249954      -306.1268
   4   2.0000     -11.242015      -305.9108
   5   2.0000     -11.242015      -305.9108
   6   2.0000     -11.240022      -305.8565
   7   2.0000     -11.240022      -305.8565
   8   2.0000     -11.236050      -305.7485
   9   2.0000     -11.236050      -305.7485
  10   2.0000     -11.235501      -305.7335
  11   2.0000     -11.235438      -305.7318
  12   2.0000     -11.235430      -305.7316
  13   2.0000     -11.234978      -305.7193
  14   2.0000     -11.230671      -305.6021
  15   2.0000     -11.226862      -305.4985
  16   2.0000      -1.180369       -32.1195
  17   2.0000      -1.167007       -31.7559
  18   2.0000      -1.092208       -29.7205
  19   2.0000      -1.064494       -28.9664
  20   2.0000      -1.045204       -28.4414
  21   2.0000      -1.033458       -28.1218
  22   2.0000      -0.994746       -27.0684
  23   2.0000      -0.964176       -26.2366
  24   2.0000      -0.894799       -24.3487
  25   2.0000      -0.855061       -23.2674
  26   2.0000      -0.832273       -22.6473
  27   2.0000      -0.813512       -22.1368
  28   2.0000      -0.796130       -21.6638
  29   2.0000      -0.729929       -19.8624
  30   2.0000      -0.707711       -19.2578
  31   2.0000      -0.666217       -18.1287
  32   2.0000      -0.663089       -18.0436
  33   2.0000      -0.645747       -17.5717
  34   2.0000      -0.641879       -17.4664
  35   2.0000      -0.611416       -16.6375
  36   2.0000      -0.599320       -16.3083
  37   2.0000      -0.598840       -16.2953
  38   2.0000      -0.583968       -15.8906
  39   2.0000      -0.561742       -15.2858
  40   2.0000      -0.546862       -14.8809
  41   2.0000      -0.541515       -14.7354
  42   2.0000      -0.518765       -14.1163
  43   2.0000      -0.510905       -13.9024
  44   2.0000      -0.503817       -13.7096
  45   2.0000      -0.490528       -13.3479
  46   2.0000      -0.481006       -13.0888
  47   2.0000      -0.480271       -13.0689
  48   2.0000      -0.439069       -11.9477
  49   2.0000      -0.390584       -10.6283
  50   2.0000      -0.353322        -9.6144
  51   2.0000      -0.341417        -9.2904
  52   2.0000      -0.332512        -9.0481
  53   2.0000      -0.290227        -7.8975
  54   0.0000       0.026100         0.7102
  55   0.0000       0.028034         0.7628
  56   0.0000       0.031021         0.8441
  57   0.0000       0.037511         1.0207
  58   0.0000       0.039337         1.0704

MULLIKEN ATOMIC CHARGES
-----------------------
   0 C :    1.649856
   1 C :    0.645164
   2 C :   -1.288260
   3 C :   -0.175537
   4 C :   -0.304290
   5 C :   -1.444053
   6 H :    0.051348
   7 H :    0.568869
   8 H :    0.470361
   9 H :   -0.079820
  10 C :   -0.116756
  11 C :   -0.117344
  12 C :    1.649965
  13 C :   -1.444119
  14 C :    0.645120
  15 C :   -0.304445
  16 H :   -0.079775
  17 C :   -1.288326
  18 C :   -0.175617
  19 H :    0.470331
  20 H :    0.051400
  21 H :    0.568900
  22 C :   -0.422048
  23 H :    0.219726
  24 H :    0.225838
  25 C :   -0.422022
  26 H :    0.219740
  27 H :    0.225796
Sum of atomic charges:   -0.0000000

LOEWDIN ATOMIC CHARGES
----------------------
   0 C :   -0.163496
   1 C :   -0.082901
   2 C :    0.228127
   3 C :    0.204162
   4 C :    0.198631
   5 C :    0.213816
   6 H :   -0.176940
   7 H :   -0.181089
   8 H :   -0.183294
   9 H :   -0.173707
  10 C :    0.103527
  11 C :    0.103527
  12 C :   -0.163496
  13 C :    0.213816
  14 C :   -0.082901
  15 C :    0.198631
  16 H :   -0.173707
  17 C :    0.228127
  18 C :    0.204162
  19 H :   -0.183294
  20 H :   -0.176940
  21 H :   -0.181089
  22 C :    0.321725
  23 H :   -0.151604
  24 H :   -0.156957
  25 C :    0.321725
  26 H :   -0.151604
  27 H :   -0.156957

  Mayer bond orders larger than 0.100000
B(  0-C ,  1-C ) :   0.7692 B(  0-C ,  2-C ) :   0.2606 B(  0-C ,  5-C ) :  -0.2398
B(  0-C ,  7-H ) :   0.1271 B(  0-C ,  9-H ) :  -0.2345 B(  0-C , 10-C ) :   0.5077
B(  0-C , 11-C ) :   0.1285 B(  0-C , 15-C ) :   0.1059 B(  1-C ,  5-C ) :   0.2212
B(  1-C ,  7-H ) :  -0.2117 B(  1-C ,  9-H ) :   0.2012 B(  1-C , 10-C ) :   0.4654
B(  1-C , 11-C ) :  -0.1636 B(  1-C , 22-C ) :   0.2255 B(  1-C , 25-C ) :   0.4081
B(  2-C ,  3-C ) :   1.0932 B(  2-C ,  5-C ) :   0.1312 B(  2-C ,  6-H ) :   1.5233
B(  2-C ,  7-H ) :  -0.2387 B(  2-C ,  8-H ) :   0.1033 B(  2-C , 25-C ) :   0.1684
B(  3-C ,  4-C ) :   0.9173 B(  3-C ,  5-C ) :  -0.2733 B(  3-C ,  7-H ) :   0.6903
B(  3-C , 10-C ) :   0.1811 B(  3-C , 11-C ) :   0.1617 B(  4-C ,  5-C ) :   1.1441
B(  4-C ,  8-H ) :   0.8267 B(  4-C ,  9-H ) :  -0.1975 B(  4-C , 12-C ) :   0.1060
B(  5-C ,  9-H ) :   2.0027 B(  5-C , 10-C ) :   0.2465 B(  5-C , 11-C ) :   0.1692
B(  6-H , 10-C ) :   0.1967 B(  6-H , 11-C ) :  -0.4832 B(  7-H , 11-C ) :   0.2551
B(  8-H , 11-C ) :  -0.2836 B(  9-H , 10-C ) :  -0.3755 B( 10-C , 11-C ) :   2.6469
B( 10-C , 12-C ) :   0.1287 B( 10-C , 13-C ) :   0.1691 B( 10-C , 14-C ) :  -0.1637
B( 10-C , 18-C ) :   0.1619 B( 10-C , 19-H ) :  -0.2834 B( 10-C , 20-H ) :  -0.4833
B( 10-C , 21-H ) :   0.2555 B( 10-C , 25-C ) :  -0.1526 B( 11-C , 12-C ) :   0.5076
B( 11-C , 13-C ) :   0.2467 B( 11-C , 14-C ) :   0.4656 B( 11-C , 16-H ) :  -0.3753
B( 11-C , 18-C ) :   0.1809 B( 11-C , 20-H ) :   0.1969 B( 11-C , 22-C ) :  -0.1524
B( 12-C , 13-C ) :  -0.2404 B( 12-C , 14-C ) :   0.7688 B( 12-C , 16-H ) :  -0.2347
B( 12-C , 17-C ) :   0.2608 B( 12-C , 21-H ) :   0.1270 B( 13-C , 14-C ) :   0.2213
B( 13-C , 15-C ) :   1.1439 B( 13-C , 16-H ) :   2.0028 B( 13-C , 17-C ) :   0.1312
B( 13-C , 18-C ) :  -0.2731 B( 14-C , 16-H ) :   0.2014 B( 14-C , 21-H ) :  -0.2117
B( 14-C , 22-C ) :   0.4080 B( 14-C , 25-C ) :   0.2255 B( 15-C , 16-H ) :  -0.1975
B( 15-C , 18-C ) :   0.9175 B( 15-C , 19-H ) :   0.8266 B( 17-C , 18-C ) :   1.0931
B( 17-C , 19-H ) :   0.1032 B( 17-C , 20-H ) :   1.5231 B( 17-C , 21-H ) :  -0.2387
B( 17-C , 22-C ) :   0.1684 B( 18-C , 21-H ) :   0.6902 B( 22-C , 23-H ) :   1.0270
B( 22-C , 24-H ) :   0.9898 B( 22-C , 25-C ) :   0.8989 B( 25-C , 26-H ) :   1.0269
B( 25-C , 27-H ) :   0.9898

MP2 TOTAL ENERGY:     -615.570988925 Eh
FINAL SINGLE POINT ENERGY      -615.570988925037

DIPOLE MOMENT
-------------
                                X             Y             Z
Electronic contribution:      0.00000      -0.00000      -5.33396
Nuclear contribution   :      0.00000      -0.00000       5.95906
                        -----------------------------------------
Total Dipole Moment    :      0.00000      -0.00000       0.62510
                        -----------------------------------------
Magnitude (a.u.)       :      0.62510
Magnitude (Debye)      :      1.58888

Rotational constants in cm-1:     0.059066     0.010041     0.008760
Rotational constants in MHz :  1770.748849   301.010933   262.607050

                             ****ORCA TERMINATED NORMALLY****
TOTAL RUN TIME: 0 days 0 hours 21 minutes 51 seconds 826 msec
