                         Program Version 4.2.1 -  RELEASE  -
|  1> %pal
|  2>  nprocs 32
|  3> end
|  4> !RI-MP2 aug-cc-pVTZ aug-cc-pVTZ/C TightSCF
|  5> %maxcore 4500
|  6> *xyzfile 0 1  10_72TS.xyz
|  7>
|  8>
|  9>                          ****END OF INPUT****

CARTESIAN COORDINATES (ANGSTROEM)
---------------------------------
  C     -3.356468   -1.233100   -0.988054
  C     -4.693918   -1.459460   -0.285765
  C     -5.238066   -0.264771    0.480156
  C     -4.269707    0.290420    1.518497
  C     -2.962064    0.758270    0.932658
  C     -2.208872   -0.960346   -0.016808
  H     -5.434553   -1.758296   -1.031180
  H     -4.582177   -2.295371    0.410680
  H     -3.111806   -2.169165   -1.501198
  H     -4.756339    1.132312    2.027530
  H     -4.098239   -0.467021    2.290161
  H     -3.052270    1.213168   -0.045269
  H     -2.246001   -1.577886    0.876250
  H     -6.162569   -0.567445    0.984088
  O     -5.557285    0.731671   -0.504555
  H     -5.903125    1.519495   -0.075782
  O     -3.430013   -0.250534   -2.008792
  H     -4.152167    0.354776   -1.796358
  C     -0.946366   -0.724444   -0.552683
  H     -0.901303   -0.406166   -1.588035
  C     -1.953801    1.248281    1.756898
  H     -2.020223    1.070094    2.826602
  C      0.289698   -1.086264    0.074237
  C      0.256168   -1.616593    1.486016
  H     -0.156941   -2.629941    1.515243
  H     -0.371451   -0.991324    2.121592
  H      1.247502   -1.650322    1.934617
  C      1.447532   -0.969518   -0.629455
  C      1.869055    1.604682   -0.139664
  C      2.807877   -1.501229   -0.252757
  H      1.364309   -0.610358   -1.649893
  H      1.843015    1.222365    0.867199
  C      3.715837   -0.451505    0.425703
  H      2.678230   -2.287538    0.496925
  H      3.191460   -0.054372    1.299028
  C     -0.767604    1.758132    1.244341
  H      0.054229    1.920851    1.934994
  C      3.469176   -2.117801   -1.488837
  H      2.790934   -2.830060   -1.961662
  H      3.714553   -1.344410   -2.219104
  H      4.387526   -2.648110   -1.235505
  C      5.049293   -1.006633    0.899885
  H      4.854365   -1.920136    1.470495
  H      5.643508   -1.290657    0.029362
  C      5.825786   -0.009091    1.750544
  H      5.263735    0.268413    2.646830
  H      6.780055   -0.429005    2.073668
  H      6.030032    0.900479    1.184506
  O      4.040940    0.621723   -0.469559
  C      3.133521    1.545989   -0.881472
  O      3.405408    2.232307   -1.831595
  C      0.741260    2.092892   -0.704186
  H      0.799635    2.432297   -1.733063
  C     -0.537991    1.959652   -0.107147
  H     -1.388400    2.066629   -0.769358

 Total Charge           Charge          ....    0
 Multiplicity           Mult            ....    1
 Number of Electrons    NEL             ....  188
 Basis Dimension        Dim             .... 1840

ORBITAL ENERGIES
----------------

  NO   OCC          E(Eh)            E(eV)
   0   2.0000     -20.585693      -560.1652
   1   2.0000     -20.580746      -560.0306
   2   2.0000     -20.548288      -559.1474
   3   2.0000     -20.515198      -558.2469
   4   2.0000     -11.361557      -309.1637
   5   2.0000     -11.304917      -307.6224
   6   2.0000     -11.293578      -307.3139
   7   2.0000     -11.290857      -307.2398
   8   2.0000     -11.261393      -306.4381
   9   2.0000     -11.249726      -306.1206
  10   2.0000     -11.241753      -305.9036
  11   2.0000     -11.241594      -305.8993
  12   2.0000     -11.240178      -305.8608
  13   2.0000     -11.239759      -305.8494
  14   2.0000     -11.238814      -305.8237
  15   2.0000     -11.237580      -305.7901
  16   2.0000     -11.237553      -305.7894
  17   2.0000     -11.235582      -305.7357
  18   2.0000     -11.234223      -305.6987
  19   2.0000     -11.229527      -305.5710
  20   2.0000     -11.227733      -305.5222
  21   2.0000     -11.225255      -305.4547
  22   2.0000     -11.223599      -305.4097
  23   2.0000     -11.214656      -305.1663
  24   2.0000     -11.212652      -305.1118
  25   2.0000      -1.436930       -39.1009
  26   2.0000      -1.393099       -37.9082
  27   2.0000      -1.357670       -36.9441
  28   2.0000      -1.341183       -36.4955
  29   2.0000      -1.141882       -31.0722
  30   2.0000      -1.122063       -30.5329
  31   2.0000      -1.105383       -30.0790
  32   2.0000      -1.089479       -29.6462
  33   2.0000      -1.066177       -29.0121
  34   2.0000      -1.047536       -28.5049
  35   2.0000      -1.022320       -27.8188
  36   2.0000      -1.004636       -27.3375
  37   2.0000      -0.961061       -26.1518
  38   2.0000      -0.944652       -25.7053
  39   2.0000      -0.934747       -25.4357
  40   2.0000      -0.908200       -24.7134
  41   2.0000      -0.879827       -23.9413
  42   2.0000      -0.849067       -23.1043
  43   2.0000      -0.827400       -22.5147
  44   2.0000      -0.814905       -22.1747
  45   2.0000      -0.795841       -21.6559
  46   2.0000      -0.782278       -21.2869
  47   2.0000      -0.747444       -20.3390
  48   2.0000      -0.735717       -20.0199
  49   2.0000      -0.722868       -19.6702
  50   2.0000      -0.714134       -19.4326
  51   2.0000      -0.704255       -19.1638
  52   2.0000      -0.679270       -18.4839
  53   2.0000      -0.674113       -18.3435
  54   2.0000      -0.661050       -17.9881
  55   2.0000      -0.652338       -17.7510
  56   2.0000      -0.647556       -17.6209
  57   2.0000      -0.641792       -17.4641
  58   2.0000      -0.630818       -17.1654
  59   2.0000      -0.621704       -16.9174
  60   2.0000      -0.612405       -16.6644
  61   2.0000      -0.607753       -16.5378
  62   2.0000      -0.599494       -16.3131
  63   2.0000      -0.592725       -16.1289
  64   2.0000      -0.584428       -15.9031
  65   2.0000      -0.582311       -15.8455
  66   2.0000      -0.575274       -15.6540
  67   2.0000      -0.572361       -15.5747
  68   2.0000      -0.565122       -15.3778
  69   2.0000      -0.549821       -14.9614
  70   2.0000      -0.548422       -14.9233
  71   2.0000      -0.537686       -14.6312
  72   2.0000      -0.535357       -14.5678
  73   2.0000      -0.533418       -14.5150
  74   2.0000      -0.525681       -14.3045
  75   2.0000      -0.518893       -14.1198
  76   2.0000      -0.513592       -13.9756
  77   2.0000      -0.509985       -13.8774
  78   2.0000      -0.504579       -13.7303
  79   2.0000      -0.498936       -13.5767
  80   2.0000      -0.495103       -13.4724
  81   2.0000      -0.489376       -13.3166
  82   2.0000      -0.487849       -13.2751
  83   2.0000      -0.475370       -12.9355
  84   2.0000      -0.473863       -12.8945
  85   2.0000      -0.464350       -12.6356
  86   2.0000      -0.452098       -12.3022
  87   2.0000      -0.440400       -11.9839
  88   2.0000      -0.437538       -11.9060
  89   2.0000      -0.425692       -11.5837
  90   2.0000      -0.403520       -10.9803
  91   2.0000      -0.379655       -10.3309
  92   2.0000      -0.293536        -7.9875
  93   2.0000      -0.254146        -6.9157
  94   0.0000       0.014001         0.3810
  95   0.0000       0.021278         0.5790
  96   0.0000       0.025411         0.6915
  97   0.0000       0.029217         0.7950
  98   0.0000       0.034179         0.9301

MULLIKEN ATOMIC CHARGES
-----------------------
   0 C :    0.359209
   1 C :   -0.875362
   2 C :    0.252828
   3 C :   -0.977661
   4 C :    1.374238
   5 C :    0.740671
   6 H :    0.273027
   7 H :    0.103363
   8 H :    0.476470
   9 H :    0.364928
  10 H :    0.089713
  11 H :    0.726557
  12 H :    0.059177
  13 H :    0.420711
  14 O :   -0.704891
  15 H :    0.077772
  16 O :   -1.047692
  17 H :    0.314189
  18 C :   -0.880246
  19 H :   -0.573727
  20 C :   -1.682546
  21 H :    0.009685
  22 C :    2.349490
  23 C :   -1.101089
  24 H :    0.176725
  25 H :    0.319502
  26 H :    0.228522
  27 C :   -0.827222
  28 C :    0.499983
  29 C :    0.404591
  30 H :   -0.287130
  31 H :    0.470699
  32 C :    1.390500
  33 H :   -0.043368
  34 H :    0.256988
  35 C :    0.192075
  36 H :    0.152557
  37 C :   -1.316019
  38 H :    0.256192
  39 H :    0.320801
  40 H :    0.225791
  41 C :   -0.897042
  42 H :    0.233625
  43 H :    0.229385
  44 C :   -1.102649
  45 H :    0.241067
  46 H :    0.312628
  47 H :    0.296244
  48 O :   -0.814429
  49 C :    0.857633
  50 O :   -1.242139
  51 C :   -1.060494
  52 H :   -0.021840
  53 C :    0.259985
  54 H :    0.138019
Sum of atomic charges:    0.0000000

LOEWDIN ATOMIC CHARGES
----------------------
   0 C :   -0.241560
   1 C :    0.313652
   2 C :   -0.210722
   3 C :    0.301082
   4 C :    0.138257
   5 C :    0.163751
   6 H :   -0.132694
   7 H :   -0.133393
   8 H :   -0.136138
   9 H :   -0.133330
  10 H :   -0.131470
  11 H :   -0.215181
  12 H :   -0.177620
  13 H :   -0.124340
  14 O :    0.878914
  15 H :   -0.450780
  16 O :    0.872880
  17 H :   -0.611645
  18 C :    0.226595
  19 H :   -0.163720
  20 C :    0.201282
  21 H :   -0.171590
  22 C :   -0.089263
  23 C :    0.593581
  24 H :   -0.145630
  25 H :   -0.181983
  26 H :   -0.179334
  27 C :    0.234504
  28 C :    0.167147
  29 C :   -0.006423
  30 H :   -0.166361
  31 H :   -0.236198
  32 C :   -0.227510
  33 H :   -0.155104
  34 H :   -0.168312
  35 C :    0.188231
  36 H :   -0.172433
  37 C :    0.605125
  38 H :   -0.155145
  39 H :   -0.153112
  40 H :   -0.168306
  41 C :    0.272790
  42 H :   -0.134727
  43 H :   -0.151731
  44 C :    0.593802
  45 H :   -0.166273
  46 H :   -0.167930
  47 H :   -0.169852
  48 O :    0.616625
  49 C :   -0.826755
  50 O :    0.442104
  51 C :    0.202789
  52 H :   -0.165259
  53 C :    0.197247
  54 H :   -0.188534

  Mayer bond orders larger than 0.100000
B(  0-C ,  1-C ) :   1.0531 B(  0-C ,  2-C ) :   0.1471 B(  0-C ,  4-C ) :   0.2333
B(  0-C ,  5-C ) :   0.6470 B(  0-C ,  8-H ) :   0.8605 B(  0-C , 16-O ) :   0.2210
B(  0-C , 18-C ) :   0.1055 B(  1-C ,  2-C ) :   0.8400 B(  1-C ,  3-C ) :   0.1364
B(  1-C ,  5-C ) :  -0.2265 B(  1-C ,  6-H ) :   0.9566 B(  1-C ,  7-H ) :   1.2701
B(  1-C ,  8-H ) :  -0.1202 B(  1-C , 14-O ) :   0.1597 B(  1-C , 16-O ) :   0.2256
B(  2-C ,  3-C ) :   1.0229 B(  2-C , 13-H ) :   0.9070 B(  2-C , 14-O ) :   0.5543
B(  3-C ,  4-C ) :   0.3383 B(  3-C ,  9-H ) :   0.9116 B(  3-C , 10-H ) :   1.3941
B(  4-C ,  5-C ) :   0.1253 B(  4-C , 10-H ) :  -0.2159 B(  4-C , 11-H ) :   0.5874
B(  4-C , 16-O ) :   0.1620 B(  4-C , 20-C ) :   0.2662 B(  4-C , 21-H ) :  -0.2602
B(  4-C , 35-C ) :   0.2755 B(  5-C ,  8-H ) :   0.1107 B(  5-C , 11-H ) :   0.1335
B(  5-C , 12-H ) :   1.0316 B(  5-C , 18-C ) :   0.6493 B(  5-C , 19-H ) :  -0.3574
B(  5-C , 20-C ) :  -0.1102 B(  5-C , 22-C ) :   0.1658 B(  5-C , 23-C ) :  -0.1449
B(  5-C , 27-C ) :   0.5660 B(  5-C , 28-C ) :   0.1283 B(  5-C , 30-H ) :   0.1256
B(  8-H , 16-O ) :  -0.1477 B(  8-H , 19-H ) :  -0.1488 B( 11-H , 14-O ) :  -0.1016
B( 11-H , 16-O ) :  -0.1250 B( 11-H , 22-C ) :  -0.1087 B( 12-H , 19-H ) :   0.1967
B( 12-H , 22-C ) :  -0.1455 B( 14-O , 15-H ) :   1.0496 B( 16-O , 17-H ) :   0.8853
B( 18-C , 19-H ) :   2.5899 B( 18-C , 20-C ) :   0.2113 B( 18-C , 22-C ) :  -0.1206
B( 18-C , 27-C ) :   1.0311 B( 18-C , 30-H ) :  -0.4937 B( 18-C , 53-C ) :   0.1332
B( 18-C , 54-H ) :  -0.1002 B( 19-H , 22-C ) :  -0.5530 B( 19-H , 27-C ) :  -0.4022
B( 19-H , 30-H ) :  -0.1565 B( 20-C , 21-H ) :   1.4820 B( 20-C , 22-C ) :   0.1847
B( 20-C , 35-C ) :   0.6489 B( 20-C , 36-H ) :  -0.2784 B( 20-C , 51-C ) :   0.1491
B( 20-C , 54-H ) :   0.1389 B( 21-H , 35-C ) :  -0.2265 B( 22-C , 23-C ) :   0.4283
B( 22-C , 24-H ) :  -0.1907 B( 22-C , 27-C ) :   0.9007 B( 22-C , 29-C ) :   0.1060
B( 22-C , 30-H ) :  -0.6214 B( 22-C , 35-C ) :  -0.2159 B( 22-C , 36-H ) :  -0.1195
B( 22-C , 49-C ) :   0.1198 B( 22-C , 54-H ) :   0.1481 B( 23-C , 24-H ) :   1.2452
B( 23-C , 25-H ) :   1.0202 B( 23-C , 26-H ) :   1.0467 B( 23-C , 27-C ) :  -0.1175
B( 25-H , 27-C ) :  -0.1221 B( 27-C , 29-C ) :   0.8675 B( 27-C , 30-H ) :   2.1083
B( 27-C , 37-C ) :  -0.1881 B( 27-C , 38-H ) :  -0.1178 B( 27-C , 50-O ) :   0.1734
B( 27-C , 51-C ) :   0.1276 B( 27-C , 54-H ) :  -0.1249 B( 28-C , 29-C ) :  -0.1016
B( 28-C , 31-H ) :   0.9976 B( 28-C , 34-H ) :  -0.1052 B( 28-C , 49-C ) :   0.5943
B( 28-C , 50-O ) :  -0.2722 B( 28-C , 51-C ) :   0.8707 B( 28-C , 52-H ) :  -0.2722
B( 28-C , 53-C ) :   0.1472 B( 29-C , 30-H ) :  -0.1557 B( 29-C , 31-H ) :  -0.1084
B( 29-C , 32-C ) :   1.1482 B( 29-C , 33-H ) :   1.0095 B( 29-C , 37-C ) :   0.4477
B( 29-C , 48-O ) :   0.3795 B( 30-H , 31-H ) :   0.1255 B( 30-H , 37-C ) :   0.1018
B( 31-H , 49-C ) :  -0.1432 B( 31-H , 51-C ) :  -0.1399 B( 32-C , 34-H ) :   0.9541
B( 32-C , 37-C ) :   0.1177 B( 32-C , 41-C ) :   0.3826 B( 32-C , 43-H ) :  -0.1535
B( 32-C , 48-O ) :  -0.4247 B( 32-C , 49-C ) :  -0.1141 B( 35-C , 36-H ) :   1.1816
B( 35-C , 53-C ) :   1.1488 B( 37-C , 38-H ) :   1.0690 B( 37-C , 39-H ) :   1.0228
B( 37-C , 40-H ) :   1.0934 B( 41-C , 42-H ) :   1.0737 B( 41-C , 43-H ) :   1.1320
B( 41-C , 44-C ) :   0.7981 B( 44-C , 45-H ) :   1.0142 B( 44-C , 46-H ) :   0.9720
B( 44-C , 47-H ) :   0.9769 B( 48-O , 49-C ) :   1.1819 B( 48-O , 50-O ) :  -0.1067
B( 49-C , 50-O ) :   0.4284 B( 49-C , 51-C ) :  -0.1835 B( 50-O , 51-C ) :   0.1632
B( 50-O , 52-H ) :   0.2793 B( 51-C , 52-H ) :   1.3986 B( 51-C , 53-C ) :   0.4683
B( 51-C , 54-H ) :  -0.4346 B( 53-C , 54-H ) :   1.2164

MP2 TOTAL ENERGY:    -1116.962473668 Eh
FINAL SINGLE POINT ENERGY     -1116.962473668450

DIPOLE MOMENT
-------------
                                X             Y             Z
Electronic contribution:     -4.54344      12.41393      -9.16490
Nuclear contribution   :      2.32476     -14.03694      11.52322
                        -----------------------------------------
Total Dipole Moment    :     -2.21868      -1.62302       2.35831
                        -----------------------------------------
Magnitude (a.u.)       :      3.62193
Magnitude (Debye)      :      9.20620

Rotational constants in cm-1:     0.016082     0.003741     0.003605
Rotational constants in MHz :   482.119139   112.160147   108.064591

                             ****ORCA TERMINATED NORMALLY****
TOTAL RUN TIME: 0 days 2 hours 38 minutes 46 seconds 879 msec
