                         Program Version 4.2.1 -  RELEASE  -
|  1> %pal
|  2>  nprocs 32
|  3> end
|  4> !RI-MP2 aug-cc-pVTZ aug-cc-pVTZ/C TightSCF
|  5> %maxcore 4500
|  6> *xyzfile 1 1  10_25P.xyz
|  7>
|  8>
|  9>                          ****END OF INPUT****

CARTESIAN COORDINATES (ANGSTROEM)
---------------------------------
  C     -1.431821   -2.634842   -0.713814
  C     -0.551962   -1.641592    0.050978
  C     -2.598092   -0.944416    0.535394
  C     -2.869157   -2.149988   -0.370506
  H     -1.217805   -2.640544   -1.784816
  H     -1.237112   -3.642295   -0.347735
  H     -3.445143   -1.860441   -1.247547
  H     -3.431058   -2.913562    0.166455
  C     -1.354420   -1.379313    1.318782
  H     -0.940788   -0.611251    1.969907
  H     -1.501871   -2.294177    1.890609
  H      0.504511   -1.873638    0.126942
  H     -3.455302   -0.584471    1.096322
  N     -2.086413    0.153958   -0.324919
  N     -0.728358   -0.312931   -0.679949
  C      0.275475    0.846210   -0.430003
  C      1.666729    0.345786   -0.170508
  C      2.521610    0.167303   -1.256181
  C      2.122750    0.035021    1.109182
  C      3.805428   -0.324577   -1.071909
  H      2.188735    0.429735   -2.255068
  C      3.406082   -0.455667    1.294146
  H      1.486821    0.177208    1.973558
  C      4.247843   -0.638846    0.204739
  H      4.462217   -0.451287   -1.923084
  H      3.753339   -0.688411    2.292852
  H      5.251681   -1.016244    0.353437
  C     -1.910331    1.445784    0.349647
  H     -2.541259    1.479048    1.236245
  C     -0.415726    1.724366    0.603742
  H     -0.025953    1.580259    1.607962
  C     -1.987344    2.731800   -0.500990
  C     -0.638277    3.176388    0.119987
  H      0.116627    3.594489   -0.544905
  H     -0.774536    3.856102    0.959403
  H     -2.849125    3.374959   -0.335991
  H     -1.920502    2.513033   -1.567251
  H      0.272581    1.367044   -1.388296
  H     -0.725385   -0.503253   -1.681033

 Total Charge           Charge          ....    1
 Multiplicity           Mult            ....    1
 Number of Electrons    NEL             ....  130
 Basis Dimension        Dim             .... 1311

ORBITAL ENERGIES
----------------

  NO   OCC          E(Eh)            E(eV)
   0   2.0000     -15.843852      -431.1331
   1   2.0000     -15.752443      -428.6458
   2   2.0000     -11.440429      -311.3099
   3   2.0000     -11.430521      -311.0403
   4   2.0000     -11.408568      -310.4429
   5   2.0000     -11.401519      -310.2511
   6   2.0000     -11.374695      -309.5212
   7   2.0000     -11.374153      -309.5064
   8   2.0000     -11.374133      -309.5059
   9   2.0000     -11.370867      -309.4170
  10   2.0000     -11.362158      -309.1800
  11   2.0000     -11.361802      -309.1704
  12   2.0000     -11.357268      -309.0470
  13   2.0000     -11.353826      -308.9533
  14   2.0000     -11.352921      -308.9287
  15   2.0000     -11.351817      -308.8986
  16   2.0000     -11.351687      -308.8951
  17   2.0000     -11.348710      -308.8141
  18   2.0000      -1.526220       -41.5306
  19   2.0000      -1.314112       -35.7588
  20   2.0000      -1.311659       -35.6920
  21   2.0000      -1.278919       -34.8011
  22   2.0000      -1.243899       -33.8482
  23   2.0000      -1.176463       -32.0132
  24   2.0000      -1.142743       -31.0956
  25   2.0000      -1.124192       -30.5908
  26   2.0000      -1.106048       -30.0971
  27   2.0000      -1.077142       -29.3105
  28   2.0000      -1.023395       -27.8480
  29   2.0000      -0.992469       -27.0065
  30   2.0000      -0.968570       -26.3561
  31   2.0000      -0.954784       -25.9810
  32   2.0000      -0.933206       -25.3938
  33   2.0000      -0.924007       -25.1435
  34   2.0000      -0.901363       -24.5273
  35   2.0000      -0.865479       -23.5509
  36   2.0000      -0.845921       -23.0187
  37   2.0000      -0.839175       -22.8351
  38   2.0000      -0.805876       -21.9290
  39   2.0000      -0.794033       -21.6067
  40   2.0000      -0.772774       -21.0283
  41   2.0000      -0.764741       -20.8097
  42   2.0000      -0.750702       -20.4276
  43   2.0000      -0.734872       -19.9969
  44   2.0000      -0.725132       -19.7318
  45   2.0000      -0.718687       -19.5565
  46   2.0000      -0.710946       -19.3458
  47   2.0000      -0.697939       -18.9919
  48   2.0000      -0.685575       -18.6554
  49   2.0000      -0.674817       -18.3627
  50   2.0000      -0.668519       -18.1913
  51   2.0000      -0.660150       -17.9636
  52   2.0000      -0.652181       -17.7467
  53   2.0000      -0.630905       -17.1678
  54   2.0000      -0.626120       -17.0376
  55   2.0000      -0.620979       -16.8977
  56   2.0000      -0.618287       -16.8245
  57   2.0000      -0.616169       -16.7668
  58   2.0000      -0.612460       -16.6659
  59   2.0000      -0.598546       -16.2873
  60   2.0000      -0.580844       -15.8056
  61   2.0000      -0.573279       -15.5997
  62   2.0000      -0.532380       -14.4868
  63   2.0000      -0.462069       -12.5735
  64   2.0000      -0.461347       -12.5539
  65   0.0000      -0.067473        -1.8360
  66   0.0000      -0.060250        -1.6395
  67   0.0000      -0.051902        -1.4123
  68   0.0000      -0.049449        -1.3456
  69   0.0000      -0.039574        -1.0769

MULLIKEN ATOMIC CHARGES
-----------------------
   0 C :   -1.084406
   1 C :   -0.078676
   2 C :   -0.303162
   3 C :   -0.720651
   4 H :    0.279378
   5 H :    0.247836
   6 H :    0.318229
   7 H :    0.278277
   8 C :   -0.660314
   9 H :    0.089323
  10 H :    0.505753
  11 H :    0.792793
  12 H :    0.608121
  13 N :   -0.945107
  14 N :    0.684478
  15 C :    0.767068
  16 C :    1.890350
  17 C :   -1.137228
  18 C :   -0.157451
  19 C :   -0.655643
  20 H :   -0.106482
  21 C :   -1.009281
  22 H :    0.033719
  23 C :   -0.193130
  24 H :    0.591276
  25 H :    0.344774
  26 H :    0.665500
  27 C :    0.408901
  28 H :    0.577533
  29 C :   -0.250796
  30 H :    0.197847
  31 C :   -0.951513
  32 C :   -0.984312
  33 H :    0.343750
  34 H :    0.201633
  35 H :    0.391505
  36 H :    0.146336
  37 H :    0.090599
  38 H :   -0.216828
Sum of atomic charges:    1.0000000

LOEWDIN ATOMIC CHARGES
----------------------
   0 C :    0.377417
   1 C :    0.041930
   2 C :   -0.055571
   3 C :    0.370845
   4 H :   -0.126931
   5 H :   -0.121266
   6 H :   -0.131130
   7 H :   -0.126457
   8 C :    0.381323
   9 H :   -0.137340
  10 H :   -0.104367
  11 H :   -0.118736
  12 H :   -0.104193
  13 N :    0.385631
  14 N :    0.487357
  15 C :    0.046358
  16 C :   -0.089115
  17 C :    0.236618
  18 C :    0.224678
  19 C :    0.231795
  20 H :   -0.163671
  21 C :    0.235414
  22 H :   -0.181573
  23 C :    0.229706
  24 H :   -0.168114
  25 H :   -0.167687
  26 H :   -0.166190
  27 C :   -0.043573
  28 H :   -0.108549
  29 C :    0.084252
  30 H :   -0.138196
  31 C :    0.391341
  32 C :    0.388108
  33 H :   -0.130350
  34 H :   -0.131094
  35 H :   -0.130773
  36 H :   -0.138190
  37 H :   -0.134570
  38 H :   -0.195134

  Mayer bond orders larger than 0.100000
B(  0-C ,  1-C ) :   0.7528 B(  0-C ,  3-C ) :   1.2103 B(  0-C ,  4-H ) :   0.9932
B(  0-C ,  5-H ) :   1.0740 B(  0-C ,  8-C ) :   0.1180 B(  0-C , 11-H ) :  -0.2740
B(  0-C , 14-N ) :  -0.1335 B(  1-C ,  3-C ) :  -0.1385 B(  1-C ,  8-C ) :   0.9062
B(  1-C , 11-H ) :   0.4154 B(  1-C , 13-N ) :  -0.1238 B(  1-C , 14-N ) :   1.0418
B(  2-C ,  3-C ) :   1.0347 B(  2-C ,  8-C ) :   1.0505 B(  2-C , 12-H ) :   0.6382
B(  2-C , 13-N ) :   1.0681 B(  3-C ,  6-H ) :   0.9422 B(  3-C ,  7-H ) :   0.9910
B(  8-C ,  9-H ) :   1.1633 B(  8-C , 10-H ) :   0.7332 B( 11-H , 18-C ) :  -0.1031
B( 12-H , 13-N ) :  -0.1399 B( 13-N , 14-N ) :   0.3834 B( 13-N , 15-C ) :  -0.1823
B( 13-N , 27-C ) :   0.6685 B( 13-N , 29-C ) :   0.1190 B( 13-N , 31-C ) :   0.1140
B( 14-N , 15-C ) :   0.8468 B( 14-N , 16-C ) :   0.2289 B( 14-N , 31-C ) :   0.1002
B( 14-N , 37-H ) :   0.1473 B( 14-N , 38-H ) :   1.0133 B( 15-C , 17-C ) :   0.5381
B( 15-C , 18-C ) :   0.3414 B( 15-C , 19-C ) :   0.1204 B( 15-C , 20-H ) :  -0.1845
B( 15-C , 21-C ) :   0.1704 B( 15-C , 27-C ) :   0.1464 B( 15-C , 29-C ) :   0.8014
B( 15-C , 31-C ) :  -0.1853 B( 15-C , 37-H ) :   1.2537 B( 16-C , 17-C ) :  -0.4095
B( 16-C , 18-C ) :   0.5777 B( 16-C , 20-H ) :  -0.3058 B( 16-C , 22-H ) :  -0.2367
B( 16-C , 29-C ) :   0.2312 B( 16-C , 37-H ) :  -0.2611 B( 17-C , 18-C ) :  -0.3979
B( 17-C , 19-C ) :   1.2827 B( 17-C , 20-H ) :   1.7534 B( 17-C , 21-C ) :   0.1066
B( 17-C , 22-H ) :   0.1923 B( 17-C , 24-H ) :  -0.1154 B( 18-C , 20-H ) :   0.1482
B( 18-C , 21-C ) :   1.2002 B( 18-C , 22-H ) :   1.5529 B( 18-C , 23-C ) :   0.1279
B( 18-C , 26-H ) :  -0.1546 B( 18-C , 29-C ) :  -0.1625 B( 19-C , 22-H ) :  -0.1560
B( 19-C , 23-C ) :   1.1724 B( 19-C , 24-H ) :   0.5714 B( 19-C , 26-H ) :  -0.1556
B( 20-H , 22-H ) :   0.1197 B( 21-C , 22-H ) :  -0.1883 B( 21-C , 23-C ) :   1.1751
B( 21-C , 25-H ) :   0.9948 B( 21-C , 26-H ) :  -0.1089 B( 23-C , 26-H ) :   0.4484
B( 27-C , 28-H ) :   0.7080 B( 27-C , 29-C ) :   0.8394 B( 27-C , 31-C ) :   0.7195
B( 27-C , 32-C ) :  -0.2615 B( 29-C , 30-H ) :   1.0260 B( 29-C , 32-C ) :   0.7058
B( 30-H , 31-C ) :  -0.1830 B( 31-C , 32-C ) :   1.4140 B( 31-C , 35-H ) :   0.8141
B( 31-C , 36-H ) :   1.1503 B( 32-C , 33-H ) :   0.9519 B( 32-C , 34-H ) :   1.0628
B( 32-C , 36-H ) :   0.1085 B( 32-C , 37-H ) :  -0.1421

MP2 TOTAL ENERGY:     -730.061842078 Eh
FINAL SINGLE POINT ENERGY      -730.061842078415

DIPOLE MOMENT
-------------
                                X             Y             Z
Electronic contribution:      5.48304       0.15356      -0.65848
Nuclear contribution   :     -6.16282      -0.72234       0.60352
                        -----------------------------------------
Total Dipole Moment    :     -0.67978      -0.56878      -0.05496
                        -----------------------------------------
Magnitude (a.u.)       :      0.88805
Magnitude (Debye)      :      2.25723

Rotational constants in cm-1:     0.022229     0.012153     0.009280
Rotational constants in MHz :   666.401733   364.341907   278.210985

                             ****ORCA TERMINATED NORMALLY****
TOTAL RUN TIME: 0 days 0 hours 48 minutes 40 seconds 54 msec
