                         Program Version 4.2.1 -  RELEASE  -
|  1> %pal
|  2>  nprocs 32
|  3> end
|  4> !RI-MP2 aug-cc-pVTZ aug-cc-pVTZ/C TightSCF
|  5> %maxcore 4500
|  6> *xyzfile 0 2  04_66R2.xyz
|  7>
|  8>
|  9>                          ****END OF INPUT****

CARTESIAN COORDINATES (ANGSTROEM)
---------------------------------
  H      0.532463    2.355213    0.064210
  C     -0.009420    1.526139   -0.396054
  N      0.955459    0.468847   -0.723858
  H     -0.434791    1.888660   -1.332169
  C     -1.107797    0.960972    0.550500
  C      1.488298   -0.085156    0.536506
  C      0.307682   -0.589544   -1.410110
  H     -1.018849    1.370471    1.559351
  H     -2.108844    1.200392    0.185261
  N     -0.967547   -0.493069    0.634307
  H      2.296731   -0.781301    0.305234
  H      1.911118    0.735287    1.122497
  C      0.315044   -0.798273    1.280402
  H      0.971868   -1.313587   -1.873305
  C     -0.969806   -1.033034   -0.738412
  H      0.447207   -1.882429    1.270476
  H      0.256435   -0.483885    2.324613
  H     -1.881774   -0.680463   -1.233144
  H     -1.030956   -2.125428   -0.703171

 Total Charge           Charge          ....    0
 Multiplicity           Mult            ....    2
 Number of Electrons    NEL             ....   61
 Basis Dimension        Dim             ....  621

ORBITAL ENERGIES
----------------
                 SPIN UP ORBITALS
  NO   OCC          E(Eh)            E(eV)
   0   1.0000     -15.549275      -423.1173
   1   1.0000     -15.548413      -423.0938
   2   1.0000     -11.251328      -306.1642
   3   1.0000     -11.250629      -306.1452
   4   1.0000     -11.247845      -306.0694
   5   1.0000     -11.247073      -306.0484
   6   1.0000     -11.246216      -306.0251
   7   1.0000     -11.245572      -306.0076
   8   1.0000      -1.287746       -35.0413
   9   1.0000      -1.185046       -32.2467
  10   1.0000      -1.027466       -27.9588
  11   1.0000      -1.021958       -27.8089
  12   1.0000      -0.870080       -23.6761
  13   1.0000      -0.865710       -23.5572
  14   1.0000      -0.854516       -23.2526
  15   1.0000      -0.710721       -19.3397
  16   1.0000      -0.682934       -18.5836
  17   1.0000      -0.681203       -18.5365
  18   1.0000      -0.668092       -18.1797
  19   1.0000      -0.575122       -15.6499
  20   1.0000      -0.573289       -15.6000
  21   1.0000      -0.560767       -15.2592
  22   1.0000      -0.551271       -15.0008
  23   1.0000      -0.541078       -14.7235
  24   1.0000      -0.527695       -14.3593
  25   1.0000      -0.517905       -14.0929
  26   1.0000      -0.466047       -12.6818
  27   1.0000      -0.462657       -12.5895
  28   1.0000      -0.425465       -11.5775
  29   1.0000      -0.370143       -10.0721
  30   1.0000      -0.303760        -8.2657
  31   0.0000       0.030166         0.8209
  32   0.0000       0.035831         0.9750
  33   0.0000       0.037119         1.0101
  34   0.0000       0.040480         1.1015
  35   0.0000       0.050490         1.3739

                 SPIN DOWN ORBITALS
  NO   OCC          E(Eh)            E(eV)
   0   1.0000     -15.550116      -423.1402
   1   1.0000     -15.547305      -423.0637
   2   1.0000     -11.250081      -306.1303
   3   1.0000     -11.249188      -306.1060
   4   1.0000     -11.247265      -306.0536
   5   1.0000     -11.246027      -306.0200
   6   1.0000     -11.245461      -306.0045
   7   1.0000     -11.225636      -305.4651
   8   1.0000      -1.279338       -34.8126
   9   1.0000      -1.179741       -32.1024
  10   1.0000      -1.019625       -27.7454
  11   1.0000      -1.003646       -27.3106
  12   1.0000      -0.867347       -23.6017
  13   1.0000      -0.862683       -23.4748
  14   1.0000      -0.823126       -22.3984
  15   1.0000      -0.698602       -19.0099
  16   1.0000      -0.678302       -18.4575
  17   1.0000      -0.676876       -18.4187
  18   1.0000      -0.648478       -17.6460
  19   1.0000      -0.570335       -15.5196
  20   1.0000      -0.567783       -15.4502
  21   1.0000      -0.554558       -15.0903
  22   1.0000      -0.547246       -14.8913
  23   1.0000      -0.533488       -14.5169
  24   1.0000      -0.526246       -14.3199
  25   1.0000      -0.499884       -13.6025
  26   1.0000      -0.462338       -12.5808
  27   1.0000      -0.459699       -12.5090
  28   1.0000      -0.417602       -11.3635
  29   1.0000      -0.324695        -8.8354
  30   0.0000       0.030287         0.8241
  31   0.0000       0.035927         0.9776
  32   0.0000       0.036727         0.9994
  33   0.0000       0.040493         1.1019
  34   0.0000       0.050302         1.3688

MULLIKEN ATOMIC CHARGES AND SPIN POPULATIONS
--------------------------------------------
   0 H :    0.380717    0.008286
   1 C :   -0.357513    0.027635
   2 N :   -0.315476   -0.093549
   3 H :    0.269051   -0.011306
   4 C :   -0.459815   -0.005263
   5 C :   -0.408895    0.059407
   6 C :   -0.801188    1.176024
   7 H :    0.203987   -0.000472
   8 H :    0.396839    0.002197
   9 N :   -0.457920    0.035323
  10 H :    0.419308   -0.012624
  11 H :    0.148033    0.012419
  12 C :   -0.422811   -0.007107
  13 H :    0.439192   -0.062347
  14 C :   -0.235919   -0.179965
  15 H :    0.202113    0.003967
  16 H :    0.406343   -0.000808
  17 H :    0.265962    0.029806
  18 H :    0.327992    0.018378
Sum of atomic charges         :    0.0000000

LOEWDIN ATOMIC CHARGES AND SPIN POPULATIONS
-------------------------------------------
   0 H :   -0.145562    0.001631
   1 C :    0.196113    0.015257
   2 N :    0.236643    0.108016
   3 H :   -0.145383    0.005337
   4 C :    0.189806    0.002535
   5 C :    0.204006    0.032835
   6 C :    0.180725    0.566937
   7 H :   -0.145138    0.000057
   8 H :   -0.144954    0.000399
   9 N :    0.279294    0.018001
  10 H :   -0.144629    0.003946
  11 H :   -0.144733    0.006452
  12 C :    0.195804    0.004760
  13 H :   -0.177584    0.104680
  14 C :    0.156080    0.102237
  15 H :   -0.145313    0.000732
  16 H :   -0.146373   -0.000013
  17 H :   -0.149161    0.016256
  18 H :   -0.149639    0.009943

  Mayer bond orders larger than 0.100000
B(  0-H ,  1-C ) :   0.9067 B(  1-C ,  2-N ) :   0.7219 B(  1-C ,  3-H ) :   0.9521
B(  1-C ,  4-C ) :   0.9671 B(  2-N ,  5-C ) :   0.7885 B(  2-N ,  6-C ) :   0.8320
B(  2-N ,  9-N ) :  -0.1036 B(  4-C ,  7-H ) :   1.0160 B(  4-C ,  8-H ) :   0.8723
B(  4-C ,  9-N ) :   0.8151 B(  5-C , 10-H ) :   0.8414 B(  5-C , 11-H ) :   1.0547
B(  5-C , 12-C ) :   0.9641 B(  6-C , 13-H ) :   0.7322 B(  6-C , 14-C ) :   0.7473
B(  9-N , 12-C ) :   0.7523 B(  9-N , 14-C ) :   0.8704 B( 12-C , 15-H ) :   0.9894
B( 12-C , 16-H ) :   0.8900 B( 14-C , 17-H ) :   0.9498 B( 14-C , 18-H ) :   0.9354

MP2 TOTAL ENERGY:     -343.963060049 Eh
FINAL SINGLE POINT ENERGY      -343.963060048613

DIPOLE MOMENT
-------------
                                X             Y             Z
Electronic contribution:      0.11602      -0.29567      -1.50516
Nuclear contribution   :     -0.06128       0.29142       1.74091
                        -----------------------------------------
Total Dipole Moment    :      0.05475      -0.00425       0.23575
                        -----------------------------------------
Magnitude (a.u.)       :      0.24206
Magnitude (Debye)      :      0.61528

Rotational constants in cm-1:     0.092266     0.087401     0.085288
Rotational constants in MHz :  2766.079819  2620.209268  2556.878531

                             ****ORCA TERMINATED NORMALLY****
TOTAL RUN TIME: 0 days 0 hours 6 minutes 37 seconds 827 msec
