                         Program Version 4.2.1 -  RELEASE  -
|  1> %pal
|  2>  nprocs 32
|  3> end
|  4> !RI-MP2 aug-cc-pVTZ aug-cc-pVTZ/C TightSCF
|  5> %maxcore 4500
|  6> *xyzfile 0 1  02_29P.xyz
|  7>
|  8>
|  9>                          ****END OF INPUT****

CARTESIAN COORDINATES (ANGSTROEM)
---------------------------------
  C      1.208205   -0.205209   -1.427911
  C     -1.208205    0.205209   -1.427911
  C     -0.761752    0.115221    0.066977
  C      0.761752   -0.115221    0.066977
  N     -0.813224   -1.074763   -2.041159
  N      0.399085   -1.284322   -2.029426
  N     -0.399085    1.284322   -2.029426
  N      0.813224    1.074763   -2.041159
  C      1.556414    0.944002    0.837794
  H      2.569701    0.998601    0.437975
  H      1.111373    1.927587    0.660793
  C     -1.556414   -0.944002    0.837794
  H     -2.569701   -0.998601    0.437975
  H     -1.111373   -1.927587    0.660793
  C      1.684649    0.692803    2.339108
  H      2.328521    1.481940    2.738412
  H      2.230717   -0.244500    2.498368
  C     -1.684649   -0.692803    2.339108
  H     -2.328521   -1.481940    2.738412
  H     -2.230717    0.244500    2.498368
  C     -0.399085   -0.660285    3.170819
  H     -0.686649   -0.873461    4.203178
  H      0.253222   -1.489695    2.875917
  C      0.399085    0.660285    3.170819
  H      0.686649    0.873461    4.203178
  H     -0.253222    1.489695    2.875917
  C     -2.668265    0.489837   -1.678399
  C      2.668265   -0.489837   -1.678399
  H      2.994978   -1.352038   -1.095177
  H      3.284826    0.371555   -1.429084
  H      2.812255   -0.717063   -2.734849
  H     -2.994978    1.352038   -1.095177
  H     -3.284826   -0.371555   -1.429084
  H     -2.812255    0.717063   -2.734849
  H     -0.982182    1.099314    0.488231
  H      0.982182   -1.099314    0.488231

 Total Charge           Charge          ....    0
 Multiplicity           Mult            ....    1
 Number of Electrons    NEL             ....  120
 Basis Dimension        Dim             .... 1196

ORBITAL ENERGIES
----------------

  NO   OCC          E(Eh)            E(eV)
   0   2.0000     -15.629246      -425.2934
   1   2.0000     -15.629227      -425.2929
   2   2.0000     -15.627736      -425.2523
   3   2.0000     -15.627732      -425.2522
   4   2.0000     -11.303179      -307.5751
   5   2.0000     -11.303152      -307.5744
   6   2.0000     -11.253798      -306.2314
   7   2.0000     -11.253199      -306.2151
   8   2.0000     -11.230221      -305.5898
   9   2.0000     -11.230219      -305.5898
  10   2.0000     -11.227841      -305.5251
  11   2.0000     -11.227830      -305.5248
  12   2.0000     -11.226105      -305.4779
  13   2.0000     -11.225544      -305.4626
  14   2.0000     -11.225482      -305.4609
  15   2.0000     -11.225481      -305.4609
  16   2.0000      -1.430044       -38.9135
  17   2.0000      -1.345926       -36.6245
  18   2.0000      -1.147203       -31.2170
  19   2.0000      -1.139492       -31.0071
  20   2.0000      -1.080237       -29.3947
  21   2.0000      -1.059583       -28.8327
  22   2.0000      -1.017717       -27.6935
  23   2.0000      -0.949415       -25.8349
  24   2.0000      -0.933630       -25.4054
  25   2.0000      -0.927059       -25.2266
  26   2.0000      -0.911121       -24.7929
  27   2.0000      -0.864959       -23.5367
  28   2.0000      -0.824157       -22.4265
  29   2.0000      -0.792012       -21.5517
  30   2.0000      -0.788919       -21.4676
  31   2.0000      -0.734275       -19.9806
  32   2.0000      -0.695854       -18.9352
  33   2.0000      -0.674540       -18.3552
  34   2.0000      -0.637455       -17.3460
  35   2.0000      -0.635990       -17.3062
  36   2.0000      -0.628690       -17.1075
  37   2.0000      -0.624541       -16.9946
  38   2.0000      -0.595974       -16.2173
  39   2.0000      -0.579808       -15.7774
  40   2.0000      -0.578672       -15.7465
  41   2.0000      -0.571050       -15.5391
  42   2.0000      -0.564439       -15.3592
  43   2.0000      -0.560125       -15.2418
  44   2.0000      -0.543176       -14.7806
  45   2.0000      -0.540571       -14.7097
  46   2.0000      -0.536253       -14.5922
  47   2.0000      -0.522925       -14.2295
  48   2.0000      -0.514918       -14.0116
  49   2.0000      -0.503061       -13.6890
  50   2.0000      -0.502538       -13.6748
  51   2.0000      -0.492501       -13.4016
  52   2.0000      -0.485817       -13.2198
  53   2.0000      -0.475627       -12.9425
  54   2.0000      -0.472410       -12.8549
  55   2.0000      -0.456483       -12.4215
  56   2.0000      -0.447705       -12.1827
  57   2.0000      -0.433425       -11.7941
  58   2.0000      -0.407519       -11.0892
  59   2.0000      -0.352178        -9.5833
  60   0.0000       0.022435         0.6105
  61   0.0000       0.026737         0.7275
  62   0.0000       0.030074         0.8184
  63   0.0000       0.032128         0.8743
  64   0.0000       0.041551         1.1307

MULLIKEN ATOMIC CHARGES
-----------------------
   0 C :    2.172337
   1 C :    2.171702
   2 C :    0.067873
   3 C :    0.066729
   4 N :   -0.792197
   5 N :   -0.803285
   6 N :   -0.803437
   7 N :   -0.792059
   8 C :   -0.564551
   9 H :    0.336005
  10 H :    0.195584
  11 C :   -0.564825
  12 H :    0.335773
  13 H :    0.195683
  14 C :   -0.478090
  15 H :    0.283335
  16 H :    0.114475
  17 C :   -0.478024
  18 H :    0.283330
  19 H :    0.114516
  20 C :   -0.455489
  21 H :    0.269130
  22 H :    0.085096
  23 C :   -0.455602
  24 H :    0.269131
  25 H :    0.085113
  26 C :   -1.380626
  27 C :   -1.380810
  28 H :    0.252462
  29 H :    0.295885
  30 H :    0.235487
  31 H :    0.252493
  32 H :    0.295921
  33 H :    0.235380
  34 H :    0.167916
  35 H :    0.167638
Sum of atomic charges:   -0.0000000

LOEWDIN ATOMIC CHARGES
----------------------
   0 C :   -0.615707
   1 C :   -0.615707
   2 C :    0.032791
   3 C :    0.032790
   4 N :    0.274087
   5 N :    0.275942
   6 N :    0.275942
   7 N :    0.274087
   8 C :    0.319395
   9 H :   -0.166643
  10 H :   -0.132695
  11 C :    0.319395
  12 H :   -0.166643
  13 H :   -0.132695
  14 C :    0.311500
  15 H :   -0.140824
  16 H :   -0.139150
  17 C :    0.311500
  18 H :   -0.140824
  19 H :   -0.139150
  20 C :    0.315331
  21 H :   -0.148611
  22 H :   -0.147659
  23 C :    0.315331
  24 H :   -0.148611
  25 H :   -0.147659
  26 C :    0.586482
  27 C :    0.586482
  28 H :   -0.149602
  29 H :   -0.175404
  30 H :   -0.159268
  31 H :   -0.149602
  32 H :   -0.175404
  33 H :   -0.159268
  34 H :   -0.139963
  35 H :   -0.139963

  Mayer bond orders larger than 0.100000
B(  0-C ,  3-C ) :   1.1821 B(  0-C ,  4-N ) :   0.2862 B(  0-C ,  5-N ) :  -0.7060
B(  0-C ,  6-N ) :   0.5301 B(  0-C ,  7-N ) :  -0.7381 B(  0-C ,  8-C ) :  -0.1087
B(  0-C ,  9-H ) :  -0.2139 B(  0-C , 27-C ) :  -0.7742 B(  0-C , 28-H ) :  -0.2127
B(  0-C , 29-H ) :  -0.2274 B(  0-C , 30-H ) :  -0.3499 B(  1-C ,  2-C ) :   1.1833
B(  1-C ,  4-N ) :  -0.7386 B(  1-C ,  5-N ) :   0.5303 B(  1-C ,  6-N ) :  -0.7058
B(  1-C ,  7-N ) :   0.2862 B(  1-C , 11-C ) :  -0.1088 B(  1-C , 12-H ) :  -0.2138
B(  1-C , 26-C ) :  -0.7730 B(  1-C , 31-H ) :  -0.2126 B(  1-C , 32-H ) :  -0.2272
B(  1-C , 33-H ) :  -0.3498 B(  2-C ,  3-C ) :   1.1760 B(  2-C ,  4-N ) :   0.8576
B(  2-C ,  5-N ) :  -0.2467 B(  2-C ,  6-N ) :   0.4748 B(  2-C , 11-C ) :   0.5410
B(  2-C , 17-C ) :  -0.1282 B(  2-C , 26-C ) :   0.2090 B(  2-C , 34-H ) :   0.7432
B(  3-C ,  5-N ) :   0.4753 B(  3-C ,  6-N ) :  -0.2467 B(  3-C ,  7-N ) :   0.8577
B(  3-C ,  8-C ) :   0.5410 B(  3-C , 14-C ) :  -0.1282 B(  3-C , 27-C ) :   0.2095
B(  3-C , 35-H ) :   0.7436 B(  4-N ,  5-N ) :  -0.1129 B(  4-N ,  6-N ) :   0.1960
B(  4-N ,  7-N ) :   0.1779 B(  4-N , 26-C ) :   0.2589 B(  5-N ,  6-N ) :   0.1293
B(  5-N ,  7-N ) :   0.1960 B(  5-N , 27-C ) :   0.2238 B(  6-N ,  7-N ) :  -0.1128
B(  6-N , 26-C ) :   0.2238 B(  7-N , 27-C ) :   0.2588 B(  8-C ,  9-H ) :   0.9211
B(  8-C , 10-H ) :   1.1806 B(  8-C , 14-C ) :   0.8805 B(  8-C , 35-H ) :   0.1155
B( 11-C , 12-H ) :   0.9214 B( 11-C , 13-H ) :   1.1804 B( 11-C , 17-C ) :   0.8804
B( 11-C , 34-H ) :   0.1154 B( 14-C , 15-H ) :   0.9560 B( 14-C , 16-H ) :   1.1790
B( 14-C , 23-C ) :   0.8194 B( 14-C , 25-H ) :   0.1015 B( 17-C , 18-H ) :   0.9560
B( 17-C , 19-H ) :   1.1790 B( 17-C , 20-C ) :   0.8194 B( 17-C , 22-H ) :   0.1016
B( 20-C , 21-H ) :   0.9649 B( 20-C , 22-H ) :   1.1693 B( 20-C , 23-C ) :   0.8212
B( 23-C , 24-H ) :   0.9649 B( 23-C , 25-H ) :   1.1693 B( 26-C , 31-H ) :   1.1135
B( 26-C , 32-H ) :   1.0930 B( 26-C , 33-H ) :   1.1496 B( 27-C , 28-H ) :   1.1136
B( 27-C , 29-H ) :   1.0931 B( 27-C , 30-H ) :   1.1496

MP2 TOTAL ENERGY:     -686.886525839 Eh
FINAL SINGLE POINT ENERGY      -686.886525838698

DIPOLE MOMENT
-------------
                                X             Y             Z
Electronic contribution:      0.00000       0.00000     -16.12328
Nuclear contribution   :      0.00000       0.00000      17.63480
                        -----------------------------------------
Total Dipole Moment    :      0.00000       0.00000       1.51153
                        -----------------------------------------
Magnitude (a.u.)       :      1.51153
Magnitude (Debye)      :      3.84199

Rotational constants in cm-1:     0.026957     0.017009     0.012814
Rotational constants in MHz :   808.149156   509.904976   384.143253

                             ****ORCA TERMINATED NORMALLY****
TOTAL RUN TIME: 0 days 0 hours 49 minutes 45 seconds 704 msec
