                         Program Version 4.2.1 -  RELEASE  -
|  1> %pal
|  2>  nprocs 32
|  3> end
|  4> !RI-MP2 aug-cc-pVTZ aug-cc-pVTZ/C TightSCF
|  5> %maxcore 4500
|  6> *xyzfile 0 1  10_11P.xyz
|  7>
|  8>
|  9>                          ****END OF INPUT****

CARTESIAN COORDINATES (ANGSTROEM)
---------------------------------
  C      0.351797   -1.030408   -0.099709
  C     -0.835754   -0.307131   -0.085500
  C      1.841970   -0.728326   -0.052180
  C     -1.207075    1.168981   -0.070653
  C      2.240170    0.642886   -0.594236
  H      3.319228    0.756566   -0.476687
  H      2.024826    0.712559   -1.663187
  C     -0.091358    2.069196   -0.627067
  H     -0.451820    3.097734   -0.577932
  N      0.034121   -2.352943   -0.014257
  N     -1.237831   -2.500450    0.057082
  N     -1.792379   -1.286322    0.020744
  C     -3.241516   -1.252725    0.108804
  H     -3.572286   -0.550072    0.870588
  H     -3.692176   -0.999324   -0.849169
  H     -3.544236   -2.257551    0.391763
  S      1.508220    2.087936    0.208947
  C     -2.414983    1.466094   -0.984170
  H     -3.358469    1.132717   -0.561495
  H     -2.500157    2.544889   -1.127860
  H     -2.291735    1.006724   -1.967341
  C     -1.528400    1.594087    1.370486
  H     -1.843531    2.640718    1.392963
  H     -2.332139    0.992850    1.797418
  H     -0.649889    1.486660    2.006289
  C      2.588239   -1.761180   -0.914133
  H      3.663680   -1.571884   -0.868779
  H      2.393103   -2.771809   -0.562736
  H      2.271788   -1.702035   -1.958168
  C      2.305380   -0.871441    1.406124
  H      2.059867   -1.866131    1.778977
  H      3.387857   -0.732077    1.475985
  H      1.823234   -0.131295    2.045943
  H      0.083135    1.841592   -1.681308

 Total Charge           Charge          ....    0
 Multiplicity           Mult            ....    1
 Number of Electrons    NEL             ....  122
 Basis Dimension        Dim             .... 1131

ORBITAL ENERGIES
----------------

  NO   OCC          E(Eh)            E(eV)
   0   2.0000     -91.944593     -2501.9396
   1   2.0000     -15.649211      -425.8367
   2   2.0000     -15.625751      -425.1983
   3   2.0000     -15.577597      -423.8880
   4   2.0000     -11.281468      -306.9844
   5   2.0000     -11.280680      -306.9629
   6   2.0000     -11.271803      -306.7213
   7   2.0000     -11.262969      -306.4810
   8   2.0000     -11.253460      -306.2222
   9   2.0000     -11.249423      -306.1124
  10   2.0000     -11.246932      -306.0446
  11   2.0000     -11.234178      -305.6975
  12   2.0000     -11.227605      -305.5187
  13   2.0000     -11.206322      -304.9395
  14   2.0000     -11.205692      -304.9224
  15   2.0000      -8.945539      -243.4205
  16   2.0000      -6.626852      -180.3258
  17   2.0000      -6.625846      -180.2984
  18   2.0000      -6.625019      -180.2759
  19   2.0000      -1.436553       -39.0906
  20   2.0000      -1.217456       -33.1287
  21   2.0000      -1.153852       -31.3979
  22   2.0000      -1.108035       -30.1512
  23   2.0000      -1.065308       -28.9885
  24   2.0000      -1.017615       -27.6907
  25   2.0000      -0.983452       -26.7611
  26   2.0000      -0.954108       -25.9626
  27   2.0000      -0.938284       -25.5320
  28   2.0000      -0.928088       -25.2546
  29   2.0000      -0.856595       -23.3091
  30   2.0000      -0.853580       -23.2271
  31   2.0000      -0.799634       -21.7592
  32   2.0000      -0.769612       -20.9422
  33   2.0000      -0.742976       -20.2174
  34   2.0000      -0.681605       -18.5474
  35   2.0000      -0.672810       -18.3081
  36   2.0000      -0.646342       -17.5879
  37   2.0000      -0.633377       -17.2351
  38   2.0000      -0.612256       -16.6603
  39   2.0000      -0.610195       -16.6043
  40   2.0000      -0.602424       -16.3928
  41   2.0000      -0.593471       -16.1492
  42   2.0000      -0.583483       -15.8774
  43   2.0000      -0.580244       -15.7892
  44   2.0000      -0.565474       -15.3873
  45   2.0000      -0.552997       -15.0478
  46   2.0000      -0.540569       -14.7096
  47   2.0000      -0.531378       -14.4595
  48   2.0000      -0.523263       -14.2387
  49   2.0000      -0.516996       -14.0682
  50   2.0000      -0.503288       -13.6952
  51   2.0000      -0.498799       -13.5730
  52   2.0000      -0.493707       -13.4345
  53   2.0000      -0.479293       -13.0422
  54   2.0000      -0.472775       -12.8649
  55   2.0000      -0.459328       -12.4990
  56   2.0000      -0.429236       -11.6801
  57   2.0000      -0.412929       -11.2364
  58   2.0000      -0.389870       -10.6089
  59   2.0000      -0.345253        -9.3948
  60   2.0000      -0.329739        -8.9727
  61   0.0000       0.022371         0.6088
  62   0.0000       0.030692         0.8352
  63   0.0000       0.033068         0.8998
  64   0.0000       0.034091         0.9277
  65   0.0000       0.042983         1.1696

MULLIKEN ATOMIC CHARGES
-----------------------
   0 C :    2.504726
   1 C :   -0.970830
   2 C :    1.138902
   3 C :    1.408014
   4 C :   -0.365728
   5 H :    0.368328
   6 H :    0.179930
   7 C :   -0.308808
   8 H :    0.334712
   9 N :   -0.425755
  10 N :   -1.057814
  11 N :    0.205847
  12 C :   -1.035367
  13 H :    0.370877
  14 H :    0.337535
  15 H :    0.441051
  16 S :   -0.904046
  17 C :   -1.325596
  18 H :    0.304113
  19 H :    0.155500
  20 H :    0.282450
  21 C :   -1.474290
  22 H :    0.157459
  23 H :    0.369059
  24 H :    0.375891
  25 C :   -1.501755
  26 H :    0.195263
  27 H :    0.282192
  28 H :    0.272123
  29 C :   -1.361749
  30 H :    0.266715
  31 H :    0.196378
  32 H :    0.402826
  33 H :    0.181847
Sum of atomic charges:    0.0000000

LOEWDIN ATOMIC CHARGES
----------------------
   0 C :   -0.253049
   1 C :   -0.127242
   2 C :   -0.405688
   3 C :   -0.354826
   4 C :   -0.049449
   5 H :   -0.212575
   6 H :   -0.205930
   7 C :   -0.051332
   8 H :   -0.221969
   9 N :    0.217445
  10 N :    0.160972
  11 N :    0.065677
  12 C :    0.519237
  13 H :   -0.174673
  14 H :   -0.160040
  15 H :   -0.170431
  16 S :    1.304576
  17 C :    0.587167
  18 H :   -0.199375
  19 H :   -0.156504
  20 H :   -0.139496
  21 C :    0.581236
  22 H :   -0.148778
  23 H :   -0.172521
  24 H :   -0.178506
  25 C :    0.567952
  26 H :   -0.157761
  27 H :   -0.181946
  28 H :   -0.151063
  29 C :    0.567395
  30 H :   -0.159896
  31 H :   -0.155988
  32 H :   -0.181859
  33 H :   -0.200760

  Mayer bond orders larger than 0.100000
B(  0-C ,  1-C ) :  -0.7463 B(  0-C ,  2-C ) :   1.0538 B(  0-C ,  3-C ) :  -0.4042
B(  0-C ,  9-N ) :  -0.3222 B(  0-C , 10-N ) :   0.2329 B(  0-C , 11-N ) :  -0.5977
B(  1-C ,  2-C ) :   0.5140 B(  1-C ,  3-C ) :   2.0813 B(  1-C ,  7-C ) :  -0.1752
B(  1-C ,  9-N ) :   0.5218 B(  1-C , 10-N ) :   0.3906 B(  1-C , 11-N ) :   1.4029
B(  1-C , 12-C ) :  -0.1335 B(  1-C , 16-S ) :  -0.1257 B(  1-C , 21-C ) :  -0.1164
B(  2-C ,  4-C ) :   0.6355 B(  2-C , 16-S ) :   0.3864 B(  2-C , 25-C ) :   0.2118
B(  2-C , 26-H ) :  -0.1129 B(  2-C , 28-H ) :  -0.1296 B(  2-C , 29-C ) :   0.4115
B(  3-C ,  7-C ) :   0.7118 B(  3-C , 11-N ) :  -0.3186 B(  3-C , 16-S ) :   0.5296
B(  3-C , 17-C ) :   0.1426 B(  3-C , 19-H ) :  -0.1504 B(  3-C , 20-H ) :  -0.1173
B(  3-C , 21-C ) :   0.2396 B(  3-C , 22-H ) :  -0.1418 B(  4-C ,  5-H ) :   0.9269
B(  4-C ,  6-H ) :   1.0852 B(  4-C , 16-S ) :   0.7115 B(  4-C , 25-C ) :   0.1528
B(  5-H , 16-S ) :  -0.1017 B(  7-C ,  8-H ) :   0.9940 B(  7-C , 16-S ) :   0.5489
B(  7-C , 33-H ) :   1.1126 B(  8-H , 16-S ) :  -0.1549 B(  9-N , 10-N ) :   0.1390
B(  9-N , 11-N ) :   0.1831 B(  9-N , 29-C ) :  -0.1031 B( 10-N , 11-N ) :   0.1779
B( 10-N , 12-C ) :  -0.2267 B( 11-N , 12-C ) :   1.0525 B( 12-C , 13-H ) :   0.9237
B( 12-C , 14-H ) :   0.9844 B( 12-C , 15-H ) :   0.8475 B( 17-C , 18-H ) :   1.0092
B( 17-C , 19-H ) :   1.2353 B( 17-C , 20-H ) :   1.0633 B( 17-C , 21-C ) :   0.1267
B( 21-C , 22-H ) :   1.2621 B( 21-C , 23-H ) :   0.9196 B( 21-C , 24-H ) :   0.9775
B( 25-C , 26-H ) :   1.1436 B( 25-C , 27-H ) :   1.0305 B( 25-C , 28-H ) :   1.0590
B( 25-C , 29-C ) :   0.1466 B( 29-C , 30-H ) :   1.0315 B( 29-C , 31-H ) :   1.1590
B( 29-C , 32-H ) :   0.8950

MP2 TOTAL ENERGY:     -991.378652892 Eh
FINAL SINGLE POINT ENERGY      -991.378652892393

DIPOLE MOMENT
-------------
                                X             Y             Z
Electronic contribution:      2.23382      -2.48501       0.21556
Nuclear contribution   :     -3.32863       3.58944      -0.54986
                        -----------------------------------------
Total Dipole Moment    :     -1.09480       1.10443      -0.33430
                        -----------------------------------------
Magnitude (a.u.)       :      1.59063
Magnitude (Debye)      :      4.04307

Rotational constants in cm-1:     0.023699     0.018996     0.012334
Rotational constants in MHz :   710.471832   569.480278   369.758124

                             ****ORCA TERMINATED NORMALLY****
TOTAL RUN TIME: 0 days 0 hours 35 minutes 36 seconds 135 msec
