                         Program Version 4.2.1 -  RELEASE  -
|  1> %pal
|  2>  nprocs 32
|  3> end
|  4> !RI-MP2 aug-cc-pVTZ aug-cc-pVTZ/C TightSCF
|  5> %maxcore 4500
|  6> *xyzfile 0 2  04_85P1.xyz
|  7>
|  8>
|  9>                          ****END OF INPUT****

CARTESIAN COORDINATES (ANGSTROEM)
---------------------------------
  O     -2.243740    1.036689   -0.006231
  C     -2.045998   -0.164869   -0.056813
  O     -2.882403   -0.998234   -0.700946
  C     -0.912635   -0.830986    0.537297
  C      0.036164   -0.096547    1.412486
  H     -0.747637   -1.873313    0.297039
  C      1.157101    0.640796    0.642539
  H      0.521632   -0.807194    2.081279
  H     -0.500452    0.644982    2.008411
  C      1.932992   -0.375173   -0.213817
  O      2.027823   -0.035387   -1.492411
  N      0.682783    1.744579   -0.190479
  H     -3.593129   -0.462243   -1.078908
  H      1.869360    1.005937    1.386229
  H      1.068148    2.633872    0.096389
  H     -0.331311    1.818918   -0.197372
  H      1.542358    0.820251   -1.560941
  O      2.396545   -1.382142    0.245974

 Total Charge           Charge          ....    0
 Multiplicity           Mult            ....    2
 Number of Electrons    NEL             ....   77
 Basis Dimension        Dim             ....  644

ORBITAL ENERGIES
----------------
                 SPIN UP ORBITALS
  NO   OCC          E(Eh)            E(eV)
   0   1.0000     -20.626947      -561.2878
   1   1.0000     -20.596943      -560.4713
   2   1.0000     -20.578245      -559.9625
   3   1.0000     -20.535805      -558.8077
   4   1.0000     -15.573245      -423.7695
   5   1.0000     -11.400610      -310.2264
   6   1.0000     -11.373380      -309.4854
   7   1.0000     -11.299779      -307.4826
   8   1.0000     -11.289044      -307.1905
   9   1.0000     -11.260678      -306.4186
  10   1.0000      -1.487087       -40.4657
  11   1.0000      -1.457129       -39.6505
  12   1.0000      -1.388276       -37.7769
  13   1.0000      -1.359668       -36.9984
  14   1.0000      -1.222934       -33.2777
  15   1.0000      -1.112512       -30.2730
  16   1.0000      -1.003830       -27.3156
  17   1.0000      -0.909216       -24.7410
  18   1.0000      -0.819286       -22.2939
  19   1.0000      -0.798225       -21.7208
  20   1.0000      -0.742118       -20.1941
  21   1.0000      -0.731606       -19.9080
  22   1.0000      -0.727070       -19.7846
  23   1.0000      -0.697004       -18.9665
  24   1.0000      -0.679539       -18.4912
  25   1.0000      -0.656900       -17.8752
  26   1.0000      -0.632371       -17.2077
  27   1.0000      -0.628883       -17.1128
  28   1.0000      -0.613164       -16.6850
  29   1.0000      -0.596334       -16.2271
  30   1.0000      -0.564211       -15.3530
  31   1.0000      -0.547830       -14.9072
  32   1.0000      -0.539793       -14.6885
  33   1.0000      -0.529980       -14.4215
  34   1.0000      -0.493741       -13.4354
  35   1.0000      -0.471197       -12.8219
  36   1.0000      -0.466864       -12.7040
  37   1.0000      -0.424288       -11.5455
  38   1.0000      -0.397941       -10.8285
  39   0.0000       0.022453         0.6110
  40   0.0000       0.028536         0.7765
  41   0.0000       0.034817         0.9474
  42   0.0000       0.044590         1.2133
  43   0.0000       0.046477         1.2647

                 SPIN DOWN ORBITALS
  NO   OCC          E(Eh)            E(eV)
   0   1.0000     -20.626892      -561.2863
   1   1.0000     -20.596938      -560.4712
   2   1.0000     -20.567769      -559.6775
   3   1.0000     -20.535888      -558.8099
   4   1.0000     -15.573355      -423.7725
   5   1.0000     -11.405554      -310.3609
   6   1.0000     -11.373484      -309.4882
   7   1.0000     -11.297375      -307.4172
   8   1.0000     -11.268062      -306.6195
   9   1.0000     -11.263422      -306.4933
  10   1.0000      -1.481456       -40.3125
  11   1.0000      -1.457076       -39.6490
  12   1.0000      -1.371327       -37.3157
  13   1.0000      -1.359782       -37.0016
  14   1.0000      -1.220852       -33.2211
  15   1.0000      -1.076189       -29.2846
  16   1.0000      -0.979576       -26.6556
  17   1.0000      -0.907316       -24.6893
  18   1.0000      -0.812231       -22.1019
  19   1.0000      -0.788830       -21.4651
  20   1.0000      -0.735087       -20.0027
  21   1.0000      -0.726169       -19.7601
  22   1.0000      -0.719538       -19.5796
  23   1.0000      -0.688128       -18.7249
  24   1.0000      -0.672544       -18.3009
  25   1.0000      -0.641785       -17.4638
  26   1.0000      -0.628852       -17.1119
  27   1.0000      -0.626676       -17.0527
  28   1.0000      -0.608810       -16.5666
  29   1.0000      -0.589353       -16.0371
  30   1.0000      -0.558199       -15.1894
  31   1.0000      -0.537740       -14.6327
  32   1.0000      -0.530258       -14.4291
  33   1.0000      -0.483565       -13.1585
  34   1.0000      -0.477378       -12.9901
  35   1.0000      -0.467798       -12.7294
  36   1.0000      -0.466725       -12.7002
  37   1.0000      -0.414077       -11.2676
  38   0.0000       0.021738         0.5915
  39   0.0000       0.026992         0.7345
  40   0.0000       0.033409         0.9091
  41   0.0000       0.035525         0.9667
  42   0.0000       0.044713         1.2167

MULLIKEN ATOMIC CHARGES AND SPIN POPULATIONS
--------------------------------------------
   0 O :   -0.812523    0.224994
   1 C :    0.545952   -0.206192
   2 O :   -0.486439    0.006729
   3 C :   -0.371296    1.138796
   4 C :    0.076500   -0.191884
   5 H :    0.421904   -0.062914
   6 C :    0.244872    0.053724
   7 H :    0.197918    0.014116
   8 H :    0.300735    0.022930
   9 C :    0.734486    0.005253
  10 O :   -0.560143    0.000187
  11 N :   -0.706081   -0.003774
  12 H :    0.263514   -0.004853
  13 H :    0.385091    0.001998
  14 H :    0.079167   -0.000769
  15 H :    0.287701    0.003071
  16 H :    0.266854    0.001028
  17 O :   -0.868213   -0.002437
Sum of atomic charges         :   -0.0000000

LOEWDIN ATOMIC CHARGES AND SPIN POPULATIONS
-------------------------------------------
   0 O :    0.495254    0.168910
   1 C :   -0.806248    0.095203
   2 O :    0.832921   -0.002953
   3 C :    0.285923    0.485168
   4 C :    0.270429    0.094906
   5 H :   -0.167958    0.098597
   6 C :   -0.097420    0.032694
   7 H :   -0.153920    0.005611
   8 H :   -0.147785    0.007779
   9 C :   -0.803162    0.007663
  10 O :    0.848250    0.000770
  11 N :    0.879350    0.002085
  12 H :   -0.467988   -0.000952
  13 H :   -0.130220    0.004729
  14 H :   -0.276840    0.000248
  15 H :   -0.409455   -0.000041
  16 H :   -0.591747    0.000473
  17 O :    0.440616   -0.000889

  Mayer bond orders larger than 0.100000
B(  0-O ,  1-C ) :   1.4507 B(  0-O ,  4-C ) :  -0.1081 B(  1-C ,  2-O ) :   0.8889
B(  1-C ,  3-C ) :   0.7173 B(  2-O , 12-H ) :   0.9640 B(  3-C ,  4-C ) :   0.6451
B(  3-C ,  5-H ) :   0.8166 B(  3-C ,  6-C ) :   0.2018 B(  4-C ,  6-C ) :   0.9356
B(  4-C ,  7-H ) :   0.9691 B(  4-C ,  8-H ) :   0.8918 B(  6-C ,  9-C ) :   0.7694
B(  6-C , 10-O ) :   0.1418 B(  6-C , 11-N ) :   0.5835 B(  6-C , 13-H ) :   0.8850
B(  9-C , 10-O ) :   0.7645 B(  9-C , 11-N ) :   0.1650 B(  9-C , 17-O ) :   1.2893
B( 10-O , 16-H ) :   0.8438 B( 11-N , 14-H ) :   1.0536 B( 11-N , 15-H ) :   0.8414
B( 11-N , 16-H ) :   0.1189

MP2 TOTAL ENERGY:     -550.089453637 Eh
FINAL SINGLE POINT ENERGY      -550.089453636809

DIPOLE MOMENT
-------------
                                X             Y             Z
Electronic contribution:     -0.93797      -2.58940      -2.40963
Nuclear contribution   :     -0.17624       3.73074       2.96920
                        -----------------------------------------
Total Dipole Moment    :     -1.11421       1.14135       0.55957
                        -----------------------------------------
Magnitude (a.u.)       :      1.69034
Magnitude (Debye)      :      4.29651

Rotational constants in cm-1:     0.073198     0.027527     0.025591
Rotational constants in MHz :  2194.430919   825.251702   767.208063

                             ****ORCA TERMINATED NORMALLY****
TOTAL RUN TIME: 0 days 0 hours 8 minutes 43 seconds 683 msec
