                         Program Version 4.2.1 -  RELEASE  -
|  1> %pal
|  2>  nprocs 32
|  3> end
|  4> !RI-MP2 aug-cc-pVTZ aug-cc-pVTZ/C TightSCF
|  5> %maxcore 4500
|  6> *xyzfile 0 1  03_27P2.xyz
|  7>
|  8>
|  9>                          ****END OF INPUT****

CARTESIAN COORDINATES (ANGSTROEM)
---------------------------------
  N     -0.026097   -0.358681   -0.000014
  C      1.366764   -0.091891    0.000002
  C     -1.158222    0.464685   -0.000005
  O     -1.035247    1.662497   -0.000018
  O      2.135455   -1.009890    0.000002
  C     -2.470476   -0.262495    0.000019
  C      1.756265    1.355857    0.000014
  F     -0.307416   -1.701451   -0.000007
  H     -2.556526   -0.902484    0.878979
  H     -2.556550   -0.902497   -0.878929
  H     -3.259855    0.484436    0.000024
  H      2.843270    1.389726    0.000054
  H      1.355679    1.868432    0.873857
  H      1.355750    1.868419   -0.873871

 Total Charge           Charge          ....    0
 Multiplicity           Mult            ....    1
 Number of Electrons    NEL             ....   62
 Basis Dimension        Dim             ....  506

ORBITAL ENERGIES
----------------

  NO   OCC          E(Eh)            E(eV)
   0   2.0000     -26.357618      -717.2272
   1   2.0000     -20.568140      -559.6875
   2   2.0000     -20.561017      -559.4937
   3   2.0000     -15.706903      -427.4066
   4   2.0000     -11.401632      -310.2542
   5   2.0000     -11.390831      -309.9603
   6   2.0000     -11.260708      -306.4194
   7   2.0000     -11.248247      -306.0804
   8   2.0000      -1.672096       -45.5000
   9   2.0000      -1.436750       -39.0959
  10   2.0000      -1.421632       -38.6846
  11   2.0000      -1.224402       -33.3177
  12   2.0000      -1.058529       -28.8040
  13   2.0000      -1.015133       -27.6232
  14   2.0000      -0.902638       -24.5620
  15   2.0000      -0.793475       -21.5916
  16   2.0000      -0.756685       -20.5905
  17   2.0000      -0.732754       -19.9393
  18   2.0000      -0.722639       -19.6640
  19   2.0000      -0.657322       -17.8866
  20   2.0000      -0.644065       -17.5259
  21   2.0000      -0.642650       -17.4874
  22   2.0000      -0.638082       -17.3631
  23   2.0000      -0.618667       -16.8348
  24   2.0000      -0.590364       -16.0646
  25   2.0000      -0.581857       -15.8331
  26   2.0000      -0.552957       -15.0467
  27   2.0000      -0.533697       -14.5226
  28   2.0000      -0.477697       -12.9988
  29   2.0000      -0.455309       -12.3896
  30   2.0000      -0.438959       -11.9447
  31   0.0000       0.025501         0.6939
  32   0.0000       0.033656         0.9158
  33   0.0000       0.039924         1.0864
  34   0.0000       0.045017         1.2250
  35   0.0000       0.054802         1.4912

MULLIKEN ATOMIC CHARGES
-----------------------
   0 N :    0.709343
   1 C :    0.205559
   2 C :    0.162418
   3 O :   -0.707556
   4 O :   -0.705636
   5 C :   -0.594389
   6 C :   -0.561430
   7 F :   -0.411797
   8 H :    0.324267
   9 H :    0.324268
  10 H :    0.307027
  11 H :    0.301705
  12 H :    0.323114
  13 H :    0.323108
Sum of atomic charges:   -0.0000000

LOEWDIN ATOMIC CHARGES
----------------------
   0 N :   -0.111741
   1 C :   -0.673588
   2 C :   -0.685994
   3 O :    0.479379
   4 O :    0.462518
   5 C :    0.584965
   6 C :    0.573048
   7 F :    0.439135
   8 H :   -0.172956
   9 H :   -0.172956
  10 H :   -0.178188
  11 H :   -0.178766
  12 H :   -0.182431
  13 H :   -0.182424

  Mayer bond orders larger than 0.100000
B(  0-N ,  1-C ) :   0.9092 B(  0-N ,  2-C ) :   0.8744 B(  0-N ,  3-O ) :  -0.1034
B(  0-N ,  4-O ) :  -0.1426 B(  0-N ,  7-F ) :   0.6400 B(  1-C ,  4-O ) :   1.5235
B(  1-C ,  6-C ) :   0.6345 B(  2-C ,  3-O ) :   1.6111 B(  2-C ,  5-C ) :   0.5776
B(  5-C ,  8-H ) :   0.9316 B(  5-C ,  9-H ) :   0.9316 B(  5-C , 10-H ) :   0.9664
B(  6-C , 11-H ) :   0.9226 B(  6-C , 12-H ) :   0.9324 B(  6-C , 13-H ) :   0.9324

MP2 TOTAL ENERGY:     -460.289411077 Eh
FINAL SINGLE POINT ENERGY      -460.289411076677

DIPOLE MOMENT
-------------
                                X             Y             Z
Electronic contribution:      1.51440      -4.99977      -0.00009
Nuclear contribution   :     -2.44178       5.37208       0.00012
                        -----------------------------------------
Total Dipole Moment    :     -0.92738       0.37231       0.00002
                        -----------------------------------------
Magnitude (a.u.)       :      0.99932
Magnitude (Debye)      :      2.54007

Rotational constants in cm-1:     0.108325     0.060071     0.039199
Rotational constants in MHz :  3247.497159  1800.883118  1175.148165

                             ****ORCA TERMINATED NORMALLY****
TOTAL RUN TIME: 0 days 0 hours 1 minutes 59 seconds 381 msec
