                         Program Version 4.2.1 -  RELEASE  -
|  1> %pal
|  2>  nprocs 32
|  3> end
|  4> !RI-MP2 aug-cc-pVTZ aug-cc-pVTZ/C TightSCF
|  5> %maxcore 4500
|  6> *xyzfile 1 1  05_9R.xyz
|  7>
|  8>
|  9>                          ****END OF INPUT****

CARTESIAN COORDINATES (ANGSTROEM)
---------------------------------
  C     -2.171926   -0.850507   -0.004602
  C     -1.237616   -1.299125    0.989589
  C      0.189557   -1.074228    1.063922
  C      1.074631   -1.504169   -0.146741
  C      2.513724   -1.045399   -0.036036
  C      2.899871    0.219493    0.136827
  C      2.053080    1.453867    0.318394
  C      1.011326    1.741047   -0.798381
  C     -0.295211    2.246678   -0.243133
  C     -1.454570    1.584373   -0.297437
  C     -1.730784    0.269356   -0.969710
  H     -0.884434   -0.056205   -1.568240
  C     -3.568684   -0.605829    0.582536
  H     -4.287498   -0.492143   -0.229443
  H     -3.583482    0.305684    1.179566
  H     -3.896242   -1.434707    1.212354
  C     -2.213219   -2.248596   -0.787291
  H     -2.587504   -3.069826   -0.177452
  H     -1.261131   -2.515942   -1.239746
  H     -2.936390   -2.057149   -1.582904
  C      3.518484   -2.155237   -0.178608
  H      4.539253   -1.779054   -0.129591
  H      3.395003   -2.676182   -1.132979
  H      3.392629   -2.902343    0.611345
  H      0.638842   -1.155646   -1.079424
  H      1.053216   -2.594558   -0.180603
  H      3.971155    0.387920    0.179344
  H      1.544076    1.402210    1.288980
  H      2.718995    2.311015    0.414308
  H     -2.557966    0.397436   -1.674516
  H     -2.321560    2.065397    0.147108
  C     -0.222011    3.598475    0.408281
  H      0.524110    3.617018    1.206994
  H     -1.180195    3.901447    0.829089
  H      0.083677    4.351428   -0.323625
  H      1.421698    2.498587   -1.470480
  H      0.866923    0.857173   -1.413588
  H     -1.689015   -1.873709    1.800740
  H      0.232838    0.029108    1.130029
  H      0.603093   -1.498157    1.977074

 Total Charge           Charge          ....    1
 Multiplicity           Mult            ....    1
 Number of Electrons    NEL             ....  114
 Basis Dimension        Dim             .... 1265

ORBITAL ENERGIES
----------------

  NO   OCC          E(Eh)            E(eV)
   0   2.0000     -11.525108      -313.6141
   1   2.0000     -11.427322      -310.9533
   2   2.0000     -11.408079      -310.4296
   3   2.0000     -11.402942      -310.2898
   4   2.0000     -11.388411      -309.8944
   5   2.0000     -11.375431      -309.5412
   6   2.0000     -11.373340      -309.4843
   7   2.0000     -11.360692      -309.1401
   8   2.0000     -11.353616      -308.9476
   9   2.0000     -11.345401      -308.7241
  10   2.0000     -11.343144      -308.6626
  11   2.0000     -11.342717      -308.6510
  12   2.0000     -11.337634      -308.5127
  13   2.0000     -11.324724      -308.1614
  14   2.0000     -11.324266      -308.1490
  15   2.0000      -1.334281       -36.3076
  16   2.0000      -1.250255       -34.0212
  17   2.0000      -1.235242       -33.6126
  18   2.0000      -1.192943       -32.4616
  19   2.0000      -1.152971       -31.3739
  20   2.0000      -1.110916       -30.2296
  21   2.0000      -1.101239       -29.9662
  22   2.0000      -1.087058       -29.5803
  23   2.0000      -1.042893       -28.3786
  24   2.0000      -1.020475       -27.7685
  25   2.0000      -1.008624       -27.4461
  26   2.0000      -0.960014       -26.1233
  27   2.0000      -0.913664       -24.8621
  28   2.0000      -0.852953       -23.2100
  29   2.0000      -0.836206       -22.7543
  30   2.0000      -0.826638       -22.4940
  31   2.0000      -0.802841       -21.8464
  32   2.0000      -0.781327       -21.2610
  33   2.0000      -0.762703       -20.7542
  34   2.0000      -0.752516       -20.4770
  35   2.0000      -0.740789       -20.1579
  36   2.0000      -0.732322       -19.9275
  37   2.0000      -0.719544       -19.5798
  38   2.0000      -0.706205       -19.2168
  39   2.0000      -0.699504       -19.0345
  40   2.0000      -0.696606       -18.9556
  41   2.0000      -0.692760       -18.8510
  42   2.0000      -0.679525       -18.4908
  43   2.0000      -0.670554       -18.2467
  44   2.0000      -0.668185       -18.1822
  45   2.0000      -0.660129       -17.9630
  46   2.0000      -0.650784       -17.7087
  47   2.0000      -0.641433       -17.4543
  48   2.0000      -0.637428       -17.3453
  49   2.0000      -0.630473       -17.1560
  50   2.0000      -0.627872       -17.0853
  51   2.0000      -0.612296       -16.6614
  52   2.0000      -0.596447       -16.2302
  53   2.0000      -0.585752       -15.9391
  54   2.0000      -0.570200       -15.5159
  55   2.0000      -0.468103       -12.7377
  56   2.0000      -0.455133       -12.3848
  57   0.0000      -0.129201        -3.5157
  58   0.0000      -0.073378        -1.9967
  59   0.0000      -0.057925        -1.5762
  60   0.0000      -0.053761        -1.4629
  61   0.0000      -0.050491        -1.3739

MULLIKEN ATOMIC CHARGES
-----------------------
   0 C :    1.723889
   1 C :   -0.363745
   2 C :   -0.097340
   3 C :    0.102443
   4 C :    0.742119
   5 C :   -0.722434
   6 C :    0.308370
   7 C :   -0.532005
   8 C :    1.339368
   9 C :   -0.596908
  10 C :   -0.131706
  11 H :    0.111935
  12 C :   -1.477226
  13 H :    0.204131
  14 H :    0.324071
  15 H :    0.211751
  16 C :   -1.409856
  17 H :    0.268113
  18 H :    0.422609
  19 H :    0.233423
  20 C :   -1.347797
  21 H :    0.219156
  22 H :    0.257039
  23 H :    0.231845
  24 H :    0.178337
  25 H :    0.169628
  26 H :   -0.548330
  27 H :    0.239467
  28 H :    0.320711
  29 H :    0.449423
  30 H :   -0.554282
  31 C :   -1.354278
  32 H :    0.260979
  33 H :    0.244032
  34 H :    0.259898
  35 H :    0.462515
  36 H :    0.140356
  37 H :    0.153716
  38 H :    0.424890
  39 H :    0.131692
Sum of atomic charges:    1.0000000

LOEWDIN ATOMIC CHARGES
----------------------
   0 C :   -0.269133
   1 C :    0.430632
   2 C :    0.400680
   3 C :    0.341425
   4 C :   -0.058811
   5 C :    0.292281
   6 C :    0.308768
   7 C :    0.328692
   8 C :   -0.066691
   9 C :    0.280224
  10 C :    0.321420
  11 H :   -0.190202
  12 C :    0.634680
  13 H :   -0.135451
  14 H :   -0.145854
  15 H :   -0.145144
  16 C :    0.673458
  17 H :   -0.133178
  18 H :   -0.153717
  19 H :   -0.126411
  20 C :    0.585240
  21 H :   -0.168788
  22 H :   -0.154747
  23 H :   -0.156809
  24 H :   -0.190480
  25 H :   -0.138406
  26 H :   -0.174409
  27 H :   -0.171811
  28 H :   -0.140254
  29 H :   -0.121110
  30 H :   -0.179798
  31 C :    0.598459
  32 H :   -0.160927
  33 H :   -0.166758
  34 H :   -0.148584
  35 H :   -0.122561
  36 H :   -0.203682
  37 H :   -0.070608
  38 H :   -0.194032
  39 H :   -0.107603

  Mayer bond orders larger than 0.100000
B(  0-C ,  1-C ) :   0.6952 B(  0-C ,  2-C ) :   0.1509 B(  0-C ,  9-C ) :   0.2184
B(  0-C , 10-C ) :   0.7972 B(  0-C , 12-C ) :   0.1117 B(  0-C , 13-H ) :  -0.1662
B(  0-C , 15-H ) :  -0.1121 B(  0-C , 16-C ) :   0.3939 B(  0-C , 19-H ) :  -0.1297
B(  1-C ,  2-C ) :   0.3809 B(  1-C , 12-C ) :  -0.1198 B(  1-C , 37-H ) :   1.3066
B(  1-C , 38-H ) :  -0.1155 B(  2-C ,  3-C ) :   0.7495 B(  2-C ,  4-C ) :   0.1387
B(  2-C , 24-H ) :   0.1222 B(  2-C , 37-H ) :  -0.2021 B(  2-C , 38-H ) :   0.9480
B(  2-C , 39-H ) :   1.0633 B(  3-C ,  4-C ) :   0.5526 B(  3-C ,  5-C ) :   0.3695
B(  3-C ,  6-C ) :  -0.1929 B(  3-C , 10-C ) :  -0.1147 B(  3-C , 24-H ) :   1.0750
B(  3-C , 25-H ) :   1.0520 B(  3-C , 26-H ) :   0.3866 B(  3-C , 28-H ) :  -0.1577
B(  3-C , 38-H ) :   0.1541 B(  3-C , 39-H ) :  -0.1142 B(  4-C ,  5-C ) :   1.7789
B(  4-C ,  6-C ) :   0.4690 B(  4-C , 20-C ) :   0.4155 B(  4-C , 21-H ) :   0.1184
B(  4-C , 22-H ) :  -0.1512 B(  4-C , 23-H ) :  -0.1921 B(  4-C , 26-H ) :  -0.3853
B(  4-C , 28-H ) :   0.1014 B(  5-C ,  7-C ) :   0.1946 B(  5-C , 26-H ) :   2.0148
B(  5-C , 28-H ) :  -0.3131 B(  6-C ,  7-C ) :   1.0121 B(  6-C ,  8-C ) :   0.2646
B(  6-C ,  9-C ) :  -0.1221 B(  6-C , 26-H ) :  -0.5602 B(  6-C , 27-H ) :   0.9320
B(  6-C , 28-H ) :   1.0768 B(  7-C ,  8-C ) :   0.6139 B(  7-C ,  9-C ) :   0.1087
B(  7-C , 30-H ) :   0.1144 B(  7-C , 35-H ) :   0.8348 B(  7-C , 36-H ) :   1.1853
B(  8-C ,  9-C ) :   1.7896 B(  8-C , 10-C ) :   0.2128 B(  8-C , 30-H ) :  -0.6484
B(  8-C , 31-C ) :   0.3127 B(  8-C , 32-H ) :  -0.1930 B(  8-C , 34-H ) :  -0.1678
B(  9-C , 10-C ) :   0.5932 B(  9-C , 11-H ) :   0.1427 B(  9-C , 29-H ) :  -0.1831
B(  9-C , 30-H ) :   2.1536 B(  9-C , 35-H ) :  -0.1097 B(  9-C , 36-H ) :   0.1324
B( 10-C , 11-H ) :   1.1352 B( 10-C , 29-H ) :   0.9761 B( 10-C , 30-H ) :  -0.1459
B( 11-H , 30-H ) :   0.1989 B( 12-C , 13-H ) :   1.2244 B( 12-C , 14-H ) :   1.0015
B( 12-C , 15-H ) :   1.1843 B( 12-C , 16-C ) :   0.2234 B( 16-C , 17-H ) :   1.0405
B( 16-C , 18-H ) :   0.8547 B( 16-C , 19-H ) :   1.1736 B( 20-C , 21-H ) :   1.0800
B( 20-C , 22-H ) :   1.0884 B( 20-C , 23-H ) :   1.1327 B( 26-H , 28-H ) :  -0.1529
B( 29-H , 30-H ) :  -0.2148 B( 31-C , 32-H ) :   1.0852 B( 31-C , 33-H ) :   1.1043
B( 31-C , 34-H ) :   1.1321

MP2 TOTAL ENERGY:     -585.017442646 Eh
FINAL SINGLE POINT ENERGY      -585.017442646415

DIPOLE MOMENT
-------------
                                X             Y             Z
Electronic contribution:      0.72727       0.52264       0.89649
Nuclear contribution   :     -2.31360      -2.08359      -0.23732
                        -----------------------------------------
Total Dipole Moment    :     -1.58634      -1.56095       0.65916
                        -----------------------------------------
Magnitude (a.u.)       :      2.32110
Magnitude (Debye)      :      5.89978

Rotational constants in cm-1:     0.023112     0.016822     0.010918
Rotational constants in MHz :   692.866295   504.320280   327.309182

                             ****ORCA TERMINATED NORMALLY****
TOTAL RUN TIME: 0 days 0 hours 42 minutes 40 seconds 212 msec
