                         Program Version 4.2.1 -  RELEASE  -
|  1> %pal
|  2>  nprocs 32
|  3> end
|  4> !RI-MP2 aug-cc-pVTZ aug-cc-pVTZ/C TightSCF
|  5> %maxcore 4500
|  6> *xyzfile 0 1  10_62R.xyz
|  7>
|  8>
|  9>                          ****END OF INPUT****

CARTESIAN COORDINATES (ANGSTROEM)
---------------------------------
  C     -2.634275   -0.070861    1.168251
  C     -1.729856   -0.097062    0.197908
  C     -1.298819    1.132560   -0.551565
  C      0.198133    1.406673   -0.318331
  C      1.000535    0.114330   -0.312286
  C      2.175781    0.023475    0.237097
  C      3.352123   -0.064474    0.786782
  C      0.310808   -1.069298   -0.947183
  H      0.334712    1.921487    0.634002
  H     -1.891375    1.998133   -0.252401
  C     -1.010392   -1.365169   -0.216420
  H      0.575826    2.072462   -1.100129
  H     -1.476651    0.979677   -1.621821
  H      3.469178   -0.342560    1.829151
  H      4.256633    0.137205    0.222178
  H      0.959074   -1.944891   -0.939906
  H      0.105587   -0.832711   -1.996866
  H     -0.813791   -1.974079    0.668559
  H     -1.659781   -1.956219   -0.870624
  H     -2.900657   -0.965794    1.720108
  H     -3.142987    0.846248    1.442227

 Total Charge           Charge          ....    0
 Multiplicity           Mult            ....    1
 Number of Electrons    NEL             ....   66
 Basis Dimension        Dim             ....  690

ORBITAL ENERGIES
----------------

  NO   OCC          E(Eh)            E(eV)
   0   2.0000     -11.239842      -305.8517
   1   2.0000     -11.237533      -305.7888
   2   2.0000     -11.235983      -305.7467
   3   2.0000     -11.232253      -305.6452
   4   2.0000     -11.232066      -305.6401
   5   2.0000     -11.228112      -305.5325
   6   2.0000     -11.227606      -305.5187
   7   2.0000     -11.226281      -305.4826
   8   2.0000     -11.209226      -305.0185
   9   2.0000      -1.142609       -31.0920
  10   2.0000      -1.074547       -29.2399
  11   2.0000      -1.016639       -27.6642
  12   2.0000      -1.008734       -27.4490
  13   2.0000      -0.929553       -25.2944
  14   2.0000      -0.857121       -23.3234
  15   2.0000      -0.830382       -22.5958
  16   2.0000      -0.729606       -19.8536
  17   2.0000      -0.672792       -18.3076
  18   2.0000      -0.655142       -17.8273
  19   2.0000      -0.637100       -17.3364
  20   2.0000      -0.623942       -16.9783
  21   2.0000      -0.596870       -16.2417
  22   2.0000      -0.583118       -15.8674
  23   2.0000      -0.564967       -15.3735
  24   2.0000      -0.541499       -14.7349
  25   2.0000      -0.529609       -14.4114
  26   2.0000      -0.510948       -13.9036
  27   2.0000      -0.502377       -13.6704
  28   2.0000      -0.492378       -13.3983
  29   2.0000      -0.453246       -12.3335
  30   2.0000      -0.364879        -9.9289
  31   2.0000      -0.347602        -9.4587
  32   2.0000      -0.343840        -9.3564
  33   0.0000       0.029116         0.7923
  34   0.0000       0.033545         0.9128
  35   0.0000       0.034305         0.9335
  36   0.0000       0.035387         0.9629
  37   0.0000       0.048565         1.3215

MULLIKEN ATOMIC CHARGES
-----------------------
   0 C :   -1.326809
   1 C :    0.890383
   2 C :   -0.496913
   3 C :   -0.845045
   4 C :    0.523109
   5 C :    1.067199
   6 C :   -1.433113
   7 C :   -0.698106
   8 H :    0.142350
   9 H :    0.277036
  10 C :   -0.478014
  11 H :    0.198017
  12 H :    0.124110
  13 H :    0.392878
  14 H :    0.235169
  15 H :    0.241727
  16 H :    0.131610
  17 H :    0.124479
  18 H :    0.275952
  19 H :    0.272413
  20 H :    0.381567
Sum of atomic charges:   -0.0000000

LOEWDIN ATOMIC CHARGES
----------------------
   0 C :    0.552943
   1 C :   -0.116005
   2 C :    0.276460
   3 C :    0.293596
   4 C :   -0.128618
   5 C :    0.145230
   6 C :    0.477550
   7 C :    0.273040
   8 H :   -0.146036
   9 H :   -0.149221
  10 C :    0.294015
  11 H :   -0.139202
  12 H :   -0.140233
  13 H :   -0.244044
  14 H :   -0.245126
  15 H :   -0.147423
  16 H :   -0.142108
  17 H :   -0.146132
  18 H :   -0.137205
  19 H :   -0.213304
  20 H :   -0.218178

  Mayer bond orders larger than 0.100000
B(  0-C ,  1-C ) :   0.9209 B(  0-C , 19-H ) :   1.0499 B(  0-C , 20-H ) :   0.8818
B(  1-C ,  2-C ) :   0.8279 B(  1-C ,  3-C ) :   0.1610 B(  1-C ,  4-C ) :  -0.1227
B(  1-C , 10-C ) :   0.6476 B(  2-C ,  3-C ) :   0.9924 B(  2-C ,  9-H ) :   0.9368
B(  2-C , 12-H ) :   1.1234 B(  3-C ,  4-C ) :   0.9566 B(  3-C ,  7-C ) :   0.1840
B(  3-C ,  8-H ) :   1.0676 B(  3-C , 11-H ) :   1.0265 B(  4-C ,  5-C ) :   1.0555
B(  4-C ,  6-C ) :   0.2532 B(  4-C ,  7-C ) :   0.9125 B(  4-C , 10-C ) :   0.1101
B(  4-C , 15-H ) :   0.1381 B(  5-C ,  6-C ) :   0.8465 B(  5-C , 14-H ) :  -0.1611
B(  6-C , 13-H ) :   0.8678 B(  6-C , 14-H ) :   1.1990 B(  7-C , 10-C ) :   0.9972
B(  7-C , 15-H ) :   0.9399 B(  7-C , 16-H ) :   1.1370 B( 10-C , 17-H ) :   1.1067
B( 10-C , 18-H ) :   0.9811

MP2 TOTAL ENERGY:     -349.333468716 Eh
FINAL SINGLE POINT ENERGY      -349.333468716271

DIPOLE MOMENT
-------------
                                X             Y             Z
Electronic contribution:      2.14770       0.06500       0.02930
Nuclear contribution   :     -2.25252      -0.06295      -0.27382
                        -----------------------------------------
Total Dipole Moment    :     -0.10482       0.00205      -0.24452
                        -----------------------------------------
Magnitude (a.u.)       :      0.26605
Magnitude (Debye)      :      0.67624

Rotational constants in cm-1:     0.102706     0.035264     0.032447
Rotational constants in MHz :  3079.043198  1057.181369   972.737246

                             ****ORCA TERMINATED NORMALLY****
TOTAL RUN TIME: 0 days 0 hours 5 minutes 14 seconds 977 msec
