                         Program Version 4.2.1 -  RELEASE  -
|  1> %pal
|  2>  nprocs 32
|  3> end
|  4> !RI-MP2 aug-cc-pVTZ aug-cc-pVTZ/C TightSCF
|  5> %maxcore 4500
|  6> *xyzfile 0 1  02_16TS.xyz
|  7>
|  8>
|  9>                          ****END OF INPUT****

CARTESIAN COORDINATES (ANGSTROEM)
---------------------------------
  C     -2.327729    1.297197    0.234251
  C     -0.825116    1.344088    0.020390
  C     -0.179804   -0.361552    0.934433
  C     -2.969776    0.029977   -0.306914
  H     -2.516837    1.361011    1.317310
  C     -2.453361   -1.248595    0.346131
  H     -4.046273    0.127114   -0.158677
  H     -2.800718   -0.036176   -1.384605
  C     -0.951132   -1.429773    0.195184
  H     -2.703378   -1.231345    1.420092
  C     -0.299298    1.244554   -1.261244
  H     -0.287282    1.964583    0.728674
  C      1.072216    1.258819   -1.506067
  C      1.216997   -0.293808    1.079000
  C      2.008353    1.449463   -0.521912
  H      1.752216    1.981876    0.383494
  H     -0.682120   -0.056404    1.851609
  H     -0.691109   -2.412093    0.596897
  H     -0.688804   -1.453402   -0.860428
  C      3.483069    1.376095   -0.815474
  H      3.772532    2.297436   -1.332154
  H      3.685870    0.547846   -1.506357
  C      2.158827   -1.171361    0.391794
  C      2.532721   -2.740495   -1.319517
  H      3.337449   -2.168074   -1.781248
  H      1.931923   -3.233859   -2.079441
  H      2.966499   -3.471724   -0.638316
  O      1.633678   -1.876232   -0.623999
  O     -3.001700    2.376670   -0.395566
  O     -3.048504   -2.397141   -0.232926
  O      3.335665   -1.292547    0.696738
  O      4.294657    1.291496    0.331401
  H      4.231312    0.381861    0.660469
  C     -2.645941    3.649985    0.091790
  H     -3.319035    4.368096   -0.373870
  H     -2.765320    3.704692    1.182044
  H     -1.614610    3.912700   -0.166788
  C     -4.399727   -2.603799    0.104108
  H     -4.541488   -2.595153    1.192743
  H     -5.061461   -1.854363   -0.343261
  H     -4.676642   -3.584698   -0.279831
  C      1.740121    0.376903    2.326432
  H      1.760154   -0.327383    3.163953
  H      2.744703    0.772342    2.203034
  H      1.083658    1.203349    2.611826
  H      1.413737    0.955784   -2.492088
  H     -0.957865    0.961821   -2.074573

 Total Charge           Charge          ....    0
 Multiplicity           Mult            ....    1
 Number of Electrons    NEL             ....  162
 Basis Dimension        Dim             .... 1564

ORBITAL ENERGIES
----------------

  NO   OCC          E(Eh)            E(eV)
   0   2.0000     -20.595000      -560.4184
   1   2.0000     -20.562606      -559.5370
   2   2.0000     -20.558160      -559.4160
   3   2.0000     -20.538349      -558.8769
   4   2.0000     -20.526823      -558.5633
   5   2.0000     -11.372370      -309.4579
   6   2.0000     -11.294820      -307.3477
   7   2.0000     -11.284673      -307.0716
   8   2.0000     -11.282229      -307.0050
   9   2.0000     -11.279927      -306.9424
  10   2.0000     -11.274542      -306.7959
  11   2.0000     -11.272789      -306.7482
  12   2.0000     -11.267637      -306.6080
  13   2.0000     -11.260815      -306.4224
  14   2.0000     -11.249343      -306.1102
  15   2.0000     -11.246456      -306.0316
  16   2.0000     -11.243091      -305.9401
  17   2.0000     -11.233176      -305.6703
  18   2.0000     -11.224220      -305.4265
  19   2.0000     -11.223888      -305.4175
  20   2.0000     -11.218680      -305.2758
  21   2.0000      -1.456349       -39.6293
  22   2.0000      -1.384456       -37.6730
  23   2.0000      -1.379869       -37.5481
  24   2.0000      -1.354534       -36.8587
  25   2.0000      -1.342065       -36.5194
  26   2.0000      -1.144562       -31.1451
  27   2.0000      -1.099201       -29.9108
  28   2.0000      -1.083137       -29.4737
  29   2.0000      -1.032707       -28.1014
  30   2.0000      -1.009521       -27.4705
  31   2.0000      -0.976875       -26.5821
  32   2.0000      -0.958616       -26.0853
  33   2.0000      -0.927680       -25.2435
  34   2.0000      -0.925578       -25.1863
  35   2.0000      -0.888097       -24.1663
  36   2.0000      -0.861886       -23.4531
  37   2.0000      -0.836533       -22.7632
  38   2.0000      -0.820253       -22.3202
  39   2.0000      -0.796377       -21.6705
  40   2.0000      -0.755555       -20.5597
  41   2.0000      -0.729264       -19.8443
  42   2.0000      -0.709501       -19.3065
  43   2.0000      -0.693121       -18.8608
  44   2.0000      -0.688652       -18.7392
  45   2.0000      -0.676665       -18.4130
  46   2.0000      -0.671460       -18.2714
  47   2.0000      -0.661855       -18.0100
  48   2.0000      -0.655355       -17.8331
  49   2.0000      -0.640926       -17.4405
  50   2.0000      -0.638598       -17.3771
  51   2.0000      -0.634125       -17.2554
  52   2.0000      -0.620702       -16.8902
  53   2.0000      -0.612562       -16.6687
  54   2.0000      -0.610919       -16.6239
  55   2.0000      -0.600577       -16.3425
  56   2.0000      -0.594270       -16.1709
  57   2.0000      -0.587759       -15.9937
  58   2.0000      -0.573725       -15.6119
  59   2.0000      -0.563973       -15.3465
  60   2.0000      -0.558416       -15.1953
  61   2.0000      -0.540891       -14.7184
  62   2.0000      -0.534100       -14.5336
  63   2.0000      -0.533231       -14.5099
  64   2.0000      -0.531645       -14.4668
  65   2.0000      -0.521794       -14.1987
  66   2.0000      -0.512868       -13.9559
  67   2.0000      -0.507820       -13.8185
  68   2.0000      -0.502769       -13.6810
  69   2.0000      -0.495462       -13.4822
  70   2.0000      -0.491989       -13.3877
  71   2.0000      -0.468574       -12.7506
  72   2.0000      -0.462980       -12.5983
  73   2.0000      -0.458958       -12.4889
  74   2.0000      -0.456736       -12.4284
  75   2.0000      -0.445955       -12.1351
  76   2.0000      -0.439629       -11.9629
  77   2.0000      -0.431460       -11.7406
  78   2.0000      -0.421841       -11.4789
  79   2.0000      -0.340032        -9.2527
  80   2.0000      -0.288978        -7.8635
  81   0.0000       0.021467         0.5841
  82   0.0000       0.026594         0.7237
  83   0.0000       0.028759         0.7826
  84   0.0000       0.031621         0.8605
  85   0.0000       0.039202         1.0667

MULLIKEN ATOMIC CHARGES
-----------------------
   0 C :    0.822727
   1 C :    0.573557
   2 C :   -0.475756
   3 C :   -0.681996
   4 H :    0.284445
   5 C :    0.454247
   6 H :    0.334303
   7 H :    0.010662
   8 C :   -0.371189
   9 H :    0.146368
  10 C :   -0.583030
  11 H :    0.449279
  12 C :   -1.054181
  13 C :    1.474119
  14 C :    0.433932
  15 H :   -0.051115
  16 H :    0.262745
  17 H :    0.413289
  18 H :    0.143601
  19 C :   -0.182642
  20 H :    0.360539
  21 H :    0.297322
  22 C :    1.129155
  23 C :   -1.173887
  24 H :    0.424836
  25 H :    0.322720
  26 H :    0.392587
  27 O :   -0.136703
  28 O :   -0.961317
  29 O :   -0.900930
  30 O :   -1.456944
  31 O :   -0.885058
  32 H :    0.337594
  33 C :   -1.082477
  34 H :    0.358971
  35 H :    0.326252
  36 H :    0.393621
  37 C :   -1.045865
  38 H :    0.344006
  39 H :    0.364692
  40 H :    0.332582
  41 C :   -1.371381
  42 H :    0.215629
  43 H :    0.340577
  44 H :    0.268649
  45 H :    0.028494
  46 H :    0.372970
Sum of atomic charges:    0.0000000

LOEWDIN ATOMIC CHARGES
----------------------
   0 C :   -0.266169
   1 C :    0.127469
   2 C :    0.153648
   3 C :    0.305012
   4 H :   -0.130542
   5 C :   -0.261271
   6 H :   -0.151417
   7 H :   -0.139563
   8 C :    0.287582
   9 H :   -0.128862
  10 C :    0.223756
  11 H :   -0.179742
  12 C :    0.213312
  13 C :   -0.121266
  14 C :    0.211725
  15 H :   -0.198722
  16 H :   -0.163543
  17 H :   -0.132760
  18 H :   -0.168972
  19 C :    0.028500
  20 H :   -0.152019
  21 H :   -0.157956
  22 C :   -0.822564
  23 C :    0.365008
  24 H :   -0.179134
  25 H :   -0.180086
  26 H :   -0.177178
  27 O :    0.593747
  28 O :    0.586958
  29 O :    0.590361
  30 O :    0.534698
  31 O :    0.841387
  32 H :   -0.665162
  33 C :    0.329119
  34 H :   -0.181053
  35 H :   -0.170604
  36 H :   -0.179877
  37 C :    0.328748
  38 H :   -0.172620
  39 H :   -0.183759
  40 H :   -0.182429
  41 C :    0.562527
  42 H :   -0.145557
  43 H :   -0.202646
  44 H :   -0.162304
  45 H :   -0.165916
  46 H :   -0.159863

  Mayer bond orders larger than 0.100000
B(  0-C ,  1-C ) :   1.0509 B(  0-C ,  2-C ) :   0.2129 B(  0-C ,  3-C ) :   0.8441
B(  0-C ,  4-H ) :   1.0402 B(  0-C , 10-C ) :  -0.2616 B(  0-C , 11-H ) :  -0.1572
B(  0-C , 13-C ) :  -0.1122 B(  0-C , 33-C ) :  -0.2260 B(  1-C ,  2-C ) :   0.2987
B(  1-C ,  3-C ) :   0.1698 B(  1-C , 10-C ) :   0.8834 B(  1-C , 11-H ) :   0.7831
B(  1-C , 13-C ) :   0.1069 B(  1-C , 15-H ) :  -0.1751 B(  1-C , 28-O ) :   0.2171
B(  1-C , 46-H ) :  -0.1737 B(  2-C ,  8-C ) :   0.9998 B(  2-C , 13-C ) :   1.3663
B(  2-C , 14-C ) :   0.1450 B(  2-C , 15-H ) :   0.1128 B(  2-C , 16-H ) :   1.0761
B(  2-C , 22-C ) :   0.3573 B(  2-C , 41-C ) :   0.1205 B(  3-C ,  5-C ) :   0.8889
B(  3-C ,  6-H ) :   0.8466 B(  3-C ,  7-H ) :   1.1088 B(  3-C , 28-O ) :   0.1187
B(  3-C , 29-O ) :   0.2869 B(  4-H , 28-O ) :  -0.1775 B(  5-C ,  8-C ) :   1.0727
B(  5-C ,  9-H ) :   1.2555 B(  5-C , 16-H ) :  -0.1942 B(  5-C , 17-H ) :  -0.1284
B(  5-C , 18-H ) :   0.1027 B(  5-C , 29-O ) :   0.2419 B(  5-C , 37-C ) :  -0.2076
B(  8-C , 17-H ) :   0.7315 B(  8-C , 18-H ) :   1.2187 B(  8-C , 27-O ) :  -0.1695
B(  8-C , 29-O ) :  -0.1490 B(  9-H , 29-O ) :  -0.1611 B( 10-C , 11-H ) :  -0.2402
B( 10-C , 12-C ) :   0.7153 B( 10-C , 13-C ) :   0.2064 B( 10-C , 14-C ) :   0.2557
B( 10-C , 15-H ) :   0.1893 B( 10-C , 45-H ) :  -0.1819 B( 10-C , 46-H ) :   0.9327
B( 11-H , 15-H ) :  -0.1080 B( 12-C , 14-C ) :   1.1547 B( 12-C , 15-H ) :  -0.1043
B( 12-C , 45-H ) :   1.3780 B( 12-C , 46-H ) :  -0.2795 B( 13-C , 14-C ) :   0.1989
B( 13-C , 16-H ) :  -0.2369 B( 13-C , 22-C ) :   0.5853 B( 13-C , 30-O ) :  -0.4197
B( 13-C , 31-O ) :   0.2015 B( 13-C , 42-H ) :  -0.3071 B( 13-C , 44-H ) :  -0.1463
B( 14-C , 15-H ) :   1.2639 B( 14-C , 19-C ) :   0.4977 B( 14-C , 20-H ) :  -0.1604
B( 14-C , 21-H ) :  -0.1027 B( 14-C , 22-C ) :   0.1113 B( 19-C , 20-H ) :   1.0001
B( 19-C , 21-H ) :   1.0921 B( 19-C , 31-O ) :   0.7000 B( 22-C , 27-O ) :   0.8211
B( 22-C , 30-O ) :   0.4233 B( 23-C , 24-H ) :   0.8372 B( 23-C , 25-H ) :   0.9653
B( 23-C , 26-H ) :   0.8977 B( 23-C , 27-O ) :   0.9518 B( 28-O , 33-C ) :   1.2073
B( 29-O , 37-C ) :   1.1541 B( 30-O , 41-C ) :   0.1988 B( 31-O , 32-H ) :   0.7334
B( 33-C , 34-H ) :   0.9599 B( 33-C , 35-H ) :   0.9215 B( 33-C , 36-H ) :   0.8437
B( 37-C , 38-H ) :   0.8812 B( 37-C , 39-H ) :   0.8657 B( 37-C , 40-H ) :   1.0035
B( 41-C , 42-H ) :   1.1626 B( 41-C , 43-H ) :   0.9651 B( 41-C , 44-H ) :   1.1345

MP2 TOTAL ENERGY:     -999.539689601 Eh
FINAL SINGLE POINT ENERGY      -999.539689601157

DIPOLE MOMENT
-------------
                                X             Y             Z
Electronic contribution:      7.35526      -2.08844      -1.96768
Nuclear contribution   :     -8.79182       2.12695       1.87310
                        -----------------------------------------
Total Dipole Moment    :     -1.43655       0.03851      -0.09457
                        -----------------------------------------
Magnitude (a.u.)       :      1.44018
Magnitude (Debye)      :      3.66064

Rotational constants in cm-1:     0.014102     0.007481     0.005723
Rotational constants in MHz :   422.781932   224.268374   171.583975

                             ****ORCA TERMINATED NORMALLY****
TOTAL RUN TIME: 0 days 1 hours 32 minutes 1 seconds 313 msec
