                         Program Version 4.2.1 -  RELEASE  -
|  1> %pal
|  2>  nprocs 32
|  3> end
|  4> !RI-MP2 aug-cc-pVTZ aug-cc-pVTZ/C TightSCF
|  5> %maxcore 4500
|  6> *xyzfile 0 2  04_58R2.xyz
|  7>
|  8>
|  9>                          ****END OF INPUT****

CARTESIAN COORDINATES (ANGSTROEM)
---------------------------------
  C     -2.892230    0.927183    0.000029
  C     -1.874121   -0.107379    0.000028
  H     -3.925772    0.614538    0.000099
  H     -2.645818    1.981184   -0.000045
  O     -2.147065   -1.302134    0.000067
  N     -0.578950    0.325474   -0.000042
  H     -0.340357    1.305841   -0.000047
  C      0.505888   -0.614717   -0.000036
  C      1.811387    0.129123   -0.000018
  H      0.470982   -1.272607    0.873769
  H      0.471006   -1.272598   -0.873850
  O      1.922221    1.325940   -0.000011
  O      2.856481   -0.707085   -0.000012
  H      3.663966   -0.173706   -0.000002

 Total Charge           Charge          ....    0
 Multiplicity           Mult            ....    2
 Number of Electrons    NEL             ....   61
 Basis Dimension        Dim             ....  506

ORBITAL ENERGIES
----------------
                 SPIN UP ORBITALS
  NO   OCC          E(Eh)            E(eV)
   0   1.0000     -20.632152      -561.4294
   1   1.0000     -20.570509      -559.7520
   2   1.0000     -20.533597      -558.7476
   3   1.0000     -15.590673      -424.2438
   4   1.0000     -11.406030      -310.3739
   5   1.0000     -11.352275      -308.9111
   6   1.0000     -11.293605      -307.3146
   7   1.0000     -11.269918      -306.6701
   8   1.0000      -1.490930       -40.5703
   9   1.0000      -1.397505       -38.0280
  10   1.0000      -1.386860       -37.7384
  11   1.0000      -1.246456       -33.9178
  12   1.0000      -1.056605       -28.7517
  13   1.0000      -0.991088       -26.9689
  14   1.0000      -0.845183       -22.9986
  15   1.0000      -0.806171       -21.9370
  16   1.0000      -0.730541       -19.8790
  17   1.0000      -0.723832       -19.6965
  18   1.0000      -0.686402       -18.6780
  19   1.0000      -0.676594       -18.4111
  20   1.0000      -0.667233       -18.1563
  21   1.0000      -0.624945       -17.0056
  22   1.0000      -0.606651       -16.5078
  23   1.0000      -0.590522       -16.0689
  24   1.0000      -0.585182       -15.9236
  25   1.0000      -0.567455       -15.4412
  26   1.0000      -0.505555       -13.7568
  27   1.0000      -0.479554       -13.0493
  28   1.0000      -0.448895       -12.2151
  29   1.0000      -0.431903       -11.7527
  30   1.0000      -0.397146       -10.8069
  31   0.0000       0.024843         0.6760
  32   0.0000       0.029271         0.7965
  33   0.0000       0.045167         1.2291
  34   0.0000       0.046427         1.2634
  35   0.0000       0.047073         1.2809

                 SPIN DOWN ORBITALS
  NO   OCC          E(Eh)            E(eV)
   0   1.0000     -20.632145      -561.4292
   1   1.0000     -20.570541      -559.7529
   2   1.0000     -20.524076      -558.4885
   3   1.0000     -15.589753      -424.2187
   4   1.0000     -11.406008      -310.3732
   5   1.0000     -11.357457      -309.0521
   6   1.0000     -11.293725      -307.3179
   7   1.0000     -11.248271      -306.0810
   8   1.0000      -1.490930       -40.5703
   9   1.0000      -1.388287       -37.7772
  10   1.0000      -1.380051       -37.5531
  11   1.0000      -1.240183       -33.7471
  12   1.0000      -1.035741       -28.1839
  13   1.0000      -0.941891       -25.6302
  14   1.0000      -0.839160       -22.8347
  15   1.0000      -0.803477       -21.8637
  16   1.0000      -0.728987       -19.8368
  17   1.0000      -0.717140       -19.5144
  18   1.0000      -0.684882       -18.6366
  19   1.0000      -0.669998       -18.2316
  20   1.0000      -0.662374       -18.0241
  21   1.0000      -0.615665       -16.7531
  22   1.0000      -0.601200       -16.3595
  23   1.0000      -0.584415       -15.9028
  24   1.0000      -0.579088       -15.7578
  25   1.0000      -0.530731       -14.4419
  26   1.0000      -0.505184       -13.7467
  27   1.0000      -0.479251       -13.0411
  28   1.0000      -0.436637       -11.8815
  29   1.0000      -0.383998       -10.4491
  30   0.0000       0.025025         0.6810
  31   0.0000       0.029802         0.8110
  32   0.0000       0.040509         1.1023
  33   0.0000       0.045271         1.2319
  34   0.0000       0.047149         1.2830

MULLIKEN ATOMIC CHARGES AND SPIN POPULATIONS
--------------------------------------------
   0 C :   -0.878862    1.094736
   1 C :    0.371414   -0.202883
   2 H :    0.406471   -0.085517
   3 H :    0.457651   -0.036438
   4 O :   -0.793637    0.215762
   5 N :   -0.052593    0.027260
   6 H :    0.179136   -0.003132
   7 C :    0.187556   -0.010957
   8 C :    0.423335    0.001152
   9 H :    0.314363    0.000202
  10 H :    0.314352    0.000202
  11 O :   -0.754262   -0.000556
  12 O :   -0.444073    0.000229
  13 H :    0.269150   -0.000062
Sum of atomic charges         :   -0.0000000

LOEWDIN ATOMIC CHARGES AND SPIN POPULATIONS
-------------------------------------------
   0 C :    0.606376    0.522138
   1 C :   -0.740062    0.095351
   2 H :   -0.222615    0.110810
   3 H :   -0.219820    0.115767
   4 O :    0.434898    0.151624
   5 N :    0.516234    0.006012
   6 H :   -0.332454   -0.001594
   7 C :    0.160777    0.000254
   8 C :   -0.780658   -0.000041
   9 H :   -0.141479    0.000008
  10 H :   -0.141475    0.000008
  11 O :    0.474706   -0.000527
  12 O :    0.845507    0.000199
  13 H :   -0.459938   -0.000008

  Mayer bond orders larger than 0.100000
B(  0-C ,  1-C ) :   0.8121 B(  0-C ,  2-H ) :   0.8751 B(  0-C ,  3-H ) :   0.8171
B(  0-C ,  5-N ) :  -0.1352 B(  1-C ,  4-O ) :   1.4528 B(  1-C ,  5-N ) :   1.1092
B(  1-C ,  7-C ) :  -0.1325 B(  5-N ,  6-H ) :   0.9493 B(  5-N ,  7-C ) :   0.7045
B(  7-C ,  8-C ) :   0.5584 B(  7-C ,  9-H ) :   0.9207 B(  7-C , 10-H ) :   0.9207
B(  7-C , 11-O ) :   0.1108 B(  8-C , 11-O ) :   1.3789 B(  8-C , 12-O ) :   1.0108
B( 12-O , 13-H ) :   0.9529

MP2 TOTAL ENERGY:     -435.715042114 Eh
FINAL SINGLE POINT ENERGY      -435.715042113701

DIPOLE MOMENT
-------------
                                X             Y             Z
Electronic contribution:      2.84015      -0.39442       0.00004
Nuclear contribution   :     -2.23795       1.15829      -0.00007
                        -----------------------------------------
Total Dipole Moment    :      0.60220       0.76387      -0.00004
                        -----------------------------------------
Magnitude (a.u.)       :      0.97270
Magnitude (Debye)      :      2.47240

Rotational constants in cm-1:     0.186112     0.034286     0.029106
Rotational constants in MHz :  5579.483186  1027.875128   872.587237

                             ****ORCA TERMINATED NORMALLY****
TOTAL RUN TIME: 0 days 0 hours 4 minutes 9 seconds 798 msec
