                         Program Version 4.2.1 -  RELEASE  -
|  1> %pal
|  2>  nprocs 32
|  3> end
|  4> !RI-MP2 aug-cc-pVTZ aug-cc-pVTZ/C TightSCF
|  5> %maxcore 4500
|  6> *xyzfile 1 1  10_16TS.xyz
|  7>
|  8>
|  9>                          ****END OF INPUT****

CARTESIAN COORDINATES (ANGSTROEM)
---------------------------------
  C     -2.217554    1.179828    0.709348
  C     -2.496638    1.606990   -0.710209
  C     -3.283965    0.603421   -1.547214
  C     -2.597709   -0.750665   -1.673304
  C     -2.490539   -1.475560   -0.335395
  C     -1.507480   -0.903212    0.651502
  H     -3.438636    1.025943   -2.541418
  H     -1.546460    1.837715   -1.202144
  H     -3.054049    2.547733   -0.667731
  H     -3.042102    0.754927    1.276263
  H     -1.603912   -0.634702   -2.118497
  H     -3.165281   -1.386280   -2.354621
  H     -2.174823   -2.514098   -0.487056
  H     -3.465997   -1.525576    0.153247
  H     -4.281535    0.465212   -1.116148
  C     -1.628963   -1.372411    2.077888
  H     -0.895366   -0.899448    2.727786
  H     -1.465177   -2.453140    2.103866
  H     -2.634978   -1.185126    2.450535
  C     -1.179281    1.710126    1.404305
  H     -1.042168    1.520313    2.462093
  H     -0.510790    2.428744    0.951957
  N     -0.233449   -0.779741    0.222977
  N      0.508678    0.175826    0.329242
  C      1.878067    0.049699    0.044702
  C      2.483072   -1.167033   -0.284267
  C      2.616897    1.228280    0.122912
  C      3.838607   -1.188347   -0.536518
  H      1.888682   -2.069574   -0.341589
  C      3.977134    1.193451   -0.132255
  H      2.118739    2.153107    0.383529
  C      4.583543   -0.011255   -0.460787
  H      4.325374   -2.120050   -0.794076
  H      4.563200    2.101175   -0.075228
  H      5.647529   -0.039343   -0.660549

 Total Charge           Charge          ....    1
 Multiplicity           Mult            ....    1
 Number of Electrons    NEL             ....  116
 Basis Dimension        Dim             .... 1173

ORBITAL ENERGIES
----------------

  NO   OCC          E(Eh)            E(eV)
   0   2.0000     -15.813355      -430.3033
   1   2.0000     -15.796618      -429.8478
   2   2.0000     -11.511141      -313.2341
   3   2.0000     -11.412242      -310.5429
   4   2.0000     -11.401277      -310.2445
   5   2.0000     -11.389142      -309.9143
   6   2.0000     -11.386488      -309.8421
   7   2.0000     -11.383510      -309.7611
   8   2.0000     -11.373169      -309.4797
   9   2.0000     -11.370032      -309.3943
  10   2.0000     -11.364264      -309.2373
  11   2.0000     -11.356147      -309.0165
  12   2.0000     -11.354915      -308.9829
  13   2.0000     -11.354868      -308.9817
  14   2.0000     -11.354273      -308.9655
  15   2.0000     -11.344170      -308.6906
  16   2.0000      -1.566915       -42.6379
  17   2.0000      -1.328068       -36.1386
  18   2.0000      -1.278009       -34.7764
  19   2.0000      -1.234989       -33.6058
  20   2.0000      -1.198526       -32.6136
  21   2.0000      -1.174002       -31.9462
  22   2.0000      -1.150166       -31.2976
  23   2.0000      -1.115298       -30.3488
  24   2.0000      -1.098224       -29.8842
  25   2.0000      -1.039504       -28.2863
  26   2.0000      -0.988935       -26.9103
  27   2.0000      -0.960175       -26.1277
  28   2.0000      -0.942085       -25.6354
  29   2.0000      -0.918787       -25.0015
  30   2.0000      -0.884368       -24.0649
  31   2.0000      -0.849176       -23.1073
  32   2.0000      -0.814665       -22.1682
  33   2.0000      -0.804451       -21.8902
  34   2.0000      -0.801103       -21.7991
  35   2.0000      -0.790382       -21.5074
  36   2.0000      -0.772052       -21.0086
  37   2.0000      -0.754590       -20.5334
  38   2.0000      -0.740735       -20.1564
  39   2.0000      -0.737957       -20.0808
  40   2.0000      -0.732024       -19.9194
  41   2.0000      -0.718751       -19.5582
  42   2.0000      -0.712283       -19.3822
  43   2.0000      -0.707443       -19.2505
  44   2.0000      -0.698947       -19.0193
  45   2.0000      -0.680126       -18.5072
  46   2.0000      -0.664874       -18.0921
  47   2.0000      -0.644297       -17.5322
  48   2.0000      -0.641811       -17.4646
  49   2.0000      -0.626087       -17.0367
  50   2.0000      -0.619351       -16.8534
  51   2.0000      -0.609316       -16.5803
  52   2.0000      -0.600610       -16.3434
  53   2.0000      -0.598062       -16.2741
  54   2.0000      -0.549676       -14.9574
  55   2.0000      -0.503672       -13.7056
  56   2.0000      -0.466207       -12.6861
  57   2.0000      -0.462526       -12.5860
  58   0.0000      -0.104983        -2.8567
  59   0.0000      -0.077766        -2.1161
  60   0.0000      -0.061673        -1.6782
  61   0.0000      -0.054379        -1.4797
  62   0.0000      -0.051164        -1.3923

MULLIKEN ATOMIC CHARGES
-----------------------
   0 C :    0.162706
   1 C :   -0.534880
   2 C :   -0.463739
   3 C :   -0.591395
   4 C :   -0.625123
   5 C :    1.328932
   6 H :    0.289850
   7 H :    0.212752
   8 H :    0.312260
   9 H :    0.513697
  10 H :    0.203601
  11 H :    0.315759
  12 H :    0.307537
  13 H :    0.272765
  14 H :    0.113017
  15 C :   -1.246037
  16 H :    0.327592
  17 H :    0.263693
  18 H :    0.233685
  19 C :   -1.224285
  20 H :    0.248595
  21 H :    0.535810
  22 N :   -1.403438
  23 N :    1.160924
  24 C :    0.799070
  25 C :   -0.153885
  26 C :   -0.558709
  27 C :   -0.969893
  28 H :    0.398351
  29 C :   -0.825356
  30 H :    0.429261
  31 C :   -0.292779
  32 H :    0.568840
  33 H :    0.484275
  34 H :    0.406545
Sum of atomic charges:    1.0000000

LOEWDIN ATOMIC CHARGES
----------------------
   0 C :    0.159441
   1 C :    0.293731
   2 C :    0.307415
   3 C :    0.316065
   4 C :    0.319670
   5 C :   -0.237850
   6 H :   -0.128737
   7 H :   -0.139177
   8 H :   -0.127687
   9 H :   -0.166796
  10 H :   -0.133365
  11 H :   -0.126709
  12 H :   -0.113730
  13 H :   -0.128689
  14 H :   -0.130478
  15 C :    0.634819
  16 H :   -0.153868
  17 H :   -0.129980
  18 H :   -0.145949
  19 C :    0.562887
  20 H :   -0.158933
  21 H :   -0.173873
  22 N :    0.281316
  23 N :    0.291398
  24 C :   -0.266173
  25 C :    0.229162
  26 C :    0.217333
  27 C :    0.229878
  28 H :   -0.174990
  29 C :    0.229723
  30 H :   -0.170377
  31 C :    0.236483
  32 H :   -0.169508
  33 H :   -0.170181
  34 H :   -0.162271

  Mayer bond orders larger than 0.100000
B(  0-C ,  1-C ) :   0.9931 B(  0-C ,  2-C ) :   0.1032 B(  0-C ,  5-C ) :   0.2313
B(  0-C ,  9-H ) :   0.6308 B(  0-C , 19-C ) :   1.3016 B(  1-C ,  2-C ) :   0.9044
B(  1-C ,  7-H ) :   1.0303 B(  1-C ,  8-H ) :   0.9273 B(  2-C ,  3-C ) :   0.8885
B(  2-C ,  6-H ) :   0.9319 B(  2-C , 14-H ) :   1.0884 B(  3-C ,  4-C ) :   0.9586
B(  3-C , 10-H ) :   1.0496 B(  3-C , 11-H ) :   0.9245 B(  4-C ,  5-C ) :   0.5220
B(  4-C , 12-H ) :   0.9730 B(  4-C , 13-H ) :   1.0011 B(  4-C , 22-N ) :   0.2432
B(  4-C , 23-N ) :  -0.1301 B(  5-C , 15-C ) :   0.2208 B(  5-C , 18-H ) :  -0.1436
B(  5-C , 19-C ) :   0.1120 B(  5-C , 22-N ) :   1.4106 B(  5-C , 24-C ) :   0.1125
B( 15-C , 16-H ) :   0.9539 B( 15-C , 17-H ) :   1.0842 B( 15-C , 18-H ) :   1.1253
B( 19-C , 20-H ) :   1.1360 B( 19-C , 21-H ) :   0.6809 B( 19-C , 22-N ) :   0.1212
B( 22-N , 23-N ) :  -0.4583 B( 22-N , 24-C ) :   0.2318 B( 22-N , 25-C ) :   0.4009
B( 22-N , 26-C ) :   0.1940 B( 22-N , 28-H ) :  -0.1279 B( 23-N , 25-C ) :  -1.0268
B( 23-N , 26-C ) :  -0.5691 B( 23-N , 27-C ) :   0.2004 B( 23-N , 29-C ) :   0.2074
B( 24-C , 25-C ) :   0.8254 B( 24-C , 26-C ) :   0.8583 B( 24-C , 27-C ) :  -0.1124
B( 24-C , 29-C ) :  -0.2233 B( 24-C , 31-C ) :  -0.1309 B( 25-C , 26-C ) :  -0.2676
B( 25-C , 27-C ) :   1.2466 B( 25-C , 28-H ) :   1.0635 B( 25-C , 30-H ) :   0.1431
B( 25-C , 34-H ) :   0.1263 B( 26-C , 29-C ) :   1.3900 B( 26-C , 30-H ) :   0.8514
B( 27-C , 29-C ) :   0.1226 B( 27-C , 31-C ) :   1.1898 B( 27-C , 32-H ) :   0.5716
B( 27-C , 34-H ) :  -0.1217 B( 29-C , 30-H ) :  -0.1349 B( 29-C , 31-C ) :   1.2217
B( 29-C , 33-H ) :   0.7429 B( 29-C , 34-H ) :  -0.1487 B( 31-C , 34-H ) :   0.9104

MP2 TOTAL ENERGY:     -652.738575011 Eh
FINAL SINGLE POINT ENERGY      -652.738575010573

DIPOLE MOMENT
-------------
                                X             Y             Z
Electronic contribution:     13.08778      -0.23899       0.63621
Nuclear contribution   :    -14.05857       0.00407       0.15661
                        -----------------------------------------
Total Dipole Moment    :     -0.97079      -0.23492       0.79282
                        -----------------------------------------
Magnitude (a.u.)       :      1.27522
Magnitude (Debye)      :      3.24135

Rotational constants in cm-1:     0.033604     0.009898     0.009489
Rotational constants in MHz :  1007.408238   296.747782   284.480707

                             ****ORCA TERMINATED NORMALLY****
TOTAL RUN TIME: 0 days 0 hours 39 minutes 21 seconds 138 msec
