                         Program Version 4.2.1 -  RELEASE  -
|  1> %pal
|  2>  nprocs 32
|  3> end
|  4> !RI-MP2 aug-cc-pVTZ aug-cc-pVTZ/C TightSCF
|  5> %maxcore 4500
|  6> *xyzfile 0 1  06_5R2.xyz
|  7>
|  8>
|  9>                          ****END OF INPUT****

CARTESIAN COORDINATES (ANGSTROEM)
---------------------------------
  B      0.000034   -0.000008   -0.000001
  Cl    -0.926831   -1.475182    0.000000
  Cl    -0.814155    1.540236    0.000000
  Cl     1.740976   -0.065052    0.000000

 Total Charge           Charge          ....    0
 Multiplicity           Mult            ....    1
 Number of Electrons    NEL             ....   56
 Basis Dimension        Dim             ....  196

ORBITAL ENERGIES
----------------

  NO   OCC          E(Eh)            E(eV)
   0   2.0000    -104.862014     -2853.4405
   1   2.0000    -104.862007     -2853.4403
   2   2.0000    -104.862005     -2853.4402
   3   2.0000     -10.588501      -288.1278
   4   2.0000     -10.588495      -288.1276
   5   2.0000     -10.588483      -288.1273
   6   2.0000      -8.055095      -219.1903
   7   2.0000      -8.055088      -219.1901
   8   2.0000      -8.055085      -219.1900
   9   2.0000      -8.053834      -219.1560
  10   2.0000      -8.053827      -219.1558
  11   2.0000      -8.053824      -219.1557
  12   2.0000      -8.053528      -219.1476
  13   2.0000      -8.053521      -219.1474
  14   2.0000      -8.053518      -219.1474
  15   2.0000      -7.774944      -211.5670
  16   2.0000      -1.181520       -32.1508
  17   2.0000      -1.120591       -30.4928
  18   2.0000      -1.120580       -30.4925
  19   2.0000      -0.706413       -19.2225
  20   2.0000      -0.611960       -16.6523
  21   2.0000      -0.611954       -16.6521
  22   2.0000      -0.556620       -15.1464
  23   2.0000      -0.493847       -13.4383
  24   2.0000      -0.493844       -13.4382
  25   2.0000      -0.484564       -13.1857
  26   2.0000      -0.484557       -13.1855
  27   2.0000      -0.459032       -12.4909
  28   0.0000       0.040057         1.0900
  29   0.0000       0.046311         1.2602
  30   0.0000       0.049057         1.3349
  31   0.0000       0.049058         1.3349
  32   0.0000       0.074216         2.0195

MULLIKEN ATOMIC CHARGES
-----------------------
   0 B :    0.023450
   1 Cl:   -0.007825
   2 Cl:   -0.007839
   3 Cl:   -0.007786
Sum of atomic charges:    0.0000000

LOEWDIN ATOMIC CHARGES
----------------------
   0 B :   -2.702720
   1 Cl:    0.900897
   2 Cl:    0.900882
   3 Cl:    0.900942

  Mayer bond orders larger than 0.100000
B(  0-B ,  1-Cl) :   1.3147 B(  0-B ,  2-Cl) :   1.3146 B(  0-B ,  3-Cl) :   1.3147

MP2 TOTAL ENERGY:    -1404.049050735 Eh
FINAL SINGLE POINT ENERGY     -1404.049050734532

DIPOLE MOMENT
-------------
                                X             Y             Z
Electronic contribution:      0.00012      -0.00003      -0.00000
Nuclear contribution   :     -0.00001       0.00000       0.00000
                        -----------------------------------------
Total Dipole Moment    :      0.00011      -0.00003      -0.00000
                        -----------------------------------------
Magnitude (a.u.)       :      0.00011
Magnitude (Debye)      :      0.00028

Rotational constants in cm-1:     0.104441     0.104438     0.052220
Rotational constants in MHz :  3131.076019  3130.979140  1565.513789

                             ****ORCA TERMINATED NORMALLY****
TOTAL RUN TIME: 0 days 0 hours 0 minutes 19 seconds 256 msec
