                         Program Version 4.2.1 -  RELEASE  -
|  1> %pal
|  2>  nprocs 32
|  3> end
|  4> !RI-MP2 aug-cc-pVTZ aug-cc-pVTZ/C TightSCF
|  5> %maxcore 4500
|  6> *xyzfile 0 1  05_10R2.xyz
|  7>
|  8>
|  9>                          ****END OF INPUT****

CARTESIAN COORDINATES (ANGSTROEM)
---------------------------------
  C     -0.515418    0.416692   -0.000034
  C      0.515418   -0.416693    0.000019
  C      1.902065    0.107210   -0.000025
  C     -1.902065   -0.107210    0.000015
  O      2.800639   -0.892420    0.000068
  H      3.682606   -0.494138    0.000035
  O      2.211167    1.268097   -0.000130
  O     -2.211168   -1.268097    0.000035
  O     -2.800639    0.892420    0.000035
  H     -3.682606    0.494138    0.000069
  H     -0.370633    1.489895   -0.000109
  H      0.370633   -1.489895    0.000094

 Total Charge           Charge          ....    0
 Multiplicity           Mult            ....    1
 Number of Electrons    NEL             ....   60
 Basis Dimension        Dim             ....  460

ORBITAL ENERGIES
----------------

  NO   OCC          E(Eh)            E(eV)
   0   2.0000     -20.629666      -561.3617
   1   2.0000     -20.629665      -561.3617
   2   2.0000     -20.564869      -559.5985
   3   2.0000     -20.564869      -559.5985
   4   2.0000     -11.406210      -310.3787
   5   2.0000     -11.406208      -310.3787
   6   2.0000     -11.282719      -307.0184
   7   2.0000     -11.280907      -306.9691
   8   2.0000      -1.486061       -40.4378
   9   2.0000      -1.485194       -40.4142
  10   2.0000      -1.381395       -37.5897
  11   2.0000      -1.381010       -37.5792
  12   2.0000      -1.120127       -30.4802
  13   2.0000      -0.968620       -26.3575
  14   2.0000      -0.868270       -23.6268
  15   2.0000      -0.773930       -21.0597
  16   2.0000      -0.751874       -20.4595
  17   2.0000      -0.724785       -19.7224
  18   2.0000      -0.712209       -19.3802
  19   2.0000      -0.684002       -18.6126
  20   2.0000      -0.655571       -17.8390
  21   2.0000      -0.647402       -17.6167
  22   2.0000      -0.618351       -16.8262
  23   2.0000      -0.612756       -16.6739
  24   2.0000      -0.579031       -15.7562
  25   2.0000      -0.509964       -13.8768
  26   2.0000      -0.502754       -13.6806
  27   2.0000      -0.476582       -12.9685
  28   2.0000      -0.476388       -12.9632
  29   2.0000      -0.419367       -11.4115
  30   0.0000       0.026215         0.7133
  31   0.0000       0.030361         0.8262
  32   0.0000       0.036869         1.0033
  33   0.0000       0.046416         1.2631
  34   0.0000       0.048171         1.3108

MULLIKEN ATOMIC CHARGES
-----------------------
   0 C :   -0.045462
   1 C :   -0.045465
   2 C :    0.493972
   3 C :    0.493972
   4 O :   -0.422985
   5 H :    0.257940
   6 O :   -0.769331
   7 O :   -0.769331
   8 O :   -0.422985
   9 H :    0.257940
  10 H :    0.485867
  11 H :    0.485869
Sum of atomic charges:    0.0000000

LOEWDIN ATOMIC CHARGES
----------------------
   0 C :    0.202965
   1 C :    0.202965
   2 C :   -0.831652
   3 C :   -0.831652
   4 O :    0.829917
   5 H :   -0.464981
   6 O :    0.455169
   7 O :    0.455169
   8 O :    0.829917
   9 H :   -0.464981
  10 H :   -0.191418
  11 H :   -0.191419

  Mayer bond orders larger than 0.100000
B(  0-C ,  1-C ) :   1.2989 B(  0-C ,  2-C ) :  -0.1494 B(  0-C ,  3-C ) :   0.6290
B(  0-C , 10-H ) :   0.7939 B(  1-C ,  2-C ) :   0.6290 B(  1-C ,  3-C ) :  -0.1494
B(  1-C , 11-H ) :   0.7939 B(  2-C ,  4-O ) :   1.0355 B(  2-C ,  6-O ) :   1.4733
B(  2-C , 11-H ) :  -0.1073 B(  3-C ,  7-O ) :   1.4733 B(  3-C ,  8-O ) :   1.0355
B(  3-C , 10-H ) :  -0.1073 B(  4-O ,  5-H ) :   0.9556 B(  8-O ,  9-H ) :   0.9556

MP2 TOTAL ENERGY:     -455.032376959 Eh
FINAL SINGLE POINT ENERGY      -455.032376959484

DIPOLE MOMENT
-------------
                                X             Y             Z
Electronic contribution:      0.00000      -0.00000      -0.00003
Nuclear contribution   :      0.00000       0.00000       0.00009
                        -----------------------------------------
Total Dipole Moment    :      0.00000       0.00000       0.00006
                        -----------------------------------------
Magnitude (a.u.)       :      0.00006
Magnitude (Debye)      :      0.00014

Rotational constants in cm-1:     0.195331     0.031904     0.027425
Rotational constants in MHz :  5855.871514   956.465732   822.176037

                             ****ORCA TERMINATED NORMALLY****
TOTAL RUN TIME: 0 days 0 hours 1 minutes 18 seconds 635 msec
