                         Program Version 4.2.1 -  RELEASE  -
|  1> %pal
|  2>  nprocs 32
|  3> end
|  4> !RI-MP2 aug-cc-pVTZ aug-cc-pVTZ/C TightSCF
|  5> %maxcore 4500
|  6> *xyzfile 0 1  10_46P.xyz
|  7>
|  8>
|  9>                          ****END OF INPUT****

CARTESIAN COORDINATES (ANGSTROEM)
---------------------------------
  C      0.026208   -2.360955   -0.416424
  H     -0.087820   -3.031802   -1.275827
  H      0.145935   -3.015624    0.471946
  C     -1.229110   -1.561383   -0.262985
  C      0.085750    0.480065    0.114398
  H      0.356261    1.111413   -0.735513
  H     -0.015703    1.138785    0.976433
  C      1.240375   -0.486184    0.382338
  H      1.083566   -0.933818    1.384231
  N      1.196633   -1.538116   -0.622738
  C     -2.535062    0.489333   -0.054373
  C     -2.518241   -2.330146   -0.290425
  C     -3.609763   -0.214454    0.320022
  C     -3.543066   -1.686078    0.640246
  C     -1.226145   -0.233554   -0.103024
  C     -3.226850   -1.928620    2.120413
  H     -3.220127   -2.998060    2.348609
  H     -2.249997   -1.515640    2.379953
  H     -3.972820   -1.451201    2.759157
  C      2.573450    0.236596    0.415228
  C      2.413599   -2.321638   -0.690772
  H      2.249054   -3.152668   -1.380304
  H      2.668692   -2.758250    0.292732
  C      3.547742   -1.443281   -1.181616
  H      3.353104   -1.165436   -2.221969
  C      3.663708   -0.204003   -0.334367
  H      4.491414   -1.994438   -1.162314
  C      4.865491    0.499272   -0.272907
  H      5.709191    0.148061   -0.857783
  C      2.724611    1.357494    1.232019
  H      1.892704    1.693889    1.839413
  C      5.000290    1.622215    0.524045
  H      5.942784    2.155173    0.559845
  C      3.921812    2.049667    1.288307
  H      4.015037    2.918252    1.928992
  C     -2.657607    1.945882   -0.529314
  C     -1.877113    2.937997    0.354484
  H     -0.800513    2.869379    0.220965
  H     -2.106167    2.783202    1.411602
  H     -2.167137    3.959495    0.096186
  C     -4.117744    2.416531   -0.529858
  H     -4.538768    2.437496    0.477785
  H     -4.749238    1.783633   -1.155511
  H     -4.166163    3.432111   -0.928282
  C     -2.150219    2.031026   -1.979491
  H     -1.114718    1.706433   -2.076278
  H     -2.214654    3.060522   -2.341765
  H     -2.757897    1.401515   -2.633383
  H     -2.340337   -3.371836   -0.003836
  H     -2.911320   -2.348671   -1.315602
  H     -4.522696   -2.125316    0.430502
  H     -4.580789    0.255514    0.393508

 Total Charge           Charge          ....    0
 Multiplicity           Mult            ....    1
 Number of Electrons    NEL             ....  168
 Basis Dimension        Dim             .... 1725

ORBITAL ENERGIES
----------------

  NO   OCC          E(Eh)            E(eV)
   0   2.0000     -15.544828      -422.9963
   1   2.0000     -11.257970      -306.3449
   2   2.0000     -11.250801      -306.1498
   3   2.0000     -11.248062      -306.0753
   4   2.0000     -11.237189      -305.7795
   5   2.0000     -11.233849      -305.6886
   6   2.0000     -11.232623      -305.6552
   7   2.0000     -11.227978      -305.5288
   8   2.0000     -11.227260      -305.5093
   9   2.0000     -11.226242      -305.4816
  10   2.0000     -11.225716      -305.4673
  11   2.0000     -11.225486      -305.4610
  12   2.0000     -11.224505      -305.4343
  13   2.0000     -11.223040      -305.3944
  14   2.0000     -11.221843      -305.3619
  15   2.0000     -11.220192      -305.3169
  16   2.0000     -11.218895      -305.2816
  17   2.0000     -11.218696      -305.2762
  18   2.0000     -11.209475      -305.0253
  19   2.0000     -11.208156      -304.9894
  20   2.0000     -11.206990      -304.9577
  21   2.0000     -11.205909      -304.9283
  22   2.0000     -11.205451      -304.9158
  23   2.0000      -1.253743       -34.1161
  24   2.0000      -1.156933       -31.4817
  25   2.0000      -1.147736       -31.2315
  26   2.0000      -1.096403       -29.8346
  27   2.0000      -1.075628       -29.2693
  28   2.0000      -1.054294       -28.6888
  29   2.0000      -1.036691       -28.2098
  30   2.0000      -1.003362       -27.3029
  31   2.0000      -0.990857       -26.9626
  32   2.0000      -0.969627       -26.3849
  33   2.0000      -0.928339       -25.2614
  34   2.0000      -0.928090       -25.2546
  35   2.0000      -0.923218       -25.1220
  36   2.0000      -0.879839       -23.9416
  37   2.0000      -0.860313       -23.4103
  38   2.0000      -0.841635       -22.9020
  39   2.0000      -0.825940       -22.4750
  40   2.0000      -0.809098       -22.0167
  41   2.0000      -0.766858       -20.8673
  42   2.0000      -0.750799       -20.4303
  43   2.0000      -0.726384       -19.7659
  44   2.0000      -0.691688       -18.8218
  45   2.0000      -0.669040       -18.2055
  46   2.0000      -0.658055       -17.9066
  47   2.0000      -0.652795       -17.7634
  48   2.0000      -0.635959       -17.3053
  49   2.0000      -0.630591       -17.1592
  50   2.0000      -0.623609       -16.9693
  51   2.0000      -0.611580       -16.6419
  52   2.0000      -0.602150       -16.3853
  53   2.0000      -0.599250       -16.3064
  54   2.0000      -0.592953       -16.1351
  55   2.0000      -0.586432       -15.9576
  56   2.0000      -0.581590       -15.8259
  57   2.0000      -0.578895       -15.7525
  58   2.0000      -0.565784       -15.3958
  59   2.0000      -0.557723       -15.1764
  60   2.0000      -0.545355       -14.8399
  61   2.0000      -0.542900       -14.7731
  62   2.0000      -0.535375       -14.5683
  63   2.0000      -0.529409       -14.4060
  64   2.0000      -0.524763       -14.2795
  65   2.0000      -0.520245       -14.1566
  66   2.0000      -0.515152       -14.0180
  67   2.0000      -0.508917       -13.8483
  68   2.0000      -0.505616       -13.7585
  69   2.0000      -0.494826       -13.4649
  70   2.0000      -0.491954       -13.3867
  71   2.0000      -0.483714       -13.1625
  72   2.0000      -0.476752       -12.9731
  73   2.0000      -0.468470       -12.7477
  74   2.0000      -0.466458       -12.6930
  75   2.0000      -0.462155       -12.5759
  76   2.0000      -0.447752       -12.1840
  77   2.0000      -0.435883       -11.8610
  78   2.0000      -0.418063       -11.3761
  79   2.0000      -0.382114       -10.3979
  80   2.0000      -0.359503        -9.7826
  81   2.0000      -0.326853        -8.8941
  82   2.0000      -0.319632        -8.6976
  83   2.0000      -0.291185        -7.9236
  84   0.0000       0.024616         0.6698
  85   0.0000       0.028186         0.7670
  86   0.0000       0.028525         0.7762
  87   0.0000       0.032066         0.8726
  88   0.0000       0.036173         0.9843

MULLIKEN ATOMIC CHARGES
-----------------------
   0 C :   -0.658229
   1 H :    0.288219
   2 H :    0.118359
   3 C :    0.468616
   4 C :   -0.699845
   5 H :    0.489452
   6 H :    0.017276
   7 C :   -0.329816
   8 H :    0.011189
   9 N :   -0.419373
  10 C :    1.329668
  11 C :   -0.565744
  12 C :   -0.821672
  13 C :    0.236602
  14 C :    0.583937
  15 C :   -1.095382
  16 H :    0.237948
  17 H :    0.358110
  18 H :    0.246368
  19 C :    1.256100
  20 C :   -0.745339
  21 H :    0.355428
  22 H :    0.236402
  23 C :   -0.557653
  24 H :    0.205094
  25 C :    1.041259
  26 H :    0.218513
  27 C :   -1.102305
  28 H :   -0.018494
  29 C :   -0.971186
  30 H :    0.217244
  31 C :   -0.279701
  32 H :    0.702626
  33 C :   -0.706607
  34 H :    0.400605
  35 C :    1.749646
  36 C :   -1.450878
  37 H :    0.496847
  38 H :    0.269480
  39 H :    0.112964
  40 C :   -1.536987
  41 H :    0.254522
  42 H :    0.249760
  43 H :    0.185926
  44 C :   -1.623660
  45 H :    0.499498
  46 H :    0.112911
  47 H :    0.247997
  48 H :    0.266556
  49 H :    0.180947
  50 H :    0.439110
  51 H :   -0.502310
Sum of atomic charges:    0.0000000

LOEWDIN ATOMIC CHARGES
----------------------
   0 C :    0.165426
   1 H :   -0.129428
   2 H :   -0.114528
   3 C :   -0.036675
   4 C :    0.302967
   5 H :   -0.145071
   6 H :   -0.180546
   7 C :   -0.104661
   8 H :   -0.102952
   9 N :    0.317578
  10 C :   -0.014196
  11 C :    0.298719
  12 C :    0.271864
  13 C :   -0.028827
  14 C :   -0.003764
  15 C :    0.600239
  16 H :   -0.160621
  17 H :   -0.163542
  18 H :   -0.160177
  19 C :   -0.036800
  20 C :    0.167937
  21 H :   -0.135748
  22 H :   -0.114406
  23 C :    0.300594
  24 H :   -0.131678
  25 C :   -0.066925
  26 H :   -0.143231
  27 C :    0.222146
  28 H :   -0.172918
  29 C :    0.229173
  30 H :   -0.177867
  31 C :    0.198553
  32 H :   -0.183239
  33 C :    0.204116
  34 H :   -0.182873
  35 C :   -0.321230
  36 C :    0.598618
  37 H :   -0.195485
  38 H :   -0.142167
  39 H :   -0.156569
  40 C :    0.559441
  41 H :   -0.152517
  42 H :   -0.158368
  43 H :   -0.159196
  44 C :    0.601233
  45 H :   -0.181116
  46 H :   -0.149915
  47 H :   -0.145079
  48 H :   -0.137637
  49 H :   -0.122009
  50 H :   -0.132518
  51 H :   -0.194127

  Mayer bond orders larger than 0.100000
B(  0-C ,  1-H ) :   1.1347 B(  0-C ,  2-H ) :   1.4843 B(  0-C ,  3-C ) :   0.2323
B(  0-C ,  7-C ) :   0.1294 B(  0-C ,  9-N ) :   0.6453 B(  0-C , 10-C ) :  -0.2817
B(  0-C , 12-C ) :  -0.1697 B(  0-C , 14-C ) :  -0.1619 B(  0-C , 21-H ) :  -0.1195
B(  1-H ,  3-C ) :  -0.1787 B(  2-H ,  3-C ) :  -0.1935 B(  2-H ,  9-N ) :  -0.1585
B(  3-C ,  7-C ) :   0.1814 B(  3-C , 10-C ) :   0.4161 B(  3-C , 11-C ) :  -0.1757
B(  3-C , 12-C ) :   0.7352 B(  3-C , 13-C ) :   0.1731 B(  3-C , 14-C ) :   2.6104
B(  3-C , 35-C ) :  -0.3008 B(  3-C , 48-H ) :  -0.2676 B(  3-C , 49-H ) :  -0.1671
B(  3-C , 51-H ) :   0.1196 B(  4-C ,  5-H ) :   0.7359 B(  4-C ,  6-H ) :   1.3623
B(  4-C ,  7-C ) :   1.0307 B(  4-C ,  9-N ) :   0.6842 B(  4-C , 14-C ) :   0.2979
B(  4-C , 19-C ) :   0.6526 B(  4-C , 25-C ) :  -0.1937 B(  4-C , 29-C ) :  -0.2106
B(  5-H , 19-C ) :  -0.1016 B(  5-H , 29-C ) :  -0.1091 B(  6-H , 14-C ) :  -0.2021
B(  6-H , 29-C ) :   0.2282 B(  7-C ,  8-H ) :   1.0906 B(  7-C ,  9-N ) :   0.3818
B(  7-C , 10-C ) :   0.1726 B(  7-C , 19-C ) :   0.6868 B(  7-C , 23-C ) :  -0.1568
B(  7-C , 25-C ) :   0.5965 B(  7-C , 27-C ) :  -0.1902 B(  7-C , 29-C ) :   0.8385
B(  9-N , 10-C ) :  -0.1280 B(  9-N , 14-C ) :  -0.3129 B(  9-N , 19-C ) :  -0.1790
B(  9-N , 20-C ) :   0.8863 B(  9-N , 23-C ) :  -0.1069 B(  9-N , 25-C ) :  -0.1665
B( 10-C , 11-C ) :  -0.1078 B( 10-C , 12-C ) :   0.9916 B( 10-C , 13-C ) :   0.1361
B( 10-C , 14-C ) :   1.1645 B( 10-C , 19-C ) :   0.1432 B( 10-C , 35-C ) :   0.4430
B( 10-C , 44-C ) :  -0.1453 B( 10-C , 51-H ) :  -0.4535 B( 11-C , 12-C ) :   0.4270
B( 11-C , 13-C ) :   1.0046 B( 11-C , 15-C ) :   0.1102 B( 11-C , 48-H ) :   1.0499
B( 11-C , 49-H ) :   1.1986 B( 11-C , 50-H ) :  -0.1284 B( 11-C , 51-H ) :  -0.1197
B( 12-C , 13-C ) :   0.5904 B( 12-C , 14-C ) :  -0.7877 B( 12-C , 19-C ) :  -0.1671
B( 12-C , 25-C ) :   0.1183 B( 12-C , 35-C ) :   0.3476 B( 12-C , 40-C ) :  -0.1754
B( 12-C , 48-H ) :   0.1751 B( 12-C , 50-H ) :  -0.1838 B( 12-C , 51-H ) :   2.5595
B( 13-C , 14-C ) :   0.1257 B( 13-C , 15-C ) :   0.6598 B( 13-C , 50-H ) :   1.0049
B( 14-C , 35-C ) :   0.4885 B( 14-C , 51-H ) :  -0.1132 B( 15-C , 16-H ) :   1.0434
B( 15-C , 17-H ) :   0.8886 B( 15-C , 18-H ) :   1.0521 B( 19-C , 23-C ) :   0.2353
B( 19-C , 25-C ) :   0.6597 B( 19-C , 27-C ) :   0.6280 B( 19-C , 28-H ) :   0.1121
B( 19-C , 29-C ) :  -0.2123 B( 19-C , 31-C ) :  -0.1683 B( 19-C , 32-H ) :   0.1014
B( 20-C , 21-H ) :   0.9217 B( 20-C , 22-H ) :   1.0483 B( 20-C , 23-C ) :   1.0805
B( 20-C , 25-C ) :   0.1385 B( 23-C , 24-H ) :   1.1283 B( 23-C , 26-H ) :   1.1058
B( 23-C , 27-C ) :   0.1805 B( 24-H , 25-C ) :  -0.1213 B( 25-C , 27-C ) :   0.4299
B( 25-C , 28-H ) :  -0.1073 B( 25-C , 29-C ) :  -0.3362 B( 25-C , 31-C ) :   0.3147
B( 25-C , 34-H ) :   0.1082 B( 27-C , 28-H ) :   1.6531 B( 27-C , 31-C ) :   0.9419
B( 27-C , 33-C ) :  -0.1379 B( 28-H , 31-C ) :  -0.1825 B( 29-C , 30-H ) :   1.1277
B( 29-C , 31-C ) :   0.2270 B( 29-C , 33-C ) :   1.3639 B( 31-C , 32-H ) :   0.3785
B( 31-C , 33-C ) :   1.0796 B( 31-C , 34-H ) :  -0.1047 B( 33-C , 34-H ) :   0.8561
B( 35-C , 36-C ) :   0.3440 B( 35-C , 39-H ) :  -0.1453 B( 35-C , 41-H ) :  -0.1159
B( 35-C , 42-H ) :  -0.1298 B( 35-C , 43-H ) :  -0.1724 B( 35-C , 44-C ) :   0.3230
B( 35-C , 46-H ) :  -0.2132 B( 35-C , 51-H ) :  -0.1973 B( 36-C , 37-H ) :   0.7828
B( 36-C , 38-H ) :   1.0840 B( 36-C , 39-H ) :   1.2776 B( 36-C , 40-C ) :   0.1530
B( 40-C , 41-H ) :   1.1667 B( 40-C , 42-H ) :   1.1263 B( 40-C , 43-H ) :   1.1864
B( 40-C , 44-C ) :   0.1865 B( 40-C , 51-H ) :  -0.1214 B( 44-C , 45-H ) :   0.7738
B( 44-C , 46-H ) :   1.2969 B( 44-C , 47-H ) :   1.1249 B( 50-H , 51-H ) :  -0.1678

MP2 TOTAL ENERGY:     -908.623835384 Eh
FINAL SINGLE POINT ENERGY      -908.623835383727

DIPOLE MOMENT
-------------
                                X             Y             Z
Electronic contribution:     16.98646      -3.38735       0.18465
Nuclear contribution   :    -17.03595       3.06104      -0.12330
                        -----------------------------------------
Total Dipole Moment    :     -0.04949      -0.32631       0.06135
                        -----------------------------------------
Magnitude (a.u.)       :      0.33570
Magnitude (Debye)      :      0.85328

Rotational constants in cm-1:     0.014374     0.005750     0.004701
Rotational constants in MHz :   430.919704   172.383992   140.939789

                             ****ORCA TERMINATED NORMALLY****
TOTAL RUN TIME: 0 days 2 hours 4 minutes 44 seconds 297 msec
