                         Program Version 4.2.1 -  RELEASE  -
|  1> %pal
|  2>  nprocs 32
|  3> end
|  4> !RI-MP2 aug-cc-pVTZ aug-cc-pVTZ/C TightSCF
|  5> %maxcore 4500
|  6> *xyzfile 1 1  05_33P1.xyz
|  7>
|  8>
|  9>                          ****END OF INPUT****

CARTESIAN COORDINATES (ANGSTROEM)
---------------------------------
  C     -3.953564   -0.727408   -0.000019
  O     -5.177763   -0.317970    0.000039
  C     -5.478434    1.092475    0.000179
  H     -5.071917    1.555084   -0.899110
  H     -5.071913    1.554907    0.899557
  C     -2.809951    0.036583    0.000042
  H     -2.854048    1.117575    0.000152
  C     -1.578224   -0.610316   -0.000039
  H     -1.582165   -1.698407   -0.000149
  H     -6.561370    1.154492    0.000187
  C     -0.336494    0.022230    0.000007
  H     -0.301669    1.104832    0.000116
  C      0.815332   -0.722515   -0.000083
  H      0.698595   -1.803990   -0.000189
  C      2.164814   -0.253588   -0.000055
  C      3.198212   -1.207189   -0.000157
  C      2.498202    1.114245    0.000071
  C      4.520839   -0.810365   -0.000134
  H      2.948555   -2.261884   -0.000254
  C      3.818894    1.504822    0.000092
  H      1.721617    1.867823    0.000150
  C      4.830192    0.544356   -0.000010
  H      5.311155   -1.549488   -0.000213
  H      4.073485    2.556686    0.000188
  H      5.866679    0.858773    0.000008
  H     -3.893810   -1.812623   -0.000126

 Total Charge           Charge          ....    1
 Multiplicity           Mult            ....    1
 Number of Electrons    NEL             ....   92
 Basis Dimension        Dim             ....  897

ORBITAL ENERGIES
----------------

  NO   OCC          E(Eh)            E(eV)
   0   2.0000     -20.770805      -565.2023
   1   2.0000     -11.504093      -313.0423
   2   2.0000     -11.452050      -311.6261
   3   2.0000     -11.437635      -311.2339
   4   2.0000     -11.425776      -310.9112
   5   2.0000     -11.386386      -309.8393
   6   2.0000     -11.382816      -309.7422
   7   2.0000     -11.377734      -309.6039
   8   2.0000     -11.376605      -309.5732
   9   2.0000     -11.375426      -309.5411
  10   2.0000     -11.371146      -309.4246
  11   2.0000     -11.355881      -309.0092
  12   2.0000     -11.354381      -308.9684
  13   2.0000      -1.605880       -43.6982
  14   2.0000      -1.306096       -35.5407
  15   2.0000      -1.280105       -34.8334
  16   2.0000      -1.223547       -33.2944
  17   2.0000      -1.164468       -31.6868
  18   2.0000      -1.150742       -31.3133
  19   2.0000      -1.127460       -30.6797
  20   2.0000      -1.055065       -28.7098
  21   2.0000      -0.980881       -26.6911
  22   2.0000      -0.959667       -26.1139
  23   2.0000      -0.938197       -25.5297
  24   2.0000      -0.915999       -24.9256
  25   2.0000      -0.871512       -23.7151
  26   2.0000      -0.855147       -23.2697
  27   2.0000      -0.827050       -22.5052
  28   2.0000      -0.812555       -22.1107
  29   2.0000      -0.794740       -21.6260
  30   2.0000      -0.775973       -21.1153
  31   2.0000      -0.753061       -20.4918
  32   2.0000      -0.731298       -19.8996
  33   2.0000      -0.719272       -19.5724
  34   2.0000      -0.716076       -19.4854
  35   2.0000      -0.708636       -19.2830
  36   2.0000      -0.682555       -18.5733
  37   2.0000      -0.673508       -18.3271
  38   2.0000      -0.656325       -17.8595
  39   2.0000      -0.653417       -17.7804
  40   2.0000      -0.634837       -17.2748
  41   2.0000      -0.619327       -16.8528
  42   2.0000      -0.606828       -16.5126
  43   2.0000      -0.523501       -14.2452
  44   2.0000      -0.467196       -12.7130
  45   2.0000      -0.439939       -11.9714
  46   0.0000      -0.137032        -3.7288
  47   0.0000      -0.067165        -1.8277
  48   0.0000      -0.061825        -1.6823
  49   0.0000      -0.050055        -1.3621
  50   0.0000      -0.043213        -1.1759

MULLIKEN ATOMIC CHARGES
-----------------------
   0 C :   -0.470923
   1 O :   -0.580463
   2 C :   -0.829262
   3 H :    0.377467
   4 H :    0.377467
   5 C :   -0.055361
   6 H :    0.179309
   7 C :    0.518779
   8 H :    0.152810
   9 H :    0.398118
  10 C :    0.009936
  11 H :   -0.056028
  12 C :   -0.265612
  13 H :    0.055766
  14 C :    2.414257
  15 C :   -0.953014
  16 C :   -0.593647
  17 C :   -0.780793
  18 H :   -0.105817
  19 C :   -0.880897
  20 H :   -0.235028
  21 C :   -0.000777
  22 H :    0.681648
  23 H :    0.640114
  24 H :    0.339486
  25 H :    0.662462
Sum of atomic charges:    1.0000000

LOEWDIN ATOMIC CHARGES
----------------------
   0 C :    0.005874
   1 O :    0.611582
   2 C :    0.430909
   3 H :   -0.161184
   4 H :   -0.161183
   5 C :    0.236017
   6 H :   -0.190570
   7 C :    0.236104
   8 H :   -0.154445
   9 H :   -0.161879
  10 C :    0.254302
  11 H :   -0.184948
  12 C :    0.277186
  13 H :   -0.156392
  14 C :   -0.104678
  15 C :    0.237858
  16 C :    0.242681
  17 C :    0.240563
  18 H :   -0.162111
  19 C :    0.240330
  20 H :   -0.176675
  21 C :    0.246158
  22 H :   -0.169167
  23 H :   -0.169085
  24 H :   -0.157802
  25 H :   -0.149448

  Mayer bond orders larger than 0.100000
B(  0-C ,  1-O ) :   0.9817 B(  0-C ,  5-C ) :   0.4972 B(  0-C ,  7-C ) :  -0.2767
B(  0-C , 14-C ) :   0.1227 B(  0-C , 25-H ) :   0.5145 B(  1-O ,  2-C ) :   0.8575
B(  1-O ,  5-C ) :  -0.2651 B(  1-O ,  7-C ) :   0.1021 B(  1-O , 25-H ) :  -0.1743
B(  2-C ,  3-H ) :   0.8627 B(  2-C ,  4-H ) :   0.8627 B(  2-C ,  9-H ) :   0.8868
B(  5-C ,  6-H ) :   1.3871 B(  5-C ,  8-H ) :  -0.1127 B(  5-C , 10-C ) :   0.1844
B(  5-C , 11-H ) :  -0.1230 B(  5-C , 12-C ) :  -0.1674 B(  5-C , 14-C ) :   0.1326
B(  5-C , 15-C ) :   0.1031 B(  5-C , 20-H ) :   0.2293 B(  6-H ,  7-C ) :  -0.2764
B(  6-H , 10-C ) :  -0.1658 B(  6-H , 14-C ) :   0.1222 B(  7-C ,  8-H ) :   1.5815
B(  7-C , 10-C ) :   0.3195 B(  7-C , 12-C ) :  -0.2420 B(  7-C , 13-H ) :  -0.2111
B(  7-C , 14-C ) :   0.2661 B(  7-C , 16-C ) :  -0.1175 B(  7-C , 20-H ) :  -0.1419
B(  8-H , 10-C ) :  -0.1609 B(  8-H , 12-C ) :  -0.1612 B( 10-C , 11-H ) :   2.1016
B( 10-C , 12-C ) :   0.3214 B( 10-C , 13-H ) :  -0.1530 B( 10-C , 14-C ) :  -0.1958
B( 10-C , 18-H ) :  -0.1591 B( 10-C , 19-C ) :  -0.1224 B( 10-C , 20-H ) :  -0.3368
B( 10-C , 21-C ) :   0.1449 B( 10-C , 22-H ) :   0.1510 B( 11-H , 12-C ) :  -0.1642
B( 11-H , 13-H ) :   0.1067 B( 11-H , 14-C ) :  -0.2534 B( 11-H , 16-C ) :  -0.1412
B( 12-C , 13-H ) :   1.6816 B( 12-C , 14-C ) :   0.1917 B( 12-C , 15-C ) :   0.1451
B( 12-C , 16-C ) :   0.2797 B( 12-C , 18-H ) :  -0.4223 B( 12-C , 20-H ) :  -0.2547
B( 12-C , 21-C ) :   0.2630 B( 12-C , 22-H ) :   0.1135 B( 12-C , 23-H ) :   0.1276
B( 14-C , 15-C ) :  -0.3450 B( 14-C , 16-C ) :   0.1390 B( 14-C , 18-H ) :  -0.5622
B( 14-C , 19-C ) :   0.1650 B( 14-C , 20-H ) :  -0.6099 B( 14-C , 22-H ) :   0.1123
B( 15-C , 16-C ) :  -0.5136 B( 15-C , 17-C ) :   1.2143 B( 15-C , 18-H ) :   2.1606
B( 15-C , 19-C ) :   0.1081 B( 15-C , 20-H ) :   0.3209 B( 15-C , 21-C ) :  -0.3237
B( 15-C , 22-H ) :  -0.2458 B( 15-C , 23-H ) :  -0.1101 B( 15-C , 24-H ) :   0.3138
B( 16-C , 18-H ) :   0.3111 B( 16-C , 19-C ) :   1.2935 B( 16-C , 20-H ) :   2.2361
B( 16-C , 21-C ) :  -0.3143 B( 17-C , 18-H ) :  -0.1292 B( 17-C , 19-C ) :   0.4117
B( 17-C , 21-C ) :   1.0327 B( 17-C , 22-H ) :   0.3508 B( 17-C , 24-H ) :  -0.1642
B( 18-H , 20-H ) :   0.2927 B( 18-H , 23-H ) :  -0.1329 B( 19-C , 20-H ) :  -0.1088
B( 19-C , 21-C ) :   1.0136 B( 19-C , 23-H ) :   0.3626 B( 19-C , 24-H ) :  -0.1825
B( 20-H , 21-C ) :  -0.1197 B( 20-H , 22-H ) :  -0.1443 B( 20-H , 23-H ) :  -0.1155
B( 20-H , 24-H ) :   0.1574 B( 21-C , 22-H ) :   0.1324 B( 21-C , 23-H ) :   0.1450
B( 21-C , 24-H ) :   0.9547

MP2 TOTAL ENERGY:     -538.932235372 Eh
FINAL SINGLE POINT ENERGY      -538.932235371775

DIPOLE MOMENT
-------------
                                X             Y             Z
Electronic contribution:      3.24537      -2.70259      -0.00031
Nuclear contribution   :     -4.83792       2.66049       0.00032
                        -----------------------------------------
Total Dipole Moment    :     -1.59255      -0.04211       0.00002
                        -----------------------------------------
Magnitude (a.u.)       :      1.59311
Magnitude (Debye)      :      4.04936

Rotational constants in cm-1:     0.117858     0.007390     0.006963
Rotational constants in MHz :  3533.307598   221.532630   208.743170

                             ****ORCA TERMINATED NORMALLY****
TOTAL RUN TIME: 0 days 0 hours 11 minutes 3 seconds 947 msec
