                         Program Version 4.2.1 -  RELEASE  -
|  1> %pal
|  2>  nprocs 32
|  3> end
|  4> !RI-MP2 aug-cc-pVTZ aug-cc-pVTZ/C TightSCF
|  5> %maxcore 4500
|  6> *xyzfile 0 1  06_5P.xyz
|  7>
|  8>
|  9>                          ****END OF INPUT****

CARTESIAN COORDINATES (ANGSTROEM)
---------------------------------
  C      3.314440   -1.414702   -0.490479
  C      2.199422   -0.615585   -0.631229
  C      2.208000    0.691319   -0.112320
  C      3.349857    1.163504    0.555299
  C      4.467773    0.361977    0.678986
  C      4.447086   -0.926141    0.156715
  H      3.304354   -2.425417   -0.877271
  H      1.307779   -1.008513   -1.102945
  H      3.349143    2.166363    0.966562
  H      5.349773    0.730727    1.186255
  H      5.318947   -1.560679    0.261430
  C      1.092896    1.574200   -0.256544
  C     -0.135588    1.302298   -0.903037
  C     -0.803484    0.908512    0.496882
  H      1.188599    2.542622    0.228525
  H     -0.163404    0.462042   -1.587014
  H     -0.683845    2.159760   -1.279480
  B     -2.081217   -0.095147    0.145339
  Cl    -2.886179   -0.425382    1.775338
  Cl    -1.416881   -1.680124   -0.605617
  Cl    -3.232351    0.752988   -1.032051
  H     -1.143865    1.803321    1.013508
  H     -0.161800    0.326006    1.157693

 Total Charge           Charge          ....    0
 Multiplicity           Mult            ....    1
 Number of Electrons    NEL             ....  120
 Basis Dimension        Dim             ....  840

ORBITAL ENERGIES
----------------

  NO   OCC          E(Eh)            E(eV)
   0   2.0000    -104.773881     -2851.0422
   1   2.0000    -104.769563     -2850.9248
   2   2.0000    -104.765825     -2850.8230
   3   2.0000     -11.382089      -309.7224
   4   2.0000     -11.310266      -307.7680
   5   2.0000     -11.305022      -307.6253
   6   2.0000     -11.302243      -307.5497
   7   2.0000     -11.300414      -307.4999
   8   2.0000     -11.286814      -307.1298
   9   2.0000     -11.283821      -307.0484
  10   2.0000     -11.280560      -306.9596
  11   2.0000     -11.249391      -306.1115
  12   2.0000     -10.500089      -285.7220
  13   2.0000     -10.495799      -285.6052
  14   2.0000     -10.492016      -285.5023
  15   2.0000      -7.966605      -216.7824
  16   2.0000      -7.965617      -216.7555
  17   2.0000      -7.965588      -216.7547
  18   2.0000      -7.962345      -216.6664
  19   2.0000      -7.961272      -216.6372
  20   2.0000      -7.961261      -216.6369
  21   2.0000      -7.958561      -216.5635
  22   2.0000      -7.957449      -216.5332
  23   2.0000      -7.957432      -216.5327
  24   2.0000      -7.669800      -208.7059
  25   2.0000      -1.232283       -33.5321
  26   2.0000      -1.169198       -31.8155
  27   2.0000      -1.091775       -29.7087
  28   2.0000      -1.080209       -29.3940
  29   2.0000      -1.067625       -29.0515
  30   2.0000      -1.024598       -27.8807
  31   2.0000      -1.020944       -27.7813
  32   2.0000      -0.954814       -25.9818
  33   2.0000      -0.897968       -24.4350
  34   2.0000      -0.885910       -24.1068
  35   2.0000      -0.835694       -22.7404
  36   2.0000      -0.768635       -20.9156
  37   2.0000      -0.727907       -19.8074
  38   2.0000      -0.701769       -19.0961
  39   2.0000      -0.672813       -18.3082
  40   2.0000      -0.655853       -17.8467
  41   2.0000      -0.647874       -17.6296
  42   2.0000      -0.628872       -17.1125
  43   2.0000      -0.607587       -16.5333
  44   2.0000      -0.581230       -15.8161
  45   2.0000      -0.567421       -15.4403
  46   2.0000      -0.560449       -15.2506
  47   2.0000      -0.548433       -14.9236
  48   2.0000      -0.545570       -14.8457
  49   2.0000      -0.505036       -13.7427
  50   2.0000      -0.489945       -13.3321
  51   2.0000      -0.487203       -13.2575
  52   2.0000      -0.421756       -11.4766
  53   2.0000      -0.421096       -11.4586
  54   2.0000      -0.417097       -11.3498
  55   2.0000      -0.397046       -10.8042
  56   2.0000      -0.392017       -10.6673
  57   2.0000      -0.391451       -10.6519
  58   2.0000      -0.378282       -10.2936
  59   2.0000      -0.366989        -9.9863
  60   0.0000      -0.023402        -0.6368
  61   0.0000       0.005796         0.1577
  62   0.0000       0.015268         0.4155
  63   0.0000       0.023679         0.6443
  64   0.0000       0.033295         0.9060

MULLIKEN ATOMIC CHARGES
-----------------------
   0 C :   -0.993259
   1 C :   -0.207109
   2 C :    2.040705
   3 C :   -1.197369
   4 C :   -0.619741
   5 C :   -0.070959
   6 H :    0.466694
   7 H :    0.106525
   8 H :    0.082551
   9 H :    0.620699
  10 H :    0.471437
  11 C :   -0.587323
  12 C :   -0.365380
  13 C :   -0.456617
  14 H :    0.082338
  15 H :    0.118380
  16 H :    0.564809
  17 B :    0.671516
  18 Cl:   -0.498439
  19 Cl:   -0.472301
  20 Cl:   -0.499219
  21 H :    0.378580
  22 H :    0.363481
Sum of atomic charges:    0.0000000

LOEWDIN ATOMIC CHARGES
----------------------
   0 C :    0.246675
   1 C :    0.252730
   2 C :   -0.083939
   3 C :    0.239356
   4 C :    0.233294
   5 C :    0.238166
   6 H :   -0.169558
   7 H :   -0.210736
   8 H :   -0.160849
   9 H :   -0.175243
  10 H :   -0.161438
  11 C :    0.304766
  12 C :    0.262531
  13 C :    0.181354
  14 H :   -0.107749
  15 H :   -0.206556
  16 H :   -0.142649
  17 B :   -2.737164
  18 Cl:    0.852618
  19 Cl:    0.867104
  20 Cl:    0.860512
  21 H :   -0.175191
  22 H :   -0.208035

  Mayer bond orders larger than 0.100000
B(  0-C ,  1-C ) :   1.2317 B(  0-C ,  4-C ) :   0.1999 B(  0-C ,  5-C ) :   1.0933
B(  0-C ,  6-H ) :   0.7399 B(  0-C , 10-H ) :  -0.1559 B(  1-C ,  2-C ) :   0.4344
B(  1-C ,  3-C ) :  -0.4881 B(  1-C ,  5-C ) :  -0.1131 B(  1-C ,  7-H ) :   1.3975
B(  1-C ,  8-H ) :   0.1479 B(  1-C , 11-C ) :   0.1639 B(  1-C , 12-C ) :  -0.1149
B(  2-C ,  4-C ) :   0.1274 B(  2-C ,  7-H ) :  -0.2532 B(  2-C ,  8-H ) :  -0.2186
B(  2-C , 11-C ) :   0.4069 B(  2-C , 14-H ) :  -0.1479 B(  3-C ,  4-C ) :   1.3053
B(  3-C ,  5-C ) :  -0.1322 B(  3-C ,  7-H ) :   0.1997 B(  3-C ,  8-H ) :   1.7114
B(  3-C ,  9-H ) :  -0.1679 B(  3-C , 10-H ) :   0.2100 B(  3-C , 11-C ) :   0.4093
B(  4-C ,  5-C ) :   1.0888 B(  4-C ,  9-H ) :   0.5300 B(  4-C , 10-H ) :  -0.1641
B(  5-C , 10-H ) :   0.7718 B(  5-C , 11-C ) :   0.1390 B(  7-H ,  8-H ) :   0.1252
B(  7-H , 19-Cl) :   0.1044 B(  8-H , 11-C ) :  -0.2220 B(  9-H , 11-C ) :   0.1124
B( 11-C , 12-C ) :   0.7584 B( 11-C , 13-C ) :   0.2509 B( 11-C , 14-H ) :   1.3198
B( 11-C , 16-H ) :  -0.2049 B( 12-C , 13-C ) :   0.7313 B( 12-C , 14-H ) :  -0.1074
B( 12-C , 15-H ) :   1.0845 B( 12-C , 16-H ) :   0.7263 B( 13-C , 15-H ) :   0.1123
B( 13-C , 17-B ) :   1.0855 B( 13-C , 21-H ) :   0.7658 B( 13-C , 22-H ) :   0.8371
B( 17-B , 18-Cl) :   0.7375 B( 17-B , 19-Cl) :   0.7226 B( 17-B , 20-Cl) :   0.6862

MP2 TOTAL ENERGY:    -1752.222941103 Eh
FINAL SINGLE POINT ENERGY     -1752.222941103383

DIPOLE MOMENT
-------------
                                X             Y             Z
Electronic contribution:    -23.48585      -5.25617       0.16309
Nuclear contribution   :     28.84602       6.90226      -0.33210
                        -----------------------------------------
Total Dipole Moment    :      5.36017       1.64609      -0.16902
                        -----------------------------------------
Magnitude (a.u.)       :      5.60977
Magnitude (Debye)      :     14.25891

Rotational constants in cm-1:     0.034894     0.008637     0.008318
Rotational constants in MHz :  1046.102968   258.916089   249.376542

                             ****ORCA TERMINATED NORMALLY****
TOTAL RUN TIME: 0 days 0 hours 12 minutes 24 seconds 598 msec
