                         Program Version 4.2.1 -  RELEASE  -
|  1> %pal
|  2>  nprocs 32
|  3> end
|  4> !RI-MP2 aug-cc-pVTZ aug-cc-pVTZ/C TightSCF
|  5> %maxcore 4500
|  6> *xyzfile 0 2  03_24TS.xyz
|  7>
|  8>
|  9>                          ****END OF INPUT****

CARTESIAN COORDINATES (ANGSTROEM)
---------------------------------
  C     -1.085262   -1.529991    0.297203
  C     -2.553203   -2.019987    0.426097
  O     -3.089216   -1.731484    1.606123
  O     -3.125452   -2.618750   -0.439990
  C     -0.831611   -1.020025   -1.083902
  F      1.352761   -1.166375   -1.045137
  S      3.121260   -0.980486   -0.916974
  C      2.980852    0.270188    0.367222
  H     -0.499202   -2.445396    0.428783
  N     -0.782687   -0.632972    1.407184
  H     -2.378907   -1.239761    2.086148
  C     -0.899417    0.427532   -1.392315
  H     -0.948798   -1.744259   -1.879494
  F      2.263038    1.336215   -0.008922
  F      4.214634    0.684883    0.673185
  F      2.412212   -0.190371    1.493989
  H      0.173184   -0.739283    1.718737
  H     -0.933334    0.356065    1.192723
  H     -0.236254    0.966463   -0.715095
  C     -2.325636    1.007881   -1.256852
  H     -0.532307    0.607169   -2.404771
  H     -2.913280    0.697499   -2.122899
  H     -2.829921    0.577568   -0.386787
  C     -2.333339    2.533790   -1.117706
  H     -3.235311    2.946338   -1.577363
  C     -2.301494    3.014960    0.329461
  H     -1.489593    2.962705   -1.671233
  H     -3.197020    2.648134    0.838838
  H     -2.351186    4.111368    0.344786
  N     -1.141362    2.495812    1.066614
  H     -1.192218    2.772143    2.041028
  H     -0.279468    2.887761    0.699251

 Total Charge           Charge          ....    0
 Multiplicity           Mult            ....    2
 Number of Electrons    NEL             ....  145
 Basis Dimension        Dim             .... 1131

ORBITAL ENERGIES
----------------
                 SPIN UP ORBITALS
  NO   OCC          E(Eh)            E(eV)
   0   1.0000     -92.097226     -2506.0929
   1   1.0000     -26.389156      -718.0854
   2   1.0000     -26.380401      -717.8472
   3   1.0000     -26.379790      -717.8306
   4   1.0000     -26.342356      -716.8120
   5   1.0000     -20.578049      -559.9572
   6   1.0000     -20.516241      -558.2753
   7   1.0000     -15.558117      -423.3579
   8   1.0000     -15.550399      -423.1479
   9   1.0000     -11.575330      -314.9807
  10   1.0000     -11.355043      -308.9864
  11   1.0000     -11.269593      -306.6612
  12   1.0000     -11.258357      -306.3555
  13   1.0000     -11.223504      -305.4071
  14   1.0000     -11.222826      -305.3886
  15   1.0000     -11.219182      -305.2894
  16   1.0000     -11.215585      -305.1916
  17   1.0000      -9.090571      -247.3670
  18   1.0000      -6.774748      -184.3503
  19   1.0000      -6.769126      -184.1973
  20   1.0000      -6.767376      -184.1497
  21   1.0000      -1.774885       -48.2971
  22   1.0000      -1.682320       -45.7783
  23   1.0000      -1.673956       -45.5507
  24   1.0000      -1.593897       -43.3722
  25   1.0000      -1.438435       -39.1418
  26   1.0000      -1.340949       -36.4891
  27   1.0000      -1.202960       -32.7342
  28   1.0000      -1.193836       -32.4859
  29   1.0000      -1.103084       -30.0164
  30   1.0000      -1.083204       -29.4755
  31   1.0000      -1.026107       -27.9218
  32   1.0000      -0.967308       -26.3218
  33   1.0000      -0.960996       -26.1500
  34   1.0000      -0.891806       -24.2673
  35   1.0000      -0.868226       -23.6256
  36   1.0000      -0.866221       -23.5711
  37   1.0000      -0.825247       -22.4561
  38   1.0000      -0.814997       -22.1772
  39   1.0000      -0.793449       -21.5908
  40   1.0000      -0.775231       -21.0951
  41   1.0000      -0.755379       -20.5549
  42   1.0000      -0.750836       -20.4313
  43   1.0000      -0.724376       -19.7113
  44   1.0000      -0.712619       -19.3913
  45   1.0000      -0.707068       -19.2403
  46   1.0000      -0.696704       -18.9583
  47   1.0000      -0.692631       -18.8475
  48   1.0000      -0.689850       -18.7718
  49   1.0000      -0.682730       -18.5780
  50   1.0000      -0.672680       -18.3046
  51   1.0000      -0.655679       -17.8419
  52   1.0000      -0.652775       -17.7629
  53   1.0000      -0.636338       -17.3156
  54   1.0000      -0.617016       -16.7899
  55   1.0000      -0.609901       -16.5963
  56   1.0000      -0.599646       -16.3172
  57   1.0000      -0.589892       -16.0518
  58   1.0000      -0.568591       -15.4722
  59   1.0000      -0.560051       -15.2398
  60   1.0000      -0.552444       -15.0328
  61   1.0000      -0.536726       -14.6050
  62   1.0000      -0.525738       -14.3061
  63   1.0000      -0.502565       -13.6755
  64   1.0000      -0.481732       -13.1086
  65   1.0000      -0.477785       -13.0012
  66   1.0000      -0.467488       -12.7210
  67   1.0000      -0.451903       -12.2969
  68   1.0000      -0.450386       -12.2556
  69   1.0000      -0.443899       -12.0791
  70   1.0000      -0.410131       -11.1602
  71   1.0000      -0.397569       -10.8184
  72   1.0000      -0.309831        -8.4309
  73   0.0000       0.015644         0.4257
  74   0.0000       0.022459         0.6111
  75   0.0000       0.031090         0.8460
  76   0.0000       0.031760         0.8642
  77   0.0000       0.038614         1.0507

                 SPIN DOWN ORBITALS
  NO   OCC          E(Eh)            E(eV)
   0   1.0000     -92.095284     -2506.0401
   1   1.0000     -26.388838      -718.0768
   2   1.0000     -26.380380      -717.8466
   3   1.0000     -26.379739      -717.8292
   4   1.0000     -26.349408      -717.0038
   5   1.0000     -20.577736      -559.9487
   6   1.0000     -20.516342      -558.2781
   7   1.0000     -15.558106      -423.3576
   8   1.0000     -15.550225      -423.1431
   9   1.0000     -11.575303      -314.9800
  10   1.0000     -11.352820      -308.9259
  11   1.0000     -11.272621      -306.7436
  12   1.0000     -11.258366      -306.3557
  13   1.0000     -11.223332      -305.4024
  14   1.0000     -11.218689      -305.2760
  15   1.0000     -11.216771      -305.2239
  16   1.0000     -11.198062      -304.7148
  17   1.0000      -9.088598      -247.3133
  18   1.0000      -6.768844      -184.1896
  19   1.0000      -6.766468      -184.1250
  20   1.0000      -6.764453      -184.0701
  21   1.0000      -1.774495       -48.2865
  22   1.0000      -1.681696       -45.7613
  23   1.0000      -1.673852       -45.5478
  24   1.0000      -1.616262       -43.9807
  25   1.0000      -1.437047       -39.1040
  26   1.0000      -1.340540       -36.4780
  27   1.0000      -1.200633       -32.6709
  28   1.0000      -1.192952       -32.4619
  29   1.0000      -1.093350       -29.7516
  30   1.0000      -1.070818       -29.1384
  31   1.0000      -1.003779       -27.3142
  32   1.0000      -0.964217       -26.2377
  33   1.0000      -0.957190       -26.0465
  34   1.0000      -0.879096       -23.9214
  35   1.0000      -0.867467       -23.6050
  36   1.0000      -0.866017       -23.5655
  37   1.0000      -0.826826       -22.4991
  38   1.0000      -0.801668       -21.8145
  39   1.0000      -0.791414       -21.5355
  40   1.0000      -0.760023       -20.6813
  41   1.0000      -0.753648       -20.5078
  42   1.0000      -0.750454       -20.4209
  43   1.0000      -0.719970       -19.5914
  44   1.0000      -0.712454       -19.3869
  45   1.0000      -0.706453       -19.2236
  46   1.0000      -0.698256       -19.0005
  47   1.0000      -0.696094       -18.9417
  48   1.0000      -0.690569       -18.7913
  49   1.0000      -0.683281       -18.5930
  50   1.0000      -0.679042       -18.4777
  51   1.0000      -0.669194       -18.2097
  52   1.0000      -0.653800       -17.7908
  53   1.0000      -0.636112       -17.3095
  54   1.0000      -0.615375       -16.7452
  55   1.0000      -0.608677       -16.5630
  56   1.0000      -0.596968       -16.2443
  57   1.0000      -0.586964       -15.9721
  58   1.0000      -0.565324       -15.3833
  59   1.0000      -0.555545       -15.1171
  60   1.0000      -0.544631       -14.8202
  61   1.0000      -0.532717       -14.4960
  62   1.0000      -0.519377       -14.1330
  63   1.0000      -0.500337       -13.6149
  64   1.0000      -0.474865       -12.9217
  65   1.0000      -0.470206       -12.7949
  66   1.0000      -0.465723       -12.6730
  67   1.0000      -0.450276       -12.2526
  68   1.0000      -0.449069       -12.2198
  69   1.0000      -0.441807       -12.0222
  70   1.0000      -0.408756       -11.1228
  71   1.0000      -0.392682       -10.6854
  72   0.0000       0.010975         0.2986
  73   0.0000       0.022498         0.6122
  74   0.0000       0.031122         0.8469
  75   0.0000       0.031922         0.8687
  76   0.0000       0.038575         1.0497

MULLIKEN ATOMIC CHARGES AND SPIN POPULATIONS
--------------------------------------------
   0 C :    0.473894   -0.218157
   1 C :    0.794294    0.066925
   2 O :   -0.674628    0.008296
   3 O :   -0.985136   -0.001817
   4 C :   -0.415784    1.385999
   5 F :   -0.471109   -0.210914
   6 S :    0.222853    0.231915
   7 C :    1.265084   -0.004211
   8 H :    0.468305    0.038908
   9 N :   -0.819736    0.008528
  10 H :    0.265148   -0.001889
  11 C :   -0.192122   -0.249445
  12 H :    0.254475   -0.181516
  13 F :   -0.396916    0.000188
  14 F :   -0.369064    0.001290
  15 F :   -0.392960   -0.000048
  16 H :    0.181957    0.003250
  17 H :    0.404001   -0.004978
  18 H :    0.217318    0.028339
  19 C :   -0.453329    0.080488
  20 H :    0.563822    0.008825
  21 H :    0.272612   -0.008796
  22 H :    0.091648    0.006163
  23 C :   -0.577600    0.011806
  24 H :    0.289740    0.001186
  25 C :   -0.256567   -0.000226
  26 H :    0.139015   -0.000441
  27 H :    0.195392   -0.000263
  28 H :    0.320967    0.000132
  29 N :   -0.388137    0.000741
  30 H :   -0.019030   -0.000097
  31 H :   -0.008406   -0.000182
Sum of atomic charges         :    0.0000000

LOEWDIN ATOMIC CHARGES AND SPIN POPULATIONS
-------------------------------------------
   0 C :   -0.142472    0.090513
   1 C :   -0.803315    0.028820
   2 O :    0.842084    0.008251
   3 O :    0.435592    0.003384
   4 C :    0.147385    0.519805
   5 F :    0.013316   -0.082177
   6 S :    0.871864    0.140471
   7 C :   -1.963694    0.029385
   8 H :   -0.146054    0.011993
   9 N :    0.879196   -0.000555
  10 H :   -0.599425    0.000021
  11 C :    0.238253    0.093771
  12 H :   -0.170886    0.091465
  13 F :    0.449786    0.001181
  14 F :    0.441791    0.006102
  15 F :    0.454617    0.000784
  16 H :   -0.330968    0.000264
  17 H :   -0.405216   -0.000093
  18 H :   -0.226419    0.009386
  19 C :    0.302743    0.030037
  20 H :   -0.142202    0.001932
  21 H :   -0.133020    0.002619
  22 H :   -0.164095    0.003264
  23 C :    0.294547    0.006408
  24 H :   -0.145445    0.001326
  25 C :    0.177095    0.000555
  26 H :   -0.142831   -0.000059
  27 H :   -0.145907   -0.000025
  28 H :   -0.142172    0.000192
  29 N :    0.853660    0.000484
  30 H :   -0.296487    0.000059
  31 H :   -0.301320    0.000439

  Mayer bond orders larger than 0.100000
B(  0-C ,  1-C ) :   0.7129 B(  0-C ,  3-O ) :   0.1005 B(  0-C ,  4-C ) :   0.8488
B(  0-C ,  5-F ) :   0.1148 B(  0-C ,  8-H ) :   0.9258 B(  0-C ,  9-N ) :   0.4278
B(  1-C ,  2-O ) :   0.7044 B(  1-C ,  3-O ) :   1.1025 B(  1-C ,  8-H ) :  -0.1375
B(  1-C ,  9-N ) :   0.1110 B(  2-O , 10-H ) :   0.8082 B(  4-C ,  5-F ) :  -0.1907
B(  4-C , 11-C ) :   0.7037 B(  4-C , 12-H ) :   0.9688 B(  4-C , 20-H ) :  -0.1171
B(  5-F ,  6-S ) :   0.5609 B(  5-F , 20-H ) :  -0.1507 B(  6-S ,  7-C ) :   1.0074
B(  7-C , 13-F ) :   0.8759 B(  7-C , 14-F ) :   0.6745 B(  7-C , 15-F ) :   0.8247
B(  8-H ,  9-N ) :  -0.1382 B(  9-N , 10-H ) :   0.1924 B(  9-N , 16-H ) :   0.9843
B(  9-N , 17-H ) :   0.7252 B( 11-C , 18-H ) :   1.1452 B( 11-C , 19-C ) :   0.7378
B( 11-C , 20-H ) :   0.7111 B( 13-F , 18-H ) :  -0.1222 B( 15-F , 16-H ) :  -0.1216
B( 19-C , 21-H ) :   0.9851 B( 19-C , 22-H ) :   1.0575 B( 19-C , 23-C ) :   0.9456
B( 23-C , 24-H ) :   0.9261 B( 23-C , 25-C ) :   0.8864 B( 23-C , 26-H ) :   1.0940
B( 25-C , 27-H ) :   1.0225 B( 25-C , 28-H ) :   0.9065 B( 25-C , 29-N ) :   0.8393
B( 29-N , 30-H ) :   1.1230 B( 29-N , 31-H ) :   1.1462

MP2 TOTAL ENERGY:    -1369.356201051 Eh
FINAL SINGLE POINT ENERGY     -1369.356201051119

DIPOLE MOMENT
-------------
                                X             Y             Z
Electronic contribution:     34.74878     -12.50427       2.50557
Nuclear contribution   :    -32.33921      14.31559      -2.38458
                        -----------------------------------------
Total Dipole Moment    :      2.40957       1.81132       0.12099
                        -----------------------------------------
Magnitude (a.u.)       :      3.01688
Magnitude (Debye)      :      7.66829

Rotational constants in cm-1:     0.016698     0.008468     0.007015
Rotational constants in MHz :   500.600027   253.872356   210.317809

                             ****ORCA TERMINATED NORMALLY****
TOTAL RUN TIME: 0 days 1 hours 0 minutes 30 seconds 671 msec
