                         Program Version 4.2.1 -  RELEASE  -
|  1> %pal
|  2>  nprocs 32
|  3> end
|  4> !RI-MP2 aug-cc-pVTZ aug-cc-pVTZ/C TightSCF
|  5> %maxcore 4500
|  6> *xyzfile 0 1  04_40R1.xyz
|  7>
|  8>
|  9>                          ****END OF INPUT****

CARTESIAN COORDINATES (ANGSTROEM)
---------------------------------
  H      3.139346    0.770403   -0.000029
  O      2.756681   -0.110618   -0.000044
  C      1.390969   -0.026178   -0.000022
  C      0.673981   -1.212795   -0.000010
  C     -0.712350   -1.185668    0.000009
  C     -1.390969    0.026175    0.000021
  C     -0.673980    1.212795    0.000011
  C      0.712348    1.185667   -0.000012
  H      1.266409    2.118747   -0.000022
  H     -1.266408   -2.118749    0.000016
  H      1.211251   -2.152326   -0.000018
  H     -1.211253    2.152324    0.000020
  O     -2.756680    0.110621    0.000039
  H     -3.139349   -0.770399    0.000086

 Total Charge           Charge          ....    0
 Multiplicity           Mult            ....    1
 Number of Electrons    NEL             ....   58
 Basis Dimension        Dim             ....  506

ORBITAL ENERGIES
----------------

  NO   OCC          E(Eh)            E(eV)
   0   2.0000     -20.587220      -560.2067
   1   2.0000     -20.587220      -560.2067
   2   2.0000     -11.295067      -307.3544
   3   2.0000     -11.295047      -307.3539
   4   2.0000     -11.240065      -305.8577
   5   2.0000     -11.240039      -305.8570
   6   2.0000     -11.235387      -305.7304
   7   2.0000     -11.235373      -305.7300
   8   2.0000      -1.403317       -38.1862
   9   2.0000      -1.401893       -38.1475
  10   2.0000      -1.150344       -31.3025
  11   2.0000      -1.028786       -27.9947
  12   2.0000      -1.000451       -27.2237
  13   2.0000      -0.865708       -23.5571
  14   2.0000      -0.825073       -22.4514
  15   2.0000      -0.747689       -20.3456
  16   2.0000      -0.734477       -19.9861
  17   2.0000      -0.668911       -18.2020
  18   2.0000      -0.625384       -17.0176
  19   2.0000      -0.618602       -16.8330
  20   2.0000      -0.598837       -16.2952
  21   2.0000      -0.596600       -16.2343
  22   2.0000      -0.579118       -15.7586
  23   2.0000      -0.551778       -15.0146
  24   2.0000      -0.550437       -14.9781
  25   2.0000      -0.496615       -13.5136
  26   2.0000      -0.467522       -12.7219
  27   2.0000      -0.350549        -9.5389
  28   2.0000      -0.299641        -8.1537
  29   0.0000       0.027126         0.7381
  30   0.0000       0.028219         0.7679
  31   0.0000       0.037384         1.0173
  32   0.0000       0.046803         1.2736
  33   0.0000       0.053148         1.4462

MULLIKEN ATOMIC CHARGES
-----------------------
   0 H :    0.157900
   1 O :   -0.761028
   2 C :    0.914547
   3 C :   -0.827369
   4 C :   -0.597749
   5 C :    0.914541
   6 C :   -0.827370
   7 C :   -0.597751
   8 H :    0.509534
   9 H :    0.509536
  10 H :    0.604167
  11 H :    0.604171
  12 O :   -0.761028
  13 H :    0.157900
Sum of atomic charges:   -0.0000000

LOEWDIN ATOMIC CHARGES
----------------------
   0 H :   -0.486408
   1 O :    0.832104
   2 C :   -0.388944
   3 C :    0.200332
   4 C :    0.201399
   5 C :   -0.388945
   6 C :    0.200333
   7 C :    0.201398
   8 H :   -0.180333
   9 H :   -0.180333
  10 H :   -0.178150
  11 H :   -0.178150
  12 O :    0.832103
  13 H :   -0.486407

  Mayer bond orders larger than 0.100000
B(  0-H ,  1-O ) :   1.0547 B(  1-O ,  2-C ) :   0.5406 B(  1-O ,  7-C ) :  -0.1622
B(  2-C ,  3-C ) :   1.0347 B(  2-C ,  4-C ) :  -0.2394 B(  2-C ,  5-C ) :   0.1758
B(  2-C ,  7-C ) :   1.1642 B(  3-C ,  4-C ) :   1.2760 B(  3-C ,  7-C ) :   0.3191
B(  3-C , 10-H ) :   0.4440 B(  4-C ,  5-C ) :   1.1642 B(  4-C ,  6-C ) :   0.3191
B(  4-C ,  9-H ) :   0.6035 B(  4-C , 12-O ) :  -0.1622 B(  5-C ,  6-C ) :   1.0347
B(  5-C ,  7-C ) :  -0.2394 B(  5-C , 12-O ) :   0.5406 B(  6-C ,  7-C ) :   1.2760
B(  6-C , 11-H ) :   0.4440 B(  7-C ,  8-H ) :   0.6035 B( 12-O , 13-H ) :   1.0547

MP2 TOTAL ENERGY:     -382.005575237 Eh
FINAL SINGLE POINT ENERGY      -382.005575236805

DIPOLE MOMENT
-------------
                                X             Y             Z
Electronic contribution:     -0.00000       0.00000      -0.00001
Nuclear contribution   :     -0.00000       0.00000       0.00005
                        -----------------------------------------
Total Dipole Moment    :     -0.00001       0.00000       0.00004
                        -----------------------------------------
Magnitude (a.u.)       :      0.00004
Magnitude (Debye)      :      0.00010

Rotational constants in cm-1:     0.189413     0.049742     0.039396
Rotational constants in MHz :  5678.471587  1491.238771  1181.073791

                             ****ORCA TERMINATED NORMALLY****
TOTAL RUN TIME: 0 days 0 hours 1 minutes 47 seconds 844 msec
