                         Program Version 4.2.1 -  RELEASE  -
|  1> %pal
|  2>  nprocs 32
|  3> end
|  4> !RI-MP2 aug-cc-pVTZ aug-cc-pVTZ/C TightSCF
|  5> %maxcore 4500
|  6> *xyzfile 0 1  10_56TS.xyz
|  7>
|  8>
|  9>                          ****END OF INPUT****

CARTESIAN COORDINATES (ANGSTROEM)
---------------------------------
  S     -1.560370   -0.038043    0.105175
  C     -0.646804   -1.170853   -0.974775
  C      0.692245   -1.717514   -0.455824
  C      1.372160   -0.880834    0.604392
  C      1.547226    0.888472   -0.653926
  C      0.674933    1.735431    0.249577
  C     -0.804256    1.594790   -0.095424
  C      2.741613   -0.490012    0.615038
  C      2.869482    0.433201   -0.382062
  H      1.299870    1.093763   -1.704570
  H      0.867780   -0.991324    1.564777
  O     -1.404346   -0.459654    1.495877
  O     -2.897713    0.074410   -0.470676
  H     -1.380124   -1.956332   -1.165635
  H     -0.514804   -0.612222   -1.902608
  H      1.360213   -1.840651   -1.309555
  H      0.517323   -2.712592   -0.032894
  H      0.912554    2.795705    0.083615
  H      0.850869    1.529623    1.303991
  H     -1.003138    1.863427   -1.134626
  H     -1.433099    2.223520    0.537576
  H      3.466694   -0.779367    1.370131
  H      3.758649    0.721004   -0.936599

 Total Charge           Charge          ....    0
 Multiplicity           Mult            ....    1
 Number of Electrons    NEL             ....   92
 Basis Dimension        Dim             ....  786

ORBITAL ENERGIES
----------------

  NO   OCC          E(Eh)            E(eV)
   0   2.0000     -92.171061     -2508.1021
   1   2.0000     -20.537147      -558.8442
   2   2.0000     -20.534342      -558.7679
   3   2.0000     -11.277137      -306.8665
   4   2.0000     -11.276706      -306.8548
   5   2.0000     -11.267550      -306.6056
   6   2.0000     -11.267174      -306.5954
   7   2.0000     -11.258534      -306.3603
   8   2.0000     -11.258269      -306.3531
   9   2.0000     -11.244818      -305.9871
  10   2.0000     -11.240294      -305.8640
  11   2.0000      -9.141372      -248.7494
  12   2.0000      -6.825734      -185.7377
  13   2.0000      -6.825417      -185.7290
  14   2.0000      -6.825314      -185.7262
  15   2.0000      -1.435738       -39.0684
  16   2.0000      -1.324610       -36.0445
  17   2.0000      -1.159293       -31.5460
  18   2.0000      -1.087781       -29.6000
  19   2.0000      -1.082279       -29.4503
  20   2.0000      -0.968587       -26.3566
  21   2.0000      -0.960670       -26.1412
  22   2.0000      -0.869705       -23.6659
  23   2.0000      -0.837060       -22.7775
  24   2.0000      -0.773097       -21.0370
  25   2.0000      -0.729098       -19.8398
  26   2.0000      -0.702552       -19.1174
  27   2.0000      -0.678439       -18.4613
  28   2.0000      -0.667993       -18.1770
  29   2.0000      -0.651317       -17.7232
  30   2.0000      -0.638968       -17.3872
  31   2.0000      -0.609363       -16.5816
  32   2.0000      -0.599210       -16.3053
  33   2.0000      -0.591616       -16.0987
  34   2.0000      -0.576177       -15.6786
  35   2.0000      -0.550821       -14.9886
  36   2.0000      -0.545917       -14.8552
  37   2.0000      -0.530250       -14.4288
  38   2.0000      -0.519032       -14.1236
  39   2.0000      -0.512673       -13.9506
  40   2.0000      -0.485410       -13.2087
  41   2.0000      -0.475597       -12.9417
  42   2.0000      -0.458374       -12.4730
  43   2.0000      -0.422771       -11.5042
  44   2.0000      -0.360752        -9.8166
  45   2.0000      -0.316413        -8.6100
  46   0.0000       0.021638         0.5888
  47   0.0000       0.029301         0.7973
  48   0.0000       0.029832         0.8118
  49   0.0000       0.035157         0.9567
  50   0.0000       0.044530         1.2117

MULLIKEN ATOMIC CHARGES
-----------------------
   0 S :    2.280011
   1 C :   -0.610535
   2 C :   -0.373834
   3 C :    0.216047
   4 C :    0.107557
   5 C :   -0.367036
   6 C :   -0.642527
   7 C :   -1.090205
   8 C :   -0.926118
   9 H :    0.254564
  10 H :    0.321282
  11 O :   -1.108833
  12 O :   -1.147755
  13 H :    0.319003
  14 H :    0.155765
  15 H :    0.291448
  16 H :    0.261054
  17 H :    0.302995
  18 H :    0.237049
  19 H :    0.148444
  20 H :    0.341885
  21 H :    0.563002
  22 H :    0.466738
Sum of atomic charges:   -0.0000000

LOEWDIN ATOMIC CHARGES
----------------------
   0 S :    0.314261
   1 C :    0.224521
   2 C :    0.249770
   3 C :    0.158210
   4 C :    0.162374
   5 C :    0.232755
   6 C :    0.210008
   7 C :    0.203205
   8 C :    0.199082
   9 H :   -0.153828
  10 H :   -0.197893
  11 O :    0.058295
  12 O :    0.033985
  13 H :   -0.187149
  14 H :   -0.194791
  15 H :   -0.156183
  16 H :   -0.147631
  17 H :   -0.141369
  18 H :   -0.164158
  19 H :   -0.186449
  20 H :   -0.178662
  21 H :   -0.168862
  22 H :   -0.169491

  Mayer bond orders larger than 0.100000
B(  0-S ,  1-C ) :   0.9924 B(  0-S ,  6-C ) :   0.9682 B(  0-S , 11-O ) :   1.0981
B(  0-S , 12-O ) :   0.7878 B(  1-C ,  2-C ) :   0.8900 B(  1-C , 11-O ) :   0.1154
B(  1-C , 12-O ) :   0.1113 B(  1-C , 13-H ) :   0.8325 B(  1-C , 14-H ) :   1.0537
B(  2-C ,  3-C ) :   0.7213 B(  2-C , 11-O ) :   0.1136 B(  2-C , 15-H ) :   1.0074
B(  2-C , 16-H ) :   0.9168 B(  3-C ,  4-C ) :   0.5216 B(  3-C ,  7-C ) :   0.8716
B(  3-C , 10-H ) :   1.0033 B(  4-C ,  5-C ) :   0.8097 B(  4-C ,  8-C ) :   0.9482
B(  4-C ,  9-H ) :   0.9649 B(  5-C ,  6-C ) :   0.9069 B(  5-C , 17-H ) :   0.9393
B(  5-C , 18-H ) :   0.9873 B(  6-C , 11-O ) :   0.1008 B(  6-C , 19-H ) :   1.0594
B(  6-C , 20-H ) :   0.8513 B(  7-C ,  8-C ) :   1.3510 B(  7-C , 21-H ) :   0.5671
B(  8-C , 22-H ) :   0.8006 B( 10-H , 11-O ) :  -0.1036

MP2 TOTAL ENERGY:     -859.233227490 Eh
FINAL SINGLE POINT ENERGY      -859.233227489553

DIPOLE MOMENT
-------------
                                X             Y             Z
Electronic contribution:     -6.88402      -0.98315       2.38701
Nuclear contribution   :      8.71038       1.33383      -3.32388
                        -----------------------------------------
Total Dipole Moment    :      1.82636       0.35068      -0.93687
                        -----------------------------------------
Magnitude (a.u.)       :      2.08238
Magnitude (Debye)      :      5.29298

Rotational constants in cm-1:     0.062064     0.026577     0.023121
Rotational constants in MHz :  1860.630792   796.759971   693.137864

                             ****ORCA TERMINATED NORMALLY****
TOTAL RUN TIME: 0 days 0 hours 9 minutes 58 seconds 588 msec
