                         Program Version 4.2.1 -  RELEASE  -
|  1> %pal
|  2>  nprocs 32
|  3> end
|  4> !RI-MP2 aug-cc-pVTZ aug-cc-pVTZ/C TightSCF
|  5> %maxcore 4500
|  6> *xyzfile -1 1  07_7R.xyz
|  7>
|  8>
|  9>                          ****END OF INPUT****

CARTESIAN COORDINATES (ANGSTROEM)
---------------------------------
  C     -1.175336    0.923045    0.305232
  C     -2.479117    0.133318    0.220054
  C     -2.158359   -1.274306    0.727687
  H     -3.196517    0.604216    0.895221
  C     -0.963366   -1.891896   -0.014587
  C      0.032577   -1.039002   -0.455006
  O     -0.196058    0.389911   -0.529249
  C     -1.325552    2.392456   -0.113964
  C      1.135098   -1.434595   -1.335409
  H      1.182265   -0.788488    1.160750
  O      2.504400   -1.274163   -0.785061
  H      1.137639   -0.864663   -2.269451
  H      1.054510   -2.498709   -1.537873
  P      2.928342   -0.057424    0.149233
  O      4.351362   -0.029190    0.492641
  O      1.927724   -0.188443    1.413142
  O      2.458587    1.284552   -0.593169
  H      1.490099    1.350549   -0.680298
  O     -0.980087   -3.144049   -0.125224
  O     -3.258567   -2.143621    0.588887
  H     -1.879856   -1.202612    1.784362
  H     -2.828009   -2.983354    0.333830
  O     -2.347774    3.019319   -0.131006
  O     -0.130027    2.945871   -0.388587
  H     -0.275683    3.883820   -0.569787
  O     -0.754115    0.955380    1.656111
  H      0.213395    1.019309    1.676066
  C     -3.043143    0.112304   -1.197008
  H     -3.909286   -0.547570   -1.222584
  H     -3.348363    1.109521   -1.514448
  H     -2.305699   -0.273145   -1.904153

 Total Charge           Charge          ....   -1
 Multiplicity           Mult            ....    1
 Number of Electrons    NEL             ....  156
 Basis Dimension        Dim             .... 1154

ORBITAL ENERGIES
----------------

  NO   OCC          E(Eh)            E(eV)
   0   2.0000     -79.978090     -2176.3145
   1   2.0000     -20.537240      -558.8467
   2   2.0000     -20.483079      -557.3729
   3   2.0000     -20.477369      -557.2175
   4   2.0000     -20.474171      -557.1305
   5   2.0000     -20.471125      -557.0476
   6   2.0000     -20.469380      -557.0001
   7   2.0000     -20.462894      -556.8236
   8   2.0000     -20.432714      -556.0024
   9   2.0000     -20.385134      -554.7077
  10   2.0000     -20.371363      -554.3330
  11   2.0000     -11.304543      -307.6123
  12   2.0000     -11.269813      -306.6672
  13   2.0000     -11.184221      -304.3381
  14   2.0000     -11.178522      -304.1831
  15   2.0000     -11.165025      -303.8158
  16   2.0000     -11.135205      -303.0043
  17   2.0000     -11.126502      -302.7675
  18   2.0000     -11.113264      -302.4073
  19   2.0000      -7.494067      -203.9239
  20   2.0000      -5.392513      -146.7377
  21   2.0000      -5.392330      -146.7327
  22   2.0000      -5.391240      -146.7031
  23   2.0000      -1.398187       -38.0466
  24   2.0000      -1.339213       -36.4418
  25   2.0000      -1.320783       -35.9403
  26   2.0000      -1.290347       -35.1121
  27   2.0000      -1.258897       -34.2563
  28   2.0000      -1.254324       -34.1319
  29   2.0000      -1.251192       -34.0467
  30   2.0000      -1.244483       -33.8641
  31   2.0000      -1.196332       -32.5539
  32   2.0000      -1.173248       -31.9257
  33   2.0000      -0.986893       -26.8547
  34   2.0000      -0.940951       -25.6046
  35   2.0000      -0.861349       -23.4385
  36   2.0000      -0.846842       -23.0437
  37   2.0000      -0.781356       -21.2618
  38   2.0000      -0.748437       -20.3660
  39   2.0000      -0.710890       -19.3443
  40   2.0000      -0.689916       -18.7736
  41   2.0000      -0.652233       -17.7482
  42   2.0000      -0.640094       -17.4178
  43   2.0000      -0.629019       -17.1165
  44   2.0000      -0.625601       -17.0235
  45   2.0000      -0.608105       -16.5474
  46   2.0000      -0.589813       -16.0496
  47   2.0000      -0.571396       -15.5485
  48   2.0000      -0.563967       -15.3463
  49   2.0000      -0.548209       -14.9175
  50   2.0000      -0.543270       -14.7831
  51   2.0000      -0.538416       -14.6510
  52   2.0000      -0.532306       -14.4848
  53   2.0000      -0.521965       -14.2034
  54   2.0000      -0.495774       -13.4907
  55   2.0000      -0.490298       -13.3417
  56   2.0000      -0.487736       -13.2720
  57   2.0000      -0.465315       -12.6619
  58   2.0000      -0.455477       -12.3942
  59   2.0000      -0.449912       -12.2427
  60   2.0000      -0.445295       -12.1171
  61   2.0000      -0.434120       -11.8130
  62   2.0000      -0.428025       -11.6472
  63   2.0000      -0.422505       -11.4970
  64   2.0000      -0.413127       -11.2418
  65   2.0000      -0.409096       -11.1321
  66   2.0000      -0.408321       -11.1110
  67   2.0000      -0.397818       -10.8252
  68   2.0000      -0.392660       -10.6848
  69   2.0000      -0.380079       -10.3425
  70   2.0000      -0.372118       -10.1258
  71   2.0000      -0.364436        -9.9168
  72   2.0000      -0.351227        -9.5574
  73   2.0000      -0.348685        -9.4882
  74   2.0000      -0.345960        -9.4140
  75   2.0000      -0.321499        -8.7484
  76   2.0000      -0.270599        -7.3634
  77   2.0000      -0.176983        -4.8160
  78   0.0000       0.095638         2.6025
  79   0.0000       0.107478         2.9246
  80   0.0000       0.110828         3.0158
  81   0.0000       0.116378         3.1668
  82   0.0000       0.122607         3.3363

MULLIKEN ATOMIC CHARGES
-----------------------
   0 C :    2.256698
   1 C :   -0.028606
   2 C :    0.678968
   3 H :    0.415932
   4 C :    0.645422
   5 C :    0.765024
   6 O :   -0.866958
   7 C :    0.172229
   8 C :   -0.686388
   9 H :    0.448174
  10 O :   -0.717208
  11 H :    0.193123
  12 H :    0.341992
  13 P :    1.842643
  14 O :   -1.170344
  15 O :   -0.804029
  16 O :   -0.719092
  17 H :    0.512724
  18 O :   -1.411552
  19 O :   -0.977583
  20 H :    0.214199
  21 H :    0.201146
  22 O :   -1.022532
  23 O :   -0.421405
  24 H :    0.192211
  25 O :   -0.989788
  26 H :    0.140101
  27 C :   -1.057552
  28 H :    0.249975
  29 H :    0.275436
  30 H :    0.327040
Sum of atomic charges:   -1.0000000

LOEWDIN ATOMIC CHARGES
----------------------
   0 C :   -0.813364
   1 C :   -0.027417
   2 C :   -0.270795
   3 H :   -0.127556
   4 C :   -0.579890
   5 C :   -0.364217
   6 O :    0.600875
   7 C :   -0.770548
   8 C :    0.004488
   9 H :   -0.663153
  10 O :    0.352298
  11 H :   -0.167058
  12 H :   -0.184445
  13 P :   -0.252081
  14 O :   -0.030789
  15 O :    0.655800
  16 O :    0.645779
  17 H :   -0.740851
  18 O :    0.414904
  19 O :    0.829193
  20 H :   -0.153171
  21 H :   -0.621433
  22 O :    0.476640
  23 O :    0.856873
  24 H :   -0.456712
  25 O :    0.873677
  26 H :   -0.555643
  27 C :    0.591165
  28 H :   -0.171906
  29 H :   -0.185109
  30 H :   -0.165554

  Mayer bond orders larger than 0.100000
B(  0-C ,  1-C ) :   0.9788 B(  0-C ,  6-O ) :   0.5807 B(  0-C ,  7-C ) :  -0.3999
B(  0-C , 22-O ) :   0.2888 B(  0-C , 23-O ) :  -0.2048 B(  0-C , 27-C ) :   0.1204
B(  1-C ,  2-C ) :   1.0418 B(  1-C ,  3-H ) :   0.7490 B(  1-C ,  4-C ) :   0.2625
B(  1-C ,  7-C ) :  -0.1471 B(  1-C , 19-O ) :   0.1310 B(  1-C , 27-C ) :   0.7162
B(  2-C ,  4-C ) :   0.8805 B(  2-C , 20-H ) :   1.2005 B(  4-C ,  5-C ) :   1.5741
B(  4-C ,  6-O ) :  -0.1491 B(  4-C , 18-O ) :  -0.1195 B(  4-C , 19-O ) :   0.1967
B(  5-C ,  6-O ) :   0.7901 B(  5-C ,  8-C ) :   0.6145 B(  5-C , 18-O ) :   0.2993
B(  6-O ,  7-C ) :   0.1483 B(  6-O , 25-O ) :   0.1038 B(  7-C , 22-O ) :   1.0039
B(  7-C , 23-O ) :   1.0346 B(  7-C , 25-O ) :   0.2559 B(  8-C , 10-O ) :   0.5322
B(  8-C , 11-H ) :   1.0763 B(  8-C , 12-H ) :   1.0013 B(  9-H , 15-O ) :   0.5748
B( 10-O , 13-P ) :   1.1423 B( 10-O , 15-O ) :   0.1472 B( 10-O , 16-O ) :   0.1589
B( 13-P , 14-O ) :   0.9497 B( 13-P , 15-O ) :   0.9631 B( 13-P , 16-O ) :   0.9219
B( 15-O , 16-O ) :   0.1482 B( 16-O , 17-H ) :   0.5117 B( 19-O , 21-H ) :   1.0131
B( 23-O , 24-H ) :   1.0024 B( 25-O , 26-H ) :   1.0024 B( 27-C , 28-H ) :   1.0551
B( 27-C , 29-H ) :   0.9865 B( 27-C , 30-H ) :   0.9044

MP2 TOTAL ENERGY:    -1403.820919244 Eh
FINAL SINGLE POINT ENERGY     -1403.820919244131

DIPOLE MOMENT
-------------
                                X             Y             Z
Electronic contribution:     13.53921       3.15932       2.98429
Nuclear contribution   :    -14.98383      -1.07802      -3.85863
                        -----------------------------------------
Total Dipole Moment    :     -1.44461       2.08130      -0.87435
                        -----------------------------------------
Magnitude (a.u.)       :      2.68015
Magnitude (Debye)      :      6.81241

Rotational constants in cm-1:     0.017090     0.010183     0.007402
Rotational constants in MHz :   512.334111   305.264811   221.913448

                             ****ORCA TERMINATED NORMALLY****
TOTAL RUN TIME: 0 days 0 hours 33 minutes 6 seconds 863 msec
