                         Program Version 4.2.1 -  RELEASE  -
|  1> %pal
|  2>  nprocs 32
|  3> end
|  4> !RI-MP2 aug-cc-pVTZ aug-cc-pVTZ/C TightSCF
|  5> %maxcore 4500
|  6> *xyzfile 1 1  05_13TS.xyz
|  7>
|  8>
|  9>                          ****END OF INPUT****

CARTESIAN COORDINATES (ANGSTROEM)
---------------------------------
  C      0.036349   -1.063781   -0.921516
  C     -0.130145   -0.450404    1.662788
  C      1.074080    0.469473    1.438317
  C      1.989246    0.000608    0.322174
  C      1.196806   -0.073192   -0.978204
  H      0.718332    1.478934    1.205200
  H      1.621117    0.531762    2.381531
  H      2.389533   -0.988615    0.549916
  H      0.816498    0.924981   -1.218323
  H      1.861597   -0.377829   -1.786476
  N     -0.741371   -0.807076    0.337812
  O     -1.860222   -1.432997    0.428929
  C     -0.877502   -0.853845   -2.124547
  H     -0.279024   -0.956400   -3.029827
  H     -1.661866   -1.609255   -2.162351
  H     -1.323935    0.139508   -2.117846
  C      0.526570   -2.520271   -0.920580
  H     -0.309623   -3.203249   -0.766790
  H      0.975294   -2.737691   -1.890283
  H      1.282617   -2.713179   -0.163518
  C     -1.177812    0.285161    2.493830
  H     -2.037963   -0.346189    2.715603
  H     -0.729944    0.576631    3.443987
  H     -1.506612    1.195598    1.993633
  C      0.273359   -1.740520    2.390646
  H      0.584563   -1.491568    3.406209
  H     -0.573279   -2.424681    2.451100
  H      1.100262   -2.253447    1.904971
  C     -3.764744    0.085568   -0.206417
  H     -4.231214    0.268561    0.766317
  H     -2.760272   -0.774616    0.242466
  O     -3.075519    1.087086   -0.708499
  C     -3.032700    2.361384   -0.003058
  H     -3.117349    2.168299    1.067540
  H     -3.915517    2.912133   -0.332270
  C     -4.456826   -0.813158   -1.172017
  H     -3.858834   -0.962014   -2.069081
  H     -5.399990   -0.336624   -1.465022
  C     -1.762546    3.075990   -0.372997
  H     -1.705278    3.230766   -1.450553
  H     -1.743484    4.052933    0.112492
  H     -0.886809    2.511854   -0.052337
  H     -4.693613   -1.773716   -0.714610
  N      3.134171    0.879730    0.199892
  C      4.260348    0.449739   -0.446091
  C      5.412348    1.417072   -0.502935
  H      6.271713    0.961389   -0.010071
  H      5.682536    1.578625   -1.546599
  H      5.198259    2.377323   -0.033037
  O      4.307996   -0.660981   -0.938205
  H      3.103660    1.807391    0.589950

 Total Charge           Charge          ....    1
 Multiplicity           Mult            ....    1
 Number of Electrons    NEL             ....  158
 Basis Dimension        Dim             .... 1633

ORBITAL ENERGIES
----------------

  NO   OCC          E(Eh)            E(eV)
   0   2.0000     -20.809992      -566.2687
   1   2.0000     -20.785473      -565.6015
   2   2.0000     -20.598460      -560.5126
   3   2.0000     -15.782113      -429.4531
   4   2.0000     -15.675016      -426.5389
   5   2.0000     -11.530137      -313.7510
   6   2.0000     -11.446255      -311.4684
   7   2.0000     -11.432063      -311.0822
   8   2.0000     -11.409371      -310.4648
   9   2.0000     -11.399005      -310.1827
  10   2.0000     -11.389202      -309.9160
  11   2.0000     -11.372228      -309.4541
  12   2.0000     -11.356841      -309.0353
  13   2.0000     -11.348072      -308.7967
  14   2.0000     -11.345712      -308.7325
  15   2.0000     -11.330358      -308.3147
  16   2.0000     -11.329866      -308.3013
  17   2.0000     -11.329236      -308.2842
  18   2.0000     -11.320460      -308.0454
  19   2.0000     -11.311581      -307.8038
  20   2.0000      -1.639274       -44.6069
  21   2.0000      -1.610474       -43.8232
  22   2.0000      -1.468856       -39.9696
  23   2.0000      -1.334651       -36.3177
  24   2.0000      -1.300034       -35.3757
  25   2.0000      -1.231921       -33.5223
  26   2.0000      -1.226627       -33.3782
  27   2.0000      -1.166699       -31.7475
  28   2.0000      -1.157187       -31.4887
  29   2.0000      -1.115277       -30.3482
  30   2.0000      -1.076683       -29.2980
  31   2.0000      -1.066619       -29.0242
  32   2.0000      -1.053999       -28.6808
  33   2.0000      -1.047556       -28.5054
  34   2.0000      -1.028880       -27.9972
  35   2.0000      -1.003242       -27.2996
  36   2.0000      -0.957711       -26.0606
  37   2.0000      -0.940439       -25.5907
  38   2.0000      -0.904382       -24.6095
  39   2.0000      -0.883656       -24.0455
  40   2.0000      -0.871025       -23.7018
  41   2.0000      -0.850964       -23.1559
  42   2.0000      -0.830334       -22.5945
  43   2.0000      -0.808908       -22.0115
  44   2.0000      -0.803450       -21.8630
  45   2.0000      -0.785168       -21.3655
  46   2.0000      -0.775006       -21.0890
  47   2.0000      -0.760998       -20.7078
  48   2.0000      -0.747170       -20.3315
  49   2.0000      -0.735315       -20.0089
  50   2.0000      -0.724658       -19.7190
  51   2.0000      -0.721103       -19.6222
  52   2.0000      -0.713337       -19.4109
  53   2.0000      -0.706080       -19.2134
  54   2.0000      -0.703816       -19.1518
  55   2.0000      -0.698052       -18.9950
  56   2.0000      -0.691214       -18.8089
  57   2.0000      -0.685861       -18.6632
  58   2.0000      -0.683123       -18.5887
  59   2.0000      -0.676621       -18.4118
  60   2.0000      -0.669030       -18.2052
  61   2.0000      -0.665144       -18.0995
  62   2.0000      -0.663249       -18.0479
  63   2.0000      -0.657818       -17.9001
  64   2.0000      -0.649160       -17.6645
  65   2.0000      -0.641364       -17.4524
  66   2.0000      -0.639079       -17.3902
  67   2.0000      -0.633946       -17.2505
  68   2.0000      -0.632480       -17.2107
  69   2.0000      -0.618771       -16.8376
  70   2.0000      -0.606310       -16.4985
  71   2.0000      -0.600731       -16.3467
  72   2.0000      -0.598074       -16.2744
  73   2.0000      -0.589319       -16.0362
  74   2.0000      -0.573284       -15.5998
  75   2.0000      -0.567698       -15.4479
  76   2.0000      -0.506562       -13.7842
  77   2.0000      -0.482398       -13.1267
  78   2.0000      -0.469463       -12.7747
  79   0.0000      -0.148193        -4.0325
  80   0.0000      -0.067964        -1.8494
  81   0.0000      -0.055893        -1.5209
  82   0.0000      -0.054253        -1.4763
  83   0.0000      -0.049435        -1.3452

MULLIKEN ATOMIC CHARGES
-----------------------
   0 C :    1.589260
   1 C :    1.558701
   2 C :   -0.980509
   3 C :    0.921242
   4 C :   -0.800264
   5 H :    0.261251
   6 H :    0.319864
   7 H :    0.493886
   8 H :    0.206342
   9 H :    0.320691
  10 N :    2.679068
  11 O :   -1.401221
  12 C :   -1.700513
  13 H :    0.072580
  14 H :    0.114326
  15 H :    0.479111
  16 C :   -1.590480
  17 H :    0.167265
  18 H :    0.140737
  19 H :    0.307182
  20 C :   -1.791310
  21 H :    0.182301
  22 H :   -0.000269
  23 H :    0.481079
  24 C :   -1.705165
  25 H :    0.134642
  26 H :    0.132046
  27 H :    0.350277
  28 C :    0.109268
  29 H :    0.590516
  30 H :    0.384375
  31 O :   -0.469890
  32 C :   -0.327261
  33 H :    0.295773
  34 H :    0.399859
  35 C :   -0.983811
  36 H :    0.433190
  37 H :    0.264380
  38 C :   -0.984215
  39 H :    0.229217
  40 H :    0.194992
  41 H :    0.560567
  42 H :    0.319656
  43 N :   -0.566879
  44 C :    0.731979
  45 C :   -0.892507
  46 H :    0.327061
  47 H :    0.323107
  48 H :    0.268733
  49 O :   -1.048049
  50 H :   -0.102181
Sum of atomic charges:    1.0000000

LOEWDIN ATOMIC CHARGES
----------------------
   0 C :   -0.375409
   1 C :   -0.371249
   2 C :    0.331772
   3 C :   -0.097852
   4 C :    0.329451
   5 H :   -0.144744
   6 H :   -0.112484
   7 H :   -0.157460
   8 H :   -0.128858
   9 H :   -0.132787
  10 N :    0.121121
  11 O :    0.770787
  12 C :    0.599735
  13 H :   -0.137087
  14 H :   -0.169257
  15 H :   -0.183057
  16 C :    0.631518
  17 H :   -0.147466
  18 H :   -0.138139
  19 H :   -0.178917
  20 C :    0.606873
  21 H :   -0.151823
  22 H :   -0.135824
  23 H :   -0.197865
  24 C :    0.628741
  25 H :   -0.142379
  26 H :   -0.147845
  27 H :   -0.175855
  28 C :    0.008827
  29 H :   -0.091557
  30 H :   -0.594906
  31 O :    0.676325
  32 C :    0.122608
  33 H :   -0.170094
  34 H :   -0.128629
  35 C :    0.664336
  36 H :   -0.162046
  37 H :   -0.133856
  38 C :    0.617613
  39 H :   -0.150573
  40 H :   -0.148308
  41 H :   -0.193131
  42 H :   -0.139769
  43 N :    0.592249
  44 C :   -0.660867
  45 C :    0.611794
  46 H :   -0.164356
  47 H :   -0.166001
  48 H :   -0.179768
  49 O :    0.473328
  50 H :   -0.276857

  Mayer bond orders larger than 0.100000
B(  0-C ,  4-C ) :   0.4355 B(  0-C , 10-N ) :   0.7185 B(  0-C , 11-O ) :   0.2518
B(  0-C , 12-C ) :   0.2322 B(  0-C , 13-H ) :  -0.1468 B(  0-C , 18-H ) :  -0.1755
B(  0-C , 19-H ) :  -0.1563 B(  1-C ,  2-C ) :   0.4284 B(  1-C ,  3-C ) :   0.1466
B(  1-C , 10-N ) :   0.6627 B(  1-C , 20-C ) :   0.1648 B(  1-C , 22-H ) :  -0.1742
B(  1-C , 25-H ) :  -0.1880 B(  1-C , 26-H ) :  -0.1254 B(  2-C ,  3-C ) :   0.7505
B(  2-C ,  4-C ) :   0.1407 B(  2-C ,  5-H ) :   1.0845 B(  2-C ,  6-H ) :   0.8291
B(  2-C ,  7-H ) :  -0.1343 B(  2-C , 20-C ) :  -0.1208 B(  2-C , 43-N ) :   0.2270
B(  3-C ,  4-C ) :   0.8809 B(  3-C ,  7-H ) :   0.8811 B(  3-C , 49-O ) :   0.1229
B(  4-C ,  7-H ) :   0.2624 B(  4-C ,  8-H ) :   1.0974 B(  4-C ,  9-H ) :   0.9268
B(  7-H , 43-N ) :  -0.4178 B(  7-H , 44-C ) :  -0.1763 B(  7-H , 49-O ) :  -0.1567
B( 10-N , 11-O ) :  -0.4648 B( 10-N , 12-C ) :  -0.4173 B( 10-N , 14-H ) :  -0.3197
B( 10-N , 16-C ) :  -0.1760 B( 10-N , 17-H ) :  -0.2188 B( 10-N , 20-C ) :  -0.3710
B( 10-N , 21-H ) :  -0.2394 B( 10-N , 24-C ) :  -0.2439 B( 10-N , 26-H ) :  -0.1810
B( 10-N , 28-C ) :   0.1757 B( 10-N , 30-H ) :   0.2637 B( 11-O , 14-H ) :   0.1487
B( 11-O , 16-C ) :   0.1044 B( 11-O , 17-H ) :   0.1113 B( 11-O , 24-C ) :   0.1243
B( 11-O , 30-H ) :   0.4748 B( 12-C , 13-H ) :   1.3867 B( 12-C , 14-H ) :   1.3031
B( 12-C , 15-H ) :   0.9013 B( 12-C , 16-C ) :   0.1643 B( 16-C , 17-H ) :   1.1955
B( 16-C , 18-H ) :   1.3014 B( 16-C , 19-H ) :   1.0847 B( 20-C , 21-H ) :   1.2133
B( 20-C , 22-H ) :   1.4603 B( 20-C , 23-H ) :   0.9528 B( 20-C , 24-C ) :   0.1677
B( 24-C , 25-H ) :   1.2865 B( 24-C , 26-H ) :   1.2895 B( 24-C , 27-H ) :   1.0418
B( 28-C , 29-H ) :   0.7149 B( 28-C , 30-H ) :   0.1175 B( 28-C , 31-O ) :   1.2863
B( 28-C , 35-C ) :   0.7043 B( 30-H , 31-O ) :  -0.1223 B( 31-O , 32-C ) :   0.7412
B( 32-C , 33-H ) :   0.9822 B( 32-C , 34-H ) :   0.8502 B( 32-C , 38-C ) :   0.8481
B( 33-H , 38-C ) :   0.1204 B( 35-C , 36-H ) :   0.8553 B( 35-C , 37-H ) :   1.0048
B( 35-C , 42-H ) :   0.9674 B( 38-C , 39-H ) :   0.9905 B( 38-C , 40-H ) :   1.0716
B( 38-C , 41-H ) :   0.7616 B( 43-N , 44-C ) :   1.2225 B( 43-N , 50-H ) :   1.2911
B( 44-C , 45-C ) :   0.4784 B( 44-C , 49-O ) :   1.4101 B( 45-C , 46-H ) :   0.9887
B( 45-C , 47-H ) :   0.9809 B( 45-C , 48-H ) :   1.0053 B( 45-C , 49-O ) :  -0.1307

MP2 TOTAL ENERGY:     -923.349357275 Eh
FINAL SINGLE POINT ENERGY      -923.349357275432

DIPOLE MOMENT
-------------
                                X             Y             Z
Electronic contribution:      5.36457      -2.06964      -1.28941
Nuclear contribution   :     -9.47970       3.89824       2.08397
                        -----------------------------------------
Total Dipole Moment    :     -4.11513       1.82860       0.79456
                        -----------------------------------------
Magnitude (a.u.)       :      4.57268
Magnitude (Debye)      :     11.62283

Rotational constants in cm-1:     0.017182     0.006533     0.006256
Rotational constants in MHz :   515.117804   195.855913   187.550890

                             ****ORCA TERMINATED NORMALLY****
TOTAL RUN TIME: 0 days 2 hours 5 minutes 51 seconds 421 msec
