                         Program Version 4.2.1 -  RELEASE  -
|  1> %pal
|  2>  nprocs 32
|  3> end
|  4> !RI-MP2 aug-cc-pVTZ aug-cc-pVTZ/C TightSCF
|  5> %maxcore 4500
|  6> *xyzfile 1 1  02_33R.xyz
|  7>
|  8>
|  9>                          ****END OF INPUT****

CARTESIAN COORDINATES (ANGSTROEM)
---------------------------------
  C      1.327491   -1.283738   -0.201192
  N      0.307281   -0.587807   -0.421915
  N     -0.525235    0.220506   -0.722463
  C     -1.851910    0.105031   -0.283061
  C     -2.305125   -0.933530    0.537269
  C     -2.702407    1.117998   -0.722720
  C     -3.630137   -0.945376    0.914052
  H     -1.630061   -1.712319    0.870638
  C     -4.031030    1.092281   -0.336204
  H     -2.307423    1.902131   -1.355680
  C     -4.489568    0.065312    0.477594
  H     -4.005795   -1.737490    1.548392
  H     -4.707075    1.869310   -0.667268
  H     -5.529281    0.045509    0.780024
  C      2.181090   -0.978170    1.002559
  C      1.665435   -2.410020   -1.129640
  H      2.637417   -2.207458   -1.584414
  H      1.753206   -3.336513   -0.559347
  H      0.922717   -2.531247   -1.914958
  C      2.891504    1.941542    0.477046
  C      1.856798    2.620838    0.004091
  C      3.565093    0.800858   -0.226055
  C      3.581502   -0.486841    0.603576
  H      1.681585   -0.229256    1.616816
  H      2.261427   -1.899970    1.584747
  H      4.119513   -1.271323    0.066828
  H      4.132856   -0.321889    1.532466
  H      3.083594    0.630664   -1.195439
  H      4.601796    1.072224   -0.445312
  H      3.311112    2.218778    1.442241
  H      1.421527    2.392245   -0.963840
  H      1.426145    3.450592    0.550858

 Total Charge           Charge          ....    1
 Multiplicity           Mult            ....    1
 Number of Electrons    NEL             ....  108
 Basis Dimension        Dim             .... 1081

ORBITAL ENERGIES
----------------

  NO   OCC          E(Eh)            E(eV)
   0   2.0000     -15.861242      -431.6063
   1   2.0000     -15.857653      -431.5087
   2   2.0000     -11.511900      -313.2547
   3   2.0000     -11.424410      -310.8740
   4   2.0000     -11.398205      -310.1609
   5   2.0000     -11.394139      -310.0503
   6   2.0000     -11.393224      -310.0254
   7   2.0000     -11.390966      -309.9640
   8   2.0000     -11.383011      -309.7475
   9   2.0000     -11.373733      -309.4950
  10   2.0000     -11.369517      -309.3803
  11   2.0000     -11.365144      -309.2613
  12   2.0000     -11.348056      -308.7963
  13   2.0000     -11.341125      -308.6077
  14   2.0000     -11.328351      -308.2601
  15   2.0000      -1.612976       -43.8913
  16   2.0000      -1.374240       -37.3950
  17   2.0000      -1.300968       -35.4011
  18   2.0000      -1.227488       -33.4016
  19   2.0000      -1.192161       -32.4404
  20   2.0000      -1.168969       -31.8093
  21   2.0000      -1.154324       -31.4107
  22   2.0000      -1.136012       -30.9124
  23   2.0000      -1.076575       -29.2951
  24   2.0000      -1.030150       -28.0318
  25   2.0000      -0.982721       -26.7412
  26   2.0000      -0.963393       -26.2153
  27   2.0000      -0.906624       -24.6705
  28   2.0000      -0.879512       -23.9327
  29   2.0000      -0.856449       -23.3052
  30   2.0000      -0.843247       -22.9459
  31   2.0000      -0.828339       -22.5403
  32   2.0000      -0.823824       -22.4174
  33   2.0000      -0.781026       -21.2528
  34   2.0000      -0.755664       -20.5627
  35   2.0000      -0.754778       -20.5386
  36   2.0000      -0.748830       -20.3767
  37   2.0000      -0.741119       -20.1669
  38   2.0000      -0.736194       -20.0328
  39   2.0000      -0.724756       -19.7216
  40   2.0000      -0.719946       -19.5907
  41   2.0000      -0.690772       -18.7969
  42   2.0000      -0.688014       -18.7218
  43   2.0000      -0.661362       -17.9966
  44   2.0000      -0.647865       -17.6293
  45   2.0000      -0.643665       -17.5150
  46   2.0000      -0.637074       -17.3357
  47   2.0000      -0.633199       -17.2302
  48   2.0000      -0.610789       -16.6204
  49   2.0000      -0.590913       -16.0796
  50   2.0000      -0.568791       -15.4776
  51   2.0000      -0.483967       -13.1694
  52   2.0000      -0.482881       -13.1399
  53   2.0000      -0.474240       -12.9047
  54   0.0000      -0.110421        -3.0047
  55   0.0000      -0.069050        -1.8789
  56   0.0000      -0.055387        -1.5071
  57   0.0000      -0.052350        -1.4245
  58   0.0000      -0.049315        -1.3419

MULLIKEN ATOMIC CHARGES
-----------------------
   0 C :    0.617335
   1 N :    0.189364
   2 N :   -0.939257
   3 C :    1.376347
   4 C :   -0.476387
   5 C :   -0.894830
   6 C :   -0.892085
   7 H :    0.689621
   8 C :   -0.617367
   9 H :    0.715165
  10 C :   -0.352755
  11 H :    0.421375
  12 H :    0.340394
  13 H :    0.571826
  14 C :   -0.251927
  15 C :   -1.055159
  16 H :    0.357992
  17 H :    0.338253
  18 H :    0.292618
  19 C :   -0.105028
  20 C :   -1.083278
  21 C :   -0.236584
  22 C :   -0.425914
  23 H :    0.160927
  24 H :    0.362355
  25 H :    0.188179
  26 H :    0.308138
  27 H :    0.009759
  28 H :    0.429079
  29 H :    0.146733
  30 H :    0.342377
  31 H :    0.472734
Sum of atomic charges:    1.0000000

LOEWDIN ATOMIC CHARGES
----------------------
   0 C :   -0.160537
   1 N :    0.305419
   2 N :    0.354336
   3 C :   -0.269439
   4 C :    0.229080
   5 C :    0.229102
   6 C :    0.236530
   7 H :   -0.169963
   8 C :    0.239781
   9 H :   -0.159515
  10 C :    0.246843
  11 H :   -0.167350
  12 H :   -0.166564
  13 H :   -0.157374
  14 C :    0.329062
  15 C :    0.657437
  16 H :   -0.147384
  17 H :   -0.140026
  18 H :   -0.149358
  19 C :    0.182907
  20 C :    0.532460
  21 C :    0.262414
  22 C :    0.305576
  23 H :   -0.145696
  24 H :   -0.124758
  25 H :   -0.140326
  26 H :   -0.127101
  27 H :   -0.154496
  28 H :   -0.132831
  29 H :   -0.167919
  30 H :   -0.218434
  31 H :   -0.211878

  Mayer bond orders larger than 0.100000
B(  0-C ,  1-N ) :   1.0760 B(  0-C ,  2-N ) :  -0.1659 B(  0-C , 14-C ) :   0.6384
B(  0-C , 15-C ) :   0.6314 B(  0-C , 22-C ) :   0.1135 B(  0-C , 23-H ) :   0.1263
B(  0-C , 24-H ) :  -0.1098 B(  1-N ,  2-N ) :   0.5454 B(  1-N ,  3-C ) :   0.2910
B(  1-N ,  4-C ) :   0.1870 B(  1-N ,  5-C ) :   0.1391 B(  1-N ,  7-H ) :  -0.3435
B(  1-N , 14-C ) :  -0.1615 B(  2-N ,  4-C ) :  -0.5286 B(  2-N ,  5-C ) :  -0.1738
B(  2-N ,  7-H ) :   0.2206 B(  2-N , 15-C ) :   0.1610 B(  3-C ,  4-C ) :   0.5617
B(  3-C ,  5-C ) :   0.4610 B(  3-C ,  6-C ) :  -0.2812 B(  3-C ,  7-H ) :   0.1032
B(  3-C ,  8-C ) :  -0.2498 B(  3-C , 10-C ) :  -0.1156 B(  4-C ,  5-C ) :   0.3475
B(  4-C ,  6-C ) :   1.2519 B(  4-C ,  7-H ) :   0.4589 B(  4-C , 10-C ) :   0.1987
B(  5-C ,  8-C ) :   1.2878 B(  5-C ,  9-H ) :   0.2333 B(  5-C , 10-C ) :   0.3121
B(  6-C ,  8-C ) :  -0.1052 B(  6-C , 10-C ) :   1.1755 B(  6-C , 11-H ) :   0.8610
B(  8-C , 10-C ) :   1.0850 B(  8-C , 12-H ) :   1.0321 B( 10-C , 13-H ) :   0.6263
B( 14-C , 22-C ) :   0.8807 B( 14-C , 23-H ) :   1.0419 B( 14-C , 24-H ) :   0.8638
B( 15-C , 16-H ) :   0.9412 B( 15-C , 17-H ) :   0.9312 B( 15-C , 18-H ) :   0.9956
B( 19-C , 20-C ) :   1.3613 B( 19-C , 21-C ) :   0.7663 B( 19-C , 27-H ) :   0.1421
B( 19-C , 28-H ) :  -0.1300 B( 19-C , 29-H ) :   1.1567 B( 20-C , 30-H ) :   1.0083
B( 20-C , 31-H ) :   0.6843 B( 21-C , 22-C ) :   0.9165 B( 21-C , 27-H ) :   1.1370
B( 21-C , 28-H ) :   0.8519 B( 22-C , 25-H ) :   0.9806 B( 22-C , 26-H ) :   0.9338

MP2 TOTAL ENERGY:     -613.519000714 Eh
FINAL SINGLE POINT ENERGY      -613.519000713796

DIPOLE MOMENT
-------------
                                X             Y             Z
Electronic contribution:    -13.35323       0.24908      -1.26987
Nuclear contribution   :     13.39557      -1.69648       1.32210
                        -----------------------------------------
Total Dipole Moment    :      0.04234      -1.44740       0.05223
                        -----------------------------------------
Magnitude (a.u.)       :      1.44896
Magnitude (Debye)      :      3.68297

Rotational constants in cm-1:     0.036932     0.010374     0.008916
Rotational constants in MHz :  1107.194242   311.011242   267.309313

                             ****ORCA TERMINATED NORMALLY****
TOTAL RUN TIME: 0 days 0 hours 23 minutes 2 seconds 582 msec
