                         Program Version 4.2.1 -  RELEASE  -
|  1> %pal
|  2>  nprocs 32
|  3> end
|  4> !RI-MP2 aug-cc-pVTZ aug-cc-pVTZ/C TightSCF
|  5> %maxcore 4500
|  6> *xyzfile 0 1  07_1TS.xyz
|  7>
|  8>
|  9>                          ****END OF INPUT****

CARTESIAN COORDINATES (ANGSTROEM)
---------------------------------
  N     -1.108278    0.196033   -0.000000
  C      0.000000    0.973544   -0.000000
  C      1.275716    0.387691    0.000000
  C      1.320867   -0.988726    0.000000
  C      0.154948   -1.773463    0.000000
  C     -1.066182   -1.137243    0.000000
  O     -0.431105    2.181332   -0.000000
  H     -1.553791    1.407858   -0.000000
  H      2.164230    1.001917    0.000000
  H      2.285437   -1.483367    0.000000
  H      0.208611   -2.852442    0.000000
  H     -2.009789   -1.667679    0.000000

 Total Charge           Charge          ....    0
 Multiplicity           Mult            ....    1
 Number of Electrons    NEL             ....   50
 Basis Dimension        Dim             ....  437

ORBITAL ENERGIES
----------------

  NO   OCC          E(Eh)            E(eV)
   0   2.0000     -20.536081      -558.8152
   1   2.0000     -15.598654      -424.4609
   2   2.0000     -11.348203      -308.8003
   3   2.0000     -11.310490      -307.7741
   4   2.0000     -11.280101      -306.9471
   5   2.0000     -11.243685      -305.9562
   6   2.0000     -11.241562      -305.8985
   7   2.0000      -1.407726       -38.3062
   8   2.0000      -1.256918       -34.2025
   9   2.0000      -1.107228       -30.1292
  10   2.0000      -1.034550       -28.1515
  11   2.0000      -0.902187       -24.5498
  12   2.0000      -0.852233       -23.1905
  13   2.0000      -0.744357       -20.2550
  14   2.0000      -0.700237       -19.0544
  15   2.0000      -0.667027       -18.1507
  16   2.0000      -0.627424       -17.0731
  17   2.0000      -0.613058       -16.6821
  18   2.0000      -0.602669       -16.3995
  19   2.0000      -0.557376       -15.1670
  20   2.0000      -0.499745       -13.5987
  21   2.0000      -0.494158       -13.4467
  22   2.0000      -0.457421       -12.4471
  23   2.0000      -0.415485       -11.3059
  24   2.0000      -0.324045        -8.8177
  25   0.0000       0.023314         0.6344
  26   0.0000       0.030369         0.8264
  27   0.0000       0.037703         1.0260
  28   0.0000       0.050074         1.3626
  29   0.0000       0.055636         1.5139

MULLIKEN ATOMIC CHARGES
-----------------------
   0 N :   -0.232024
   1 C :    0.396782
   2 C :   -0.222613
   3 C :   -0.686433
   4 C :   -0.058008
   5 C :   -0.613200
   6 O :   -0.836378
   7 H :    0.402157
   8 H :    0.307223
   9 H :    0.534413
  10 H :    0.386914
  11 H :    0.621166
Sum of atomic charges:   -0.0000000

LOEWDIN ATOMIC CHARGES
----------------------
   0 N :    0.481686
   1 C :   -0.635268
   2 C :    0.245963
   3 C :    0.185449
   4 C :    0.196209
   5 C :    0.097273
   6 O :    0.580626
   7 H :   -0.426323
   8 H :   -0.189736
   9 H :   -0.167419
  10 H :   -0.201795
  11 H :   -0.166664

  Mayer bond orders larger than 0.100000
B(  0-N ,  1-C ) :   1.2325 B(  0-N ,  4-C ) :  -0.2335 B(  0-N ,  5-C ) :   1.1710
B(  0-N ,  7-H ) :   0.5225 B(  1-C ,  2-C ) :   0.9317 B(  1-C ,  3-C ) :   0.1832
B(  1-C ,  4-C ) :  -0.1273 B(  1-C ,  5-C ) :   0.2919 B(  1-C ,  6-O ) :   0.8702
B(  2-C ,  3-C ) :   1.3606 B(  2-C ,  5-C ) :  -0.1568 B(  2-C ,  8-H ) :   0.9757
B(  3-C ,  4-C ) :   1.0555 B(  3-C ,  5-C ) :   0.2468 B(  3-C ,  9-H ) :   0.6601
B(  3-C , 10-H ) :  -0.1149 B(  4-C ,  5-C ) :   0.8702 B(  4-C , 10-H ) :   0.9021
B(  5-C , 11-H ) :   0.4883 B(  6-O ,  7-H ) :   0.4554

MP2 TOTAL ENERGY:     -322.864862286 Eh
FINAL SINGLE POINT ENERGY      -322.864862285983

DIPOLE MOMENT
-------------
                                X             Y             Z
Electronic contribution:     -0.92493       1.99456      -0.00000
Nuclear contribution   :      1.06778      -3.51338       0.00000
                        -----------------------------------------
Total Dipole Moment    :      0.14285      -1.51882      -0.00000
                        -----------------------------------------
Magnitude (a.u.)       :      1.52552
Magnitude (Debye)      :      3.87756

Rotational constants in cm-1:     0.192432     0.096578     0.064304
Rotational constants in MHz :  5768.956927  2895.324478  1927.800059

                             ****ORCA TERMINATED NORMALLY****
TOTAL RUN TIME: 0 days 0 hours 1 minutes 25 seconds 899 msec
