                         Program Version 4.2.1 -  RELEASE  -
|  1> %pal
|  2>  nprocs 32
|  3> end
|  4> !RI-MP2 aug-cc-pVTZ aug-cc-pVTZ/C TightSCF
|  5> %maxcore 4500
|  6> *xyzfile 0 1  02_45P.xyz
|  7>
|  8>
|  9>                          ****END OF INPUT****

CARTESIAN COORDINATES (ANGSTROEM)
---------------------------------
  C      0.440083    0.111272   -1.210761
  C      1.118501    1.328748   -0.667814
  C      0.440075    0.111243    1.210766
  C      1.118496    1.328733    0.667852
  S     -0.968883   -0.011892   -0.000003
  C      1.231892   -1.142445   -0.779397
  C      1.231888   -1.142464    0.779376
  O     -1.849859    1.144357    0.000009
  O     -1.552731   -1.347686   -0.000020
  H      1.511239    2.114284   -1.297720
  H      1.511230    2.114254    1.297780
  H      0.751522   -2.040902   -1.163766
  H      2.241769   -1.087837   -1.183457
  H      0.114104    0.137724   -2.246233
  H      2.241762   -1.087866    1.183444
  H      0.751515   -2.040931    1.163720
  H      0.114091    0.137670    2.246237

 Total Charge           Charge          ....    0
 Multiplicity           Mult            ....    1
 Number of Electrons    NEL             ....   76
 Basis Dimension        Dim             ....  602

ORBITAL ENERGIES
----------------

  NO   OCC          E(Eh)            E(eV)
   0   2.0000     -92.169802     -2508.0678
   1   2.0000     -20.545320      -559.0666
   2   2.0000     -20.544352      -559.0402
   3   2.0000     -11.288667      -307.1802
   4   2.0000     -11.288639      -307.1795
   5   2.0000     -11.261812      -306.4495
   6   2.0000     -11.260098      -306.4028
   7   2.0000     -11.256290      -306.2992
   8   2.0000     -11.255747      -306.2844
   9   2.0000      -9.140779      -248.7332
  10   2.0000      -6.824837      -185.7133
  11   2.0000      -6.824513      -185.7044
  12   2.0000      -6.824030      -185.6913
  13   2.0000      -1.441686       -39.2303
  14   2.0000      -1.330590       -36.2072
  15   2.0000      -1.203715       -32.7547
  16   2.0000      -1.046970       -28.4895
  17   2.0000      -1.034239       -28.1431
  18   2.0000      -0.944204       -25.6931
  19   2.0000      -0.845412       -23.0048
  20   2.0000      -0.796733       -21.6802
  21   2.0000      -0.753971       -20.5166
  22   2.0000      -0.729973       -19.8636
  23   2.0000      -0.687453       -18.7066
  24   2.0000      -0.652103       -17.7446
  25   2.0000      -0.631530       -17.1848
  26   2.0000      -0.610614       -16.6156
  27   2.0000      -0.599549       -16.3145
  28   2.0000      -0.583100       -15.8670
  29   2.0000      -0.572319       -15.5736
  30   2.0000      -0.538079       -14.6419
  31   2.0000      -0.516508       -14.0549
  32   2.0000      -0.499872       -13.6022
  33   2.0000      -0.490006       -13.3337
  34   2.0000      -0.481249       -13.0955
  35   2.0000      -0.469618       -12.7790
  36   2.0000      -0.404286       -11.0012
  37   2.0000      -0.382002       -10.3948
  38   0.0000       0.021627         0.5885
  39   0.0000       0.027659         0.7526
  40   0.0000       0.033157         0.9023
  41   0.0000       0.038127         1.0375
  42   0.0000       0.045159         1.2288

MULLIKEN ATOMIC CHARGES
-----------------------
   0 C :   -0.269601
   1 C :   -0.762743
   2 C :   -0.269604
   3 C :   -0.762741
   4 S :    1.919797
   5 C :   -0.512408
   6 C :   -0.512413
   7 O :   -1.042719
   8 O :   -1.007682
   9 H :    0.517458
  10 H :    0.517445
  11 H :    0.213753
  12 H :    0.366368
  13 H :    0.512481
  14 H :    0.366376
  15 H :    0.213743
  16 H :    0.512491
Sum of atomic charges:   -0.0000000

LOEWDIN ATOMIC CHARGES
----------------------
   0 C :   -0.056529
   1 C :    0.190595
   2 C :   -0.056528
   3 C :    0.190595
   4 S :    0.358162
   5 C :    0.276676
   6 C :    0.276676
   7 O :    0.020162
   8 O :    0.040514
   9 H :   -0.162341
  10 H :   -0.162341
  11 H :   -0.157860
  12 H :   -0.144371
  13 H :   -0.155590
  14 H :   -0.144371
  15 H :   -0.157859
  16 H :   -0.155591

  Mayer bond orders larger than 0.100000
B(  0-C ,  1-C ) :   0.9947 B(  0-C ,  4-S ) :   1.0275 B(  0-C ,  5-C ) :   0.9666
B(  0-C ,  7-O ) :   0.1103 B(  0-C ,  8-O ) :   0.1104 B(  0-C , 13-H ) :   0.7558
B(  1-C ,  3-C ) :   1.6536 B(  1-C ,  9-H ) :   0.7226 B(  1-C , 13-H ) :  -0.1261
B(  2-C ,  3-C ) :   0.9947 B(  2-C ,  4-S ) :   1.0275 B(  2-C ,  6-C ) :   0.9666
B(  2-C ,  7-O ) :   0.1103 B(  2-C ,  8-O ) :   0.1104 B(  2-C , 16-H ) :   0.7558
B(  3-C , 10-H ) :   0.7227 B(  3-C , 16-H ) :  -0.1261 B(  4-S ,  7-O ) :   1.0172
B(  4-S ,  8-O ) :   1.1816 B(  5-C ,  6-C ) :   1.0651 B(  5-C , 11-H ) :   0.9763
B(  5-C , 12-H ) :   0.8419 B(  6-C , 14-H ) :   0.8419 B(  6-C , 15-H ) :   0.9763

MP2 TOTAL ENERGY:     -780.875457626 Eh
FINAL SINGLE POINT ENERGY      -780.875457626211

DIPOLE MOMENT
-------------
                                X             Y             Z
Electronic contribution:     -6.88603       1.86045       0.00000
Nuclear contribution   :      9.12055      -1.73873       0.00000
                        -----------------------------------------
Total Dipole Moment    :      2.23452       0.12172       0.00001
                        -----------------------------------------
Magnitude (a.u.)       :      2.23783
Magnitude (Debye)      :      5.68812

Rotational constants in cm-1:     0.075429     0.058215     0.047649
Rotational constants in MHz :  2261.295707  1745.231079  1428.493278

                             ****ORCA TERMINATED NORMALLY****
TOTAL RUN TIME: 0 days 0 hours 4 minutes 27 seconds 267 msec
