                         Program Version 4.2.1 -  RELEASE  -
|  1> %pal
|  2>  nprocs 32
|  3> end
|  4> !RI-MP2 aug-cc-pVTZ aug-cc-pVTZ/C TightSCF
|  5> %maxcore 4500
|  6> *xyzfile 1 1  05_37TS.xyz
|  7>
|  8>
|  9>                          ****END OF INPUT****

CARTESIAN COORDINATES (ANGSTROEM)
---------------------------------
  C     -1.496114    2.726775   -0.014690
  C     -1.585617    4.108166   -0.038923
  C     -2.831524    4.716361   -0.119314
  C     -3.990114    3.948381   -0.176223
  C     -3.909896    2.568343   -0.153390
  C     -2.655930    1.957252   -0.071988
  H     -0.528760    2.244618    0.046166
  H     -0.688326    4.711979    0.003636
  H     -2.902207    5.796772   -0.138400
  H     -4.957415    4.430323   -0.239114
  H     -4.801289    1.956074   -0.197595
  C     -2.574884    0.500399   -0.049336
  H     -1.338955    0.112252    0.043802
  N     -3.333449   -0.431443   -0.092892
  Si    -3.757805   -2.174933   -0.112590
  C     -2.912695   -2.874918   -1.614889
  H     -1.827988   -2.800643   -1.520766
  H     -3.170624   -3.930099   -1.736339
  H     -3.218103   -2.355323   -2.525377
  C     -3.109570   -2.865782    1.488990
  H     -3.522660   -2.336800    2.350278
  H     -3.386714   -3.918632    1.585889
  H     -2.021166   -2.797041    1.528944
  C     -5.609699   -2.228646   -0.228695
  H     -5.966793   -1.742654   -1.138835
  H     -5.958579   -3.264349   -0.247390
  H     -6.077937   -1.737021    0.626377
  C      1.483092   -0.516070   -1.129136
  C      1.340603   -0.463457    1.545994
  C      2.671407    0.294904    1.504771
  C      3.535936   -0.083668    0.316472
  C      2.787962    0.261625   -0.965996
  H      2.470822    1.371664    1.469884
  H      3.194979    0.093407    2.441662
  H      3.751500   -1.153647    0.326973
  H      2.580645    1.336851   -0.969619
  H      3.421659    0.043486   -1.825502
  N      0.741786   -0.517816    0.173835
  O     -0.483516   -0.816443    0.118704
  C      0.604863    0.159785   -2.179888
  H      1.170544    0.222216   -3.109694
  H     -0.304466   -0.406950   -2.376755
  H      0.336787    1.176534   -1.887699
  C      1.740026   -1.975383   -1.529076
  H      0.802577   -2.532261   -1.558186
  H      2.186752   -1.997293   -2.523767
  H      2.426454   -2.478086   -0.849934
  C      0.364892    0.263684    2.469465
  H     -0.567229   -0.286803    2.588903
  H      0.826198    0.360750    3.452660
  H      0.141702    1.268721    2.107513
  C      1.531554   -1.907784    2.029038
  H      1.864961   -1.897957    3.067829
  H      0.587584   -2.451317    1.978113
  H      2.273470   -2.445563    1.440765
  N      4.818327    0.586332    0.381995
  C      5.875493    0.111911   -0.343239
  O      5.752377   -0.866901   -1.054457
  H      4.927636    1.412938    0.946443
  C      7.174694    0.859536   -0.203660
  H      7.497204    1.188085   -1.191831
  H      7.111326    1.722081    0.460157
  H      7.931252    0.171523    0.174806

 Total Charge           Charge          ....    1
 Multiplicity           Mult            ....    1
 Number of Electrons    NEL             ....  212
 Basis Dimension        Dim             .... 2074

ORBITAL ENERGIES
----------------

  NO   OCC          E(Eh)            E(eV)
   0   2.0000     -68.890404     -1874.6032
   1   2.0000     -20.817267      -566.4666
   2   2.0000     -20.600499      -560.5681
   3   2.0000     -15.817151      -430.4066
   4   2.0000     -15.697774      -427.1582
   5   2.0000     -15.677357      -426.6026
   6   2.0000     -11.459354      -311.8249
   7   2.0000     -11.434006      -311.1351
   8   2.0000     -11.416520      -310.6593
   9   2.0000     -11.409244      -310.4613
  10   2.0000     -11.380486      -309.6788
  11   2.0000     -11.376516      -309.5708
  12   2.0000     -11.369915      -309.3911
  13   2.0000     -11.364133      -309.2338
  14   2.0000     -11.358195      -309.0722
  15   2.0000     -11.352202      -308.9091
  16   2.0000     -11.351241      -308.8830
  17   2.0000     -11.349553      -308.8371
  18   2.0000     -11.341936      -308.6298
  19   2.0000     -11.337659      -308.5134
  20   2.0000     -11.336591      -308.4843
  21   2.0000     -11.335875      -308.4648
  22   2.0000     -11.330319      -308.3136
  23   2.0000     -11.312490      -307.8285
  24   2.0000     -11.302721      -307.5627
  25   2.0000     -11.302159      -307.5474
  26   2.0000     -11.295507      -307.3664
  27   2.0000      -6.234999      -169.6629
  28   2.0000      -4.342348      -118.1613
  29   2.0000      -4.340806      -118.1193
  30   2.0000      -4.340629      -118.1145
  31   2.0000      -1.653862       -45.0039
  32   2.0000      -1.470796       -40.0224
  33   2.0000      -1.374113       -37.3915
  34   2.0000      -1.337877       -36.4055
  35   2.0000      -1.303072       -35.4584
  36   2.0000      -1.282374       -34.8952
  37   2.0000      -1.235164       -33.6105
  38   2.0000      -1.165797       -31.7230
  39   2.0000      -1.159867       -31.5616
  40   2.0000      -1.143812       -31.1247
  41   2.0000      -1.117735       -30.4151
  42   2.0000      -1.078250       -29.3407
  43   2.0000      -1.077082       -29.3089
  44   2.0000      -1.069298       -29.0971
  45   2.0000      -1.058531       -28.8041
  46   2.0000      -1.054613       -28.6975
  47   2.0000      -1.031704       -28.0741
  48   2.0000      -1.027126       -27.9495
  49   2.0000      -0.998566       -27.1724
  50   2.0000      -0.963742       -26.2247
  51   2.0000      -0.954746       -25.9800
  52   2.0000      -0.953898       -25.9569
  53   2.0000      -0.917381       -24.9632
  54   2.0000      -0.892713       -24.2920
  55   2.0000      -0.884850       -24.0780
  56   2.0000      -0.843824       -22.9616
  57   2.0000      -0.827472       -22.5166
  58   2.0000      -0.814175       -22.1548
  59   2.0000      -0.806873       -21.9561
  60   2.0000      -0.789915       -21.4947
  61   2.0000      -0.777743       -21.1635
  62   2.0000      -0.761726       -20.7276
  63   2.0000      -0.759686       -20.6721
  64   2.0000      -0.738267       -20.0893
  65   2.0000      -0.730501       -19.8779
  66   2.0000      -0.726779       -19.7767
  67   2.0000      -0.721056       -19.6209
  68   2.0000      -0.714392       -19.4396
  69   2.0000      -0.712880       -19.3985
  70   2.0000      -0.702685       -19.1210
  71   2.0000      -0.693800       -18.8793
  72   2.0000      -0.688692       -18.7403
  73   2.0000      -0.685474       -18.6527
  74   2.0000      -0.680907       -18.5284
  75   2.0000      -0.678155       -18.4535
  76   2.0000      -0.676999       -18.4221
  77   2.0000      -0.669931       -18.2298
  78   2.0000      -0.661759       -18.0074
  79   2.0000      -0.660445       -17.9716
  80   2.0000      -0.658457       -17.9175
  81   2.0000      -0.651382       -17.7250
  82   2.0000      -0.645723       -17.5710
  83   2.0000      -0.643038       -17.4979
  84   2.0000      -0.642178       -17.4746
  85   2.0000      -0.639208       -17.3937
  86   2.0000      -0.638556       -17.3760
  87   2.0000      -0.635092       -17.2817
  88   2.0000      -0.632053       -17.1990
  89   2.0000      -0.629543       -17.1307
  90   2.0000      -0.623277       -16.9602
  91   2.0000      -0.616093       -16.7647
  92   2.0000      -0.611671       -16.6444
  93   2.0000      -0.606626       -16.5071
  94   2.0000      -0.602355       -16.3909
  95   2.0000      -0.599818       -16.3219
  96   2.0000      -0.593954       -16.1623
  97   2.0000      -0.578300       -15.7363
  98   2.0000      -0.571667       -15.5559
  99   2.0000      -0.541506       -14.7351
 100   2.0000      -0.540271       -14.7015
 101   2.0000      -0.508641       -13.8408
 102   2.0000      -0.485181       -13.2024
 103   2.0000      -0.461292       -12.5524
 104   2.0000      -0.458098       -12.4655
 105   2.0000      -0.430799       -11.7226
 106   0.0000      -0.136756        -3.7213
 107   0.0000      -0.055569        -1.5121
 108   0.0000      -0.052677        -1.4334
 109   0.0000      -0.046553        -1.2668
 110   0.0000      -0.044005        -1.1974

MULLIKEN ATOMIC CHARGES
-----------------------
   0 C :   -0.695717
   1 C :   -1.263034
   2 C :    0.006807
   3 C :   -0.862754
   4 C :   -1.075885
   5 C :    3.072742
   6 H :    0.262442
   7 H :    0.443157
   8 H :    0.510845
   9 H :    0.660438
  10 H :   -0.122971
  11 C :    0.959111
  12 H :    0.190843
  13 N :   -1.815032
  14 Si:    2.037260
  15 C :   -1.401331
  16 H :    0.405550
  17 H :    0.198880
  18 H :    0.264214
  19 C :   -1.410953
  20 H :    0.262116
  21 H :    0.191250
  22 H :    0.421800
  23 C :   -1.454465
  24 H :    0.253710
  25 H :    0.200916
  26 H :    0.253330
  27 C :    1.309089
  28 C :    1.283606
  29 C :   -1.165883
  30 C :    0.919351
  31 C :   -0.988205
  32 H :    0.145990
  33 H :    0.384641
  34 H :    0.370809
  35 H :    0.095378
  36 H :    0.375105
  37 N :    2.952758
  38 O :   -0.605018
  39 C :   -1.653721
  40 H :   -0.035401
  41 H :    0.365053
  42 H :    0.358471
  43 C :   -1.726017
  44 H :    0.599768
  45 H :    0.088458
  46 H :    0.242774
  47 C :   -1.684282
  48 H :    0.376784
  49 H :   -0.067337
  50 H :    0.354566
  51 C :   -1.780190
  52 H :    0.079827
  53 H :    0.578534
  54 H :    0.275306
  55 N :   -0.569164
  56 C :    0.734975
  57 O :   -1.050687
  58 H :   -0.088772
  59 C :   -0.891782
  60 H :    0.322219
  61 H :    0.270466
  62 H :    0.329263
Sum of atomic charges:    1.0000000

LOEWDIN ATOMIC CHARGES
----------------------
   0 C :    0.208714
   1 C :    0.234830
   2 C :    0.234693
   3 C :    0.236366
   4 C :    0.237921
   5 C :   -0.110214
   6 H :   -0.199860
   7 H :   -0.171745
   8 H :   -0.163417
   9 H :   -0.168297
  10 H :   -0.161904
  11 C :   -0.077910
  12 H :   -0.543904
  13 N :    0.406079
  14 Si:    0.426014
  15 C :    0.594594
  16 H :   -0.244436
  17 H :   -0.218354
  18 H :   -0.219766
  19 C :    0.594094
  20 H :   -0.220389
  21 H :   -0.218679
  22 H :   -0.244415
  23 C :    0.590544
  24 H :   -0.223881
  25 H :   -0.221659
  26 H :   -0.223951
  27 C :   -0.369695
  28 C :   -0.368802
  29 C :    0.331877
  30 C :   -0.102886
  31 C :    0.331684
  32 H :   -0.125084
  33 H :   -0.114371
  34 H :   -0.157720
  35 H :   -0.122584
  36 H :   -0.132084
  37 N :    0.104450
  38 O :    0.715570
  39 C :    0.607744
  40 H :   -0.136300
  41 H :   -0.158246
  42 H :   -0.164756
  43 C :    0.633393
  44 H :   -0.155813
  45 H :   -0.134647
  46 H :   -0.165309
  47 C :    0.607080
  48 H :   -0.156959
  49 H :   -0.137480
  50 H :   -0.163976
  51 C :    0.630405
  52 H :   -0.137978
  53 H :   -0.155389
  54 H :   -0.165275
  55 N :    0.592525
  56 C :   -0.661288
  57 O :    0.472233
  58 H :   -0.274808
  59 C :    0.612535
  60 H :   -0.165563
  61 H :   -0.179280
  62 H :   -0.164275

  Mayer bond orders larger than 0.100000
B(  0-C ,  1-C ) :   0.6770 B(  0-C ,  2-C ) :  -0.2846 B(  0-C ,  3-C ) :   0.2501
B(  0-C ,  4-C ) :  -0.8013 B(  0-C ,  5-C ) :   0.1135 B(  0-C ,  6-H ) :   1.9821
B(  0-C ,  7-H ) :   0.2731 B(  0-C ,  8-H ) :  -0.3024 B(  0-C , 10-H ) :   0.5507
B(  0-C , 11-C ) :  -0.1933 B(  0-C , 37-N ) :   0.5167 B(  0-C , 38-O ) :  -0.2849
B(  1-C ,  2-C ) :   0.7807 B(  1-C ,  3-C ) :   0.5007 B(  1-C ,  5-C ) :   0.1555
B(  1-C ,  7-H ) :   0.6060 B(  1-C ,  8-H ) :  -0.2415 B(  1-C , 11-C ) :   0.4163
B(  2-C ,  3-C ) :   0.8836 B(  2-C ,  4-C ) :  -0.2681 B(  2-C ,  5-C ) :   0.2096
B(  2-C ,  6-H ) :  -0.2118 B(  2-C ,  8-H ) :   0.7515 B(  2-C ,  9-H ) :   0.1479
B(  2-C , 10-H ) :  -0.1443 B(  2-C , 11-C ) :   0.3616 B(  2-C , 12-H ) :   0.1202
B(  3-C ,  4-C ) :   1.3685 B(  3-C ,  5-C ) :  -0.1191 B(  3-C ,  8-H ) :  -0.2499
B(  3-C ,  9-H ) :   0.3422 B(  3-C , 11-C ) :   0.2436 B(  4-C ,  5-C ) :  -0.6735
B(  4-C ,  6-H ) :  -0.1198 B(  4-C ,  8-H ) :   0.1274 B(  4-C , 10-H ) :   2.1524
B(  4-C , 11-C ) :   0.7858 B(  4-C , 12-H ) :   0.2362 B(  4-C , 13-N ) :   0.2947
B(  5-C ,  6-H ) :  -0.4440 B(  5-C ,  7-H ) :  -0.2582 B(  5-C ,  8-H ) :   0.3233
B(  5-C , 10-H ) :  -0.6908 B(  5-C , 12-H ) :   0.1195 B(  5-C , 13-N ) :  -0.9231
B(  5-C , 37-N ) :   0.3524 B(  5-C , 38-O ) :  -0.2165 B(  6-H ,  7-H ) :   0.1534
B(  6-H ,  9-H ) :  -0.1712 B(  6-H , 10-H ) :   0.3688 B(  6-H , 11-C ) :  -0.1304
B(  6-H , 12-H ) :   0.1595 B(  6-H , 13-N ) :   0.1545 B(  6-H , 27-C ) :   0.1494
B(  6-H , 28-C ) :   0.1020 B(  6-H , 37-N ) :  -0.4978 B(  6-H , 38-O ) :   0.1333
B(  7-H , 12-H ) :  -0.1490 B(  7-H , 13-N ) :   0.1011 B(  7-H , 37-N ) :   0.1583
B(  8-H , 11-C ) :   0.2748 B(  8-H , 12-H ) :   0.1127 B(  8-H , 13-N ) :  -0.1668
B(  9-H , 11-C ) :   0.2331 B( 10-H , 11-C ) :  -0.7787 B( 10-H , 12-H ) :   0.1008
B( 10-H , 13-N ) :   0.2030 B( 11-C , 14-Si) :  -0.3389 B( 11-C , 38-O ) :   0.5443
B( 12-H , 13-N ) :   0.3799 B( 12-H , 27-C ) :  -0.1398 B( 12-H , 28-C ) :  -0.1359
B( 12-H , 37-N ) :   0.1600 B( 12-H , 38-O ) :   0.6506 B( 13-N , 14-Si) :   1.0861
B( 13-N , 15-C ) :   0.3109 B( 13-N , 19-C ) :   0.3119 B( 13-N , 37-N ) :   0.3979
B( 13-N , 38-O ) :  -0.4907 B( 14-Si, 15-C ) :   0.4978 B( 14-Si, 16-H ) :   0.1691
B( 14-Si, 19-C ) :   0.4700 B( 14-Si, 22-H ) :   0.1656 B( 14-Si, 23-C ) :   0.2236
B( 14-Si, 37-N ) :  -0.1062 B( 15-C , 16-H ) :   0.8930 B( 15-C , 17-H ) :   1.0408
B( 15-C , 18-H ) :   0.9715 B( 15-C , 19-C ) :   0.2698 B( 19-C , 20-H ) :   0.9776
B( 19-C , 21-H ) :   1.0570 B( 19-C , 22-H ) :   0.8689 B( 23-C , 24-H ) :   1.0184
B( 23-C , 25-H ) :   1.1159 B( 23-C , 26-H ) :   1.0191 B( 27-C , 28-C ) :  -0.1722
B( 27-C , 31-C ) :   0.5110 B( 27-C , 37-N ) :   0.8199 B( 27-C , 39-C ) :   0.4245
B( 27-C , 43-C ) :   0.2849 B( 27-C , 44-H ) :   0.1428 B( 27-C , 45-H ) :  -0.1317
B( 27-C , 46-H ) :  -0.1360 B( 28-C , 29-C ) :   0.4548 B( 28-C , 37-N ) :   0.7665
B( 28-C , 47-C ) :   0.3596 B( 28-C , 49-H ) :  -0.1252 B( 28-C , 50-H ) :  -0.1045
B( 28-C , 51-C ) :   0.2224 B( 28-C , 52-H ) :  -0.1185 B( 28-C , 53-H ) :   0.1079
B( 28-C , 54-H ) :  -0.1389 B( 29-C , 30-C ) :   0.6276 B( 29-C , 31-C ) :   0.2295
B( 29-C , 32-H ) :   1.3611 B( 29-C , 33-H ) :   0.7211 B( 29-C , 37-N ) :  -0.4180
B( 29-C , 38-O ) :   0.1072 B( 29-C , 55-N ) :   0.2072 B( 30-C , 31-C ) :   0.9296
B( 30-C , 34-H ) :   0.9949 B( 31-C , 32-H ) :   0.1033 B( 31-C , 34-H ) :   0.2744
B( 31-C , 35-H ) :   1.2732 B( 31-C , 36-H ) :   0.8889 B( 31-C , 37-N ) :  -0.5233
B( 31-C , 38-O ) :   0.1304 B( 31-C , 55-N ) :   0.1125 B( 34-H , 37-N ) :  -0.1259
B( 34-H , 55-N ) :  -0.4123 B( 34-H , 56-C ) :  -0.1828 B( 34-H , 57-O ) :  -0.1769
B( 36-H , 56-C ) :  -0.1059 B( 37-N , 38-O ) :  -0.2806 B( 37-N , 39-C ) :  -0.3944
B( 37-N , 40-H ) :  -0.1401 B( 37-N , 47-C ) :  -0.3850 B( 37-N , 49-H ) :  -0.1306
B( 37-N , 53-H ) :   0.1081 B( 39-C , 40-H ) :   1.4705 B( 39-C , 41-H ) :   0.9416
B( 39-C , 42-H ) :   1.1197 B( 43-C , 44-H ) :   0.5251 B( 43-C , 45-H ) :   1.4057
B( 43-C , 46-H ) :   1.2165 B( 47-C , 48-H ) :   0.9326 B( 47-C , 49-H ) :   1.5205
B( 47-C , 50-H ) :   1.1281 B( 51-C , 52-H ) :   1.3746 B( 51-C , 53-H ) :   0.6001
B( 51-C , 54-H ) :   1.1806 B( 55-N , 56-C ) :   1.2383 B( 55-N , 58-H ) :   1.2668
B( 56-C , 57-O ) :   1.4477 B( 56-C , 59-C ) :   0.4467 B( 57-O , 59-C ) :  -0.1265
B( 59-C , 60-H ) :   0.9835 B( 59-C , 61-H ) :   1.0045 B( 59-C , 62-H ) :   0.9849

MP2 TOTAL ENERGY:    -1423.195159449 Eh
FINAL SINGLE POINT ENERGY     -1423.195159448591

DIPOLE MOMENT
-------------
                                X             Y             Z
Electronic contribution:     -5.74655      12.43854      -1.67263
Nuclear contribution   :      4.69960     -11.06905       2.66137
                        -----------------------------------------
Total Dipole Moment    :     -1.04695       1.36948       0.98874
                        -----------------------------------------
Magnitude (a.u.)       :      1.98726
Magnitude (Debye)      :      5.05121

Rotational constants in cm-1:     0.008050     0.003269     0.002680
Rotational constants in MHz :   241.344166    98.002816    80.350467

                             ****ORCA TERMINATED NORMALLY****
TOTAL RUN TIME: 0 days 4 hours 40 minutes 44 seconds 403 msec
