                         Program Version 4.2.1 -  RELEASE  -
|  1> %pal
|  2>  nprocs 32
|  3> end
|  4> !RI-MP2 aug-cc-pVTZ aug-cc-pVTZ/C TightSCF
|  5> %maxcore 4500
|  6> *xyzfile 0 2  04_10P1.xyz
|  7>
|  8>
|  9>                          ****END OF INPUT****

CARTESIAN COORDINATES (ANGSTROEM)
---------------------------------
  N      0.190667   -1.520153   -0.012804
  H     -0.508797   -2.208812   -0.282500
  C     -0.363185   -0.299105    0.289299
  C      0.416262    0.812983    0.874401
  C     -1.791498   -0.247568   -0.015690
  H     -0.228360    1.419925    1.509336
  H      1.242659    0.445937    1.474460
  S      1.102379    1.986437   -0.375030
  O     -2.394560   -1.267321   -0.335745
  H      2.014050    1.124671   -0.857593
  N     -2.414516    0.963153    0.109541
  H     -3.368441    0.984152   -0.217127
  H     -1.882934    1.810142   -0.015756
  C      1.511156   -1.860590   -0.103458
  H      1.644099   -2.923633   -0.353577
  O      2.442084   -1.104015    0.060591

 Total Charge           Charge          ....    0
 Multiplicity           Mult            ....    2
 Number of Electrons    NEL             ....   77
 Basis Dimension        Dim             ....  579

ORBITAL ENERGIES
----------------
                 SPIN UP ORBITALS
  NO   OCC          E(Eh)            E(eV)
   0   1.0000     -91.962895     -2502.4376
   1   1.0000     -20.555817      -559.3522
   2   1.0000     -20.545743      -559.0781
   3   1.0000     -15.625582      -425.1937
   4   1.0000     -15.596023      -424.3894
   5   1.0000     -11.373999      -309.5022
   6   1.0000     -11.368410      -309.3502
   7   1.0000     -11.311490      -307.8013
   8   1.0000     -11.284290      -307.0611
   9   1.0000      -8.964072      -243.9248
  10   1.0000      -6.646552      -180.8619
  11   1.0000      -6.644443      -180.8045
  12   1.0000      -6.643164      -180.7697
  13   1.0000      -1.421719       -38.6869
  14   1.0000      -1.409301       -38.3490
  15   1.0000      -1.285132       -34.9702
  16   1.0000      -1.230128       -33.4735
  17   1.0000      -1.096054       -29.8251
  18   1.0000      -0.999439       -27.1961
  19   1.0000      -0.894668       -24.3452
  20   1.0000      -0.861551       -23.4440
  21   1.0000      -0.789192       -21.4750
  22   1.0000      -0.770324       -20.9616
  23   1.0000      -0.729234       -19.8435
  24   1.0000      -0.675313       -18.3762
  25   1.0000      -0.665779       -18.1168
  26   1.0000      -0.655475       -17.8364
  27   1.0000      -0.643057       -17.4985
  28   1.0000      -0.612721       -16.6730
  29   1.0000      -0.599094       -16.3022
  30   1.0000      -0.593046       -16.1376
  31   1.0000      -0.553443       -15.0600
  32   1.0000      -0.501367       -13.6429
  33   1.0000      -0.473919       -12.8960
  34   1.0000      -0.469267       -12.7694
  35   1.0000      -0.459956       -12.5160
  36   1.0000      -0.449870       -12.2416
  37   1.0000      -0.374212       -10.1828
  38   1.0000      -0.322180        -8.7670
  39   0.0000       0.025094         0.6828
  40   0.0000       0.030617         0.8331
  41   0.0000       0.038583         1.0499
  42   0.0000       0.046480         1.2648
  43   0.0000       0.053875         1.4660

                 SPIN DOWN ORBITALS
  NO   OCC          E(Eh)            E(eV)
   0   1.0000     -91.961780     -2502.4073
   1   1.0000     -20.550439      -559.2059
   2   1.0000     -20.537878      -558.8641
   3   1.0000     -15.625487      -425.1911
   4   1.0000     -15.595514      -424.3755
   5   1.0000     -11.374849      -309.5254
   6   1.0000     -11.372118      -309.4511
   7   1.0000     -11.291430      -307.2554
   8   1.0000     -11.287712      -307.1543
   9   1.0000      -8.962792      -243.8900
  10   1.0000      -6.644072      -180.7944
  11   1.0000      -6.642674      -180.7563
  12   1.0000      -6.641537      -180.7254
  13   1.0000      -1.410654       -38.3859
  14   1.0000      -1.395791       -37.9814
  15   1.0000      -1.270668       -34.5766
  16   1.0000      -1.224894       -33.3311
  17   1.0000      -1.078360       -29.3437
  18   1.0000      -0.972083       -26.4517
  19   1.0000      -0.889704       -24.2101
  20   1.0000      -0.856903       -23.3175
  21   1.0000      -0.786168       -21.3927
  22   1.0000      -0.762476       -20.7480
  23   1.0000      -0.725954       -19.7542
  24   1.0000      -0.669131       -18.2080
  25   1.0000      -0.656857       -17.8740
  26   1.0000      -0.639658       -17.4060
  27   1.0000      -0.612532       -16.6678
  28   1.0000      -0.605257       -16.4699
  29   1.0000      -0.588037       -16.0013
  30   1.0000      -0.571141       -15.5415
  31   1.0000      -0.538691       -14.6585
  32   1.0000      -0.474618       -12.9150
  33   1.0000      -0.457705       -12.4548
  34   1.0000      -0.452318       -12.3082
  35   1.0000      -0.448461       -12.2032
  36   1.0000      -0.415403       -11.3037
  37   1.0000      -0.368778       -10.0349
  38   0.0000       0.024980         0.6797
  39   0.0000       0.030653         0.8341
  40   0.0000       0.038387         1.0446
  41   0.0000       0.042944         1.1686
  42   0.0000       0.052278         1.4225

MULLIKEN ATOMIC CHARGES AND SPIN POPULATIONS
--------------------------------------------
   0 N :   -0.193255    0.029647
   1 H :    0.144777    0.004450
   2 C :    0.422866    0.935369
   3 C :   -0.173301   -0.195720
   4 C :    0.804365   -0.163921
   5 H :    0.253695   -0.000228
   6 H :    0.246563    0.022220
   7 S :   -0.390549    0.111234
   8 O :   -0.889187    0.174004
   9 H :    0.229181   -0.007581
  10 N :   -0.389077    0.017514
  11 H :    0.159790   -0.006033
  12 H :    0.159327    0.002350
  13 C :   -0.276363   -0.044693
  14 H :    0.609121    0.005374
  15 O :   -0.717952    0.116014
Sum of atomic charges         :   -0.0000000

LOEWDIN ATOMIC CHARGES AND SPIN POPULATIONS
-------------------------------------------
   0 N :    0.505075    0.106538
   1 H :   -0.345808    0.004543
   2 C :   -0.223393    0.429148
   3 C :   -0.097887    0.066339
   4 C :   -0.677986    0.078745
   5 H :   -0.243117    0.006421
   6 H :   -0.248205    0.001198
   7 S :    1.296688    0.061055
   8 O :    0.466122    0.128620
   9 H :   -0.597390    0.009252
  10 N :    0.850452    0.007455
  11 H :   -0.289457    0.001076
  12 H :   -0.330940    0.000277
  13 C :   -0.326841    0.010968
  14 H :   -0.170811    0.000314
  15 O :    0.433499    0.088051

  Mayer bond orders larger than 0.100000
B(  0-N ,  1-H ) :   1.0994 B(  0-N ,  2-C ) :   0.4955 B(  0-N ,  4-C ) :  -0.1298
B(  0-N ,  8-O ) :  -0.1138 B(  0-N , 13-C ) :   1.3630 B(  1-H ,  2-C ) :  -0.1083
B(  2-C ,  3-C ) :   0.8253 B(  2-C ,  4-C ) :   0.7446 B(  2-C ,  8-O ) :   0.3036
B(  2-C , 13-C ) :  -0.2652 B(  2-C , 15-O ) :   0.1060 B(  3-C ,  5-H ) :   0.8907
B(  3-C ,  6-H ) :   1.0641 B(  3-C ,  7-S ) :   0.8564 B(  4-C ,  8-O ) :   0.9783
B(  4-C , 10-N ) :   0.9011 B(  7-S ,  9-H ) :   0.9835 B( 10-N , 11-H ) :   0.9978
B( 10-N , 12-H ) :   1.0410 B( 13-C , 14-H ) :   0.5570 B( 13-C , 15-O ) :   1.6877

MP2 TOTAL ENERGY:     -813.589162489 Eh
FINAL SINGLE POINT ENERGY      -813.589162489468

DIPOLE MOMENT
-------------
                                X             Y             Z
Electronic contribution:      0.63091      -0.47747      -1.09254
Nuclear contribution   :     -1.11431       0.54086       1.24304
                        -----------------------------------------
Total Dipole Moment    :     -0.48340       0.06339       0.15049
                        -----------------------------------------
Magnitude (a.u.)       :      0.51024
Magnitude (Debye)      :      1.29693

Rotational constants in cm-1:     0.054120     0.039715     0.024383
Rotational constants in MHz :  1622.480454  1190.627201   730.991632

                             ****ORCA TERMINATED NORMALLY****
TOTAL RUN TIME: 0 days 0 hours 6 minutes 5 seconds 659 msec
