                         Program Version 4.2.1 -  RELEASE  -
|  1> %pal
|  2>  nprocs 32
|  3> end
|  4> !RI-MP2 aug-cc-pVTZ aug-cc-pVTZ/C TightSCF
|  5> %maxcore 4500
|  6> *xyzfile 0 1  04_62P2.xyz
|  7>
|  8>
|  9>                          ****END OF INPUT****

CARTESIAN COORDINATES (ANGSTROEM)
---------------------------------
  C      1.388317   -0.122941    0.000022
  C     -0.088371    0.125751   -0.000012
  O     -0.625843    1.199017   -0.000034
  O     -0.788572   -1.028404    0.000008
  H     -1.727330   -0.794605    0.000010
  H      1.917158    0.826074   -0.000212
  H      1.662905   -0.706849   -0.879591
  H      1.662911   -0.706389    0.879941

 Total Charge           Charge          ....    0
 Multiplicity           Mult            ....    1
 Number of Electrons    NEL             ....   32
 Basis Dimension        Dim             ....  276

ORBITAL ENERGIES
----------------

  NO   OCC          E(Eh)            E(eV)
   0   2.0000     -20.613883      -560.9323
   1   2.0000     -20.550903      -559.2185
   2   2.0000     -11.388356      -309.8929
   3   2.0000     -11.246783      -306.0405
   4   2.0000      -1.469777       -39.9947
   5   2.0000      -1.365232       -37.1499
   6   2.0000      -1.029930       -28.0258
   7   2.0000      -0.826485       -22.4898
   8   2.0000      -0.707268       -19.2457
   9   2.0000      -0.683598       -18.6016
  10   2.0000      -0.653559       -17.7842
  11   2.0000      -0.585870       -15.9423
  12   2.0000      -0.575197       -15.6519
  13   2.0000      -0.562901       -15.3173
  14   2.0000      -0.486087       -13.2271
  15   2.0000      -0.456683       -12.4270
  16   0.0000       0.027399         0.7456
  17   0.0000       0.038752         1.0545
  18   0.0000       0.044929         1.2226
  19   0.0000       0.051031         1.3886
  20   0.0000       0.081880         2.2281

MULLIKEN ATOMIC CHARGES
-----------------------
   0 C :   -0.568511
   1 C :    0.411467
   2 O :   -0.638387
   3 O :   -0.378773
   4 H :    0.236348
   5 H :    0.326740
   6 H :    0.305568
   7 H :    0.305548
Sum of atomic charges:    0.0000000

LOEWDIN ATOMIC CHARGES
----------------------
   0 C :    0.575868
   1 C :   -0.824810
   2 O :    0.438968
   3 O :    0.821958
   4 H :   -0.476841
   5 H :   -0.184040
   6 H :   -0.175555
   7 H :   -0.175548

  Mayer bond orders larger than 0.100000
B(  0-C ,  1-C ) :   0.6887 B(  0-C ,  5-H ) :   0.9170 B(  0-C ,  6-H ) :   0.9209
B(  0-C ,  7-H ) :   0.9209 B(  1-C ,  2-O ) :   1.5805 B(  1-C ,  3-O ) :   1.0673
B(  3-O ,  4-H ) :   0.9387

MP2 TOTAL ENERGY:     -228.722261917 Eh
FINAL SINGLE POINT ENERGY      -228.722261917300

DIPOLE MOMENT
-------------
                                X             Y             Z
Electronic contribution:     -3.12359       0.68991      -0.00011
Nuclear contribution   :      3.49604      -1.38014       0.00015
                        -----------------------------------------
Total Dipole Moment    :      0.37245      -0.69023       0.00004
                        -----------------------------------------
Magnitude (a.u.)       :      0.78431
Magnitude (Debye)      :      1.99355

Rotational constants in cm-1:     0.382065     0.317249     0.179072
Rotational constants in MHz : 11454.008367  9510.893082  5368.456687

                             ****ORCA TERMINATED NORMALLY****
TOTAL RUN TIME: 0 days 0 hours 0 minutes 23 seconds 343 msec
