                         Program Version 4.2.1 -  RELEASE  -
|  1> %pal
|  2>  nprocs 32
|  3> end
|  4> !RI-MP2 aug-cc-pVTZ aug-cc-pVTZ/C TightSCF
|  5> %maxcore 4500
|  6> *xyzfile 0 1  05_12R1.xyz
|  7>
|  8>
|  9>                          ****END OF INPUT****

CARTESIAN COORDINATES (ANGSTROEM)
---------------------------------
  C      1.420622    0.676059    0.188302
  C      1.420622   -0.676059    0.188302
  C      0.342474   -1.522044   -0.276792
  C      0.342474    1.522044   -0.276792
  C     -0.959821   -1.218292   -0.199743
  C     -0.959821    1.218292   -0.199743
  C     -1.444043    0.000000    0.533612
  H      2.350277    1.174729    0.445232
  H      2.350277   -1.174729    0.445232
  H      0.632038   -2.462317   -0.736341
  H      0.632038    2.462317   -0.736340
  H     -1.690640   -1.872693   -0.663282
  H     -1.690639    1.872694   -0.663282
  H     -2.530324    0.000000    0.617652
  H     -1.028070    0.000000    1.548267

 Total Charge           Charge          ....    0
 Multiplicity           Mult            ....    1
 Number of Electrons    NEL             ....   50
 Basis Dimension        Dim             ....  506

ORBITAL ENERGIES
----------------

  NO   OCC          E(Eh)            E(eV)
   0   2.0000     -11.235818      -305.7422
   1   2.0000     -11.235772      -305.7409
   2   2.0000     -11.234985      -305.7195
   3   2.0000     -11.233447      -305.6776
   4   2.0000     -11.230263      -305.5910
   5   2.0000     -11.225506      -305.4616
   6   2.0000     -11.225503      -305.4615
   7   2.0000      -1.135760       -30.9056
   8   2.0000      -1.041814       -28.3492
   9   2.0000      -1.037996       -28.2453
  10   2.0000      -0.904291       -24.6070
  11   2.0000      -0.855773       -23.2868
  12   2.0000      -0.734681       -19.9917
  13   2.0000      -0.695080       -18.9141
  14   2.0000      -0.689487       -18.7619
  15   2.0000      -0.618146       -16.8206
  16   2.0000      -0.615443       -16.7471
  17   2.0000      -0.588472       -16.0131
  18   2.0000      -0.530321       -14.4308
  19   2.0000      -0.527214       -14.3462
  20   2.0000      -0.504721       -13.7342
  21   2.0000      -0.483703       -13.1622
  22   2.0000      -0.435383       -11.8474
  23   2.0000      -0.352524        -9.5927
  24   2.0000      -0.306205        -8.3323
  25   0.0000       0.029516         0.8032
  26   0.0000       0.033680         0.9165
  27   0.0000       0.035693         0.9713
  28   0.0000       0.042746         1.1632
  29   0.0000       0.047972         1.3054

MULLIKEN ATOMIC CHARGES
-----------------------
   0 C :   -0.404325
   1 C :   -0.404325
   2 C :   -0.270689
   3 C :   -0.270689
   4 C :   -0.749646
   5 C :   -0.749646
   6 C :    0.137263
   7 H :    0.389505
   8 H :    0.389506
   9 H :    0.228296
  10 H :    0.228298
  11 H :    0.532648
  12 H :    0.532647
  13 H :    0.207623
  14 H :    0.203534
Sum of atomic charges:    0.0000000

LOEWDIN ATOMIC CHARGES
----------------------
   0 C :    0.193302
   1 C :    0.193302
   2 C :    0.183312
   3 C :    0.183312
   4 C :    0.226235
   5 C :    0.226235
   6 C :    0.236959
   7 H :   -0.192576
   8 H :   -0.192576
   9 H :   -0.192678
  10 H :   -0.192678
  11 H :   -0.178754
  12 H :   -0.178754
  13 H :   -0.161446
  14 H :   -0.153197

  Mayer bond orders larger than 0.100000
B(  0-C ,  1-C ) :   1.5907 B(  0-C ,  3-C ) :   0.8127 B(  0-C ,  4-C ) :   0.1654
B(  0-C ,  7-H ) :   0.8715 B(  0-C , 10-H ) :  -0.1016 B(  1-C ,  2-C ) :   0.8127
B(  1-C ,  5-C ) :   0.1654 B(  1-C ,  8-H ) :   0.8715 B(  1-C ,  9-H ) :  -0.1016
B(  2-C ,  4-C ) :   1.5027 B(  2-C ,  9-H ) :   1.0670 B(  3-C ,  5-C ) :   1.5027
B(  3-C , 10-H ) :   1.0670 B(  4-C ,  5-C ) :   0.4707 B(  4-C ,  6-C ) :   0.6854
B(  4-C , 11-H ) :   0.6346 B(  5-C ,  6-C ) :   0.6854 B(  5-C , 12-H ) :   0.6346
B(  6-C , 13-H ) :   1.0121 B(  6-C , 14-H ) :   0.9183

MP2 TOTAL ENERGY:     -270.916892153 Eh
FINAL SINGLE POINT ENERGY      -270.916892153338

DIPOLE MOMENT
-------------
                                X             Y             Z
Electronic contribution:      0.84817      -0.00000      -0.29044
Nuclear contribution   :     -0.99370       0.00000       0.26205
                        -----------------------------------------
Total Dipole Moment    :     -0.14552       0.00000      -0.02838
                        -----------------------------------------
Magnitude (a.u.)       :      0.14827
Magnitude (Debye)      :      0.37686

Rotational constants in cm-1:     0.124010     0.123401     0.067962
Rotational constants in MHz :  3717.739111  3699.473209  2037.441752

                             ****ORCA TERMINATED NORMALLY****
TOTAL RUN TIME: 0 days 0 hours 2 minutes 0 seconds 955 msec
