                         Program Version 4.2.1 -  RELEASE  -
|  1> %pal
|  2>  nprocs 32
|  3> end
|  4> !RI-MP2 aug-cc-pVTZ aug-cc-pVTZ/C TightSCF
|  5> %maxcore 4500
|  6> *xyzfile 0 1  10_88TS.xyz
|  7>
|  8>
|  9>                          ****END OF INPUT****

CARTESIAN COORDINATES (ANGSTROEM)
---------------------------------
  O     -1.090036   -1.437689   -0.322189
  C     -1.466821   -0.362496   -0.891834
  C     -2.101662    0.668644   -0.242713
  C      0.034467    1.224755    0.827329
  C      0.098137    0.009387    1.483009
  C      0.605664   -1.077460    0.794713
  H     -2.536554    0.510034    0.734386
  H     -2.401927    1.552609   -0.792690
  H     -0.482911   -0.151355    2.381824
  H      0.560737   -2.060566    1.242972
  C      0.902848    1.479938   -0.315117
  C      1.647310    0.504973   -0.838225
  C      1.598775   -0.890533   -0.307401
  H      0.931837    2.481472   -0.727070
  H      2.319002    0.707327   -1.664841
  H      1.385068   -1.602838   -1.109855
  H      2.594407   -1.169764    0.069255
  H     -1.126659   -0.181839   -1.922375
  H     -0.435016    2.073187    1.307332

 Total Charge           Charge          ....    0
 Multiplicity           Mult            ....    1
 Number of Electrons    NEL             ....   66
 Basis Dimension        Dim             ....  644

ORBITAL ENERGIES
----------------

  NO   OCC          E(Eh)            E(eV)
   0   2.0000     -20.513202      -558.1926
   1   2.0000     -11.293985      -307.3250
   2   2.0000     -11.284142      -307.0571
   3   2.0000     -11.264908      -306.5337
   4   2.0000     -11.253516      -306.2237
   5   2.0000     -11.251004      -306.1554
   6   2.0000     -11.243695      -305.9565
   7   2.0000     -11.223237      -305.3998
   8   2.0000     -11.198008      -304.7133
   9   2.0000      -1.325719       -36.0746
  10   2.0000      -1.160897       -31.5896
  11   2.0000      -1.038976       -28.2720
  12   2.0000      -1.035019       -28.1643
  13   2.0000      -0.970083       -26.3973
  14   2.0000      -0.865908       -23.5626
  15   2.0000      -0.827193       -22.5091
  16   2.0000      -0.752687       -20.4817
  17   2.0000      -0.715428       -19.4678
  18   2.0000      -0.672676       -18.3044
  19   2.0000      -0.639206       -17.3937
  20   2.0000      -0.627886       -17.0856
  21   2.0000      -0.615954       -16.7610
  22   2.0000      -0.604507       -16.4495
  23   2.0000      -0.593064       -16.1381
  24   2.0000      -0.573020       -15.5927
  25   2.0000      -0.522338       -14.2135
  26   2.0000      -0.519460       -14.1352
  27   2.0000      -0.511347       -13.9145
  28   2.0000      -0.491243       -13.3674
  29   2.0000      -0.432362       -11.7652
  30   2.0000      -0.402332       -10.9480
  31   2.0000      -0.338334        -9.2065
  32   2.0000      -0.285621        -7.7721
  33   0.0000       0.024685         0.6717
  34   0.0000       0.030917         0.8413
  35   0.0000       0.032979         0.8974
  36   0.0000       0.043603         1.1865
  37   0.0000       0.045484         1.2377

MULLIKEN ATOMIC CHARGES
-----------------------
   0 O :   -0.961467
   1 C :   -0.056073
   2 C :   -0.868498
   3 C :   -0.091920
   4 C :   -0.771360
   5 C :    0.137194
   6 H :    0.495455
   7 H :    0.317555
   8 H :    0.291657
   9 H :    0.537167
  10 C :   -0.614716
  11 C :   -0.405310
  12 C :   -0.192053
  13 H :    0.374242
  14 H :    0.300007
  15 H :    0.238899
  16 H :    0.307350
  17 H :    0.540298
  18 H :    0.421575
Sum of atomic charges:   -0.0000000

LOEWDIN ATOMIC CHARGES
----------------------
   0 O :    0.462415
   1 C :   -0.337326
   2 C :    0.443691
   3 C :    0.165232
   4 C :    0.169968
   5 C :    0.115074
   6 H :   -0.224962
   7 H :   -0.225720
   8 H :   -0.167196
   9 H :   -0.142693
  10 C :    0.204756
  11 C :    0.242101
  12 C :    0.263990
  13 H :   -0.175245
  14 H :   -0.164074
  15 H :   -0.147173
  16 H :   -0.135847
  17 H :   -0.192537
  18 H :   -0.154455

  Mayer bond orders larger than 0.100000
B(  0-O ,  1-C ) :   1.2103 B(  0-O ,  3-C ) :   0.1079 B(  1-C ,  2-C ) :   1.3619
B(  1-C , 17-H ) :   0.6801 B(  2-C ,  3-C ) :   0.3498 B(  2-C ,  5-C ) :   0.1113
B(  2-C ,  6-H ) :   0.7476 B(  2-C ,  7-H ) :   0.9399 B(  3-C ,  4-C ) :   1.1311
B(  3-C , 10-C ) :   1.0024 B(  3-C , 18-H ) :   0.9042 B(  4-C ,  5-C ) :   1.1387
B(  4-C ,  8-H ) :   0.9414 B(  4-C , 10-C ) :   0.3452 B(  4-C , 12-C ) :   0.1844
B(  4-C , 13-H ) :  -0.1309 B(  5-C ,  9-H ) :   0.7102 B(  5-C , 12-C ) :   0.9537
B( 10-C , 11-C ) :   1.6253 B( 10-C , 13-H ) :   0.9387 B( 10-C , 14-H ) :  -0.1131
B( 11-C , 12-C ) :   0.6881 B( 11-C , 14-H ) :   1.0332 B( 11-C , 16-H ) :  -0.1181
B( 12-C , 15-H ) :   1.0345 B( 12-C , 16-H ) :   0.9615

MP2 TOTAL ENERGY:     -385.211710506 Eh
FINAL SINGLE POINT ENERGY      -385.211710506086

DIPOLE MOMENT
-------------
                                X             Y             Z
Electronic contribution:      0.37373      -1.40620       0.69369
Nuclear contribution   :      0.80236       2.16682      -0.49325
                        -----------------------------------------
Total Dipole Moment    :      1.17609       0.76062       0.20044
                        -----------------------------------------
Magnitude (a.u.)       :      1.41489
Magnitude (Debye)      :      3.59635

Rotational constants in cm-1:     0.078340     0.058315     0.049879
Rotational constants in MHz :  2348.571561  1748.235959  1495.321476

                             ****ORCA TERMINATED NORMALLY****
TOTAL RUN TIME: 0 days 0 hours 5 minutes 21 seconds 436 msec
