                         Program Version 4.2.1 -  RELEASE  -
|  1> %pal
|  2>  nprocs 32
|  3> end
|  4> !RI-MP2 aug-cc-pVTZ aug-cc-pVTZ/C TightSCF
|  5> %maxcore 4500
|  6> *xyzfile 0 1  02_29R2.xyz
|  7>
|  8>
|  9>                          ****END OF INPUT****

CARTESIAN COORDINATES (ANGSTROEM)
---------------------------------
  C     -1.282695   -0.000002   -0.009066
  C      1.282695   -0.000002    0.009066
  N      0.653317   -1.177141    0.005959
  N     -0.653316   -1.177141   -0.005959
  N      0.653315    1.177139    0.005959
  N     -0.653315    1.177139   -0.005959
  C      2.773671    0.000002    0.000191
  C     -2.773671    0.000002   -0.000191
  H     -3.138928    0.000106    1.029755
  H     -3.151363   -0.894380   -0.492538
  H     -3.151362    0.894289   -0.492710
  H      3.151362    0.894291    0.492708
  H      3.138928    0.000104   -1.029755
  H      3.151363   -0.894379    0.492540

 Total Charge           Charge          ....    0
 Multiplicity           Mult            ....    1
 Number of Electrons    NEL             ....   58
 Basis Dimension        Dim             ....  506

ORBITAL ENERGIES
----------------

  NO   OCC          E(Eh)            E(eV)
   0   2.0000     -15.642655      -425.6583
   1   2.0000     -15.642616      -425.6572
   2   2.0000     -15.641706      -425.6325
   3   2.0000     -15.641705      -425.6324
   4   2.0000     -11.328384      -308.2610
   5   2.0000     -11.328352      -308.2601
   6   2.0000     -11.242279      -305.9180
   7   2.0000     -11.242278      -305.9179
   8   2.0000      -1.434160       -39.0255
   9   2.0000      -1.326618       -36.0991
  10   2.0000      -1.199057       -32.6280
  11   2.0000      -1.044756       -28.4292
  12   2.0000      -1.013842       -27.5881
  13   2.0000      -0.965562       -26.2743
  14   2.0000      -0.882611       -24.0171
  15   2.0000      -0.793202       -21.5841
  16   2.0000      -0.689080       -18.7508
  17   2.0000      -0.658889       -17.9293
  18   2.0000      -0.617458       -16.8019
  19   2.0000      -0.599064       -16.3014
  20   2.0000      -0.584004       -15.8916
  21   2.0000      -0.577385       -15.7115
  22   2.0000      -0.561355       -15.2752
  23   2.0000      -0.535602       -14.5745
  24   2.0000      -0.514110       -13.9897
  25   2.0000      -0.508226       -13.8295
  26   2.0000      -0.489891       -13.3306
  27   2.0000      -0.396251       -10.7825
  28   2.0000      -0.395063       -10.7502
  29   0.0000       0.029204         0.7947
  30   0.0000       0.029381         0.7995
  31   0.0000       0.038942         1.0597
  32   0.0000       0.040763         1.1092
  33   0.0000       0.047314         1.2875

MULLIKEN ATOMIC CHARGES
-----------------------
   0 C :    0.267128
   1 C :    0.267129
   2 N :   -0.224684
   3 N :   -0.224683
   4 N :   -0.224678
   5 N :   -0.224677
   6 C :   -0.733646
   7 C :   -0.733647
   8 H :    0.299950
   9 H :    0.307971
  10 H :    0.307959
  11 H :    0.307959
  12 H :    0.299950
  13 H :    0.307971
Sum of atomic charges:    0.0000000

LOEWDIN ATOMIC CHARGES
----------------------
   0 C :   -0.510846
   1 C :   -0.510847
   2 N :    0.236666
   3 N :    0.236666
   4 N :    0.236666
   5 N :    0.236666
   6 C :    0.563300
   7 C :    0.563300
   8 H :   -0.167060
   9 H :   -0.179364
  10 H :   -0.179362
  11 H :   -0.179361
  12 H :   -0.167060
  13 H :   -0.179364

  Mayer bond orders larger than 0.100000
B(  0-C ,  3-N ) :   1.2189 B(  0-C ,  5-N ) :   1.2189 B(  0-C ,  7-C ) :   0.5095
B(  1-C ,  2-N ) :   1.2189 B(  1-C ,  4-N ) :   1.2189 B(  1-C ,  6-C ) :   0.5095
B(  2-N ,  3-N ) :  -0.2542 B(  4-N ,  5-N ) :  -0.2542 B(  6-C , 11-H ) :   0.9690
B(  6-C , 12-H ) :   0.9408 B(  6-C , 13-H ) :   0.9689 B(  7-C ,  8-H ) :   0.9408
B(  7-C ,  9-H ) :   0.9689 B(  7-C , 10-H ) :   0.9690

MP2 TOTAL ENERGY:     -374.278101942 Eh
FINAL SINGLE POINT ENERGY      -374.278101942072

DIPOLE MOMENT
-------------
                                X             Y             Z
Electronic contribution:     -0.00000      -0.00001      -0.00000
Nuclear contribution   :     -0.00000       0.00003       0.00000
                        -----------------------------------------
Total Dipole Moment    :     -0.00000       0.00002      -0.00000
                        -----------------------------------------
Magnitude (a.u.)       :      0.00002
Magnitude (Debye)      :      0.00004

Rotational constants in cm-1:     0.200733     0.054158     0.043335
Rotational constants in MHz :  6017.811976  1623.602243  1299.138904

                             ****ORCA TERMINATED NORMALLY****
TOTAL RUN TIME: 0 days 0 hours 1 minutes 43 seconds 452 msec
