                         Program Version 4.2.1 -  RELEASE  -
|  1> %pal
|  2>  nprocs 32
|  3> end
|  4> !RI-MP2 aug-cc-pVTZ aug-cc-pVTZ/C TightSCF
|  5> %maxcore 4500
|  6> *xyzfile 0 1  03_3P2.xyz
|  7>
|  8>
|  9>                          ****END OF INPUT****

CARTESIAN COORDINATES (ANGSTROEM)
---------------------------------
  C      0.034598    0.741215    0.137322
  C     -1.129787   -0.131605    0.447372
  C     -2.215312   -0.193958   -0.308514
  H     -1.052380   -0.728382    1.350995
  H     -2.304958    0.385120   -1.221522
  H     -3.053595   -0.825498   -0.042263
  H      0.263488    1.417643    0.958591
  H     -0.121917    1.314529   -0.773196
  Cl     1.537198   -0.238666   -0.113511

 Total Charge           Charge          ....    0
 Multiplicity           Mult            ....    1
 Number of Electrons    NEL             ....   40
 Basis Dimension        Dim             ....  303

ORBITAL ENERGIES
----------------

  NO   OCC          E(Eh)            E(eV)
   0   2.0000    -104.823870     -2852.4025
   1   2.0000     -11.301573      -307.5314
   2   2.0000     -11.251131      -306.1588
   3   2.0000     -11.241073      -305.8851
   4   2.0000     -10.548047      -287.0270
   5   2.0000      -8.014826      -218.0945
   6   2.0000      -8.013061      -218.0465
   7   2.0000      -8.013022      -218.0454
   8   2.0000      -1.142477       -31.0884
   9   2.0000      -1.056569       -28.7507
  10   2.0000      -0.916385       -24.9361
  11   2.0000      -0.781433       -21.2639
  12   2.0000      -0.670132       -18.2352
  13   2.0000      -0.624319       -16.9886
  14   2.0000      -0.592990       -16.1361
  15   2.0000      -0.543232       -14.7821
  16   2.0000      -0.524242       -14.2654
  17   2.0000      -0.439521       -11.9600
  18   2.0000      -0.434371       -11.8198
  19   2.0000      -0.382731       -10.4146
  20   0.0000       0.029372         0.7993
  21   0.0000       0.037382         1.0172
  22   0.0000       0.038420         1.0455
  23   0.0000       0.054051         1.4708
  24   0.0000       0.059049         1.6068

MULLIKEN ATOMIC CHARGES
-----------------------
   0 C :   -0.164178
   1 C :   -0.260908
   2 C :   -1.079639
   3 H :    0.424129
   4 H :    0.322624
   5 H :    0.510758
   6 H :    0.275712
   7 H :    0.297596
   8 Cl:   -0.326095
Sum of atomic charges:    0.0000000

LOEWDIN ATOMIC CHARGES
----------------------
   0 C :   -0.304116
   1 C :    0.072132
   2 C :    0.515091
   3 H :   -0.201763
   4 H :   -0.217853
   5 H :   -0.221107
   6 H :   -0.245533
   7 H :   -0.251047
   8 Cl:    0.854196

  Mayer bond orders larger than 0.100000
B(  0-C ,  1-C ) :   0.9778 B(  0-C ,  6-H ) :   0.9318 B(  0-C ,  7-H ) :   0.9167
B(  0-C ,  8-Cl) :   0.8700 B(  1-C ,  2-C ) :   1.5348 B(  1-C ,  3-H ) :   0.8098
B(  2-C ,  4-H ) :   0.9737 B(  2-C ,  5-H ) :   0.6784

MP2 TOTAL ENERGY:     -576.754048446 Eh
FINAL SINGLE POINT ENERGY      -576.754048446026

DIPOLE MOMENT
-------------
                                X             Y             Z
Electronic contribution:      7.54888      -1.44988      -0.31234
Nuclear contribution   :     -8.31329       1.86994       0.42702
                        -----------------------------------------
Total Dipole Moment    :     -0.76441       0.42005       0.11469
                        -----------------------------------------
Magnitude (a.u.)       :      0.87973
Magnitude (Debye)      :      2.23610

Rotational constants in cm-1:     0.720630     0.092602     0.089812
Rotational constants in MHz : 21603.933628  2776.125650  2692.510266

                             ****ORCA TERMINATED NORMALLY****
TOTAL RUN TIME: 0 days 0 hours 0 minutes 26 seconds 709 msec
