                         Program Version 4.2.1 -  RELEASE  -
|  1> %pal
|  2>  nprocs 32
|  3> end
|  4> !RI-MP2 aug-cc-pVTZ aug-cc-pVTZ/C TightSCF
|  5> %maxcore 4500
|  6> *xyzfile 0 1  06_20R1.xyz
|  7>
|  8>
|  9>                          ****END OF INPUT****

CARTESIAN COORDINATES (ANGSTROEM)
---------------------------------
  C     -0.536558    0.689685    0.000037
  C      0.775457    0.565908    0.000014
  F      1.380523   -0.644086   -0.000060
  C     -1.516475   -0.439031    0.000016
  H     -2.163531   -0.389511    0.879479
  H     -2.163742   -0.389294   -0.879278
  H     -1.010763   -1.403580   -0.000159
  H     -0.915322    1.705825    0.000074
  H      1.494109    1.373967    0.000022

 Total Charge           Charge          ....    0
 Multiplicity           Mult            ....    1
 Number of Electrons    NEL             ....   32
 Basis Dimension        Dim             ....  299

ORBITAL ENERGIES
----------------

  NO   OCC          E(Eh)            E(eV)
   0   2.0000     -26.300315      -715.6680
   1   2.0000     -11.312693      -307.8340
   2   2.0000     -11.238460      -305.8141
   3   2.0000     -11.228524      -305.5437
   4   2.0000      -1.614667       -43.9373
   5   2.0000      -1.078642       -29.3513
   6   2.0000      -0.947271       -25.7766
   7   2.0000      -0.800384       -21.7796
   8   2.0000      -0.732599       -19.9350
   9   2.0000      -0.681503       -18.5446
  10   2.0000      -0.662826       -18.0364
  11   2.0000      -0.596220       -16.2240
  12   2.0000      -0.573253       -15.5990
  13   2.0000      -0.537422       -14.6240
  14   2.0000      -0.523909       -14.2563
  15   2.0000      -0.367937       -10.0121
  16   0.0000       0.028968         0.7883
  17   0.0000       0.037299         1.0149
  18   0.0000       0.044226         1.2034
  19   0.0000       0.046869         1.2754
  20   0.0000       0.060528         1.6471

MULLIKEN ATOMIC CHARGES
-----------------------
   0 C :   -0.345232
   1 C :   -0.313291
   2 F :   -0.471180
   3 C :   -0.744707
   4 H :    0.284635
   5 H :    0.284623
   6 H :    0.285675
   7 H :    0.300806
   8 H :    0.718671
Sum of atomic charges:    0.0000000

LOEWDIN ATOMIC CHARGES
----------------------
   0 C :    0.151970
   1 C :   -0.170153
   2 F :    0.447784
   3 C :    0.544198
   4 H :   -0.177636
   5 H :   -0.177638
   6 H :   -0.188140
   7 H :   -0.207312
   8 H :   -0.223073

  Mayer bond orders larger than 0.100000
B(  0-C ,  1-C ) :   1.7065 B(  0-C ,  3-C ) :   0.8881 B(  0-C ,  7-H ) :   0.9557
B(  1-C ,  2-F ) :   0.9129 B(  1-C ,  8-H ) :   0.3481 B(  3-C ,  4-H ) :   0.9500
B(  3-C ,  5-H ) :   0.9500 B(  3-C ,  6-H ) :   0.9288

MP2 TOTAL ENERGY:     -216.771613640 Eh
FINAL SINGLE POINT ENERGY      -216.771613640134

DIPOLE MOMENT
-------------
                                X             Y             Z
Electronic contribution:      5.69502      -1.03556      -0.00017
Nuclear contribution   :     -6.12543       1.53420       0.00020
                        -----------------------------------------
Total Dipole Moment    :     -0.43041       0.49863       0.00003
                        -----------------------------------------
Magnitude (a.u.)       :      0.65870
Magnitude (Debye)      :      1.67429

Rotational constants in cm-1:     0.599882     0.188741     0.147486
Rotational constants in MHz : 17984.009793  5658.302681  4421.514876

                             ****ORCA TERMINATED NORMALLY****
TOTAL RUN TIME: 0 days 0 hours 0 minutes 23 seconds 329 msec
