                         Program Version 4.2.1 -  RELEASE  -
|  1> %pal
|  2>  nprocs 32
|  3> end
|  4> !RI-MP2 aug-cc-pVTZ aug-cc-pVTZ/C TightSCF
|  5> %maxcore 4500
|  6> *xyzfile 0 2  04_18TS.xyz
|  7>
|  8>
|  9>                          ****END OF INPUT****

CARTESIAN COORDINATES (ANGSTROEM)
---------------------------------
  H     -0.375978   -0.772277   -0.254384
  C     -0.400126    1.532719   -0.276297
  H      0.091092    2.443270    0.086252
  C     -2.543251    0.160244   -0.121762
  H     -3.464516    0.037385    0.448106
  H     -0.603354    1.668409   -1.341216
  H     -2.818522    0.415967   -1.147145
  C     -1.701564    1.279492    0.486195
  H     -2.293666    2.198992    0.480371
  H     -1.474601    1.048342    1.529960
  C      0.565887    0.398000   -0.146204
  C      2.691172   -0.299168   -0.553859
  C      2.254722   -0.625967    0.875023
  H      2.969448   -1.181287   -1.129823
  H      3.498289    0.434369   -0.589646
  H      1.896882   -1.655002    0.969561
  H      3.013037   -0.426189    1.628297
  S     -1.697657   -1.464619   -0.115814
  O      1.521684    0.294615   -1.129857
  O      1.168738    0.274136    1.079122

 Total Charge           Charge          ....    0
 Multiplicity           Mult            ....    2
 Number of Electrons    NEL             ....   79
 Basis Dimension        Dim             ....  671

ORBITAL ENERGIES
----------------
                 SPIN UP ORBITALS
  NO   OCC          E(Eh)            E(eV)
   0   1.0000     -91.927213     -2501.4666
   1   1.0000     -20.595114      -560.4216
   2   1.0000     -20.593694      -560.3829
   3   1.0000     -11.354522      -308.9722
   4   1.0000     -11.301299      -307.5240
   5   1.0000     -11.300381      -307.4990
   6   1.0000     -11.249712      -306.1202
   7   1.0000     -11.237754      -305.7948
   8   1.0000     -11.232849      -305.6614
   9   1.0000      -8.928126      -242.9467
  10   1.0000      -6.615912      -180.0281
  11   1.0000      -6.607199      -179.7910
  12   1.0000      -6.606054      -179.7599
  13   1.0000      -1.482352       -40.3369
  14   1.0000      -1.368700       -37.2442
  15   1.0000      -1.112416       -30.2704
  16   1.0000      -1.050454       -28.5843
  17   1.0000      -0.986407       -26.8415
  18   1.0000      -0.919901       -25.0318
  19   1.0000      -0.881070       -23.9751
  20   1.0000      -0.822501       -22.3814
  21   1.0000      -0.800882       -21.7931
  22   1.0000      -0.733898       -19.9704
  23   1.0000      -0.709397       -19.3037
  24   1.0000      -0.675370       -18.3778
  25   1.0000      -0.647345       -17.6152
  26   1.0000      -0.617873       -16.8132
  27   1.0000      -0.614567       -16.7232
  28   1.0000      -0.587493       -15.9865
  29   1.0000      -0.563987       -15.3469
  30   1.0000      -0.544422       -14.8145
  31   1.0000      -0.543307       -14.7841
  32   1.0000      -0.523019       -14.2321
  33   1.0000      -0.518388       -14.1061
  34   1.0000      -0.494046       -13.4437
  35   1.0000      -0.471697       -12.8355
  36   1.0000      -0.467297       -12.7158
  37   1.0000      -0.441335       -12.0093
  38   1.0000      -0.337321        -9.1790
  39   1.0000      -0.304608        -8.2888
  40   0.0000       0.025465         0.6929
  41   0.0000       0.030963         0.8426
  42   0.0000       0.037622         1.0237
  43   0.0000       0.038498         1.0476
  44   0.0000       0.047864         1.3024

                 SPIN DOWN ORBITALS
  NO   OCC          E(Eh)            E(eV)
   0   1.0000     -91.922748     -2501.3451
   1   1.0000     -20.591804      -560.3315
   2   1.0000     -20.588995      -560.2550
   3   1.0000     -11.334574      -308.4294
   4   1.0000     -11.301390      -307.5264
   5   1.0000     -11.300543      -307.5034
   6   1.0000     -11.250225      -306.1342
   7   1.0000     -11.238046      -305.8028
   8   1.0000     -11.232385      -305.6487
   9   1.0000      -8.923200      -242.8126
  10   1.0000      -6.605001      -179.7312
  11   1.0000      -6.603359      -179.6865
  12   1.0000      -6.596592      -179.5024
  13   1.0000      -1.468439       -39.9583
  14   1.0000      -1.358012       -36.9534
  15   1.0000      -1.102531       -30.0014
  16   1.0000      -1.043229       -28.3877
  17   1.0000      -0.976380       -26.5686
  18   1.0000      -0.896731       -24.4013
  19   1.0000      -0.878456       -23.9040
  20   1.0000      -0.798471       -21.7275
  21   1.0000      -0.784670       -21.3520
  22   1.0000      -0.713313       -19.4102
  23   1.0000      -0.703540       -19.1443
  24   1.0000      -0.657727       -17.8977
  25   1.0000      -0.633949       -17.2506
  26   1.0000      -0.613102       -16.6833
  27   1.0000      -0.603062       -16.4101
  28   1.0000      -0.562932       -15.3181
  29   1.0000      -0.554983       -15.1019
  30   1.0000      -0.541044       -14.7226
  31   1.0000      -0.532632       -14.4937
  32   1.0000      -0.518805       -14.1174
  33   1.0000      -0.503420       -13.6987
  34   1.0000      -0.492957       -13.4140
  35   1.0000      -0.454044       -12.3552
  36   1.0000      -0.446369       -12.1463
  37   1.0000      -0.423991       -11.5374
  38   1.0000      -0.328904        -8.9499
  39   0.0000       0.025263         0.6874
  40   0.0000       0.030732         0.8363
  41   0.0000       0.037654         1.0246
  42   0.0000       0.038563         1.0494
  43   0.0000       0.047913         1.3038

MULLIKEN ATOMIC CHARGES AND SPIN POPULATIONS
--------------------------------------------
   0 H :    0.422421   -0.320450
   1 C :   -0.708705   -0.058265
   2 H :    0.266310    0.056462
   3 C :   -0.385068   -0.043228
   4 H :    0.284728    0.002969
   5 H :    0.243364   -0.005577
   6 H :    0.210534    0.000326
   7 C :   -0.504033    0.030237
   8 H :    0.289492   -0.005082
   9 H :    0.267936   -0.001149
  10 C :    1.220004    0.700370
  11 C :   -0.487465   -0.002774
  12 C :   -0.375508   -0.003644
  13 H :    0.338595    0.002539
  14 H :    0.307595    0.002284
  15 H :    0.323476    0.000646
  16 H :    0.405496    0.000731
  17 S :   -0.625880    0.501188
  18 O :   -0.752058    0.081254
  19 O :   -0.741234    0.061161
Sum of atomic charges         :    0.0000000

LOEWDIN ATOMIC CHARGES AND SPIN POPULATIONS
-------------------------------------------
   0 H :   -0.649011    0.072809
   1 C :    0.272508    0.048761
   2 H :   -0.135967    0.017925
   3 C :   -0.105219    0.030251
   4 H :   -0.232231    0.006997
   5 H :   -0.146608    0.000187
   6 H :   -0.225431   -0.000059
   7 C :    0.210140    0.003471
   8 H :   -0.146767   -0.000102
   9 H :   -0.153733    0.000182
  10 C :   -0.670964    0.348272
  11 C :    0.093287    0.000406
  12 C :    0.080297    0.000914
  13 H :   -0.153824   -0.000624
  14 H :   -0.154843    0.001695
  15 H :   -0.148693   -0.000450
  16 H :   -0.152144   -0.000494
  17 S :    1.237444    0.261588
  18 O :    0.592323    0.112049
  19 O :    0.589436    0.096223

  Mayer bond orders larger than 0.100000
B(  0-H , 10-C ) :   0.1932 B(  0-H , 17-S ) :   0.3805 B(  1-C ,  2-H ) :   0.9134
B(  1-C ,  5-H ) :   1.0119 B(  1-C ,  7-C ) :   0.9814 B(  1-C , 10-C ) :   0.8479
B(  1-C , 19-O ) :   0.1458 B(  3-C ,  4-H ) :   0.9352 B(  3-C ,  6-H ) :   0.9612
B(  3-C ,  7-C ) :   0.9423 B(  3-C , 17-S ) :   0.9901 B(  7-C ,  8-H ) :   0.9524
B(  7-C ,  9-H ) :   0.9308 B( 10-C , 18-O ) :   0.6202 B( 10-C , 19-O ) :   0.6405
B( 11-C , 12-C ) :   1.0439 B( 11-C , 13-H ) :   0.8904 B( 11-C , 14-H ) :   0.9172
B( 11-C , 18-O ) :   0.9046 B( 11-C , 19-O ) :   0.1350 B( 12-C , 15-H ) :   0.9025
B( 12-C , 16-H ) :   0.8555 B( 12-C , 19-O ) :   0.9062

MP2 TOTAL ENERGY:     -782.630488419 Eh
FINAL SINGLE POINT ENERGY      -782.630488418610

DIPOLE MOMENT
-------------
                                X             Y             Z
Electronic contribution:      0.45723      -3.66033      -0.52440
Nuclear contribution   :      0.53709       4.29963       0.68847
                        -----------------------------------------
Total Dipole Moment    :      0.99432       0.63930       0.16407
                        -----------------------------------------
Magnitude (a.u.)       :      1.19344
Magnitude (Debye)      :      3.03349

Rotational constants in cm-1:     0.078627     0.030753     0.026888
Rotational constants in MHz :  2357.180473   921.951524   806.096229

                             ****ORCA TERMINATED NORMALLY****
TOTAL RUN TIME: 0 days 0 hours 8 minutes 43 seconds 772 msec
