                         Program Version 4.2.1 -  RELEASE  -
|  1> %pal
|  2>  nprocs 32
|  3> end
|  4> !RI-MP2 aug-cc-pVTZ aug-cc-pVTZ/C TightSCF
|  5> %maxcore 4500
|  6> *xyzfile 0 1  10_56R.xyz
|  7>
|  8>
|  9>                          ****END OF INPUT****

CARTESIAN COORDINATES (ANGSTROEM)
---------------------------------
  S     -1.470938   -0.065274    0.045488
  C     -0.352048   -1.000131   -1.046312
  C      0.517045   -2.003734   -0.301876
  C      1.709145   -1.547968    0.495292
  C      1.568002    1.674601   -0.460294
  C      0.514745    1.842789    0.594243
  C     -0.903065    1.644915    0.062962
  C      2.502392   -0.487883    0.375161
  C      2.412060    0.653395   -0.558757
  O     -1.333764   -0.588640    1.403103
  O     -2.780993   -0.048541   -0.601086
  H     -1.047330   -1.520428   -1.705381
  H      0.211309   -0.282261   -1.636798
  H      0.881171   -2.721047   -1.047367
  H     -0.128224   -2.577998    0.365042
  H      0.575256    2.859828    0.990976
  H      0.683323    1.164075    1.432315
  H     -1.040254    2.025173   -0.950383
  H     -1.647317    2.116713    0.706959
  H      1.995438   -2.268442    1.256218
  H      3.369857   -0.457391    1.031925
  H      1.631202    2.468735   -1.200371
  H      3.158968    0.678964   -1.349587

 Total Charge           Charge          ....    0
 Multiplicity           Mult            ....    1
 Number of Electrons    NEL             ....   92
 Basis Dimension        Dim             ....  786

ORBITAL ENERGIES
----------------

  NO   OCC          E(Eh)            E(eV)
   0   2.0000     -92.168470     -2508.0316
   1   2.0000     -20.535343      -558.7951
   2   2.0000     -20.533627      -558.7484
   3   2.0000     -11.277049      -306.8641
   4   2.0000     -11.274048      -306.7824
   5   2.0000     -11.252992      -306.2095
   6   2.0000     -11.252770      -306.2034
   7   2.0000     -11.249960      -306.1270
   8   2.0000     -11.248116      -306.0768
   9   2.0000     -11.247884      -306.0705
  10   2.0000     -11.241627      -305.9002
  11   2.0000      -9.139142      -248.6887
  12   2.0000      -6.823499      -185.6768
  13   2.0000      -6.823158      -185.6676
  14   2.0000      -6.823049      -185.6646
  15   2.0000      -1.434061       -39.0228
  16   2.0000      -1.323013       -36.0010
  17   2.0000      -1.136729       -30.9320
  18   2.0000      -1.097967       -29.8772
  19   2.0000      -1.072757       -29.1912
  20   2.0000      -1.005338       -27.3566
  21   2.0000      -0.956445       -26.0262
  22   2.0000      -0.886001       -24.1093
  23   2.0000      -0.825106       -22.4523
  24   2.0000      -0.779631       -21.2148
  25   2.0000      -0.713712       -19.4211
  26   2.0000      -0.698492       -19.0069
  27   2.0000      -0.679892       -18.5008
  28   2.0000      -0.661937       -18.0122
  29   2.0000      -0.650947       -17.7132
  30   2.0000      -0.645906       -17.5760
  31   2.0000      -0.618592       -16.8327
  32   2.0000      -0.607416       -16.5286
  33   2.0000      -0.584717       -15.9110
  34   2.0000      -0.576584       -15.6896
  35   2.0000      -0.571470       -15.5505
  36   2.0000      -0.535396       -14.5689
  37   2.0000      -0.526949       -14.3390
  38   2.0000      -0.516681       -14.0596
  39   2.0000      -0.487750       -13.2724
  40   2.0000      -0.480426       -13.0731
  41   2.0000      -0.479430       -13.0459
  42   2.0000      -0.458559       -12.4780
  43   2.0000      -0.425966       -11.5911
  44   2.0000      -0.389189       -10.5904
  45   2.0000      -0.357868        -9.7381
  46   0.0000       0.021468         0.5842
  47   0.0000       0.027458         0.7472
  48   0.0000       0.031578         0.8593
  49   0.0000       0.034877         0.9491
  50   0.0000       0.044577         1.2130

MULLIKEN ATOMIC CHARGES
-----------------------
   0 S :    2.366021
   1 C :   -0.697618
   2 C :   -0.058572
   3 C :   -0.722389
   4 C :   -0.744508
   5 C :   -0.244438
   6 C :   -0.719835
   7 C :   -0.002510
   8 C :   -0.080423
   9 O :   -1.074192
  10 O :   -1.126037
  11 H :    0.162671
  12 H :    0.278751
  13 H :    0.336699
  14 H :    0.199575
  15 H :    0.304160
  16 H :    0.194088
  17 H :    0.255026
  18 H :    0.309160
  19 H :    0.107225
  20 H :    0.391095
  21 H :    0.328291
  22 H :    0.237759
Sum of atomic charges:   -0.0000000

LOEWDIN ATOMIC CHARGES
----------------------
   0 S :    0.324553
   1 C :    0.226179
   2 C :    0.237058
   3 C :    0.231040
   4 C :    0.203032
   5 C :    0.236794
   6 C :    0.205857
   7 C :    0.194432
   8 C :    0.193299
   9 O :    0.055462
  10 O :    0.030524
  11 H :   -0.192463
  12 H :   -0.212969
  13 H :   -0.146326
  14 H :   -0.179240
  15 H :   -0.145522
  16 H :   -0.175245
  17 H :   -0.180926
  18 H :   -0.183065
  19 H :   -0.179397
  20 H :   -0.188024
  21 H :   -0.173683
  22 H :   -0.181371

  Mayer bond orders larger than 0.100000
B(  0-S ,  1-C ) :   0.8910 B(  0-S ,  2-C ) :   0.1069 B(  0-S ,  6-C ) :   0.9739
B(  0-S ,  9-O ) :   1.1440 B(  0-S , 10-O ) :   0.7207 B(  1-C ,  2-C ) :   0.8845
B(  1-C ,  3-C ) :   0.1066 B(  1-C , 10-O ) :   0.1199 B(  1-C , 11-H ) :   0.9912
B(  1-C , 12-H ) :   0.9920 B(  2-C ,  3-C ) :   0.6792 B(  2-C , 13-H ) :   0.8888
B(  2-C , 14-H ) :   1.0642 B(  3-C ,  4-C ) :   0.2258 B(  3-C ,  7-C ) :   1.5120
B(  3-C , 19-H ) :   1.2872 B(  4-C ,  5-C ) :   0.7487 B(  4-C ,  6-C ) :   0.1237
B(  4-C ,  8-C ) :   1.6578 B(  4-C , 21-H ) :   0.9284 B(  5-C ,  6-C ) :   0.9281
B(  5-C , 15-H ) :   0.9352 B(  5-C , 16-H ) :   1.0209 B(  6-C ,  9-O ) :   0.1200
B(  6-C , 10-O ) :   0.1126 B(  6-C , 17-H ) :   0.9629 B(  6-C , 18-H ) :   0.9075
B(  7-C ,  8-C ) :   0.7671 B(  7-C , 19-H ) :  -0.1218 B(  7-C , 20-H ) :   0.9011
B(  8-C , 22-H ) :   1.1069 B( 10-O , 11-H ) :   0.1401

MP2 TOTAL ENERGY:     -859.302547566 Eh
FINAL SINGLE POINT ENERGY      -859.302547566093

DIPOLE MOMENT
-------------
                                X             Y             Z
Electronic contribution:     -6.88152      -0.92422       1.28030
Nuclear contribution   :      8.65100       1.48253      -2.10179
                        -----------------------------------------
Total Dipole Moment    :      1.76947       0.55831      -0.82149
                        -----------------------------------------
Magnitude (a.u.)       :      2.02918
Magnitude (Debye)      :      5.15778

Rotational constants in cm-1:     0.049503     0.029709     0.022785
Rotational constants in MHz :  1484.053143   890.661290   683.085362

                             ****ORCA TERMINATED NORMALLY****
TOTAL RUN TIME: 0 days 0 hours 9 minutes 30 seconds 807 msec
