                         Program Version 4.2.1 -  RELEASE  -
|  1> %pal
|  2>  nprocs 32
|  3> end
|  4> !RI-MP2 aug-cc-pVTZ aug-cc-pVTZ/C TightSCF
|  5> %maxcore 4500
|  6> *xyzfile 0 1  02_45R2.xyz
|  7>
|  8>
|  9>                          ****END OF INPUT****

CARTESIAN COORDINATES (ANGSTROEM)
---------------------------------
  C     -0.000004   -0.000019   -0.661655
  C      0.000004    0.000019    0.661655
  H      0.551654   -0.739610   -1.230923
  H     -0.551669    0.739541   -1.230959
  H      0.551669   -0.739541    1.230959
  H     -0.551654    0.739610    1.230923

 Total Charge           Charge          ....    0
 Multiplicity           Mult            ....    1
 Number of Electrons    NEL             ....   16
 Basis Dimension        Dim             ....  184

ORBITAL ENERGIES
----------------

  NO   OCC          E(Eh)            E(eV)
   0   2.0000     -11.230597      -305.6001
   1   2.0000     -11.228791      -305.5509
   2   2.0000      -1.036730       -28.2109
   3   2.0000      -0.791849       -21.5473
   4   2.0000      -0.643599       -17.5132
   5   2.0000      -0.590311       -16.0632
   6   2.0000      -0.505184       -13.7468
   7   2.0000      -0.379513       -10.3271
   8   0.0000       0.032486         0.8840
   9   0.0000       0.040580         1.1042
  10   0.0000       0.042388         1.1534
  11   0.0000       0.060341         1.6420
  12   0.0000       0.092416         2.5148

MULLIKEN ATOMIC CHARGES
-----------------------
   0 C :   -0.894156
   1 C :   -0.894156
   2 H :    0.447080
   3 H :    0.447076
   4 H :    0.447076
   5 H :    0.447080
Sum of atomic charges:    0.0000000

LOEWDIN ATOMIC CHARGES
----------------------
   0 C :    0.469213
   1 C :    0.469213
   2 H :   -0.234607
   3 H :   -0.234606
   4 H :   -0.234606
   5 H :   -0.234607

  Mayer bond orders larger than 0.100000
B(  0-C ,  1-C ) :   1.7407 B(  0-C ,  2-H ) :   0.7806 B(  0-C ,  3-H ) :   0.7806
B(  1-C ,  4-H ) :   0.7806 B(  1-C ,  5-H ) :   0.7806

MP2 TOTAL ENERGY:      -78.404346773 Eh
FINAL SINGLE POINT ENERGY       -78.404346773159

DIPOLE MOMENT
-------------
                                X             Y             Z
Electronic contribution:     -0.00000      -0.00000       0.00000
Nuclear contribution   :      0.00000       0.00000       0.00000
                        -----------------------------------------
Total Dipole Moment    :     -0.00000      -0.00000       0.00000
                        -----------------------------------------
Magnitude (a.u.)       :      0.00000
Magnitude (Debye)      :      0.00000

Rotational constants in cm-1:     4.911256     1.013940     0.840431
Rotational constants in MHz : 147235.744904 30397.161534 25195.493398

                             ****ORCA TERMINATED NORMALLY****
TOTAL RUN TIME: 0 days 0 hours 0 minutes 10 seconds 468 msec
