                         Program Version 4.2.1 -  RELEASE  -
|  1> %pal
|  2>  nprocs 32
|  3> end
|  4> !RI-MP2 aug-cc-pVTZ aug-cc-pVTZ/C TightSCF
|  5> %maxcore 4500
|  6> *xyzfile 0 1  02_18P.xyz
|  7>
|  8>
|  9>                          ****END OF INPUT****

CARTESIAN COORDINATES (ANGSTROEM)
---------------------------------
  C     -2.164419    0.068362   -0.608049
  C     -0.959771   -0.855743   -0.342153
  C      0.312092   -0.077183   -0.731084
  C     -2.089255    1.359142    0.185196
  H     -2.115160    0.322521   -1.679256
  C     -0.821511    2.116978   -0.162227
  H     -2.964151    1.972212   -0.034173
  H     -2.092865    1.151162    1.257977
  C      0.407241    1.239529    0.053358
  H     -0.862152    2.424881   -1.219378
  C     -0.834909   -1.444769    1.055628
  C      0.366191   -1.744183    1.548850
  C      1.557329   -0.980912   -0.580170
  C      1.669966   -1.563591    0.835609
  C     -2.070510   -1.778399    1.844875
  H     -1.795620   -2.220337    2.803496
  H     -2.695500   -0.904431    2.024392
  H     -2.698735   -2.491583    1.305941
  H      1.304720    1.781445   -0.249287
  H      0.478067    1.047102    1.125734
  C      2.663977   -0.626046    1.541361
  H      3.374061   -1.151284    2.178228
  H      2.164858    0.146053    2.127331
  C      2.814444   -0.127338   -0.702662
  O     -3.425921   -0.522541   -0.364922
  O     -0.794551    3.277843    0.646177
  O      3.248669    0.375568   -1.696409
  O      3.414253    0.014407    0.497550
  C     -3.807452   -1.504951   -1.296779
  H     -4.847091   -1.755129   -1.089995
  H     -3.728925   -1.127738   -2.324551
  H     -3.205242   -2.417326   -1.212088
  C      0.125885    4.262046    0.233414
  H      1.165043    3.940370    0.360391
  H     -0.032305    4.534369   -0.817904
  H     -0.046158    5.139025    0.855758
  C      1.583380   -2.058857   -1.663086
  H      0.736193   -2.738041   -1.558783
  H      2.496349   -2.653580   -1.594087
  H      1.554691   -1.603409   -2.653668
  H      0.424966   -2.198534    2.534641
  H      0.244037    0.179216   -1.793834
  H     -1.064615   -1.698718   -1.033684
  H      2.149871   -2.544970    0.755156

 Total Charge           Charge          ....    0
 Multiplicity           Mult            ....    1
 Number of Electrons    NEL             ....  152
 Basis Dimension        Dim             .... 1472

ORBITAL ENERGIES
----------------

  NO   OCC          E(Eh)            E(eV)
   0   2.0000     -20.601647      -560.5993
   1   2.0000     -20.562265      -559.5277
   2   2.0000     -20.555236      -559.3364
   3   2.0000     -20.538073      -558.8694
   4   2.0000     -11.370824      -309.4158
   5   2.0000     -11.297532      -307.4215
   6   2.0000     -11.288749      -307.1825
   7   2.0000     -11.281570      -306.9871
   8   2.0000     -11.278511      -306.9039
   9   2.0000     -11.268277      -306.6254
  10   2.0000     -11.259445      -306.3851
  11   2.0000     -11.251078      -306.1574
  12   2.0000     -11.248874      -306.0974
  13   2.0000     -11.246673      -306.0375
  14   2.0000     -11.243497      -305.9511
  15   2.0000     -11.229617      -305.5734
  16   2.0000     -11.229598      -305.5729
  17   2.0000     -11.223853      -305.4166
  18   2.0000     -11.219761      -305.3052
  19   2.0000     -11.218312      -305.2658
  20   2.0000      -1.461275       -39.7633
  21   2.0000      -1.386851       -37.7381
  22   2.0000      -1.377040       -37.4712
  23   2.0000      -1.366564       -37.1861
  24   2.0000      -1.176117       -32.0038
  25   2.0000      -1.106678       -30.1143
  26   2.0000      -1.085194       -29.5296
  27   2.0000      -1.037541       -28.2329
  28   2.0000      -1.012707       -27.5572
  29   2.0000      -0.994181       -27.0530
  30   2.0000      -0.944142       -25.6914
  31   2.0000      -0.940689       -25.5974
  32   2.0000      -0.915780       -24.9196
  33   2.0000      -0.914643       -24.8887
  34   2.0000      -0.859035       -23.3755
  35   2.0000      -0.828637       -22.5484
  36   2.0000      -0.819118       -22.2893
  37   2.0000      -0.793738       -21.5987
  38   2.0000      -0.754466       -20.5301
  39   2.0000      -0.710145       -19.3240
  40   2.0000      -0.703504       -19.1433
  41   2.0000      -0.687631       -18.7114
  42   2.0000      -0.676923       -18.4200
  43   2.0000      -0.671298       -18.2669
  44   2.0000      -0.663081       -18.0434
  45   2.0000      -0.648702       -17.6521
  46   2.0000      -0.641021       -17.4431
  47   2.0000      -0.637720       -17.3532
  48   2.0000      -0.628512       -17.1027
  49   2.0000      -0.617774       -16.8105
  50   2.0000      -0.612723       -16.6730
  51   2.0000      -0.606319       -16.4988
  52   2.0000      -0.594080       -16.1657
  53   2.0000      -0.584079       -15.8936
  54   2.0000      -0.578376       -15.7384
  55   2.0000      -0.575924       -15.6717
  56   2.0000      -0.566880       -15.4256
  57   2.0000      -0.557835       -15.1795
  58   2.0000      -0.542992       -14.7756
  59   2.0000      -0.533640       -14.5211
  60   2.0000      -0.523229       -14.2378
  61   2.0000      -0.517365       -14.0782
  62   2.0000      -0.513004       -13.9595
  63   2.0000      -0.507694       -13.8151
  64   2.0000      -0.502702       -13.6792
  65   2.0000      -0.495310       -13.4781
  66   2.0000      -0.482959       -13.1420
  67   2.0000      -0.473726       -12.8908
  68   2.0000      -0.462014       -12.5720
  69   2.0000      -0.458048       -12.4641
  70   2.0000      -0.454595       -12.3702
  71   2.0000      -0.450188       -12.2502
  72   2.0000      -0.427953       -11.6452
  73   2.0000      -0.417904       -11.3717
  74   2.0000      -0.410290       -11.1646
  75   2.0000      -0.349738        -9.5168
  76   0.0000       0.020453         0.5566
  77   0.0000       0.025869         0.7039
  78   0.0000       0.030210         0.8221
  79   0.0000       0.031305         0.8519
  80   0.0000       0.038181         1.0389

MULLIKEN ATOMIC CHARGES
-----------------------
   0 C :    0.974869
   1 C :   -0.276167
   2 C :    0.165092
   3 C :   -0.796723
   4 H :    0.656914
   5 C :    0.607911
   6 H :    0.274249
   7 H :    0.019842
   8 C :   -0.794543
   9 H :    0.237801
  10 C :    1.312031
  11 C :   -1.055806
  12 C :    1.805371
  13 C :    0.233765
  14 C :   -1.360304
  15 H :    0.164179
  16 H :    0.270270
  17 H :    0.259008
  18 H :    0.284471
  19 H :    0.204876
  20 C :   -0.237894
  21 H :    0.301507
  22 H :    0.303416
  23 C :    0.668668
  24 O :   -1.120739
  25 O :   -0.967528
  26 O :   -1.303272
  27 O :   -0.656280
  28 C :   -1.154868
  29 H :    0.350181
  30 H :    0.306433
  31 H :    0.393252
  32 C :   -1.096086
  33 H :    0.372948
  34 H :    0.331922
  35 H :    0.337382
  36 C :   -1.657320
  37 H :    0.313298
  38 H :    0.135081
  39 H :    0.223613
  40 H :   -0.363011
  41 H :    0.652906
  42 H :    0.365012
  43 H :    0.314274
Sum of atomic charges:   -0.0000000

LOEWDIN ATOMIC CHARGES
----------------------
   0 C :   -0.246029
   1 C :    0.051920
   2 C :    0.049924
   3 C :    0.320166
   4 H :   -0.130189
   5 C :   -0.252024
   6 H :   -0.124722
   7 H :   -0.139015
   8 C :    0.329420
   9 H :   -0.123018
  10 C :   -0.031468
  11 C :    0.284825
  12 C :   -0.270559
  13 C :    0.007880
  14 C :    0.586920
  15 H :   -0.173909
  16 H :   -0.183911
  17 H :   -0.164706
  18 H :   -0.156443
  19 H :   -0.151828
  20 C :    0.125742
  21 H :   -0.138952
  22 H :   -0.158521
  23 C :   -0.803733
  24 O :    0.596966
  25 O :    0.591124
  26 O :    0.477579
  27 O :    0.615841
  28 C :    0.333175
  29 H :   -0.176128
  30 H :   -0.167953
  31 H :   -0.180310
  32 C :    0.334000
  33 H :   -0.180266
  34 H :   -0.171723
  35 H :   -0.182281
  36 C :    0.617311
  37 H :   -0.156853
  38 H :   -0.146218
  39 H :   -0.147697
  40 H :   -0.165114
  41 H :   -0.113589
  42 H :   -0.154289
  43 H :   -0.131344

  Mayer bond orders larger than 0.100000
B(  0-C ,  1-C ) :   0.6530 B(  0-C ,  2-C ) :   0.2165 B(  0-C ,  3-C ) :   0.7445
B(  0-C ,  4-H ) :   0.8610 B(  0-C , 10-C ) :   0.2600 B(  0-C , 24-O ) :  -0.3764
B(  0-C , 28-C ) :  -0.1849 B(  0-C , 41-H ) :  -0.1240 B(  1-C ,  2-C ) :   1.0600
B(  1-C ,  3-C ) :   0.1495 B(  1-C ,  4-H ) :  -0.1423 B(  1-C , 10-C ) :   1.3618
B(  1-C , 11-C ) :   0.2795 B(  1-C , 12-C ) :   0.1970 B(  1-C , 14-C ) :   0.2234
B(  1-C , 24-O ) :   0.2768 B(  1-C , 37-H ) :  -0.1023 B(  1-C , 40-H ) :   0.2408
B(  1-C , 41-H ) :  -0.2098 B(  1-C , 42-H ) :   1.2602 B(  2-C ,  8-C ) :   0.5589
B(  2-C , 11-C ) :   0.2004 B(  2-C , 12-C ) :   0.3881 B(  2-C , 13-C ) :   0.2629
B(  2-C , 23-C ) :   0.8709 B(  2-C , 26-O ) :   0.4530 B(  2-C , 36-C ) :   0.1581
B(  2-C , 37-H ) :   0.1320 B(  2-C , 40-H ) :   0.1142 B(  2-C , 41-H ) :   0.5394
B(  2-C , 42-H ) :  -0.3550 B(  2-C , 43-H ) :   0.1014 B(  3-C ,  4-H ) :  -0.2342
B(  3-C ,  5-C ) :   0.8603 B(  3-C ,  6-H ) :   0.9002 B(  3-C ,  7-H ) :   1.2559
B(  3-C ,  8-C ) :   0.1639 B(  3-C , 11-C ) :  -0.1160 B(  3-C , 14-C ) :   0.1229
B(  3-C , 24-O ) :   0.3153 B(  4-H , 24-O ) :  -0.4485 B(  4-H , 28-C ) :  -0.1485
B(  5-C ,  8-C ) :   0.8265 B(  5-C ,  9-H ) :   1.2238 B(  5-C , 18-H ) :  -0.1622
B(  5-C , 32-C ) :  -0.2179 B(  8-C , 12-C ) :   0.1913 B(  8-C , 13-C ) :  -0.1160
B(  8-C , 18-H ) :   1.0660 B(  8-C , 19-H ) :   1.1395 B(  8-C , 23-C ) :  -0.1549
B(  8-C , 25-O ) :   0.3494 B(  9-H , 25-O ) :  -0.2408 B( 10-C , 11-C ) :   0.7959
B( 10-C , 12-C ) :   0.1109 B( 10-C , 13-C ) :   0.4130 B( 10-C , 14-C ) :  -0.1331
B( 10-C , 16-H ) :  -0.2492 B( 10-C , 17-H ) :  -0.1799 B( 10-C , 24-O ) :   0.1493
B( 10-C , 40-H ) :  -0.6716 B( 10-C , 42-H ) :  -0.3944 B( 10-C , 43-H ) :   0.1362
B( 11-C , 13-C ) :   0.3217 B( 11-C , 14-C ) :  -0.1013 B( 11-C , 40-H ) :   2.1630
B( 11-C , 43-H ) :  -0.1926 B( 12-C , 13-C ) :   0.8192 B( 12-C , 23-C ) :  -0.3845
B( 12-C , 26-O ) :  -0.2900 B( 12-C , 27-O ) :  -0.2949 B( 12-C , 36-C ) :  -0.2788
B( 12-C , 37-H ) :  -0.1841 B( 12-C , 38-H ) :  -0.1962 B( 12-C , 39-H ) :  -0.2197
B( 12-C , 41-H ) :  -0.2015 B( 12-C , 43-H ) :  -0.1143 B( 13-C , 14-C ) :  -0.1193
B( 13-C , 20-C ) :   0.7990 B( 13-C , 27-O ) :   0.3253 B( 13-C , 40-H ) :  -0.2398
B( 13-C , 42-H ) :  -0.1001 B( 13-C , 43-H ) :   0.8442 B( 14-C , 15-H ) :   1.1050
B( 14-C , 16-H ) :   1.1323 B( 14-C , 17-H ) :   1.2043 B( 20-C , 21-H ) :   0.9939
B( 20-C , 22-H ) :   0.9896 B( 20-C , 27-O ) :   0.5412 B( 23-C , 26-O ) :   0.5164
B( 23-C , 27-O ) :   0.8259 B( 24-O , 28-C ) :   1.2519 B( 25-O , 32-C ) :   1.2242
B( 26-O , 27-O ) :  -0.1029 B( 26-O , 36-C ) :   0.1915 B( 28-C , 29-H ) :   0.9976
B( 28-C , 30-H ) :   0.9850 B( 28-C , 31-H ) :   0.8442 B( 32-C , 33-H ) :   0.8568
B( 32-C , 34-H ) :   0.9054 B( 32-C , 35-H ) :   0.9986 B( 36-C , 37-H ) :   1.0475
B( 36-C , 38-H ) :   1.2770 B( 36-C , 39-H ) :   1.1655 B( 40-H , 42-H ) :  -0.1492
B( 40-H , 43-H ) :  -0.2058

MP2 TOTAL ENERGY:     -923.307098709 Eh
FINAL SINGLE POINT ENERGY      -923.307098709290

DIPOLE MOMENT
-------------
                                X             Y             Z
Electronic contribution:     11.35304       1.75136       0.20464
Nuclear contribution   :    -12.23589      -2.86842       0.05487
                        -----------------------------------------
Total Dipole Moment    :     -0.88285      -1.11705       0.25951
                        -----------------------------------------
Magnitude (a.u.)       :      1.44727
Magnitude (Debye)      :      3.67867

Rotational constants in cm-1:     0.014328     0.010332     0.007770
Rotational constants in MHz :   429.557317   309.735979   232.935190

                             ****ORCA TERMINATED NORMALLY****
TOTAL RUN TIME: 0 days 1 hours 16 minutes 42 seconds 778 msec
