                         Program Version 4.2.1 -  RELEASE  -
|  1> %pal
|  2>  nprocs 32
|  3> end
|  4> !RI-MP2 aug-cc-pVTZ aug-cc-pVTZ/C TightSCF
|  5> %maxcore 4500
|  6> *xyzfile 0 1  02_16P.xyz
|  7>
|  8>
|  9>                          ****END OF INPUT****

CARTESIAN COORDINATES (ANGSTROEM)
---------------------------------
  C      2.684083   -0.495924    0.428844
  C      1.259445   -1.055447    0.345013
  C      0.228143    0.035169    0.713177
  C      2.858258    0.739242   -0.435063
  H      2.883997   -0.234479    1.480551
  C      1.831780    1.801914   -0.094916
  H      3.865635    1.137442   -0.307829
  H      2.746429    0.465956   -1.487258
  C      0.411978    1.253195   -0.201149
  H      1.998636    2.152390    0.937468
  C      0.919314   -1.617222   -1.005849
  C     -0.336889   -1.968333   -1.238004
  C     -1.222705   -0.573863    0.746306
  C     -1.335981   -1.883229   -0.118226
  H     -0.292404    2.036488    0.081953
  H      0.211255    0.990355   -1.241924
  C     -2.756120   -2.275796   -0.569702
  H     -3.492539   -1.929068    0.168893
  H     -2.820071   -3.365020   -0.589860
  C     -2.175838    0.502024    0.251058
  C     -3.313275    2.485303    0.792832
  H     -2.819557    3.061084    0.010036
  H     -3.457372    3.090563    1.683512
  H     -4.267404    2.119086    0.416204
  O     -2.485440    1.390414    1.201799
  O      3.658957   -1.430240    0.005173
  O      2.057106    2.886861   -0.976641
  O     -2.591229    0.618818   -0.877363
  O     -3.108075   -1.857385   -1.867231
  H     -3.022885   -0.894702   -1.886253
  C      3.804080   -2.555821    0.838374
  H      4.691498   -3.089248    0.500631
  H      3.944803   -2.258241    1.885806
  H      2.944359   -3.231910    0.774203
  C      1.403696    4.082122   -0.625892
  H      1.616630    4.360046    0.414950
  H      1.787109    4.860431   -1.284347
  H      0.317809    4.018277   -0.758603
  C     -1.555821   -0.943239    2.199639
  H     -1.566615   -0.065315    2.842369
  H     -2.528813   -1.433999    2.274068
  H     -0.802059   -1.638672    2.574455
  H     -0.668947   -2.347523   -2.195993
  H      1.693116   -1.702134   -1.759001
  H      0.438988    0.368863    1.734923
  H      1.166922   -1.853828    1.092437
  H     -1.043961   -2.665165    0.594063

 Total Charge           Charge          ....    0
 Multiplicity           Mult            ....    1
 Number of Electrons    NEL             ....  162
 Basis Dimension        Dim             .... 1564

ORBITAL ENERGIES
----------------

  NO   OCC          E(Eh)            E(eV)
   0   2.0000     -20.616702      -561.0090
   1   2.0000     -20.557394      -559.3951
   2   2.0000     -20.556808      -559.3792
   3   2.0000     -20.555014      -559.3304
   4   2.0000     -20.530451      -558.6620
   5   2.0000     -11.390753      -309.9582
   6   2.0000     -11.296730      -307.3997
   7   2.0000     -11.282540      -307.0135
   8   2.0000     -11.280218      -306.9503
   9   2.0000     -11.271818      -306.7218
  10   2.0000     -11.271048      -306.7008
  11   2.0000     -11.269789      -306.6665
  12   2.0000     -11.267795      -306.6123
  13   2.0000     -11.250143      -306.1320
  14   2.0000     -11.239198      -305.8341
  15   2.0000     -11.235218      -305.7258
  16   2.0000     -11.230107      -305.5867
  17   2.0000     -11.221048      -305.3402
  18   2.0000     -11.218133      -305.2609
  19   2.0000     -11.215907      -305.2004
  20   2.0000     -11.213853      -305.1444
  21   2.0000      -1.481804       -40.3219
  22   2.0000      -1.380658       -37.5696
  23   2.0000      -1.376921       -37.4679
  24   2.0000      -1.376787       -37.4643
  25   2.0000      -1.341122       -36.4938
  26   2.0000      -1.167423       -31.7672
  27   2.0000      -1.100908       -29.9572
  28   2.0000      -1.068473       -29.0746
  29   2.0000      -1.022219       -27.8160
  30   2.0000      -1.009863       -27.4798
  31   2.0000      -0.986825       -26.8529
  32   2.0000      -0.957893       -26.0656
  33   2.0000      -0.928317       -25.2608
  34   2.0000      -0.913349       -24.8535
  35   2.0000      -0.896469       -24.3942
  36   2.0000      -0.846607       -23.0373
  37   2.0000      -0.833476       -22.6800
  38   2.0000      -0.819008       -22.2863
  39   2.0000      -0.790592       -21.5131
  40   2.0000      -0.773289       -21.0423
  41   2.0000      -0.719454       -19.5773
  42   2.0000      -0.710410       -19.3312
  43   2.0000      -0.701067       -19.0770
  44   2.0000      -0.687590       -18.7103
  45   2.0000      -0.677662       -18.4401
  46   2.0000      -0.667402       -18.1609
  47   2.0000      -0.665192       -18.1008
  48   2.0000      -0.650673       -17.7057
  49   2.0000      -0.647237       -17.6122
  50   2.0000      -0.646581       -17.5944
  51   2.0000      -0.634940       -17.2776
  52   2.0000      -0.620347       -16.8805
  53   2.0000      -0.610479       -16.6120
  54   2.0000      -0.601999       -16.3812
  55   2.0000      -0.596669       -16.2362
  56   2.0000      -0.594277       -16.1711
  57   2.0000      -0.586006       -15.9460
  58   2.0000      -0.572828       -15.5874
  59   2.0000      -0.567279       -15.4365
  60   2.0000      -0.552763       -15.0414
  61   2.0000      -0.551329       -15.0024
  62   2.0000      -0.537601       -14.6289
  63   2.0000      -0.531748       -14.4696
  64   2.0000      -0.520463       -14.1625
  65   2.0000      -0.515577       -14.0296
  66   2.0000      -0.511603       -13.9214
  67   2.0000      -0.509705       -13.8698
  68   2.0000      -0.502624       -13.6771
  69   2.0000      -0.487805       -13.2739
  70   2.0000      -0.481481       -13.1018
  71   2.0000      -0.480707       -13.0807
  72   2.0000      -0.476938       -12.9781
  73   2.0000      -0.457822       -12.4580
  74   2.0000      -0.451466       -12.2850
  75   2.0000      -0.448987       -12.2176
  76   2.0000      -0.434703       -11.8289
  77   2.0000      -0.423342       -11.5197
  78   2.0000      -0.418215       -11.3802
  79   2.0000      -0.408150       -11.1063
  80   2.0000      -0.345442        -9.4000
  81   0.0000       0.018719         0.5094
  82   0.0000       0.024787         0.6745
  83   0.0000       0.029058         0.7907
  84   0.0000       0.032714         0.8902
  85   0.0000       0.037535         1.0214

MULLIKEN ATOMIC CHARGES
-----------------------
   0 C :    0.510898
   1 C :    0.324648
   2 C :   -0.296520
   3 C :   -0.663107
   4 H :    0.428108
   5 C :    0.575736
   6 H :    0.335070
   7 H :    0.034046
   8 C :   -1.137813
   9 H :    0.221836
  10 C :   -0.663103
  11 C :   -0.956883
  12 C :    2.828853
  13 C :    0.228525
  14 H :    0.771866
  15 H :    0.243230
  16 C :   -0.348707
  17 H :    0.190786
  18 H :    0.297404
  19 C :    1.098563
  20 C :   -1.168564
  21 H :    0.433420
  22 H :    0.345780
  23 H :    0.373867
  24 O :   -0.690894
  25 O :   -1.008019
  26 O :   -0.991404
  27 O :   -1.366694
  28 O :   -0.886989
  29 H :    0.240411
  30 C :   -1.096318
  31 H :    0.351732
  32 H :    0.328215
  33 H :    0.395394
  34 C :   -1.107720
  35 H :    0.327375
  36 H :    0.314684
  37 H :    0.439267
  38 C :   -1.754549
  39 H :    0.249246
  40 H :    0.253221
  41 H :    0.270007
  42 H :    0.635620
  43 H :    0.050337
  44 H :    0.458957
  45 H :    0.422379
  46 H :    0.157804
Sum of atomic charges:   -0.0000000

LOEWDIN ATOMIC CHARGES
----------------------
   0 C :   -0.255990
   1 C :    0.003228
   2 C :    0.061856
   3 C :    0.311152
   4 H :   -0.122165
   5 C :   -0.254657
   6 H :   -0.127188
   7 H :   -0.134710
   8 C :    0.312466
   9 H :   -0.124236
  10 C :    0.254683
  11 C :    0.269405
  12 C :   -0.218405
  13 C :    0.009057
  14 H :   -0.179714
  15 H :   -0.125793
  16 C :    0.049372
  17 H :   -0.155063
  18 H :   -0.151204
  19 C :   -0.782159
  20 C :    0.376874
  21 H :   -0.176145
  22 H :   -0.179137
  23 H :   -0.174374
  24 O :    0.604936
  25 O :    0.593278
  26 O :    0.592354
  27 O :    0.589733
  28 O :    0.837363
  29 H :   -0.662487
  30 C :    0.332621
  31 H :   -0.179537
  32 H :   -0.169973
  33 H :   -0.179040
  34 C :    0.328108
  35 H :   -0.172413
  36 H :   -0.181837
  37 H :   -0.183680
  38 C :    0.593105
  39 H :   -0.173019
  40 H :   -0.148317
  41 H :   -0.149820
  42 H :   -0.171030
  43 H :   -0.163028
  44 H :   -0.126983
  45 H :   -0.140948
  46 H :   -0.156539

  Mayer bond orders larger than 0.100000
B(  0-C ,  1-C ) :   0.9819 B(  0-C ,  3-C ) :   0.8074 B(  0-C ,  4-H ) :   0.9911
B(  0-C , 10-C ) :  -0.1600 B(  0-C , 11-C ) :   0.1388 B(  0-C , 30-C ) :  -0.1206
B(  1-C ,  2-C ) :   1.0842 B(  1-C ,  3-C ) :   0.1189 B(  1-C ,  5-C ) :   0.1216
B(  1-C , 10-C ) :   1.1504 B(  1-C , 25-O ) :   0.2261 B(  1-C , 38-C ) :  -0.1671
B(  1-C , 44-H ) :  -0.1922 B(  1-C , 45-H ) :   1.2459 B(  2-C ,  8-C ) :   0.8581
B(  2-C , 10-C ) :   0.4569 B(  2-C , 19-C ) :   0.4218 B(  2-C , 24-O ) :   0.2971
B(  2-C , 38-C ) :   0.3340 B(  2-C , 42-H ) :   0.1480 B(  2-C , 44-H ) :   0.7669
B(  2-C , 45-H ) :  -0.2373 B(  2-C , 46-H ) :  -0.1241 B(  3-C ,  5-C ) :   0.8792
B(  3-C ,  6-H ) :   0.8210 B(  3-C ,  7-H ) :   1.2051 B(  3-C , 10-C ) :   0.1312
B(  3-C , 25-O ) :   0.2399 B(  3-C , 26-O ) :   0.1186 B(  4-H , 25-O ) :  -0.2564
B(  4-H , 43-H ) :  -0.1101 B(  5-C ,  8-C ) :   0.9916 B(  5-C ,  9-H ) :   1.2365
B(  5-C , 14-H ) :  -0.2133 B(  5-C , 26-O ) :  -0.1357 B(  5-C , 34-C ) :  -0.1930
B(  8-C , 12-C ) :  -0.3244 B(  8-C , 14-H ) :   0.5474 B(  8-C , 15-H ) :   1.1345
B(  8-C , 19-C ) :   0.1691 B(  8-C , 24-O ) :   0.1593 B(  8-C , 26-O ) :   0.4180
B(  9-H , 26-O ) :  -0.2625 B( 10-C , 11-C ) :   1.5411 B( 10-C , 13-C ) :   0.1205
B( 10-C , 43-H ) :   1.5305 B( 10-C , 45-H ) :  -0.2635 B( 11-C , 12-C ) :   0.5146
B( 11-C , 13-C ) :   0.6697 B( 11-C , 19-C ) :  -0.1676 B( 11-C , 42-H ) :   0.3731
B( 11-C , 43-H ) :  -0.1501 B( 11-C , 45-H ) :  -0.1867 B( 12-C , 13-C ) :   0.8853
B( 12-C , 16-C ) :   0.2035 B( 12-C , 19-C ) :  -0.2456 B( 12-C , 24-O ) :  -0.8527
B( 12-C , 27-O ) :  -0.4104 B( 12-C , 38-C ) :  -0.4755 B( 12-C , 39-H ) :  -0.2416
B( 12-C , 40-H ) :  -0.2011 B( 12-C , 41-H ) :  -0.3052 B( 12-C , 42-H ) :  -0.1593
B( 12-C , 44-H ) :  -0.2351 B( 12-C , 46-H ) :  -0.1180 B( 13-C , 16-C ) :   0.6447
B( 13-C , 43-H ) :   0.1329 B( 13-C , 45-H ) :  -0.1881 B( 13-C , 46-H ) :   1.1144
B( 14-H , 26-O ) :  -0.1109 B( 16-C , 17-H ) :   1.0677 B( 16-C , 18-H ) :   1.1301
B( 16-C , 28-O ) :   0.5411 B( 19-C , 20-C ) :  -0.2828 B( 19-C , 24-O ) :   0.7919
B( 19-C , 27-O ) :   0.5391 B( 19-C , 38-C ) :  -0.1116 B( 20-C , 21-H ) :   0.8134
B( 20-C , 22-H ) :   0.9534 B( 20-C , 23-H ) :   0.9190 B( 20-C , 24-O ) :   1.0680
B( 24-O , 27-O ) :   0.1110 B( 24-O , 38-C ) :   0.1919 B( 25-O , 30-C ) :   1.2072
B( 26-O , 34-C ) :   1.2301 B( 28-O , 29-H ) :   0.8275 B( 30-C , 31-H ) :   0.9782
B( 30-C , 32-H ) :   0.9305 B( 30-C , 33-H ) :   0.8347 B( 34-C , 35-H ) :   0.9039
B( 34-C , 36-H ) :   1.0397 B( 34-C , 37-H ) :   0.7821 B( 38-C , 39-H ) :   1.1691
B( 38-C , 40-H ) :   1.1775 B( 38-C , 41-H ) :   1.1614 B( 42-H , 44-H ) :  -0.1044
B( 44-H , 46-H ) :   0.1133

MP2 TOTAL ENERGY:     -999.611977384 Eh
FINAL SINGLE POINT ENERGY      -999.611977383856

DIPOLE MOMENT
-------------
                                X             Y             Z
Electronic contribution:     -3.66956      -1.36323      -5.97590
Nuclear contribution   :      3.55420       2.01592       8.07151
                        -----------------------------------------
Total Dipole Moment    :     -0.11536       0.65269       2.09561
                        -----------------------------------------
Magnitude (a.u.)       :      2.19793
Magnitude (Debye)      :      5.58669

Rotational constants in cm-1:     0.012535     0.008820     0.006314
Rotational constants in MHz :   375.803412   264.404473   189.280717

                             ****ORCA TERMINATED NORMALLY****
TOTAL RUN TIME: 0 days 1 hours 31 minutes 41 seconds 694 msec
