                         Program Version 4.2.1 -  RELEASE  -
|  1> %pal
|  2>  nprocs 32
|  3> end
|  4> !RI-MP2 aug-cc-pVTZ aug-cc-pVTZ/C TightSCF
|  5> %maxcore 4500
|  6> *xyzfile 0 2  04_41R.xyz
|  7>
|  8>
|  9>                          ****END OF INPUT****

CARTESIAN COORDINATES (ANGSTROEM)
---------------------------------
  N      0.669444    0.496811   -0.242991
  S     -0.017765   -0.967308    0.154953
  O     -1.530369   -0.513976    0.334609
  C     -2.268509   -0.078879   -0.839908
  C     -3.629202    0.370049   -0.362093
  H     -2.328340   -0.918625   -1.532380
  H     -1.713106    0.739806   -1.303297
  C     -3.571278    1.573769    0.570655
  H     -4.123993   -0.471708    0.129256
  H     -4.219264    0.606688   -1.252877
  C      2.114415    0.667640   -0.102592
  C      2.940791   -0.584454   -0.416959
  C      2.349762    1.114906    1.356118
  C      2.481132    1.802789   -1.059929
  H      2.301949    1.504965   -2.094214
  H      3.537434    2.055701   -0.951097
  H      1.883798    2.690093   -0.847561
  H      2.749365   -1.387190    0.294728
  H      3.999722   -0.327136   -0.360689
  H      2.727060   -0.952236   -1.420767
  H      2.089561    0.320789    2.054074
  H      1.756640    2.000301    1.588098
  H      3.406486    1.363449    1.472175
  O      0.395762   -1.437119    1.452051
  O      0.096591   -1.807334   -1.018124
  H     -3.097423    2.427769    0.079636
  H     -2.997033    1.341704    1.468284
  H     -4.573247    1.877398    0.878273

 Total Charge           Charge          ....    0
 Multiplicity           Mult            ....    2
 Number of Electrons    NEL             ....  105
 Basis Dimension        Dim             ....  924

ORBITAL ENERGIES
----------------
                 SPIN UP ORBITALS
  NO   OCC          E(Eh)            E(eV)
   0   1.0000     -92.237481     -2509.9095
   1   1.0000     -20.620440      -561.1107
   2   1.0000     -20.563865      -559.5712
   3   1.0000     -20.563002      -559.5477
   4   1.0000     -15.641965      -425.6395
   5   1.0000     -11.302711      -307.5624
   6   1.0000     -11.294807      -307.3473
   7   1.0000     -11.238129      -305.8050
   8   1.0000     -11.230159      -305.5882
   9   1.0000     -11.229272      -305.5640
  10   1.0000     -11.225370      -305.4578
  11   1.0000     -11.221083      -305.3412
  12   1.0000      -9.198362      -250.3001
  13   1.0000      -6.884249      -187.3300
  14   1.0000      -6.883080      -187.2981
  15   1.0000      -6.882909      -187.2935
  16   1.0000      -1.516015       -41.2529
  17   1.0000      -1.393885       -37.9295
  18   1.0000      -1.361806       -37.0566
  19   1.0000      -1.271072       -34.5876
  20   1.0000      -1.087407       -29.5898
  21   1.0000      -1.071475       -29.1563
  22   1.0000      -0.957268       -26.0486
  23   1.0000      -0.955640       -26.0043
  24   1.0000      -0.954698       -25.9787
  25   1.0000      -0.870857       -23.6972
  26   1.0000      -0.827371       -22.5139
  27   1.0000      -0.774357       -21.0713
  28   1.0000      -0.733451       -19.9582
  29   1.0000      -0.701455       -19.0876
  30   1.0000      -0.690378       -18.7862
  31   1.0000      -0.668011       -18.1775
  32   1.0000      -0.647045       -17.6070
  33   1.0000      -0.637847       -17.3567
  34   1.0000      -0.615485       -16.7482
  35   1.0000      -0.608592       -16.5606
  36   1.0000      -0.600482       -16.3400
  37   1.0000      -0.587484       -15.9862
  38   1.0000      -0.574786       -15.6407
  39   1.0000      -0.560958       -15.2644
  40   1.0000      -0.547410       -14.8958
  41   1.0000      -0.533085       -14.5060
  42   1.0000      -0.529247       -14.4016
  43   1.0000      -0.525978       -14.3126
  44   1.0000      -0.521499       -14.1907
  45   1.0000      -0.511183       -13.9100
  46   1.0000      -0.509790       -13.8721
  47   1.0000      -0.500294       -13.6137
  48   1.0000      -0.493736       -13.4352
  49   1.0000      -0.487646       -13.2695
  50   1.0000      -0.482845       -13.1389
  51   1.0000      -0.454953       -12.3799
  52   1.0000      -0.448502       -12.2044
  53   0.0000       0.024816         0.6753
  54   0.0000       0.030309         0.8248
  55   0.0000       0.034513         0.9391
  56   0.0000       0.037424         1.0184
  57   0.0000       0.043106         1.1730

                 SPIN DOWN ORBITALS
  NO   OCC          E(Eh)            E(eV)
   0   1.0000     -92.238128     -2509.9271
   1   1.0000     -20.620543      -561.1135
   2   1.0000     -20.562071      -559.5224
   3   1.0000     -20.561261      -559.5003
   4   1.0000     -15.610466      -424.7824
   5   1.0000     -11.302727      -307.5628
   6   1.0000     -11.297148      -307.4110
   7   1.0000     -11.238124      -305.8049
   8   1.0000     -11.228849      -305.5525
   9   1.0000     -11.227961      -305.5284
  10   1.0000     -11.224650      -305.4383
  11   1.0000     -11.221084      -305.3412
  12   1.0000      -9.199226      -250.3237
  13   1.0000      -6.885044      -187.3516
  14   1.0000      -6.884543      -187.3379
  15   1.0000      -6.883692      -187.3148
  16   1.0000      -1.511980       -41.1431
  17   1.0000      -1.392374       -37.8884
  18   1.0000      -1.356792       -36.9202
  19   1.0000      -1.198557       -32.6144
  20   1.0000      -1.082363       -29.4526
  21   1.0000      -1.049744       -28.5650
  22   1.0000      -0.955120       -25.9901
  23   1.0000      -0.953280       -25.9401
  24   1.0000      -0.948374       -25.8066
  25   1.0000      -0.863791       -23.5050
  26   1.0000      -0.825643       -22.4669
  27   1.0000      -0.770480       -20.9658
  28   1.0000      -0.727260       -19.7898
  29   1.0000      -0.691961       -18.8292
  30   1.0000      -0.678866       -18.4729
  31   1.0000      -0.658734       -17.9251
  32   1.0000      -0.631904       -17.1950
  33   1.0000      -0.618761       -16.8373
  34   1.0000      -0.613392       -16.6912
  35   1.0000      -0.607055       -16.5188
  36   1.0000      -0.590028       -16.0555
  37   1.0000      -0.578323       -15.7370
  38   1.0000      -0.559577       -15.2269
  39   1.0000      -0.558045       -15.1852
  40   1.0000      -0.540210       -14.6999
  41   1.0000      -0.529885       -14.4189
  42   1.0000      -0.524739       -14.2789
  43   1.0000      -0.513467       -13.9721
  44   1.0000      -0.504468       -13.7273
  45   1.0000      -0.503875       -13.7111
  46   1.0000      -0.497527       -13.5384
  47   1.0000      -0.492405       -13.3990
  48   1.0000      -0.488347       -13.2886
  49   1.0000      -0.485001       -13.1975
  50   1.0000      -0.478955       -13.0330
  51   1.0000      -0.430441       -11.7129
  52   0.0000       0.024867         0.6767
  53   0.0000       0.030324         0.8252
  54   0.0000       0.032712         0.8901
  55   0.0000       0.037437         1.0187
  56   0.0000       0.042725         1.1626

MULLIKEN ATOMIC CHARGES AND SPIN POPULATIONS
--------------------------------------------
   0 N :   -0.608324    1.145024
   1 S :    2.477191   -0.102657
   2 O :   -0.671968    0.001804
   3 C :   -0.250948    0.003195
   4 C :   -0.473701   -0.000450
   5 H :    0.332076   -0.000119
   6 H :    0.362632    0.000892
   7 C :   -0.954321    0.000419
   8 H :    0.208294   -0.000149
   9 H :    0.268920   -0.000008
  10 C :    1.613388   -0.258315
  11 C :   -1.087642    0.036432
  12 C :   -1.233953    0.095973
  13 C :   -1.364721    0.027144
  14 H :    0.252113   -0.003796
  15 H :    0.262111   -0.003100
  16 H :    0.260370   -0.005539
  17 H :    0.315327   -0.002290
  18 H :    0.229972   -0.002998
  19 H :    0.295712   -0.001951
  20 H :    0.346822    0.002186
  21 H :    0.287148    0.003021
  22 H :    0.258314    0.006789
  23 O :   -0.970052    0.016124
  24 O :   -1.033820    0.042121
  25 H :    0.247548    0.000099
  26 H :    0.321376    0.000202
  27 H :    0.310136   -0.000053
Sum of atomic charges         :    0.0000000

LOEWDIN ATOMIC CHARGES AND SPIN POPULATIONS
-------------------------------------------
   0 N :    0.316465    0.728294
   1 S :   -0.123919    0.072105
   2 O :    0.353935   -0.003364
   3 C :    0.001132   -0.001275
   4 C :    0.251160   -0.000157
   5 H :   -0.166615   -0.000279
   6 H :   -0.174979   -0.001248
   7 C :    0.577795   -0.000110
   8 H :   -0.147135   -0.000044
   9 H :   -0.146707   -0.000024
  10 C :   -0.593321    0.093257
  11 C :    0.562657    0.006818
  12 C :    0.578231    0.034023
  13 C :    0.566974    0.002961
  14 H :   -0.157889    0.001069
  15 H :   -0.157632   -0.000102
  16 H :   -0.163164   -0.001001
  17 H :   -0.186025    0.000153
  18 H :   -0.155612    0.001097
  19 H :   -0.166672    0.000387
  20 H :   -0.190250    0.001247
  21 H :   -0.159321    0.003393
  22 H :   -0.155307    0.008189
  23 O :    0.079274    0.013333
  24 O :    0.071775    0.041337
  25 H :   -0.168619   -0.000012
  26 H :   -0.175911   -0.000039
  27 H :   -0.170321   -0.000008

  Mayer bond orders larger than 0.100000
B(  0-N ,  1-S ) :   0.8817 B(  0-N , 10-C ) :   0.2755 B(  0-N , 12-C ) :   0.1552
B(  0-N , 24-O ) :   0.1415 B(  1-S ,  2-O ) :   0.7569 B(  1-S , 23-O ) :   1.1935
B(  1-S , 24-O ) :   1.0607 B(  2-O ,  3-C ) :   0.7295 B(  3-C ,  4-C ) :   0.8886
B(  3-C ,  5-H ) :   0.8703 B(  3-C ,  6-H ) :   0.8576 B(  4-C ,  7-C ) :   0.8880
B(  4-C ,  8-H ) :   0.9932 B(  4-C ,  9-H ) :   0.9561 B(  7-C , 25-H ) :   0.9759
B(  7-C , 26-H ) :   0.9121 B(  7-C , 27-H ) :   0.9471 B( 10-C , 11-C ) :   0.5103
B( 10-C , 12-C ) :   0.5177 B( 10-C , 13-C ) :   0.2626 B( 11-C , 12-C ) :   0.1255
B( 11-C , 17-H ) :   0.9404 B( 11-C , 18-H ) :   1.0475 B( 11-C , 19-H ) :   0.9916
B( 12-C , 20-H ) :   0.9519 B( 12-C , 21-H ) :   0.9909 B( 12-C , 22-H ) :   1.0042
B( 13-C , 14-H ) :   1.0680 B( 13-C , 15-H ) :   1.0346 B( 13-C , 16-H ) :   1.0608

MP2 TOTAL ENERGY:     -953.443846219 Eh
FINAL SINGLE POINT ENERGY      -953.443846218852

DIPOLE MOMENT
-------------
                                X             Y             Z
Electronic contribution:     -1.43322     -11.61688       1.25775
Nuclear contribution   :      1.40864      13.03893      -1.81947
                        -----------------------------------------
Total Dipole Moment    :     -0.02458       1.42205      -0.56172
                        -----------------------------------------
Magnitude (a.u.)       :      1.52917
Magnitude (Debye)      :      3.88683

Rotational constants in cm-1:     0.043842     0.016790     0.014972
Rotational constants in MHz :  1314.347405   503.341953   448.848558

                             ****ORCA TERMINATED NORMALLY****
TOTAL RUN TIME: 0 days 0 hours 26 minutes 18 seconds 235 msec
