                         Program Version 4.2.1 -  RELEASE  -
|  1> %pal
|  2>  nprocs 32
|  3> end
|  4> !RI-MP2 aug-cc-pVTZ aug-cc-pVTZ/C TightSCF
|  5> %maxcore 4500
|  6> *xyzfile -1 1  08_9P2.xyz
|  7>
|  8>
|  9>                          ****END OF INPUT****

CARTESIAN COORDINATES (ANGSTROEM)
---------------------------------
  N      1.283805    1.359301    0.000030
  C      2.321375    0.512166   -0.000055
  N      2.061946   -0.810273   -0.000125
  C      0.707162   -0.842294   -0.000075
  C      0.231847    0.486162    0.000020
  C     -1.141188    0.674983    0.000082
  N     -0.129555   -1.904978   -0.000105
  C     -1.405441   -1.578906   -0.000037
  N     -1.967889   -0.349678    0.000054
  H      3.341918    0.878817   -0.000073
  H     -2.115261   -2.402535   -0.000060
  O     -1.667423    1.928046    0.000173
  H     -0.907943    2.526082    0.000178

 Total Charge           Charge          ....   -1
 Multiplicity           Mult            ....    1
 Number of Electrons    NEL             ....   70
 Basis Dimension        Dim             ....  529

ORBITAL ENERGIES
----------------

  NO   OCC          E(Eh)            E(eV)
   0   2.0000     -20.461716      -556.7916
   1   2.0000     -15.403712      -419.1563
   2   2.0000     -15.401739      -419.1026
   3   2.0000     -15.383479      -418.6057
   4   2.0000     -15.372863      -418.3169
   5   2.0000     -11.193336      -304.5861
   6   2.0000     -11.152899      -303.4858
   7   2.0000     -11.127521      -302.7953
   8   2.0000     -11.125102      -302.7294
   9   2.0000     -11.081108      -301.5323
  10   2.0000      -1.285014       -34.9670
  11   2.0000      -1.167580       -31.7715
  12   2.0000      -1.120250       -30.4835
  13   2.0000      -1.030625       -28.0447
  14   2.0000      -0.964690       -26.2505
  15   2.0000      -0.863507       -23.4972
  16   2.0000      -0.732614       -19.9354
  17   2.0000      -0.702432       -19.1141
  18   2.0000      -0.644439       -17.5361
  19   2.0000      -0.586941       -15.9715
  20   2.0000      -0.563516       -15.3341
  21   2.0000      -0.500823       -13.6281
  22   2.0000      -0.481621       -13.1056
  23   2.0000      -0.469360       -12.7719
  24   2.0000      -0.450429       -12.2568
  25   2.0000      -0.417374       -11.3573
  26   2.0000      -0.408673       -11.1205
  27   2.0000      -0.358568        -9.7571
  28   2.0000      -0.347053        -9.4438
  29   2.0000      -0.297522        -8.0960
  30   2.0000      -0.269000        -7.3198
  31   2.0000      -0.264720        -7.2034
  32   2.0000      -0.246267        -6.7013
  33   2.0000      -0.183082        -4.9819
  34   2.0000      -0.146216        -3.9787
  35   0.0000       0.114513         3.1161
  36   0.0000       0.119953         3.2641
  37   0.0000       0.126392         3.4393
  38   0.0000       0.167678         4.5628
  39   0.0000       0.171802         4.6750

MULLIKEN ATOMIC CHARGES
-----------------------
   0 N :   -0.875085
   1 C :   -0.865749
   2 N :   -0.543347
   3 C :    0.425201
   4 C :    1.317140
   5 C :    0.166206
   6 N :   -0.410391
   7 C :   -0.707384
   8 N :   -0.384833
   9 H :    0.624985
  10 H :    0.587747
  11 O :   -0.539905
  12 H :    0.205415
Sum of atomic charges:   -1.0000000

LOEWDIN ATOMIC CHARGES
----------------------
   0 N :    0.318184
   1 C :   -0.281619
   2 N :    0.326830
   3 C :   -0.608441
   4 C :   -0.426905
   5 C :   -0.603333
   6 N :    0.346266
   7 C :   -0.249373
   8 N :    0.334877
   9 H :   -0.229212
  10 H :   -0.234635
  11 O :    0.824848
  12 H :   -0.517488

  Mayer bond orders larger than 0.100000
B(  0-N ,  1-C ) :   1.7721 B(  0-N ,  4-C ) :   0.2387 B(  1-C ,  2-N ) :   1.3749
B(  1-C ,  3-C ) :  -0.4121 B(  1-C ,  4-C ) :  -0.3600 B(  1-C ,  9-H ) :   0.5417
B(  2-N ,  3-C ) :   0.4183 B(  2-N ,  4-C ) :   0.1504 B(  2-N ,  6-N ) :  -0.1939
B(  3-C ,  4-C ) :   0.9998 B(  3-C ,  5-C ) :   0.9062 B(  3-C ,  6-N ) :   0.6205
B(  3-C ,  7-C ) :  -0.3169 B(  4-C ,  5-C ) :   0.1429 B(  5-C ,  7-C ) :  -0.2610
B(  5-C ,  8-N ) :   0.7603 B(  5-C , 11-O ) :   0.6199 B(  5-C , 12-H ) :   0.1435
B(  6-N ,  7-C ) :   1.5262 B(  7-C ,  8-N ) :   1.3473 B(  7-C , 10-H ) :   0.5586
B( 11-O , 12-H ) :   0.9386

MP2 TOTAL ENERGY:     -485.810460461 Eh
FINAL SINGLE POINT ENERGY      -485.810460460697

DIPOLE MOMENT
-------------
                                X             Y             Z
Electronic contribution:     -0.75069      -0.21767       0.00002
Nuclear contribution   :      0.28751       0.98097       0.00004
                        -----------------------------------------
Total Dipole Moment    :     -0.46317       0.76329       0.00006
                        -----------------------------------------
Magnitude (a.u.)       :      0.89283
Magnitude (Debye)      :      2.26940

Rotational constants in cm-1:     0.080382     0.054509     0.032482
Rotational constants in MHz :  2409.783040  1634.146941   973.790249

                             ****ORCA TERMINATED NORMALLY****
TOTAL RUN TIME: 0 days 0 hours 2 minutes 34 seconds 147 msec
