                         Program Version 4.2.1 -  RELEASE  -
|  1> %pal
|  2>  nprocs 32
|  3> end
|  4> !RI-MP2 aug-cc-pVTZ aug-cc-pVTZ/C TightSCF
|  5> %maxcore 4500
|  6> *xyzfile 0 1  08_3R1.xyz
|  7>
|  8>
|  9>                          ****END OF INPUT****

CARTESIAN COORDINATES (ANGSTROEM)
---------------------------------
  C      0.111367   -1.023429   -0.170823
  N     -1.263280   -1.306103   -0.034565
  C     -2.212635   -0.347211    0.077306
  N     -1.940043    0.921840    0.057387
  C     -0.627115    1.270535   -0.066947
  C      0.416195    0.361780   -0.200263
  N      1.739834    0.865967   -0.337389
  C      2.773676    0.339572    0.538718
  O      3.368978   -0.849827    0.093496
  O      0.883921   -1.979538   -0.230601
  N     -3.500985   -0.755853    0.255343
  H     -3.781251   -1.667528   -0.066067
  H     -4.189902   -0.024171    0.184967
  H     -1.486446   -2.288458    0.048533
  N     -0.380013    2.594836   -0.085853
  H     -1.125458    3.228842    0.142078
  H      0.584434    2.886361   -0.064514
  H      2.649721   -1.493803   -0.036891
  H      3.582344    1.069232    0.603865
  H      2.322105    0.225195    1.531509
  H      2.063747    0.846957   -1.299050

 Total Charge           Charge          ....    0
 Multiplicity           Mult            ....    1
 Number of Electrons    NEL             ....   90
 Basis Dimension        Dim             ....  759

ORBITAL ENERGIES
----------------

  NO   OCC          E(Eh)            E(eV)
   0   2.0000     -20.517923      -558.3211
   1   2.0000     -20.515965      -558.2678
   2   2.0000     -15.629765      -425.3075
   3   2.0000     -15.614746      -424.8988
   4   2.0000     -15.581928      -424.0058
   5   2.0000     -15.558479      -423.3677
   6   2.0000     -15.546845      -423.0512
   7   2.0000     -11.397869      -310.1518
   8   2.0000     -11.357470      -309.0525
   9   2.0000     -11.339770      -308.5708
  10   2.0000     -11.283481      -307.0391
  11   2.0000     -11.236782      -305.7684
  12   2.0000      -1.399040       -38.0698
  13   2.0000      -1.351913       -36.7874
  14   2.0000      -1.334404       -36.3110
  15   2.0000      -1.276000       -34.7217
  16   2.0000      -1.227609       -33.4049
  17   2.0000      -1.194607       -32.5069
  18   2.0000      -1.179005       -32.0823
  19   2.0000      -1.016422       -27.6583
  20   2.0000      -0.906778       -24.6747
  21   2.0000      -0.885651       -24.0998
  22   2.0000      -0.857587       -23.3361
  23   2.0000      -0.795780       -21.6543
  24   2.0000      -0.761231       -20.7141
  25   2.0000      -0.739191       -20.1144
  26   2.0000      -0.713292       -19.4097
  27   2.0000      -0.690784       -18.7972
  28   2.0000      -0.672194       -18.2913
  29   2.0000      -0.662880       -18.0379
  30   2.0000      -0.651048       -17.7159
  31   2.0000      -0.628415       -17.1000
  32   2.0000      -0.608883       -16.5685
  33   2.0000      -0.591003       -16.0820
  34   2.0000      -0.584542       -15.9062
  35   2.0000      -0.552502       -15.0343
  36   2.0000      -0.534663       -14.5489
  37   2.0000      -0.496904       -13.5214
  38   2.0000      -0.463880       -12.6228
  39   2.0000      -0.451711       -12.2917
  40   2.0000      -0.445049       -12.1104
  41   2.0000      -0.433043       -11.7837
  42   2.0000      -0.399993       -10.8844
  43   2.0000      -0.386988       -10.5305
  44   2.0000      -0.312318        -8.4986
  45   0.0000       0.013666         0.3719
  46   0.0000       0.027066         0.7365
  47   0.0000       0.034883         0.9492
  48   0.0000       0.044720         1.2169
  49   0.0000       0.047904         1.3035

MULLIKEN ATOMIC CHARGES
-----------------------
   0 C :   -0.011675
   1 N :    0.191232
   2 C :    0.111478
   3 N :   -0.385334
   4 C :    0.457469
   5 C :    1.540998
   6 N :   -0.604126
   7 C :   -0.187317
   8 O :   -0.740415
   9 O :   -0.929215
  10 N :   -0.559431
  11 H :    0.118073
  12 H :    0.134904
  13 H :    0.129707
  14 N :   -0.571205
  15 H :    0.083969
  16 H :    0.143014
  17 H :    0.291472
  18 H :    0.410407
  19 H :    0.350141
  20 H :    0.025856
Sum of atomic charges:    0.0000000

LOEWDIN ATOMIC CHARGES
----------------------
   0 C :   -0.630350
   1 N :    0.582391
   2 C :   -0.521124
   3 N :    0.425516
   4 C :   -0.422353
   5 C :   -0.214417
   6 N :    0.528074
   7 C :   -0.086845
   8 O :    0.819686
   9 O :    0.506606
  10 N :    0.882332
  11 H :   -0.286681
  12 H :   -0.289831
  13 H :   -0.259715
  14 N :    0.874113
  15 H :   -0.287075
  16 H :   -0.311472
  17 H :   -0.692936
  18 H :   -0.170164
  19 H :   -0.156672
  20 H :   -0.289085

  Mayer bond orders larger than 0.100000
B(  0-C ,  1-N ) :   0.8718 B(  0-C ,  2-C ) :  -0.3868 B(  0-C ,  4-C ) :   0.7553
B(  0-C ,  5-C ) :   0.2543 B(  0-C ,  6-N ) :   0.1510 B(  0-C ,  9-O ) :   0.8044
B(  1-N ,  2-C ) :   0.8673 B(  1-N ,  4-C ) :   0.1842 B(  1-N ,  5-C ) :  -0.3329
B(  1-N ,  9-O ) :  -0.2538 B(  1-N , 10-N ) :  -0.1577 B(  1-N , 13-H ) :   1.0740
B(  2-C ,  3-N ) :   1.5280 B(  2-C ,  4-C ) :  -0.5105 B(  2-C , 10-N ) :   1.0997
B(  3-N ,  4-C ) :   0.2163 B(  3-N , 10-N ) :  -0.2723 B(  3-N , 14-N ) :  -0.2158
B(  4-C ,  5-C ) :   0.5974 B(  4-C ,  6-N ) :   0.3023 B(  4-C , 14-N ) :   0.8013
B(  4-C , 15-H ) :  -0.1220 B(  5-C ,  6-N ) :   0.2646 B(  5-C ,  9-O ) :   0.1418
B(  6-N ,  7-C ) :   0.9773 B(  6-N , 20-H ) :   1.0585 B(  7-C ,  8-O ) :   0.7057
B(  7-C , 18-H ) :   0.8928 B(  7-C , 19-H ) :   0.9147 B(  8-O , 17-H ) :   0.8250
B( 10-N , 11-H ) :   1.0877 B( 10-N , 12-H ) :   1.0537 B( 14-N , 15-H ) :   1.1630
B( 14-N , 16-H ) :   1.0741

MP2 TOTAL ENERGY:     -619.150901988 Eh
FINAL SINGLE POINT ENERGY      -619.150901987986

DIPOLE MOMENT
-------------
                                X             Y             Z
Electronic contribution:     -3.41581      -2.04484      -1.04596
Nuclear contribution   :      0.64680       2.71735       1.02844
                        -----------------------------------------
Total Dipole Moment    :     -2.76901       0.67251      -0.01753
                        -----------------------------------------
Magnitude (a.u.)       :      2.84956
Magnitude (Debye)      :      7.24301

Rotational constants in cm-1:     0.055687     0.023350     0.016866
Rotational constants in MHz :  1669.460834   700.013417   505.638938

                             ****ORCA TERMINATED NORMALLY****
TOTAL RUN TIME: 0 days 0 hours 7 minutes 15 seconds 151 msec
