                         Program Version 4.2.1 -  RELEASE  -
|  1> %pal
|  2>  nprocs 32
|  3> end
|  4> !RI-MP2 aug-cc-pVTZ aug-cc-pVTZ/C TightSCF
|  5> %maxcore 4500
|  6> *xyzfile 0 2  03_10TS.xyz
|  7>
|  8>
|  9>                          ****END OF INPUT****

CARTESIAN COORDINATES (ANGSTROEM)
---------------------------------
  C      1.489183   -0.473108   -0.107864
  C      2.954490   -0.879472    0.179472
  O      3.716804   -0.919781   -0.910766
  O      3.366511   -1.085501    1.284971
  C      1.346835    0.956527    0.327003
  F     -0.764595    1.164566   -0.368944
  S     -2.520196    1.025057   -0.651450
  C     -2.579821   -0.572821    0.179806
  H      0.862361   -1.098028    0.532875
  N      1.219593   -0.654688   -1.535463
  H      3.108097   -0.750825   -1.663642
  C      1.963591    2.033806   -0.492179
  C      1.101853    1.199011    1.769321
  F     -3.845886   -1.000160    0.151729
  F     -2.182571   -0.513484    1.452987
  F     -1.814309   -1.497328   -0.418616
  H      0.485258   -0.023570   -1.833998
  H      0.895152   -1.597708   -1.717884
  H      1.932303    1.823350   -1.560854
  H      1.470922    2.988630   -0.304256
  H      0.850349    2.243109    1.958226
  H      2.003807    0.952193    2.346541
  H      0.299307    0.563827    2.148293
  H      3.021378    2.157183   -0.215255

 Total Charge           Charge          ....    0
 Multiplicity           Mult            ....    2
 Number of Electrons    NEL             ....  121
 Basis Dimension        Dim             ....  878

ORBITAL ENERGIES
----------------
                 SPIN UP ORBITALS
  NO   OCC          E(Eh)            E(eV)
   0   1.0000     -92.106787     -2506.3531
   1   1.0000     -26.391754      -718.1561
   2   1.0000     -26.382275      -717.8982
   3   1.0000     -26.380944      -717.8620
   4   1.0000     -26.349246      -716.9994
   5   1.0000     -20.589562      -560.2705
   6   1.0000     -20.526490      -558.5542
   7   1.0000     -15.573102      -423.7656
   8   1.0000     -11.578516      -315.0674
   9   1.0000     -11.364854      -309.2534
  10   1.0000     -11.278578      -306.9057
  11   1.0000     -11.240017      -305.8564
  12   1.0000     -11.220100      -305.3144
  13   1.0000     -11.210915      -305.0645
  14   1.0000      -9.099816      -247.6186
  15   1.0000      -6.783169      -184.5794
  16   1.0000      -6.778431      -184.4505
  17   1.0000      -6.776706      -184.4035
  18   1.0000      -1.777410       -48.3658
  19   1.0000      -1.684879       -45.8479
  20   1.0000      -1.675953       -45.6050
  21   1.0000      -1.604995       -43.6741
  22   1.0000      -1.448529       -39.4165
  23   1.0000      -1.351804       -36.7845
  24   1.0000      -1.220254       -33.2048
  25   1.0000      -1.107401       -30.1339
  26   1.0000      -1.091440       -29.6996
  27   1.0000      -0.969408       -26.3789
  28   1.0000      -0.956719       -26.0336
  29   1.0000      -0.941039       -25.6070
  30   1.0000      -0.871007       -23.7013
  31   1.0000      -0.867830       -23.6149
  32   1.0000      -0.830194       -22.5907
  33   1.0000      -0.810965       -22.0675
  34   1.0000      -0.783117       -21.3097
  35   1.0000      -0.756717       -20.5913
  36   1.0000      -0.752769       -20.4839
  37   1.0000      -0.720701       -19.6113
  38   1.0000      -0.715158       -19.4604
  39   1.0000      -0.706759       -19.2319
  40   1.0000      -0.703493       -19.1430
  41   1.0000      -0.695275       -18.9194
  42   1.0000      -0.691534       -18.8176
  43   1.0000      -0.684986       -18.6394
  44   1.0000      -0.672059       -18.2877
  45   1.0000      -0.662384       -18.0244
  46   1.0000      -0.626138       -17.0381
  47   1.0000      -0.615443       -16.7471
  48   1.0000      -0.594654       -16.1814
  49   1.0000      -0.586501       -15.9595
  50   1.0000      -0.567426       -15.4404
  51   1.0000      -0.563138       -15.3238
  52   1.0000      -0.543663       -14.7938
  53   1.0000      -0.537694       -14.6314
  54   1.0000      -0.505523       -13.7560
  55   1.0000      -0.499590       -13.5945
  56   1.0000      -0.462154       -12.5758
  57   1.0000      -0.459680       -12.5085
  58   1.0000      -0.456135       -12.4121
  59   1.0000      -0.419146       -11.4055
  60   1.0000      -0.307842        -8.3768
  61   0.0000       0.005864         0.1596
  62   0.0000       0.023617         0.6427
  63   0.0000       0.032365         0.8807
  64   0.0000       0.038147         1.0380
  65   0.0000       0.043024         1.1708

                 SPIN DOWN ORBITALS
  NO   OCC          E(Eh)            E(eV)
   0   1.0000     -92.105296     -2506.3125
   1   1.0000     -26.391526      -718.1499
   2   1.0000     -26.382256      -717.8977
   3   1.0000     -26.380904      -717.8609
   4   1.0000     -26.354578      -717.1445
   5   1.0000     -20.589372      -560.2653
   6   1.0000     -20.525819      -558.5359
   7   1.0000     -15.572281      -423.7433
   8   1.0000     -11.578483      -315.0665
   9   1.0000     -11.363111      -309.2060
  10   1.0000     -11.281554      -306.9867
  11   1.0000     -11.223033      -305.3943
  12   1.0000     -11.215030      -305.1765
  13   1.0000     -11.213756      -305.1418
  14   1.0000      -9.098321      -247.5779
  15   1.0000      -6.778337      -184.4479
  16   1.0000      -6.776033      -184.3852
  17   1.0000      -6.775035      -184.3581
  18   1.0000      -1.777118       -48.3578
  19   1.0000      -1.684431       -45.8357
  20   1.0000      -1.675866       -45.6026
  21   1.0000      -1.621857       -44.1330
  22   1.0000      -1.447189       -39.3800
  23   1.0000      -1.350345       -36.7448
  24   1.0000      -1.215315       -33.0704
  25   1.0000      -1.098631       -29.8953
  26   1.0000      -1.056512       -28.7492
  27   1.0000      -0.966872       -26.3099
  28   1.0000      -0.954855       -25.9829
  29   1.0000      -0.940121       -25.5820
  30   1.0000      -0.870454       -23.6863
  31   1.0000      -0.867658       -23.6102
  32   1.0000      -0.831088       -22.6150
  33   1.0000      -0.804890       -21.9022
  34   1.0000      -0.761038       -20.7089
  35   1.0000      -0.755718       -20.5641
  36   1.0000      -0.751954       -20.4617
  37   1.0000      -0.719834       -19.5877
  38   1.0000      -0.715610       -19.4727
  39   1.0000      -0.703825       -19.1521
  40   1.0000      -0.699646       -19.0383
  41   1.0000      -0.698051       -18.9949
  42   1.0000      -0.691120       -18.8063
  43   1.0000      -0.685440       -18.6518
  44   1.0000      -0.676483       -18.4080
  45   1.0000      -0.661022       -17.9873
  46   1.0000      -0.621874       -16.9221
  47   1.0000      -0.612172       -16.6581
  48   1.0000      -0.589104       -16.0303
  49   1.0000      -0.571853       -15.5609
  50   1.0000      -0.564136       -15.3509
  51   1.0000      -0.554585       -15.0910
  52   1.0000      -0.540443       -14.7062
  53   1.0000      -0.529164       -14.3993
  54   1.0000      -0.498620       -13.5681
  55   1.0000      -0.494395       -13.4532
  56   1.0000      -0.459553       -12.5051
  57   1.0000      -0.457988       -12.4625
  58   1.0000      -0.449795       -12.2396
  59   1.0000      -0.413025       -11.2390
  60   0.0000       0.002817         0.0767
  61   0.0000       0.023599         0.6422
  62   0.0000       0.032204         0.8763
  63   0.0000       0.038308         1.0424
  64   0.0000       0.043747         1.1904

MULLIKEN ATOMIC CHARGES AND SPIN POPULATIONS
--------------------------------------------
   0 C :    0.739147   -0.202930
   1 C :    0.667980    0.052671
   2 O :   -0.629778    0.005274
   3 O :   -0.921166    0.015909
   4 C :    1.139774    1.253794
   5 F :   -0.435871   -0.162114
   6 S :    0.194202    0.180975
   7 C :    1.273488   -0.002592
   8 H :    0.376819    0.014720
   9 N :   -0.650737    0.029483
  10 H :    0.268377   -0.001239
  11 C :   -1.222088   -0.193857
  12 C :   -1.353693   -0.195070
  13 F :   -0.356901    0.001085
  14 F :   -0.392940    0.000555
  15 F :   -0.405897    0.000007
  16 H :    0.135520    0.009507
  17 H :    0.004277   -0.002709
  18 H :    0.277789    0.004689
  19 H :    0.206025    0.019258
  20 H :    0.245125    0.011932
  21 H :    0.248434    0.067307
  22 H :    0.334710    0.015372
  23 H :    0.257403    0.077973
Sum of atomic charges         :    0.0000000

LOEWDIN ATOMIC CHARGES AND SPIN POPULATIONS
-------------------------------------------
   0 C :   -0.146835    0.078886
   1 C :   -0.792775    0.025943
   2 O :    0.849891    0.004855
   3 O :    0.447161    0.013458
   4 C :   -0.205030    0.514514
   5 F :    0.024926   -0.058906
   6 S :    0.879542    0.110261
   7 C :   -1.968864    0.022767
   8 H :   -0.153637    0.004622
   9 N :    0.857851    0.008734
  10 H :   -0.585163    0.000282
  11 C :    0.558004    0.097355
  12 C :    0.552883    0.093277
  13 F :    0.443666    0.004494
  14 F :    0.452617    0.000953
  15 F :    0.442486    0.000638
  16 H :   -0.353089    0.003672
  17 H :   -0.282107    0.000642
  18 H :   -0.182582    0.003316
  19 H :   -0.171760    0.006907
  20 H :   -0.169834    0.002772
  21 H :   -0.165098    0.025251
  22 H :   -0.182587    0.007346
  23 H :   -0.149667    0.027964

  Mayer bond orders larger than 0.100000
B(  0-C ,  1-C ) :   0.5033 B(  0-C ,  4-C ) :   0.9711 B(  0-C ,  8-H ) :   0.9256
B(  0-C ,  9-N ) :   0.4367 B(  1-C ,  2-O ) :   0.7958 B(  1-C ,  3-O ) :   1.1896
B(  1-C ,  4-C ) :   0.3853 B(  1-C ,  8-H ) :  -0.1900 B(  1-C ,  9-N ) :   0.1078
B(  2-O , 10-H ) :   0.8333 B(  4-C ,  5-F ) :  -0.4543 B(  4-C , 11-C ) :   0.4560
B(  4-C , 12-C ) :   0.2847 B(  4-C , 19-H ) :  -0.1054 B(  5-F ,  6-S ) :   0.5180
B(  6-S ,  7-C ) :   1.0134 B(  6-S , 14-F ) :   0.1023 B(  7-C , 13-F ) :   0.7076
B(  7-C , 14-F ) :   0.8247 B(  7-C , 15-F ) :   0.8428 B(  9-N , 10-H ) :   0.1438
B(  9-N , 16-H ) :   0.9634 B(  9-N , 17-H ) :   1.0780 B( 11-C , 18-H ) :   1.0233
B( 11-C , 19-H ) :   1.1166 B( 11-C , 23-H ) :   1.0261 B( 12-C , 20-H ) :   1.0940
B( 12-C , 21-H ) :   1.0473 B( 12-C , 22-H ) :   0.9948

MP2 TOTAL ENERGY:    -1235.652637799 Eh
FINAL SINGLE POINT ENERGY     -1235.652637799292

DIPOLE MOMENT
-------------
                                X             Y             Z
Electronic contribution:    -25.23129      -7.87183      -0.24035
Nuclear contribution   :     22.73023       8.67276      -1.05827
                        -----------------------------------------
Total Dipole Moment    :     -2.50107       0.80093      -1.29862
                        -----------------------------------------
Magnitude (a.u.)       :      2.92972
Magnitude (Debye)      :      7.44675

Rotational constants in cm-1:     0.034601     0.010561     0.010025
Rotational constants in MHz :  1037.302089   316.614606   300.530139

                             ****ORCA TERMINATED NORMALLY****
TOTAL RUN TIME: 0 days 0 hours 25 minutes 25 seconds 419 msec
