                         Program Version 4.2.1 -  RELEASE  -
|  1> %pal
|  2>  nprocs 32
|  3> end
|  4> !RI-MP2 aug-cc-pVTZ aug-cc-pVTZ/C TightSCF
|  5> %maxcore 4500
|  6> *xyzfile 0 1  04_44R1.xyz
|  7>
|  8>
|  9>                          ****END OF INPUT****

CARTESIAN COORDINATES (ANGSTROEM)
---------------------------------
  H      3.153478   -0.791745    0.005133
  O      2.779314    0.092758    0.011178
  C      1.410888    0.018082    0.002974
  C      0.721104   -1.184328   -0.000765
  C     -0.667326   -1.196420   -0.007621
  C     -1.391841   -0.008344   -0.009053
  C     -0.684072    1.194288   -0.008131
  C      0.699717    1.209550   -0.000638
  H      1.244078    2.145339    0.001421
  H     -1.191364   -2.145709   -0.017558
  H      1.264480   -2.123930    0.001571
  H     -1.226611    2.133287   -0.018531
  N     -2.792035   -0.016661   -0.070956
  H     -3.228041   -0.853255    0.285518
  H     -3.237110    0.813614    0.289124

 Total Charge           Charge          ....    0
 Multiplicity           Mult            ....    1
 Number of Electrons    NEL             ....   58
 Basis Dimension        Dim             ....  529

ORBITAL ENERGIES
----------------

  NO   OCC          E(Eh)            E(eV)
   0   2.0000     -20.581052      -560.0389
   1   2.0000     -15.560857      -423.4325
   2   2.0000     -11.286379      -307.1180
   3   2.0000     -11.269222      -306.6511
   4   2.0000     -11.233617      -305.6823
   5   2.0000     -11.229814      -305.5788
   6   2.0000     -11.229467      -305.5693
   7   2.0000     -11.227817      -305.5244
   8   2.0000      -1.395521       -37.9741
   9   2.0000      -1.220741       -33.2180
  10   2.0000      -1.126859       -30.6634
  11   2.0000      -1.019612       -27.7451
  12   2.0000      -0.980907       -26.6918
  13   2.0000      -0.850959       -23.1558
  14   2.0000      -0.816014       -22.2049
  15   2.0000      -0.732998       -19.9459
  16   2.0000      -0.699730       -19.0406
  17   2.0000      -0.681766       -18.5518
  18   2.0000      -0.632212       -17.2034
  19   2.0000      -0.606553       -16.5052
  20   2.0000      -0.588033       -16.0012
  21   2.0000      -0.585071       -15.9206
  22   2.0000      -0.565635       -15.3917
  23   2.0000      -0.542287       -14.7564
  24   2.0000      -0.520337       -14.1591
  25   2.0000      -0.490359       -13.3433
  26   2.0000      -0.433571       -11.7981
  27   2.0000      -0.343329        -9.3425
  28   2.0000      -0.280877        -7.6431
  29   0.0000       0.026156         0.7117
  30   0.0000       0.029682         0.8077
  31   0.0000       0.035363         0.9623
  32   0.0000       0.047164         1.2834
  33   0.0000       0.050316         1.3692

MULLIKEN ATOMIC CHARGES
-----------------------
   0 H :    0.158203
   1 O :   -0.788748
   2 C :    0.994417
   3 C :   -0.678228
   4 C :   -0.821432
   5 C :    1.349909
   6 C :   -0.673460
   7 C :   -0.835425
   8 H :    0.567423
   9 H :    0.445789
  10 H :    0.464593
  11 H :    0.465705
  12 N :   -0.799740
  13 H :    0.082755
  14 H :    0.068239
Sum of atomic charges:   -0.0000000

LOEWDIN ATOMIC CHARGES
----------------------
   0 H :   -0.489158
   1 O :    0.829053
   2 C :   -0.389630
   3 C :    0.199341
   4 C :    0.205457
   5 C :   -0.256887
   6 C :    0.208109
   7 C :    0.201233
   8 H :   -0.178216
   9 H :   -0.179696
  10 H :   -0.181435
  11 H :   -0.178499
  12 N :    0.841168
  13 H :   -0.315322
  14 H :   -0.315518

  Mayer bond orders larger than 0.100000
B(  0-H ,  1-O ) :   1.0586 B(  1-O ,  2-C ) :   0.4813 B(  1-O ,  3-C ) :  -0.1264
B(  2-C ,  3-C ) :   1.1385 B(  2-C ,  5-C ) :   0.1869 B(  2-C ,  6-C ) :  -0.2363
B(  2-C ,  7-C ) :   0.9965 B(  3-C ,  4-C ) :   1.2714 B(  3-C ,  5-C ) :  -0.1668
B(  3-C ,  7-C ) :   0.3503 B(  3-C , 10-H ) :   0.6723 B(  4-C ,  5-C ) :   0.8863
B(  4-C ,  6-C ) :   0.2159 B(  4-C ,  9-H ) :   0.6990 B(  5-C ,  6-C ) :   0.9743
B(  5-C , 12-N ) :   0.4033 B(  6-C ,  7-C ) :   1.3712 B(  6-C , 11-H ) :   0.6750
B(  6-C , 12-N ) :  -0.1041 B(  7-C ,  8-H ) :   0.5157 B( 12-N , 13-H ) :   1.0872
B( 12-N , 14-H ) :   1.1130

MP2 TOTAL ENERGY:     -362.144668798 Eh
FINAL SINGLE POINT ENERGY      -362.144668797848

DIPOLE MOMENT
-------------
                                X             Y             Z
Electronic contribution:      2.73305       0.29869      -0.15060
Nuclear contribution   :     -3.18782      -0.81953       0.54544
                        -----------------------------------------
Total Dipole Moment    :     -0.45477      -0.52084       0.39483
                        -----------------------------------------
Magnitude (a.u.)       :      0.79623
Magnitude (Debye)      :      2.02386

Rotational constants in cm-1:     0.188273     0.049519     0.039249
Rotational constants in MHz :  5644.276373  1484.536162  1176.648660

                             ****ORCA TERMINATED NORMALLY****
TOTAL RUN TIME: 0 days 0 hours 2 minutes 25 seconds 85 msec
