                         Program Version 4.2.1 -  RELEASE  -
|  1> %pal
|  2>  nprocs 32
|  3> end
|  4> !RI-MP2 aug-cc-pVTZ aug-cc-pVTZ/C TightSCF
|  5> %maxcore 4500
|  6> *xyzfile 1 1  05_35P1.xyz
|  7>
|  8>
|  9>                          ****END OF INPUT****

CARTESIAN COORDINATES (ANGSTROEM)
---------------------------------
  C     -3.578187    0.259961   -0.000087
  O     -4.622383   -0.496826   -0.000176
  C     -5.944653    0.083893    0.000246
  H     -5.881962    1.172152   -0.002284
  H     -6.451179   -0.271408    0.894234
  C     -2.311344   -0.268736   -0.000063
  H     -2.202844   -1.345082   -0.000042
  C     -1.225053    0.593073   -0.000066
  H     -1.448395    1.657891   -0.000085
  H     -6.453230   -0.275373   -0.890966
  C      0.138873    0.258628   -0.000040
  C      1.093318    1.300430   -0.000029
  C      0.612292   -1.080699   -0.000022
  C      2.440956    1.045121    0.000002
  H      0.750061    2.328653   -0.000044
  C      1.946944   -1.347964    0.000006
  H     -0.087955   -1.905637   -0.000032
  C      2.882087   -0.288829    0.000019
  H      3.146116    1.862862    0.000011
  H      2.327227   -2.360683    0.000018
  O      4.149445   -0.653237    0.000047
  C      5.187017    0.332670    0.000055
  H      5.127068    0.950183    0.897577
  H      6.116805   -0.227340    0.000072
  H      5.127093    0.950170   -0.897478
  H     -3.738809    1.338823   -0.000078

 Total Charge           Charge          ....    1
 Multiplicity           Mult            ....    1
 Number of Electrons    NEL             ....   94
 Basis Dimension        Dim             ....  897

ORBITAL ENERGIES
----------------

  NO   OCC          E(Eh)            E(eV)
   0   2.0000     -20.773462      -565.2746
   1   2.0000     -20.725823      -563.9783
   2   2.0000     -11.508653      -313.1664
   3   2.0000     -11.464437      -311.9632
   4   2.0000     -11.449571      -311.5587
   5   2.0000     -11.430258      -311.0331
   6   2.0000     -11.401873      -310.2607
   7   2.0000     -11.397977      -310.1547
   8   2.0000     -11.393141      -310.0231
   9   2.0000     -11.382633      -309.7372
  10   2.0000     -11.381128      -309.6963
  11   2.0000     -11.365068      -309.2592
  12   2.0000     -11.362174      -309.1805
  13   2.0000      -1.609818       -43.8054
  14   2.0000      -1.560875       -42.4736
  15   2.0000      -1.314027       -35.7565
  16   2.0000      -1.260303       -34.2946
  17   2.0000      -1.187866       -32.3235
  18   2.0000      -1.172562       -31.9070
  19   2.0000      -1.126328       -30.6490
  20   2.0000      -1.086729       -29.5714
  21   2.0000      -1.027370       -27.9562
  22   2.0000      -0.986066       -26.8322
  23   2.0000      -0.971520       -26.4364
  24   2.0000      -0.929953       -25.3053
  25   2.0000      -0.873929       -23.7808
  26   2.0000      -0.855421       -23.2772
  27   2.0000      -0.850447       -23.1418
  28   2.0000      -0.813364       -22.1328
  29   2.0000      -0.803508       -21.8646
  30   2.0000      -0.798211       -21.7204
  31   2.0000      -0.783176       -21.3113
  32   2.0000      -0.761319       -20.7165
  33   2.0000      -0.738561       -20.0973
  34   2.0000      -0.735185       -20.0054
  35   2.0000      -0.708547       -19.2805
  36   2.0000      -0.700257       -19.0550
  37   2.0000      -0.682079       -18.5603
  38   2.0000      -0.681323       -18.5398
  39   2.0000      -0.670518       -18.2457
  40   2.0000      -0.665649       -18.1132
  41   2.0000      -0.650848       -17.7105
  42   2.0000      -0.624124       -16.9833
  43   2.0000      -0.613251       -16.6874
  44   2.0000      -0.551133       -14.9971
  45   2.0000      -0.491210       -13.3665
  46   2.0000      -0.441991       -12.0272
  47   0.0000      -0.121795        -3.3142
  48   0.0000      -0.069180        -1.8825
  49   0.0000      -0.054202        -1.4749
  50   0.0000      -0.052768        -1.4359
  51   0.0000      -0.041093        -1.1182

MULLIKEN ATOMIC CHARGES
-----------------------
   0 C :   -0.546044
   1 O :   -0.468769
   2 C :   -0.731203
   3 H :    0.396708
   4 H :    0.345117
   5 C :    0.341057
   6 H :    0.372138
   7 C :   -0.396193
   8 H :    0.061583
   9 H :    0.344818
  10 C :    2.365835
  11 C :   -0.966537
  12 C :   -0.505216
  13 C :   -0.549533
  14 H :   -0.079991
  15 C :   -0.938306
  16 H :   -0.275973
  17 C :    1.356735
  18 H :    0.413748
  19 H :    0.632191
  20 O :   -0.846092
  21 C :   -0.898995
  22 H :    0.383436
  23 H :    0.376623
  24 H :    0.383435
  25 H :    0.429430
Sum of atomic charges:    1.0000000

LOEWDIN ATOMIC CHARGES
----------------------
   0 C :    0.001356
   1 O :    0.613996
   2 C :    0.455311
   3 H :   -0.177545
   4 H :   -0.159893
   5 C :    0.250307
   6 H :   -0.184448
   7 C :    0.256194
   8 H :   -0.155591
   9 H :   -0.159923
  10 C :   -0.102828
  11 C :    0.242981
  12 C :    0.246647
  13 C :    0.260073
  14 H :   -0.152282
  15 C :    0.264624
  16 H :   -0.167487
  17 C :   -0.352678
  18 H :   -0.191544
  19 H :   -0.164380
  20 O :    0.611599
  21 C :    0.405219
  22 H :   -0.163688
  23 H :   -0.165807
  24 H :   -0.163688
  25 H :   -0.146527

  Mayer bond orders larger than 0.100000
B(  0-C ,  1-O ) :   1.4281 B(  0-C ,  5-C ) :  -0.1980 B(  0-C ,  6-H ) :  -0.1400
B(  0-C ,  7-C ) :  -0.2858 B(  0-C ,  8-H ) :  -0.1418 B(  0-C , 10-C ) :   0.3017
B(  0-C , 14-H ) :   0.1276 B(  0-C , 25-H ) :   0.9686 B(  1-O ,  2-C ) :   0.7609
B(  1-O ,  5-C ) :  -0.3820 B(  1-O ,  7-C ) :   0.1171 B(  2-C ,  3-H ) :   0.8329
B(  2-C ,  4-H ) :   0.8973 B(  2-C ,  9-H ) :   0.8977 B(  5-C ,  6-H ) :   1.2975
B(  5-C ,  7-C ) :   0.6560 B(  5-C , 10-C ) :  -0.1743 B(  5-C , 14-H ) :  -0.2268
B(  5-C , 15-C ) :  -0.2136 B(  5-C , 16-H ) :  -0.1721 B(  5-C , 17-C ) :   0.1313
B(  5-C , 25-H ) :  -0.2046 B(  6-H , 10-C ) :  -0.1143 B(  6-H , 12-C ) :  -0.1896
B(  7-C ,  8-H ) :   1.5498 B(  7-C , 10-C ) :   0.4099 B(  7-C , 11-C ) :   0.1777
B(  7-C , 12-C ) :   0.4798 B(  7-C , 14-H ) :  -0.3199 B(  7-C , 15-C ) :   0.1745
B(  7-C , 16-H ) :  -0.2963 B(  7-C , 18-H ) :   0.2879 B(  7-C , 19-H ) :   0.1566
B(  8-H , 25-H ) :  -0.1125 B( 10-C , 11-C ) :  -0.4575 B( 10-C , 13-C ) :   0.2127
B( 10-C , 14-H ) :  -0.5905 B( 10-C , 15-C ) :   0.2477 B( 10-C , 16-H ) :  -0.5819
B( 11-C , 12-C ) :  -0.7149 B( 11-C , 13-C ) :   1.1353 B( 11-C , 14-H ) :   2.1540
B( 11-C , 15-C ) :   0.1269 B( 11-C , 16-H ) :   0.2997 B( 11-C , 17-C ) :  -0.2032
B( 11-C , 18-H ) :  -0.1450 B( 12-C , 13-C ) :  -0.3942 B( 12-C , 14-H ) :   0.2665
B( 12-C , 15-C ) :   1.2354 B( 12-C , 16-H ) :   2.3251 B( 12-C , 17-C ) :  -0.2876
B( 13-C , 14-H ) :  -0.2440 B( 13-C , 15-C ) :   0.2837 B( 13-C , 17-C ) :   1.0682
B( 13-C , 18-H ) :   0.7389 B( 13-C , 19-H ) :  -0.1169 B( 13-C , 20-O ) :  -0.3120
B( 14-H , 16-H ) :   0.3124 B( 14-H , 19-H ) :  -0.1003 B( 14-H , 25-H ) :   0.1055
B( 15-C , 16-H ) :  -0.1956 B( 15-C , 17-C ) :   0.7438 B( 15-C , 19-H ) :   0.3003
B( 15-C , 20-O ) :   0.2068 B( 16-H , 17-C ) :  -0.1326 B( 16-H , 19-H ) :  -0.1119
B( 17-C , 18-H ) :   0.1546 B( 17-C , 19-H ) :   0.1808 B( 17-C , 20-O ) :   0.4531
B( 18-H , 21-C ) :  -0.1101 B( 20-O , 21-C ) :   0.9752 B( 21-C , 22-H ) :   0.8636
B( 21-C , 23-H ) :   0.9210 B( 21-C , 24-H ) :   0.8636

MP2 TOTAL ENERGY:     -576.038037015 Eh
FINAL SINGLE POINT ENERGY      -576.038037014728

DIPOLE MOMENT
-------------
                                X             Y             Z
Electronic contribution:      1.62473      -2.58091      -0.00073
Nuclear contribution   :     -3.70223       3.88307       0.00091
                        -----------------------------------------
Total Dipole Moment    :     -2.07750       1.30216       0.00017
                        -----------------------------------------
Magnitude (a.u.)       :      2.45186
Magnitude (Debye)      :      6.23214

Rotational constants in cm-1:     0.140041     0.008079     0.007661
Rotational constants in MHz :  4198.312536   242.198955   229.660965

                             ****ORCA TERMINATED NORMALLY****
TOTAL RUN TIME: 0 days 0 hours 11 minutes 24 seconds 531 msec
