                         Program Version 4.2.1 -  RELEASE  -
|  1> %pal
|  2>  nprocs 32
|  3> end
|  4> !RI-MP2 aug-cc-pVTZ aug-cc-pVTZ/C TightSCF
|  5> %maxcore 4500
|  6> *xyzfile 0 1  10_44TS.xyz
|  7>
|  8>
|  9>                          ****END OF INPUT****

CARTESIAN COORDINATES (ANGSTROEM)
---------------------------------
  C     -0.072733   -2.364039   -0.954229
  H     -0.144263   -3.451906   -0.965247
  H      0.226554   -2.050967   -1.963374
  C      1.009081   -1.910167    0.031016
  C     -0.347302    0.120673    0.461314
  H     -0.762434   -0.080606    1.454435
  H     -0.280802    1.202029    0.388628
  C     -1.349433   -0.371905   -0.603647
  H     -1.003818   -0.008859   -1.577953
  N     -1.392107   -1.826935   -0.695906
  C      2.185726    0.237434    0.245491
  C      2.043650   -2.787263    0.334780
  H      2.319651   -2.908822    1.365892
  H      2.103448   -3.715502   -0.232686
  C      3.427974   -0.342797   -0.044551
  H      4.059376    0.175341   -0.764657
  C      3.870553   -1.588655    0.384798
  C      1.010934   -0.541567    0.358621
  C      5.068774   -2.245401   -0.247191
  H      5.039548   -3.328531   -0.114759
  H      5.116129   -2.040069   -1.317885
  H      5.997790   -1.890054    0.210903
  H      3.775084   -1.769885    1.442754
  C     -2.721687    0.203873   -0.340338
  C     -2.069863   -2.436053    0.438444
  H     -1.630116   -2.137119    1.403391
  H     -1.955427   -3.518978    0.362402
  C     -3.542438   -2.064317    0.394164
  H     -4.017131   -2.609842   -0.427367
  C     -3.747990   -0.586593    0.174610
  H     -4.038457   -2.376371    1.317203
  C     -4.981287    0.000689    0.451942
  H     -5.778167   -0.615467    0.855411
  C     -2.953992    1.557236   -0.576369
  H     -2.159030    2.169022   -0.989089
  C     -5.204237    1.347130    0.220023
  H     -6.170175    1.784308    0.442659
  C     -4.183286    2.131605   -0.302392
  H     -4.346459    3.184751   -0.496762
  Si     2.137563    2.129861    0.083823
  C      3.891286    2.766226   -0.152913
  H      4.325008    2.451097   -1.104626
  H      3.884618    3.859726   -0.145819
  H      4.556313    2.431321    0.645855
  C      1.151369    2.707114   -1.414465
  H      0.089380    2.467697   -1.358780
  H      1.544870    2.245962   -2.323982
  H      1.240167    3.791086   -1.529072
  C      1.476569    2.910729    1.662438
  H      2.075500    2.592309    2.519422
  H      1.544205    4.000357    1.598375
  H      0.437490    2.654738    1.873283

 Total Charge           Charge          ....    0
 Multiplicity           Mult            ....    1
 Number of Electrons    NEL             ....  176
 Basis Dimension        Dim             .... 1729

ORBITAL ENERGIES
----------------

  NO   OCC          E(Eh)            E(eV)
   0   2.0000     -68.750704     -1870.8018
   1   2.0000     -15.543486      -422.9598
   2   2.0000     -11.257570      -306.3341
   3   2.0000     -11.249016      -306.1013
   4   2.0000     -11.245723      -306.0117
   5   2.0000     -11.244602      -305.9812
   6   2.0000     -11.234366      -305.7026
   7   2.0000     -11.232710      -305.6576
   8   2.0000     -11.230472      -305.5967
   9   2.0000     -11.230251      -305.5907
  10   2.0000     -11.227313      -305.5107
  11   2.0000     -11.226638      -305.4924
  12   2.0000     -11.225555      -305.4629
  13   2.0000     -11.224593      -305.4367
  14   2.0000     -11.224215      -305.4264
  15   2.0000     -11.222310      -305.3746
  16   2.0000     -11.221527      -305.3533
  17   2.0000     -11.219214      -305.2903
  18   2.0000     -11.217901      -305.2546
  19   2.0000     -11.213060      -305.1229
  20   2.0000     -11.193996      -304.6041
  21   2.0000     -11.191806      -304.5445
  22   2.0000     -11.190986      -304.5222
  23   2.0000      -6.097519      -165.9219
  24   2.0000      -4.203911      -114.3942
  25   2.0000      -4.203691      -114.3882
  26   2.0000      -4.203670      -114.3877
  27   2.0000      -1.249686       -34.0057
  28   2.0000      -1.154210       -31.4077
  29   2.0000      -1.123708       -30.5776
  30   2.0000      -1.069666       -29.1071
  31   2.0000      -1.057444       -28.7745
  32   2.0000      -1.046996       -28.4902
  33   2.0000      -1.011525       -27.5250
  34   2.0000      -0.993032       -27.0218
  35   2.0000      -0.971734       -26.4422
  36   2.0000      -0.958848       -26.0916
  37   2.0000      -0.927069       -25.2268
  38   2.0000      -0.920609       -25.0510
  39   2.0000      -0.917076       -24.9549
  40   2.0000      -0.883692       -24.0465
  41   2.0000      -0.859952       -23.4005
  42   2.0000      -0.832495       -22.6533
  43   2.0000      -0.820435       -22.3252
  44   2.0000      -0.810399       -22.0521
  45   2.0000      -0.774238       -21.0681
  46   2.0000      -0.732506       -19.9325
  47   2.0000      -0.692950       -18.8561
  48   2.0000      -0.672892       -18.3103
  49   2.0000      -0.658407       -17.9162
  50   2.0000      -0.656814       -17.8728
  51   2.0000      -0.646466       -17.5912
  52   2.0000      -0.630028       -17.1439
  53   2.0000      -0.623220       -16.9587
  54   2.0000      -0.611149       -16.6302
  55   2.0000      -0.594660       -16.1815
  56   2.0000      -0.591897       -16.1063
  57   2.0000      -0.587961       -15.9992
  58   2.0000      -0.579959       -15.7815
  59   2.0000      -0.574142       -15.6232
  60   2.0000      -0.566524       -15.4159
  61   2.0000      -0.563401       -15.3309
  62   2.0000      -0.559259       -15.2182
  63   2.0000      -0.556706       -15.1487
  64   2.0000      -0.550114       -14.9694
  65   2.0000      -0.543447       -14.7879
  66   2.0000      -0.538736       -14.6597
  67   2.0000      -0.537481       -14.6256
  68   2.0000      -0.531148       -14.4533
  69   2.0000      -0.529980       -14.4215
  70   2.0000      -0.526056       -14.3147
  71   2.0000      -0.520764       -14.1707
  72   2.0000      -0.511195       -13.9103
  73   2.0000      -0.497239       -13.5306
  74   2.0000      -0.492731       -13.4079
  75   2.0000      -0.486210       -13.2304
  76   2.0000      -0.474279       -12.9058
  77   2.0000      -0.460805       -12.5392
  78   2.0000      -0.456531       -12.4228
  79   2.0000      -0.440528       -11.9874
  80   2.0000      -0.423974       -11.5369
  81   2.0000      -0.422147       -11.4872
  82   2.0000      -0.411823       -11.2063
  83   2.0000      -0.360349        -9.8056
  84   2.0000      -0.327770        -8.9191
  85   2.0000      -0.319319        -8.6891
  86   2.0000      -0.299436        -8.1481
  87   2.0000      -0.274196        -7.4613
  88   0.0000       0.022733         0.6186
  89   0.0000       0.027689         0.7535
  90   0.0000       0.028071         0.7638
  91   0.0000       0.031398         0.8544
  92   0.0000       0.035501         0.9660

MULLIKEN ATOMIC CHARGES
-----------------------
   0 C :   -0.880340
   1 H :    0.150796
   2 H :    0.293532
   3 C :    1.354903
   4 C :   -0.773705
   5 H :    0.165297
   6 H :   -0.541254
   7 C :    0.344470
   8 H :    0.268440
   9 N :   -0.824563
  10 C :    0.802603
  11 C :   -1.316629
  12 H :    0.288107
  13 H :    0.424968
  14 C :   -0.771130
  15 H :   -0.085095
  16 C :   -0.031189
  17 C :    0.041572
  18 C :   -0.916417
  19 H :    0.282420
  20 H :    0.280377
  21 H :    0.273086
  22 H :    0.334744
  23 C :    1.051779
  24 C :   -0.439086
  25 H :    0.273954
  26 H :    0.364323
  27 C :   -0.682806
  28 H :    0.162137
  29 C :    1.378720
  30 H :    0.203322
  31 C :   -1.016188
  32 H :    0.005183
  33 C :   -1.253884
  34 H :    0.607395
  35 C :   -0.428168
  36 H :    0.669191
  37 C :   -0.852653
  38 H :    0.405205
  39 Si:    3.201904
  40 C :   -1.932039
  41 H :    0.223211
  42 H :   -0.007272
  43 H :    0.220603
  44 C :   -1.407741
  45 H :    0.384528
  46 H :    0.247023
  47 H :    0.152829
  48 C :   -1.514572
  49 H :    0.240824
  50 H :    0.202732
  51 H :    0.374558
Sum of atomic charges:   -0.0000000

LOEWDIN ATOMIC CHARGES
----------------------
   0 C :    0.185445
   1 H :   -0.155611
   2 H :   -0.124778
   3 C :   -0.079999
   4 C :    0.300135
   5 H :   -0.129203
   6 H :   -0.234879
   7 C :   -0.094783
   8 H :   -0.119758
   9 N :    0.321861
  10 C :   -0.033290
  11 C :    0.506228
  12 H :   -0.224793
  13 H :   -0.169878
  14 C :    0.132098
  15 H :   -0.203285
  16 C :    0.158116
  17 C :   -0.077762
  18 C :    0.580578
  19 H :   -0.173855
  20 H :   -0.171859
  21 H :   -0.165467
  22 H :   -0.199175
  23 C :   -0.047634
  24 C :    0.179081
  25 H :   -0.130870
  26 H :   -0.135359
  27 C :    0.307803
  28 H :   -0.132895
  29 C :   -0.061482
  30 H :   -0.141973
  31 C :    0.222633
  32 H :   -0.172380
  33 C :    0.229945
  34 H :   -0.184719
  35 C :    0.198652
  36 H :   -0.183616
  37 C :    0.206081
  38 H :   -0.182836
  39 Si:    0.493419
  40 C :    0.574635
  41 H :   -0.229770
  42 H :   -0.225253
  43 H :   -0.221869
  44 C :    0.603028
  45 H :   -0.262158
  46 H :   -0.218151
  47 H :   -0.220892
  48 C :    0.594956
  49 H :   -0.222162
  50 H :   -0.225371
  51 H :   -0.236929

  Mayer bond orders larger than 0.100000
B(  0-C ,  1-H ) :   1.1871 B(  0-C ,  2-H ) :   0.9958 B(  0-C ,  3-C ) :   0.4167
B(  0-C ,  9-N ) :   1.2503 B(  3-C ,  7-C ) :   0.1760 B(  3-C , 10-C ) :   0.2465
B(  3-C , 11-C ) :   0.3767 B(  3-C , 12-H ) :  -0.2388 B(  3-C , 14-C ) :   0.6009
B(  3-C , 16-C ) :  -0.1476 B(  3-C , 17-C ) :   1.2370 B(  3-C , 22-H ) :  -0.1596
B(  3-C , 39-Si) :  -0.1062 B(  4-C ,  5-H ) :   0.9864 B(  4-C ,  6-H ) :   1.3804
B(  4-C ,  7-C ) :   0.8656 B(  4-C , 10-C ) :   0.1405 B(  4-C , 17-C ) :   0.9865
B(  4-C , 23-C ) :   0.2812 B(  4-C , 39-Si) :   0.1265 B(  4-C , 48-C ) :  -0.1837
B(  5-H ,  6-H ) :  -0.1118 B(  5-H , 10-C ) :   0.1124 B(  5-H , 17-C ) :  -0.1557
B(  6-H , 10-C ) :  -0.2710 B(  6-H , 17-C ) :   0.1115 B(  6-H , 29-C ) :  -0.1195
B(  6-H , 33-C ) :  -0.1641 B(  6-H , 45-H ) :  -0.1023 B(  6-H , 48-C ) :   0.2072
B(  7-C ,  8-H ) :   0.9870 B(  7-C ,  9-N ) :   0.2692 B(  7-C , 23-C ) :   0.5696
B(  7-C , 27-C ) :  -0.1249 B(  7-C , 29-C ) :   0.1033 B(  7-C , 33-C ) :   0.7674
B(  7-C , 34-H ) :  -0.1037 B(  7-C , 37-C ) :   0.2140 B(  8-H ,  9-N ) :  -0.2290
B(  8-H , 23-C ) :  -0.2808 B(  9-N , 17-C ) :  -0.2282 B(  9-N , 23-C ) :   0.2766
B(  9-N , 24-C ) :   0.7621 B(  9-N , 29-C ) :  -0.2222 B( 10-C , 11-C ) :   0.2856
B( 10-C , 12-H ) :   0.2149 B( 10-C , 14-C ) :   0.1621 B( 10-C , 15-H ) :  -0.4096
B( 10-C , 17-C ) :   1.4531 B( 10-C , 39-Si) :   1.1141 B( 10-C , 40-C ) :  -0.4335
B( 10-C , 44-C ) :   0.2798 B( 10-C , 48-C ) :   0.3037 B( 11-C , 12-H ) :   1.0543
B( 11-C , 13-H ) :   0.8249 B( 11-C , 16-C ) :   0.5275 B( 11-C , 17-C ) :   0.1259
B( 11-C , 22-H ) :   0.2865 B( 13-H , 17-C ) :  -0.1081 B( 14-C , 15-H ) :   1.4285
B( 14-C , 16-C ) :   1.1378 B( 14-C , 17-C ) :   0.1510 B( 14-C , 40-C ) :   0.1805
B( 16-C , 17-C ) :   0.1231 B( 16-C , 18-C ) :   0.4605 B( 16-C , 22-H ) :   0.8992
B( 17-C , 33-C ) :   0.1094 B( 17-C , 40-C ) :   0.1552 B( 18-C , 19-H ) :   1.0010
B( 18-C , 20-H ) :   0.9962 B( 18-C , 21-H ) :   1.0157 B( 23-C , 27-C ) :   0.2839
B( 23-C , 29-C ) :   0.8750 B( 23-C , 31-C ) :   0.5408 B( 23-C , 32-H ) :   0.2028
B( 23-C , 33-C ) :  -0.8483 B( 23-C , 34-H ) :   0.1615 B( 23-C , 35-C ) :  -0.2490
B( 23-C , 37-C ) :  -0.4394 B( 24-C , 25-H ) :   1.0773 B( 24-C , 26-H ) :   0.8906
B( 24-C , 27-C ) :   0.9507 B( 24-C , 29-C ) :   0.1225 B( 26-H , 27-C ) :  -0.1233
B( 27-C , 28-H ) :   1.2459 B( 27-C , 30-H ) :   1.1322 B( 27-C , 33-C ) :  -0.1650
B( 28-H , 29-C ) :  -0.1559 B( 29-C , 31-C ) :   0.5308 B( 29-C , 32-H ) :  -0.1424
B( 29-C , 33-C ) :  -0.2077 B( 29-C , 35-C ) :   0.4133 B( 29-C , 36-H ) :  -0.1186
B( 31-C , 32-H ) :   1.6253 B( 31-C , 35-C ) :   0.9993 B( 31-C , 37-C ) :  -0.1870
B( 32-H , 35-C ) :  -0.1526 B( 33-C , 34-H ) :   0.4799 B( 33-C , 35-C ) :   0.3774
B( 33-C , 37-C ) :   1.3372 B( 35-C , 36-H ) :   0.3785 B( 35-C , 37-C ) :   0.9784
B( 35-C , 38-H ) :  -0.1499 B( 37-C , 38-H ) :   0.8420 B( 39-Si, 40-C ) :  -1.2469
B( 39-Si, 42-H ) :  -0.2127 B( 39-Si, 45-H ) :   0.1109 B( 39-Si, 47-H ) :  -0.1143
B( 39-Si, 50-H ) :  -0.1335 B( 40-C , 41-H ) :   1.0972 B( 40-C , 42-H ) :   1.4775
B( 40-C , 43-H ) :   1.1134 B( 40-C , 44-C ) :   0.1230 B( 40-C , 48-C ) :   0.1173
B( 44-C , 45-H ) :   0.9155 B( 44-C , 46-H ) :   1.0338 B( 44-C , 47-H ) :   1.1257
B( 44-C , 48-C ) :   0.2913 B( 48-C , 49-H ) :   1.0700 B( 48-C , 50-H ) :   1.0857
B( 48-C , 51-H ) :   0.8720

MP2 TOTAL ENERGY:    -1159.606015573 Eh
FINAL SINGLE POINT ENERGY     -1159.606015573293

DIPOLE MOMENT
-------------
                                X             Y             Z
Electronic contribution:    -15.84715      -2.79684      -0.34839
Nuclear contribution   :     16.25440       2.41784       0.57146
                        -----------------------------------------
Total Dipole Moment    :      0.40725      -0.37900       0.22307
                        -----------------------------------------
Magnitude (a.u.)       :      0.59938
Magnitude (Debye)      :      1.52350

Rotational constants in cm-1:     0.012647     0.005541     0.004134
Rotational constants in MHz :   379.154136   166.109043   123.925538

                             ****ORCA TERMINATED NORMALLY****
TOTAL RUN TIME: 0 days 1 hours 58 minutes 54 seconds 949 msec
