                         Program Version 4.2.1 -  RELEASE  -
|  1> %pal
|  2>  nprocs 32
|  3> end
|  4> !RI-MP2 aug-cc-pVTZ aug-cc-pVTZ/C TightSCF
|  5> %maxcore 4500
|  6> *xyzfile 0 2  03_35P1.xyz
|  7>
|  8>
|  9>                          ****END OF INPUT****

CARTESIAN COORDINATES (ANGSTROEM)
---------------------------------
  C      2.000033    0.047162   -0.047149
  C      1.271372   -1.254827   -0.136436
  C      1.172093    1.291330   -0.069793
  C      3.421279    0.117653   -0.481657
  H      3.505724    0.149790   -1.580341
  H      3.987857   -0.755632   -0.148903
  H      3.917028    1.014690   -0.101639
  C      0.001771   -1.273351    0.716526
  H      1.925160   -2.081957    0.155731
  H      0.980753   -1.447001   -1.183351
  C     -0.095356    1.159355    0.779045
  H      0.869934    1.516977   -1.107714
  H      1.757161    2.150512    0.272408
  N     -0.791725   -0.078079    0.473046
  H      0.268527   -1.298859    1.778636
  H     -0.617030   -2.137580    0.491331
  C     -1.998993   -0.179188   -0.156193
  H     -0.752339    2.010489    0.624193
  H      0.177795    1.145986    1.840148
  O     -2.472326   -1.257129   -0.474896
  C     -2.749449    1.105708   -0.438878
  H     -2.955297    1.662394    0.477261
  H     -3.690449    0.833322   -0.909160
  H     -2.190643    1.757394   -1.113550

 Total Charge           Charge          ....    0
 Multiplicity           Mult            ....    2
 Number of Electrons    NEL             ....   77
 Basis Dimension        Dim             ....  782

ORBITAL ENERGIES
----------------
                 SPIN UP ORBITALS
  NO   OCC          E(Eh)            E(eV)
   0   1.0000     -20.506143      -558.0005
   1   1.0000     -15.578245      -423.9056
   2   1.0000     -11.341860      -308.6277
   3   1.0000     -11.270512      -306.6862
   4   1.0000     -11.253036      -306.2107
   5   1.0000     -11.235777      -305.7410
   6   1.0000     -11.231886      -305.6352
   7   1.0000     -11.231675      -305.6294
   8   1.0000     -11.223678      -305.4118
   9   1.0000     -11.220824      -305.3341
  10   1.0000      -1.374437       -37.4003
  11   1.0000      -1.251020       -34.0420
  12   1.0000      -1.109237       -30.1839
  13   1.0000      -1.037898       -28.2426
  14   1.0000      -1.008468       -27.4418
  15   1.0000      -0.966153       -26.2904
  16   1.0000      -0.882331       -24.0094
  17   1.0000      -0.867404       -23.6033
  18   1.0000      -0.778275       -21.1779
  19   1.0000      -0.716867       -19.5070
  20   1.0000      -0.681981       -18.5577
  21   1.0000      -0.651586       -17.7306
  22   1.0000      -0.639283       -17.3958
  23   1.0000      -0.627839       -17.0844
  24   1.0000      -0.616476       -16.7752
  25   1.0000      -0.597503       -16.2589
  26   1.0000      -0.580310       -15.7910
  27   1.0000      -0.578159       -15.7325
  28   1.0000      -0.561100       -15.2683
  29   1.0000      -0.546503       -14.8711
  30   1.0000      -0.539899       -14.6914
  31   1.0000      -0.518902       -14.1200
  32   1.0000      -0.508358       -13.8331
  33   1.0000      -0.499977       -13.6051
  34   1.0000      -0.480243       -13.0681
  35   1.0000      -0.468891       -12.7592
  36   1.0000      -0.413178       -11.2431
  37   1.0000      -0.368063       -10.0155
  38   1.0000      -0.320431        -8.7194
  39   0.0000       0.024702         0.6722
  40   0.0000       0.029197         0.7945
  41   0.0000       0.033225         0.9041
  42   0.0000       0.036817         1.0018
  43   0.0000       0.045556         1.2396

                 SPIN DOWN ORBITALS
  NO   OCC          E(Eh)            E(eV)
   0   1.0000     -20.506041      -557.9977
   1   1.0000     -15.578450      -423.9112
   2   1.0000     -11.341858      -308.6276
   3   1.0000     -11.269845      -306.6681
   4   1.0000     -11.252372      -306.1926
   5   1.0000     -11.234807      -305.7146
   6   1.0000     -11.231670      -305.6293
   7   1.0000     -11.226536      -305.4896
   8   1.0000     -11.223799      -305.4151
   9   1.0000     -11.211572      -305.0824
  10   1.0000      -1.374276       -37.3959
  11   1.0000      -1.250141       -34.0181
  12   1.0000      -1.077646       -29.3242
  13   1.0000      -1.037189       -28.2233
  14   1.0000      -1.004537       -27.3348
  15   1.0000      -0.964341       -26.2411
  16   1.0000      -0.877924       -23.8895
  17   1.0000      -0.864620       -23.5275
  18   1.0000      -0.761117       -20.7111
  19   1.0000      -0.697207       -18.9720
  20   1.0000      -0.677951       -18.4480
  21   1.0000      -0.649458       -17.6726
  22   1.0000      -0.635125       -17.2826
  23   1.0000      -0.610361       -16.6088
  24   1.0000      -0.601368       -16.3641
  25   1.0000      -0.593190       -16.1415
  26   1.0000      -0.577077       -15.7031
  27   1.0000      -0.563960       -15.3461
  28   1.0000      -0.560552       -15.2534
  29   1.0000      -0.544756       -14.8236
  30   1.0000      -0.533996       -14.5308
  31   1.0000      -0.517599       -14.0846
  32   1.0000      -0.503555       -13.7024
  33   1.0000      -0.495114       -13.4727
  34   1.0000      -0.474774       -12.9193
  35   1.0000      -0.461862       -12.5679
  36   1.0000      -0.412841       -11.2340
  37   1.0000      -0.364685        -9.9236
  38   0.0000       0.024271         0.6604
  39   0.0000       0.029257         0.7961
  40   0.0000       0.033431         0.9097
  41   0.0000       0.036587         0.9956
  42   0.0000       0.045355         1.2342

MULLIKEN ATOMIC CHARGES AND SPIN POPULATIONS
--------------------------------------------
   0 C :    0.379884    1.314145
   1 C :   -0.492309   -0.201618
   2 C :   -0.402421   -0.205050
   3 C :   -1.095038   -0.238992
   4 H :    0.274621    0.072729
   5 H :    0.262239    0.010709
   6 H :    0.260604    0.011754
   7 C :   -0.720521    0.026268
   8 H :    0.266248    0.011776
   9 H :    0.257846    0.079347
  10 C :   -0.717921    0.024853
  11 H :    0.252548    0.084280
  12 H :    0.280221    0.011046
  13 N :    0.322669   -0.007650
  14 H :    0.208265    0.002884
  15 H :    0.392898   -0.002934
  16 C :    0.354691    0.001842
  17 H :    0.328695   -0.002649
  18 H :    0.293094    0.004259
  19 O :   -0.961603    0.002142
  20 C :   -0.615704    0.000865
  21 H :    0.274020    0.000276
  22 H :    0.322679    0.000257
  23 H :    0.274295   -0.000541
Sum of atomic charges         :    0.0000000

LOEWDIN ATOMIC CHARGES AND SPIN POPULATIONS
-------------------------------------------
   0 C :   -0.021820    0.538540
   1 C :    0.290306    0.103961
   2 C :    0.289887    0.104656
   3 C :    0.568927    0.108617
   4 H :   -0.156258    0.028803
   5 H :   -0.175377    0.006426
   6 H :   -0.176060    0.006481
   7 C :    0.201486    0.011405
   8 H :   -0.147630    0.005850
   9 H :   -0.126194    0.027419
  10 C :    0.198694    0.011613
  11 H :   -0.128032    0.027695
  12 H :   -0.147221    0.006092
  13 N :    0.272911   -0.000057
  14 H :   -0.130942    0.003108
  15 H :   -0.177304    0.000979
  16 C :   -0.656510    0.001050
  17 H :   -0.175692    0.001066
  18 H :   -0.126499    0.003283
  19 O :    0.454588    0.001852
  20 C :    0.588475    0.000528
  21 H :   -0.168624    0.000082
  22 H :   -0.182708    0.000064
  23 H :   -0.168403    0.000486

  Mayer bond orders larger than 0.100000
B(  0-C ,  1-C ) :   0.7884 B(  0-C ,  2-C ) :   0.7955 B(  0-C ,  3-C ) :   0.5750
B(  1-C ,  2-C ) :   0.1066 B(  1-C ,  7-C ) :   0.9656 B(  1-C ,  8-H ) :   0.9624
B(  1-C ,  9-H ) :   0.9466 B(  2-C , 10-C ) :   0.9452 B(  2-C , 11-H ) :   0.9693
B(  2-C , 12-H ) :   0.9406 B(  3-C ,  4-H ) :   0.9972 B(  3-C ,  5-H ) :   1.0119
B(  3-C ,  6-H ) :   1.0131 B(  7-C , 13-N ) :   1.0315 B(  7-C , 14-H ) :   1.0253
B(  7-C , 15-H ) :   0.9201 B( 10-C , 13-N ) :   1.0098 B( 10-C , 17-H ) :   0.9767
B( 10-C , 18-H ) :   0.9640 B( 13-N , 16-C ) :   0.8450 B( 13-N , 19-O ) :  -0.1096
B( 16-C , 19-O ) :   1.2298 B( 16-C , 20-C ) :   0.6381 B( 20-C , 21-H ) :   0.9648
B( 20-C , 22-H ) :   0.9426 B( 20-C , 23-H ) :   0.9406

MP2 TOTAL ENERGY:     -442.339496267 Eh
FINAL SINGLE POINT ENERGY      -442.339496266792

DIPOLE MOMENT
-------------
                                X             Y             Z
Electronic contribution:     -6.37583      -3.39729       0.87473
Nuclear contribution   :      7.36493       4.64166      -0.52567
                        -----------------------------------------
Total Dipole Moment    :      0.98910       1.24437       0.34905
                        -----------------------------------------
Magnitude (a.u.)       :      1.62745
Magnitude (Debye)      :      4.13666

Rotational constants in cm-1:     0.089245     0.028497     0.024115
Rotational constants in MHz :  2675.509268   854.314708   722.938672

                             ****ORCA TERMINATED NORMALLY****
TOTAL RUN TIME: 0 days 0 hours 13 minutes 5 seconds 269 msec
