                         Program Version 4.2.1 -  RELEASE  -
|  1> %pal
|  2>  nprocs 32
|  3> end
|  4> !RI-MP2 aug-cc-pVTZ aug-cc-pVTZ/C TightSCF
|  5> %maxcore 4500
|  6> *xyzfile 0 1  10_41TS.xyz
|  7>
|  8>
|  9>                          ****END OF INPUT****

CARTESIAN COORDINATES (ANGSTROEM)
---------------------------------
  C     -0.781186   -1.792929    0.530569
  H     -0.548820   -2.301698    1.484789
  C     -1.784898   -0.690839    0.780530
  C     -0.021574    1.009588    0.286835
  H      0.227017    1.340277   -0.724385
  H      0.169890    1.859665    0.948706
  C      0.918829   -0.144114    0.634967
  H      0.859019   -0.338360    1.723519
  N      0.436079   -1.314022   -0.091976
  C     -2.441775    1.455884   -0.202598
  C     -3.035573   -1.028095    1.272667
  H     -3.448282   -0.393672    2.036057
  H     -3.293265   -2.079856    1.378041
  C     -3.721557    1.020051   -0.571886
  C     -4.553350    0.082692    0.027324
  C     -1.477740    0.614937    0.386973
  H     -4.855475    0.245112    1.045413
  H     -4.027911    1.362376   -1.562430
  C     -5.585193   -0.641932   -0.796713
  H     -5.758153   -1.645512   -0.403043
  H     -6.547841   -0.119627   -0.773173
  H     -5.271963   -0.741324   -1.837065
  C      1.421820   -2.366869   -0.231388
  H      1.797270   -2.704211    0.752519
  H      0.939448   -3.225395   -0.704246
  C      2.358564    0.203186    0.316073
  C      3.141202   -0.598504   -0.513455
  C      2.572906   -1.870181   -1.084293
  H      2.207685   -1.693428   -2.100578
  H      3.355548   -2.630534   -1.146273
  H     -1.243968   -2.541184   -0.122357
  C      4.456584   -0.224244   -0.782672
  H      5.060535   -0.855216   -1.426343
  C      2.922316    1.347863    0.879681
  H      2.328852    1.962355    1.546799
  C      5.001774    0.924320   -0.236634
  H      6.026607    1.198471   -0.456142
  C      4.229309    1.712518    0.607587
  H      4.646634    2.606285    1.055509
  C     -1.974028    2.753215   -0.825171
  H     -1.230772    2.594717   -1.611362
  H     -1.510713    3.399499   -0.075731
  H     -2.812464    3.300137   -1.254771

 Total Charge           Charge          ....    0
 Multiplicity           Mult            ....    1
 Number of Electrons    NEL             ....  144
 Basis Dimension        Dim             .... 1449

ORBITAL ENERGIES
----------------

  NO   OCC          E(Eh)            E(eV)
   0   2.0000     -15.543799      -422.9683
   1   2.0000     -11.257197      -306.3239
   2   2.0000     -11.249354      -306.1105
   3   2.0000     -11.247078      -306.0486
   4   2.0000     -11.243256      -305.9446
   5   2.0000     -11.235750      -305.7403
   6   2.0000     -11.233295      -305.6735
   7   2.0000     -11.232064      -305.6400
   8   2.0000     -11.227625      -305.5192
   9   2.0000     -11.226875      -305.4988
  10   2.0000     -11.225900      -305.4723
  11   2.0000     -11.225173      -305.4525
  12   2.0000     -11.224412      -305.4318
  13   2.0000     -11.223118      -305.3966
  14   2.0000     -11.222513      -305.3801
  15   2.0000     -11.222471      -305.3790
  16   2.0000     -11.217958      -305.2561
  17   2.0000     -11.217883      -305.2541
  18   2.0000     -11.215153      -305.1798
  19   2.0000     -11.213893      -305.1455
  20   2.0000      -1.251889       -34.0656
  21   2.0000      -1.155174       -31.4339
  22   2.0000      -1.131981       -30.8028
  23   2.0000      -1.073339       -29.2070
  24   2.0000      -1.059590       -28.8329
  25   2.0000      -1.046846       -28.4861
  26   2.0000      -1.029804       -28.0224
  27   2.0000      -0.997202       -27.1353
  28   2.0000      -0.971290       -26.4302
  29   2.0000      -0.932200       -25.3665
  30   2.0000      -0.917054       -24.9543
  31   2.0000      -0.884547       -24.0697
  32   2.0000      -0.855161       -23.2701
  33   2.0000      -0.834721       -22.7139
  34   2.0000      -0.809921       -22.0391
  35   2.0000      -0.794963       -21.6320
  36   2.0000      -0.766094       -20.8465
  37   2.0000      -0.743760       -20.2387
  38   2.0000      -0.692929       -18.8556
  39   2.0000      -0.669449       -18.2166
  40   2.0000      -0.665060       -18.0972
  41   2.0000      -0.654302       -17.8045
  42   2.0000      -0.637661       -17.3516
  43   2.0000      -0.626833       -17.0570
  44   2.0000      -0.614626       -16.7248
  45   2.0000      -0.606042       -16.4912
  46   2.0000      -0.593757       -16.1569
  47   2.0000      -0.586534       -15.9604
  48   2.0000      -0.579317       -15.7640
  49   2.0000      -0.574836       -15.6421
  50   2.0000      -0.566415       -15.4129
  51   2.0000      -0.563266       -15.3273
  52   2.0000      -0.554096       -15.0777
  53   2.0000      -0.546578       -14.8731
  54   2.0000      -0.543206       -14.7814
  55   2.0000      -0.527575       -14.3560
  56   2.0000      -0.521085       -14.1795
  57   2.0000      -0.517834       -14.0910
  58   2.0000      -0.513051       -13.9608
  59   2.0000      -0.511215       -13.9109
  60   2.0000      -0.494054       -13.4439
  61   2.0000      -0.489515       -13.3204
  62   2.0000      -0.475286       -12.9332
  63   2.0000      -0.473104       -12.8738
  64   2.0000      -0.452648       -12.3172
  65   2.0000      -0.445943       -12.1347
  66   2.0000      -0.423185       -11.5154
  67   2.0000      -0.359127        -9.7723
  68   2.0000      -0.326660        -8.8889
  69   2.0000      -0.319536        -8.6950
  70   2.0000      -0.292157        -7.9500
  71   2.0000      -0.280111        -7.6222
  72   0.0000       0.025240         0.6868
  73   0.0000       0.028872         0.7857
  74   0.0000       0.029685         0.8078
  75   0.0000       0.032590         0.8868
  76   0.0000       0.036656         0.9975

MULLIKEN ATOMIC CHARGES
-----------------------
   0 C :   -0.701735
   1 H :    0.268063
   2 C :    0.955020
   3 C :   -0.462929
   4 H :    0.252844
   5 H :    0.171044
   6 C :   -0.138264
   7 H :    0.231862
   8 N :   -0.426151
   9 C :    0.458545
  10 C :   -1.359044
  11 H :    0.243967
  12 H :    0.437686
  13 C :   -0.725764
  14 C :    0.201864
  15 C :    0.110145
  16 H :    0.388848
  17 H :   -0.199801
  18 C :   -0.845755
  19 H :    0.260023
  20 H :    0.293304
  21 H :    0.293664
  22 C :   -0.643107
  23 H :    0.248359
  24 H :    0.347202
  25 C :    1.235671
  26 C :    1.079454
  27 C :   -0.535429
  28 H :    0.219714
  29 H :    0.223059
  30 H :    0.229446
  31 C :   -1.083415
  32 H :   -0.008871
  33 C :   -1.106779
  34 H :    0.023509
  35 C :   -0.284732
  36 H :    0.682320
  37 C :   -0.560347
  38 H :    0.440119
  39 C :   -0.950137
  40 H :    0.265050
  41 H :    0.227048
  42 H :    0.244429
Sum of atomic charges:    0.0000000

LOEWDIN ATOMIC CHARGES
----------------------
   0 C :    0.161470
   1 H :   -0.125974
   2 C :   -0.095579
   3 C :    0.294305
   4 H :   -0.150807
   5 H :   -0.145249
   6 C :   -0.111535
   7 H :   -0.105263
   8 N :    0.314885
   9 C :   -0.063434
  10 C :    0.506266
  11 H :   -0.222517
  12 H :   -0.169425
  13 C :    0.208428
  14 C :    0.182513
  15 C :   -0.034159
  16 H :   -0.222241
  17 H :   -0.180642
  18 C :    0.577735
  19 H :   -0.175211
  20 H :   -0.167077
  21 H :   -0.176328
  22 C :    0.165896
  23 H :   -0.115117
  24 H :   -0.135482
  25 C :   -0.043266
  26 C :   -0.067893
  27 C :    0.300446
  28 H :   -0.131454
  29 H :   -0.143546
  30 H :   -0.131009
  31 C :    0.222283
  32 H :   -0.173289
  33 C :    0.226589
  34 H :   -0.176735
  35 C :    0.198170
  36 H :   -0.183516
  37 C :    0.203095
  38 H :   -0.183190
  39 C :    0.574053
  40 H :   -0.168590
  41 H :   -0.161829
  42 H :   -0.175776

  Mayer bond orders larger than 0.100000
B(  0-C ,  1-H ) :   1.1620 B(  0-C ,  2-C ) :   0.6486 B(  0-C ,  6-C ) :   0.1006
B(  0-C ,  8-N ) :   0.9576 B(  0-C , 10-C ) :  -0.1446 B(  0-C , 30-H ) :   1.1319
B(  1-H ,  2-C ) :  -0.1502 B(  1-H ,  8-N ) :  -0.1058 B(  2-C ,  3-C ) :   0.1516
B(  2-C ,  6-C ) :   0.2303 B(  2-C ,  8-N ) :  -0.1076 B(  2-C , 10-C ) :   0.5898
B(  2-C , 12-H ) :  -0.1070 B(  2-C , 13-C ) :   0.4155 B(  2-C , 14-C ) :  -0.2356
B(  2-C , 15-C ) :   1.1317 B(  2-C , 16-H ) :  -0.1783 B(  2-C , 30-H ) :  -0.1329
B(  2-C , 39-C ) :  -0.1289 B(  3-C ,  4-H ) :   1.1142 B(  3-C ,  5-H ) :   1.1342
B(  3-C ,  6-C ) :   0.7971 B(  3-C ,  8-N ) :   0.3560 B(  3-C , 13-C ) :   0.1034
B(  3-C , 15-C ) :   0.4446 B(  3-C , 25-C ) :   0.3615 B(  3-C , 26-C ) :  -0.1127
B(  3-C , 39-C ) :  -0.1320 B(  4-H , 15-C ) :  -0.1665 B(  5-H , 15-C ) :  -0.1148
B(  6-C ,  7-H ) :   0.9463 B(  6-C ,  8-N ) :   0.6288 B(  6-C , 15-C ) :   0.1177
B(  6-C , 22-C ) :   0.1050 B(  6-C , 25-C ) :   0.7680 B(  6-C , 26-C ) :   0.4138
B(  6-C , 27-C ) :  -0.1132 B(  6-C , 31-C ) :  -0.1011 B(  6-C , 33-C ) :   0.6874
B(  8-N , 15-C ) :  -0.2788 B(  8-N , 22-C ) :   0.8928 B(  8-N , 25-C ) :  -0.1496
B(  9-C , 10-C ) :   0.4283 B(  9-C , 11-H ) :   0.1013 B(  9-C , 13-C ) :   0.5516
B(  9-C , 14-C ) :   0.1373 B(  9-C , 15-C ) :   1.4439 B(  9-C , 17-H ) :  -0.4317
B(  9-C , 39-C ) :   0.4157 B(  9-C , 40-H ) :  -0.1234 B(  9-C , 41-H ) :  -0.1004
B( 10-C , 11-H ) :   1.2276 B( 10-C , 12-H ) :   0.7220 B( 10-C , 13-C ) :  -0.1480
B( 10-C , 14-C ) :   0.6130 B( 10-C , 16-H ) :   0.2871 B( 13-C , 14-C ) :   1.0132
B( 13-C , 15-C ) :   0.2309 B( 13-C , 17-H ) :   1.6802 B( 14-C , 16-H ) :   0.8672
B( 14-C , 18-C ) :   0.5250 B( 15-C , 17-H ) :   0.2654 B( 15-C , 25-C ) :  -0.1187
B( 15-C , 39-C ) :   0.3623 B( 15-C , 40-H ) :   0.1059 B( 18-C , 19-H ) :   0.9961
B( 18-C , 20-H ) :   0.9897 B( 18-C , 21-H ) :   0.9738 B( 22-C , 23-H ) :   1.0365
B( 22-C , 24-H ) :   0.9018 B( 22-C , 27-C ) :   1.0681 B( 25-C , 26-C ) :   0.7073
B( 25-C , 27-C ) :   0.2134 B( 25-C , 31-C ) :   0.4669 B( 25-C , 33-C ) :  -0.1314
B( 25-C , 35-C ) :  -0.1624 B( 25-C , 38-H ) :  -0.1005 B( 26-C , 28-H ) :  -0.1325
B( 26-C , 31-C ) :   0.4362 B( 26-C , 33-C ) :  -0.3102 B( 26-C , 35-C ) :   0.2979
B( 26-C , 38-H ) :   0.1291 B( 27-C , 28-H ) :   1.1103 B( 27-C , 29-H ) :   1.0868
B( 27-C , 31-C ) :   0.1916 B( 31-C , 32-H ) :   1.6518 B( 31-C , 33-C ) :   0.1063
B( 31-C , 35-C ) :   0.9242 B( 31-C , 37-C ) :  -0.1449 B( 32-H , 35-C ) :  -0.1527
B( 33-C , 34-H ) :   1.5191 B( 33-C , 35-C ) :   0.1895 B( 33-C , 37-C ) :   1.3215
B( 35-C , 36-H ) :   0.4074 B( 35-C , 37-C ) :   1.0768 B( 37-C , 38-H ) :   0.8032
B( 39-C , 40-H ) :   1.0235 B( 39-C , 41-H ) :   1.0675 B( 39-C , 42-H ) :   1.0318

MP2 TOTAL ENERGY:     -790.873192186 Eh
FINAL SINGLE POINT ENERGY      -790.873192185820

DIPOLE MOMENT
-------------
                                X             Y             Z
Electronic contribution:     12.98262       1.15181       2.32295
Nuclear contribution   :    -13.17420      -1.43560      -2.26940
                        -----------------------------------------
Total Dipole Moment    :     -0.19158      -0.28380       0.05355
                        -----------------------------------------
Magnitude (a.u.)       :      0.34657
Magnitude (Debye)      :      0.88091

Rotational constants in cm-1:     0.026028     0.006296     0.005523
Rotational constants in MHz :   780.289826   188.763448   165.571264

                             ****ORCA TERMINATED NORMALLY****
TOTAL RUN TIME: 0 days 1 hours 3 minutes 18 seconds 277 msec
