                         Program Version 4.2.1 -  RELEASE  -
|  1> %pal
|  2>  nprocs 32
|  3> end
|  4> !RI-MP2 aug-cc-pVTZ aug-cc-pVTZ/C TightSCF
|  5> %maxcore 4500
|  6> *xyzfile 0 1  10_45P.xyz
|  7>
|  8>
|  9>                          ****END OF INPUT****

CARTESIAN COORDINATES (ANGSTROEM)
---------------------------------
  C     -0.031107   -2.303322   -0.695531
  H     -0.171949   -2.533942   -1.772709
  C      1.222524   -1.497332   -0.540921
  C     -0.098567    0.461391    0.114504
  H     -0.279110    0.508781    1.193212
  H     -0.093417    1.485107   -0.243700
  C     -1.270249   -0.270980   -0.535949
  H     -1.149529   -0.195303   -1.635380
  N     -1.201929   -1.666774   -0.134221
  C      2.536622    0.487411    0.022653
  C      2.512645   -2.216549   -0.820579
  C      3.623546   -0.274570    0.196639
  C      3.584616   -1.779671    0.171181
  C      1.225199   -0.212086   -0.164479
  C      3.355905   -2.349600    1.576034
  H      3.369858   -3.442932    1.561010
  H      4.134006   -2.011077    2.263407
  H      2.392264   -2.022880    1.972392
  C     -2.415284   -2.408856   -0.407954
  H     -2.697603   -2.343461   -1.475171
  H     -2.231066   -3.462712   -0.187203
  C     -2.599969    0.369252   -0.183692
  C     -3.668961   -0.383341    0.302284
  C     -3.534680   -1.874394    0.464042
  H     -3.313558   -2.116197    1.508070
  H     -4.480260   -2.360343    0.210044
  H      0.105806   -3.267827   -0.195335
  C     -4.869490    0.253361    0.612208
  H     -5.696095   -0.340516    0.988098
  C     -2.773835    1.739907   -0.377517
  H     -1.962062    2.331599   -0.783946
  C     -5.025044    1.617125    0.438526
  H     -5.966247    2.094069    0.684028
  C     -3.969643    2.364515   -0.068629
  H     -4.079784    3.430633   -0.226299
  C      2.649086    2.019513   -0.013585
  C      2.104148    2.543375   -1.355400
  H      1.073100    2.251865   -1.547670
  H      2.709470    2.159473   -2.179710
  H      2.152659    3.635192   -1.380686
  C      4.109406    2.486123    0.069562
  H      4.570552    2.216738    1.021752
  H      4.140928    3.574670   -0.013111
  H      4.715500    2.072978   -0.738599
  C      1.924567    2.676642    1.176863
  H      2.322895    2.290137    2.117772
  H      0.850243    2.515912    1.181129
  H      2.094656    3.756446    1.159355
  H      2.846332   -1.982567   -1.839776
  H      2.366208   -3.299672   -0.776859
  H      4.552892   -2.141686   -0.186864
  H      4.588205    0.177445    0.380722

 Total Charge           Charge          ....    0
 Multiplicity           Mult            ....    1
 Number of Electrons    NEL             ....  168
 Basis Dimension        Dim             .... 1725

ORBITAL ENERGIES
----------------

  NO   OCC          E(Eh)            E(eV)
   0   2.0000     -15.544070      -422.9756
   1   2.0000     -11.257534      -306.3331
   2   2.0000     -11.250757      -306.1487
   3   2.0000     -11.247870      -306.0701
   4   2.0000     -11.238559      -305.8167
   5   2.0000     -11.233755      -305.6860
   6   2.0000     -11.232530      -305.6527
   7   2.0000     -11.227975      -305.5287
   8   2.0000     -11.227299      -305.5103
   9   2.0000     -11.226629      -305.4921
  10   2.0000     -11.226226      -305.4811
  11   2.0000     -11.225351      -305.4573
  12   2.0000     -11.224364      -305.4305
  13   2.0000     -11.222852      -305.3893
  14   2.0000     -11.222830      -305.3887
  15   2.0000     -11.221128      -305.3424
  16   2.0000     -11.217888      -305.2542
  17   2.0000     -11.217343      -305.2394
  18   2.0000     -11.210357      -305.0493
  19   2.0000     -11.209332      -305.0214
  20   2.0000     -11.207416      -304.9693
  21   2.0000     -11.206860      -304.9542
  22   2.0000     -11.206601      -304.9471
  23   2.0000      -1.253081       -34.0981
  24   2.0000      -1.156641       -31.4738
  25   2.0000      -1.147609       -31.2280
  26   2.0000      -1.097295       -29.8589
  27   2.0000      -1.075896       -29.2766
  28   2.0000      -1.053963       -28.6798
  29   2.0000      -1.036773       -28.2120
  30   2.0000      -1.003113       -27.2961
  31   2.0000      -0.990902       -26.9638
  32   2.0000      -0.969624       -26.3848
  33   2.0000      -0.931476       -25.3467
  34   2.0000      -0.928045       -25.2534
  35   2.0000      -0.923033       -25.1170
  36   2.0000      -0.879863       -23.9423
  37   2.0000      -0.860127       -23.4052
  38   2.0000      -0.841384       -22.8952
  39   2.0000      -0.826445       -22.4887
  40   2.0000      -0.808852       -22.0100
  41   2.0000      -0.766807       -20.8659
  42   2.0000      -0.751186       -20.4408
  43   2.0000      -0.726672       -19.7738
  44   2.0000      -0.691913       -18.8279
  45   2.0000      -0.671373       -18.2690
  46   2.0000      -0.659475       -17.9452
  47   2.0000      -0.647988       -17.6326
  48   2.0000      -0.642229       -17.4759
  49   2.0000      -0.631808       -17.1924
  50   2.0000      -0.617517       -16.8035
  51   2.0000      -0.609786       -16.5931
  52   2.0000      -0.604386       -16.4462
  53   2.0000      -0.597925       -16.2704
  54   2.0000      -0.597303       -16.2534
  55   2.0000      -0.588824       -16.0227
  56   2.0000      -0.586290       -15.9538
  57   2.0000      -0.572794       -15.5865
  58   2.0000      -0.563521       -15.3342
  59   2.0000      -0.558727       -15.2037
  60   2.0000      -0.549080       -14.9412
  61   2.0000      -0.541424       -14.7329
  62   2.0000      -0.533889       -14.5279
  63   2.0000      -0.526607       -14.3297
  64   2.0000      -0.523570       -14.2471
  65   2.0000      -0.521705       -14.1963
  66   2.0000      -0.514634       -14.0039
  67   2.0000      -0.509127       -13.8541
  68   2.0000      -0.508256       -13.8304
  69   2.0000      -0.498167       -13.5558
  70   2.0000      -0.490604       -13.3500
  71   2.0000      -0.483204       -13.1487
  72   2.0000      -0.476801       -12.9744
  73   2.0000      -0.469103       -12.7649
  74   2.0000      -0.468405       -12.7459
  75   2.0000      -0.463248       -12.6056
  76   2.0000      -0.446501       -12.1499
  77   2.0000      -0.435175       -11.8417
  78   2.0000      -0.418092       -11.3769
  79   2.0000      -0.386103       -10.5064
  80   2.0000      -0.357830        -9.7371
  81   2.0000      -0.326714        -8.8903
  82   2.0000      -0.319628        -8.6975
  83   2.0000      -0.289752        -7.8846
  84   0.0000       0.023709         0.6452
  85   0.0000       0.027742         0.7549
  86   0.0000       0.028366         0.7719
  87   0.0000       0.032942         0.8964
  88   0.0000       0.036316         0.9882

MULLIKEN ATOMIC CHARGES
-----------------------
   0 C :   -0.638585
   1 H :    0.283573
   2 C :    0.057322
   3 C :   -1.052305
   4 H :    0.126629
   5 H :    0.422604
   6 C :   -0.260678
   7 H :    0.142717
   8 N :   -0.349095
   9 C :    1.335477
  10 C :   -0.809714
  11 C :   -1.022780
  12 C :    0.237571
  13 C :    1.393516
  14 C :   -1.074201
  15 H :    0.235933
  16 H :    0.237030
  17 H :    0.349790
  18 C :   -0.837824
  19 H :    0.237347
  20 H :    0.340854
  21 C :    1.578386
  22 C :    1.006877
  23 C :   -0.565878
  24 H :    0.177214
  25 H :    0.226935
  26 H :    0.182871
  27 C :   -1.042627
  28 H :    0.001988
  29 C :   -1.145443
  30 H :    0.393051
  31 C :   -0.401231
  32 H :    0.660236
  33 C :   -0.835913
  34 H :    0.385400
  35 C :    1.858752
  36 C :   -1.559995
  37 H :    0.531203
  38 H :    0.203319
  39 H :    0.149339
  40 C :   -1.567746
  41 H :    0.260061
  42 H :    0.185913
  43 H :    0.236278
  44 C :   -1.575774
  45 H :    0.245144
  46 H :    0.496933
  47 H :    0.117453
  48 H :    0.164995
  49 H :    0.276296
  50 H :    0.487877
  51 H :   -0.487092
Sum of atomic charges:   -0.0000000

LOEWDIN ATOMIC CHARGES
----------------------
   0 C :    0.170555
   1 H :   -0.109603
   2 C :   -0.032841
   3 C :    0.303012
   4 H :   -0.110844
   5 H :   -0.240845
   6 C :   -0.105092
   7 H :   -0.099894
   8 N :    0.315617
   9 C :   -0.007480
  10 C :    0.298188
  11 C :    0.270753
  12 C :   -0.030224
  13 C :    0.006463
  14 C :    0.602126
  15 H :   -0.160241
  16 H :   -0.160047
  17 H :   -0.160544
  18 C :    0.167939
  19 H :   -0.114278
  20 H :   -0.135799
  21 C :   -0.034185
  22 C :   -0.066663
  23 C :    0.300679
  24 H :   -0.131667
  25 H :   -0.143307
  26 H :   -0.139535
  27 C :    0.222100
  28 H :   -0.172891
  29 C :    0.229491
  30 H :   -0.178453
  31 C :    0.198614
  32 H :   -0.183192
  33 C :    0.204938
  34 H :   -0.182786
  35 C :   -0.319313
  36 C :    0.606020
  37 H :   -0.187543
  38 H :   -0.145005
  39 H :   -0.150189
  40 C :    0.558032
  41 H :   -0.156526
  42 H :   -0.156937
  43 H :   -0.155964
  44 C :    0.606732
  45 H :   -0.144050
  46 H :   -0.200010
  47 H :   -0.153419
  48 H :   -0.123098
  49 H :   -0.141967
  50 H :   -0.131269
  51 H :   -0.195557

  Mayer bond orders larger than 0.100000
B(  0-C ,  1-H ) :   1.1384 B(  0-C ,  2-C ) :   0.3717 B(  0-C ,  6-C ) :   0.1273
B(  0-C ,  8-N ) :   0.6882 B(  0-C ,  9-C ) :  -0.3274 B(  0-C , 11-C ) :  -0.1456
B(  0-C , 20-H ) :  -0.1206 B(  0-C , 26-H ) :   1.3429 B(  1-H ,  2-C ) :  -0.1923
B(  1-H ,  8-N ) :  -0.1192 B(  2-C ,  3-C ) :   0.2484 B(  2-C ,  6-C ) :   0.1169
B(  2-C ,  8-N ) :   0.1167 B(  2-C ,  9-C ) :   0.5137 B(  2-C , 10-C ) :   0.2172
B(  2-C , 11-C ) :   0.7773 B(  2-C , 12-C ) :   0.1764 B(  2-C , 13-C ) :   2.0551
B(  2-C , 21-C ) :   0.1488 B(  2-C , 26-H ) :  -0.2250 B(  2-C , 35-C ) :  -0.1805
B(  2-C , 48-H ) :  -0.1681 B(  2-C , 49-H ) :  -0.1473 B(  3-C ,  4-H ) :   1.0395
B(  3-C ,  5-H ) :   0.9352 B(  3-C ,  6-C ) :   1.0180 B(  3-C ,  8-N ) :   0.5076
B(  3-C , 13-C ) :   0.5630 B(  3-C , 21-C ) :   0.3487 B(  3-C , 22-C ) :  -0.1552
B(  3-C , 29-C ) :   0.1034 B(  3-C , 35-C ) :   0.1824 B(  4-H , 13-C ) :  -0.1074
B(  5-H ,  9-C ) :   0.1045 B(  5-H , 11-C ) :   0.1167 B(  5-H , 51-H ) :  -0.1098
B(  6-C ,  7-H ) :   1.0969 B(  6-C ,  8-N ) :   0.4588 B(  6-C , 13-C ) :   0.2840
B(  6-C , 21-C ) :   0.7004 B(  6-C , 22-C ) :   0.8064 B(  6-C , 23-C ) :  -0.1687
B(  6-C , 27-C ) :  -0.1180 B(  6-C , 29-C ) :   0.6598 B(  7-H ,  8-N ) :  -0.1504
B(  8-N , 13-C ) :  -0.4681 B(  8-N , 18-C ) :   1.0131 B(  8-N , 21-C ) :  -0.2972
B(  8-N , 22-C ) :  -0.1785 B(  8-N , 23-C ) :  -0.1445 B(  9-C , 10-C ) :  -0.1244
B(  9-C , 11-C ) :   1.2712 B(  9-C , 12-C ) :   0.1195 B(  9-C , 13-C ) :   0.4952
B(  9-C , 35-C ) :   0.6514 B(  9-C , 36-C ) :  -0.1249 B(  9-C , 40-C ) :   0.2323
B(  9-C , 51-H ) :  -0.4141 B( 10-C , 11-C ) :   0.4648 B( 10-C , 12-C ) :   0.9877
B( 10-C , 14-C ) :   0.1203 B( 10-C , 48-H ) :   1.1979 B( 10-C , 49-H ) :   1.0129
B( 10-C , 50-H ) :  -0.1348 B( 11-C , 12-C ) :   0.6474 B( 11-C , 13-C ) :  -1.0894
B( 11-C , 35-C ) :   0.1887 B( 11-C , 40-C ) :  -0.1699 B( 11-C , 49-H ) :   0.1582
B( 11-C , 50-H ) :  -0.2678 B( 11-C , 51-H ) :   2.5557 B( 12-C , 13-C ) :   0.1432
B( 12-C , 14-C ) :   0.6403 B( 12-C , 49-H ) :  -0.1034 B( 12-C , 50-H ) :   0.9556
B( 13-C , 35-C ) :   0.5940 B( 13-C , 44-C ) :  -0.1102 B( 14-C , 15-H ) :   1.0435
B( 14-C , 16-H ) :   1.0463 B( 14-C , 17-H ) :   0.9133 B( 18-C , 19-H ) :   1.0589
B( 18-C , 20-H ) :   0.9348 B( 18-C , 22-C ) :   0.1453 B( 18-C , 23-C ) :   1.0649
B( 18-C , 27-C ) :  -0.1009 B( 21-C , 22-C ) :   0.5553 B( 21-C , 23-C ) :   0.3038
B( 21-C , 27-C ) :   0.5662 B( 21-C , 28-H ) :   0.1316 B( 21-C , 29-C ) :  -0.4699
B( 21-C , 31-C ) :  -0.2035 B( 21-C , 33-C ) :  -0.3086 B( 22-C , 24-H ) :  -0.1126
B( 22-C , 27-C ) :   0.3945 B( 22-C , 28-H ) :  -0.1035 B( 22-C , 29-C ) :  -0.3752
B( 22-C , 31-C ) :   0.3227 B( 23-C , 24-H ) :   1.1570 B( 23-C , 25-H ) :   1.1036
B( 23-C , 27-C ) :   0.1706 B( 23-C , 29-C ) :  -0.1193 B( 27-C , 28-H ) :   1.6204
B( 27-C , 31-C ) :   0.8920 B( 27-C , 33-C ) :  -0.1103 B( 28-H , 31-C ) :  -0.1649
B( 29-C , 30-H ) :   0.9882 B( 29-C , 31-C ) :   0.3144 B( 29-C , 33-C ) :   1.4331
B( 31-C , 32-H ) :   0.4276 B( 31-C , 33-C ) :   1.0815 B( 31-C , 34-H ) :  -0.1170
B( 33-C , 34-H ) :   0.8715 B( 35-C , 36-C ) :   0.3045 B( 35-C , 39-H ) :  -0.1900
B( 35-C , 40-C ) :  -0.1939 B( 35-C , 41-H ) :  -0.1349 B( 35-C , 42-H ) :  -0.2193
B( 35-C , 43-H ) :  -0.1395 B( 35-C , 44-C ) :   0.1566 B( 35-C , 45-H ) :  -0.1056
B( 35-C , 47-H ) :  -0.1458 B( 36-C , 37-H ) :   0.7577 B( 36-C , 38-H ) :   1.1950
B( 36-C , 39-H ) :   1.2390 B( 36-C , 40-C ) :   0.2002 B( 40-C , 41-H ) :   1.1598
B( 40-C , 42-H ) :   1.2111 B( 40-C , 43-H ) :   1.1497 B( 40-C , 44-C ) :   0.2219
B( 40-C , 51-H ) :  -0.1301 B( 44-C , 45-H ) :   1.1195 B( 44-C , 46-H ) :   0.7969
B( 44-C , 47-H ) :   1.3064 B( 50-H , 51-H ) :  -0.2066

MP2 TOTAL ENERGY:     -908.622826068 Eh
FINAL SINGLE POINT ENERGY      -908.622826068318

DIPOLE MOMENT
-------------
                                X             Y             Z
Electronic contribution:    -17.22498      -3.29543      -1.30568
Nuclear contribution   :     17.29838       3.04776       1.08481
                        -----------------------------------------
Total Dipole Moment    :      0.07339      -0.24767      -0.22087
                        -----------------------------------------
Magnitude (a.u.)       :      0.33987
Magnitude (Debye)      :      0.86387

Rotational constants in cm-1:     0.014382     0.005903     0.004530
Rotational constants in MHz :   431.154632   176.959699   135.816265

                             ****ORCA TERMINATED NORMALLY****
TOTAL RUN TIME: 0 days 2 hours 1 minutes 28 seconds 103 msec
