                         Program Version 4.2.1 -  RELEASE  -
|  1> %pal
|  2>  nprocs 32
|  3> end
|  4> !RI-MP2 aug-cc-pVTZ aug-cc-pVTZ/C TightSCF
|  5> %maxcore 4500
|  6> *xyzfile -1 1  05_18P2.xyz
|  7>
|  8>
|  9>                          ****END OF INPUT****

CARTESIAN COORDINATES (ANGSTROEM)
---------------------------------
  H      3.197795   -1.921767   -0.380416
  C     -1.019633    1.312733    0.047215
  C     -2.303276    0.785376    0.133010
  C     -2.466961   -0.581308    0.018984
  C     -1.384419   -1.429642   -0.192869
  C     -0.101744   -0.915631   -0.301271
  C      0.094361    0.471931   -0.180053
  C      1.442223    1.042322   -0.214315
  C      2.594924    0.135256   -0.490596
  C      2.385676   -1.296892    0.092612
  H      3.491596    0.586347   -0.064339
  H      2.712419    0.097813   -1.585674
  C      1.066961   -1.818481   -0.559674
  H      1.199268   -1.913318   -1.648421
  H      0.857611   -2.813559   -0.160625
  H     -3.148213    1.436248    0.310572
  H     -1.540002   -2.502185   -0.262444
  O      1.610478    2.260350   -0.047247
  O      2.369339   -1.316426    1.415562
  O     -3.740233   -1.075431    0.124819
  H     -3.698188   -2.034205    0.078816
  O     -0.869102    2.635788    0.188212
  H      0.115177    2.796403    0.143492

 Total Charge           Charge          ....   -1
 Multiplicity           Mult            ....    1
 Number of Electrons    NEL             ....  102
 Basis Dimension        Dim             ....  851

ORBITAL ENERGIES
----------------

  NO   OCC          E(Eh)            E(eV)
   0   2.0000     -20.500483      -557.8465
   1   2.0000     -20.454339      -556.5909
   2   2.0000     -20.415143      -555.5243
   3   2.0000     -20.249505      -551.0170
   4   2.0000     -11.207396      -304.9687
   5   2.0000     -11.205110      -304.9065
   6   2.0000     -11.200221      -304.7735
   7   2.0000     -11.141953      -303.1880
   8   2.0000     -11.105021      -302.1830
   9   2.0000     -11.103014      -302.1284
  10   2.0000     -11.101112      -302.0766
  11   2.0000     -11.100956      -302.0724
  12   2.0000     -11.081307      -301.5377
  13   2.0000     -11.074963      -301.3651
  14   2.0000      -1.314460       -35.7683
  15   2.0000      -1.291717       -35.1494
  16   2.0000      -1.246778       -33.9265
  17   2.0000      -1.078052       -29.3353
  18   2.0000      -1.037676       -28.2366
  19   2.0000      -0.941761       -25.6266
  20   2.0000      -0.905339       -24.6355
  21   2.0000      -0.862374       -23.4664
  22   2.0000      -0.826775       -22.4977
  23   2.0000      -0.751768       -20.4566
  24   2.0000      -0.702842       -19.1253
  25   2.0000      -0.672655       -18.3039
  26   2.0000      -0.635105       -17.2821
  27   2.0000      -0.600786       -16.3482
  28   2.0000      -0.587938       -15.9986
  29   2.0000      -0.555882       -15.1263
  30   2.0000      -0.516332       -14.0501
  31   2.0000      -0.504070       -13.7165
  32   2.0000      -0.498586       -13.5672
  33   2.0000      -0.485605       -13.2140
  34   2.0000      -0.471581       -12.8324
  35   2.0000      -0.466696       -12.6995
  36   2.0000      -0.454227       -12.3601
  37   2.0000      -0.449604       -12.2344
  38   2.0000      -0.443303       -12.0629
  39   2.0000      -0.434279       -11.8173
  40   2.0000      -0.407029       -11.0758
  41   2.0000      -0.386411       -10.5148
  42   2.0000      -0.360859        -9.8195
  43   2.0000      -0.340896        -9.2763
  44   2.0000      -0.333683        -9.0800
  45   2.0000      -0.315469        -8.5843
  46   2.0000      -0.283986        -7.7277
  47   2.0000      -0.213885        -5.8201
  48   2.0000      -0.201534        -5.4840
  49   2.0000      -0.160929        -4.3791
  50   2.0000      -0.159431        -4.3383
  51   0.0000       0.096120         2.6156
  52   0.0000       0.108208         2.9445
  53   0.0000       0.117134         3.1874
  54   0.0000       0.121014         3.2929
  55   0.0000       0.127437         3.4677

MULLIKEN ATOMIC CHARGES
-----------------------
   0 H :    0.197029
   1 C :    0.290794
   2 C :   -0.740331
   3 C :    0.827689
   4 C :   -1.020745
   5 C :    1.288413
   6 C :    0.830556
   7 C :    0.177811
   8 C :   -0.373694
   9 C :    0.500615
  10 H :    0.304373
  11 H :    0.257260
  12 C :   -0.563282
  13 H :    0.238987
  14 H :    0.226989
  15 H :    0.539002
  16 H :    0.033190
  17 O :   -1.153218
  18 O :   -1.319584
  19 O :   -0.835893
  20 H :    0.192191
  21 O :   -1.070596
  22 H :    0.172442
Sum of atomic charges:   -1.0000000

LOEWDIN ATOMIC CHARGES
----------------------
   0 H :   -0.171487
   1 C :   -0.370643
   2 C :    0.219719
   3 C :   -0.391917
   4 C :    0.229347
   5 C :   -0.106099
   6 C :   -0.051346
   7 C :   -0.446457
   8 C :    0.256525
   9 C :   -0.634157
  10 H :   -0.166320
  11 H :   -0.155792
  12 C :    0.255021
  13 H :   -0.152690
  14 H :   -0.163204
  15 H :   -0.194145
  16 H :   -0.190140
  17 O :    0.561856
  18 O :    0.235687
  19 O :    0.837867
  20 H :   -0.497277
  21 O :    0.850046
  22 H :   -0.754393

  Mayer bond orders larger than 0.100000
B(  0-H ,  9-C ) :   1.1219 B(  1-C ,  2-C ) :   1.0972 B(  1-C ,  3-C ) :  -0.1199
B(  1-C ,  4-C ) :   0.1486 B(  1-C ,  5-C ) :  -0.2959 B(  1-C ,  6-C ) :   0.1765
B(  1-C ,  7-C ) :   0.6760 B(  1-C , 17-O ) :   0.1020 B(  1-C , 21-O ) :   0.2382
B(  1-C , 22-H ) :   0.1023 B(  2-C ,  3-C ) :   1.1013 B(  2-C ,  5-C ) :  -0.3156
B(  2-C ,  6-C ) :   0.2668 B(  2-C , 15-H ) :   0.5431 B(  2-C , 21-O ) :   0.1946
B(  3-C ,  4-C ) :   0.6856 B(  3-C ,  5-C ) :   0.2617 B(  3-C ,  6-C ) :   0.1246
B(  3-C , 19-O ) :   0.5506 B(  4-C ,  6-C ) :   0.3926 B(  4-C ,  7-C ) :   0.1010
B(  4-C , 16-H ) :   1.4058 B(  4-C , 19-O ) :  -0.1403 B(  5-C ,  6-C ) :   1.0715
B(  5-C ,  7-C ) :  -0.2490 B(  5-C ,  8-C ) :  -0.1205 B(  5-C ,  9-C ) :   0.1290
B(  5-C , 12-C ) :   0.2076 B(  5-C , 14-H ) :  -0.1230 B(  5-C , 16-H ) :  -0.1014
B(  6-C ,  7-C ) :   0.4687 B(  6-C ,  8-C ) :   0.1855 B(  6-C , 12-C ) :   0.1661
B(  7-C ,  8-C ) :   0.7394 B(  7-C ,  9-C ) :   0.1149 B(  7-C , 17-O ) :   0.6983
B(  8-C ,  9-C ) :   0.9342 B(  8-C , 10-H ) :   0.9306 B(  8-C , 11-H ) :   0.9729
B(  8-C , 12-C ) :   0.1397 B(  8-C , 18-O ) :   0.1192 B(  9-C , 12-C ) :   0.9137
B(  9-C , 18-O ) :   0.6572 B( 12-C , 13-H ) :   0.9906 B( 12-C , 14-H ) :   1.0949
B( 12-C , 18-O ) :   0.1001 B( 17-O , 22-H ) :   0.2490 B( 19-O , 20-H ) :   1.0295
B( 21-O , 22-H ) :   0.8406

MP2 TOTAL ENERGY:     -686.220672567 Eh
FINAL SINGLE POINT ENERGY      -686.220672567428

DIPOLE MOMENT
-------------
                                X             Y             Z
Electronic contribution:     -5.82495       5.80876       1.40871
Nuclear contribution   :      3.12009      -6.11613      -3.47848
                        -----------------------------------------
Total Dipole Moment    :     -2.70486      -0.30737      -2.06977
                        -----------------------------------------
Magnitude (a.u.)       :      3.41975
Magnitude (Debye)      :      8.69232

Rotational constants in cm-1:     0.036204     0.020216     0.014002
Rotational constants in MHz :  1085.376435   606.056251   419.770105

                             ****ORCA TERMINATED NORMALLY****
TOTAL RUN TIME: 0 days 0 hours 13 minutes 39 seconds 335 msec
