                         Program Version 4.2.1 -  RELEASE  -
|  1> %pal
|  2>  nprocs 32
|  3> end
|  4> !RI-MP2 aug-cc-pVTZ aug-cc-pVTZ/C TightSCF
|  5> %maxcore 4500
|  6> *xyzfile 0 1  06_21P2.xyz
|  7>
|  8>
|  9>                          ****END OF INPUT****

CARTESIAN COORDINATES (ANGSTROEM)
---------------------------------
  S      1.428718   -0.292410   -0.011148
  C      0.068299    0.895561   -0.294572
  C     -1.244511    0.449304    0.327062
  O     -1.690971   -0.786883   -0.181089
  H      0.360290    1.880633    0.069950
  H     -0.034242    0.949442   -1.378962
  H     -1.144087    0.411910    1.420087
  H     -2.022377    1.178202    0.090211
  H     -0.971524   -1.421670   -0.083820
  H      1.537489   -0.094084    1.314671

 Total Charge           Charge          ....    0
 Multiplicity           Mult            ....    1
 Number of Electrons    NEL             ....   42
 Basis Dimension        Dim             ....  326

ORBITAL ENERGIES
----------------

  NO   OCC          E(Eh)            E(eV)
   0   2.0000     -91.964415     -2502.4790
   1   2.0000     -20.558834      -559.4343
   2   2.0000     -11.286933      -307.1331
   3   2.0000     -11.270572      -306.6879
   4   2.0000      -8.965583      -243.9659
   5   2.0000      -6.646918      -180.8718
   6   2.0000      -6.645883      -180.8437
   7   2.0000      -6.644936      -180.8179
   8   2.0000      -1.366789       -37.1922
   9   2.0000      -1.069524       -29.1032
  10   2.0000      -0.943407       -25.6714
  11   2.0000      -0.830442       -22.5975
  12   2.0000      -0.699489       -19.0341
  13   2.0000      -0.648618       -17.6498
  14   2.0000      -0.613545       -16.6954
  15   2.0000      -0.586097       -15.9485
  16   2.0000      -0.535455       -14.5705
  17   2.0000      -0.508239       -13.8299
  18   2.0000      -0.456689       -12.4271
  19   2.0000      -0.453607       -12.3433
  20   2.0000      -0.372474       -10.1355
  21   0.0000       0.028239         0.7684
  22   0.0000       0.037001         1.0068
  23   0.0000       0.042938         1.1684
  24   0.0000       0.044936         1.2228
  25   0.0000       0.060453         1.6450

MULLIKEN ATOMIC CHARGES
-----------------------
   0 S :   -0.370573
   1 C :   -0.417235
   2 C :   -0.200308
   3 O :   -0.598815
   4 H :    0.284175
   5 H :    0.311872
   6 H :    0.271926
   7 H :    0.348392
   8 H :    0.210218
   9 H :    0.160349
Sum of atomic charges:    0.0000000

LOEWDIN ATOMIC CHARGES
----------------------
   0 S :    1.287494
   1 C :   -0.098485
   2 C :   -0.064823
   3 O :    0.795509
   4 H :   -0.221390
   5 H :   -0.232331
   6 H :   -0.170458
   7 H :   -0.169601
   8 H :   -0.559042
   9 H :   -0.566872

  Mayer bond orders larger than 0.100000
B(  0-S ,  1-C ) :   0.9420 B(  0-S ,  9-H ) :   1.0124 B(  1-C ,  2-C ) :   0.9397
B(  1-C ,  4-H ) :   0.9098 B(  1-C ,  5-H ) :   0.8964 B(  2-C ,  3-O ) :   0.7419
B(  2-C ,  6-H ) :   0.9510 B(  2-C ,  7-H ) :   0.8969 B(  3-O ,  8-H ) :   0.9705

MP2 TOTAL ENERGY:     -552.480351401 Eh
FINAL SINGLE POINT ENERGY      -552.480351400551

DIPOLE MOMENT
-------------
                                X             Y             Z
Electronic contribution:      2.60379      -2.30508      -1.00564
Nuclear contribution   :     -2.36771       2.92890       1.44335
                        -----------------------------------------
Total Dipole Moment    :      0.23608       0.62382       0.43772
                        -----------------------------------------
Magnitude (a.u.)       :      0.79780
Magnitude (Debye)      :      2.02785

Rotational constants in cm-1:     0.408963     0.114498     0.098361
Rotational constants in MHz : 12260.390260  3432.572679  2948.798499

                             ****ORCA TERMINATED NORMALLY****
TOTAL RUN TIME: 0 days 0 hours 0 minutes 34 seconds 506 msec
