                         Program Version 4.2.1 -  RELEASE  -
|  1> %pal
|  2>  nprocs 32
|  3> end
|  4> !RI-MP2 aug-cc-pVTZ aug-cc-pVTZ/C TightSCF
|  5> %maxcore 4500
|  6> *xyzfile 0 2  01_9R1.xyz
|  7>
|  8>
|  9>                          ****END OF INPUT****

CARTESIAN COORDINATES (ANGSTROEM)
---------------------------------
  C      1.105385    0.000019   -0.008421
  S     -0.691711    0.000003   -0.001847
  H      1.423713   -0.000966    1.039091
  H      1.505636   -0.896517   -0.480279
  H      1.505721    0.897321   -0.478729

 Total Charge           Charge          ....    0
 Multiplicity           Mult            ....    2
 Number of Electrons    NEL             ....   25
 Basis Dimension        Dim             ....  165

ORBITAL ENERGIES
----------------
                 SPIN UP ORBITALS
  NO   OCC          E(Eh)            E(eV)
   0   1.0000     -91.972096     -2502.6880
   1   1.0000     -11.262643      -306.4721
   2   1.0000      -8.972646      -244.1581
   3   1.0000      -6.668198      -181.4509
   4   1.0000      -6.649841      -180.9514
   5   1.0000      -6.648238      -180.9078
   6   1.0000      -1.050475       -28.5849
   7   1.0000      -0.860150       -23.4059
   8   1.0000      -0.606007       -16.4903
   9   1.0000      -0.599896       -16.3240
  10   1.0000      -0.499576       -13.5941
  11   1.0000      -0.430526       -11.7152
  12   1.0000      -0.369587       -10.0570
  13   0.0000       0.029579         0.8049
  14   0.0000       0.046374         1.2619
  15   0.0000       0.046932         1.2771
  16   0.0000       0.059568         1.6209
  17   0.0000       0.100922         2.7462

                 SPIN DOWN ORBITALS
  NO   OCC          E(Eh)            E(eV)
   0   1.0000     -91.963010     -2502.4407
   1   1.0000     -11.263689      -306.5006
   2   1.0000      -8.962725      -243.8882
   3   1.0000      -6.644903      -180.8170
   4   1.0000      -6.643071      -180.7672
   5   1.0000      -6.627499      -180.3434
   6   1.0000      -1.017199       -27.6794
   7   1.0000      -0.794607       -21.6224
   8   1.0000      -0.597627       -16.2623
   9   1.0000      -0.580728       -15.8024
  10   1.0000      -0.484949       -13.1961
  11   1.0000      -0.350288        -9.5318
  12   0.0000       0.020038         0.5453
  13   0.0000       0.029872         0.8129
  14   0.0000       0.046972         1.2782
  15   0.0000       0.048518         1.3203
  16   0.0000       0.060904         1.6573

MULLIKEN ATOMIC CHARGES AND SPIN POPULATIONS
--------------------------------------------
   0 C :   -0.750472   -0.098276
   1 S :   -0.127115    1.059652
   2 H :    0.301100    0.029147
   3 H :    0.288252    0.004757
   4 H :    0.288236    0.004720
Sum of atomic charges         :   -0.0000000

LOEWDIN ATOMIC CHARGES AND SPIN POPULATIONS
-------------------------------------------
   0 C :    0.020499    0.150607
   1 S :    0.806698    0.815197
   2 H :   -0.274748    0.025294
   3 H :   -0.276222    0.004463
   4 H :   -0.276227    0.004439

  Mayer bond orders larger than 0.100000
B(  0-C ,  1-S ) :   1.0317 B(  0-C ,  2-H ) :   0.9005 B(  0-C ,  3-H ) :   0.9028
B(  0-C ,  4-H ) :   0.9028

MP2 TOTAL ENERGY:     -437.484817033 Eh
FINAL SINGLE POINT ENERGY      -437.484817033234

DIPOLE MOMENT
-------------
                                X             Y             Z
Electronic contribution:     -3.76543       0.00012      -0.06543
Nuclear contribution   :      4.44287      -0.00016       0.07990
                        -----------------------------------------
Total Dipole Moment    :      0.67743      -0.00004       0.01447
                        -----------------------------------------
Magnitude (a.u.)       :      0.67759
Magnitude (Debye)      :      1.72229

Rotational constants in cm-1:     5.310414     0.446379     0.445563
Rotational constants in MHz : 159202.216647 13382.115431 13357.656895

                             ****ORCA TERMINATED NORMALLY****
TOTAL RUN TIME: 0 days 0 hours 0 minutes 12 seconds 852 msec
