                         Program Version 4.2.1 -  RELEASE  -
|  1> %pal
|  2>  nprocs 32
|  3> end
|  4> !RI-MP2 aug-cc-pVTZ aug-cc-pVTZ/C TightSCF
|  5> %maxcore 4500
|  6> *xyzfile -1 1  05_2P.xyz
|  7>
|  8>
|  9>                          ****END OF INPUT****

CARTESIAN COORDINATES (ANGSTROEM)
---------------------------------
  O     -0.332111    1.488490   -0.354358
  C     -0.444420    0.296874    0.295840
  C     -1.836925   -0.242339   -0.002307
  O     -2.784290    0.268909    0.828893
  O     -2.162970   -0.987269   -0.896871
  C      0.604870   -0.762451   -0.129423
  C      2.030611   -0.274865    0.048264
  H      0.441947   -0.983124   -1.188074
  H      0.498209   -1.692840    0.433097
  O      2.935485   -1.001683    0.458850
  N      2.191966    1.013321   -0.309166
  H     -3.629278   -0.033663    0.471071
  H      1.270281    1.533204   -0.428722
  H      3.080225    1.438310   -0.093773
  H     -0.378879    0.393983    1.404215

 Total Charge           Charge          ....   -1
 Multiplicity           Mult            ....    1
 Number of Electrons    NEL             ....   70
 Basis Dimension        Dim             ....  552

ORBITAL ENERGIES
----------------

  NO   OCC          E(Eh)            E(eV)
   0   2.0000     -20.469804      -557.0117
   1   2.0000     -20.402493      -555.1801
   2   2.0000     -20.362550      -554.0931
   3   2.0000     -20.286322      -552.0189
   4   2.0000     -15.401759      -419.1032
   5   2.0000     -11.228688      -305.5481
   6   2.0000     -11.188279      -304.4485
   7   2.0000     -11.120835      -302.6133
   8   2.0000     -11.073406      -301.3227
   9   2.0000      -1.320652       -35.9368
  10   2.0000      -1.217511       -33.1302
  11   2.0000      -1.212663       -32.9982
  12   2.0000      -1.102849       -30.0100
  13   2.0000      -1.034510       -28.1504
  14   2.0000      -0.866523       -23.5793
  15   2.0000      -0.766376       -20.8542
  16   2.0000      -0.644505       -17.5379
  17   2.0000      -0.604565       -16.4511
  18   2.0000      -0.562622       -15.3097
  19   2.0000      -0.554502       -15.0888
  20   2.0000      -0.530573       -14.4376
  21   2.0000      -0.495436       -13.4815
  22   2.0000      -0.485530       -13.2119
  23   2.0000      -0.447501       -12.1771
  24   2.0000      -0.429011       -11.6740
  25   2.0000      -0.426139       -11.5958
  26   2.0000      -0.410157       -11.1609
  27   2.0000      -0.355245        -9.6667
  28   2.0000      -0.349599        -9.5131
  29   2.0000      -0.336882        -9.1670
  30   2.0000      -0.317123        -8.6293
  31   2.0000      -0.266089        -7.2407
  32   2.0000      -0.250324        -6.8117
  33   2.0000      -0.200968        -5.4686
  34   2.0000      -0.197163        -5.3651
  35   0.0000       0.113441         3.0869
  36   0.0000       0.123139         3.3508
  37   0.0000       0.136229         3.7070
  38   0.0000       0.138498         3.7687
  39   0.0000       0.150647         4.0993

MULLIKEN ATOMIC CHARGES
-----------------------
   0 O :   -1.079234
   1 C :    0.759218
   2 C :    0.468350
   3 O :   -0.466200
   4 O :   -0.846098
   5 C :   -0.163227
   6 C :    0.328431
   7 H :    0.291178
   8 H :    0.238813
   9 O :   -0.929530
  10 N :   -0.420933
  11 H :    0.223228
  12 H :    0.256865
  13 H :    0.144053
  14 H :    0.195085
Sum of atomic charges:   -1.0000000

LOEWDIN ATOMIC CHARGES
----------------------
   0 O :    0.370706
   1 C :   -0.537423
   2 C :   -0.829989
   3 O :    0.810545
   4 O :    0.423538
   5 C :    0.240295
   6 C :   -0.721226
   7 H :   -0.168829
   8 H :   -0.172955
   9 O :    0.362637
  10 N :    0.815955
  11 H :   -0.511999
  12 H :   -0.591048
  13 H :   -0.313712
  14 H :   -0.176497

  Mayer bond orders larger than 0.100000
B(  0-O ,  1-C ) :   0.7599 B(  0-O ,  5-C ) :   0.1326 B(  0-O , 12-H ) :   0.2395
B(  1-C ,  2-C ) :   0.3462 B(  1-C ,  5-C ) :   0.9361 B(  1-C ,  7-H ) :   0.1016
B(  1-C , 14-H ) :   1.0778 B(  2-C ,  3-O ) :   0.9150 B(  2-C ,  4-O ) :   1.3557
B(  3-O , 11-H ) :   0.9726 B(  5-C ,  6-C ) :   0.5014 B(  5-C ,  7-H ) :   0.9258
B(  5-C ,  8-H ) :   0.9511 B(  6-C ,  9-O ) :   1.2028 B(  6-C , 10-N ) :   1.0772
B( 10-N , 12-H ) :   0.8179 B( 10-N , 13-H ) :   1.0018

MP2 TOTAL ENERGY:     -510.955273493 Eh
FINAL SINGLE POINT ENERGY      -510.955273492603

DIPOLE MOMENT
-------------
                                X             Y             Z
Electronic contribution:     -2.17051      -0.86553      -0.04843
Nuclear contribution   :      1.23453       0.64567       0.58525
                        -----------------------------------------
Total Dipole Moment    :     -0.93598      -0.21986       0.53682
                        -----------------------------------------
Magnitude (a.u.)       :      1.10117
Magnitude (Debye)      :      2.79895

Rotational constants in cm-1:     0.123453     0.029910     0.026824
Rotational constants in MHz :  3701.032355   896.685968   804.156275

                             ****ORCA TERMINATED NORMALLY****
TOTAL RUN TIME: 0 days 0 hours 2 minutes 23 seconds 972 msec
