                         Program Version 4.2.1 -  RELEASE  -
|  1> %pal
|  2>  nprocs 32
|  3> end
|  4> !RI-MP2 aug-cc-pVTZ aug-cc-pVTZ/C TightSCF
|  5> %maxcore 4500
|  6> *xyzfile 0 2  01_5P.xyz
|  7>
|  8>
|  9>                          ****END OF INPUT****

CARTESIAN COORDINATES (ANGSTROEM)
---------------------------------
  C     -0.949581    0.008529    0.435914
  C     -0.015128    1.258404    0.191175
  C      1.390080    0.683562   -0.055039
  H     -0.068028    1.926351    1.050348
  H     -0.383764    1.810096   -0.674585
  C      1.157193   -0.777441   -0.444935
  H      1.973706    0.726118    0.868839
  H      1.936523    1.247647   -0.811973
  C      0.006603   -1.192276    0.467358
  H      2.046289   -1.399076   -0.328729
  H      0.838175   -0.841868   -1.488399
  O     -1.777000   -0.006398   -0.649540
  H      0.364147   -1.333262    1.492895
  H     -0.501236   -2.107162    0.159238
  H     -1.524822    0.137675    1.361851

 Total Charge           Charge          ....    0
 Multiplicity           Mult            ....    2
 Number of Electrons    NEL             ....   47
 Basis Dimension        Dim             ....  483

ORBITAL ENERGIES
----------------
                 SPIN UP ORBITALS
  NO   OCC          E(Eh)            E(eV)
   0   1.0000     -20.609002      -560.7995
   1   1.0000     -11.277179      -306.8677
   2   1.0000     -11.232984      -305.6650
   3   1.0000     -11.223379      -305.4037
   4   1.0000     -11.221989      -305.3658
   5   1.0000     -11.219610      -305.3011
   6   1.0000      -1.405800       -38.2538
   7   1.0000      -1.116244       -30.3746
   8   1.0000      -0.976599       -26.5746
   9   1.0000      -0.947625       -25.7862
  10   1.0000      -0.796147       -21.6642
  11   1.0000      -0.775604       -21.1053
  12   1.0000      -0.692706       -18.8495
  13   1.0000      -0.668540       -18.1919
  14   1.0000      -0.652263       -17.7490
  15   1.0000      -0.608993       -16.5715
  16   1.0000      -0.577675       -15.7193
  17   1.0000      -0.559106       -15.2141
  18   1.0000      -0.505955       -13.7677
  19   1.0000      -0.488852       -13.3023
  20   1.0000      -0.478742       -13.0272
  21   1.0000      -0.472085       -12.8461
  22   1.0000      -0.450331       -12.2541
  23   1.0000      -0.443478       -12.0676
  24   0.0000       0.029259         0.7962
  25   0.0000       0.036440         0.9916
  26   0.0000       0.038329         1.0430
  27   0.0000       0.042006         1.1430
  28   0.0000       0.054266         1.4767

                 SPIN DOWN ORBITALS
  NO   OCC          E(Eh)            E(eV)
   0   1.0000     -20.569395      -559.7217
   1   1.0000     -11.280134      -306.9481
   2   1.0000     -11.229445      -305.5687
   3   1.0000     -11.223414      -305.4046
   4   1.0000     -11.221290      -305.3468
   5   1.0000     -11.219630      -305.3017
   6   1.0000      -1.282433       -34.8968
   7   1.0000      -1.102787       -30.0083
   8   1.0000      -0.970903       -26.4196
   9   1.0000      -0.930838       -25.3294
  10   1.0000      -0.787410       -21.4265
  11   1.0000      -0.762707       -20.7543
  12   1.0000      -0.678034       -18.4503
  13   1.0000      -0.649357       -17.6699
  14   1.0000      -0.594567       -16.1790
  15   1.0000      -0.587397       -15.9839
  16   1.0000      -0.542187       -14.7537
  17   1.0000      -0.498468       -13.5640
  18   1.0000      -0.487628       -13.2690
  19   1.0000      -0.483912       -13.1679
  20   1.0000      -0.477944       -13.0055
  21   1.0000      -0.469323       -12.7709
  22   1.0000      -0.421181       -11.4609
  23   0.0000       0.029321         0.7979
  24   0.0000       0.036349         0.9891
  25   0.0000       0.037698         1.0258
  26   0.0000       0.042122         1.1462
  27   0.0000       0.054063         1.4711

MULLIKEN ATOMIC CHARGES AND SPIN POPULATIONS
--------------------------------------------
   0 C :    0.456532   -0.265940
   1 C :   -0.666608    0.142976
   2 C :   -0.504449   -0.009896
   3 H :    0.325383    0.001844
   4 H :    0.245223    0.015380
   5 C :   -0.517032    0.000337
   6 H :    0.175832    0.000133
   7 H :    0.345633    0.002175
   8 C :   -0.655390    0.049696
   9 H :    0.335060   -0.000418
  10 H :    0.225957    0.001833
  11 O :   -0.691042    1.046414
  12 H :    0.217597   -0.001213
  13 H :    0.318604   -0.003829
  14 H :    0.388698    0.020508
Sum of atomic charges         :   -0.0000000

LOEWDIN ATOMIC CHARGES AND SPIN POPULATIONS
-------------------------------------------
   0 C :   -0.370885    0.092481
   1 C :    0.312731    0.050122
   2 C :    0.294407    0.005267
   3 H :   -0.150711    0.007389
   4 H :   -0.163726    0.009372
   5 C :    0.283206   -0.000460
   6 H :   -0.146530    0.001001
   7 H :   -0.144237    0.001030
   8 C :    0.281843    0.005083
   9 H :   -0.140973    0.000091
  10 H :   -0.142784   -0.000464
  11 O :    0.534074    0.827500
  12 H :   -0.143211    0.001512
  13 H :   -0.147022    0.000782
  14 H :   -0.156182   -0.000706

  Mayer bond orders larger than 0.100000
B(  0-C ,  1-C ) :   0.9316 B(  0-C ,  8-C ) :   0.9551 B(  0-C , 11-O ) :   0.2428
B(  0-C , 14-H ) :   0.8674 B(  1-C ,  2-C ) :   0.9659 B(  1-C ,  3-H ) :   0.8836
B(  1-C ,  4-H ) :   0.9902 B(  1-C , 11-O ) :   0.2372 B(  2-C ,  5-C ) :   0.9224
B(  2-C ,  6-H ) :   1.0333 B(  2-C ,  7-H ) :   0.8676 B(  5-C ,  8-C ) :   0.9539
B(  5-C ,  9-H ) :   0.8895 B(  5-C , 10-H ) :   0.9841 B(  8-C , 11-O ) :   0.1841
B(  8-C , 12-H ) :   1.0115 B(  8-C , 13-H ) :   0.8842

MP2 TOTAL ENERGY:     -270.555445976 Eh
FINAL SINGLE POINT ENERGY      -270.555445976206

DIPOLE MOMENT
-------------
                                X             Y             Z
Electronic contribution:     -4.24120      -0.13065      -1.17953
Nuclear contribution   :      4.82480       0.17256       1.67904
                        -----------------------------------------
Total Dipole Moment    :      0.58360       0.04191       0.49951
                        -----------------------------------------
Magnitude (a.u.)       :      0.76932
Magnitude (Debye)      :      1.95546

Rotational constants in cm-1:     0.185371     0.120520     0.092066
Rotational constants in MHz :  5557.285269  3613.094086  2760.076656

                             ****ORCA TERMINATED NORMALLY****
TOTAL RUN TIME: 0 days 0 hours 8 minutes 22 seconds 489 msec
