                         Program Version 4.2.1 -  RELEASE  -
|  1> %pal
|  2>  nprocs 32
|  3> end
|  4> !RI-MP2 aug-cc-pVTZ aug-cc-pVTZ/C TightSCF
|  5> %maxcore 4500
|  6> *xyzfile 0 2  01_3P.xyz
|  7>
|  8>
|  9>                          ****END OF INPUT****

CARTESIAN COORDINATES (ANGSTROEM)
---------------------------------
  C      0.446828    1.074331    0.082194
  C      1.552627    0.000025    0.035612
  C      0.446858   -1.074320    0.082031
  C     -0.577438   -0.000004   -0.403613
  C     -1.939868   -0.000071    0.151564
  H      2.294292   -0.000021    0.834463
  H      2.073206    0.000105   -0.923912
  H      0.224763   -1.377941    1.107432
  H      0.560203   -1.967438   -0.533400
  H     -2.821053    0.000848   -0.476345
  H     -2.084226   -0.000759    1.226450
  H      0.560124    1.967532   -0.533123
  H      0.224720    1.377798    1.107636
  H     -0.606074    0.000118   -1.495929

 Total Charge           Charge          ....    0
 Multiplicity           Mult            ....    2
 Number of Electrons    NEL             ....   39
 Basis Dimension        Dim             ....  437

ORBITAL ENERGIES
----------------
                 SPIN UP ORBITALS
  NO   OCC          E(Eh)            E(eV)
   0   1.0000     -11.225472      -305.4606
   1   1.0000     -11.223884      -305.4174
   2   1.0000     -11.218451      -305.2696
   3   1.0000     -11.218415      -305.2686
   4   1.0000     -11.215945      -305.2014
   5   1.0000      -1.134784       -30.8791
   6   1.0000      -0.987271       -26.8650
   7   1.0000      -0.896246       -24.3881
   8   1.0000      -0.837773       -22.7970
   9   1.0000      -0.745175       -20.2773
  10   1.0000      -0.653444       -17.7811
  11   1.0000      -0.626352       -17.0439
  12   1.0000      -0.586159       -15.9502
  13   1.0000      -0.537221       -14.6185
  14   1.0000      -0.518666       -14.1136
  15   1.0000      -0.516857       -14.0644
  16   1.0000      -0.458924       -12.4879
  17   1.0000      -0.444882       -12.1059
  18   1.0000      -0.434316       -11.8183
  19   1.0000      -0.336453        -9.1554
  20   0.0000       0.031270         0.8509
  21   0.0000       0.037107         1.0097
  22   0.0000       0.037996         1.0339
  23   0.0000       0.041226         1.1218
  24   0.0000       0.054790         1.4909

                 SPIN DOWN ORBITALS
  NO   OCC          E(Eh)            E(eV)
   0   1.0000     -11.227912      -305.5270
   1   1.0000     -11.216413      -305.2141
   2   1.0000     -11.215763      -305.1964
   3   1.0000     -11.215512      -305.1896
   4   1.0000     -11.202515      -304.8359
   5   1.0000      -1.127298       -30.6753
   6   1.0000      -0.943945       -25.6860
   7   1.0000      -0.889380       -24.2013
   8   1.0000      -0.805015       -21.9056
   9   1.0000      -0.739894       -20.1335
  10   1.0000      -0.650680       -17.7059
  11   1.0000      -0.620859       -16.8944
  12   1.0000      -0.576866       -15.6973
  13   1.0000      -0.535423       -14.5696
  14   1.0000      -0.513358       -13.9692
  15   1.0000      -0.488595       -13.2953
  16   1.0000      -0.455644       -12.3987
  17   1.0000      -0.433016       -11.7830
  18   1.0000      -0.428747       -11.6668
  19   0.0000       0.031650         0.8612
  20   0.0000       0.037257         1.0138
  21   0.0000       0.038405         1.0451
  22   0.0000       0.038554         1.0491
  23   0.0000       0.054895         1.4938

MULLIKEN ATOMIC CHARGES AND SPIN POPULATIONS
--------------------------------------------
   0 C :   -0.800106    0.098974
   1 C :   -0.681640   -0.013526
   2 C :   -0.800190    0.098825
   3 C :    0.515782   -0.230886
   4 C :   -1.165580    1.198019
   5 H :    0.389510   -0.000492
   6 H :    0.166085   -0.001093
   7 H :    0.206043   -0.002776
   8 H :    0.399046   -0.005493
   9 H :    0.353550   -0.062044
  10 H :    0.383958   -0.068598
  11 H :    0.399075   -0.005506
  12 H :    0.206088   -0.002783
  13 H :    0.428379   -0.002622
Sum of atomic charges         :    0.0000000

LOEWDIN ATOMIC CHARGES AND SPIN POPULATIONS
-------------------------------------------
   0 C :    0.318482    0.034381
   1 C :    0.314044    0.009115
   2 C :    0.318451    0.034316
   3 C :   -0.055468    0.110214
   4 C :    0.607908    0.552752
   5 H :   -0.152227    0.001073
   6 H :   -0.153211    0.000680
   7 H :   -0.153779    0.004025
   8 H :   -0.147488    0.004189
   9 H :   -0.227768    0.124421
  10 H :   -0.219193    0.116823
  11 H :   -0.147496    0.004197
  12 H :   -0.153780    0.004038
  13 H :   -0.148477   -0.000223

  Mayer bond orders larger than 0.100000
B(  0-C ,  1-C ) :   1.1954 B(  0-C ,  3-C ) :   0.9197 B(  0-C , 11-H ) :   0.8074
B(  0-C , 12-H ) :   1.0099 B(  0-C , 13-H ) :  -0.1542 B(  1-C ,  2-C ) :   1.1955
B(  1-C ,  3-C ) :  -0.3806 B(  1-C ,  5-H ) :   0.8243 B(  1-C ,  6-H ) :   1.0153
B(  2-C ,  3-C ) :   0.9198 B(  2-C ,  7-H ) :   1.0100 B(  2-C ,  8-H ) :   0.8074
B(  2-C , 13-H ) :  -0.1543 B(  3-C ,  4-C ) :   0.4951 B(  3-C , 13-H ) :   0.9014
B(  4-C ,  9-H ) :   0.9013 B(  4-C , 10-H ) :   0.8998

MP2 TOTAL ENERGY:     -195.411430165 Eh
FINAL SINGLE POINT ENERGY      -195.411430164847

DIPOLE MOMENT
-------------
                                X             Y             Z
Electronic contribution:     -0.39174      -0.00014      -0.37113
Nuclear contribution   :      0.45133       0.00025       0.33193
                        -----------------------------------------
Total Dipole Moment    :      0.05959       0.00011      -0.03919
                        -----------------------------------------
Magnitude (a.u.)       :      0.07133
Magnitude (Debye)      :      0.18130

Rotational constants in cm-1:     0.334658     0.143944     0.115897
Rotational constants in MHz : 10032.794065  4315.318959  3474.495829

                             ****ORCA TERMINATED NORMALLY****
TOTAL RUN TIME: 0 days 0 hours 1 minutes 42 seconds 901 msec
