                         Program Version 4.2.1 -  RELEASE  -
|  1> %pal
|  2>  nprocs 32
|  3> end
|  4> !RI-MP2 aug-cc-pVTZ aug-cc-pVTZ/C TightSCF
|  5> %maxcore 4500
|  6> *xyzfile 1 1  10_28TS.xyz
|  7>
|  8>
|  9>                          ****END OF INPUT****

CARTESIAN COORDINATES (ANGSTROEM)
---------------------------------
  C     -1.640327    3.206491   -0.428363
  C     -1.199830    2.068530    0.508816
  C      0.703688    3.132876    0.123798
  C     -0.300801    3.946180   -0.710578
  H     -2.119481    2.821796   -1.327120
  H     -2.356699    3.847788    0.085593
  H     -0.033819    3.956317   -1.768144
  H     -0.325965    4.981915   -0.371608
  C     -0.119201    2.744809    1.354224
  H      0.396700    2.073605    2.038919
  H     -0.497728    3.609282    1.896061
  H     -1.994362    1.527489    1.005149
  H      1.680056    3.582133    0.284497
  N      0.864047    1.790581   -0.489534
  N     -0.367132    1.170134   -0.326390
  C     -0.435275   -0.147731   -0.552651
  C     -1.645729   -0.928836   -0.233220
  C     -2.180900   -0.995635    1.054386
  C     -2.241653   -1.662524   -1.257585
  C     -3.309224   -1.758033    1.301932
  H     -1.700225   -0.477047    1.875306
  C     -3.376546   -2.419863   -1.009382
  H     -1.820426   -1.634533   -2.255973
  C     -3.912848   -2.465448    0.268760
  H     -3.714309   -1.810984    2.304518
  H     -3.837618   -2.978652   -1.813731
  H     -4.794587   -3.062178    0.465531
  H      0.076552   -0.462513   -1.452595
  H      1.161861    1.803570   -1.461606
  C      2.118967    0.052873    0.616611
  H      2.224055    0.783467    1.405827
  C      1.156931   -0.939930    0.569152
  H      0.537645   -1.169992    1.427182
  C      1.757975   -2.043813   -0.300931
  C      3.274306   -0.374330   -0.243065
  C      2.565488   -1.215501   -1.315133
  H      1.046188   -2.765959   -0.698051
  H      3.259512   -1.822216   -1.897038
  H      1.966687   -0.626354   -2.011789
  H      3.955565    0.407757   -0.570343
  C      2.910110   -2.660545    0.535217
  C      3.950154   -1.508705    0.595454
  H      3.319019   -3.535649    0.029185
  H      2.572136   -2.978697    1.521318
  H      4.891656   -1.790841    0.122852
  H      4.177469   -1.189699    1.612866

 Total Charge           Charge          ....    1
 Multiplicity           Mult            ....    1
 Number of Electrons    NEL             ....  152
 Basis Dimension        Dim             .... 1541

ORBITAL ENERGIES
----------------

  NO   OCC          E(Eh)            E(eV)
   0   2.0000     -15.769477      -429.1093
   1   2.0000     -15.751813      -428.6286
   2   2.0000     -11.462384      -311.9073
   3   2.0000     -11.408787      -310.4489
   4   2.0000     -11.402557      -310.2793
   5   2.0000     -11.398198      -310.1607
   6   2.0000     -11.373052      -309.4765
   7   2.0000     -11.361303      -309.1568
   8   2.0000     -11.360749      -309.1417
   9   2.0000     -11.360226      -309.1275
  10   2.0000     -11.354473      -308.9709
  11   2.0000     -11.351359      -308.8862
  12   2.0000     -11.349403      -308.8330
  13   2.0000     -11.349338      -308.8312
  14   2.0000     -11.348818      -308.8170
  15   2.0000     -11.347559      -308.7828
  16   2.0000     -11.346747      -308.7607
  17   2.0000     -11.344152      -308.6901
  18   2.0000     -11.339527      -308.5642
  19   2.0000     -11.333735      -308.4066
  20   2.0000     -11.324953      -308.1676
  21   2.0000      -1.513437       -41.1827
  22   2.0000      -1.312966       -35.7276
  23   2.0000      -1.302579       -35.4450
  24   2.0000      -1.270511       -34.5724
  25   2.0000      -1.246723       -33.9251
  26   2.0000      -1.165233       -31.7076
  27   2.0000      -1.139600       -31.0101
  28   2.0000      -1.131440       -30.7880
  29   2.0000      -1.111088       -30.2343
  30   2.0000      -1.100966       -29.9588
  31   2.0000      -1.082582       -29.4586
  32   2.0000      -1.070297       -29.1243
  33   2.0000      -1.003588       -27.3090
  34   2.0000      -0.964591       -26.2479
  35   2.0000      -0.952624       -25.9222
  36   2.0000      -0.922972       -25.1153
  37   2.0000      -0.921281       -25.0693
  38   2.0000      -0.902608       -24.5612
  39   2.0000      -0.890966       -24.2444
  40   2.0000      -0.864051       -23.5120
  41   2.0000      -0.842506       -22.9258
  42   2.0000      -0.833821       -22.6894
  43   2.0000      -0.819480       -22.2992
  44   2.0000      -0.806281       -21.9400
  45   2.0000      -0.795463       -21.6457
  46   2.0000      -0.783273       -21.3139
  47   2.0000      -0.763321       -20.7710
  48   2.0000      -0.753660       -20.5081
  49   2.0000      -0.738109       -20.0850
  50   2.0000      -0.727711       -19.8020
  51   2.0000      -0.721328       -19.6283
  52   2.0000      -0.709201       -19.2983
  53   2.0000      -0.699710       -19.0401
  54   2.0000      -0.687769       -18.7152
  55   2.0000      -0.667489       -18.1633
  56   2.0000      -0.661884       -18.0108
  57   2.0000      -0.659935       -17.9577
  58   2.0000      -0.648423       -17.6445
  59   2.0000      -0.638870       -17.3845
  60   2.0000      -0.631380       -17.1807
  61   2.0000      -0.623205       -16.9583
  62   2.0000      -0.622353       -16.9351
  63   2.0000      -0.615617       -16.7518
  64   2.0000      -0.613542       -16.6953
  65   2.0000      -0.608232       -16.5508
  66   2.0000      -0.604455       -16.4481
  67   2.0000      -0.597492       -16.2586
  68   2.0000      -0.593542       -16.1511
  69   2.0000      -0.582388       -15.8476
  70   2.0000      -0.577306       -15.7093
  71   2.0000      -0.556293       -15.1375
  72   2.0000      -0.514142       -13.9905
  73   2.0000      -0.458578       -12.4786
  74   2.0000      -0.455609       -12.3978
  75   2.0000      -0.443880       -12.0786
  76   0.0000      -0.069786        -1.8990
  77   0.0000      -0.061030        -1.6607
  78   0.0000      -0.054324        -1.4782
  79   0.0000      -0.049762        -1.3541
  80   0.0000      -0.045307        -1.2329

MULLIKEN ATOMIC CHARGES
-----------------------
   0 C :   -0.887797
   1 C :   -0.451153
   2 C :   -0.362422
   3 C :   -0.636114
   4 H :    0.309071
   5 H :    0.233254
   6 H :    0.249346
   7 H :    0.276568
   8 C :   -0.710768
   9 H :    0.193851
  10 H :    0.353531
  11 H :    0.577978
  12 H :    0.580462
  13 N :   -0.370524
  14 N :    0.483638
  15 C :    0.756288
  16 C :    2.622670
  17 C :   -0.499722
  18 C :   -1.232836
  19 C :   -1.252910
  20 H :   -0.013909
  21 C :   -0.671303
  22 H :   -0.416035
  23 C :    0.043290
  24 H :    0.379326
  25 H :    0.655157
  26 H :    0.651476
  27 H :    0.174905
  28 H :   -0.259390
  29 C :   -0.716714
  30 H :    0.573327
  31 C :   -0.231135
  32 H :    0.596987
  33 C :   -0.225632
  34 C :   -0.456542
  35 C :   -0.648665
  36 H :    0.591037
  37 H :    0.523179
  38 H :    0.146194
  39 H :    0.526528
  40 C :   -0.853641
  41 C :   -0.694392
  42 H :    0.324999
  43 H :    0.224759
  44 H :    0.294531
  45 H :    0.249254
Sum of atomic charges:    1.0000000

LOEWDIN ATOMIC CHARGES
----------------------
   0 C :    0.370387
   1 C :   -0.009795
   2 C :   -0.029802
   3 C :    0.366414
   4 H :   -0.131665
   5 H :   -0.128119
   6 H :   -0.135222
   7 H :   -0.130420
   8 C :    0.363933
   9 H :   -0.133379
  10 H :   -0.112467
  11 H :   -0.140393
  12 H :   -0.099236
  13 N :    0.533415
  14 N :    0.227288
  15 C :    0.103920
  16 C :   -0.093126
  17 C :    0.213984
  18 C :    0.239718
  19 C :    0.236367
  20 H :   -0.170165
  21 C :    0.233007
  22 H :   -0.161152
  23 C :    0.231403
  24 H :   -0.168673
  25 H :   -0.168971
  26 H :   -0.165240
  27 H :   -0.187784
  28 H :   -0.233397
  29 C :    0.262330
  30 H :   -0.130896
  31 C :    0.182399
  32 H :   -0.155883
  33 C :    0.033606
  34 C :    0.056176
  35 C :    0.334013
  36 H :   -0.108100
  37 H :   -0.113138
  38 H :   -0.149830
  39 H :   -0.110726
  40 C :    0.352921
  41 C :    0.358834
  42 H :   -0.133429
  43 H :   -0.134493
  44 H :   -0.130720
  45 H :   -0.133892

  Mayer bond orders larger than 0.100000
B(  0-C ,  1-C ) :   0.9523 B(  0-C ,  3-C ) :   1.2063 B(  0-C ,  4-H ) :   0.9664
B(  0-C ,  5-H ) :   1.0341 B(  0-C ,  8-C ) :   0.1152 B(  0-C , 11-H ) :  -0.1132
B(  0-C , 13-N ) :   0.1093 B(  0-C , 14-N ) :  -0.2566 B(  0-C , 15-C ) :  -0.1196
B(  1-C ,  2-C ) :  -0.1224 B(  1-C ,  8-C ) :   0.9273 B(  1-C , 11-H ) :   0.5828
B(  1-C , 13-N ) :  -0.1063 B(  1-C , 14-N ) :   1.2139 B(  1-C , 16-C ) :  -0.1644
B(  2-C ,  3-C ) :   0.9400 B(  2-C ,  8-C ) :   1.0637 B(  2-C , 12-H ) :   0.6182
B(  2-C , 13-N ) :   1.3363 B(  2-C , 14-N ) :  -0.2781 B(  3-C ,  6-H ) :   0.9852
B(  3-C ,  7-H ) :   0.9535 B(  8-C ,  9-H ) :   1.0706 B(  8-C , 10-H ) :   0.9170
B(  8-C , 14-N ) :  -0.1472 B( 13-N , 14-N ) :   0.2063 B( 13-N , 15-C ) :   0.1173
B( 13-N , 28-H ) :   1.0577 B( 13-N , 29-C ) :   0.1584 B( 13-N , 31-C ) :   0.1511
B( 14-N , 15-C ) :   1.1976 B( 14-N , 16-C ) :  -0.1029 B( 14-N , 18-C ) :  -0.1018
B( 14-N , 20-H ) :   0.1295 B( 14-N , 27-H ) :   0.3560 B( 14-N , 29-C ) :  -0.1494
B( 14-N , 31-C ) :  -0.1860 B( 15-C , 16-C ) :   0.2152 B( 15-C , 17-C ) :  -0.3121
B( 15-C , 18-C ) :   0.7198 B( 15-C , 19-C ) :   0.2429 B( 15-C , 20-H ) :  -0.6354
B( 15-C , 21-C ) :   0.2508 B( 15-C , 22-H ) :  -0.4668 B( 15-C , 23-C ) :   0.1313
B( 15-C , 26-H ) :   0.1316 B( 15-C , 27-H ) :   0.7276 B( 15-C , 28-H ) :   0.1075
B( 15-C , 31-C ) :   0.4271 B( 15-C , 32-H ) :   0.1083 B( 15-C , 35-C ) :  -0.1156
B( 15-C , 38-H ) :  -0.1208 B( 16-C , 17-C ) :   1.0220 B( 16-C , 18-C ) :  -0.7334
B( 16-C , 19-C ) :  -0.2729 B( 16-C , 22-H ) :  -0.8534 B( 16-C , 23-C ) :   0.2027
B( 16-C , 24-H ) :  -0.1554 B( 16-C , 26-H ) :   0.1268 B( 16-C , 27-H ) :  -0.1150
B( 17-C , 18-C ) :  -0.7342 B( 17-C , 19-C ) :   1.5487 B( 17-C , 20-H ) :   1.5741
B( 17-C , 22-H ) :   0.3110 B( 17-C , 23-C ) :  -0.1114 B( 17-C , 26-H ) :  -0.1345
B( 18-C , 19-C ) :   0.2713 B( 18-C , 20-H ) :   0.2508 B( 18-C , 21-C ) :   1.3722
B( 18-C , 22-H ) :   2.7602 B( 18-C , 23-C ) :  -0.2523 B( 18-C , 25-H ) :  -0.1425
B( 18-C , 26-H ) :   0.1726 B( 18-C , 27-H ) :  -0.1266 B( 19-C , 21-C ) :   0.2389
B( 19-C , 23-C ) :   1.1162 B( 19-C , 24-H ) :   0.8692 B( 19-C , 26-H ) :  -0.2750
B( 20-H , 22-H ) :   0.3158 B( 20-H , 23-C ) :  -0.1496 B( 21-C , 22-H ) :  -0.1316
B( 21-C , 23-C ) :   1.0640 B( 21-C , 25-H ) :   0.4616 B( 21-C , 26-H ) :  -0.2498
B( 22-H , 23-C ) :  -0.1159 B( 22-H , 25-H ) :  -0.1004 B( 22-H , 27-H ) :  -0.1194
B( 23-C , 24-H ) :   0.1063 B( 23-C , 26-H ) :   0.5024 B( 29-C , 30-H ) :   0.6642
B( 29-C , 31-C ) :   1.7718 B( 29-C , 32-H ) :  -0.3741 B( 29-C , 34-C ) :   1.1536
B( 31-C , 32-H ) :   0.6803 B( 31-C , 33-C ) :   0.9540 B( 31-C , 36-H ) :  -0.1131
B( 31-C , 40-C ) :  -0.1074 B( 33-C , 35-C ) :   0.9798 B( 33-C , 36-H ) :   0.6185
B( 33-C , 40-C ) :   0.9475 B( 34-C , 35-C ) :   1.0255 B( 34-C , 39-H ) :   0.6954
B( 34-C , 41-C ) :   1.0293 B( 35-C , 36-H ) :  -0.1270 B( 35-C , 37-H ) :   0.7216
B( 35-C , 38-H ) :   1.1900 B( 36-H , 40-C ) :  -0.1047 B( 40-C , 41-C ) :   1.1335
B( 40-C , 42-H ) :   0.9061 B( 40-C , 43-H ) :   1.0436 B( 41-C , 44-H ) :   0.9263
B( 41-C , 45-H ) :   1.0133

MP2 TOTAL ENERGY:     -846.510699481 Eh
FINAL SINGLE POINT ENERGY      -846.510699480816

DIPOLE MOMENT
-------------
                                X             Y             Z
Electronic contribution:     -8.07236      -2.13104      -0.55430
Nuclear contribution   :      8.24268       3.17257       0.45132
                        -----------------------------------------
Total Dipole Moment    :      0.17032       1.04153      -0.10298
                        -----------------------------------------
Magnitude (a.u.)       :      1.06038
Magnitude (Debye)      :      2.69526

Rotational constants in cm-1:     0.011813     0.010199     0.006294
Rotational constants in MHz :   354.138341   305.767608   188.676567

                             ****ORCA TERMINATED NORMALLY****
TOTAL RUN TIME: 0 days 1 hours 40 minutes 21 seconds 693 msec
