                         Program Version 4.2.1 -  RELEASE  -
|  1> %pal
|  2>  nprocs 32
|  3> end
|  4> !RI-MP2 aug-cc-pVTZ aug-cc-pVTZ/C TightSCF
|  5> %maxcore 4500
|  6> *xyzfile 0 1  10_48R.xyz
|  7>
|  8>
|  9>                          ****END OF INPUT****

CARTESIAN COORDINATES (ANGSTROEM)
---------------------------------
  C     -2.798793    0.842171    0.409892
  C     -1.734243    1.494873   -0.490164
  C     -0.531686    0.617344   -0.494391
  C     -0.471516   -0.628039   -0.026827
  C     -1.603361   -1.416564    0.533624
  C     -2.907936   -0.674766    0.191787
  H     -2.114955    1.622927   -1.510702
  H     -1.488582    2.499201   -0.130170
  H     -2.533949    1.028901    1.456259
  H     -3.771789    1.310798    0.243784
  H     -1.622720   -2.434721    0.133720
  H     -1.490615   -1.518799    1.620120
  H     -3.155147   -0.864044   -0.858419
  H     -3.733698   -1.074312    0.785324
  C      2.805981    0.612396    0.732007
  C      1.846954    1.608363    0.059071
  C      1.033440   -0.740334   -0.217656
  C      1.943174   -0.626656    1.009317
  H      3.280627    1.014953    1.629370
  H      2.374775    2.378386   -0.506225
  H      1.245029    2.117927    0.818017
  H      2.527172   -1.537533    1.140773
  H      1.342772   -0.476337    1.910006
  H      3.603369    0.344570    0.032526
  O      1.519103   -1.778140   -1.047447
  H      0.973003   -1.815193   -1.838225
  C      0.952558    0.720504   -0.817746
  H      1.204455    0.772646   -1.880056

 Total Charge           Charge          ....    0
 Multiplicity           Mult            ....    1
 Number of Electrons    NEL             ....   90
 Basis Dimension        Dim             ....  920

ORBITAL ENERGIES
----------------

  NO   OCC          E(Eh)            E(eV)
   0   2.0000     -20.550642      -559.2114
   1   2.0000     -11.278710      -306.9093
   2   2.0000     -11.225942      -305.4734
   3   2.0000     -11.224189      -305.4257
   4   2.0000     -11.222682      -305.3847
   5   2.0000     -11.222062      -305.3678
   6   2.0000     -11.221931      -305.3643
   7   2.0000     -11.219501      -305.2981
   8   2.0000     -11.213651      -305.1389
   9   2.0000     -11.212988      -305.1209
  10   2.0000     -11.210628      -305.0567
  11   2.0000     -11.208779      -305.0064
  12   2.0000      -1.358483       -36.9662
  13   2.0000      -1.170363       -31.8472
  14   2.0000      -1.097054       -29.8524
  15   2.0000      -1.038293       -28.2534
  16   2.0000      -1.010516       -27.4975
  17   2.0000      -0.958182       -26.0735
  18   2.0000      -0.914274       -24.8787
  19   2.0000      -0.841593       -22.9009
  20   2.0000      -0.820472       -22.3262
  21   2.0000      -0.773207       -21.0400
  22   2.0000      -0.762579       -20.7508
  23   2.0000      -0.701142       -19.0791
  24   2.0000      -0.665656       -18.1134
  25   2.0000      -0.653828       -17.7916
  26   2.0000      -0.617120       -16.7927
  27   2.0000      -0.606276       -16.4976
  28   2.0000      -0.590087       -16.0571
  29   2.0000      -0.588084       -16.0026
  30   2.0000      -0.574383       -15.6298
  31   2.0000      -0.556839       -15.1524
  32   2.0000      -0.552263       -15.0278
  33   2.0000      -0.532367       -14.4864
  34   2.0000      -0.521319       -14.1858
  35   2.0000      -0.504074       -13.7165
  36   2.0000      -0.487994       -13.2790
  37   2.0000      -0.482861       -13.1393
  38   2.0000      -0.470245       -12.7960
  39   2.0000      -0.468515       -12.7489
  40   2.0000      -0.464643       -12.6436
  41   2.0000      -0.433659       -11.8005
  42   2.0000      -0.415664       -11.3108
  43   2.0000      -0.392208       -10.6725
  44   2.0000      -0.329422        -8.9640
  45   0.0000       0.026123         0.7108
  46   0.0000       0.031361         0.8534
  47   0.0000       0.033452         0.9103
  48   0.0000       0.034236         0.9316
  49   0.0000       0.045234         1.2309

MULLIKEN ATOMIC CHARGES
-----------------------
   0 C :   -0.526681
   1 C :   -0.534701
   2 C :    0.417445
   3 C :    0.080489
   4 C :   -0.668095
   5 C :   -0.510277
   6 H :    0.169969
   7 H :    0.227032
   8 H :    0.156486
   9 H :    0.307123
  10 H :    0.246827
  11 H :    0.172216
  12 H :    0.172083
  13 H :    0.296683
  14 C :   -0.705021
  15 C :   -0.422334
  16 C :    1.161224
  17 C :   -0.493907
  18 H :    0.366685
  19 H :    0.299884
  20 H :    0.203628
  21 H :    0.326815
  22 H :    0.217566
  23 H :    0.147941
  24 O :   -1.024630
  25 H :    0.186105
  26 C :   -0.575144
  27 H :    0.304590
Sum of atomic charges:    0.0000000

LOEWDIN ATOMIC CHARGES
----------------------
   0 C :    0.296024
   1 C :    0.317836
   2 C :   -0.012067
   3 C :    0.001407
   4 C :    0.317846
   5 C :    0.294463
   6 H :   -0.142135
   7 H :   -0.143928
   8 H :   -0.138772
   9 H :   -0.143096
  10 H :   -0.143693
  11 H :   -0.140994
  12 H :   -0.139594
  13 H :   -0.143137
  14 C :    0.311194
  15 C :    0.323249
  16 C :   -0.493390
  17 C :    0.323021
  18 H :   -0.141210
  19 H :   -0.144760
  20 H :   -0.143879
  21 H :   -0.146694
  22 H :   -0.141025
  23 H :   -0.139172
  24 O :    0.846168
  25 H :   -0.481839
  26 C :    0.072379
  27 H :   -0.124199

  Mayer bond orders larger than 0.100000
B(  0-C ,  1-C ) :   0.9903 B(  0-C ,  5-C ) :   0.8774 B(  0-C ,  8-H ) :   1.0674
B(  0-C ,  9-H ) :   0.9310 B(  1-C ,  2-C ) :   0.4685 B(  1-C ,  6-H ) :   1.1197
B(  1-C ,  7-H ) :   1.0453 B(  2-C ,  3-C ) :   1.6179 B(  2-C , 15-C ) :   0.1823
B(  2-C , 26-C ) :   0.9182 B(  3-C ,  4-C ) :   0.4741 B(  3-C , 16-C ) :   1.0640
B(  3-C , 24-O ) :   0.1785 B(  4-C ,  5-C ) :   0.9861 B(  4-C , 10-H ) :   1.0497
B(  4-C , 11-H ) :   1.1009 B(  5-C , 12-H ) :   1.0602 B(  5-C , 13-H ) :   0.9446
B( 14-C , 15-C ) :   0.9423 B( 14-C , 17-C ) :   1.0126 B( 14-C , 18-H ) :   0.8606
B( 14-C , 23-H ) :   1.0731 B( 14-C , 26-C ) :   0.1216 B( 15-C , 19-H ) :   0.9245
B( 15-C , 20-H ) :   1.0123 B( 15-C , 26-C ) :   0.8774 B( 16-C , 17-C ) :   0.7598
B( 16-C , 24-O ) :  -0.5306 B( 16-C , 26-C ) :   1.2995 B( 17-C , 21-H ) :   0.8824
B( 17-C , 22-H ) :   1.0502 B( 24-O , 25-H ) :   1.0393 B( 24-O , 26-C ) :   0.2396
B( 26-C , 27-H ) :   0.8147

MP2 TOTAL ENERGY:     -502.962742297 Eh
FINAL SINGLE POINT ENERGY      -502.962742296954

DIPOLE MOMENT
-------------
                                X             Y             Z
Electronic contribution:      2.78885      -2.98756      -3.14784
Nuclear contribution   :     -3.43337       3.43855       3.11773
                        -----------------------------------------
Total Dipole Moment    :     -0.64453       0.45099      -0.03011
                        -----------------------------------------
Magnitude (a.u.)       :      0.78722
Magnitude (Debye)      :      2.00095

Rotational constants in cm-1:     0.056513     0.024458     0.020399
Rotational constants in MHz :  1694.215045   733.220541   611.551035

                             ****ORCA TERMINATED NORMALLY****
TOTAL RUN TIME: 0 days 0 hours 14 minutes 19 seconds 767 msec
