                         Program Version 4.2.1 -  RELEASE  -
|  1> %pal
|  2>  nprocs 32
|  3> end
|  4> !RI-MP2 aug-cc-pVTZ aug-cc-pVTZ/C TightSCF
|  5> %maxcore 4500
|  6> *xyzfile 0 1  10_60TS.xyz
|  7>
|  8>
|  9>                          ****END OF INPUT****

CARTESIAN COORDINATES (ANGSTROEM)
---------------------------------
  C      0.662918    0.838661    1.741357
  C     -0.015770    2.081044    0.520303
  C     -0.077619    1.346659   -0.690552
  C     -1.048269    0.235060   -0.624014
  C     -0.432022   -0.882012    0.476665
  C      0.856064   -0.353805    0.989448
  C      1.130020    0.961253   -1.284425
  F     -1.221970   -0.417288   -1.793398
  F     -1.367941   -1.028622    1.442501
  C      1.830781   -0.313296   -0.002447
  C      3.002660   -0.784094   -0.355721
  F     -0.327299   -2.059432   -0.170060
  H      1.938126    1.684847   -1.275170
  F     -2.271157    0.598014   -0.176386
  H      3.495590   -0.474828   -1.268967
  H      3.507461   -1.513779    0.265917
  H      1.089098    0.331734   -2.165947
  H      1.569423    1.323001    2.087856
  H     -0.123977    0.802809    2.486663
  H      0.727470    2.871109    0.551331
  H     -0.960467    2.364237    0.970728

 Total Charge           Charge          ....    0
 Multiplicity           Mult            ....    1
 Number of Electrons    NEL             ....   98
 Basis Dimension        Dim             ....  782

ORBITAL ENERGIES
----------------

  NO   OCC          E(Eh)            E(eV)
   0   2.0000     -26.320610      -716.2202
   1   2.0000     -26.320543      -716.2184
   2   2.0000     -26.319785      -716.1977
   3   2.0000     -26.317858      -716.1453
   4   2.0000     -11.431212      -311.0591
   5   2.0000     -11.430327      -311.0350
   6   2.0000     -11.285173      -307.0852
   7   2.0000     -11.270501      -306.6859
   8   2.0000     -11.268758      -306.6385
   9   2.0000     -11.268231      -306.6242
  10   2.0000     -11.260898      -306.4246
  11   2.0000     -11.257913      -306.3434
  12   2.0000     -11.252593      -306.1986
  13   2.0000      -1.685536       -45.8658
  14   2.0000      -1.664474       -45.2926
  15   2.0000      -1.618281       -44.0357
  16   2.0000      -1.604539       -43.6617
  17   2.0000      -1.193283       -32.4709
  18   2.0000      -1.099727       -29.9251
  19   2.0000      -1.050658       -28.5898
  20   2.0000      -1.008020       -27.4296
  21   2.0000      -0.956441       -26.0261
  22   2.0000      -0.907043       -24.6819
  23   2.0000      -0.870841       -23.6968
  24   2.0000      -0.825050       -22.4508
  25   2.0000      -0.806766       -21.9532
  26   2.0000      -0.786286       -21.3959
  27   2.0000      -0.774799       -21.0833
  28   2.0000      -0.753167       -20.4947
  29   2.0000      -0.734278       -19.9807
  30   2.0000      -0.697936       -18.9918
  31   2.0000      -0.689725       -18.7684
  32   2.0000      -0.686111       -18.6700
  33   2.0000      -0.664238       -18.0748
  34   2.0000      -0.655732       -17.8434
  35   2.0000      -0.651663       -17.7327
  36   2.0000      -0.640804       -17.4372
  37   2.0000      -0.631181       -17.1753
  38   2.0000      -0.626547       -17.0492
  39   2.0000      -0.609651       -16.5895
  40   2.0000      -0.594791       -16.1851
  41   2.0000      -0.587793       -15.9947
  42   2.0000      -0.560097       -15.2410
  43   2.0000      -0.551084       -14.9958
  44   2.0000      -0.524242       -14.2654
  45   2.0000      -0.468813       -12.7571
  46   2.0000      -0.407419       -11.0864
  47   2.0000      -0.396358       -10.7854
  48   2.0000      -0.320987        -8.7345
  49   0.0000       0.021640         0.5888
  50   0.0000       0.026036         0.7085
  51   0.0000       0.031656         0.8614
  52   0.0000       0.037370         1.0169
  53   0.0000       0.042932         1.1682

MULLIKEN ATOMIC CHARGES
-----------------------
   0 C :   -0.652881
   1 C :   -0.656501
   2 C :   -0.374044
   3 C :    1.335005
   4 C :    1.201301
   5 C :   -0.530737
   6 C :   -0.738637
   7 F :   -0.540573
   8 F :   -0.524770
   9 C :    1.358163
  10 C :   -1.665202
  11 F :   -0.539859
  12 H :    0.337547
  13 F :   -0.528134
  14 H :    0.471641
  15 H :    0.238314
  16 H :    0.387439
  17 H :    0.378866
  18 H :    0.361633
  19 H :    0.333396
  20 H :    0.348033
Sum of atomic charges:    0.0000000

LOEWDIN ATOMIC CHARGES
----------------------
   0 C :    0.396077
   1 C :    0.402732
   2 C :   -0.151877
   3 C :   -1.055915
   4 C :   -1.064094
   5 C :   -0.148298
   6 C :    0.401803
   7 F :    0.530252
   8 F :    0.526719
   9 C :   -0.021429
  10 C :    0.540688
  11 F :    0.528586
  12 H :   -0.160455
  13 F :    0.526888
  14 H :   -0.214356
  15 H :   -0.210070
  16 H :   -0.171996
  17 H :   -0.156216
  18 H :   -0.171623
  19 H :   -0.157933
  20 H :   -0.169481

  Mayer bond orders larger than 0.100000
B(  0-C ,  1-C ) :   0.5852 B(  0-C ,  5-C ) :   1.3195 B(  0-C , 17-H ) :   0.8222
B(  0-C , 18-H ) :   0.9033 B(  1-C ,  2-C ) :   1.2003 B(  1-C , 19-H ) :   0.9003
B(  1-C , 20-H ) :   0.8615 B(  2-C ,  3-C ) :   1.0593 B(  2-C ,  5-C ) :   0.2366
B(  2-C ,  6-C ) :   1.2792 B(  2-C ,  7-F ) :   0.1434 B(  2-C , 13-F ) :   0.1251
B(  3-C ,  4-C ) :   1.0641 B(  3-C ,  7-F ) :   0.2604 B(  3-C ,  8-F ) :   0.1305
B(  3-C , 11-F ) :   0.1536 B(  3-C , 13-F ) :   0.3057 B(  4-C ,  5-C ) :   1.2508
B(  4-C ,  7-F ) :   0.1587 B(  4-C ,  8-F ) :   0.3740 B(  4-C , 11-F ) :   0.2694
B(  4-C , 13-F ) :   0.1351 B(  5-C ,  8-F ) :   0.1291 B(  5-C ,  9-C ) :   0.6285
B(  5-C , 11-F ) :   0.1902 B(  6-C ,  9-C ) :   0.5201 B(  6-C , 10-C ) :  -0.1836
B(  6-C , 12-H ) :   0.9336 B(  6-C , 16-H ) :   0.8664 B(  7-F , 13-F ) :  -0.1389
B(  8-F , 11-F ) :  -0.1227 B(  9-C , 10-C ) :   0.2103 B(  9-C , 15-H ) :  -0.2045
B( 10-C , 14-H ) :   0.7692 B( 10-C , 15-H ) :   1.3178

MP2 TOTAL ENERGY:     -745.852909088 Eh
FINAL SINGLE POINT ENERGY      -745.852909087695

DIPOLE MOMENT
-------------
                                X             Y             Z
Electronic contribution:    -14.16797      -8.67964      -1.97447
Nuclear contribution   :     15.67646       9.82766       2.24237
                        -----------------------------------------
Total Dipole Moment    :      1.50849       1.14802       0.26790
                        -----------------------------------------
Magnitude (a.u.)       :      1.91449
Magnitude (Debye)      :      4.86625

Rotational constants in cm-1:     0.037223     0.028274     0.026482
Rotational constants in MHz :  1115.929962   847.644499   793.913543

                             ****ORCA TERMINATED NORMALLY****
TOTAL RUN TIME: 0 days 0 hours 9 minutes 21 seconds 896 msec
