                         Program Version 4.2.1 -  RELEASE  -
|  1> %pal
|  2>  nprocs 32
|  3> end
|  4> !RI-MP2 aug-cc-pVTZ aug-cc-pVTZ/C TightSCF
|  5> %maxcore 4500
|  6> *xyzfile 0 1  04_89P2.xyz
|  7>
|  8>
|  9>                          ****END OF INPUT****

CARTESIAN COORDINATES (ANGSTROEM)
---------------------------------
  N     -0.221045    1.144407    0.178959
  C     -1.036535    0.060127   -0.035666
  C     -2.326536    0.529045    0.153856
  N     -2.322100    1.867449    0.490530
  C     -1.062893    2.187552    0.502309
  C     -3.362099   -0.402280   -0.017707
  N     -3.047040   -1.659163   -0.349559
  C     -1.764001   -1.978727   -0.505542
  N     -0.703524   -1.190475   -0.368685
  N     -4.655666   -0.071466    0.138558
  H     -5.359486   -0.779979    0.020457
  H     -4.909459    0.864336    0.405199
  H     -1.562032   -3.009297   -0.776913
  H     -0.665762    3.165195    0.732938
  C      1.223568    1.175480    0.193582
  C      1.904073    0.662218   -1.095077
  C      2.683197   -0.580404   -0.632497
  C      2.900810   -0.270049    0.853894
  O      1.681324    0.377870    1.253619
  H      1.511057    2.222880    0.328093
  C      3.146499   -1.452483    1.753318
  H      3.720121    0.455953    0.937029
  O      2.748976    1.716988   -1.527783
  H      1.174764    0.400898   -1.864969
  H      3.175655    1.459432   -2.349446
  O      1.994780   -1.774245   -0.877040
  H      3.639285   -0.648076   -1.156337
  H      1.047573   -1.667878   -0.643593
  H      3.217369   -1.127758    2.792045
  H      4.081625   -1.943395    1.476723
  H      2.337788   -2.175353    1.656963

 Total Charge           Charge          ....    0
 Multiplicity           Mult            ....    1
 Number of Electrons    NEL             ....  132
 Basis Dimension        Dim             .... 1127

ORBITAL ENERGIES
----------------

  NO   OCC          E(Eh)            E(eV)
   0   2.0000     -20.581256      -560.0444
   1   2.0000     -20.570408      -559.7493
   2   2.0000     -20.536073      -558.8150
   3   2.0000     -15.632915      -425.3932
   4   2.0000     -15.591844      -424.2757
   5   2.0000     -15.569739      -423.6741
   6   2.0000     -15.569310      -423.6625
   7   2.0000     -15.557559      -423.3427
   8   2.0000     -11.345333      -308.7222
   9   2.0000     -11.343062      -308.6604
  10   2.0000     -11.323556      -308.1296
  11   2.0000     -11.321919      -308.0851
  12   2.0000     -11.320978      -308.0595
  13   2.0000     -11.298269      -307.4415
  14   2.0000     -11.282605      -307.0153
  15   2.0000     -11.281059      -306.9732
  16   2.0000     -11.256255      -306.2983
  17   2.0000     -11.211777      -305.0880
  18   2.0000      -1.422542       -38.7093
  19   2.0000      -1.384031       -37.6614
  20   2.0000      -1.371737       -37.3269
  21   2.0000      -1.348632       -36.6981
  22   2.0000      -1.313755       -35.7491
  23   2.0000      -1.260336       -34.2955
  24   2.0000      -1.205551       -32.8047
  25   2.0000      -1.167817       -31.7779
  26   2.0000      -1.051583       -28.6150
  27   2.0000      -1.044668       -28.4269
  28   2.0000      -1.031481       -28.0680
  29   2.0000      -0.942248       -25.6399
  30   2.0000      -0.903400       -24.5828
  31   2.0000      -0.889363       -24.2008
  32   2.0000      -0.848003       -23.0753
  33   2.0000      -0.818855       -22.2822
  34   2.0000      -0.810087       -22.0436
  35   2.0000      -0.776147       -21.1200
  36   2.0000      -0.742770       -20.2118
  37   2.0000      -0.727664       -19.8007
  38   2.0000      -0.708965       -19.2919
  39   2.0000      -0.698089       -18.9960
  40   2.0000      -0.689122       -18.7520
  41   2.0000      -0.683935       -18.6108
  42   2.0000      -0.653999       -17.7962
  43   2.0000      -0.637087       -17.3360
  44   2.0000      -0.630637       -17.1605
  45   2.0000      -0.627429       -17.0732
  46   2.0000      -0.614461       -16.7203
  47   2.0000      -0.596172       -16.2227
  48   2.0000      -0.590707       -16.0739
  49   2.0000      -0.577207       -15.7066
  50   2.0000      -0.560457       -15.2508
  51   2.0000      -0.546666       -14.8755
  52   2.0000      -0.540051       -14.6955
  53   2.0000      -0.527215       -14.3463
  54   2.0000      -0.516599       -14.0574
  55   2.0000      -0.511452       -13.9173
  56   2.0000      -0.506601       -13.7853
  57   2.0000      -0.479731       -13.0541
  58   2.0000      -0.469563       -12.7775
  59   2.0000      -0.456970       -12.4348
  60   2.0000      -0.450325       -12.2540
  61   2.0000      -0.427150       -11.6233
  62   2.0000      -0.418247       -11.3811
  63   2.0000      -0.403812       -10.9883
  64   2.0000      -0.381234       -10.3739
  65   2.0000      -0.318166        -8.6577
  66   0.0000       0.024809         0.6751
  67   0.0000       0.028064         0.7637
  68   0.0000       0.032284         0.8785
  69   0.0000       0.035069         0.9543
  70   0.0000       0.040831         1.1111

MULLIKEN ATOMIC CHARGES
-----------------------
   0 N :    0.137413
   1 C :   -0.358538
   2 C :    2.013146
   3 N :   -1.085155
   4 C :   -0.496565
   5 C :   -0.172069
   6 N :   -0.428862
   7 C :   -0.592590
   8 N :   -0.450326
   9 N :   -0.538097
  10 H :    0.066248
  11 H :    0.108465
  12 H :    0.613097
  13 H :    0.704884
  14 C :    0.637339
  15 C :    0.237776
  16 C :    0.223923
  17 C :    0.221763
  18 O :   -0.969486
  19 H :    0.475184
  20 C :   -1.112958
  21 H :    0.491208
  22 O :   -0.791863
  23 H :    0.294835
  24 H :    0.117273
  25 O :   -1.063833
  26 H :    0.429417
  27 H :    0.453206
  28 H :    0.241187
  29 H :    0.256243
  30 H :    0.337736
Sum of atomic charges:    0.0000000

LOEWDIN ATOMIC CHARGES
----------------------
   0 N :    0.286588
   1 C :   -0.400810
   2 C :   -0.298297
   3 N :    0.404724
   4 C :   -0.029087
   5 C :   -0.407655
   6 N :    0.401292
   7 C :   -0.126348
   8 N :    0.444850
   9 N :    0.876313
  10 H :   -0.282716
  11 H :   -0.282902
  12 H :   -0.186823
  13 H :   -0.155504
  14 C :   -0.308850
  15 C :   -0.194963
  16 C :   -0.227760
  17 C :   -0.247880
  18 O :    0.621042
  19 H :   -0.145306
  20 C :    0.597031
  21 H :   -0.125288
  22 O :    0.846378
  23 H :   -0.135084
  24 H :   -0.470915
  25 O :    0.859670
  26 H :   -0.137978
  27 H :   -0.676737
  28 H :   -0.165821
  29 H :   -0.159425
  30 H :   -0.171738

  Mayer bond orders larger than 0.100000
B(  0-N ,  1-C ) :   0.6937 B(  0-N ,  4-C ) :   1.3544 B(  0-N ,  8-N ) :  -0.3786
B(  0-N , 14-C ) :   0.6706 B(  0-N , 15-C ) :   0.1170 B(  0-N , 18-O ) :   0.2185
B(  1-C ,  2-C ) :   0.5425 B(  1-C ,  3-N ) :   0.5603 B(  1-C ,  4-C ) :  -0.6425
B(  1-C ,  5-C ) :   1.5752 B(  1-C ,  6-N ) :   0.1243 B(  1-C ,  7-C ) :  -0.5950
B(  1-C ,  8-N ) :   1.1470 B(  1-C , 14-C ) :  -0.2657 B(  2-C ,  3-N ) :  -0.3801
B(  2-C ,  5-C ) :  -1.4774 B(  2-C ,  6-N ) :   0.1261 B(  2-C ,  8-N ) :  -0.5130
B(  2-C ,  9-N ) :  -0.3020 B(  3-N ,  4-C ) :   1.3997 B(  3-N ,  5-C ) :   0.1413
B(  3-N , 13-H ) :  -0.1245 B(  4-C ,  8-N ) :  -0.1209 B(  4-C , 13-H ) :   0.3716
B(  4-C , 14-C ) :  -0.1814 B(  5-C ,  6-N ) :   0.2675 B(  5-C ,  7-C ) :  -0.4156
B(  5-C ,  8-N ) :   0.3718 B(  5-C ,  9-N ) :   1.1003 B(  6-N ,  7-C ) :   1.0070
B(  6-N ,  9-N ) :  -0.2488 B(  7-C ,  8-N ) :   1.7200 B(  7-C , 12-H ) :   0.4514
B(  8-N , 25-O ) :  -0.1441 B(  9-N , 10-H ) :   1.1768 B(  9-N , 11-H ) :   1.1046
B( 14-C , 15-C ) :   1.0006 B( 14-C , 18-O ) :   0.5352 B( 14-C , 19-H ) :   0.6937
B( 14-C , 22-O ) :   0.1268 B( 15-C , 16-C ) :   1.1612 B( 15-C , 18-O ) :   0.1036
B( 15-C , 23-H ) :   0.9975 B( 15-C , 25-O ) :   0.1748 B( 16-C , 17-C ) :   0.9988
B( 16-C , 22-O ) :   0.1475 B( 16-C , 25-O ) :   0.2418 B( 16-C , 26-H ) :   0.7892
B( 17-C , 18-O ) :   0.7989 B( 17-C , 20-C ) :   0.6366 B( 17-C , 21-H ) :   0.7305
B( 17-C , 25-O ) :   0.1334 B( 20-C , 28-H ) :   1.0390 B( 20-C , 29-H ) :   1.0382
B( 20-C , 30-H ) :   0.9363 B( 22-O , 24-H ) :   1.0925 B( 25-O , 27-H ) :   0.5864

MP2 TOTAL ENERGY:     -886.802248815 Eh
FINAL SINGLE POINT ENERGY      -886.802248815010

DIPOLE MOMENT
-------------
                                X             Y             Z
Electronic contribution:    -11.30244       3.45485      -1.83422
Nuclear contribution   :     11.29334      -2.74053       1.52009
                        -----------------------------------------
Total Dipole Moment    :     -0.00910       0.71432      -0.31413
                        -----------------------------------------
Magnitude (a.u.)       :      0.78040
Magnitude (Debye)      :      1.98361

Rotational constants in cm-1:     0.027694     0.009975     0.008696
Rotational constants in MHz :   830.236187   299.046991   260.688442

                             ****ORCA TERMINATED NORMALLY****
TOTAL RUN TIME: 0 days 0 hours 29 minutes 54 seconds 811 msec
