                         Program Version 4.2.1 -  RELEASE  -
|  1> %pal
|  2>  nprocs 32
|  3> end
|  4> !RI-MP2 aug-cc-pVTZ aug-cc-pVTZ/C TightSCF
|  5> %maxcore 4500
|  6> *xyzfile 0 1  10_75P.xyz
|  7>
|  8>
|  9>                          ****END OF INPUT****

CARTESIAN COORDINATES (ANGSTROEM)
---------------------------------
  C     -0.916771    1.072096   -0.183760
  C     -2.325535    1.105516    0.337380
  C      0.179636    0.696391    0.480191
  C      1.406863    0.311880   -0.311615
  C      1.528974   -1.205403   -0.721660
  C      2.777902    0.610567    0.303046
  H      1.367913    0.846238   -1.266282
  C     -3.028420   -0.242926   -0.049739
  C     -2.318915   -1.384448    0.641631
  C     -4.518777   -0.139054    0.226626
  C     -1.258159   -1.892471    0.005723
  C     -0.122324   -2.609123    0.579729
  C      1.134268   -2.270143    0.278472
  C      3.021834   -1.315713   -1.046748
  H      0.973340   -1.369232   -1.646281
  N      3.659125   -0.351258   -0.338803
  H      2.781725    0.480862    1.389770
  C      3.456918    1.943792   -0.019092
  C     -3.110712    2.279976   -0.184893
  C     -5.161001    0.945796   -0.639152
  H     -4.689398    0.112866    1.280478
  O     -5.203939   -1.352332   -0.075057
  C     -4.361523    2.213283   -0.620042
  H     -6.165137    1.145016   -0.241989
  O     -5.271902    0.512225   -1.986007
  C      0.250551    0.528399    1.971313
  C     -2.651205   -1.664801    2.079986
  H     -4.576367   -2.081357   -0.066978
  H     -5.668914   -0.366981   -1.951770
  H     -2.592741    3.234396   -0.193374
  H     -4.852967    3.099775   -1.004946
  C      5.016010    0.152135   -0.571217
  O      3.544930   -2.116292   -1.793068
  H     -3.679179   -2.020460    2.191527
  H     -2.570417   -0.760125    2.690067
  H     -1.988820   -2.413395    2.511396
  H      0.575495   -0.479424    2.236792
  H     -0.702085    0.717002    2.459335
  H      0.979581    1.222875    2.397467
  C      4.937975    1.575052    0.010472
  O      3.189506    2.972941    0.911730
  H      3.166855    2.258583   -1.030221
  H      5.177705    0.182720   -1.653478
  C      6.083290   -0.725621    0.059846
  H      5.261615    1.575611    1.055360
  H      5.559614    2.286208   -0.532564
  H      7.074927   -0.298689   -0.108049
  H      6.057788   -1.724032   -0.377221
  H      5.921733   -0.809132    1.137182
  H      2.302836    3.312311    0.762911
  H      1.946191   -2.794660    0.772317
  H     -0.290076   -3.377193    1.327180
  H     -1.113253   -1.566267   -1.019423
  H     -2.912868   -0.358645   -1.131405
  H     -2.312372    1.177692    1.428745
  H     -0.840634    1.182828   -1.264687

 Total Charge           Charge          ....    0
 Multiplicity           Mult            ....    1
 Number of Electrons    NEL             ....  200
 Basis Dimension        Dim             .... 1909

ORBITAL ENERGIES
----------------

  NO   OCC          E(Eh)            E(eV)
   0   2.0000     -20.575278      -559.8818
   1   2.0000     -20.570739      -559.7583
   2   2.0000     -20.551633      -559.2384
   3   2.0000     -20.519018      -558.3509
   4   2.0000     -15.581791      -424.0021
   5   2.0000     -11.343081      -308.6609
   6   2.0000     -11.296680      -307.3983
   7   2.0000     -11.288714      -307.1815
   8   2.0000     -11.285187      -307.0856
   9   2.0000     -11.275286      -306.8161
  10   2.0000     -11.273804      -306.7758
  11   2.0000     -11.258343      -306.3551
  12   2.0000     -11.256826      -306.3138
  13   2.0000     -11.253567      -306.2251
  14   2.0000     -11.251647      -306.1729
  15   2.0000     -11.247052      -306.0478
  16   2.0000     -11.246480      -306.0323
  17   2.0000     -11.245616      -306.0088
  18   2.0000     -11.244030      -305.9656
  19   2.0000     -11.239730      -305.8486
  20   2.0000     -11.237326      -305.7832
  21   2.0000     -11.236277      -305.7546
  22   2.0000     -11.234275      -305.7002
  23   2.0000     -11.233731      -305.6854
  24   2.0000     -11.232168      -305.6428
  25   2.0000     -11.230652      -305.6016
  26   2.0000     -11.217295      -305.2381
  27   2.0000      -1.387510       -37.7561
  28   2.0000      -1.387007       -37.7424
  29   2.0000      -1.380684       -37.5703
  30   2.0000      -1.350789       -36.7568
  31   2.0000      -1.280735       -34.8506
  32   2.0000      -1.166059       -31.7301
  33   2.0000      -1.133709       -30.8498
  34   2.0000      -1.114654       -30.3313
  35   2.0000      -1.088983       -29.6327
  36   2.0000      -1.068193       -29.0670
  37   2.0000      -1.048089       -28.5200
  38   2.0000      -1.012106       -27.5408
  39   2.0000      -1.010835       -27.5062
  40   2.0000      -0.992982       -27.0204
  41   2.0000      -0.961513       -26.1641
  42   2.0000      -0.944452       -25.6998
  43   2.0000      -0.939459       -25.5640
  44   2.0000      -0.885686       -24.1007
  45   2.0000      -0.863813       -23.5055
  46   2.0000      -0.851665       -23.1750
  47   2.0000      -0.830870       -22.6091
  48   2.0000      -0.816153       -22.2087
  49   2.0000      -0.779154       -21.2019
  50   2.0000      -0.753092       -20.4927
  51   2.0000      -0.739409       -20.1204
  52   2.0000      -0.731807       -19.9135
  53   2.0000      -0.722168       -19.6512
  54   2.0000      -0.719088       -19.5674
  55   2.0000      -0.701887       -19.0993
  56   2.0000      -0.691468       -18.8158
  57   2.0000      -0.682923       -18.5833
  58   2.0000      -0.678410       -18.4605
  59   2.0000      -0.668696       -18.1961
  60   2.0000      -0.659413       -17.9435
  61   2.0000      -0.645125       -17.5548
  62   2.0000      -0.632084       -17.1999
  63   2.0000      -0.626838       -17.0571
  64   2.0000      -0.617956       -16.8154
  65   2.0000      -0.615233       -16.7413
  66   2.0000      -0.611042       -16.6273
  67   2.0000      -0.598932       -16.2978
  68   2.0000      -0.595981       -16.2175
  69   2.0000      -0.590151       -16.0588
  70   2.0000      -0.579048       -15.7567
  71   2.0000      -0.576667       -15.6919
  72   2.0000      -0.571502       -15.5514
  73   2.0000      -0.569146       -15.4872
  74   2.0000      -0.560575       -15.2540
  75   2.0000      -0.557293       -15.1647
  76   2.0000      -0.551062       -14.9952
  77   2.0000      -0.547781       -14.9059
  78   2.0000      -0.542047       -14.7498
  79   2.0000      -0.539097       -14.6696
  80   2.0000      -0.532941       -14.5021
  81   2.0000      -0.520895       -14.1743
  82   2.0000      -0.516033       -14.0420
  83   2.0000      -0.510661       -13.8958
  84   2.0000      -0.505432       -13.7535
  85   2.0000      -0.503938       -13.7128
  86   2.0000      -0.489894       -13.3307
  87   2.0000      -0.487884       -13.2760
  88   2.0000      -0.480272       -13.0689
  89   2.0000      -0.472217       -12.8497
  90   2.0000      -0.466276       -12.6880
  91   2.0000      -0.456703       -12.4275
  92   2.0000      -0.448871       -12.2144
  93   2.0000      -0.433126       -11.7860
  94   2.0000      -0.419757       -11.4222
  95   2.0000      -0.406022       -11.0484
  96   2.0000      -0.377607       -10.2752
  97   2.0000      -0.375216       -10.2101
  98   2.0000      -0.352658        -9.5963
  99   2.0000      -0.314294        -8.5524
 100   0.0000       0.020201         0.5497
 101   0.0000       0.024052         0.6545
 102   0.0000       0.027872         0.7584
 103   0.0000       0.030150         0.8204
 104   0.0000       0.034061         0.9269

MULLIKEN ATOMIC CHARGES
-----------------------
   0 C :   -1.391086
   1 C :    0.852192
   2 C :    1.355246
   3 C :    0.176770
   4 C :    1.118543
   5 C :    0.153093
   6 H :   -0.221706
   7 C :    0.580151
   8 C :    1.137591
   9 C :    0.317990
  10 C :   -0.774561
  11 C :   -0.116269
  12 C :   -0.734226
  13 C :   -0.247686
  14 H :    0.221015
  15 N :    0.310434
  16 H :    0.210516
  17 C :    0.527263
  18 C :   -0.979995
  19 C :    0.500488
  20 H :    0.179256
  21 O :   -1.027357
  22 C :   -0.750933
  23 H :    0.338157
  24 O :   -0.842825
  25 C :   -1.127166
  26 C :   -1.152816
  27 H :    0.235798
  28 H :    0.160793
  29 H :    0.139420
  30 H :    0.421562
  31 C :   -0.130464
  32 O :   -1.298749
  33 H :    0.216373
  34 H :    0.247805
  35 H :    0.270445
  36 H :    0.266933
  37 H :    0.064366
  38 H :    0.219018
  39 C :   -0.672444
  40 O :   -0.937271
  41 H :    0.298024
  42 H :    0.308877
  43 C :   -1.134488
  44 H :    0.126753
  45 H :    0.374812
  46 H :    0.271602
  47 H :    0.307348
  48 H :    0.249111
  49 H :    0.160834
  50 H :    0.291363
  51 H :    0.547141
  52 H :   -0.020326
  53 H :    0.328735
  54 H :    0.168056
  55 H :   -0.093505
Sum of atomic charges:    0.0000000

LOEWDIN ATOMIC CHARGES
----------------------
   0 C :    0.258942
   1 C :   -0.000365
   2 C :   -0.042435
   3 C :    0.056467
   4 C :    0.049638
   5 C :   -0.060799
   6 H :   -0.144728
   7 C :    0.012809
   8 C :   -0.068952
   9 C :   -0.225476
  10 C :    0.219571
  11 C :    0.227574
  12 C :    0.259493
  13 C :   -0.646512
  14 H :   -0.140272
  15 N :    0.313450
  16 H :   -0.127883
  17 C :   -0.212461
  18 C :    0.266424
  19 C :   -0.262874
  20 H :   -0.124688
  21 O :    0.873631
  22 C :    0.256074
  23 H :   -0.133457
  24 O :    0.835994
  25 C :    0.604231
  26 C :    0.596751
  27 H :   -0.497734
  28 H :   -0.528205
  29 H :   -0.167445
  30 H :   -0.173109
  31 C :   -0.083579
  32 O :    0.460207
  33 H :   -0.161617
  34 H :   -0.163697
  35 H :   -0.173511
  36 H :   -0.164161
  37 H :   -0.190521
  38 H :   -0.158155
  39 C :    0.342530
  40 O :    0.852449
  41 H :   -0.118065
  42 H :   -0.117899
  43 C :    0.613147
  44 H :   -0.138130
  45 H :   -0.126474
  46 H :   -0.158135
  47 H :   -0.164059
  48 H :   -0.160893
  49 H :   -0.473415
  50 H :   -0.166837
  51 H :   -0.178396
  52 H :   -0.188920
  53 H :   -0.136196
  54 H :   -0.168647
  55 H :   -0.150679

  Mayer bond orders larger than 0.100000
B(  0-C ,  1-C ) :   0.4819 B(  0-C ,  2-C ) :   0.8126 B(  0-C ,  3-C ) :  -0.1482
B(  0-C ,  4-C ) :   0.1850 B(  0-C ,  6-H ) :  -0.1105 B(  0-C ,  7-C ) :   0.2313
B(  0-C ,  8-C ) :   0.1882 B(  0-C , 10-C ) :  -0.3626 B(  0-C , 11-C ) :   0.2329
B(  0-C , 18-C ) :   0.3004 B(  0-C , 25-C ) :  -0.5550 B(  0-C , 52-H ) :  -0.1249
B(  0-C , 55-H ) :   1.7916 B(  1-C ,  7-C ) :   1.1500 B(  1-C ,  9-C ) :   0.1062
B(  1-C , 10-C ) :   0.2456 B(  1-C , 18-C ) :   0.4104 B(  1-C , 22-C ) :   0.4054
B(  1-C , 54-H ) :   0.9614 B(  2-C ,  3-C ) :   1.4180 B(  2-C ,  4-C ) :  -0.2359
B(  2-C ,  5-C ) :   0.1013 B(  2-C , 10-C ) :   0.3273 B(  2-C , 11-C ) :  -0.2330
B(  2-C , 12-C ) :   0.3400 B(  2-C , 13-C ) :   0.1643 B(  2-C , 18-C ) :   0.1181
B(  2-C , 25-C ) :   0.7110 B(  2-C , 36-H ) :  -0.1630 B(  2-C , 38-H ) :  -0.2754
B(  2-C , 40-O ) :  -0.1020 B(  2-C , 55-H ) :  -0.2898 B(  3-C ,  4-C ) :   0.8702
B(  3-C ,  5-C ) :   1.2419 B(  3-C ,  6-H ) :   1.0584 B(  3-C , 12-C ) :   0.1271
B(  3-C , 13-C ) :   0.3677 B(  3-C , 15-N ) :  -0.1887 B(  3-C , 17-C ) :   0.1668
B(  3-C , 25-C ) :   0.1785 B(  3-C , 32-O ) :   0.1320 B(  3-C , 52-H ) :   0.1482
B(  3-C , 55-H ) :  -0.1796 B(  4-C ,  5-C ) :   0.3565 B(  4-C , 10-C ) :   0.1181
B(  4-C , 11-C ) :   0.2654 B(  4-C , 12-C ) :   0.4633 B(  4-C , 13-C ) :  -0.9208
B(  4-C , 14-H ) :   1.1376 B(  5-C ,  6-H ) :  -0.2969 B(  5-C , 12-C ) :  -0.1465
B(  5-C , 13-C ) :  -0.2075 B(  5-C , 14-H ) :   0.1170 B(  5-C , 15-N ) :   0.5608
B(  5-C , 16-H ) :   0.7960 B(  5-C , 17-C ) :   0.5958 B(  5-C , 31-C ) :  -0.1510
B(  5-C , 40-O ) :   0.3331 B(  5-C , 41-H ) :  -0.1409 B(  7-C ,  8-C ) :   1.0398
B(  7-C ,  9-C ) :   0.6510 B(  7-C , 18-C ) :  -0.2131 B(  7-C , 19-C ) :   0.1172
B(  7-C , 20-H ) :  -0.1598 B(  7-C , 21-O ) :   0.1852 B(  7-C , 22-C ) :  -0.4300
B(  7-C , 25-C ) :  -0.1505 B(  7-C , 26-C ) :   0.2632 B(  7-C , 53-H ) :   0.8625
B(  7-C , 54-H ) :  -0.1597 B(  8-C ,  9-C ) :   0.1289 B(  8-C , 10-C ) :   0.4100
B(  8-C , 11-C ) :   0.3355 B(  8-C , 21-O ) :  -0.1657 B(  8-C , 26-C ) :   0.6410
B(  8-C , 27-H ) :  -0.1595 B(  8-C , 33-H ) :  -0.1591 B(  8-C , 34-H ) :  -0.1051
B(  8-C , 53-H ) :   0.1420 B(  9-C , 18-C ) :  -0.1026 B(  9-C , 19-C ) :   1.0359
B(  9-C , 20-H ) :   1.2312 B(  9-C , 22-C ) :   0.4303 B(  9-C , 26-C ) :  -0.1750
B(  9-C , 53-H ) :  -0.1274 B( 10-C , 11-C ) :   0.1470 B( 10-C , 12-C ) :  -0.1297
B( 10-C , 18-C ) :  -0.1489 B( 10-C , 26-C ) :  -0.3120 B( 10-C , 50-H ) :  -0.1056
B( 10-C , 52-H ) :   1.4883 B( 11-C , 12-C ) :   1.7283 B( 11-C , 13-C ) :  -0.2683
B( 11-C , 26-C ) :  -0.1413 B( 11-C , 50-H ) :  -0.1500 B( 11-C , 51-H ) :   0.6182
B( 11-C , 52-H ) :  -0.2102 B( 12-C , 13-C ) :  -0.1525 B( 12-C , 50-H ) :   0.8965
B( 12-C , 52-H ) :   0.4435 B( 13-C , 14-H ) :  -0.7435 B( 13-C , 15-N ) :   1.2096
B( 13-C , 32-O ) :   0.2171 B( 13-C , 52-H ) :  -0.1886 B( 14-H , 15-N ) :   0.1075
B( 14-H , 32-O ) :   0.1394 B( 15-N , 16-H ) :   0.1027 B( 15-N , 31-C ) :   0.7803
B( 15-N , 32-O ) :  -0.1274 B( 15-N , 43-C ) :  -0.1260 B( 17-C , 39-C ) :   0.9541
B( 17-C , 41-H ) :   1.0322 B( 18-C , 19-C ) :   0.2312 B( 18-C , 22-C ) :   1.5876
B( 18-C , 29-H ) :   1.3196 B( 18-C , 30-H ) :  -0.1270 B( 18-C , 54-H ) :  -0.4361
B( 19-C , 21-O ) :   0.1587 B( 19-C , 22-C ) :   0.3720 B( 19-C , 23-H ) :   0.9709
B( 19-C , 24-O ) :   0.6540 B( 20-H , 21-O ) :  -0.1296 B( 20-H , 22-C ) :   0.1586
B( 21-O , 27-H ) :   0.9901 B( 22-C , 23-H ) :  -0.1699 B( 22-C , 30-H ) :   0.7645
B( 22-C , 53-H ) :  -0.1543 B( 24-O , 28-H ) :   1.0249 B( 24-O , 53-H ) :  -0.1251
B( 25-C , 36-H ) :   1.1774 B( 25-C , 37-H ) :   1.2937 B( 25-C , 38-H ) :   0.9908
B( 26-C , 33-H ) :   1.1505 B( 26-C , 34-H ) :   1.1715 B( 26-C , 35-H ) :   0.9768
B( 26-C , 51-H ) :  -0.1742 B( 31-C , 39-C ) :   1.0486 B( 31-C , 42-H ) :   0.9565
B( 31-C , 43-C ) :   0.6776 B( 36-H , 37-H ) :   0.1282 B( 37-H , 38-H ) :  -0.1730
B( 39-C , 40-O ) :   0.1648 B( 39-C , 44-H ) :   1.1349 B( 39-C , 45-H ) :   0.8636
B( 40-O , 49-H ) :   1.0291 B( 43-C , 46-H ) :   1.0345 B( 43-C , 47-H ) :   0.9846
B( 43-C , 48-H ) :   1.0218 B( 50-H , 52-H ) :   0.1506 B( 51-H , 52-H ) :  -0.2457

MP2 TOTAL ENERGY:    -1209.102220978 Eh
FINAL SINGLE POINT ENERGY     -1209.102220978237

DIPOLE MOMENT
-------------
                                X             Y             Z
Electronic contribution:     -4.32685      -1.60950      -8.83528
Nuclear contribution   :      4.20086       2.44047      10.21602
                        -----------------------------------------
Total Dipole Moment    :     -0.12598       0.83097       1.38074
                        -----------------------------------------
Magnitude (a.u.)       :      1.61643
Magnitude (Debye)      :      4.10863

Rotational constants in cm-1:     0.013769     0.003430     0.003091
Rotational constants in MHz :   412.776406   102.843594    92.662659

                             ****ORCA TERMINATED NORMALLY****
TOTAL RUN TIME: 0 days 2 hours 41 minutes 1 seconds 927 msec
