                         Program Version 4.2.1 -  RELEASE  -
|  1> %pal
|  2>  nprocs 32
|  3> end
|  4> !RI-MP2 aug-cc-pVTZ aug-cc-pVTZ/C TightSCF
|  5> %maxcore 4500
|  6> *xyzfile 0 2  03_26P1.xyz
|  7>
|  8>
|  9>                          ****END OF INPUT****

CARTESIAN COORDINATES (ANGSTROEM)
---------------------------------
  N     -0.267027    0.651264   -0.143902
  S      0.921461   -0.497541    0.051396
  O      2.131789    0.244328   -0.673659
  C      2.657335    1.438297   -0.062215
  C     -1.668592    0.257404   -0.011218
  O      1.188901   -0.572328    1.471580
  O      0.685250   -1.682971   -0.729684
  H      3.502708    1.721115   -0.682831
  H      2.982854    1.224047    0.954838
  H      1.897380    2.219424   -0.069616
  C     -1.930053   -0.825171    1.041905
  C     -2.106480   -0.233875   -1.407844
  C     -2.417038    1.542268    0.346488
  H     -1.464017   -1.773393    0.774822
  H     -3.006589   -0.986485    1.117028
  H     -1.557488   -0.518048    2.019395
  H     -1.581188   -1.147023   -1.682960
  H     -1.912649    0.528753   -2.162999
  H     -3.179800   -0.431529   -1.380030
  H     -2.103378    1.909137    1.325020
  H     -3.491338    1.351383    0.376992
  H     -2.219239    2.318670   -0.393274

 Total Charge           Charge          ....    0
 Multiplicity           Mult            ....    2
 Number of Electrons    NEL             ....   89
 Basis Dimension        Dim             ....  740

ORBITAL ENERGIES
----------------
                 SPIN UP ORBITALS
  NO   OCC          E(Eh)            E(eV)
   0   1.0000     -92.240483     -2509.9912
   1   1.0000     -20.626675      -561.2804
   2   1.0000     -20.567324      -559.6653
   3   1.0000     -20.566310      -559.6378
   4   1.0000     -15.644774      -425.7159
   5   1.0000     -11.303868      -307.5939
   6   1.0000     -11.296767      -307.4006
   7   1.0000     -11.231659      -305.6290
   8   1.0000     -11.230684      -305.6025
   9   1.0000     -11.227190      -305.5074
  10   1.0000      -9.201514      -250.3859
  11   1.0000      -6.887416      -187.4161
  12   1.0000      -6.886195      -187.3829
  13   1.0000      -6.886034      -187.3785
  14   1.0000      -1.519426       -41.3457
  15   1.0000      -1.397793       -38.0359
  16   1.0000      -1.365397       -37.1544
  17   1.0000      -1.273850       -34.6632
  18   1.0000      -1.083322       -29.4787
  19   1.0000      -0.988467       -26.8975
  20   1.0000      -0.957260       -26.0484
  21   1.0000      -0.956645       -26.0316
  22   1.0000      -0.864161       -23.5150
  23   1.0000      -0.777479       -21.1563
  24   1.0000      -0.734165       -19.9777
  25   1.0000      -0.704757       -19.1774
  26   1.0000      -0.696517       -18.9532
  27   1.0000      -0.660127       -17.9630
  28   1.0000      -0.655980       -17.8501
  29   1.0000      -0.637776       -17.3548
  30   1.0000      -0.624860       -17.0033
  31   1.0000      -0.602031       -16.3821
  32   1.0000      -0.589827       -16.0500
  33   1.0000      -0.568413       -15.4673
  34   1.0000      -0.555127       -15.1058
  35   1.0000      -0.545115       -14.8333
  36   1.0000      -0.533867       -14.5273
  37   1.0000      -0.529194       -14.4001
  38   1.0000      -0.520898       -14.1744
  39   1.0000      -0.516355       -14.0507
  40   1.0000      -0.508572       -13.8390
  41   1.0000      -0.504346       -13.7239
  42   1.0000      -0.490210       -13.3393
  43   1.0000      -0.457585       -12.4515
  44   1.0000      -0.451453       -12.2847
  45   0.0000       0.025005         0.6804
  46   0.0000       0.031799         0.8653
  47   0.0000       0.036088         0.9820
  48   0.0000       0.038507         1.0478
  49   0.0000       0.048681         1.3247

                 SPIN DOWN ORBITALS
  NO   OCC          E(Eh)            E(eV)
   0   1.0000     -92.241131     -2510.0088
   1   1.0000     -20.626783      -561.2833
   2   1.0000     -20.565397      -559.6129
   3   1.0000     -20.564687      -559.5936
   4   1.0000     -15.613268      -424.8586
   5   1.0000     -11.303889      -307.5945
   6   1.0000     -11.299101      -307.4642
   7   1.0000     -11.230270      -305.5912
   8   1.0000     -11.229461      -305.5692
   9   1.0000     -11.226461      -305.4875
  10   1.0000      -9.202379      -250.4095
  11   1.0000      -6.888179      -187.4369
  12   1.0000      -6.887687      -187.4235
  13   1.0000      -6.886819      -187.3999
  14   1.0000      -1.515393       -41.2359
  15   1.0000      -1.396293       -37.9951
  16   1.0000      -1.360353       -37.0171
  17   1.0000      -1.201031       -32.6817
  18   1.0000      -1.058816       -28.8119
  19   1.0000      -0.984289       -26.7839
  20   1.0000      -0.954989       -25.9866
  21   1.0000      -0.949962       -25.8498
  22   1.0000      -0.856033       -23.2938
  23   1.0000      -0.772814       -21.0293
  24   1.0000      -0.728887       -19.8340
  25   1.0000      -0.691578       -18.8188
  26   1.0000      -0.687788       -18.7157
  27   1.0000      -0.655431       -17.8352
  28   1.0000      -0.633652       -17.2425
  29   1.0000      -0.625611       -17.0237
  30   1.0000      -0.617490       -16.8028
  31   1.0000      -0.591297       -16.0900
  32   1.0000      -0.571934       -15.5631
  33   1.0000      -0.560255       -15.2453
  34   1.0000      -0.553119       -15.0511
  35   1.0000      -0.535070       -14.5600
  36   1.0000      -0.528266       -14.3748
  37   1.0000      -0.516625       -14.0581
  38   1.0000      -0.509589       -13.8666
  39   1.0000      -0.502461       -13.6727
  40   1.0000      -0.498934       -13.5767
  41   1.0000      -0.489077       -13.3085
  42   1.0000      -0.485230       -13.2038
  43   1.0000      -0.433597       -11.7988
  44   0.0000       0.025062         0.6820
  45   0.0000       0.031814         0.8657
  46   0.0000       0.033419         0.9094
  47   0.0000       0.038523         1.0483
  48   0.0000       0.048600         1.3225

MULLIKEN ATOMIC CHARGES AND SPIN POPULATIONS
--------------------------------------------
   0 N :   -0.738316    1.131221
   1 S :    2.463382   -0.099813
   2 O :   -0.652923   -0.000497
   3 C :   -0.838356   -0.000392
   4 C :    1.682089   -0.243110
   5 O :   -0.993561    0.041830
   6 O :   -0.960135    0.015798
   7 H :    0.351539    0.000006
   8 H :    0.368579    0.000350
   9 H :    0.392293   -0.000498
  10 C :   -1.051322    0.038484
  11 C :   -1.224936    0.095648
  12 C :   -1.314851    0.026858
  13 H :    0.316608   -0.001841
  14 H :    0.233428   -0.002987
  15 H :    0.292215   -0.001514
  16 H :    0.351790    0.002056
  17 H :    0.284170    0.001655
  18 H :    0.259615    0.007846
  19 H :    0.257729   -0.002977
  20 H :    0.256704   -0.003171
  21 H :    0.264258   -0.004953
Sum of atomic charges         :    0.0000000

LOEWDIN ATOMIC CHARGES AND SPIN POPULATIONS
-------------------------------------------
   0 N :    0.311300    0.728245
   1 S :   -0.129382    0.072417
   2 O :    0.324947   -0.003451
   3 C :    0.308628   -0.001401
   4 C :   -0.593941    0.093128
   5 O :    0.069113    0.041860
   6 O :    0.077939    0.012984
   7 H :   -0.188171   -0.000125
   8 H :   -0.199020   -0.000391
   9 H :   -0.199074   -0.001454
  10 C :    0.562470    0.006952
  11 C :    0.578630    0.034045
  12 C :    0.566949    0.002797
  13 H :   -0.185982    0.000160
  14 H :   -0.155355    0.001134
  15 H :   -0.166447    0.000397
  16 H :   -0.190077    0.001250
  17 H :   -0.158853    0.003370
  18 H :   -0.155251    0.008197
  19 H :   -0.157932    0.001034
  20 H :   -0.157508   -0.000138
  21 H :   -0.162985   -0.001007

  Mayer bond orders larger than 0.100000
B(  0-N ,  1-S ) :   0.8942 B(  0-N ,  4-C ) :   0.1060 B(  0-N ,  5-O ) :   0.1404
B(  0-N , 11-C ) :   0.2015 B(  1-S ,  2-O ) :   0.6220 B(  1-S ,  5-O ) :   1.1356
B(  1-S ,  6-O ) :   1.2775 B(  2-O ,  3-C ) :   0.8408 B(  3-C ,  7-H ) :   0.9303
B(  3-C ,  8-H ) :   0.8702 B(  3-C ,  9-H ) :   0.8389 B(  4-C , 10-C ) :   0.5708
B(  4-C , 11-C ) :   0.5319 B(  4-C , 12-C ) :   0.2511 B( 10-C , 11-C ) :   0.1303
B( 10-C , 13-H ) :   0.9440 B( 10-C , 14-H ) :   1.0390 B( 10-C , 15-H ) :   0.9885
B( 11-C , 16-H ) :   0.9447 B( 11-C , 17-H ) :   0.9893 B( 11-C , 18-H ) :   0.9902
B( 12-C , 19-H ) :   1.0572 B( 12-C , 20-H ) :   1.0317 B( 12-C , 21-H ) :   1.0493

MP2 TOTAL ENERGY:     -874.987843826 Eh
FINAL SINGLE POINT ENERGY      -874.987843825886

DIPOLE MOMENT
-------------
                                X             Y             Z
Electronic contribution:     11.50583      -5.06584      -0.30434
Nuclear contribution   :    -12.16755       6.43949       0.19613
                        -----------------------------------------
Total Dipole Moment    :     -0.66171       1.37365      -0.10821
                        -----------------------------------------
Magnitude (a.u.)       :      1.52856
Magnitude (Debye)      :      3.88529

Rotational constants in cm-1:     0.064177     0.028017     0.026005
Rotational constants in MHz :  1923.968252   839.928664   779.608335

                             ****ORCA TERMINATED NORMALLY****
TOTAL RUN TIME: 0 days 0 hours 14 minutes 52 seconds 850 msec
