                         Program Version 4.2.1 -  RELEASE  -
|  1> %pal
|  2>  nprocs 32
|  3> end
|  4> !RI-MP2 aug-cc-pVTZ aug-cc-pVTZ/C TightSCF
|  5> %maxcore 4500
|  6> *xyzfile 0 1  10_86R.xyz
|  7>
|  8>
|  9>                          ****END OF INPUT****

CARTESIAN COORDINATES (ANGSTROEM)
---------------------------------
  O      0.526225   -0.763402   -0.113583
  C      1.843292   -0.477764   -0.185635
  C      2.440431    0.690039    0.028864
  C     -2.770539    0.299339   -0.306149
  C     -1.736372   -0.243920    0.315775
  C     -0.348162    0.297447    0.248319
  H     -1.865355   -1.125771    0.936371
  H     -2.656679    1.173014   -0.939424
  H     -3.769490   -0.106373   -0.204951
  H     -0.040575    0.691331    1.225333
  H     -0.277409    1.107964   -0.484897
  H      3.514692    0.748925   -0.070924
  H      1.912724    1.593527    0.298205
  H      2.400388   -1.366248   -0.458088

 Total Charge           Charge          ....    0
 Multiplicity           Mult            ....    1
 Number of Electrons    NEL             ....   46
 Basis Dimension        Dim             ....  460

ORBITAL ENERGIES
----------------

  NO   OCC          E(Eh)            E(eV)
   0   2.0000     -20.587754      -560.2213
   1   2.0000     -11.294669      -307.3436
   2   2.0000     -11.291316      -307.2523
   3   2.0000     -11.239658      -305.8466
   4   2.0000     -11.231727      -305.6308
   5   2.0000     -11.212129      -305.0975
   6   2.0000      -1.415508       -38.5179
   7   2.0000      -1.082805       -29.4646
   8   2.0000      -1.022524       -27.8243
   9   2.0000      -0.943277       -25.6679
  10   2.0000      -0.793591       -21.5947
  11   2.0000      -0.771363       -20.9899
  12   2.0000      -0.690947       -18.8016
  13   2.0000      -0.675471       -18.3805
  14   2.0000      -0.657624       -17.8949
  15   2.0000      -0.615726       -16.7548
  16   2.0000      -0.584258       -15.8985
  17   2.0000      -0.542449       -14.7608
  18   2.0000      -0.521279       -14.1847
  19   2.0000      -0.503883       -13.7113
  20   2.0000      -0.492561       -13.4033
  21   2.0000      -0.378494       -10.2993
  22   2.0000      -0.347938        -9.4679
  23   0.0000       0.029109         0.7921
  24   0.0000       0.034108         0.9281
  25   0.0000       0.036738         0.9997
  26   0.0000       0.043441         1.1821
  27   0.0000       0.049237         1.3398

MULLIKEN ATOMIC CHARGES
-----------------------
   0 O :   -0.551124
   1 C :   -0.379094
   2 C :   -1.008707
   3 C :   -1.077953
   4 C :   -0.289516
   5 C :    0.124802
   6 H :    0.212264
   7 H :    0.216644
   8 H :    0.539834
   9 H :    0.371940
  10 H :    0.263361
  11 H :    0.299246
  12 H :    0.521550
  13 H :    0.756754
Sum of atomic charges:   -0.0000000

LOEWDIN ATOMIC CHARGES
----------------------
   0 O :    0.556460
   1 C :   -0.096373
   2 C :    0.493060
   3 C :    0.524775
   4 C :    0.183225
   5 C :   -0.021346
   6 H :   -0.185246
   7 H :   -0.217990
   8 H :   -0.223289
   9 H :   -0.156662
  10 H :   -0.163546
  11 H :   -0.246437
  12 H :   -0.245649
  13 H :   -0.200982

  Mayer bond orders larger than 0.100000
B(  0-O ,  1-C ) :   1.1298 B(  0-O ,  2-C ) :  -0.2018 B(  0-O ,  5-C ) :   0.8331
B(  0-O , 13-H ) :  -0.1480 B(  1-C ,  2-C ) :   1.6152 B(  1-C , 13-H ) :   0.3658
B(  2-C , 11-H ) :   1.0218 B(  2-C , 12-H ) :   0.6998 B(  3-C ,  4-C ) :   1.3223
B(  3-C ,  7-H ) :   1.1435 B(  3-C ,  8-H ) :   0.5986 B(  4-C ,  5-C ) :   0.6225
B(  4-C ,  6-H ) :   1.1522 B(  5-C ,  9-H ) :   0.8846 B(  5-C , 10-H ) :   0.9458

MP2 TOTAL ENERGY:     -269.972397423 Eh
FINAL SINGLE POINT ENERGY      -269.972397422552

DIPOLE MOMENT
-------------
                                X             Y             Z
Electronic contribution:      0.64516      -2.47086      -0.19578
Nuclear contribution   :     -0.79431       2.77742       0.30794
                        -----------------------------------------
Total Dipole Moment    :     -0.14915       0.30656       0.11215
                        -----------------------------------------
Magnitude (a.u.)       :      0.35890
Magnitude (Debye)      :      0.91224

Rotational constants in cm-1:     0.449421     0.055977     0.052097
Rotational constants in MHz : 13473.295223  1678.162727  1561.815873

                             ****ORCA TERMINATED NORMALLY****
TOTAL RUN TIME: 0 days 0 hours 1 minutes 16 seconds 609 msec
