                         Program Version 4.2.1 -  RELEASE  -
|  1> %pal
|  2>  nprocs 32
|  3> end
|  4> !RI-MP2 aug-cc-pVTZ aug-cc-pVTZ/C TightSCF
|  5> %maxcore 4500
|  6> *xyzfile 0 1  03_24R1.xyz
|  7>
|  8>
|  9>                          ****END OF INPUT****

CARTESIAN COORDINATES (ANGSTROEM)
---------------------------------
  C      2.282669    0.501780   -0.067957
  C      2.666425   -0.968414   -0.282045
  O      3.432548   -1.466427    0.683492
  O      2.325169   -1.597322   -1.243890
  C      0.874373    0.768781   -0.590944
  H      2.968706    1.071376   -0.701446
  N      2.540900    0.891493    1.314488
  H      3.531195   -0.746696    1.343051
  C     -0.243060    0.102129    0.180035
  H      1.736331    0.735067    1.911133
  H      2.787925    1.869714    1.385072
  H     -0.040593   -0.973007    0.208786
  C     -1.615731    0.348597   -0.437287
  H     -0.244161    0.463894    1.214035
  H     -1.617632   -0.033904   -1.463830
  H     -1.789997    1.426165   -0.504826
  C     -2.738627   -0.305664    0.357902
  H     -2.556879   -1.385342    0.425945
  C     -4.111772   -0.069987   -0.252149
  H     -2.746878    0.072510    1.384642
  H     -4.106934   -0.421398   -1.295097
  H     -4.310463    1.005204   -0.282935
  N     -5.150324   -0.692918    0.563484
  H     -5.056771   -1.702129    0.565564
  H     -6.076425   -0.472901    0.218895
  F      0.689686    2.162849   -0.541635
  H      0.833974    0.482450   -1.642222

 Total Charge           Charge          ....    0
 Multiplicity           Mult            ....    1
 Number of Electrons    NEL             ....   96
 Basis Dimension        Dim             ....  897

ORBITAL ENERGIES
----------------

  NO   OCC          E(Eh)            E(eV)
   0   2.0000     -26.286187      -715.2835
   1   2.0000     -20.605931      -560.7159
   2   2.0000     -20.545039      -559.0589
   3   2.0000     -15.587894      -424.1682
   4   2.0000     -15.541061      -422.8938
   5   2.0000     -11.384586      -309.7903
   6   2.0000     -11.325547      -308.1838
   7   2.0000     -11.299703      -307.4806
   8   2.0000     -11.250034      -306.1290
   9   2.0000     -11.240622      -305.8729
  10   2.0000     -11.228750      -305.5498
  11   2.0000     -11.222077      -305.3682
  12   2.0000      -1.594909       -43.3997
  13   2.0000      -1.465840       -39.8875
  14   2.0000      -1.369123       -37.2557
  15   2.0000      -1.232254       -33.5313
  16   2.0000      -1.181402       -32.1476
  17   2.0000      -1.099303       -29.9136
  18   2.0000      -1.039199       -28.2780
  19   2.0000      -0.978454       -26.6251
  20   2.0000      -0.896867       -24.4050
  21   2.0000      -0.841361       -22.8946
  22   2.0000      -0.811613       -22.0851
  23   2.0000      -0.805523       -21.9194
  24   2.0000      -0.754225       -20.5235
  25   2.0000      -0.724814       -19.7232
  26   2.0000      -0.711553       -19.3624
  27   2.0000      -0.681735       -18.5509
  28   2.0000      -0.675835       -18.3904
  29   2.0000      -0.666315       -18.1313
  30   2.0000      -0.651135       -17.7183
  31   2.0000      -0.641624       -17.4595
  32   2.0000      -0.635603       -17.2956
  33   2.0000      -0.618712       -16.8360
  34   2.0000      -0.603170       -16.4131
  35   2.0000      -0.576493       -15.6872
  36   2.0000      -0.567856       -15.4522
  37   2.0000      -0.560766       -15.2592
  38   2.0000      -0.542270       -14.7559
  39   2.0000      -0.518273       -14.1029
  40   2.0000      -0.513389       -13.9700
  41   2.0000      -0.485176       -13.2023
  42   2.0000      -0.481217       -13.0946
  43   2.0000      -0.479610       -13.0509
  44   2.0000      -0.474089       -12.9006
  45   2.0000      -0.462394       -12.5824
  46   2.0000      -0.427384       -11.6297
  47   2.0000      -0.390804       -10.6343
  48   0.0000       0.022690         0.6174
  49   0.0000       0.027400         0.7456
  50   0.0000       0.032245         0.8774
  51   0.0000       0.038495         1.0475
  52   0.0000       0.043674         1.1884

MULLIKEN ATOMIC CHARGES
-----------------------
   0 C :    0.332133
   1 C :    0.686955
   2 O :   -0.584982
   3 O :   -0.877342
   4 C :    0.621217
   5 H :    0.421639
   6 N :   -0.643531
   7 H :    0.227227
   8 C :   -0.400658
   9 H :    0.121212
  10 H :    0.051201
  11 H :    0.252868
  12 C :   -0.419208
  13 H :    0.194902
  14 H :    0.231320
  15 H :    0.289400
  16 C :   -0.355130
  17 H :    0.201408
  18 C :   -0.200994
  19 H :    0.175692
  20 H :    0.219579
  21 H :    0.251299
  22 N :   -0.633392
  23 H :    0.100856
  24 H :    0.082965
  25 F :   -0.717164
  26 H :    0.370526
Sum of atomic charges:    0.0000000

LOEWDIN ATOMIC CHARGES
----------------------
   0 C :   -0.111723
   1 C :   -0.789844
   2 O :    0.852882
   3 O :    0.455045
   4 C :   -0.348346
   5 H :   -0.129789
   6 N :    0.876416
   7 H :   -0.578816
   8 C :    0.280160
   9 H :   -0.307338
  10 H :   -0.280848
  11 H :   -0.137937
  12 C :    0.281666
  13 H :   -0.147554
  14 H :   -0.133801
  15 H :   -0.140107
  16 C :    0.270164
  17 H :   -0.138668
  18 C :    0.141795
  19 H :   -0.140030
  20 H :   -0.142082
  21 H :   -0.147819
  22 N :    0.837218
  23 H :   -0.325944
  24 H :   -0.326619
  25 F :    0.481527
  26 H :   -0.149607

  Mayer bond orders larger than 0.100000
B(  0-C ,  1-C ) :   0.7811 B(  0-C ,  2-O ) :   0.1322 B(  0-C ,  4-C ) :   0.9788
B(  0-C ,  5-H ) :   0.9066 B(  0-C ,  6-N ) :   0.4359 B(  0-C , 25-F ) :   0.1902
B(  1-C ,  2-O ) :   0.6757 B(  1-C ,  3-O ) :   1.3231 B(  1-C ,  6-N ) :   0.1673
B(  2-O ,  7-H ) :   0.8786 B(  4-C ,  8-C ) :   0.8708 B(  4-C , 25-F ) :   0.1396
B(  4-C , 26-H ) :   0.9982 B(  5-H ,  6-N ) :  -0.1245 B(  6-N ,  7-H ) :   0.1454
B(  6-N ,  9-H ) :   0.9708 B(  6-N , 10-H ) :   1.0675 B(  8-C , 11-H ) :   0.9686
B(  8-C , 12-C ) :   0.9504 B(  8-C , 13-H ) :   0.9566 B(  8-C , 25-F ) :   0.2422
B( 12-C , 14-H ) :   0.9411 B( 12-C , 15-H ) :   0.9488 B( 12-C , 16-C ) :   0.9002
B( 16-C , 17-H ) :   0.9633 B( 16-C , 18-C ) :   0.9801 B( 16-C , 19-H ) :   0.9930
B( 18-C , 20-H ) :   0.9927 B( 18-C , 21-H ) :   0.9553 B( 18-C , 22-N ) :   0.7665
B( 22-N , 23-H ) :   0.9883 B( 22-N , 24-H ) :   1.0112 B( 25-F , 26-H ) :  -0.1126

MP2 TOTAL ENERGY:     -634.511969036 Eh
FINAL SINGLE POINT ENERGY      -634.511969036156

DIPOLE MOMENT
-------------
                                X             Y             Z
Electronic contribution:     17.07126       1.71161      -2.75931
Nuclear contribution   :    -17.49691      -0.80142       3.34258
                        -----------------------------------------
Total Dipole Moment    :     -0.42565       0.91019       0.58327
                        -----------------------------------------
Magnitude (a.u.)       :      1.16183
Magnitude (Debye)      :      2.95313

Rotational constants in cm-1:     0.053212     0.011435     0.010534
Rotational constants in MHz :  1595.266529   342.804297   315.799374

                             ****ORCA TERMINATED NORMALLY****
TOTAL RUN TIME: 0 days 0 hours 10 minutes 31 seconds 297 msec
