                         Program Version 4.2.1 -  RELEASE  -
|  1> %pal
|  2>  nprocs 32
|  3> end
|  4> !RI-MP2 aug-cc-pVTZ aug-cc-pVTZ/C TightSCF
|  5> %maxcore 4500
|  6> *xyzfile 0 1  05_32R1.xyz
|  7>
|  8>
|  9>                          ****END OF INPUT****

CARTESIAN COORDINATES (ANGSTROEM)
---------------------------------
  C      2.577036    1.242646   -0.348595
  C      1.280041    1.223418    0.150913
  C      0.663458    0.023144    0.488468
  C      1.380353   -1.160522    0.317424
  C      2.672765   -1.145212   -0.182277
  C      3.277961    0.059242   -0.518634
  H      3.037179    2.188941   -0.607429
  H      0.754412    2.161696    0.271397
  H      0.905137   -2.098620    0.575946
  H      3.211412   -2.077020   -0.308457
  H      4.287946    0.073472   -0.910148
  C     -0.734277   -0.051794    1.094135
  C     -1.634092    1.157767    0.839527
  C     -2.098599    1.217219   -0.614603
  C     -1.790878   -1.259820   -0.673905
  C     -2.736953   -0.115637   -1.001104
  H     -1.246485    1.416751   -1.271884
  H     -2.805446    2.038856   -0.752244
  H     -0.901360   -1.207082   -1.315032
  H     -2.264455   -2.228887   -0.832385
  O     -1.401785   -1.246824    0.693772
  H     -2.982485   -0.139908   -2.066457
  H     -3.670018   -0.254401   -0.445761
  H     -2.506277    1.050606    1.490598
  H     -1.132955    2.079591    1.139812
  H     -0.613213   -0.172104    2.173776

 Total Charge           Charge          ....    0
 Multiplicity           Mult            ....    1
 Number of Electrons    NEL             ....   88
 Basis Dimension        Dim             ....  874

ORBITAL ENERGIES
----------------

  NO   OCC          E(Eh)            E(eV)
   0   2.0000     -20.549742      -559.1869
   1   2.0000     -11.282222      -307.0049
   2   2.0000     -11.266136      -306.5671
   3   2.0000     -11.235964      -305.7461
   4   2.0000     -11.232693      -305.6571
   5   2.0000     -11.231503      -305.6247
   6   2.0000     -11.230366      -305.5938
   7   2.0000     -11.229638      -305.5740
   8   2.0000     -11.225452      -305.4601
   9   2.0000     -11.221850      -305.3621
  10   2.0000     -11.220963      -305.3379
  11   2.0000     -11.218378      -305.2676
  12   2.0000      -1.372373       -37.3442
  13   2.0000      -1.155337       -31.4383
  14   2.0000      -1.080855       -29.4116
  15   2.0000      -1.052270       -28.6337
  16   2.0000      -1.013694       -27.5840
  17   2.0000      -0.996901       -27.1271
  18   2.0000      -0.884028       -24.0556
  19   2.0000      -0.868254       -23.6264
  20   2.0000      -0.822894       -22.3921
  21   2.0000      -0.813374       -22.1330
  22   2.0000      -0.754805       -20.5393
  23   2.0000      -0.697916       -18.9913
  24   2.0000      -0.679383       -18.4869
  25   2.0000      -0.648727       -17.6528
  26   2.0000      -0.635412       -17.2904
  27   2.0000      -0.626241       -17.0409
  28   2.0000      -0.606528       -16.5045
  29   2.0000      -0.598375       -16.2826
  30   2.0000      -0.582147       -15.8410
  31   2.0000      -0.576609       -15.6903
  32   2.0000      -0.547988       -14.9115
  33   2.0000      -0.542703       -14.7677
  34   2.0000      -0.521857       -14.2005
  35   2.0000      -0.501923       -13.6580
  36   2.0000      -0.492732       -13.4079
  37   2.0000      -0.484912       -13.1951
  38   2.0000      -0.478973       -13.0335
  39   2.0000      -0.458689       -12.4816
  40   2.0000      -0.439290       -11.9537
  41   2.0000      -0.406948       -11.0736
  42   2.0000      -0.336292        -9.1510
  43   2.0000      -0.328409        -8.9365
  44   0.0000       0.026659         0.7254
  45   0.0000       0.030910         0.8411
  46   0.0000       0.033588         0.9140
  47   0.0000       0.035812         0.9745
  48   0.0000       0.043425         1.1817

MULLIKEN ATOMIC CHARGES
-----------------------
   0 C :   -0.815722
   1 C :   -0.836537
   2 C :    1.825141
   3 C :   -0.836595
   4 C :   -0.833812
   5 C :   -0.166975
   6 H :    0.580919
   7 H :   -0.264350
   8 H :    0.089552
   9 H :    0.458557
  10 H :    0.460465
  11 C :    0.517141
  12 C :   -0.622863
  13 C :   -0.418859
  14 C :   -0.327988
  15 C :   -0.592254
  16 H :    0.186980
  17 H :    0.373168
  18 H :    0.267672
  19 H :    0.362162
  20 O :   -0.940265
  21 H :    0.328968
  22 H :    0.150601
  23 H :    0.245145
  24 H :    0.218259
  25 H :    0.591490
Sum of atomic charges:   -0.0000000

LOEWDIN ATOMIC CHARGES
----------------------
   0 C :    0.202585
   1 C :    0.216245
   2 C :   -0.092250
   3 C :    0.209063
   4 C :    0.202610
   5 C :    0.192668
   6 H :   -0.181701
   7 H :   -0.195919
   8 H :   -0.178113
   9 H :   -0.181627
  10 H :   -0.184572
  11 C :   -0.235849
  12 C :    0.297626
  13 C :    0.290966
  14 C :    0.046037
  15 C :    0.293399
  16 H :   -0.146503
  17 H :   -0.136686
  18 H :   -0.154776
  19 H :   -0.150515
  20 O :    0.597709
  21 H :   -0.139829
  22 H :   -0.141192
  23 H :   -0.135590
  24 H :   -0.157199
  25 H :   -0.136584

  Mayer bond orders larger than 0.100000
B(  0-C ,  1-C ) :   1.1098 B(  0-C ,  2-C ) :   0.2243 B(  0-C ,  4-C ) :   0.3581
B(  0-C ,  5-C ) :   1.1645 B(  0-C ,  6-H ) :   0.4776 B(  0-C , 10-H ) :  -0.2394
B(  0-C , 11-C ) :  -0.1161 B(  1-C ,  3-C ) :  -0.5910 B(  1-C ,  4-C ) :   0.1470
B(  1-C ,  5-C ) :  -0.3570 B(  1-C ,  6-H ) :  -0.1905 B(  1-C ,  7-H ) :   2.4630
B(  1-C ,  8-H ) :   0.4331 B(  1-C ,  9-H ) :  -0.1123 B(  1-C , 10-H ) :   0.2553
B(  1-C , 11-C ) :   0.2622 B(  1-C , 12-C ) :  -0.1586 B(  2-C ,  3-C ) :   0.7352
B(  2-C ,  4-C ) :   0.1297 B(  2-C ,  5-C ) :   0.1488 B(  2-C ,  6-H ) :   0.1097
B(  2-C ,  7-H ) :  -0.6213 B(  2-C ,  8-H ) :  -0.3370 B(  2-C , 11-C ) :   0.4328
B(  2-C , 12-C ) :   0.1505 B(  2-C , 25-H ) :  -0.1694 B(  3-C ,  4-C ) :   1.2266
B(  3-C ,  5-C ) :  -0.1925 B(  3-C ,  7-H ) :   0.1274 B(  3-C ,  8-H ) :   1.4798
B(  3-C , 10-H ) :   0.1039 B(  3-C , 11-C ) :   0.2084 B(  4-C ,  5-C ) :   1.1347
B(  4-C ,  8-H ) :  -0.1178 B(  4-C ,  9-H ) :   0.7861 B(  4-C , 10-H ) :  -0.2527
B(  5-C ,  7-H ) :  -0.1095 B(  5-C , 10-H ) :   0.8213 B(  7-H ,  8-H ) :   0.1943
B(  8-H , 11-C ) :  -0.1270 B( 11-C , 12-C ) :   0.9408 B( 11-C , 20-O ) :   0.4687
B( 11-C , 25-H ) :   0.8772 B( 12-C , 13-C ) :   0.8315 B( 12-C , 15-C ) :   0.1082
B( 12-C , 23-H ) :   1.0099 B( 12-C , 24-H ) :   1.0137 B( 13-C , 15-C ) :   0.8820
B( 13-C , 16-H ) :   1.0542 B( 13-C , 17-H ) :   0.8548 B( 14-C , 15-C ) :   0.8991
B( 14-C , 18-H ) :   1.0220 B( 14-C , 19-H ) :   0.9233 B( 14-C , 20-O ) :   0.8818
B( 15-C , 21-H ) :   0.8833 B( 15-C , 22-H ) :   1.0737 B( 20-O , 25-H ) :  -0.1002

MP2 TOTAL ENERGY:     -501.799567665 Eh
FINAL SINGLE POINT ENERGY      -501.799567664960

DIPOLE MOMENT
-------------
                                X             Y             Z
Electronic contribution:      5.99743      -2.42432       2.55386
Nuclear contribution   :     -6.06012       2.86491      -2.90066
                        -----------------------------------------
Total Dipole Moment    :     -0.06269       0.44059      -0.34680
                        -----------------------------------------
Magnitude (a.u.)       :      0.56419
Magnitude (Debye)      :      1.43407

Rotational constants in cm-1:     0.063815     0.022169     0.019546
Rotational constants in MHz :  1913.121984   664.602344   585.968567

                             ****ORCA TERMINATED NORMALLY****
TOTAL RUN TIME: 0 days 0 hours 12 minutes 29 seconds 368 msec
