                         Program Version 4.2.1 -  RELEASE  -
|  1> %pal
|  2>  nprocs 32
|  3> end
|  4> !RI-MP2 aug-cc-pVTZ aug-cc-pVTZ/C TightSCF
|  5> %maxcore 4500
|  6> *xyzfile 0 1  02_17P.xyz
|  7>
|  8>
|  9>                          ****END OF INPUT****

CARTESIAN COORDINATES (ANGSTROEM)
---------------------------------
  C      2.022647   -0.791767    0.093297
  C      0.534009   -0.903962   -0.217855
  C     -0.222809    0.290517    0.447305
  C      2.567601    0.571034   -0.333980
  H      2.184973   -0.941829    1.172300
  C      1.776317    1.747944    0.206707
  H      3.610588    0.681246   -0.032864
  H      2.539659    0.613772   -1.426801
  C      0.293559    1.611359   -0.116423
  H      1.886773    1.793812    1.303136
  C     -0.132162   -2.245371    0.068283
  C     -1.435960   -2.308952   -0.211837
  C     -1.750861    0.068593    0.379411
  C     -2.066374   -1.032134   -0.652171
  C      0.622975   -3.412832    0.628422
  H     -0.065194   -4.220182    0.883287
  H      1.167747   -3.133975    1.535237
  H      1.362015   -3.782600   -0.081588
  H     -0.275032    2.438035    0.305247
  H      0.159252    1.649743   -1.203139
  C     -3.553459   -0.847210   -0.861507
  H     -3.911198   -1.157417   -1.841414
  H     -4.164776   -1.319675   -0.089373
  C     -2.680418    1.168432   -0.117707
  O      2.689338   -1.823741   -0.616080
  O      2.360930    2.909708   -0.350693
  O     -2.634469    2.349519    0.056580
  O     -3.718750    0.585329   -0.776081
  C      3.990549   -2.109186   -0.160702
  H      3.990328   -2.348802    0.910860
  H      4.339886   -2.978166   -0.716925
  H      4.684212   -1.280400   -0.336044
  C      1.928780    4.121351    0.225244
  H      2.552397    4.910913   -0.191687
  H      0.881537    4.340548   -0.005967
  H      2.054291    4.106837    1.315874
  C     -2.274360   -0.275256    1.788554
  H     -2.092705    0.572455    2.451656
  H     -1.748653   -1.144637    2.181861
  H     -3.345548   -0.484398    1.804330
  H     -2.016861   -3.211373   -0.054521
  H     -1.593335   -0.709474   -1.590121
  H      0.044439    0.276429    1.509741
  H      0.458599   -0.752743   -1.303143

 Total Charge           Charge          ....    0
 Multiplicity           Mult            ....    1
 Number of Electrons    NEL             ....  152
 Basis Dimension        Dim             .... 1472

ORBITAL ENERGIES
----------------

  NO   OCC          E(Eh)            E(eV)
   0   2.0000     -20.597839      -560.4957
   1   2.0000     -20.560156      -559.4703
   2   2.0000     -20.552635      -559.2656
   3   2.0000     -20.538390      -558.8780
   4   2.0000     -11.372106      -309.4507
   5   2.0000     -11.298137      -307.4379
   6   2.0000     -11.288070      -307.1640
   7   2.0000     -11.279081      -306.9194
   8   2.0000     -11.275987      -306.8352
   9   2.0000     -11.265142      -306.5401
  10   2.0000     -11.259895      -306.3973
  11   2.0000     -11.246963      -306.0454
  12   2.0000     -11.246446      -306.0314
  13   2.0000     -11.243404      -305.9486
  14   2.0000     -11.241076      -305.8852
  15   2.0000     -11.231791      -305.6326
  16   2.0000     -11.225753      -305.4683
  17   2.0000     -11.222115      -305.3693
  18   2.0000     -11.218881      -305.2813
  19   2.0000     -11.216179      -305.2078
  20   2.0000      -1.456434       -39.6316
  21   2.0000      -1.384513       -37.6745
  22   2.0000      -1.374282       -37.3961
  23   2.0000      -1.364927       -37.1416
  24   2.0000      -1.176406       -32.0116
  25   2.0000      -1.106286       -30.1036
  26   2.0000      -1.084414       -29.5084
  27   2.0000      -1.030000       -28.0277
  28   2.0000      -1.007964       -27.4281
  29   2.0000      -0.993788       -27.0424
  30   2.0000      -0.952300       -25.9134
  31   2.0000      -0.926640       -25.2151
  32   2.0000      -0.920519       -25.0486
  33   2.0000      -0.916973       -24.9521
  34   2.0000      -0.850520       -23.1438
  35   2.0000      -0.825264       -22.4566
  36   2.0000      -0.812231       -22.1019
  37   2.0000      -0.788355       -21.4522
  38   2.0000      -0.755173       -20.5493
  39   2.0000      -0.717811       -19.5326
  40   2.0000      -0.700157       -19.0522
  41   2.0000      -0.690986       -18.8027
  42   2.0000      -0.675145       -18.3716
  43   2.0000      -0.667075       -18.1520
  44   2.0000      -0.655144       -17.8274
  45   2.0000      -0.651653       -17.7324
  46   2.0000      -0.639425       -17.3996
  47   2.0000      -0.638192       -17.3661
  48   2.0000      -0.623827       -16.9752
  49   2.0000      -0.616068       -16.7641
  50   2.0000      -0.612288       -16.6612
  51   2.0000      -0.596443       -16.2300
  52   2.0000      -0.591290       -16.0898
  53   2.0000      -0.580988       -15.8095
  54   2.0000      -0.572837       -15.5877
  55   2.0000      -0.569669       -15.5015
  56   2.0000      -0.567039       -15.4299
  57   2.0000      -0.550842       -14.9892
  58   2.0000      -0.543583       -14.7917
  59   2.0000      -0.536884       -14.6094
  60   2.0000      -0.522414       -14.2156
  61   2.0000      -0.518436       -14.1074
  62   2.0000      -0.510695       -13.8967
  63   2.0000      -0.508759       -13.8440
  64   2.0000      -0.499325       -13.5873
  65   2.0000      -0.497146       -13.5280
  66   2.0000      -0.485699       -13.2165
  67   2.0000      -0.467230       -12.7140
  68   2.0000      -0.465534       -12.6678
  69   2.0000      -0.458898       -12.4872
  70   2.0000      -0.452130       -12.3031
  71   2.0000      -0.446808       -12.1583
  72   2.0000      -0.420496       -11.4423
  73   2.0000      -0.411508       -11.1977
  74   2.0000      -0.408508       -11.1161
  75   2.0000      -0.345142        -9.3918
  76   0.0000       0.021334         0.5805
  77   0.0000       0.026661         0.7255
  78   0.0000       0.029880         0.8131
  79   0.0000       0.032229         0.8770
  80   0.0000       0.039335         1.0703

MULLIKEN ATOMIC CHARGES
-----------------------
   0 C :    0.673523
   1 C :    1.437021
   2 C :    0.187991
   3 C :   -0.864125
   4 H :    0.130821
   5 C :    0.791780
   6 H :    0.293540
   7 H :   -0.004848
   8 C :   -1.054345
   9 H :    0.205517
  10 C :   -0.085785
  11 C :   -0.820680
  12 C :    2.042121
  13 C :    0.062071
  14 C :   -1.388597
  15 H :    0.094520
  16 H :    0.191338
  17 H :    0.294068
  18 H :    0.397893
  19 H :    0.058660
  20 C :   -0.499131
  21 H :    0.335221
  22 H :    0.262473
  23 C :    0.223659
  24 O :   -0.859444
  25 O :   -0.933929
  26 O :   -1.180787
  27 O :   -0.579790
  28 C :   -1.115427
  29 H :    0.323955
  30 H :    0.304308
  31 H :    0.350410
  32 C :   -1.042597
  33 H :    0.349948
  34 H :    0.364481
  35 H :    0.319665
  36 C :   -1.450854
  37 H :    0.231915
  38 H :    0.350500
  39 H :    0.185113
  40 H :    0.204157
  41 H :    0.257997
  42 H :    0.462491
  43 H :    0.493181
Sum of atomic charges:    0.0000000

LOEWDIN ATOMIC CHARGES
----------------------
   0 C :   -0.247247
   1 C :    0.051049
   2 C :    0.070550
   3 C :    0.318376
   4 H :   -0.127902
   5 C :   -0.260764
   6 H :   -0.145751
   7 H :   -0.125815
   8 C :    0.318545
   9 H :   -0.124122
  10 C :   -0.032018
  11 C :    0.281753
  12 C :   -0.255234
  13 C :   -0.035563
  14 C :    0.586562
  15 H :   -0.172248
  16 H :   -0.163807
  17 H :   -0.183316
  18 H :   -0.188482
  19 H :   -0.112419
  20 C :    0.119861
  21 H :   -0.138132
  22 H :   -0.149269
  23 C :   -0.770962
  24 O :    0.595120
  25 O :    0.588940
  26 O :    0.481789
  27 O :    0.612022
  28 C :    0.332949
  29 H :   -0.169398
  30 H :   -0.177469
  31 H :   -0.180254
  32 C :    0.332565
  33 H :   -0.182850
  34 H :   -0.180280
  35 H :   -0.171978
  36 C :    0.617669
  37 H :   -0.141070
  38 H :   -0.152610
  39 H :   -0.157055
  40 H :   -0.156573
  41 H :   -0.133056
  42 H :   -0.135030
  43 H :   -0.137075

  Mayer bond orders larger than 0.100000
B(  0-C ,  1-C ) :   0.5719 B(  0-C ,  2-C ) :   0.1653 B(  0-C ,  3-C ) :   0.9248
B(  0-C ,  4-H ) :   1.2961 B(  0-C , 10-C ) :  -0.1297 B(  0-C , 14-C ) :  -0.1813
B(  0-C , 24-O ) :   0.3518 B(  0-C , 28-C ) :  -0.2077 B(  0-C , 42-H ) :  -0.1336
B(  0-C , 43-H ) :   0.1149 B(  1-C ,  2-C ) :   1.3046 B(  1-C ,  3-C ) :  -0.1706
B(  1-C ,  4-H ) :  -0.2438 B(  1-C ,  8-C ) :   0.2089 B(  1-C , 10-C ) :   0.1184
B(  1-C , 11-C ) :  -0.2368 B(  1-C , 12-C ) :  -0.1924 B(  1-C , 13-C ) :  -0.2123
B(  1-C , 14-C ) :   0.4006 B(  1-C , 24-O ) :  -0.3801 B(  1-C , 40-H ) :   0.1849
B(  1-C , 41-H ) :  -0.1252 B(  1-C , 43-H ) :   1.0649 B(  2-C ,  5-C ) :  -0.1242
B(  2-C ,  8-C ) :   0.3299 B(  2-C , 10-C ) :   0.6244 B(  2-C , 12-C ) :   0.2592
B(  2-C , 19-H ) :  -0.1518 B(  2-C , 23-C ) :   0.1972 B(  2-C , 26-O ) :   0.3514
B(  2-C , 36-C ) :  -0.1733 B(  2-C , 42-H ) :   0.6829 B(  3-C ,  5-C ) :   0.8638
B(  3-C ,  6-H ) :   0.8449 B(  3-C ,  7-H ) :   1.3361 B(  3-C ,  8-C ) :   0.2111
B(  3-C , 24-O ) :   0.1394 B(  3-C , 25-O ) :   0.1592 B(  3-C , 43-H ) :  -0.1934
B(  5-C ,  8-C ) :   1.0561 B(  5-C ,  9-H ) :   1.1409 B(  5-C , 19-H ) :   0.1370
B(  5-C , 25-O ) :  -0.1959 B(  5-C , 32-C ) :  -0.1894 B(  8-C , 10-C ) :   0.1023
B(  8-C , 18-H ) :   0.8575 B(  8-C , 19-H ) :   1.2345 B(  8-C , 25-O ) :   0.3696
B(  9-H , 25-O ) :  -0.1654 B( 10-C , 11-C ) :   1.5107 B( 10-C , 13-C ) :   0.3990
B( 10-C , 16-H ) :  -0.1806 B( 10-C , 17-H ) :  -0.1231 B( 10-C , 24-O ) :   0.1465
B( 10-C , 36-C ) :  -0.1132 B( 10-C , 41-H ) :   0.1428 B( 10-C , 43-H ) :  -0.4229
B( 11-C , 12-C ) :   0.5040 B( 11-C , 13-C ) :   0.9822 B( 11-C , 14-C ) :  -0.2257
B( 11-C , 40-H ) :   0.9987 B( 12-C , 13-C ) :   1.0000 B( 12-C , 20-C ) :  -0.1951
B( 12-C , 23-C ) :  -0.4327 B( 12-C , 26-O ) :  -0.2246 B( 12-C , 27-O ) :  -0.1016
B( 12-C , 38-H ) :  -0.1764 B( 12-C , 40-H ) :   0.1426 B( 12-C , 41-H ) :  -0.1034
B( 13-C , 20-C ) :   0.4718 B( 13-C , 21-H ) :  -0.1056 B( 13-C , 22-H ) :  -0.1868
B( 13-C , 27-O ) :   0.2170 B( 13-C , 36-C ) :   0.1927 B( 13-C , 41-H ) :   0.9668
B( 13-C , 43-H ) :  -0.1233 B( 14-C , 15-H ) :   1.2468 B( 14-C , 16-H ) :   1.1765
B( 14-C , 17-H ) :   1.0419 B( 20-C , 21-H ) :   1.0648 B( 20-C , 22-H ) :   1.2038
B( 20-C , 27-O ) :   0.6200 B( 23-C , 26-O ) :   1.0070 B( 23-C , 27-O ) :   0.6350
B( 23-C , 42-H ) :  -0.1233 B( 24-O , 28-C ) :   1.1631 B( 25-O , 32-C ) :   1.1635
B( 26-O , 27-O ) :  -0.1818 B( 28-C , 29-H ) :   0.9069 B( 28-C , 30-H ) :   1.0348
B( 28-C , 31-H ) :   0.8845 B( 32-C , 33-H ) :   0.9834 B( 32-C , 34-H ) :   0.8630
B( 32-C , 35-H ) :   0.9106 B( 36-C , 37-H ) :   1.1620 B( 36-C , 38-H ) :   1.0093
B( 36-C , 39-H ) :   1.1975

MP2 TOTAL ENERGY:     -923.290830054 Eh
FINAL SINGLE POINT ENERGY      -923.290830054301

DIPOLE MOMENT
-------------
                                X             Y             Z
Electronic contribution:    -12.24678       4.57888      -5.75345
Nuclear contribution   :     12.91370      -6.12804       6.59119
                        -----------------------------------------
Total Dipole Moment    :      0.66693      -1.54917       0.83774
                        -----------------------------------------
Magnitude (a.u.)       :      1.88322
Magnitude (Debye)      :      4.78676

Rotational constants in cm-1:     0.014020     0.010271     0.006477
Rotational constants in MHz :   420.312891   307.925339   194.183078

                             ****ORCA TERMINATED NORMALLY****
TOTAL RUN TIME: 0 days 1 hours 9 minutes 59 seconds 547 msec
