                         Program Version 4.2.1 -  RELEASE  -
|  1> %pal
|  2>  nprocs 32
|  3> end
|  4> !RI-MP2 aug-cc-pVTZ aug-cc-pVTZ/C TightSCF
|  5> %maxcore 4500
|  6> *xyzfile -1 1  07_6R.xyz
|  7>
|  8>
|  9>                          ****END OF INPUT****

CARTESIAN COORDINATES (ANGSTROEM)
---------------------------------
  C     -1.089824    1.078966    0.256177
  C     -2.578367    0.770856    0.215668
  C     -2.852755   -0.704058    0.538416
  H     -2.941430    0.981401   -0.789547
  H     -3.119968    1.414519    0.907997
  C     -1.863336   -1.649986   -0.130878
  C     -0.441165   -1.189287    0.038978
  O     -0.414413    0.112741   -0.535815
  C     -0.738099    2.435454   -0.400815
  C      0.710160   -1.975771   -0.538953
  O      1.883098   -1.670923    0.200457
  H      0.844266   -1.739786   -1.597759
  H      0.531298   -3.045267   -0.425285
  P      2.677254   -0.232724   -0.001918
  O      1.935708    0.860777    0.747655
  O      3.043118   -0.068664   -1.431976
  O      3.975797   -0.578541    0.917154
  H      4.596099   -1.104302    0.404151
  O     -2.241422   -2.647914   -0.700866
  O     -4.173148   -1.056326    0.204148
  H     -2.691023   -0.859017    1.615652
  H     -4.111834   -1.893741   -0.278054
  O     -1.595494    3.183377   -0.799949
  O      0.543369    2.717809   -0.455324
  H      1.139000    1.993795   -0.085752
  O     -0.629671    1.053841    1.574355
  H      0.355799    1.014512    1.531488
  H     -0.256241   -1.117722    1.115612

 Total Charge           Charge          ....   -1
 Multiplicity           Mult            ....    1
 Number of Electrons    NEL             ....  148
 Basis Dimension        Dim             .... 1062

ORBITAL ENERGIES
----------------

  NO   OCC          E(Eh)            E(eV)
   0   2.0000     -79.943338     -2175.3688
   1   2.0000     -20.484269      -557.4053
   2   2.0000     -20.480295      -557.2972
   3   2.0000     -20.475763      -557.1738
   4   2.0000     -20.463803      -556.8484
   5   2.0000     -20.459487      -556.7310
   6   2.0000     -20.456944      -556.6617
   7   2.0000     -20.452950      -556.5531
   8   2.0000     -20.423566      -555.7535
   9   2.0000     -20.382170      -554.6271
  10   2.0000     -20.359081      -553.9987
  11   2.0000     -11.260583      -306.4161
  12   2.0000     -11.255221      -306.2701
  13   2.0000     -11.254773      -306.2579
  14   2.0000     -11.209287      -305.0202
  15   2.0000     -11.200716      -304.7870
  16   2.0000     -11.188938      -304.4665
  17   2.0000     -11.138666      -303.0985
  18   2.0000      -7.459244      -202.9763
  19   2.0000      -5.358032      -145.7995
  20   2.0000      -5.357334      -145.7805
  21   2.0000      -5.356169      -145.7488
  22   2.0000      -1.354881       -36.8682
  23   2.0000      -1.333613       -36.2895
  24   2.0000      -1.316736       -35.8302
  25   2.0000      -1.292986       -35.1839
  26   2.0000      -1.278941       -34.8018
  27   2.0000      -1.251654       -34.0592
  28   2.0000      -1.238146       -33.6917
  29   2.0000      -1.236497       -33.6468
  30   2.0000      -1.174639       -31.9636
  31   2.0000      -1.132979       -30.8299
  32   2.0000      -0.974811       -26.5260
  33   2.0000      -0.963695       -26.2235
  34   2.0000      -0.857459       -23.3326
  35   2.0000      -0.787940       -21.4409
  36   2.0000      -0.767281       -20.8788
  37   2.0000      -0.707081       -19.2406
  38   2.0000      -0.672226       -18.2922
  39   2.0000      -0.665437       -18.1075
  40   2.0000      -0.658794       -17.9267
  41   2.0000      -0.634715       -17.2715
  42   2.0000      -0.624765       -17.0007
  43   2.0000      -0.594991       -16.1905
  44   2.0000      -0.584207       -15.8971
  45   2.0000      -0.573034       -15.5930
  46   2.0000      -0.550902       -14.9908
  47   2.0000      -0.539840       -14.6898
  48   2.0000      -0.527462       -14.3530
  49   2.0000      -0.519274       -14.1302
  50   2.0000      -0.513857       -13.9828
  51   2.0000      -0.499035       -13.5794
  52   2.0000      -0.494581       -13.4582
  53   2.0000      -0.478737       -13.0271
  54   2.0000      -0.474334       -12.9073
  55   2.0000      -0.464874       -12.6499
  56   2.0000      -0.450673       -12.2634
  57   2.0000      -0.443083       -12.0569
  58   2.0000      -0.433167       -11.7871
  59   2.0000      -0.429284       -11.6814
  60   2.0000      -0.418673       -11.3927
  61   2.0000      -0.410651       -11.1744
  62   2.0000      -0.405466       -11.0333
  63   2.0000      -0.395436       -10.7604
  64   2.0000      -0.392264       -10.6741
  65   2.0000      -0.371004       -10.0955
  66   2.0000      -0.362901        -9.8750
  67   2.0000      -0.352676        -9.5968
  68   2.0000      -0.348568        -9.4850
  69   2.0000      -0.343395        -9.3443
  70   2.0000      -0.318625        -8.6702
  71   2.0000      -0.313817        -8.5394
  72   2.0000      -0.307992        -8.3809
  73   2.0000      -0.298484        -8.1222
  74   0.0000       0.101429         2.7600
  75   0.0000       0.107295         2.9197
  76   0.0000       0.113543         3.0897
  77   0.0000       0.115906         3.1540
  78   0.0000       0.122331         3.3288

MULLIKEN ATOMIC CHARGES
-----------------------
   0 C :    2.503106
   1 C :   -0.792958
   2 C :    0.784761
   3 H :    0.150147
   4 H :    0.347121
   5 C :    0.048978
   6 C :    0.957599
   7 O :   -0.760292
   8 C :   -0.010287
   9 C :   -0.401636
  10 O :   -0.815939
  11 H :    0.381945
  12 H :    0.296566
  13 P :    1.737558
  14 O :   -0.791224
  15 O :   -1.026810
  16 O :   -0.635676
  17 H :    0.145915
  18 O :   -1.143566
  19 O :   -0.873495
  20 H :    0.201728
  21 H :    0.202714
  22 O :   -0.952993
  23 O :   -0.580692
  24 H :    0.389593
  25 O :   -1.065670
  26 H :    0.305196
  27 H :    0.398314
Sum of atomic charges:   -1.0000000

LOEWDIN ATOMIC CHARGES
----------------------
   0 C :   -0.805495
   1 C :    0.298232
   2 C :   -0.250904
   3 H :   -0.155481
   4 H :   -0.133941
   5 C :   -0.440506
   6 C :   -0.277727
   7 O :    0.618334
   8 C :   -0.800310
   9 C :   -0.017193
  10 O :    0.367101
  11 H :   -0.160255
  12 H :   -0.164072
  13 P :   -0.421144
  14 O :    0.241277
  15 O :   -0.034279
  16 O :    0.594174
  17 H :   -0.589727
  18 O :    0.507103
  19 O :    0.836382
  20 H :   -0.135376
  21 H :   -0.576516
  22 O :    0.424366
  23 O :    0.847081
  24 H :   -0.769637
  25 O :    0.863454
  26 H :   -0.684614
  27 H :   -0.180325

  Mayer bond orders larger than 0.100000
B(  0-C ,  1-C ) :   0.5904 B(  0-C ,  3-H ) :  -0.1016 B(  0-C ,  7-O ) :   0.5917
B(  0-C ,  8-C ) :  -0.3273 B(  0-C , 14-O ) :  -0.1645 B(  0-C , 25-O ) :   0.1350
B(  1-C ,  2-C ) :   0.9114 B(  1-C ,  3-H ) :   1.1717 B(  1-C ,  4-H ) :   0.8782
B(  1-C ,  5-C ) :   0.2678 B(  1-C ,  8-C ) :  -0.2649 B(  1-C , 19-O ) :   0.1571
B(  2-C ,  5-C ) :   0.9907 B(  2-C , 19-O ) :   0.1235 B(  2-C , 20-H ) :   1.0955
B(  5-C ,  6-C ) :   0.4664 B(  5-C ,  7-O ) :   0.1280 B(  5-C , 18-O ) :   0.5446
B(  5-C , 19-O ) :   0.1520 B(  5-C , 27-H ) :  -0.2009 B(  6-C ,  7-O ) :   0.7993
B(  6-C ,  9-C ) :   0.5875 B(  6-C , 10-O ) :  -0.2156 B(  6-C , 18-O ) :   0.1410
B(  6-C , 27-H ) :   1.0077 B(  8-C , 22-O ) :   1.1726 B(  8-C , 23-O ) :   0.9489
B(  8-C , 25-O ) :   0.1710 B(  9-C , 10-O ) :   0.8123 B(  9-C , 11-H ) :   0.9986
B(  9-C , 12-H ) :   0.9869 B( 10-O , 13-P ) :   0.9386 B( 13-P , 14-O ) :   1.4088
B( 13-P , 15-O ) :   1.2764 B( 13-P , 16-O ) :   0.5101 B( 14-O , 24-H ) :   0.1716
B( 16-O , 17-H ) :   1.0166 B( 19-O , 21-H ) :   1.0135 B( 23-O , 24-H ) :   0.6184
B( 25-O , 26-H ) :   0.7453

MP2 TOTAL ENERGY:    -1364.632433424 Eh
FINAL SINGLE POINT ENERGY     -1364.632433424014

DIPOLE MOMENT
-------------
                                X             Y             Z
Electronic contribution:      6.86989       1.76849      -1.31766
Nuclear contribution   :     -7.90803      -3.97374       2.31991
                        -----------------------------------------
Total Dipole Moment    :     -1.03814      -2.20525       1.00225
                        -----------------------------------------
Magnitude (a.u.)       :      2.63540
Magnitude (Debye)      :      6.69867

Rotational constants in cm-1:     0.019662     0.010460     0.007725
Rotational constants in MHz :   589.442885   313.594532   231.579223

                             ****ORCA TERMINATED NORMALLY****
TOTAL RUN TIME: 0 days 0 hours 25 minutes 50 seconds 857 msec
