                         Program Version 4.2.1 -  RELEASE  -
|  1> %pal
|  2>  nprocs 32
|  3> end
|  4> !RI-MP2 aug-cc-pVTZ aug-cc-pVTZ/C TightSCF
|  5> %maxcore 4500
|  6> *xyzfile 0 1  02_2P.xyz
|  7>
|  8>
|  9>                          ****END OF INPUT****

CARTESIAN COORDINATES (ANGSTROEM)
---------------------------------
  C      1.202315   -1.661704    0.371375
  O      0.231895   -1.326876    1.359878
  C      2.548283   -1.061388    0.661021
  C      3.058569   -0.002325    0.035807
  C      4.427443    0.508433    0.376255
  C      2.330890    0.679038   -1.107022
  C      2.623923    2.175768   -1.250269
  C      0.837683    0.339180   -1.112065
  C      0.641169   -1.173510   -0.967430
  C     -0.812580   -1.579647   -1.113756
  O     -1.108829   -2.659085   -1.571571
  C     -1.845383   -0.605239   -0.655806
  C     -1.458682    0.629335   -0.101157
  C     -0.052770    1.064608   -0.121870
  O      0.328249    2.016792    0.545235
  C     -2.437758    1.461743    0.463730
  C     -3.782150    1.088717    0.394447
  C     -4.141311   -0.109518   -0.187224
  C     -3.175981   -0.971671   -0.702081
  C      0.515312   -1.791263    2.659656
  O     -2.137199    2.620015    1.063736
  H      4.383806    1.535523    0.745370
  H      4.898137   -0.111340    1.139292
  H      5.073762    0.514320   -0.506789
  H      2.012691    2.597710   -2.051644
  H      2.398156    2.722244   -0.338306
  H      3.668571    2.341785   -1.516313
  H     -4.519735    1.757810    0.818881
  H     -5.187141   -0.390020   -0.224212
  H     -3.438679   -1.934463   -1.118917
  H     -1.158696    2.693456    1.088810
  H     -0.369708   -1.597251    3.263289
  H      0.716320   -2.869966    2.656578
  H      1.368330   -1.266803    3.101117
  H      3.133179   -1.541458    1.439081
  H      0.433223    0.633399   -2.089491
  H      2.726142    0.206349   -2.018390
  H      1.189619   -1.685060   -1.760841
  H      1.285266   -2.756341    0.332587

 Total Charge           Charge          ....    0
 Multiplicity           Mult            ....    1
 Number of Electrons    NEL             ....  152
 Basis Dimension        Dim             .... 1380

ORBITAL ENERGIES
----------------

  NO   OCC          E(Eh)            E(eV)
   0   2.0000     -20.577973      -559.9551
   1   2.0000     -20.566480      -559.6424
   2   2.0000     -20.560541      -559.4808
   3   2.0000     -20.552264      -559.2555
   4   2.0000     -11.352084      -308.9059
   5   2.0000     -11.339137      -308.5536
   6   2.0000     -11.319016      -308.0061
   7   2.0000     -11.301152      -307.5200
   8   2.0000     -11.276225      -306.8417
   9   2.0000     -11.259902      -306.3975
  10   2.0000     -11.259424      -306.3845
  11   2.0000     -11.255417      -306.2755
  12   2.0000     -11.254842      -306.2598
  13   2.0000     -11.252770      -306.2034
  14   2.0000     -11.251929      -306.1806
  15   2.0000     -11.248765      -306.0945
  16   2.0000     -11.240282      -305.8636
  17   2.0000     -11.237445      -305.7864
  18   2.0000     -11.229554      -305.5717
  19   2.0000     -11.225445      -305.4599
  20   2.0000     -11.218398      -305.2681
  21   2.0000      -1.422356       -38.7043
  22   2.0000      -1.399867       -38.0923
  23   2.0000      -1.392968       -37.9046
  24   2.0000      -1.387862       -37.7656
  25   2.0000      -1.179485       -32.0954
  26   2.0000      -1.158705       -31.5300
  27   2.0000      -1.094375       -29.7795
  28   2.0000      -1.054314       -28.6893
  29   2.0000      -1.045508       -28.4497
  30   2.0000      -1.027679       -27.9646
  31   2.0000      -0.972157       -26.4537
  32   2.0000      -0.956763       -26.0348
  33   2.0000      -0.932893       -25.3853
  34   2.0000      -0.897292       -24.4166
  35   2.0000      -0.873449       -23.7677
  36   2.0000      -0.860515       -23.4158
  37   2.0000      -0.821719       -22.3601
  38   2.0000      -0.792814       -21.5736
  39   2.0000      -0.755744       -20.5649
  40   2.0000      -0.727970       -19.8091
  41   2.0000      -0.715358       -19.4659
  42   2.0000      -0.711056       -19.3488
  43   2.0000      -0.692702       -18.8494
  44   2.0000      -0.680835       -18.5265
  45   2.0000      -0.663755       -18.0617
  46   2.0000      -0.656066       -17.8525
  47   2.0000      -0.642061       -17.4714
  48   2.0000      -0.639174       -17.3928
  49   2.0000      -0.628709       -17.1080
  50   2.0000      -0.618419       -16.8280
  51   2.0000      -0.606107       -16.4930
  52   2.0000      -0.601549       -16.3690
  53   2.0000      -0.597265       -16.2524
  54   2.0000      -0.594609       -16.1801
  55   2.0000      -0.571793       -15.5593
  56   2.0000      -0.568026       -15.4568
  57   2.0000      -0.562732       -15.3127
  58   2.0000      -0.556201       -15.1350
  59   2.0000      -0.549105       -14.9419
  60   2.0000      -0.545432       -14.8420
  61   2.0000      -0.541150       -14.7254
  62   2.0000      -0.529373       -14.4050
  63   2.0000      -0.525258       -14.2930
  64   2.0000      -0.519021       -14.1233
  65   2.0000      -0.504375       -13.7247
  66   2.0000      -0.498727       -13.5710
  67   2.0000      -0.486403       -13.2357
  68   2.0000      -0.480988       -13.0884
  69   2.0000      -0.455360       -12.3910
  70   2.0000      -0.437962       -11.9175
  71   2.0000      -0.420542       -11.4435
  72   2.0000      -0.410757       -11.1773
  73   2.0000      -0.358160        -9.7460
  74   2.0000      -0.358069        -9.7436
  75   2.0000      -0.321414        -8.7461
  76   0.0000       0.022172         0.6033
  77   0.0000       0.028454         0.7743
  78   0.0000       0.029338         0.7983
  79   0.0000       0.033347         0.9074
  80   0.0000       0.037858         1.0302

MULLIKEN ATOMIC CHARGES
-----------------------
   0 C :    0.534434
   1 O :   -0.406634
   2 C :   -1.192033
   3 C :    1.226494
   4 C :   -1.316035
   5 C :    0.364610
   6 C :   -1.112767
   7 C :   -0.051720
   8 C :    0.149881
   9 C :    0.936942
  10 O :   -1.486771
  11 C :    1.662665
  12 C :    1.317420
  13 C :    0.465695
  14 O :   -1.363663
  15 C :    0.141903
  16 C :   -0.853812
  17 C :   -0.241399
  18 C :   -1.419593
  19 C :   -1.127245
  20 O :   -1.154576
  21 H :    0.262969
  22 H :    0.221966
  23 H :    0.246075
  24 H :    0.238290
  25 H :    0.329483
  26 H :    0.202513
  27 H :    0.527994
  28 H :    0.642277
  29 H :    0.089505
  30 H :    0.137414
  31 H :    0.318242
  32 H :    0.351515
  33 H :    0.413350
  34 H :   -0.233375
  35 H :    0.429280
  36 H :    0.105550
  37 H :    0.239009
  38 H :    0.404146
Sum of atomic charges:    0.0000000

LOEWDIN ATOMIC CHARGES
----------------------
   0 C :   -0.250086
   1 O :    0.588065
   2 C :    0.273041
   3 C :   -0.046389
   4 C :    0.586325
   5 C :    0.004026
   6 C :    0.594914
   7 C :    0.028822
   8 C :    0.011895
   9 C :   -0.481152
  10 O :    0.510995
  11 C :   -0.101602
  12 C :   -0.064527
  13 C :   -0.416316
  14 O :    0.610138
  15 C :   -0.340321
  16 C :    0.238842
  17 C :    0.216726
  18 C :    0.223216
  19 C :    0.341327
  20 O :    0.872881
  21 H :   -0.163518
  22 H :   -0.172157
  23 H :   -0.154872
  24 H :   -0.151491
  25 H :   -0.196184
  26 H :   -0.166483
  27 H :   -0.175466
  28 H :   -0.171289
  29 H :   -0.186381
  30 H :   -0.679043
  31 H :   -0.176992
  32 H :   -0.167410
  33 H :   -0.179260
  34 H :   -0.179178
  35 H :   -0.112163
  36 H :   -0.120769
  37 H :   -0.122117
  38 H :   -0.126047

  Mayer bond orders larger than 0.100000
B(  0-C ,  1-O ) :   0.7456 B(  0-C ,  2-C ) :   0.7475 B(  0-C ,  3-C ) :   0.1558
B(  0-C ,  4-C ) :  -0.1065 B(  0-C ,  7-C ) :   0.1017 B(  0-C ,  8-C ) :   1.1350
B(  0-C , 10-O ) :   0.2926 B(  0-C , 34-H ) :  -0.1439 B(  0-C , 38-H ) :   0.7941
B(  1-O ,  8-C ) :   0.1093 B(  1-O , 12-C ) :  -0.1483 B(  1-O , 19-C ) :   1.0211
B(  2-C ,  3-C ) :   1.2877 B(  2-C ,  4-C ) :  -0.1326 B(  2-C ,  7-C ) :   0.1427
B(  2-C , 34-H ) :   1.9649 B(  2-C , 38-H ) :  -0.1509 B(  3-C ,  4-C ) :   0.5435
B(  3-C ,  5-C ) :   0.6290 B(  3-C ,  6-C ) :   0.1605 B(  3-C ,  7-C ) :   0.2385
B(  3-C , 13-C ) :  -0.1294 B(  3-C , 21-H ) :  -0.1530 B(  3-C , 23-H ) :  -0.1367
B(  3-C , 34-H ) :  -0.5171 B(  3-C , 36-H ) :  -0.3295 B(  4-C , 21-H ) :   1.1123
B(  4-C , 22-H ) :   1.0409 B(  4-C , 23-H ) :   1.1266 B(  5-C ,  6-C ) :   0.6127
B(  5-C ,  7-C ) :   0.7072 B(  5-C ,  9-C ) :   0.1482 B(  5-C , 35-H ) :  -0.1581
B(  5-C , 36-H ) :   1.1812 B(  6-C ,  7-C ) :  -0.2411 B(  6-C , 24-H ) :   1.0287
B(  6-C , 25-H ) :   0.9764 B(  6-C , 26-H ) :   1.1266 B(  7-C ,  8-C ) :   1.1956
B(  7-C ,  9-C ) :   0.1042 B(  7-C , 13-C ) :   1.5879 B(  7-C , 14-O ) :   0.3733
B(  7-C , 18-C ) :  -0.1397 B(  7-C , 24-H ) :  -0.1266 B(  7-C , 35-H ) :   0.9551
B(  8-C ,  9-C ) :   0.5524 B(  8-C , 11-C ) :   0.3783 B(  8-C , 12-C ) :  -0.1237
B(  8-C , 13-C ) :   0.1781 B(  8-C , 18-C ) :  -0.1063 B(  8-C , 37-H ) :   0.7807
B(  9-C , 10-O ) :  -0.4201 B(  9-C , 11-C ) :   0.6633 B(  9-C , 15-C ) :  -0.1186
B(  9-C , 18-C ) :   0.3135 B(  9-C , 37-H ) :   0.1010 B(  9-C , 38-H ) :  -0.1393
B( 10-O , 29-H ) :   0.1414 B( 11-C , 12-C ) :   1.6099 B( 11-C , 13-C ) :  -0.7439
B( 11-C , 15-C ) :  -1.1698 B( 11-C , 16-C ) :  -0.3519 B( 11-C , 17-C ) :   0.1508
B( 11-C , 29-H ) :  -0.1586 B( 11-C , 35-H ) :  -0.1249 B( 12-C , 13-C ) :   1.3773
B( 12-C , 14-O ) :  -0.2031 B( 12-C , 15-C ) :   0.5038 B( 12-C , 16-C ) :   0.2442
B( 12-C , 17-C ) :   0.1377 B( 12-C , 18-C ) :  -0.6306 B( 12-C , 27-H ) :   0.2364
B( 12-C , 29-H ) :   0.1469 B( 13-C , 15-C ) :   0.6165 B( 13-C , 16-C ) :   0.3674
B( 13-C , 17-C ) :  -0.1864 B( 13-C , 18-C ) :   0.5172 B( 13-C , 35-H ) :  -0.2184
B( 14-O , 15-C ) :   0.1909 B( 14-O , 30-H ) :   0.2435 B( 15-C , 16-C ) :   0.9168
B( 15-C , 18-C ) :   0.5939 B( 15-C , 27-H ) :  -0.1631 B( 15-C , 30-H ) :   0.1082
B( 16-C , 17-C ) :   1.0688 B( 16-C , 18-C ) :  -0.1087 B( 16-C , 20-O ) :   0.3083
B( 16-C , 27-H ) :   0.6519 B( 17-C , 18-C ) :   1.0984 B( 17-C , 28-H ) :   0.4742
B( 17-C , 29-H ) :  -0.1596 B( 18-C , 27-H ) :   0.1401 B( 18-C , 28-H ) :  -0.1608
B( 18-C , 29-H ) :   1.4839 B( 19-C , 31-H ) :   1.0176 B( 19-C , 32-H ) :   0.8981
B( 19-C , 33-H ) :   0.8255 B( 20-O , 30-H ) :   0.8876

MP2 TOTAL ENERGY:     -957.760401464 Eh
FINAL SINGLE POINT ENERGY      -957.760401463783

DIPOLE MOMENT
-------------
                                X             Y             Z
Electronic contribution:    -17.61642      -0.99215      -2.94981
Nuclear contribution   :     18.51513       0.85757       2.97317
                        -----------------------------------------
Total Dipole Moment    :      0.89871      -0.13458       0.02336
                        -----------------------------------------
Magnitude (a.u.)       :      0.90903
Magnitude (Debye)      :      2.31056

Rotational constants in cm-1:     0.017184     0.009101     0.007745
Rotational constants in MHz :   515.149199   272.851373   232.175394

                             ****ORCA TERMINATED NORMALLY****
TOTAL RUN TIME: 0 days 1 hours 8 minutes 41 seconds 167 msec
