                         Program Version 4.2.1 -  RELEASE  -
|  1> %pal
|  2>  nprocs 32
|  3> end
|  4> !RI-MP2 aug-cc-pVTZ aug-cc-pVTZ/C TightSCF
|  5> %maxcore 4500
|  6> *xyzfile 0 1  03_17R1.xyz
|  7>
|  8>
|  9>                          ****END OF INPUT****

CARTESIAN COORDINATES (ANGSTROEM)
---------------------------------
  C     -2.677808    0.000122    0.790560
  C     -1.204243    0.000081    0.534264
  C     -0.513579    1.202702    0.410968
  C     -0.513625   -1.202580    0.411088
  H     -1.047825    2.140849    0.501120
  C      0.848905    1.212315    0.168863
  C      0.848857   -1.212270    0.168982
  C      1.505919    0.000004    0.052512
  H     -1.047909   -2.140697    0.501333
  H      1.404487    2.133894    0.071743
  H      1.404403   -2.133880    0.071951
  N      2.958581   -0.000036   -0.200374
  O      3.513066    1.076900   -0.296743
  O      3.513016   -1.077004   -0.296681
  H     -2.991655    0.887434    1.333661
  H     -2.991661   -0.887033    1.333917
  Cl    -3.612653   -0.000101   -0.758068

 Total Charge           Charge          ....    0
 Multiplicity           Mult            ....    1
 Number of Electrons    NEL             ....   88
 Basis Dimension        Dim             ....  648

ORBITAL ENERGIES
----------------

  NO   OCC          E(Eh)            E(eV)
   0   2.0000    -104.841747     -2852.8890
   1   2.0000     -20.605925      -560.7157
   2   2.0000     -20.605872      -560.7143
   3   2.0000     -15.858177      -431.5229
   4   2.0000     -11.321710      -308.0794
   5   2.0000     -11.315298      -307.9049
   6   2.0000     -11.288130      -307.1656
   7   2.0000     -11.280042      -306.9456
   8   2.0000     -11.280001      -306.9444
   9   2.0000     -11.271020      -306.7000
  10   2.0000     -11.270967      -306.6986
  11   2.0000     -10.565758      -287.5089
  12   2.0000      -8.032531      -218.5763
  13   2.0000      -8.030692      -218.5262
  14   2.0000      -8.030659      -218.5254
  15   2.0000      -1.618823       -44.0504
  16   2.0000      -1.410139       -38.3718
  17   2.0000      -1.216478       -33.1020
  18   2.0000      -1.157692       -31.5024
  19   2.0000      -1.095522       -29.8107
  20   2.0000      -1.062619       -28.9153
  21   2.0000      -0.992911       -27.0185
  22   2.0000      -0.908317       -24.7166
  23   2.0000      -0.879353       -23.9284
  24   2.0000      -0.824322       -22.4309
  25   2.0000      -0.789622       -21.4867
  26   2.0000      -0.737396       -20.0656
  27   2.0000      -0.729122       -19.8404
  28   2.0000      -0.695936       -18.9374
  29   2.0000      -0.689662       -18.7666
  30   2.0000      -0.656048       -17.8520
  31   2.0000      -0.634339       -17.2612
  32   2.0000      -0.613559       -16.6958
  33   2.0000      -0.596516       -16.2320
  34   2.0000      -0.563151       -15.3241
  35   2.0000      -0.536688       -14.6040
  36   2.0000      -0.532966       -14.5027
  37   2.0000      -0.499846       -13.6015
  38   2.0000      -0.499415       -13.5898
  39   2.0000      -0.460716       -12.5367
  40   2.0000      -0.455312       -12.3897
  41   2.0000      -0.452274       -12.3070
  42   2.0000      -0.378526       -10.3002
  43   2.0000      -0.377434       -10.2705
  44   0.0000       0.021428         0.5831
  45   0.0000       0.028484         0.7751
  46   0.0000       0.029663         0.8072
  47   0.0000       0.034002         0.9253
  48   0.0000       0.046880         1.2757

MULLIKEN ATOMIC CHARGES
-----------------------
   0 C :   -0.167619
   1 C :    1.044734
   2 C :   -0.849907
   3 C :   -0.849869
   4 H :    0.238822
   5 C :   -0.532303
   6 C :   -0.532319
   7 C :    0.698760
   8 H :    0.238885
   9 H :    0.588554
  10 H :    0.588545
  11 N :    0.697964
  12 O :   -0.683905
  13 O :   -0.683904
  14 H :    0.264978
  15 H :    0.264965
  16 Cl:   -0.326381
Sum of atomic charges:   -0.0000000

LOEWDIN ATOMIC CHARGES
----------------------
   0 C :   -0.258746
   1 C :   -0.208777
   2 C :    0.222733
   3 C :    0.222729
   4 H :   -0.168602
   5 C :    0.223010
   6 C :    0.223009
   7 C :   -0.212991
   8 H :   -0.168601
   9 H :   -0.188869
  10 H :   -0.188869
  11 N :   -0.717630
  12 O :    0.399862
  13 O :    0.399862
  14 H :   -0.237438
  15 H :   -0.237433
  16 Cl:    0.896753

  Mayer bond orders larger than 0.100000
B(  0-C ,  1-C ) :   0.8087 B(  0-C , 14-H ) :   0.9670 B(  0-C , 15-H ) :   0.9670
B(  0-C , 16-Cl) :   0.6740 B(  1-C ,  2-C ) :   0.5674 B(  1-C ,  3-C ) :   0.5674
B(  1-C ,  4-H ) :  -0.1358 B(  1-C ,  5-C ) :   0.1925 B(  1-C ,  6-C ) :   0.1926
B(  1-C ,  8-H ) :  -0.1358 B(  2-C ,  4-H ) :   1.1789 B(  2-C ,  5-C ) :   1.4474
B(  2-C ,  7-C ) :  -0.2577 B(  3-C ,  6-C ) :   1.4473 B(  3-C ,  7-C ) :  -0.2578
B(  3-C ,  8-H ) :   1.1787 B(  5-C ,  7-C ) :   0.9016 B(  5-C ,  9-H ) :   0.5846
B(  5-C , 11-N ) :  -0.1895 B(  5-C , 12-O ) :  -0.1273 B(  6-C ,  7-C ) :   0.9016
B(  6-C , 10-H ) :   0.5847 B(  6-C , 11-N ) :  -0.1894 B(  6-C , 13-O ) :  -0.1273
B(  7-C , 11-N ) :   1.2634 B(  7-C , 12-O ) :   0.3775 B(  7-C , 13-O ) :   0.3775
B( 11-N , 12-O ) :   1.0352 B( 11-N , 13-O ) :   1.0352 B( 12-O , 13-O ) :   0.1002

MP2 TOTAL ENERGY:     -934.331145935 Eh
FINAL SINGLE POINT ENERGY      -934.331145934612

DIPOLE MOMENT
-------------
                                X             Y             Z
Electronic contribution:     -1.51027      -0.00054      -3.74440
Nuclear contribution   :      0.02545       0.00068       4.70791
                        -----------------------------------------
Total Dipole Moment    :     -1.48482       0.00014       0.96351
                        -----------------------------------------
Magnitude (a.u.)       :      1.77004
Magnitude (Debye)      :      4.49907

Rotational constants in cm-1:     0.098899     0.014021     0.013107
Rotational constants in MHz :  2964.930152   420.340694   392.927840

                             ****ORCA TERMINATED NORMALLY****
TOTAL RUN TIME: 0 days 0 hours 5 minutes 14 seconds 652 msec
