                         Program Version 4.2.1 -  RELEASE  -
|  1> %pal
|  2>  nprocs 32
|  3> end
|  4> !RI-MP2 aug-cc-pVTZ aug-cc-pVTZ/C TightSCF
|  5> %maxcore 4500
|  6> *xyzfile 0 1  10_12R2.xyz
|  7>
|  8>
|  9>                          ****END OF INPUT****

CARTESIAN COORDINATES (ANGSTROEM)
---------------------------------
  C      1.285244    0.150499    0.000000
  C      0.000000    0.473257    0.000000
  H      1.608938   -0.885482    0.000000
  H      2.060569    0.906982    0.000000
  C     -1.132627   -0.504341    0.000000
  H     -0.770315   -1.533804    0.000000
  H     -1.769470   -0.364829    0.878219
  H     -1.769470   -0.364829   -0.878219
  H     -0.275955    1.525468    0.000000

 Total Charge           Charge          ....    0
 Multiplicity           Mult            ....    1
 Number of Electrons    NEL             ....   24
 Basis Dimension        Dim             ....  276

ORBITAL ENERGIES
----------------

  NO   OCC          E(Eh)            E(eV)
   0   2.0000     -11.233034      -305.6664
   1   2.0000     -11.221640      -305.3564
   2   2.0000     -11.216608      -305.2194
   3   2.0000      -1.066072       -29.0093
   4   2.0000      -0.933550       -25.4032
   5   2.0000      -0.756858       -20.5952
   6   2.0000      -0.639695       -17.4070
   7   2.0000      -0.583939       -15.8898
   8   2.0000      -0.567494       -15.4423
   9   2.0000      -0.523711       -14.2509
  10   2.0000      -0.490020       -13.3341
  11   2.0000      -0.360635        -9.8134
  12   0.0000       0.031505         0.8573
  13   0.0000       0.039095         1.0638
  14   0.0000       0.041178         1.1205
  15   0.0000       0.048383         1.3166
  16   0.0000       0.058151         1.5824

MULLIKEN ATOMIC CHARGES
-----------------------
   0 C :   -1.058743
   1 C :   -0.234739
   2 H :    0.264487
   3 H :    0.519553
   4 C :   -0.691425
   5 H :    0.283230
   6 H :    0.289699
   7 H :    0.289699
   8 H :    0.338240
Sum of atomic charges:   -0.0000000

LOEWDIN ATOMIC CHARGES
----------------------
   0 C :    0.505233
   1 C :    0.151937
   2 H :   -0.225604
   3 H :   -0.232206
   4 C :    0.537755
   5 H :   -0.185069
   6 H :   -0.178840
   7 H :   -0.178840
   8 H :   -0.194365

  Mayer bond orders larger than 0.100000
B(  0-C ,  1-C ) :   1.5187 B(  0-C ,  2-H ) :   1.0461 B(  0-C ,  3-H ) :   0.6475
B(  1-C ,  4-C ) :   0.8769 B(  1-C ,  8-H ) :   0.8955 B(  4-C ,  5-H ) :   0.9330
B(  4-C ,  6-H ) :   0.9372 B(  4-C ,  7-H ) :   0.9372

MP2 TOTAL ENERGY:     -117.633762317 Eh
FINAL SINGLE POINT ENERGY      -117.633762316643

DIPOLE MOMENT
-------------
                                X             Y             Z
Electronic contribution:      0.81958       0.74856      -0.00000
Nuclear contribution   :     -0.98083      -0.76745       0.00000
                        -----------------------------------------
Total Dipole Moment    :     -0.16125      -0.01889      -0.00000
                        -----------------------------------------
Magnitude (a.u.)       :      0.16235
Magnitude (Debye)      :      0.41267

Rotational constants in cm-1:     1.568956     0.311713     0.273151
Rotational constants in MHz : 47036.111093  9344.910878  8188.863329

                             ****ORCA TERMINATED NORMALLY****
TOTAL RUN TIME: 0 days 0 hours 0 minutes 19 seconds 502 msec
