                         Program Version 4.2.1 -  RELEASE  -
|  1> %pal
|  2>  nprocs 32
|  3> end
|  4> !RI-MP2 aug-cc-pVTZ aug-cc-pVTZ/C TightSCF
|  5> %maxcore 4500
|  6> *xyzfile 1 1  05_31P1.xyz
|  7>
|  8>
|  9>                          ****END OF INPUT****

CARTESIAN COORDINATES (ANGSTROEM)
---------------------------------
  C      0.422786    0.395048   -0.216740
  C      1.804147    0.174598   -0.098066
  C      2.671506    1.194297   -0.541175
  C      2.322462   -1.023593    0.440050
  C      4.034729    1.016060   -0.450252
  H      2.263646    2.110749   -0.951888
  C      3.683954   -1.186724    0.524396
  H      1.645653   -1.796146    0.781321
  C      4.534542   -0.170086    0.080482
  H      4.711557    1.789740   -0.787100
  H      4.099749   -2.097461    0.934597
  O     -0.428665   -0.488285    0.125996
  H      5.606793   -0.308526    0.152557
  C     -1.825108   -0.210994    0.071519
  C     -2.316003    0.949326    0.634824
  C     -2.615625   -1.174524   -0.517092
  C     -3.686424    1.164905    0.570046
  H     -1.665941    1.651679    1.142438
  C     -3.981378   -0.938426   -0.571017
  H     -2.174184   -2.074541   -0.924294
  C     -4.513092    0.227524   -0.033415
  H     -4.105732    2.061332    1.007831
  H     -4.630680   -1.670317   -1.033415
  H     -5.580586    0.400724   -0.075096
  H      0.040069    1.334588   -0.616276

 Total Charge           Charge          ....    1
 Multiplicity           Mult            ....    1
 Number of Electrons    NEL             ....   96
 Basis Dimension        Dim             ....  897

ORBITAL ENERGIES
----------------

  NO   OCC          E(Eh)            E(eV)
   0   2.0000     -20.822067      -566.5973
   1   2.0000     -11.554148      -314.4044
   2   2.0000     -11.451065      -311.5993
   3   2.0000     -11.423834      -310.8583
   4   2.0000     -11.416894      -310.6695
   5   2.0000     -11.415473      -310.6308
   6   2.0000     -11.414070      -310.5926
   7   2.0000     -11.388438      -309.8952
   8   2.0000     -11.388043      -309.8844
   9   2.0000     -11.379762      -309.6591
  10   2.0000     -11.373471      -309.4879
  11   2.0000     -11.368250      -309.3458
  12   2.0000     -11.366360      -309.2944
  13   2.0000     -11.359910      -309.1189
  14   2.0000      -1.663561       -45.2678
  15   2.0000      -1.337693       -36.4005
  16   2.0000      -1.300741       -35.3950
  17   2.0000      -1.234296       -33.5869
  18   2.0000      -1.190181       -32.3865
  19   2.0000      -1.165173       -31.7060
  20   2.0000      -1.160805       -31.5871
  21   2.0000      -1.090769       -29.6813
  22   2.0000      -1.012458       -27.5504
  23   2.0000      -1.000822       -27.2338
  24   2.0000      -0.977539       -26.6002
  25   2.0000      -0.955514       -26.0009
  26   2.0000      -0.901015       -24.5179
  27   2.0000      -0.895113       -24.3573
  28   2.0000      -0.837241       -22.7825
  29   2.0000      -0.825455       -22.4618
  30   2.0000      -0.818927       -22.2841
  31   2.0000      -0.792216       -21.5573
  32   2.0000      -0.780710       -21.2442
  33   2.0000      -0.757872       -20.6227
  34   2.0000      -0.755668       -20.5628
  35   2.0000      -0.747404       -20.3379
  36   2.0000      -0.727682       -19.8012
  37   2.0000      -0.719448       -19.5772
  38   2.0000      -0.674747       -18.3608
  39   2.0000      -0.672018       -18.2866
  40   2.0000      -0.658216       -17.9110
  41   2.0000      -0.648618       -17.6498
  42   2.0000      -0.641262       -17.4496
  43   2.0000      -0.634646       -17.2696
  44   2.0000      -0.521645       -14.1947
  45   2.0000      -0.503176       -13.6921
  46   2.0000      -0.475667       -12.9436
  47   2.0000      -0.471578       -12.8323
  48   0.0000      -0.140068        -3.8114
  49   0.0000      -0.070269        -1.9121
  50   0.0000      -0.057651        -1.5688
  51   0.0000      -0.052737        -1.4350
  52   0.0000      -0.051504        -1.4015

MULLIKEN ATOMIC CHARGES
-----------------------
   0 C :   -0.448336
   1 C :    2.080818
   2 C :   -1.011781
   3 C :   -0.509704
   4 C :   -0.758816
   5 H :    0.037958
   6 C :   -0.940337
   7 H :    0.203942
   8 C :   -0.019586
   9 H :    0.603142
  10 H :    0.558848
  11 O :   -0.436323
  12 H :    0.403199
  13 C :    1.254747
  14 C :   -0.640152
  15 C :   -1.013073
  16 C :   -0.525854
  17 H :    0.380115
  18 C :   -0.409469
  19 H :    0.433952
  20 C :   -0.344071
  21 H :    0.476975
  22 H :    0.431932
  23 H :    0.496864
  24 H :    0.695011
Sum of atomic charges:    1.0000000

LOEWDIN ATOMIC CHARGES
----------------------
   0 C :    0.067776
   1 C :   -0.103683
   2 C :    0.247119
   3 C :    0.260283
   4 C :    0.257588
   5 H :   -0.150995
   6 C :    0.258685
   7 H :   -0.154337
   8 C :    0.270089
   9 H :   -0.164880
  10 H :   -0.163974
  11 O :    0.657574
  12 H :   -0.145462
  13 C :   -0.319550
  14 C :    0.217431
  15 C :    0.232235
  16 C :    0.225159
  17 H :   -0.168362
  18 C :    0.226481
  19 H :   -0.163485
  20 C :    0.230099
  21 H :   -0.165541
  22 H :   -0.164552
  23 H :   -0.166808
  24 H :   -0.118891

  Mayer bond orders larger than 0.100000
B(  0-C ,  1-C ) :   0.1745 B(  0-C ,  2-C ) :   0.2966 B(  0-C ,  3-C ) :   0.2343
B(  0-C ,  4-C ) :   0.1728 B(  0-C ,  5-H ) :  -0.2445 B(  0-C ,  7-H ) :  -0.1041
B(  0-C ,  8-C ) :   0.1962 B(  0-C ,  9-H ) :   0.1142 B(  0-C , 10-H ) :   0.1797
B(  0-C , 11-O ) :   1.4533 B(  0-C , 14-C ) :   0.2618 B(  0-C , 15-C ) :   0.1967
B(  0-C , 24-H ) :   0.6092 B(  1-C ,  3-C ) :   0.3235 B(  1-C ,  5-H ) :  -0.1813
B(  1-C ,  7-H ) :  -0.2602 B(  1-C , 11-O ) :  -0.2506 B(  2-C ,  3-C ) :  -0.3608
B(  2-C ,  4-C ) :   1.3176 B(  2-C ,  5-H ) :   1.8651 B(  2-C ,  6-C ) :   0.1447
B(  2-C ,  7-H ) :   0.2831 B(  2-C ,  8-C ) :  -0.1733 B(  2-C ,  9-H ) :  -0.1684
B(  2-C , 10-H ) :  -0.1192 B(  2-C , 12-H ) :   0.2098 B(  3-C ,  5-H ) :   0.1543
B(  3-C ,  6-C ) :   1.3068 B(  3-C ,  7-H ) :   1.3537 B(  4-C ,  5-H ) :  -0.1436
B(  4-C ,  6-C ) :   0.1946 B(  4-C ,  8-C ) :   1.0612 B(  4-C ,  9-H ) :   0.5738
B(  4-C , 12-H ) :  -0.1533 B(  6-C ,  8-C ) :   1.0535 B(  6-C , 10-H ) :   0.5884
B(  6-C , 12-H ) :  -0.1468 B(  8-C , 12-H ) :   0.8859 B( 11-O , 13-C ) :   0.4242
B( 11-O , 14-C ) :  -0.3112 B( 11-O , 15-C ) :  -0.2126 B( 13-C , 14-C ) :   0.8304
B( 13-C , 15-C ) :   0.6473 B( 13-C , 16-C ) :  -0.1439 B( 13-C , 17-H ) :  -0.1006
B( 13-C , 18-C ) :  -0.1848 B( 13-C , 24-H ) :  -0.1668 B( 14-C , 15-C ) :   0.2038
B( 14-C , 16-C ) :   1.3115 B( 14-C , 17-H ) :   1.0036 B( 14-C , 24-H ) :  -0.1684
B( 15-C , 18-C ) :   1.2959 B( 15-C , 19-H ) :   0.8509 B( 15-C , 20-C ) :   0.1408
B( 16-C , 20-C ) :   1.2477 B( 16-C , 21-H ) :   0.8091 B( 18-C , 20-C ) :   1.2378
B( 18-C , 22-H ) :   0.8777 B( 20-C , 23-H ) :   0.7566

MP2 TOTAL ENERGY:     -575.783758956 Eh
FINAL SINGLE POINT ENERGY      -575.783758956092

DIPOLE MOMENT
-------------
                                X             Y             Z
Electronic contribution:      1.09414      -0.88717       0.12847
Nuclear contribution   :      0.20241       1.38608      -0.36522
                        -----------------------------------------
Total Dipole Moment    :      1.29655       0.49891      -0.23675
                        -----------------------------------------
Magnitude (a.u.)       :      1.40926
Magnitude (Debye)      :      3.58206

Rotational constants in cm-1:     0.089311     0.009482     0.008900
Rotational constants in MHz :  2677.476074   284.274726   266.829364

                             ****ORCA TERMINATED NORMALLY****
TOTAL RUN TIME: 0 days 0 hours 13 minutes 4 seconds 897 msec
