                         Program Version 4.2.1 -  RELEASE  -
|  1> %pal
|  2>  nprocs 32
|  3> end
|  4> !RI-MP2 aug-cc-pVTZ aug-cc-pVTZ/C TightSCF
|  5> %maxcore 4500
|  6> *xyzfile -1 1  10_34R.xyz
|  7>
|  8>
|  9>                          ****END OF INPUT****

CARTESIAN COORDINATES (ANGSTROEM)
---------------------------------
  C      4.224638   -0.615837   -1.396711
  C      3.311126    0.616171   -1.275779
  C      2.370415    0.397899   -0.141078
  C      2.480222   -0.535471    0.796927
  C      3.567803   -1.556587    0.888570
  C      4.720054   -1.115788   -0.030893
  H      3.899589    1.525065   -1.100886
  H      2.768983    0.783555   -2.214048
  H      3.662397   -1.424004   -1.879996
  H      5.082210   -0.400454   -2.043913
  H      3.930151   -1.669538    1.917453
  H      3.199721   -2.548512    0.586788
  H      5.263434   -0.301308    0.461309
  H      5.433811   -1.935068   -0.171386
  C     -0.568647   -0.922788   -0.008601
  C     -0.167668    0.528146   -0.429515
  C      1.062938    1.018931    0.420362
  C      1.215127   -0.170745    1.542775
  C      0.030843   -1.118911    1.412146
  H      0.108211    0.537260   -1.490136
  H     -0.722914   -0.849708    2.156673
  H      0.294174   -2.170286    1.589360
  O      1.094392    2.292671    0.758546
  C     -1.485748    1.321661   -0.382622
  C     -2.141456   -0.929532   -0.000529
  H     -2.453066   -0.697756    1.023762
  C     -2.512239    0.295491   -0.833125
  H     -2.379022    0.109736   -1.904485
  H     -3.522773    0.668375   -0.661900
  C      0.016259   -1.932133   -1.003369
  H      1.096252   -1.800187   -1.065330
  H     -0.177048   -2.968269   -0.712233
  H     -0.395046   -1.780719   -2.006219
  C     -2.849654   -2.233394   -0.385233
  H     -2.446456   -2.586220   -1.340790
  C     -4.353759   -2.023808   -0.571554
  H     -4.570143   -1.342336   -1.395737
  H     -4.856133   -2.973974   -0.778569
  H     -4.799148   -1.600583    0.334774
  C     -2.618535   -3.319305    0.667219
  H     -1.558769   -3.495432    0.849875
  H     -3.066993   -3.019877    1.619985
  H     -3.075533   -4.266894    0.365025
  O     -1.856344    1.761931    0.916550
  O     -1.530757    2.470271   -1.196478
  C     -1.176840    3.586137   -0.381306
  H     -0.099387    3.745637   -0.415256
  H     -1.741731    4.447710   -0.747313
  C     -1.571420    3.151778    1.035140
  H     -0.729281    3.291026    1.711220
  H     -2.481492    3.645527    1.395895
  H      1.356926    0.226756    2.550186

 Total Charge           Charge          ....   -1
 Multiplicity           Mult            ....    1
 Number of Electrons    NEL             ....  174
 Basis Dimension        Dim             .... 1725

ORBITAL ENERGIES
----------------

  NO   OCC          E(Eh)            E(eV)
   0   2.0000     -20.420395      -555.6672
   1   2.0000     -20.413782      -555.4873
   2   2.0000     -20.249794      -551.0249
   3   2.0000     -11.187553      -304.4288
   4   2.0000     -11.127842      -302.8040
   5   2.0000     -11.127203      -302.7866
   6   2.0000     -11.121562      -302.6331
   7   2.0000     -11.117944      -302.5346
   8   2.0000     -11.114737      -302.4474
   9   2.0000     -11.112880      -302.3968
  10   2.0000     -11.111331      -302.3547
  11   2.0000     -11.106070      -302.2115
  12   2.0000     -11.102730      -302.1206
  13   2.0000     -11.099544      -302.0339
  14   2.0000     -11.098911      -302.0167
  15   2.0000     -11.096907      -301.9622
  16   2.0000     -11.091059      -301.8031
  17   2.0000     -11.089248      -301.7538
  18   2.0000     -11.077259      -301.4275
  19   2.0000     -11.062900      -301.0368
  20   2.0000     -11.062123      -301.0157
  21   2.0000     -11.057788      -300.8977
  22   2.0000     -11.055407      -300.8329
  23   2.0000      -1.292516       -35.1711
  24   2.0000      -1.184912       -32.2431
  25   2.0000      -1.083708       -29.4892
  26   2.0000      -1.023168       -27.8418
  27   2.0000      -1.003698       -27.3120
  28   2.0000      -0.963820       -26.2269
  29   2.0000      -0.935365       -25.4526
  30   2.0000      -0.902025       -24.5454
  31   2.0000      -0.882299       -24.0086
  32   2.0000      -0.851505       -23.1706
  33   2.0000      -0.832811       -22.6619
  34   2.0000      -0.827516       -22.5178
  35   2.0000      -0.810666       -22.0593
  36   2.0000      -0.764104       -20.7923
  37   2.0000      -0.755741       -20.5648
  38   2.0000      -0.705965       -19.2103
  39   2.0000      -0.697578       -18.9821
  40   2.0000      -0.682882       -18.5822
  41   2.0000      -0.660066       -17.9613
  42   2.0000      -0.634624       -17.2690
  43   2.0000      -0.609044       -16.5729
  44   2.0000      -0.591960       -16.1080
  45   2.0000      -0.549400       -14.9499
  46   2.0000      -0.543791       -14.7973
  47   2.0000      -0.527397       -14.3512
  48   2.0000      -0.525442       -14.2980
  49   2.0000      -0.518975       -14.1220
  50   2.0000      -0.503341       -13.6966
  51   2.0000      -0.498715       -13.5707
  52   2.0000      -0.477798       -13.0016
  53   2.0000      -0.474801       -12.9200
  54   2.0000      -0.468820       -12.7572
  55   2.0000      -0.462197       -12.5770
  56   2.0000      -0.458707       -12.4820
  57   2.0000      -0.451119       -12.2756
  58   2.0000      -0.443606       -12.0711
  59   2.0000      -0.440580       -11.9888
  60   2.0000      -0.439661       -11.9638
  61   2.0000      -0.431160       -11.7325
  62   2.0000      -0.420699       -11.4478
  63   2.0000      -0.416336       -11.3291
  64   2.0000      -0.406435       -11.0597
  65   2.0000      -0.403346       -10.9756
  66   2.0000      -0.394205       -10.7269
  67   2.0000      -0.385173       -10.4811
  68   2.0000      -0.382944       -10.4204
  69   2.0000      -0.376979       -10.2581
  70   2.0000      -0.367666       -10.0047
  71   2.0000      -0.353536        -9.6202
  72   2.0000      -0.353056        -9.6071
  73   2.0000      -0.349053        -9.4982
  74   2.0000      -0.344455        -9.3731
  75   2.0000      -0.338855        -9.2207
  76   2.0000      -0.326844        -8.8939
  77   2.0000      -0.325223        -8.8498
  78   2.0000      -0.309299        -8.4164
  79   2.0000      -0.303434        -8.2568
  80   2.0000      -0.294640        -8.0176
  81   2.0000      -0.283773        -7.7218
  82   2.0000      -0.279923        -7.6171
  83   2.0000      -0.251017        -6.8305
  84   2.0000      -0.182082        -4.9547
  85   2.0000      -0.157424        -4.2837
  86   2.0000      -0.141808        -3.8588
  87   0.0000       0.087873         2.3911
  88   0.0000       0.092263         2.5106
  89   0.0000       0.098460         2.6792
  90   0.0000       0.101747         2.7687
  91   0.0000       0.104894         2.8543

MULLIKEN ATOMIC CHARGES
-----------------------
   0 C :   -0.544250
   1 C :   -0.894296
   2 C :    0.539232
   3 C :    0.467726
   4 C :   -1.079286
   5 C :   -0.577137
   6 H :    0.224395
   7 H :    0.240855
   8 H :    0.164643
   9 H :    0.289566
  10 H :    0.187403
  11 H :    0.179101
  12 H :    0.108742
  13 H :    0.302975
  14 C :    2.924050
  15 C :   -0.983723
  16 C :    1.978765
  17 C :   -0.811332
  18 C :   -1.020441
  19 H :   -0.039640
  20 H :    0.126349
  21 H :    0.208956
  22 O :   -1.815280
  23 C :    2.082687
  24 C :    1.082336
  25 H :    0.580950
  26 C :   -1.753539
  27 H :   -0.023093
  28 H :    0.462022
  29 C :   -1.870883
  30 H :    0.466914
  31 H :    0.149214
  32 H :    0.132180
  33 C :    0.230939
  34 H :    0.227747
  35 C :   -1.356386
  36 H :    0.259206
  37 H :    0.191381
  38 H :    0.236803
  39 C :   -1.415872
  40 H :    0.470264
  41 H :    0.134961
  42 H :    0.212431
  43 O :   -0.979291
  44 O :   -1.358448
  45 C :   -0.673695
  46 H :    0.374578
  47 H :    0.402753
  48 C :   -0.624065
  49 H :    0.383170
  50 H :    0.275167
  51 H :    0.522197
Sum of atomic charges:   -1.0000000

LOEWDIN ATOMIC CHARGES
----------------------
   0 C :    0.277611
   1 C :    0.309404
   2 C :   -0.033119
   3 C :   -0.053182
   4 C :    0.294249
   5 C :    0.278137
   6 H :   -0.142979
   7 H :   -0.147224
   8 H :   -0.147769
   9 H :   -0.150871
  10 H :   -0.151458
  11 H :   -0.149206
  12 H :   -0.143708
  13 H :   -0.152006
  14 C :   -0.202706
  15 C :    0.070966
  16 C :   -0.703424
  17 C :    0.075990
  18 C :    0.327484
  19 H :   -0.141098
  20 H :   -0.152939
  21 H :   -0.144166
  22 O :    0.352292
  23 C :   -0.781696
  24 C :    0.040268
  25 H :   -0.155200
  26 C :    0.304306
  27 H :   -0.122266
  28 H :   -0.136858
  29 C :    0.597698
  30 H :   -0.180579
  31 H :   -0.173319
  32 H :   -0.149202
  33 C :   -0.028693
  34 H :   -0.148772
  35 C :    0.581164
  36 H :   -0.174413
  37 H :   -0.167940
  38 H :   -0.154074
  39 C :    0.591501
  40 H :   -0.191312
  41 H :   -0.152929
  42 H :   -0.161336
  43 O :    0.616992
  44 O :    0.602263
  45 C :    0.054025
  46 H :   -0.230715
  47 H :   -0.170811
  48 C :    0.047961
  49 H :   -0.216903
  50 H :   -0.170773
  51 H :   -0.138665

  Mayer bond orders larger than 0.100000
B(  0-C ,  1-C ) :   1.0159 B(  0-C ,  5-C ) :   0.8717 B(  0-C ,  8-H ) :   1.0869
B(  0-C ,  9-H ) :   0.9320 B(  1-C ,  2-C ) :  -0.1298 B(  1-C ,  3-C ) :  -0.1722
B(  1-C ,  4-C ) :   0.1450 B(  1-C ,  5-C ) :   0.1314 B(  1-C ,  6-H ) :   1.1409
B(  1-C ,  7-H ) :   1.1171 B(  1-C , 16-C ) :   0.1376 B(  2-C ,  3-C ) :   1.9113
B(  2-C ,  5-C ) :  -0.1522 B(  2-C ,  6-H ) :  -0.1619 B(  2-C , 14-C ) :   0.2637
B(  2-C , 15-C ) :   0.2375 B(  2-C , 16-C ) :  -0.1012 B(  2-C , 17-C ) :   0.4519
B(  2-C , 18-C ) :  -0.1663 B(  2-C , 20-H ) :  -0.1632 B(  2-C , 22-O ) :   0.3039
B(  2-C , 23-C ) :  -0.1161 B(  2-C , 30-H ) :   0.1084 B(  3-C ,  4-C ) :   0.4005
B(  3-C , 10-H ) :  -0.1151 B(  3-C , 11-H ) :  -0.1125 B(  3-C , 14-C ) :   0.1333
B(  3-C , 17-C ) :   0.6810 B(  3-C , 20-H ) :   0.1953 B(  3-C , 22-O ) :   0.1511
B(  3-C , 30-H ) :   0.1623 B(  3-C , 51-H ) :  -0.6105 B(  4-C ,  5-C ) :   1.0122
B(  4-C , 10-H ) :   1.1441 B(  4-C , 11-H ) :   1.2150 B(  4-C , 17-C ) :  -0.2799
B(  4-C , 51-H ) :  -0.1032 B(  5-C , 12-H ) :   1.1545 B(  5-C , 13-H ) :   0.9230
B( 14-C , 15-C ) :   0.4871 B( 14-C , 16-C ) :  -0.3382 B( 14-C , 18-C ) :   0.1875
B( 14-C , 20-H ) :  -0.1408 B( 14-C , 21-H ) :  -0.1287 B( 14-C , 23-C ) :   0.1139
B( 14-C , 24-C ) :   0.7653 B( 14-C , 25-H ) :  -0.1381 B( 14-C , 26-C ) :   0.3025
B( 14-C , 29-C ) :  -0.7560 B( 14-C , 30-H ) :  -0.1439 B( 14-C , 31-H ) :  -0.2793
B( 14-C , 32-H ) :  -0.4575 B( 14-C , 33-C ) :   0.2254 B( 15-C , 16-C ) :   1.7184
B( 15-C , 17-C ) :   0.1364 B( 15-C , 18-C ) :   0.2641 B( 15-C , 19-H ) :   1.2251
B( 15-C , 22-O ) :   0.5328 B( 15-C , 23-C ) :   1.1729 B( 15-C , 24-C ) :   0.1172
B( 15-C , 26-C ) :  -0.2780 B( 15-C , 27-H ) :  -0.1291 B( 15-C , 29-C ) :  -0.3182
B( 15-C , 30-H ) :  -0.1230 B( 15-C , 43-O ) :   0.2390 B( 15-C , 44-O ) :   0.4767
B( 15-C , 45-C ) :   0.2456 B( 16-C , 17-C ) :   1.0945 B( 16-C , 18-C ) :   0.1660
B( 16-C , 20-H ) :   0.1050 B( 16-C , 22-O ) :  -1.5318 B( 16-C , 45-C ) :  -0.2064
B( 16-C , 51-H ) :   0.1086 B( 17-C , 18-C ) :   1.0102 B( 17-C , 22-O ) :   0.2857
B( 17-C , 51-H ) :   0.8232 B( 18-C , 20-H ) :   1.2954 B( 18-C , 21-H ) :   1.0801
B( 18-C , 24-C ) :  -0.4369 B( 18-C , 25-H ) :  -0.2027 B( 18-C , 26-C ) :   0.1026
B( 18-C , 29-C ) :  -0.1827 B( 19-H , 23-C ) :  -0.1570 B( 19-H , 26-C ) :  -0.1080
B( 19-H , 44-O ) :   0.1359 B( 20-H , 24-C ) :  -0.1467 B( 23-C , 24-C ) :  -0.2737
B( 23-C , 26-C ) :   1.4859 B( 23-C , 27-H ) :   0.1906 B( 23-C , 29-C ) :   0.1143
B( 23-C , 44-O ) :  -1.1445 B( 23-C , 45-C ) :  -0.4030 B( 23-C , 46-H ) :  -0.1312
B( 23-C , 48-C ) :  -0.1430 B( 24-C , 25-H ) :   0.8426 B( 24-C , 26-C ) :   0.2451
B( 24-C , 27-H ) :  -0.1591 B( 24-C , 29-C ) :   0.3712 B( 24-C , 30-H ) :  -0.1328
B( 24-C , 33-C ) :   0.8523 B( 24-C , 35-C ) :  -0.1250 B( 24-C , 39-C ) :  -0.1233
B( 24-C , 43-O ) :  -0.1917 B( 25-H , 26-C ) :  -0.2473 B( 25-H , 33-C ) :  -0.1237
B( 25-H , 43-O ) :  -0.1284 B( 26-C , 27-H ) :   1.4552 B( 26-C , 28-H ) :   0.6288
B( 26-C , 43-O ) :   0.3262 B( 29-C , 30-H ) :   0.9488 B( 29-C , 31-H ) :   1.2944
B( 29-C , 32-H ) :   1.4486 B( 31-H , 32-H ) :   0.1754 B( 33-C , 34-H ) :   0.9723
B( 33-C , 35-C ) :   0.2975 B( 33-C , 37-H ) :  -0.1190 B( 33-C , 39-C ) :   0.6858
B( 34-H , 35-C ) :  -0.1045 B( 35-C , 36-H ) :   1.0636 B( 35-C , 37-H ) :   1.1614
B( 35-C , 38-H ) :   1.1191 B( 35-C , 39-C ) :   0.1412 B( 39-C , 40-H ) :   0.8139
B( 39-C , 41-H ) :   1.2288 B( 39-C , 42-H ) :   1.1123 B( 43-O , 45-C ) :   0.1455
B( 43-O , 48-C ) :   0.9784 B( 44-O , 45-C ) :   1.2766 B( 44-O , 48-C ) :   0.1411
B( 45-C , 46-H ) :   0.9126 B( 45-C , 47-H ) :   0.7970 B( 45-C , 48-C ) :   1.0222
B( 48-C , 49-H ) :   0.8742 B( 48-C , 50-H ) :   0.9425

MP2 TOTAL ENERGY:    -1003.273716465 Eh
FINAL SINGLE POINT ENERGY     -1003.273716465473

DIPOLE MOMENT
-------------
                                X             Y             Z
Electronic contribution:      2.25740      17.00538       2.64213
Nuclear contribution   :     -3.08605     -19.18804      -3.43724
                        -----------------------------------------
Total Dipole Moment    :     -0.82865      -2.18266      -0.79512
                        -----------------------------------------
Magnitude (a.u.)       :      2.46635
Magnitude (Debye)      :      6.26897

Rotational constants in cm-1:     0.012482     0.007608     0.005568
Rotational constants in MHz :   374.192769   228.077300   166.915721

                             ****ORCA TERMINATED NORMALLY****
TOTAL RUN TIME: 0 days 2 hours 6 minutes 17 seconds 132 msec
