                         Program Version 4.2.1 -  RELEASE  -
|  1> %pal
|  2>  nprocs 32
|  3> end
|  4> !RI-MP2 aug-cc-pVTZ aug-cc-pVTZ/C TightSCF
|  5> %maxcore 4500
|  6> *xyzfile 0 1  04_11R1.xyz
|  7>
|  8>
|  9>                          ****END OF INPUT****

CARTESIAN COORDINATES (ANGSTROEM)
---------------------------------
  N     -0.601833   -1.052271   -0.366448
  H     -0.082616   -1.615215   -1.026657
  C      0.181423   -0.250242    0.561512
  H     -0.363111   -0.205097    1.508177
  C      1.534899   -0.915724    0.766717
  C      0.358854    1.180285    0.025271
  H      2.138552   -0.305350    1.443969
  H      1.391051   -1.897822    1.219042
  O      1.436025    1.571120   -0.396908
  N     -0.751716    1.937850    0.063340
  H     -1.641372    1.522929    0.317658
  H     -0.716448    2.857901   -0.346990
  C     -1.945177   -1.011627   -0.411983
  H     -2.380769   -1.713447   -1.138971
  O     -2.632687   -0.277506    0.276726
  O      2.190462   -1.121242   -0.467236
  H      2.399165   -0.238085   -0.804222

 Total Charge           Charge          ....    0
 Multiplicity           Mult            ....    1
 Number of Electrons    NEL             ....   70
 Basis Dimension        Dim             ....  598

ORBITAL ENERGIES
----------------

  NO   OCC          E(Eh)            E(eV)
   0   2.0000     -20.561986      -559.5201
   1   2.0000     -20.547539      -559.1270
   2   2.0000     -20.535981      -558.8125
   3   2.0000     -15.613619      -424.8682
   4   2.0000     -15.587668      -424.1620
   5   2.0000     -11.371655      -309.4385
   6   2.0000     -11.364293      -309.2381
   7   2.0000     -11.298139      -307.4380
   8   2.0000     -11.292661      -307.2889
   9   2.0000      -1.411788       -38.4167
  10   2.0000      -1.400475       -38.1089
  11   2.0000      -1.369182       -37.2573
  12   2.0000      -1.263514       -34.3820
  13   2.0000      -1.220967       -33.2242
  14   2.0000      -1.046930       -28.4884
  15   2.0000      -0.904209       -24.6048
  16   2.0000      -0.858041       -23.3485
  17   2.0000      -0.799072       -21.7439
  18   2.0000      -0.762859       -20.7585
  19   2.0000      -0.741631       -20.1808
  20   2.0000      -0.704541       -19.1715
  21   2.0000      -0.692467       -18.8430
  22   2.0000      -0.664296       -18.0764
  23   2.0000      -0.626527       -17.0487
  24   2.0000      -0.615995       -16.7621
  25   2.0000      -0.613107       -16.6835
  26   2.0000      -0.596779       -16.2392
  27   2.0000      -0.571397       -15.5485
  28   2.0000      -0.555663       -15.1203
  29   2.0000      -0.516141       -14.0449
  30   2.0000      -0.467115       -12.7109
  31   2.0000      -0.463154       -12.6030
  32   2.0000      -0.453580       -12.3425
  33   2.0000      -0.424693       -11.5565
  34   2.0000      -0.406012       -11.0481
  35   0.0000       0.024936         0.6785
  36   0.0000       0.032359         0.8805
  37   0.0000       0.034158         0.9295
  38   0.0000       0.044014         1.1977
  39   0.0000       0.050789         1.3820

MULLIKEN ATOMIC CHARGES
-----------------------
   0 N :   -0.138419
   1 H :    0.134241
   2 C :    0.496827
   3 H :    0.370914
   4 C :   -0.193105
   5 C :    0.583251
   6 H :    0.299121
   7 H :    0.310913
   8 O :   -0.882836
   9 N :   -0.448341
  10 H :    0.233402
  11 H :    0.134800
  12 C :   -0.299275
  13 H :    0.629089
  14 O :   -0.762120
  15 O :   -0.695271
  16 H :    0.226808
Sum of atomic charges:    0.0000000

LOEWDIN ATOMIC CHARGES
----------------------
   0 N :    0.544264
   1 H :   -0.287305
   2 C :   -0.105165
   3 H :   -0.139147
   4 C :    0.039761
   5 C :   -0.632718
   6 H :   -0.144396
   7 H :   -0.152177
   8 O :    0.478867
   9 N :    0.869703
  10 H :   -0.403243
  11 H :   -0.273955
  12 C :   -0.333376
  13 H :   -0.165687
  14 O :    0.452465
  15 O :    0.828512
  16 H :   -0.576404

  Mayer bond orders larger than 0.100000
B(  0-N ,  1-H ) :   1.0039 B(  0-N ,  2-C ) :   0.8213 B(  0-N ,  5-C ) :   0.1294
B(  0-N , 12-C ) :   1.2688 B(  2-C ,  3-H ) :   0.8779 B(  2-C ,  4-C ) :   1.0026
B(  2-C ,  5-C ) :   0.4638 B(  2-C , 12-C ) :  -0.1014 B(  4-C ,  6-H ) :   0.9550
B(  4-C ,  7-H ) :   0.9547 B(  4-C , 15-O ) :   0.7190 B(  5-C ,  8-O ) :   1.2485
B(  5-C ,  9-N ) :   0.9599 B(  9-N , 10-H ) :   0.9786 B(  9-N , 11-H ) :   1.0548
B( 12-C , 13-H ) :   0.5354 B( 12-C , 14-O ) :   1.6631 B( 15-O , 16-H ) :   0.9373

MP2 TOTAL ENERGY:     -491.646611682 Eh
FINAL SINGLE POINT ENERGY      -491.646611682489

DIPOLE MOMENT
-------------
                                X             Y             Z
Electronic contribution:     -1.24067       1.14804      -1.19368
Nuclear contribution   :      0.74845      -1.57842       1.15522
                        -----------------------------------------
Total Dipole Moment    :     -0.49222      -0.43038      -0.03846
                        -----------------------------------------
Magnitude (a.u.)       :      0.65497
Magnitude (Debye)      :      1.66480

Rotational constants in cm-1:     0.076708     0.046558     0.032443
Rotational constants in MHz :  2299.654351  1395.763241   972.626872

                             ****ORCA TERMINATED NORMALLY****
TOTAL RUN TIME: 0 days 0 hours 3 minutes 41 seconds 545 msec
