                         Program Version 4.2.1 -  RELEASE  -
|  1> %pal
|  2>  nprocs 32
|  3> end
|  4> !RI-MP2 aug-cc-pVTZ aug-cc-pVTZ/C TightSCF
|  5> %maxcore 4500
|  6> *xyzfile 0 1  02_27P.xyz
|  7>
|  8>
|  9>                          ****END OF INPUT****

CARTESIAN COORDINATES (ANGSTROEM)
---------------------------------
  C      1.673942    0.555266   -0.383713
  C     -0.777859    0.491652   -0.725720
  C     -0.911932    1.896829   -0.081671
  C      0.398822    2.539011    0.287339
  C      1.579005    1.938220    0.179755
  C      2.803651   -0.387731    0.022385
  C      2.301260   -1.766858   -0.481156
  C      0.798309   -1.582496   -0.830139
  H      0.339893    3.550509    0.678042
  H      2.487074    2.460126    0.465611
  H      3.761422   -0.104291   -0.416864
  H      2.439353   -2.534719    0.281446
  H      0.668517   -1.470627   -1.910331
  H      2.933658   -0.389321    1.107284
  H      2.860775   -2.096802   -1.357485
  H      0.199412   -2.440025   -0.520855
  C      0.173508   -0.544506    1.383796
  H      0.569442    0.283292    1.973780
  H      0.753444   -1.424288    1.668598
  C     -2.196663   -1.185790    0.602867
  C      0.403253   -0.272874   -0.125380
  C     -2.091892   -0.247128   -0.579069
  O     -3.000790   -0.090839   -1.359753
  C     -1.304634   -0.764924    1.771455
  H     -3.246228   -1.255542    0.891497
  H     -1.908069   -2.177434    0.237180
  H     -1.711953    0.152754    2.201689
  H     -1.370832   -1.514072    2.562531
  H     -0.609171    0.623807   -1.797708
  H     -1.461620    2.541487   -0.772451
  H     -1.535605    1.850954    0.817822
  H      1.744180    0.658877   -1.476256

 Total Charge           Charge          ....    0
 Multiplicity           Mult            ....    1
 Number of Electrons    NEL             ....  104
 Basis Dimension        Dim             .... 1058

ORBITAL ENERGIES
----------------

  NO   OCC          E(Eh)            E(eV)
   0   2.0000     -20.537295      -558.8482
   1   2.0000     -11.318878      -308.0023
   2   2.0000     -11.237677      -305.7927
   3   2.0000     -11.236290      -305.7550
   4   2.0000     -11.234189      -305.6978
   5   2.0000     -11.232156      -305.6425
   6   2.0000     -11.231381      -305.6214
   7   2.0000     -11.230202      -305.5893
   8   2.0000     -11.228471      -305.5422
   9   2.0000     -11.226247      -305.4817
  10   2.0000     -11.224601      -305.4369
  11   2.0000     -11.223449      -305.4056
  12   2.0000     -11.223239      -305.3998
  13   2.0000     -11.222735      -305.3861
  14   2.0000      -1.381895       -37.6033
  15   2.0000      -1.176280       -32.0082
  16   2.0000      -1.093031       -29.7429
  17   2.0000      -1.083961       -29.4961
  18   2.0000      -1.025781       -27.9129
  19   2.0000      -0.988250       -26.8917
  20   2.0000      -0.966135       -26.2899
  21   2.0000      -0.943068       -25.6622
  22   2.0000      -0.863672       -23.5017
  23   2.0000      -0.843582       -22.9550
  24   2.0000      -0.789825       -21.4922
  25   2.0000      -0.776492       -21.1294
  26   2.0000      -0.725696       -19.7472
  27   2.0000      -0.702164       -19.1068
  28   2.0000      -0.673593       -18.3294
  29   2.0000      -0.660762       -17.9802
  30   2.0000      -0.645224       -17.5574
  31   2.0000      -0.629669       -17.1342
  32   2.0000      -0.615576       -16.7507
  33   2.0000      -0.606844       -16.5131
  34   2.0000      -0.593245       -16.1430
  35   2.0000      -0.580046       -15.7838
  36   2.0000      -0.565828       -15.3970
  37   2.0000      -0.564641       -15.3647
  38   2.0000      -0.547717       -14.9042
  39   2.0000      -0.541154       -14.7255
  40   2.0000      -0.515670       -14.0321
  41   2.0000      -0.496016       -13.4973
  42   2.0000      -0.490427       -13.3452
  43   2.0000      -0.483331       -13.1521
  44   2.0000      -0.481555       -13.1038
  45   2.0000      -0.472841       -12.8667
  46   2.0000      -0.461123       -12.5478
  47   2.0000      -0.453867       -12.3503
  48   2.0000      -0.441150       -12.0043
  49   2.0000      -0.430927       -11.7261
  50   2.0000      -0.384550       -10.4641
  51   2.0000      -0.349561        -9.5121
  52   0.0000       0.024353         0.6627
  53   0.0000       0.029023         0.7898
  54   0.0000       0.029972         0.8156
  55   0.0000       0.035017         0.9528
  56   0.0000       0.042506         1.1567

MULLIKEN ATOMIC CHARGES
-----------------------
   0 C :   -0.619404
   1 C :   -0.013556
   2 C :   -0.301612
   3 C :   -0.848144
   4 C :   -0.927583
   5 C :   -0.625512
   6 C :   -0.790060
   7 C :   -1.319922
   8 H :    0.442191
   9 H :    0.244608
  10 H :    0.351489
  11 H :    0.258256
  12 H :    0.072235
  13 H :    0.090352
  14 H :    0.246136
  15 H :    0.410604
  16 C :   -0.765099
  17 H :    0.329718
  18 H :    0.108636
  19 C :   -0.520641
  20 C :    3.456413
  21 C :    0.853920
  22 O :   -1.326763
  23 C :   -0.768450
  24 H :    0.368719
  25 H :    0.126887
  26 H :    0.082722
  27 H :    0.401588
  28 H :    0.272966
  29 H :    0.203286
  30 H :    0.237447
  31 H :    0.268572
Sum of atomic charges:    0.0000000

LOEWDIN ATOMIC CHARGES
----------------------
   0 C :   -0.026347
   1 C :    0.031896
   2 C :    0.313971
   3 C :    0.260372
   4 C :    0.265803
   5 C :    0.333706
   6 C :    0.346915
   7 C :    0.337875
   8 H :   -0.173537
   9 H :   -0.165914
  10 H :   -0.134747
  11 H :   -0.146276
  12 H :   -0.129325
  13 H :   -0.142214
  14 H :   -0.143727
  15 H :   -0.144683
  16 C :    0.341519
  17 H :   -0.143404
  18 H :   -0.147037
  19 C :    0.314898
  20 C :   -0.265236
  21 C :   -0.476354
  22 O :    0.489234
  23 C :    0.326587
  24 H :   -0.144486
  25 H :   -0.148884
  26 H :   -0.155473
  27 H :   -0.136121
  28 H :   -0.129104
  29 H :   -0.133167
  30 H :   -0.158591
  31 H :   -0.118149

  Mayer bond orders larger than 0.100000
B(  0-C ,  2-C ) :   0.1346 B(  0-C ,  3-C ) :   0.4140 B(  0-C ,  4-C ) :   0.5598
B(  0-C ,  5-C ) :   0.9417 B(  0-C ,  6-C ) :   0.2567 B(  0-C ,  7-C ) :   0.2558
B(  0-C , 16-C ) :  -0.1721 B(  0-C , 20-C ) :   0.1594 B(  0-C , 31-H ) :   1.1242
B(  1-C ,  2-C ) :   0.9674 B(  1-C ,  3-C ) :   0.3521 B(  1-C ,  6-C ) :  -0.1000
B(  1-C ,  7-C ) :  -0.1124 B(  1-C , 16-C ) :   0.2283 B(  1-C , 19-C ) :   0.1953
B(  1-C , 20-C ) :   0.6545 B(  1-C , 21-C ) :   0.3624 B(  1-C , 22-O ) :  -0.2539
B(  1-C , 23-C ) :   0.1279 B(  1-C , 28-H ) :   0.9555 B(  2-C ,  3-C ) :   0.5714
B(  2-C , 22-O ) :   0.2087 B(  2-C , 29-H ) :   1.0086 B(  2-C , 30-H ) :   0.9641
B(  3-C ,  4-C ) :   1.4685 B(  3-C ,  8-H ) :   0.6154 B(  3-C , 20-C ) :  -0.3979
B(  4-C ,  5-C ) :  -0.2081 B(  4-C ,  9-H ) :   1.1545 B(  4-C , 20-C ) :   0.4221
B(  4-C , 31-H ) :  -0.2675 B(  5-C ,  6-C ) :   1.0586 B(  5-C ,  7-C ) :   0.2344
B(  5-C , 10-H ) :   0.8651 B(  5-C , 13-H ) :   1.2378 B(  5-C , 20-C ) :  -0.3601
B(  6-C ,  7-C ) :   1.3221 B(  6-C , 11-H ) :   1.0149 B(  6-C , 12-H ) :   0.1089
B(  6-C , 14-H ) :   0.9745 B(  6-C , 15-H ) :  -0.1068 B(  6-C , 20-C ) :  -0.6319
B(  7-C , 11-H ) :   0.1149 B(  7-C , 12-H ) :   1.3487 B(  7-C , 15-H ) :   0.9433
B(  7-C , 16-C ) :  -0.1253 B(  7-C , 20-C ) :  -0.3513 B(  7-C , 21-C ) :  -0.1271
B( 11-H , 20-C ) :  -0.1006 B( 12-H , 20-C ) :  -0.1896 B( 16-C , 17-H ) :   1.0773
B( 16-C , 18-H ) :   1.1678 B( 16-C , 19-C ) :   0.1760 B( 16-C , 23-C ) :   1.1074
B( 17-H , 20-C ) :  -0.1219 B( 17-H , 23-C ) :  -0.1111 B( 18-H , 20-C ) :  -0.1451
B( 19-C , 20-C ) :  -0.3148 B( 19-C , 21-C ) :   0.8239 B( 19-C , 23-C ) :   0.8952
B( 19-C , 24-H ) :   0.8183 B( 19-C , 25-H ) :   1.1172 B( 20-C , 21-C ) :   0.7260
B( 20-C , 22-O ) :   0.1904 B( 20-C , 23-C ) :  -0.1213 B( 20-C , 25-H ) :  -0.1482
B( 20-C , 28-H ) :  -0.1013 B( 21-C , 22-O ) :   0.3428 B( 21-C , 28-H ) :  -0.2173
B( 23-C , 26-H ) :   1.2187 B( 23-C , 27-H ) :   0.8179

MP2 TOTAL ENERGY:     -580.245159498 Eh
FINAL SINGLE POINT ENERGY      -580.245159497984

DIPOLE MOMENT
-------------
                                X             Y             Z
Electronic contribution:     -5.94461       3.18996      -3.87427
Nuclear contribution   :      7.04802      -3.37369       4.73410
                        -----------------------------------------
Total Dipole Moment    :      1.10341      -0.18373       0.85983
                        -----------------------------------------
Magnitude (a.u.)       :      1.41088
Magnitude (Debye)      :      3.58617

Rotational constants in cm-1:     0.034871     0.022452     0.018156
Rotational constants in MHz :  1045.395930   673.096879   544.313620

                             ****ORCA TERMINATED NORMALLY****
TOTAL RUN TIME: 0 days 0 hours 26 minutes 42 seconds 705 msec
