                         Program Version 4.2.1 -  RELEASE  -
|  1> %pal
|  2>  nprocs 32
|  3> end
|  4> !RI-MP2 aug-cc-pVTZ aug-cc-pVTZ/C TightSCF
|  5> %maxcore 4500
|  6> *xyzfile -2 1  10_91R.xyz
|  7>
|  8>
|  9>                          ****END OF INPUT****

CARTESIAN COORDINATES (ANGSTROEM)
---------------------------------
  O      0.932417    0.579427   -0.526253
  C      2.258907    0.661623   -0.225439
  C      2.855071    1.848955   -0.353748
  H      2.285277    2.723654   -0.647040
  H      3.915804    1.920237   -0.164769
  C      3.076018   -0.617499    0.106262
  O      4.153866   -0.424629    0.705522
  O      2.580956   -1.688185   -0.297879
  C      0.105386   -0.355344    0.183370
  C     -1.291352    0.178281    0.238494
  C     -2.377280   -0.511895   -0.092409
  C     -3.813776   -0.005609    0.041028
  O     -3.980578    1.149395    0.490870
  O     -4.691300   -0.828833   -0.322615
  H      0.159304   -1.330485   -0.299282
  H      0.502942   -0.469054    1.198607
  H     -2.280213   -1.522590   -0.484750
  H     -1.423849    1.189765    0.614722

 Total Charge           Charge          ....   -2
 Multiplicity           Mult            ....    1
 Number of Electrons    NEL             ....   90
 Basis Dimension        Dim             ....  690

ORBITAL ENERGIES
----------------

  NO   OCC          E(Eh)            E(eV)
   0   2.0000     -20.339355      -553.4620
   1   2.0000     -20.237367      -550.6868
   2   2.0000     -20.235902      -550.6469
   3   2.0000     -20.221438      -550.2533
   4   2.0000     -20.218483      -550.1729
   5   2.0000     -11.083399      -301.5946
   6   2.0000     -11.063637      -301.0569
   7   2.0000     -11.057351      -300.8858
   8   2.0000     -11.047520      -300.6183
   9   2.0000     -10.990149      -299.0572
  10   2.0000     -10.980763      -298.8017
  11   2.0000     -10.978886      -298.7507
  12   2.0000      -1.165241       -31.7078
  13   2.0000      -1.115535       -30.3553
  14   2.0000      -1.098134       -29.8817
  15   2.0000      -1.017970       -27.7004
  16   2.0000      -0.996029       -27.1033
  17   2.0000      -0.838572       -22.8187
  18   2.0000      -0.788234       -21.4489
  19   2.0000      -0.686891       -18.6913
  20   2.0000      -0.585901       -15.9432
  21   2.0000      -0.548865       -14.9354
  22   2.0000      -0.485412       -13.2087
  23   2.0000      -0.460864       -12.5407
  24   2.0000      -0.413390       -11.2489
  25   2.0000      -0.412948       -11.2369
  26   2.0000      -0.400702       -10.9037
  27   2.0000      -0.365456        -9.9446
  28   2.0000      -0.356286        -9.6950
  29   2.0000      -0.337151        -9.1744
  30   2.0000      -0.330862        -9.0032
  31   2.0000      -0.318051        -8.6546
  32   2.0000      -0.302864        -8.2414
  33   2.0000      -0.292259        -7.9528
  34   2.0000      -0.286102        -7.7852
  35   2.0000      -0.273960        -7.4548
  36   2.0000      -0.243922        -6.6375
  37   2.0000      -0.159402        -4.3375
  38   2.0000      -0.146313        -3.9814
  39   2.0000      -0.140131        -3.8132
  40   2.0000      -0.138447        -3.7673
  41   2.0000      -0.134125        -3.6497
  42   2.0000      -0.125207        -3.4071
  43   2.0000      -0.121807        -3.3145
  44   2.0000      -0.105200        -2.8626
  45   0.0000       0.180316         4.9066
  46   0.0000       0.196101         5.3362
  47   0.0000       0.204169         5.5557
  48   0.0000       0.211347         5.7510
  49   0.0000       0.220978         6.0131

MULLIKEN ATOMIC CHARGES
-----------------------
   0 O :   -0.494744
   1 C :    0.700483
   2 C :   -1.249514
   3 H :    0.368939
   4 H :    0.385207
   5 C :    0.715618
   6 O :   -0.910876
   7 O :   -0.834675
   8 C :   -0.242012
   9 C :   -0.033469
  10 C :   -0.404611
  11 C :    0.463616
  12 O :   -0.854178
  13 O :   -0.865703
  14 H :    0.317759
  15 H :    0.386063
  16 H :    0.331029
  17 H :    0.221066
Sum of atomic charges:   -2.0000000

LOEWDIN ATOMIC CHARGES
----------------------
   0 O :    0.544886
   1 C :   -0.481008
   2 C :    0.449493
   3 H :   -0.256907
   4 H :   -0.282849
   5 C :   -1.200003
   6 O :    0.254720
   7 O :    0.284761
   8 C :   -0.014984
   9 C :    0.175871
  10 C :    0.122163
  11 C :   -1.239252
  12 O :    0.236721
  13 O :    0.217848
  14 H :   -0.203569
  15 H :   -0.169260
  16 H :   -0.231950
  17 H :   -0.206679

  Mayer bond orders larger than 0.100000
B(  0-O ,  1-C ) :   0.8369 B(  0-O ,  5-C ) :  -0.1100 B(  0-O ,  8-C ) :   0.9598
B(  0-O ,  9-C ) :  -0.2188 B(  1-C ,  2-C ) :   1.4173 B(  1-C ,  5-C ) :   0.7240
B(  1-C ,  6-O ) :  -0.1403 B(  1-C ,  8-C ) :   0.1463 B(  2-C ,  3-H ) :   0.8834
B(  2-C ,  4-H ) :   0.9225 B(  5-C ,  6-O ) :   1.4257 B(  5-C ,  7-O ) :   1.4180
B(  8-C ,  9-C ) :   0.8075 B(  8-C , 10-C ) :   0.1505 B(  8-C , 14-H ) :   0.9434
B(  8-C , 15-H ) :   0.8772 B(  9-C , 10-C ) :   1.1566 B(  9-C , 17-H ) :   1.0916
B( 10-C , 11-C ) :   0.6112 B( 10-C , 12-O ) :  -0.1419 B( 10-C , 13-O ) :  -0.1522
B( 10-C , 16-H ) :   0.8908 B( 11-C , 12-O ) :   1.4756 B( 11-C , 13-O ) :   1.4640

MP2 TOTAL ENERGY:     -645.424258597 Eh
FINAL SINGLE POINT ENERGY      -645.424258596623

DIPOLE MOMENT
-------------
                                X             Y             Z
Electronic contribution:     -1.20308      -1.60129      -0.37760
Nuclear contribution   :      3.05382       2.42136       0.21205
                        -----------------------------------------
Total Dipole Moment    :      1.85074       0.82006      -0.16555
                        -----------------------------------------
Magnitude (a.u.)       :      2.03105
Magnitude (Debye)      :      5.16251

Rotational constants in cm-1:     0.091572     0.010592     0.009774
Rotational constants in MHz :  2745.252089   317.545383   293.003320

                             ****ORCA TERMINATED NORMALLY****
TOTAL RUN TIME: 0 days 0 hours 4 minutes 5 seconds 748 msec
