                         Program Version 4.2.1 -  RELEASE  -
|  1> %pal
|  2>  nprocs 32
|  3> end
|  4> !RI-MP2 aug-cc-pVTZ aug-cc-pVTZ/C TightSCF
|  5> %maxcore 4500
|  6> *xyzfile -1 1  08_7P2.xyz
|  7>
|  8>
|  9>                          ****END OF INPUT****

CARTESIAN COORDINATES (ANGSTROEM)
---------------------------------
  O      1.645858    2.495473    0.020640
  C      1.209817    1.344564    0.002871
  C     -0.200601    0.992540   -0.003636
  N      2.052888    0.241273   -0.004949
  C      1.568946   -0.986775   -0.021820
  C     -0.532805   -0.350992   -0.010551
  N      0.294269   -1.406051   -0.015782
  N     -1.350414    1.764904    0.001501
  C     -2.333311    0.913951   -0.002390
  N     -1.907937   -0.400463   -0.016866
  H     -3.386349    1.160242   -0.005895
  C     -2.703490   -1.598409    0.023870
  H     -2.176670   -2.385681   -0.515223
  H     -3.668955   -1.416466   -0.451942
  H     -2.871479   -1.940728    1.050092
  N      2.521870   -2.011872   -0.073078
  H      2.189953   -2.877602    0.323597
  H      3.420571   -1.707357    0.268407

 Total Charge           Charge          ....   -1
 Multiplicity           Mult            ....    1
 Number of Electrons    NEL             ....   86
 Basis Dimension        Dim             ....  690

ORBITAL ENERGIES
----------------

  NO   OCC          E(Eh)            E(eV)
   0   2.0000     -20.322042      -552.9909
   1   2.0000     -15.478533      -421.1923
   2   2.0000     -15.424675      -419.7268
   3   2.0000     -15.413191      -419.4142
   4   2.0000     -15.380154      -418.5153
   5   2.0000     -15.358230      -417.9187
   6   2.0000     -11.183635      -304.3222
   7   2.0000     -11.163879      -303.7846
   8   2.0000     -11.158452      -303.6369
   9   2.0000     -11.157244      -303.6040
  10   2.0000     -11.147498      -303.3389
  11   2.0000     -11.070838      -301.2528
  12   2.0000      -1.215904       -33.0864
  13   2.0000      -1.177079       -32.0299
  14   2.0000      -1.137565       -30.9547
  15   2.0000      -1.054930       -28.7061
  16   2.0000      -1.029690       -28.0193
  17   2.0000      -0.985055       -26.8047
  18   2.0000      -0.863199       -23.4888
  19   2.0000      -0.837265       -22.7831
  20   2.0000      -0.714522       -19.4431
  21   2.0000      -0.687132       -18.6978
  22   2.0000      -0.635897       -17.3036
  23   2.0000      -0.596054       -16.2194
  24   2.0000      -0.557983       -15.1835
  25   2.0000      -0.529305       -14.4031
  26   2.0000      -0.520244       -14.1566
  27   2.0000      -0.489656       -13.3242
  28   2.0000      -0.484844       -13.1933
  29   2.0000      -0.465758       -12.6739
  30   2.0000      -0.450988       -12.2720
  31   2.0000      -0.435724       -11.8566
  32   2.0000      -0.416624       -11.3369
  33   2.0000      -0.400526       -10.8989
  34   2.0000      -0.352269        -9.5857
  35   2.0000      -0.340725        -9.2716
  36   2.0000      -0.291860        -7.9419
  37   2.0000      -0.286312        -7.7909
  38   2.0000      -0.254119        -6.9149
  39   2.0000      -0.243695        -6.6313
  40   2.0000      -0.220323        -5.9953
  41   2.0000      -0.198503        -5.4015
  42   2.0000      -0.127816        -3.4781
  43   0.0000       0.097564         2.6549
  44   0.0000       0.108128         2.9423
  45   0.0000       0.114192         3.1073
  46   0.0000       0.116335         3.1656
  47   0.0000       0.129900         3.5348

MULLIKEN ATOMIC CHARGES
-----------------------
   0 O :   -0.919921
   1 C :    0.093186
   2 C :    1.194709
   3 N :   -0.272357
   4 C :    0.119402
   5 C :    0.195436
   6 N :   -0.545575
   7 N :   -0.933190
   8 C :   -0.648396
   9 N :    0.372826
  10 H :    0.614993
  11 C :   -0.985428
  12 H :    0.385267
  13 H :    0.340164
  14 H :    0.326488
  15 N :   -0.542532
  16 H :    0.069783
  17 H :    0.135146
Sum of atomic charges:   -1.0000000

LOEWDIN ATOMIC CHARGES
----------------------
   0 O :    0.323606
   1 C :   -0.845514
   2 C :   -0.346320
   3 N :    0.340866
   4 C :   -0.715724
   5 C :   -0.505367
   6 N :    0.376078
   7 N :    0.360214
   8 C :   -0.108069
   9 N :    0.215145
  10 H :   -0.195276
  11 C :    0.493274
  12 H :   -0.175986
  13 H :   -0.173726
  14 H :   -0.160809
  15 N :    0.805670
  16 H :   -0.343335
  17 H :   -0.344726

  Mayer bond orders larger than 0.100000
B(  0-O ,  1-C ) :   0.9967 B(  0-O ,  2-C ) :   0.1635 B(  0-O ,  3-N ) :  -0.1404
B(  1-C ,  3-N ) :   0.8034 B(  1-C ,  4-C ) :  -0.3116 B(  1-C ,  5-C ) :   0.7423
B(  1-C ,  6-N ) :   0.1179 B(  1-C ,  7-N ) :  -0.1741 B(  2-C ,  5-C ) :   1.5853
B(  2-C ,  6-N ) :  -0.1664 B(  3-N ,  4-C ) :   1.0038 B(  3-N , 15-N ) :  -0.2164
B(  4-C ,  5-C ) :  -0.5537 B(  4-C ,  6-N ) :   1.2466 B(  4-C , 15-N ) :   0.8860
B(  5-C ,  6-N ) :   0.7163 B(  5-C ,  7-N ) :   0.4343 B(  5-C ,  8-C ) :  -0.6371
B(  5-C ,  9-N ) :   0.6528 B(  5-C , 11-C ) :  -0.1591 B(  6-N ,  9-N ) :  -0.2758
B(  6-N , 15-N ) :  -0.2058 B(  7-N ,  8-C ) :   1.6262 B(  7-N ,  9-N ) :  -0.1577
B(  8-C ,  9-N ) :   1.1449 B(  8-C , 10-H ) :   0.5302 B(  8-C , 11-C ) :  -0.1234
B(  9-N , 11-C ) :   0.9036 B( 11-C , 12-H ) :   0.8723 B( 11-C , 13-H ) :   0.9145
B( 11-C , 14-H ) :   0.9458 B( 15-N , 16-H ) :   1.0884 B( 15-N , 17-H ) :   1.0174

MP2 TOTAL ENERGY:     -580.301160629 Eh
FINAL SINGLE POINT ENERGY      -580.301160628946

DIPOLE MOMENT
-------------
                                X             Y             Z
Electronic contribution:      3.83893       5.99933      -0.25881
Nuclear contribution   :     -6.28004      -8.88770       0.65034
                        -----------------------------------------
Total Dipole Moment    :     -2.44111      -2.88837       0.39153
                        -----------------------------------------
Magnitude (a.u.)       :      3.80197
Magnitude (Debye)      :      9.66384

Rotational constants in cm-1:     0.049046     0.031815     0.019380
Rotational constants in MHz :  1470.374923   953.791337   580.985864

                             ****ORCA TERMINATED NORMALLY****
TOTAL RUN TIME: 0 days 0 hours 5 minutes 50 seconds 905 msec
