                         Program Version 4.2.1 -  RELEASE  -
|  1> %pal
|  2>  nprocs 32
|  3> end
|  4> !RI-MP2 aug-cc-pVTZ aug-cc-pVTZ/C TightSCF
|  5> %maxcore 4500
|  6> *xyzfile 0 1  10_55P.xyz
|  7>
|  8>
|  9>                          ****END OF INPUT****

CARTESIAN COORDINATES (ANGSTROEM)
---------------------------------
  S     -1.585684   -0.020516    0.128780
  C     -0.734422   -1.312826   -0.822062
  C      0.623281   -1.794690   -0.296820
  C      1.421517   -0.669603    0.340204
  C      1.517839    0.675583   -0.452668
  C      0.624517    1.785087    0.071112
  C     -0.827596    1.561360   -0.337867
  C      2.935850   -0.614900    0.386009
  C      3.005660    0.596485   -0.166019
  O     -1.368281   -0.246516    1.555988
  O     -2.945826    0.029669   -0.400656
  H     -1.478590   -2.110030   -0.843559
  H     -0.667335   -0.906448   -1.832107
  H      1.167152   -2.223390   -1.143378
  H      0.471636   -2.596201    0.428014
  H      0.928439    2.756562   -0.329917
  H      0.702877    1.846941    1.159155
  H     -0.962074    1.623797   -1.419434
  H     -1.504440    2.282040    0.124202
  H      1.004491   -0.475329    1.329259
  H      1.323528    0.523372   -1.521048
  H      3.821484    1.278101   -0.372649
  H      3.676768   -1.295363    0.786988

 Total Charge           Charge          ....    0
 Multiplicity           Mult            ....    1
 Number of Electrons    NEL             ....   92
 Basis Dimension        Dim             ....  786

ORBITAL ENERGIES
----------------

  NO   OCC          E(Eh)            E(eV)
   0   2.0000     -92.170971     -2508.0996
   1   2.0000     -20.536685      -558.8316
   2   2.0000     -20.534384      -558.7690
   3   2.0000     -11.277854      -306.8860
   4   2.0000     -11.277409      -306.8739
   5   2.0000     -11.250466      -306.1407
   6   2.0000     -11.249775      -306.1219
   7   2.0000     -11.249087      -306.1032
   8   2.0000     -11.243417      -305.9489
   9   2.0000     -11.242457      -305.9228
  10   2.0000     -11.241313      -305.8917
  11   2.0000      -9.141227      -248.7454
  12   2.0000      -6.825585      -185.7336
  13   2.0000      -6.825259      -185.7247
  14   2.0000      -6.825174      -185.7224
  15   2.0000      -1.435202       -39.0538
  16   2.0000      -1.324241       -36.0344
  17   2.0000      -1.185404       -32.2565
  18   2.0000      -1.091707       -29.7069
  19   2.0000      -1.078344       -29.3432
  20   2.0000      -0.969370       -26.3779
  21   2.0000      -0.939021       -25.5521
  22   2.0000      -0.869433       -23.6585
  23   2.0000      -0.832613       -22.6566
  24   2.0000      -0.780517       -21.2389
  25   2.0000      -0.729344       -19.8465
  26   2.0000      -0.699246       -19.0274
  27   2.0000      -0.683996       -18.6125
  28   2.0000      -0.653395       -17.7798
  29   2.0000      -0.649447       -17.6723
  30   2.0000      -0.642533       -17.4842
  31   2.0000      -0.611816       -16.6484
  32   2.0000      -0.601183       -16.3590
  33   2.0000      -0.594046       -16.1648
  34   2.0000      -0.578147       -15.7322
  35   2.0000      -0.545577       -14.8459
  36   2.0000      -0.530845       -14.4450
  37   2.0000      -0.519789       -14.1442
  38   2.0000      -0.507201       -13.8017
  39   2.0000      -0.490259       -13.3406
  40   2.0000      -0.473723       -12.8907
  41   2.0000      -0.464597       -12.6423
  42   2.0000      -0.450758       -12.2657
  43   2.0000      -0.446328       -12.1452
  44   2.0000      -0.421640       -11.4734
  45   2.0000      -0.365965        -9.9584
  46   0.0000       0.022009         0.5989
  47   0.0000       0.028137         0.7656
  48   0.0000       0.030294         0.8243
  49   0.0000       0.036862         1.0031
  50   0.0000       0.043236         1.1765

MULLIKEN ATOMIC CHARGES
-----------------------
   0 S :    2.245079
   1 C :   -0.629122
   2 C :   -0.444978
   3 C :    0.457905
   4 C :    0.421238
   5 C :   -0.465825
   6 C :   -0.627891
   7 C :   -1.247026
   8 C :   -1.278114
   9 O :   -1.102689
  10 O :   -1.144183
  11 H :    0.297403
  12 H :    0.164031
  13 H :    0.291125
  14 H :    0.215628
  15 H :    0.314599
  16 H :    0.222141
  17 H :    0.157604
  18 H :    0.330597
  19 H :    0.445901
  20 H :    0.387044
  21 H :    0.486105
  22 H :    0.503428
Sum of atomic charges:   -0.0000000

LOEWDIN ATOMIC CHARGES
----------------------
   0 S :    0.319237
   1 C :    0.229084
   2 C :    0.292485
   3 C :   -0.037894
   4 C :   -0.033986
   5 C :    0.279949
   6 C :    0.222346
   7 C :    0.302923
   8 C :    0.298500
   9 O :    0.054788
  10 O :    0.033624
  11 H :   -0.186062
  12 H :   -0.188111
  13 H :   -0.141181
  14 H :   -0.142583
  15 H :   -0.136844
  16 H :   -0.142756
  17 H :   -0.183291
  18 H :   -0.180512
  19 H :   -0.187062
  20 H :   -0.136195
  21 H :   -0.169790
  22 H :   -0.166670

  Mayer bond orders larger than 0.100000
B(  0-S ,  1-C ) :   1.0031 B(  0-S ,  6-C ) :   0.9679 B(  0-S ,  9-O ) :   1.0916
B(  0-S , 10-O ) :   0.8236 B(  1-C ,  2-C ) :   0.8949 B(  1-C ,  9-O ) :   0.1458
B(  1-C , 10-O ) :   0.1066 B(  1-C , 11-H ) :   0.8604 B(  1-C , 12-H ) :   1.0613
B(  2-C ,  3-C ) :   0.6441 B(  2-C ,  7-C ) :  -0.1801 B(  2-C , 13-H ) :   1.0505
B(  2-C , 14-H ) :   0.9931 B(  3-C ,  4-C ) :   1.1132 B(  3-C ,  7-C ) :   0.6133
B(  3-C ,  8-C ) :  -0.3566 B(  3-C , 19-H ) :   1.0141 B(  4-C ,  5-C ) :   0.7846
B(  4-C ,  7-C ) :  -0.2809 B(  4-C ,  8-C ) :   0.4090 B(  4-C , 20-H ) :   0.9800
B(  5-C ,  6-C ) :   0.9100 B(  5-C ,  8-C ) :  -0.1292 B(  5-C , 15-H ) :   0.9275
B(  5-C , 16-H ) :   1.0450 B(  6-C ,  9-O ) :   0.1301 B(  6-C , 17-H ) :   1.0710
B(  6-C , 18-H ) :   0.8579 B(  7-C ,  8-C ) :   1.8618 B(  7-C , 13-H ) :  -0.1065
B(  7-C , 19-H ) :  -0.3082 B(  7-C , 22-H ) :   0.8608 B(  8-C , 20-H ) :  -0.2712
B(  8-C , 21-H ) :   0.9259

MP2 TOTAL ENERGY:     -859.296013577 Eh
FINAL SINGLE POINT ENERGY      -859.296013576955

DIPOLE MOMENT
-------------
                                X             Y             Z
Electronic contribution:     -6.67268      -0.48620       2.53013
Nuclear contribution   :      8.49143       0.70347      -3.63160
                        -----------------------------------------
Total Dipole Moment    :      1.81875       0.21727      -1.10147
                        -----------------------------------------
Magnitude (a.u.)       :      2.13736
Magnitude (Debye)      :      5.43273

Rotational constants in cm-1:     0.064871     0.025963     0.022048
Rotational constants in MHz :  1944.787262   778.340148   660.988651

                             ****ORCA TERMINATED NORMALLY****
TOTAL RUN TIME: 0 days 0 hours 9 minutes 29 seconds 805 msec
