                         Program Version 4.2.1 -  RELEASE  -
|  1> %pal
|  2>  nprocs 32
|  3> end
|  4> !RI-MP2 aug-cc-pVTZ aug-cc-pVTZ/C TightSCF
|  5> %maxcore 4500
|  6> *xyzfile 0 1  02_41TS.xyz
|  7>
|  8>
|  9>                          ****END OF INPUT****

CARTESIAN COORDINATES (ANGSTROEM)
---------------------------------
  C     -0.630859    0.256575    0.777918
  C     -0.027246    1.528344    0.380281
  C     -2.284288    0.204785   -0.958603
  O     -2.350672   -1.101510   -0.608326
  C     -1.459839    0.346680   -2.076804
  C     -0.768909   -0.832338   -2.203498
  C     -1.158477   -1.623292   -1.079875
  C     -0.111143   -1.001036    0.372243
  C      1.332021   -1.166004   -0.015258
  O      2.140461   -0.741735    0.966109
  O      1.741328   -1.695052   -1.014508
  O     -0.324588    2.600323    0.864681
  O      0.900196    1.396117   -0.584937
  C      1.488858    2.606353   -1.054960
  C      3.541488   -0.867161    0.711529
  H     -3.043390    0.850889   -0.548674
  H     -1.330579    1.253651   -2.646171
  H      0.047227   -1.062959   -2.865292
  H     -1.098859   -2.701524   -1.037136
  H      2.204662    2.307948   -1.816853
  H      1.988800    3.130659   -0.240695
  H      0.728252    3.261452   -1.481464
  H      4.036524   -0.477126    1.596871
  H      3.816348   -0.286283   -0.169120
  H      3.810318   -1.910514    0.548053
  H     -0.356218   -1.794250    1.074264
  N     -1.520975    0.371429    1.847075
  H     -1.547551    1.317841    2.199056
  C     -1.648072   -0.672097    2.837650
  H     -2.273839   -0.302632    3.649506
  H     -2.147062   -1.550182    2.420548
  H     -0.682819   -0.986967    3.259691

 Total Charge           Charge          ....    0
 Multiplicity           Mult            ....    1
 Number of Electrons    NEL             ....  128
 Basis Dimension        Dim             .... 1127

ORBITAL ENERGIES
----------------

  NO   OCC          E(Eh)            E(eV)
   0   2.0000     -20.608148      -560.7762
   1   2.0000     -20.602433      -560.6207
   2   2.0000     -20.597206      -560.4785
   3   2.0000     -20.543446      -559.0156
   4   2.0000     -20.527848      -558.5911
   5   2.0000     -15.549332      -423.1188
   6   2.0000     -11.383385      -309.7576
   7   2.0000     -11.369713      -309.3856
   8   2.0000     -11.312274      -307.8226
   9   2.0000     -11.311102      -307.7907
  10   2.0000     -11.284827      -307.0758
  11   2.0000     -11.284284      -307.0610
  12   2.0000     -11.276393      -306.8462
  13   2.0000     -11.261147      -306.4314
  14   2.0000     -11.250433      -306.1399
  15   2.0000     -11.239392      -305.8394
  16   2.0000     -11.237036      -305.7753
  17   2.0000      -1.467452       -39.9314
  18   2.0000      -1.458476       -39.6871
  19   2.0000      -1.455527       -39.6069
  20   2.0000      -1.362491       -37.0753
  21   2.0000      -1.350759       -36.7560
  22   2.0000      -1.227258       -33.3954
  23   2.0000      -1.101837       -29.9825
  24   2.0000      -1.068193       -29.0670
  25   2.0000      -1.011735       -27.5307
  26   2.0000      -0.988742       -26.9050
  27   2.0000      -0.960571       -26.1385
  28   2.0000      -0.932139       -25.3648
  29   2.0000      -0.850116       -23.1328
  30   2.0000      -0.805188       -21.9103
  31   2.0000      -0.798529       -21.7291
  32   2.0000      -0.792857       -21.5747
  33   2.0000      -0.757125       -20.6024
  34   2.0000      -0.743566       -20.2335
  35   2.0000      -0.737625       -20.0718
  36   2.0000      -0.692613       -18.8470
  37   2.0000      -0.690701       -18.7949
  38   2.0000      -0.678366       -18.4593
  39   2.0000      -0.663176       -18.0459
  40   2.0000      -0.661513       -18.0007
  41   2.0000      -0.644460       -17.5366
  42   2.0000      -0.626918       -17.0593
  43   2.0000      -0.622541       -16.9402
  44   2.0000      -0.607710       -16.5366
  45   2.0000      -0.596142       -16.2218
  46   2.0000      -0.587298       -15.9812
  47   2.0000      -0.575161       -15.6509
  48   2.0000      -0.565499       -15.3880
  49   2.0000      -0.561470       -15.2784
  50   2.0000      -0.551448       -15.0057
  51   2.0000      -0.545859       -14.8536
  52   2.0000      -0.538870       -14.6634
  53   2.0000      -0.528015       -14.3680
  54   2.0000      -0.526487       -14.3264
  55   2.0000      -0.512688       -13.9510
  56   2.0000      -0.468983       -12.7617
  57   2.0000      -0.460041       -12.5184
  58   2.0000      -0.457100       -12.4383
  59   2.0000      -0.444560       -12.0971
  60   2.0000      -0.438422       -11.9301
  61   2.0000      -0.414456       -11.2779
  62   2.0000      -0.379897       -10.3375
  63   2.0000      -0.253860        -6.9079
  64   0.0000       0.025427         0.6919
  65   0.0000       0.030572         0.8319
  66   0.0000       0.032646         0.8883
  67   0.0000       0.035727         0.9722
  68   0.0000       0.044121         1.2006

MULLIKEN ATOMIC CHARGES
-----------------------
   0 C :    1.321444
   1 C :    0.908598
   2 C :   -0.133517
   3 O :   -0.843943
   4 C :   -0.579677
   5 C :   -1.090322
   6 C :    0.363483
   7 C :    0.045862
   8 C :    0.838605
   9 O :   -0.446357
  10 O :   -1.178434
  11 O :   -1.280175
  12 O :   -0.094565
  13 C :   -1.075976
  14 C :   -1.017036
  15 H :    0.650541
  16 H :    0.573109
  17 H :    0.550910
  18 H :    0.645440
  19 H :    0.337617
  20 H :    0.378676
  21 H :    0.354948
  22 H :    0.328880
  23 H :    0.398295
  24 H :    0.396698
  25 H :    0.444195
  26 N :   -0.664623
  27 H :   -0.076681
  28 C :   -1.136289
  29 H :    0.382050
  30 H :    0.354784
  31 H :    0.343459
Sum of atomic charges:   -0.0000000

LOEWDIN ATOMIC CHARGES
----------------------
   0 C :   -0.280724
   1 C :   -0.848938
   2 C :   -0.048270
   3 O :    0.591269
   4 C :    0.190491
   5 C :    0.211617
   6 C :   -0.153620
   7 C :    0.054214
   8 C :   -0.853535
   9 O :    0.580459
  10 O :    0.494184
  11 O :    0.483467
  12 O :    0.574765
  13 C :    0.357750
  14 C :    0.358306
  15 H :   -0.150729
  16 H :   -0.162157
  17 H :   -0.174467
  18 H :   -0.139779
  19 H :   -0.180652
  20 H :   -0.176792
  21 H :   -0.175686
  22 H :   -0.183271
  23 H :   -0.177685
  24 H :   -0.180222
  25 H :   -0.189032
  26 N :    0.534800
  27 H :   -0.341760
  28 C :    0.473787
  29 H :   -0.163587
  30 H :   -0.167987
  31 H :   -0.156218

  Mayer bond orders larger than 0.100000
B(  0-C ,  1-C ) :   0.6796 B(  0-C ,  2-C ) :   0.3130 B(  0-C ,  4-C ) :   0.1230
B(  0-C ,  5-C ) :   0.1601 B(  0-C ,  7-C ) :   1.5247 B(  0-C ,  9-O ) :  -0.1910
B(  0-C , 11-O ) :   0.2081 B(  0-C , 28-C ) :  -0.2250 B(  1-C ,  7-C ) :   0.1144
B(  1-C , 11-O ) :   0.2386 B(  1-C , 12-O ) :   1.0653 B(  2-C ,  3-O ) :   1.0061
B(  2-C ,  4-C ) :   1.1454 B(  2-C ,  7-C ) :   0.1592 B(  2-C , 15-H ) :   0.5804
B(  3-O ,  5-C ) :   0.1120 B(  3-O ,  6-C ) :   0.7035 B(  4-C ,  5-C ) :   1.3413
B(  4-C ,  7-C ) :  -0.1112 B(  4-C , 16-H ) :   0.6621 B(  5-C ,  6-C ) :   1.1663
B(  5-C ,  7-C ) :   0.2637 B(  5-C , 17-H ) :   0.6435 B(  6-C ,  7-C ) :   0.7528
B(  6-C , 18-H ) :   0.6252 B(  7-C ,  8-C ) :   0.4708 B(  7-C , 10-O ) :  -0.2601
B(  7-C , 12-O ) :  -0.1114 B(  7-C , 25-H ) :   0.9785 B(  7-C , 26-N ) :  -0.1525
B(  8-C ,  9-O ) :   1.0627 B(  8-C , 10-O ) :   0.9952 B(  8-C , 25-H ) :  -0.2493
B(  9-O , 14-C ) :   0.9389 B( 12-O , 13-C ) :   0.8896 B( 13-C , 19-H ) :   0.9358
B( 13-C , 20-H ) :   0.8925 B( 13-C , 21-H ) :   0.9137 B( 14-C , 22-H ) :   0.9434
B( 14-C , 23-H ) :   0.8477 B( 14-C , 24-H ) :   0.8658 B( 26-N , 27-H ) :   1.1462
B( 26-N , 28-C ) :   1.1776 B( 28-C , 29-H ) :   0.9124 B( 28-C , 30-H ) :   0.9169
B( 28-C , 31-H ) :   0.9144

MP2 TOTAL ENERGY:     -857.511358754 Eh
FINAL SINGLE POINT ENERGY      -857.511358753563

DIPOLE MOMENT
-------------
                                X             Y             Z
Electronic contribution:     -3.64494      -1.21986      -3.93233
Nuclear contribution   :      4.16139       1.05567       3.93358
                        -----------------------------------------
Total Dipole Moment    :      0.51645      -0.16418       0.00125
                        -----------------------------------------
Magnitude (a.u.)       :      0.54192
Magnitude (Debye)      :      1.37746

Rotational constants in cm-1:     0.019045     0.015264     0.014630
Rotational constants in MHz :   570.950463   457.612421   438.593563

                             ****ORCA TERMINATED NORMALLY****
TOTAL RUN TIME: 0 days 0 hours 33 minutes 3 seconds 557 msec
