                         Program Version 4.2.1 -  RELEASE  -
|  1> %pal
|  2>  nprocs 32
|  3> end
|  4> !RI-MP2 aug-cc-pVTZ aug-cc-pVTZ/C TightSCF
|  5> %maxcore 4500
|  6> *xyzfile -1 1  09_21TS.xyz
|  7>
|  8>
|  9>                          ****END OF INPUT****

CARTESIAN COORDINATES (ANGSTROEM)
---------------------------------
  C      1.231032   -0.100674   -0.224632
  N      1.339741    1.218960   -0.110442
  C      2.567948    1.740274    0.017831
  C      3.710456    0.984360    0.028018
  C      3.628725   -0.427841   -0.097980
  C      2.316247   -0.944603   -0.221793
  C     -0.412636    2.318201   -0.217407
  C     -1.483738    1.515231   -0.516049
  C     -2.240702    0.895713    0.536129
  O     -1.976973    1.009262    1.733309
  C      4.762204   -1.279324   -0.105185
  N      5.983479   -0.772193    0.001521
  O      6.952979   -1.578644   -0.015036
  C     -3.430013    0.040747    0.155470
  C     -3.887805   -0.889049    1.086442
  C     -4.973369   -1.702204    0.801894
  C     -5.630461   -1.585769   -0.417327
  C     -5.192220   -0.651897   -1.346064
  C     -4.096022    0.152247   -1.062742
  H      2.617443    2.822341    0.114061
  H      4.682180    1.446713    0.130092
  H      0.034579    2.937171   -0.983051
  H     -0.292626    2.648593    0.805719
  H     -1.714097    1.285649   -1.547434
  H     -3.769361    0.883955   -1.790111
  H     -5.705741   -0.547844   -2.295153
  H     -6.482116   -2.218173   -0.641022
  H     -5.311080   -2.428476    1.532546
  H     -3.369676   -0.948552    2.035242
  H      4.643849   -2.359393   -0.201724
  H      2.164880   -2.013361   -0.316335
  H      0.213298   -0.473406   -0.326195

 Total Charge           Charge          ....   -1
 Multiplicity           Mult            ....    1
 Number of Electrons    NEL             ....  134
 Basis Dimension        Dim             .... 1173

ORBITAL ENERGIES
----------------

  NO   OCC          E(Eh)            E(eV)
   0   2.0000     -20.411870      -555.4352
   1   2.0000     -20.371549      -554.3380
   2   2.0000     -15.491672      -421.5498
   3   2.0000     -15.453471      -420.5103
   4   2.0000     -11.217995      -305.2572
   5   2.0000     -11.183315      -304.3135
   6   2.0000     -11.168209      -303.9024
   7   2.0000     -11.166294      -303.8503
   8   2.0000     -11.164455      -303.8003
   9   2.0000     -11.163107      -303.7636
  10   2.0000     -11.163040      -303.7618
  11   2.0000     -11.162076      -303.7355
  12   2.0000     -11.157522      -303.6116
  13   2.0000     -11.155873      -303.5667
  14   2.0000     -11.146626      -303.3151
  15   2.0000     -11.110132      -302.3221
  16   2.0000     -11.108736      -302.2841
  17   2.0000     -11.094161      -301.8875
  18   2.0000     -11.076866      -301.4169
  19   2.0000      -1.256519       -34.1916
  20   2.0000      -1.255777       -34.1714
  21   2.0000      -1.154023       -31.4026
  22   2.0000      -1.083188       -29.4750
  23   2.0000      -0.996641       -27.1200
  24   2.0000      -0.967195       -26.3187
  25   2.0000      -0.945348       -25.7242
  26   2.0000      -0.940871       -25.6024
  27   2.0000      -0.921886       -25.0858
  28   2.0000      -0.901485       -24.5307
  29   2.0000      -0.805586       -21.9211
  30   2.0000      -0.759588       -20.6694
  31   2.0000      -0.754974       -20.5439
  32   2.0000      -0.738653       -20.0998
  33   2.0000      -0.729947       -19.8629
  34   2.0000      -0.650705       -17.7066
  35   2.0000      -0.643913       -17.5218
  36   2.0000      -0.617495       -16.8029
  37   2.0000      -0.577764       -15.7218
  38   2.0000      -0.576138       -15.6775
  39   2.0000      -0.557255       -15.1637
  40   2.0000      -0.548427       -14.9235
  41   2.0000      -0.543263       -14.7829
  42   2.0000      -0.528708       -14.3869
  43   2.0000      -0.515864       -14.0374
  44   2.0000      -0.511969       -13.9314
  45   2.0000      -0.492234       -13.3944
  46   2.0000      -0.486219       -13.2307
  47   2.0000      -0.478597       -13.0233
  48   2.0000      -0.467319       -12.7164
  49   2.0000      -0.452211       -12.3053
  50   2.0000      -0.447187       -12.1686
  51   2.0000      -0.433388       -11.7931
  52   2.0000      -0.431436       -11.7400
  53   2.0000      -0.413807       -11.2602
  54   2.0000      -0.411171       -11.1885
  55   2.0000      -0.399394       -10.8681
  56   2.0000      -0.391675       -10.6580
  57   2.0000      -0.369986       -10.0678
  58   2.0000      -0.347125        -9.4458
  59   2.0000      -0.307892        -8.3782
  60   2.0000      -0.288687        -7.8556
  61   2.0000      -0.267639        -7.2828
  62   2.0000      -0.261542        -7.1169
  63   2.0000      -0.242660        -6.6031
  64   2.0000      -0.211786        -5.7630
  65   2.0000      -0.203842        -5.5468
  66   2.0000      -0.135191        -3.6787
  67   0.0000       0.076264         2.0753
  68   0.0000       0.085842         2.3359
  69   0.0000       0.094073         2.5599
  70   0.0000       0.098557         2.6819
  71   0.0000       0.108125         2.9422

MULLIKEN ATOMIC CHARGES
-----------------------
   0 C :   -0.376723
   1 N :   -0.473394
   2 C :   -0.553973
   3 C :   -0.446935
   4 C :    1.486503
   5 C :   -0.891528
   6 C :   -0.294661
   7 C :   -0.603743
   8 C :    1.139441
   9 O :   -1.253423
  10 C :   -0.551299
  11 N :   -0.312511
  12 O :   -0.704589
  13 C :    1.845430
  14 C :   -0.990738
  15 C :   -0.649240
  16 C :   -0.067510
  17 C :   -0.914556
  18 C :   -0.649695
  19 H :    0.617011
  20 H :   -0.096881
  21 H :    0.560485
  22 H :    0.288140
  23 H :   -0.012438
  24 H :    0.079374
  25 H :    0.461095
  26 H :    0.394324
  27 H :    0.587857
  28 H :   -0.005876
  29 H :    0.459622
  30 H :   -0.286880
  31 H :    1.217311
Sum of atomic charges:   -1.0000000

LOEWDIN ATOMIC CHARGES
----------------------
   0 C :    0.032657
   1 N :    0.321616
   2 C :    0.034158
   3 C :    0.200107
   4 C :   -0.206913
   5 C :    0.207292
   6 C :    0.384866
   7 C :    0.135399
   8 C :   -0.606993
   9 O :    0.435971
  10 C :   -0.072249
  11 N :   -0.199318
  12 O :    0.070713
  13 C :   -0.116073
  14 C :    0.201570
  15 C :    0.192814
  16 C :    0.180768
  17 C :    0.190369
  18 C :    0.202137
  19 H :   -0.180300
  20 H :   -0.212932
  21 H :   -0.184965
  22 H :   -0.189953
  23 H :   -0.238562
  24 H :   -0.198242
  25 H :   -0.189420
  26 H :   -0.189030
  27 H :   -0.188517
  28 H :   -0.193658
  29 H :   -0.236763
  30 H :   -0.197076
  31 H :   -0.189474

  Mayer bond orders larger than 0.100000
B(  0-C ,  1-N ) :   1.5731 B(  0-C ,  2-C ) :   0.3085 B(  0-C ,  3-C ) :  -0.4522
B(  0-C ,  4-C ) :   0.2532 B(  0-C ,  5-C ) :   0.1827 B(  0-C ,  7-C ) :   0.1039
B(  0-C , 10-C ) :   0.1686 B(  0-C , 30-H ) :  -0.5323 B(  0-C , 31-H ) :  -0.4852
B(  1-N ,  2-C ) :   1.5322 B(  1-N ,  3-C ) :  -0.3190 B(  1-N ,  5-C ) :  -0.2719
B(  1-N , 30-H ) :   0.1806 B(  1-N , 31-H ) :  -0.1567 B(  2-C ,  3-C ) :   0.4384
B(  2-C ,  4-C ) :   0.1013 B(  2-C ,  5-C ) :  -0.4266 B(  2-C , 19-H ) :   0.3804
B(  2-C , 20-H ) :  -0.2800 B(  2-C , 30-H ) :   0.1830 B(  3-C ,  4-C ) :   0.9546
B(  3-C ,  5-C ) :   0.1987 B(  3-C , 10-C ) :   0.1906 B(  3-C , 20-H ) :   1.6137
B(  4-C ,  5-C ) :   0.7999 B(  4-C , 10-C ) :   0.3076 B(  4-C , 11-N ) :  -0.2307
B(  4-C , 20-H ) :  -0.1330 B(  4-C , 30-H ) :  -0.3189 B(  5-C , 30-H ) :   2.4016
B(  5-C , 31-H ) :  -0.3784 B(  6-C ,  7-C ) :   1.0779 B(  6-C ,  8-C ) :   0.1812
B(  6-C ,  9-O ) :   0.1065 B(  6-C , 21-H ) :   0.7107 B(  6-C , 22-H ) :   0.9634
B(  7-C ,  8-C ) :   0.7143 B(  7-C ,  9-O ) :  -0.1107 B(  7-C , 21-H ) :  -0.2218
B(  7-C , 23-H ) :   1.6671 B(  7-C , 24-H ) :  -0.1360 B(  8-C ,  9-O ) :   0.7182
B(  8-C , 13-C ) :   0.6377 B(  8-C , 16-C ) :   0.1236 B(  8-C , 18-C ) :   0.1741
B(  8-C , 23-H ) :  -0.1627 B(  8-C , 24-H ) :  -0.1006 B(  8-C , 28-H ) :  -0.1496
B( 10-C , 11-N ) :   1.1495 B( 10-C , 29-H ) :   0.6567 B( 11-N , 12-O ) :   1.0875
B( 11-N , 20-H ) :   0.1059 B( 13-C , 14-C ) :   0.2385 B( 13-C , 15-C ) :   0.1543
B( 13-C , 18-C ) :   0.4084 B( 13-C , 24-H ) :  -0.2632 B( 13-C , 28-H ) :  -0.3436
B( 14-C , 15-C ) :   1.2640 B( 14-C , 16-C ) :  -0.2582 B( 14-C , 17-C ) :   0.1524
B( 14-C , 18-C ) :  -0.3279 B( 14-C , 24-H ) :   0.1774 B( 14-C , 26-H ) :   0.2144
B( 14-C , 27-H ) :  -0.1875 B( 14-C , 28-H ) :   1.7194 B( 15-C , 16-C ) :   1.0750
B( 15-C , 17-C ) :   0.2501 B( 15-C , 26-H ) :  -0.2073 B( 15-C , 27-H ) :   0.5673
B( 16-C , 17-C ) :   1.1243 B( 16-C , 18-C ) :  -0.2115 B( 16-C , 26-H ) :   0.9001
B( 17-C , 18-C ) :   1.1939 B( 17-C , 24-H ) :  -0.1168 B( 17-C , 25-H ) :   0.7565
B( 17-C , 26-H ) :  -0.2005 B( 18-C , 24-H ) :   1.6014 B( 18-C , 28-H ) :   0.1861
B( 24-H , 28-H ) :   0.1040 B( 30-H , 31-H ) :  -0.3145

MP2 TOTAL ENERGY:     -837.718683972 Eh
FINAL SINGLE POINT ENERGY      -837.718683971589

DIPOLE MOMENT
-------------
                                X             Y             Z
Electronic contribution:      5.40660      -0.03565       2.31124
Nuclear contribution   :    -11.99904       1.01466      -3.40918
                        -----------------------------------------
Total Dipole Moment    :     -6.59244       0.97900      -1.09794
                        -----------------------------------------
Magnitude (a.u.)       :      6.75457
Magnitude (Debye)      :     17.16875

Rotational constants in cm-1:     0.031558     0.004153     0.003902
Rotational constants in MHz :   946.082438   124.510870   116.964871

                             ****ORCA TERMINATED NORMALLY****
TOTAL RUN TIME: 0 days 0 hours 29 minutes 17 seconds 275 msec
