                         Program Version 4.2.1 -  RELEASE  -
|  1> %pal
|  2>  nprocs 32
|  3> end
|  4> !RI-MP2 aug-cc-pVTZ aug-cc-pVTZ/C TightSCF
|  5> %maxcore 4500
|  6> *xyzfile 0 1  10_53TS.xyz
|  7>
|  8>
|  9>                          ****END OF INPUT****

CARTESIAN COORDINATES (ANGSTROEM)
---------------------------------
  C      0.258597    1.184225    1.312044
  N     -0.379053   -0.068631    0.945732
  C      0.257835   -1.306550    1.349720
  C      1.255583   -1.871292    0.336684
  C      2.523086   -1.070766    0.241916
  C      3.002194    1.006159   -0.289139
  C      1.651050    1.384562   -0.864168
  C      0.702244    2.049792    0.131694
  C      3.405490   -1.107319   -0.868659
  C      3.928181    0.155031   -0.955548
  H      3.411400    1.833425    0.306221
  H      2.962119   -0.797317    1.193054
  C     -1.623129   -0.083864    0.336514
  C     -2.144952   -1.258642   -0.232355
  C     -3.398269   -1.271721   -0.821765
  C     -4.175979   -0.124329   -0.881034
  C     -3.667862    1.043981   -0.331756
  C     -2.418371    1.072370    0.265245
  H     -0.401709    1.774976    1.959577
  H      1.128989    0.931860    1.916647
  H      0.775808   -1.129584    2.297778
  H     -0.515162   -2.046536    1.562108
  H      0.776791   -1.947917   -0.642620
  H      1.515083   -2.894249    0.646432
  H      1.834626    2.121460   -1.658094
  H      1.170299    0.532729   -1.346220
  H      1.180316    2.945340    0.545297
  H     -0.173951    2.398918   -0.418078
  H      3.556732   -1.960288   -1.524724
  H      4.901078    0.457344   -1.333427
  H     -1.563401   -2.169474   -0.232527
  H     -3.764899   -2.197441   -1.250346
  H     -5.152205   -0.139153   -1.348183
  H     -4.253946    1.955460   -0.360938
  H     -2.068784    2.001048    0.691556

 Total Charge           Charge          ....    0
 Multiplicity           Mult            ....    1
 Number of Electrons    NEL             ....  116
 Basis Dimension        Dim             .... 1173

ORBITAL ENERGIES
----------------

  NO   OCC          E(Eh)            E(eV)
   0   2.0000     -15.560849      -423.4322
   1   2.0000     -11.275298      -306.8165
   2   2.0000     -11.261493      -306.4408
   3   2.0000     -11.255789      -306.2856
   4   2.0000     -11.249181      -306.1058
   5   2.0000     -11.247126      -306.0498
   6   2.0000     -11.228631      -305.5466
   7   2.0000     -11.228487      -305.5427
   8   2.0000     -11.226126      -305.4784
   9   2.0000     -11.223481      -305.4064
  10   2.0000     -11.222715      -305.3856
  11   2.0000     -11.221166      -305.3434
  12   2.0000     -11.217940      -305.2557
  13   2.0000     -11.216240      -305.2094
  14   2.0000     -11.215506      -305.1894
  15   2.0000     -11.211236      -305.0732
  16   2.0000      -1.258987       -34.2588
  17   2.0000      -1.138277       -30.9741
  18   2.0000      -1.128093       -30.6970
  19   2.0000      -1.073405       -29.2088
  20   2.0000      -1.034387       -28.1471
  21   2.0000      -1.009604       -27.4727
  22   2.0000      -0.989394       -26.9228
  23   2.0000      -0.969887       -26.3920
  24   2.0000      -0.890533       -24.2326
  25   2.0000      -0.868233       -23.6258
  26   2.0000      -0.830176       -22.5902
  27   2.0000      -0.817555       -22.2468
  28   2.0000      -0.786146       -21.3921
  29   2.0000      -0.767792       -20.8927
  30   2.0000      -0.718882       -19.5618
  31   2.0000      -0.701723       -19.0949
  32   2.0000      -0.669199       -18.2098
  33   2.0000      -0.657345       -17.8873
  34   2.0000      -0.648454       -17.6453
  35   2.0000      -0.634911       -17.2768
  36   2.0000      -0.612904       -16.6780
  37   2.0000      -0.605815       -16.4851
  38   2.0000      -0.596726       -16.2377
  39   2.0000      -0.592843       -16.1321
  40   2.0000      -0.575549       -15.6615
  41   2.0000      -0.571934       -15.5631
  42   2.0000      -0.547301       -14.8928
  43   2.0000      -0.543449       -14.7880
  44   2.0000      -0.536888       -14.6095
  45   2.0000      -0.516443       -14.0531
  46   2.0000      -0.506463       -13.7816
  47   2.0000      -0.502884       -13.6842
  48   2.0000      -0.495941       -13.4952
  49   2.0000      -0.485787       -13.2189
  50   2.0000      -0.480097       -13.0641
  51   2.0000      -0.471736       -12.8366
  52   2.0000      -0.467939       -12.7333
  53   2.0000      -0.400636       -10.9018
  54   2.0000      -0.339738        -9.2448
  55   2.0000      -0.332778        -9.0553
  56   2.0000      -0.299307        -8.1446
  57   2.0000      -0.276502        -7.5240
  58   0.0000       0.026399         0.7184
  59   0.0000       0.029074         0.7911
  60   0.0000       0.030945         0.8421
  61   0.0000       0.031752         0.8640
  62   0.0000       0.039844         1.0842

MULLIKEN ATOMIC CHARGES
-----------------------
   0 C :   -0.549381
   1 N :    0.117214
   2 C :   -0.761844
   3 C :   -0.266123
   4 C :    0.526511
   5 C :   -0.108149
   6 C :   -0.407889
   7 C :   -0.459291
   8 C :   -1.162739
   9 C :   -0.923601
  10 H :    0.369272
  11 H :    0.391808
  12 C :    1.338729
  13 C :   -0.417616
  14 C :   -0.929410
  15 C :   -0.406737
  16 C :   -0.948179
  17 C :   -0.266664
  18 H :    0.141112
  19 H :    0.153823
  20 H :    0.230004
  21 H :    0.253255
  22 H :    0.129762
  23 H :    0.371091
  24 H :    0.365839
  25 H :    0.156380
  26 H :    0.257928
  27 H :    0.251505
  28 H :    0.463248
  29 H :    0.460246
  30 H :    0.127964
  31 H :    0.378091
  32 H :    0.613429
  33 H :    0.347411
  34 H :    0.163003
Sum of atomic charges:   -0.0000000

LOEWDIN ATOMIC CHARGES
----------------------
   0 C :    0.197779
   1 N :    0.300643
   2 C :    0.191764
   3 C :    0.300449
   4 C :    0.182592
   5 C :    0.196185
   6 C :    0.265677
   7 C :    0.302539
   8 C :    0.189535
   9 C :    0.187300
  10 H :   -0.150783
  11 H :   -0.181776
  12 C :   -0.197331
  13 C :    0.224826
  14 C :    0.188509
  15 C :    0.183383
  16 C :    0.190352
  17 C :    0.223638
  18 H :   -0.139759
  19 H :   -0.157864
  20 H :   -0.139114
  21 H :   -0.159268
  22 H :   -0.152072
  23 H :   -0.132769
  24 H :   -0.139355
  25 H :   -0.160110
  26 H :   -0.137121
  27 H :   -0.161667
  28 H :   -0.167140
  29 H :   -0.176187
  30 H :   -0.207932
  31 H :   -0.179235
  32 H :   -0.194219
  33 H :   -0.178668
  34 H :   -0.212804

  Mayer bond orders larger than 0.100000
B(  0-C ,  1-N ) :   1.0655 B(  0-C ,  2-C ) :  -0.1624 B(  0-C ,  6-C ) :   0.1102
B(  0-C ,  7-C ) :   0.7978 B(  0-C , 17-C ) :  -0.1080 B(  0-C , 18-H ) :   1.1119
B(  0-C , 19-H ) :   1.1340 B(  1-N ,  2-C ) :   1.0768 B(  1-N , 12-C ) :   0.5520
B(  1-N , 13-C ) :  -0.4667 B(  1-N , 17-C ) :  -0.4013 B(  1-N , 19-H ) :  -0.1206
B(  1-N , 30-H ) :  -0.1131 B(  2-C ,  3-C ) :   0.8628 B(  2-C , 12-C ) :  -0.3208
B(  2-C , 17-C ) :   0.1003 B(  2-C , 20-H ) :   1.0393 B(  2-C , 21-H ) :   1.1156
B(  3-C ,  4-C ) :   0.7121 B(  3-C , 22-H ) :   1.1265 B(  3-C , 23-H ) :   0.8483
B(  4-C ,  5-C ) :   0.5292 B(  4-C ,  8-C ) :   0.4312 B(  4-C ,  9-C ) :  -0.1442
B(  4-C , 11-H ) :   0.9305 B(  5-C ,  6-C ) :   0.7805 B(  5-C ,  8-C ) :   0.1348
B(  5-C ,  9-C ) :   1.1187 B(  5-C , 10-H ) :   0.8592 B(  5-C , 25-H ) :   0.1119
B(  6-C ,  7-C ) :   0.8513 B(  6-C ,  8-C ) :   0.1583 B(  6-C ,  9-C ) :   0.1714
B(  6-C , 24-H ) :   0.9095 B(  6-C , 25-H ) :   1.0579 B(  7-C , 26-H ) :   0.9416
B(  7-C , 27-H ) :   1.0437 B(  8-C ,  9-C ) :   1.3442 B(  8-C , 28-H ) :   0.8333
B(  9-C , 29-H ) :   0.8343 B( 12-C , 13-C ) :   0.7822 B( 12-C , 15-C ) :  -0.1442
B( 12-C , 17-C ) :   0.9194 B( 12-C , 30-H ) :  -0.1959 B( 12-C , 31-H ) :   0.1046
B( 12-C , 33-H ) :   0.1007 B( 12-C , 34-H ) :  -0.3329 B( 13-C , 14-C ) :   1.2121
B( 13-C , 15-C ) :   0.1482 B( 13-C , 17-C ) :  -0.3793 B( 13-C , 30-H ) :   1.4260
B( 14-C , 15-C ) :   1.1353 B( 14-C , 16-C ) :   0.1563 B( 14-C , 31-H ) :   0.8723
B( 14-C , 32-H ) :  -0.1560 B( 15-C , 16-C ) :   1.1153 B( 15-C , 17-C ) :   0.1050
B( 15-C , 32-H ) :   0.5410 B( 16-C , 17-C ) :   0.9768 B( 16-C , 32-H ) :  -0.1179
B( 16-C , 33-H ) :   0.9067 B( 17-C , 32-H ) :   0.1035 B( 17-C , 34-H ) :   1.3949

MP2 TOTAL ENERGY:     -636.328834349 Eh
FINAL SINGLE POINT ENERGY      -636.328834348801

DIPOLE MOMENT
-------------
                                X             Y             Z
Electronic contribution:     -4.99738      -1.69201      -0.71170
Nuclear contribution   :      5.42993       1.70568       1.03050
                        -----------------------------------------
Total Dipole Moment    :      0.43255       0.01368       0.31881
                        -----------------------------------------
Magnitude (a.u.)       :      0.53752
Magnitude (Debye)      :      1.36626

Rotational constants in cm-1:     0.036151     0.011147     0.009923
Rotational constants in MHz :  1083.769216   334.166681   297.498062

                             ****ORCA TERMINATED NORMALLY****
TOTAL RUN TIME: 0 days 0 hours 33 minutes 10 seconds 202 msec
