                         Program Version 4.2.1 -  RELEASE  -
|  1> %pal
|  2>  nprocs 32
|  3> end
|  4> !RI-MP2 aug-cc-pVTZ aug-cc-pVTZ/C TightSCF
|  5> %maxcore 4500
|  6> *xyzfile 0 2  04_89TS.xyz
|  7>
|  8>
|  9>                          ****END OF INPUT****

CARTESIAN COORDINATES (ANGSTROEM)
---------------------------------
  C      4.294454   -1.248583   -0.692532
  C      3.513111   -0.094574   -0.080602
  C      3.636068    1.250655   -0.755440
  H      3.625241   -0.050505    1.001904
  H      2.254739   -0.451183   -0.221416
  C      2.910341    2.357387    0.003757
  H      3.234946    1.185596   -1.773283
  H      4.695380    1.522927   -0.864836
  C      2.963667    3.701215   -0.718437
  H      3.352756    2.463797    1.000965
  H      1.867778    2.068129    0.167527
  N      2.299113    4.811323   -0.045828
  H      2.517768    3.598011   -1.712703
  H      4.006929    3.987470   -0.884718
  C      5.773019   -1.035995   -0.388924
  N      4.019703   -1.392847   -2.108712
  H      3.993793   -2.167635   -0.182110
  H      4.445027   -0.633535   -2.629198
  H      1.314268    4.619009    0.095470
  H      2.708817    4.988423    0.863866
  O      6.590218   -0.630251   -1.170567
  O      6.073763   -1.322759    0.892032
  H      4.426774   -2.248681   -2.466622
  H      7.011731   -1.123982    1.023366
  N     -2.758569   -1.194420   -0.024426
  C     -3.773048   -0.283396    0.107150
  C     -4.460725   -0.324272   -1.095847
  N     -3.893520   -1.241464   -1.954272
  C     -2.893950   -1.739991   -1.281368
  C     -5.557183    0.543647   -1.212452
  N     -5.863878    1.334583   -0.177367
  C     -5.116930    1.273642    0.923668
  N     -4.059535    0.502623    1.154476
  N     -6.306607    0.605554   -2.326834
  H     -6.090472    0.018165   -3.113950
  H     -7.083394    1.243297   -2.360039
  H     -5.410450    1.938249    1.729197
  H     -2.204860   -2.492165   -1.629394
  C     -1.813000   -1.564830    1.027413
  C     -1.199048   -0.332462    1.703758
  C      0.216102   -0.810545    1.966400
  C      0.516383   -1.642981    0.718857
  O     -0.759015   -2.305488    0.472988
  H     -2.342633   -2.173713    1.765952
  C      0.974418   -0.863349   -0.474658
  H      1.216905   -2.450580    0.933303
  H      0.438012    0.061560   -0.673407
  H      1.114572   -1.468911   -1.365896
  O     -1.831553    0.067126    2.885227
  H     -1.162332    0.492275    0.982895
  H     -2.711101    0.397596    2.621456
  O      1.146563    0.229815    2.147329
  H      0.196883   -1.468615    2.843310
  H      0.864078    0.746604    2.908584

 Total Charge           Charge          ....    0
 Multiplicity           Mult            ....    2
 Number of Electrons    NEL             ....  211
 Basis Dimension        Dim             .... 1886

ORBITAL ENERGIES
----------------
                 SPIN UP ORBITALS
  NO   OCC          E(Eh)            E(eV)
   0   1.0000     -20.618554      -561.0594
   1   1.0000     -20.584697      -560.1381
   2   1.0000     -20.576684      -559.9200
   3   1.0000     -20.560580      -559.4818
   4   1.0000     -20.554488      -559.3160
   5   1.0000     -15.630561      -425.3292
   6   1.0000     -15.591731      -424.2726
   7   1.0000     -15.570562      -423.6965
   8   1.0000     -15.566050      -423.5737
   9   1.0000     -15.557694      -423.3464
  10   1.0000     -15.551663      -423.1823
  11   1.0000     -15.535391      -422.7395
  12   1.0000     -11.384857      -309.7977
  13   1.0000     -11.345234      -308.7195
  14   1.0000     -11.344346      -308.6953
  15   1.0000     -11.321399      -308.0709
  16   1.0000     -11.320409      -308.0440
  17   1.0000     -11.318438      -307.9904
  18   1.0000     -11.301031      -307.5167
  19   1.0000     -11.296154      -307.3840
  20   1.0000     -11.293411      -307.3093
  21   1.0000     -11.281515      -306.9856
  22   1.0000     -11.255124      -306.2675
  23   1.0000     -11.242973      -305.9369
  24   1.0000     -11.240886      -305.8801
  25   1.0000     -11.235228      -305.7261
  26   1.0000     -11.223104      -305.3962
  27   1.0000     -11.214789      -305.1699
  28   1.0000      -1.474178       -40.1144
  29   1.0000      -1.427916       -38.8556
  30   1.0000      -1.388088       -37.7718
  31   1.0000      -1.373391       -37.3719
  32   1.0000      -1.370024       -37.2803
  33   1.0000      -1.367018       -37.1984
  34   1.0000      -1.312725       -35.7211
  35   1.0000      -1.259490       -34.2725
  36   1.0000      -1.206893       -32.8412
  37   1.0000      -1.202045       -32.7093
  38   1.0000      -1.175600       -31.9897
  39   1.0000      -1.166171       -31.7331
  40   1.0000      -1.084475       -29.5101
  41   1.0000      -1.070865       -29.1397
  42   1.0000      -1.044589       -28.4247
  43   1.0000      -1.036186       -28.1961
  44   1.0000      -1.008527       -27.4434
  45   1.0000      -0.955192       -25.9921
  46   1.0000      -0.931509       -25.3476
  47   1.0000      -0.902813       -24.5668
  48   1.0000      -0.887326       -24.1454
  49   1.0000      -0.860512       -23.4157
  50   1.0000      -0.854034       -23.2394
  51   1.0000      -0.820991       -22.3403
  52   1.0000      -0.808437       -21.9987
  53   1.0000      -0.795637       -21.6504
  54   1.0000      -0.783671       -21.3248
  55   1.0000      -0.771554       -20.9951
  56   1.0000      -0.754189       -20.5225
  57   1.0000      -0.741053       -20.1651
  58   1.0000      -0.715947       -19.4819
  59   1.0000      -0.714164       -19.4334
  60   1.0000      -0.710506       -19.3338
  61   1.0000      -0.698423       -19.0051
  62   1.0000      -0.688672       -18.7397
  63   1.0000      -0.681940       -18.5565
  64   1.0000      -0.676585       -18.4108
  65   1.0000      -0.672703       -18.3052
  66   1.0000      -0.662790       -18.0354
  67   1.0000      -0.653327       -17.7779
  68   1.0000      -0.651413       -17.7258
  69   1.0000      -0.638313       -17.3694
  70   1.0000      -0.629618       -17.1328
  71   1.0000      -0.623380       -16.9630
  72   1.0000      -0.617486       -16.8026
  73   1.0000      -0.609063       -16.5734
  74   1.0000      -0.607987       -16.5442
  75   1.0000      -0.602568       -16.3967
  76   1.0000      -0.594928       -16.1888
  77   1.0000      -0.586232       -15.9522
  78   1.0000      -0.578999       -15.7554
  79   1.0000      -0.570278       -15.5181
  80   1.0000      -0.568019       -15.4566
  81   1.0000      -0.565014       -15.3748
  82   1.0000      -0.556461       -15.1421
  83   1.0000      -0.540891       -14.7184
  84   1.0000      -0.536662       -14.6033
  85   1.0000      -0.530240       -14.4286
  86   1.0000      -0.511682       -13.9236
  87   1.0000      -0.510985       -13.9046
  88   1.0000      -0.504745       -13.7348
  89   1.0000      -0.495409       -13.4808
  90   1.0000      -0.490123       -13.3369
  91   1.0000      -0.488811       -13.3012
  92   1.0000      -0.477447       -12.9920
  93   1.0000      -0.471861       -12.8400
  94   1.0000      -0.468409       -12.7461
  95   1.0000      -0.463446       -12.6110
  96   1.0000      -0.457083       -12.4379
  97   1.0000      -0.454669       -12.3722
  98   1.0000      -0.445665       -12.1272
  99   1.0000      -0.420979       -11.4554
 100   1.0000      -0.415579       -11.3085
 101   1.0000      -0.411722       -11.2035
 102   1.0000      -0.380918       -10.3653
 103   1.0000      -0.377910       -10.2835
 104   1.0000      -0.317903        -8.6506
 105   1.0000      -0.316582        -8.6146
 106   0.0000       0.021894         0.5958
 107   0.0000       0.026016         0.7079
 108   0.0000       0.027448         0.7469
 109   0.0000       0.031411         0.8547
 110   0.0000       0.033419         0.9094

                 SPIN DOWN ORBITALS
  NO   OCC          E(Eh)            E(eV)
   0   1.0000     -20.618441      -561.0563
   1   1.0000     -20.582420      -560.0761
   2   1.0000     -20.576727      -559.9212
   3   1.0000     -20.560565      -559.4814
   4   1.0000     -20.554257      -559.3098
   5   1.0000     -15.630565      -425.3293
   6   1.0000     -15.591732      -424.2726
   7   1.0000     -15.570559      -423.6964
   8   1.0000     -15.566060      -423.5740
   9   1.0000     -15.557692      -423.3463
  10   1.0000     -15.551527      -423.1786
  11   1.0000     -15.535400      -422.7397
  12   1.0000     -11.383852      -309.7704
  13   1.0000     -11.345236      -308.7196
  14   1.0000     -11.344411      -308.6971
  15   1.0000     -11.321401      -308.0710
  16   1.0000     -11.320414      -308.0441
  17   1.0000     -11.318427      -307.9901
  18   1.0000     -11.302594      -307.5592
  19   1.0000     -11.296046      -307.3810
  20   1.0000     -11.293402      -307.3091
  21   1.0000     -11.283032      -307.0269
  22   1.0000     -11.255121      -306.2674
  23   1.0000     -11.243019      -305.9381
  24   1.0000     -11.224628      -305.4377
  25   1.0000     -11.222675      -305.3845
  26   1.0000     -11.215889      -305.1999
  27   1.0000     -11.214654      -305.1662
  28   1.0000      -1.473597       -40.0986
  29   1.0000      -1.424171       -38.7537
  30   1.0000      -1.387742       -37.7624
  31   1.0000      -1.372300       -37.3422
  32   1.0000      -1.369451       -37.2647
  33   1.0000      -1.366953       -37.1967
  34   1.0000      -1.312637       -35.7187
  35   1.0000      -1.259489       -34.2724
  36   1.0000      -1.204401       -32.7734
  37   1.0000      -1.201818       -32.7031
  38   1.0000      -1.175607       -31.9899
  39   1.0000      -1.166097       -31.7311
  40   1.0000      -1.069157       -29.0932
  41   1.0000      -1.063182       -28.9306
  42   1.0000      -1.044229       -28.4149
  43   1.0000      -1.027765       -27.9669
  44   1.0000      -1.001334       -27.2477
  45   1.0000      -0.933445       -25.4003
  46   1.0000      -0.921292       -25.0696
  47   1.0000      -0.902396       -24.5554
  48   1.0000      -0.887076       -24.1386
  49   1.0000      -0.854617       -23.2553
  50   1.0000      -0.843763       -22.9600
  51   1.0000      -0.815716       -22.1968
  52   1.0000      -0.807733       -21.9795
  53   1.0000      -0.791229       -21.5304
  54   1.0000      -0.771289       -20.9878
  55   1.0000      -0.768419       -20.9098
  56   1.0000      -0.752739       -20.4831
  57   1.0000      -0.740638       -20.1538
  58   1.0000      -0.714112       -19.4320
  59   1.0000      -0.713381       -19.4121
  60   1.0000      -0.707213       -19.2442
  61   1.0000      -0.697643       -18.9838
  62   1.0000      -0.688089       -18.7239
  63   1.0000      -0.679669       -18.4947
  64   1.0000      -0.674683       -18.3591
  65   1.0000      -0.670227       -18.2378
  66   1.0000      -0.661834       -18.0094
  67   1.0000      -0.650039       -17.6885
  68   1.0000      -0.640467       -17.4280
  69   1.0000      -0.635597       -17.2955
  70   1.0000      -0.627679       -17.0800
  71   1.0000      -0.619228       -16.8500
  72   1.0000      -0.614592       -16.7239
  73   1.0000      -0.606794       -16.5117
  74   1.0000      -0.605076       -16.4650
  75   1.0000      -0.600371       -16.3369
  76   1.0000      -0.591793       -16.1035
  77   1.0000      -0.582148       -15.8411
  78   1.0000      -0.576801       -15.6956
  79   1.0000      -0.567491       -15.4422
  80   1.0000      -0.563782       -15.3413
  81   1.0000      -0.559523       -15.2254
  82   1.0000      -0.541839       -14.7442
  83   1.0000      -0.535823       -14.5805
  84   1.0000      -0.530585       -14.4379
  85   1.0000      -0.524355       -14.2684
  86   1.0000      -0.511264       -13.9122
  87   1.0000      -0.504208       -13.7202
  88   1.0000      -0.494632       -13.4596
  89   1.0000      -0.488987       -13.3060
  90   1.0000      -0.486854       -13.2480
  91   1.0000      -0.483859       -13.1665
  92   1.0000      -0.475343       -12.9347
  93   1.0000      -0.466935       -12.7059
  94   1.0000      -0.465592       -12.6694
  95   1.0000      -0.459369       -12.5001
  96   1.0000      -0.453888       -12.3509
  97   1.0000      -0.445380       -12.1194
  98   1.0000      -0.444047       -12.0831
  99   1.0000      -0.420911       -11.4536
 100   1.0000      -0.411839       -11.2067
 101   1.0000      -0.408923       -11.1274
 102   1.0000      -0.380460       -10.3528
 103   1.0000      -0.377570       -10.2742
 104   1.0000      -0.316654        -8.6166
 105   0.0000       0.021911         0.5962
 106   0.0000       0.026023         0.7081
 107   0.0000       0.027402         0.7457
 108   0.0000       0.031405         0.8546
 109   0.0000       0.033408         0.9091

MULLIKEN ATOMIC CHARGES AND SPIN POPULATIONS
--------------------------------------------
   0 C :    0.944110   -0.059972
   1 C :   -0.473855    0.925791
   2 C :   -0.329682   -0.098336
   3 H :    0.250230   -0.026074
   4 H :    0.810941   -0.812068
   5 C :   -0.674297    0.018431
   6 H :    0.251538    0.026672
   7 H :    0.357896    0.034907
   8 C :   -0.105176   -0.003481
   9 H :    0.076306    0.000391
  10 H :    0.333878    0.001221
  11 N :   -0.775656   -0.000101
  12 H :    0.236336   -0.000169
  13 H :    0.253390   -0.000120
  14 C :    0.529525    0.027323
  15 N :   -0.788714    0.010742
  16 H :    0.452683    0.011577
  17 H :    0.112768   -0.000451
  18 H :    0.090709   -0.000004
  19 H :    0.089968    0.000028
  20 O :   -1.015494    0.004775
  21 O :   -0.537705    0.002429
  22 H :   -0.011171   -0.001736
  23 H :    0.233589   -0.000507
  24 N :    0.620571    0.000966
  25 C :   -0.283124    0.001734
  26 C :    2.120041   -0.001816
  27 N :   -1.114792    0.000192
  28 C :   -0.462553   -0.000834
  29 C :   -0.218729   -0.000078
  30 N :   -0.386250    0.000061
  31 C :   -0.799006   -0.000124
  32 N :   -0.720972    0.000264
  33 N :   -0.523723    0.000008
  34 H :    0.104434   -0.000014
  35 H :    0.073111    0.000005
  36 H :    0.618280    0.000014
  37 H :    0.702471   -0.000490
  38 C :   -0.128316   -0.007445
  39 C :    1.142145   -0.009835
  40 C :    0.007814    0.029189
  41 C :    0.753664   -0.085787
  42 O :   -1.052859    0.036660
  43 H :    0.301774    0.002505
  44 C :   -0.896702    0.977014
  45 H :    0.274809    0.017086
  46 H :    0.168496    0.012377
  47 H :    0.323995   -0.036237
  48 O :   -1.106889    0.000311
  49 H :    0.266506   -0.000201
  50 H :    0.229077   -0.000014
  51 O :   -0.589856    0.004507
  52 H :    0.227104   -0.001648
  53 H :    0.037361    0.000358
Sum of atomic charges         :   -0.0000000

LOEWDIN ATOMIC CHARGES AND SPIN POPULATIONS
-------------------------------------------
   0 C :   -0.149696    0.030003
   1 C :    0.257275    0.280939
   2 C :    0.279951    0.038007
   3 H :   -0.135664    0.037119
   4 H :   -0.369644    0.097737
   5 C :    0.280176   -0.000489
   6 H :   -0.139763    0.001564
   7 H :   -0.136616    0.013294
   8 C :    0.152009    0.000124
   9 H :   -0.137089   -0.000086
  10 H :   -0.158354   -0.000679
  11 N :    0.835307   -0.000147
  12 H :   -0.148069   -0.000013
  13 H :   -0.147353    0.000350
  14 C :   -0.782339    0.014518
  15 N :    0.860249   -0.000935
  16 H :   -0.139264    0.001380
  17 H :   -0.326491   -0.000046
  18 H :   -0.327238   -0.000005
  19 H :   -0.326973   -0.000009
  20 O :    0.466080    0.004928
  21 O :    0.845249    0.003436
  22 H :   -0.304314   -0.000424
  23 H :   -0.464620    0.000142
  24 N :    0.289981    0.000508
  25 C :   -0.420978    0.000055
  26 C :   -0.303145    0.000043
  27 N :    0.401247   -0.000116
  28 C :   -0.031143    0.000861
  29 C :   -0.409521   -0.000009
  30 N :    0.397259    0.000025
  31 C :   -0.146165   -0.000041
  32 N :    0.430282    0.000036
  33 N :    0.875969   -0.000009
  34 H :   -0.282610   -0.000000
  35 H :   -0.283034   -0.000001
  36 H :   -0.193718   -0.000011
  37 H :   -0.165211    0.000240
  38 C :   -0.301057    0.001887
  39 C :   -0.258654    0.001005
  40 C :   -0.239842   -0.000744
  41 C :   -0.201165    0.040859
  42 O :    0.624186    0.031903
  43 H :   -0.116267    0.000682
  44 C :    0.578111    0.314112
  45 H :   -0.131441    0.000246
  46 H :   -0.153009    0.046562
  47 H :   -0.148325    0.041979
  48 O :    0.861325    0.000199
  49 H :   -0.134926    0.000499
  50 H :   -0.610516    0.000036
  51 O :    0.864551   -0.000976
  52 H :   -0.117099   -0.000408
  53 H :   -0.457897   -0.000129

  Mayer bond orders larger than 0.100000
B(  0-C ,  1-C ) :   1.0589 B(  0-C , 14-C ) :   0.4444 B(  0-C , 15-N ) :   0.1435
B(  0-C , 16-H ) :   0.8893 B(  0-C , 20-O ) :  -0.2441 B(  1-C ,  2-C ) :   0.8755
B(  1-C ,  3-H ) :   0.7574 B(  1-C ,  4-H ) :   0.2474 B(  1-C , 15-N ) :   0.2060
B(  2-C ,  5-C ) :   0.8869 B(  2-C ,  6-H ) :   0.9650 B(  2-C ,  7-H ) :   0.8954
B(  2-C ,  9-H ) :   0.1058 B(  4-H , 15-N ) :  -0.1187 B(  4-H , 46-H ) :  -0.1114
B(  4-H , 51-O ) :  -0.1626 B(  5-C ,  8-C ) :   0.8547 B(  5-C ,  9-H ) :   1.1892
B(  5-C , 10-H ) :   0.8654 B(  8-C , 11-N ) :   0.5086 B(  8-C , 12-H ) :   1.0219
B(  8-C , 13-H ) :   1.0082 B( 11-N , 18-H ) :   1.0137 B( 11-N , 19-H ) :   0.9951
B( 14-C , 15-N ) :   0.1829 B( 14-C , 16-H ) :  -0.2405 B( 14-C , 20-O ) :   1.1766
B( 14-C , 21-O ) :   0.8189 B( 15-N , 17-H ) :   0.9697 B( 15-N , 22-H ) :   1.0645
B( 21-O , 23-H ) :   0.9661 B( 24-N , 25-C ) :   0.8932 B( 24-N , 26-C ) :  -0.2012
B( 24-N , 27-N ) :  -0.1753 B( 24-N , 28-C ) :   1.0501 B( 24-N , 32-N ) :  -0.3265
B( 24-N , 38-C ) :   0.8440 B( 25-C , 26-C ) :   0.9765 B( 25-C , 27-N ) :   0.5549
B( 25-C , 28-C ) :  -0.5298 B( 25-C , 29-C ) :   1.4640 B( 25-C , 30-N ) :   0.1140
B( 25-C , 31-C ) :  -0.6721 B( 25-C , 32-N ) :   0.8203 B( 26-C , 27-N ) :  -0.1147
B( 26-C , 29-C ) :  -1.6201 B( 26-C , 30-N ) :   0.1264 B( 26-C , 32-N ) :  -0.6356
B( 26-C , 33-N ) :  -0.2961 B( 27-N , 28-C ) :   1.0985 B( 27-N , 37-H ) :  -0.1254
B( 28-C , 37-H ) :   0.3448 B( 29-C , 30-N ) :   0.1406 B( 29-C , 31-C ) :  -0.3107
B( 29-C , 32-N ) :   0.4241 B( 29-C , 33-N ) :   1.0990 B( 30-N , 31-C ) :   1.0320
B( 30-N , 33-N ) :  -0.2119 B( 31-C , 32-N ) :   1.7858 B( 31-C , 36-H ) :   0.4697
B( 32-N , 38-C ) :   0.2023 B( 32-N , 39-C ) :  -0.1618 B( 32-N , 48-O ) :  -0.1007
B( 32-N , 50-H ) :   0.1141 B( 33-N , 34-H ) :   1.1113 B( 33-N , 35-H ) :   1.1644
B( 38-C , 39-C ) :   0.9012 B( 38-C , 42-O ) :   0.8329 B( 38-C , 43-H ) :   0.9620
B( 38-C , 48-O ) :   0.2609 B( 39-C , 40-C ) :   0.9648 B( 39-C , 48-O ) :  -0.2247
B( 39-C , 49-H ) :   1.0363 B( 40-C , 41-C ) :   0.8477 B( 40-C , 42-O ) :   0.1482
B( 40-C , 44-C ) :   0.1384 B( 40-C , 48-O ) :   0.1204 B( 40-C , 51-O ) :   0.5242
B( 40-C , 52-H ) :   0.9710 B( 41-C , 42-O ) :   0.1640 B( 41-C , 44-C ) :   0.9244
B( 41-C , 45-H ) :   0.8978 B( 41-C , 51-O ) :   0.1563 B( 42-O , 44-C ) :   0.1677
B( 44-C , 46-H ) :   1.1063 B( 44-C , 47-H ) :   0.9717 B( 48-O , 50-H ) :   0.9139
B( 51-O , 53-H ) :   1.1768

MP2 TOTAL ENERGY:    -1382.254097472 Eh
FINAL SINGLE POINT ENERGY     -1382.254097471502

DIPOLE MOMENT
-------------
                                X             Y             Z
Electronic contribution:    -26.42303     -13.25679       2.35301
Nuclear contribution   :     26.35053      12.55436      -1.88883
                        -----------------------------------------
Total Dipole Moment    :     -0.07251      -0.70244       0.46418
                        -----------------------------------------
Magnitude (a.u.)       :      0.84507
Magnitude (Debye)      :      2.14799

Rotational constants in cm-1:     0.009275     0.002508     0.002373
Rotational constants in MHz :   278.043939    75.181902    71.152385

                             ****ORCA TERMINATED NORMALLY****
TOTAL RUN TIME: 0 days 3 hours 5 minutes 4 seconds 432 msec
