                         Program Version 4.2.1 -  RELEASE  -
|  1> %pal
|  2>  nprocs 32
|  3> end
|  4> !RI-MP2 aug-cc-pVTZ aug-cc-pVTZ/C TightSCF
|  5> %maxcore 4500
|  6> *xyzfile 0 1  02_17R.xyz
|  7>
|  8>
|  9>                          ****END OF INPUT****

CARTESIAN COORDINATES (ANGSTROEM)
---------------------------------
  C      2.587148   -0.526237   -0.320022
  C      1.300888   -1.250932   -0.062149
  C     -1.369120    1.611448    0.148653
  C      2.271065    0.873519   -0.871063
  H      3.161150   -0.419429    0.609141
  C      1.148851    1.604500   -0.112585
  H      3.187953    1.463953   -0.843049
  H      2.000554    0.766975   -1.924275
  C     -0.214836    1.451224   -0.792028
  H      1.092689    1.209971    0.910944
  C      0.732133   -1.483719    1.123520
  C     -0.723126   -1.700606    1.200389
  C     -2.542671    0.980720    0.102279
  C     -1.535789   -2.180273    0.266560
  C      1.415695   -1.315810    2.453643
  H      1.206654   -2.179101    3.090513
  H      1.035245   -0.434117    2.979773
  H      2.495528   -1.218105    2.367016
  H     -0.264116    2.224377   -1.565859
  H     -0.281223    0.501090   -1.316271
  C     -3.010718   -1.965100    0.324828
  H     -3.581137   -2.882599    0.184653
  H     -3.299343   -1.518312    1.277916
  C     -2.865330    0.066812   -1.042611
  O      3.396745   -1.165982   -1.289359
  O      1.387568    3.003073   -0.020537
  O     -2.727677    0.396357   -2.187071
  O     -3.431459   -1.144743   -0.785357
  C      3.945570   -2.385901   -0.845602
  H      3.164857   -3.107982   -0.581012
  H      4.540810   -2.786065   -1.664687
  H      4.594371   -2.233762    0.026947
  C      2.332773    3.362624    0.956044
  H      2.409162    4.448963    0.946645
  H      2.014559    3.034095    1.954565
  H      3.324068    2.940754    0.750778
  C     -3.656409    1.261643    1.075682
  H     -4.526313    1.671578    0.555416
  H     -3.332825    1.990792    1.818924
  H     -3.997028    0.368082    1.601912
  H     -1.151117   -2.624411   -0.646648
  H     -1.180882   -1.279354    2.094440
  H      0.704994   -1.396478   -0.957378
  H     -1.216772    2.325964    0.954959

 Total Charge           Charge          ....    0
 Multiplicity           Mult            ....    1
 Number of Electrons    NEL             ....  152
 Basis Dimension        Dim             .... 1472

ORBITAL ENERGIES
----------------

  NO   OCC          E(Eh)            E(eV)
   0   2.0000     -20.589359      -560.2649
   1   2.0000     -20.561127      -559.4967
   2   2.0000     -20.558427      -559.4232
   3   2.0000     -20.536759      -558.8336
   4   2.0000     -11.373131      -309.4786
   5   2.0000     -11.302377      -307.5533
   6   2.0000     -11.291902      -307.2683
   7   2.0000     -11.284809      -307.0753
   8   2.0000     -11.274414      -306.7924
   9   2.0000     -11.272205      -306.7323
  10   2.0000     -11.254249      -306.2437
  11   2.0000     -11.250688      -306.1468
  12   2.0000     -11.246017      -306.0197
  13   2.0000     -11.243604      -305.9540
  14   2.0000     -11.239271      -305.8361
  15   2.0000     -11.238338      -305.8107
  16   2.0000     -11.234977      -305.7193
  17   2.0000     -11.234415      -305.7040
  18   2.0000     -11.224051      -305.4220
  19   2.0000     -11.223464      -305.4060
  20   2.0000      -1.446973       -39.3741
  21   2.0000      -1.383577       -37.6490
  22   2.0000      -1.380035       -37.5526
  23   2.0000      -1.354607       -36.8607
  24   2.0000      -1.138992       -30.9936
  25   2.0000      -1.112696       -30.2780
  26   2.0000      -1.082970       -29.4691
  27   2.0000      -1.056421       -28.7467
  28   2.0000      -1.018686       -27.7199
  29   2.0000      -0.965528       -26.2734
  30   2.0000      -0.960115       -26.1261
  31   2.0000      -0.944160       -25.6919
  32   2.0000      -0.923548       -25.1310
  33   2.0000      -0.902468       -24.5574
  34   2.0000      -0.855237       -23.2722
  35   2.0000      -0.846773       -23.0419
  36   2.0000      -0.807356       -21.9693
  37   2.0000      -0.795831       -21.6557
  38   2.0000      -0.740522       -20.1506
  39   2.0000      -0.738342       -20.0913
  40   2.0000      -0.691765       -18.8239
  41   2.0000      -0.683091       -18.5879
  42   2.0000      -0.677719       -18.4417
  43   2.0000      -0.668804       -18.1991
  44   2.0000      -0.661140       -17.9905
  45   2.0000      -0.652159       -17.7462
  46   2.0000      -0.643767       -17.5178
  47   2.0000      -0.637213       -17.3395
  48   2.0000      -0.636319       -17.3151
  49   2.0000      -0.618100       -16.8194
  50   2.0000      -0.612985       -16.6802
  51   2.0000      -0.596531       -16.2324
  52   2.0000      -0.593272       -16.1438
  53   2.0000      -0.588872       -16.0240
  54   2.0000      -0.579822       -15.7778
  55   2.0000      -0.570854       -15.5337
  56   2.0000      -0.560637       -15.2557
  57   2.0000      -0.554660       -15.0931
  58   2.0000      -0.547595       -14.9008
  59   2.0000      -0.542172       -14.7533
  60   2.0000      -0.531389       -14.4598
  61   2.0000      -0.524540       -14.2735
  62   2.0000      -0.519138       -14.1265
  63   2.0000      -0.511885       -13.9291
  64   2.0000      -0.498648       -13.5689
  65   2.0000      -0.495487       -13.4829
  66   2.0000      -0.490181       -13.3385
  67   2.0000      -0.479340       -13.0435
  68   2.0000      -0.463055       -12.6004
  69   2.0000      -0.453663       -12.3448
  70   2.0000      -0.440180       -11.9779
  71   2.0000      -0.429937       -11.6992
  72   2.0000      -0.425881       -11.5888
  73   2.0000      -0.417295       -11.3552
  74   2.0000      -0.359795        -9.7905
  75   2.0000      -0.326644        -8.8884
  76   0.0000       0.017659         0.4805
  77   0.0000       0.026225         0.7136
  78   0.0000       0.027972         0.7612
  79   0.0000       0.033230         0.9042
  80   0.0000       0.037808         1.0288

MULLIKEN ATOMIC CHARGES
-----------------------
   0 C :    1.179091
   1 C :   -0.848057
   2 C :   -1.073812
   3 C :   -0.865145
   4 H :    0.456772
   5 C :    1.153265
   6 H :    0.279371
   7 H :   -0.054027
   8 C :   -0.235695
   9 H :    0.373637
  10 C :    1.133814
  11 C :   -0.113068
  12 C :    1.644426
  13 C :   -0.708966
  14 C :   -0.951486
  15 H :    0.218368
  16 H :    0.268796
  17 H :    0.328950
  18 H :    0.424462
  19 H :    0.083938
  20 C :   -0.205500
  21 H :    0.431042
  22 H :    0.263617
  23 C :    1.123270
  24 O :   -0.944103
  25 O :   -1.033748
  26 O :   -1.123239
  27 O :   -0.668319
  28 C :   -1.084034
  29 H :    0.394376
  30 H :    0.349154
  31 H :    0.321882
  32 C :   -1.107046
  33 H :    0.379082
  34 H :    0.327465
  35 H :    0.347805
  36 C :   -1.229517
  37 H :    0.283957
  38 H :    0.205045
  39 H :    0.319776
  40 H :    0.279527
  41 H :   -0.206421
  42 H :    0.125602
  43 H :   -0.244308
Sum of atomic charges:    0.0000000

LOEWDIN ATOMIC CHARGES
----------------------
   0 C :   -0.275409
   1 C :    0.224110
   2 C :    0.258501
   3 C :    0.333515
   4 H :   -0.162243
   5 C :   -0.256470
   6 H :   -0.157503
   7 H :   -0.137510
   8 C :    0.285059
   9 H :   -0.172437
  10 C :   -0.095114
  11 C :    0.205526
  12 C :   -0.109719
  13 C :    0.225701
  14 C :    0.584108
  15 H :   -0.158077
  16 H :   -0.157879
  17 H :   -0.185872
  18 H :   -0.126845
  19 H :   -0.200685
  20 C :    0.051969
  21 H :   -0.154334
  22 H :   -0.196009
  23 C :   -0.819579
  24 O :    0.581625
  25 O :    0.589225
  26 O :    0.474616
  27 O :    0.581226
  28 C :    0.328357
  29 H :   -0.178692
  30 H :   -0.182355
  31 H :   -0.171303
  32 C :    0.326097
  33 H :   -0.179630
  34 H :   -0.171871
  35 H :   -0.181774
  36 C :    0.576764
  37 H :   -0.155642
  38 H :   -0.171405
  39 H :   -0.194199
  40 H :   -0.165352
  41 H :   -0.169096
  42 H :   -0.178727
  43 H :   -0.160671

  Mayer bond orders larger than 0.100000
B(  0-C ,  1-C ) :   1.1628 B(  0-C ,  3-C ) :   0.7156 B(  0-C ,  4-H ) :   0.9998
B(  0-C , 10-C ) :  -0.1642 B(  0-C , 24-O ) :  -0.2810 B(  0-C , 28-C ) :  -0.2413
B(  1-C ,  3-C ) :   0.1955 B(  1-C , 10-C ) :   1.4108 B(  1-C , 13-C ) :  -0.1955
B(  1-C , 24-O ) :   0.3304 B(  1-C , 40-H ) :  -0.1117 B(  1-C , 41-H ) :   0.1086
B(  1-C , 42-H ) :   1.4452 B(  2-C ,  8-C ) :   1.0242 B(  2-C , 12-C ) :   1.6205
B(  2-C , 18-H ) :  -0.2092 B(  2-C , 19-H ) :   0.2578 B(  2-C , 23-C ) :   0.2656
B(  2-C , 26-O ) :   0.1558 B(  2-C , 36-C ) :   0.1739 B(  2-C , 43-H ) :   1.6914
B(  3-C ,  5-C ) :   0.8789 B(  3-C ,  6-H ) :   0.8872 B(  3-C ,  7-H ) :   1.2790
B(  3-C , 24-O ) :   0.2109 B(  3-C , 25-O ) :   0.3024 B(  4-H , 24-O ) :  -0.2544
B(  5-C ,  8-C ) :   1.0307 B(  5-C ,  9-H ) :   1.0173 B(  5-C , 25-O ) :  -0.4674
B(  5-C , 32-C ) :  -0.2954 B(  7-H , 24-O ) :   0.1068 B(  8-C , 18-H ) :   0.8469
B(  8-C , 19-H ) :   1.1051 B(  8-C , 43-H ) :   0.1051 B(  9-H , 25-O ) :  -0.1370
B( 10-C , 11-C ) :   0.1631 B( 10-C , 13-C ) :   0.5812 B( 10-C , 14-C ) :   0.3224
B( 10-C , 16-H ) :  -0.1339 B( 10-C , 41-H ) :  -0.4551 B( 10-C , 42-H ) :  -0.1240
B( 11-C , 13-C ) :   1.1162 B( 11-C , 14-C ) :   0.2265 B( 11-C , 41-H ) :   1.7076
B( 12-C , 23-C ) :   0.5334 B( 12-C , 26-O ) :   0.1445 B( 12-C , 27-O ) :  -0.1615
B( 12-C , 37-H ) :  -0.1637 B( 12-C , 39-H ) :  -0.1048 B( 12-C , 43-H ) :  -0.1487
B( 13-C , 20-C ) :   0.8741 B( 13-C , 21-H ) :  -0.1568 B( 13-C , 27-O ) :   0.2665
B( 13-C , 40-H ) :   1.0591 B( 14-C , 15-H ) :   1.0981 B( 14-C , 16-H ) :   1.0821
B( 14-C , 17-H ) :   0.8851 B( 18-H , 43-H ) :  -0.1027 B( 20-C , 21-H ) :   0.8525
B( 20-C , 22-H ) :   1.0520 B( 20-C , 23-C ) :   0.1157 B( 20-C , 27-O ) :   0.6225
B( 23-C , 26-O ) :   0.7055 B( 23-C , 27-O ) :   0.9699 B( 24-O , 28-C ) :   1.2306
B( 25-O , 32-C ) :   1.2880 B( 28-C , 29-H ) :   0.8473 B( 28-C , 30-H ) :   0.9734
B( 28-C , 31-H ) :   0.9058 B( 32-C , 33-H ) :   0.9454 B( 32-C , 34-H ) :   0.8740
B( 32-C , 35-H ) :   0.8885 B( 36-C , 37-H ) :   1.1024 B( 36-C , 38-H ) :   1.1440
B( 36-C , 39-H ) :   0.9989 B( 41-H , 42-H ) :   0.1668

MP2 TOTAL ENERGY:     -923.211996436 Eh
FINAL SINGLE POINT ENERGY      -923.211996436300

DIPOLE MOMENT
-------------
                                X             Y             Z
Electronic contribution:    -11.48282      -1.40976     -10.34728
Nuclear contribution   :     12.30004       0.90013      12.78643
                        -----------------------------------------
Total Dipole Moment    :      0.81723      -0.50962       2.43915
                        -----------------------------------------
Magnitude (a.u.)       :      2.62241
Magnitude (Debye)      :      6.66564

Rotational constants in cm-1:     0.014284     0.008375     0.006715
Rotational constants in MHz :   428.217830   251.074275   201.302079

                             ****ORCA TERMINATED NORMALLY****
TOTAL RUN TIME: 0 days 1 hours 13 minutes 45 seconds 679 msec
