                         Program Version 4.2.1 -  RELEASE  -
|  1> %pal
|  2>  nprocs 32
|  3> end
|  4> !RI-MP2 aug-cc-pVTZ aug-cc-pVTZ/C TightSCF
|  5> %maxcore 4500
|  6> *xyzfile 0 1  10_40TS.xyz
|  7>
|  8>
|  9>                          ****END OF INPUT****

CARTESIAN COORDINATES (ANGSTROEM)
---------------------------------
  C     -0.198172   -2.451214   -0.093870
  H     -0.188888   -3.412333   -0.610096
  H     -0.353854   -2.662575    0.984220
  C     -1.351754   -1.609725   -0.591250
  C      0.116227    0.402681   -0.499418
  H      0.497166    0.530691   -1.516061
  H      0.088960    1.387887   -0.043564
  C      1.102471   -0.477466    0.273612
  H      0.753487   -0.535066    1.324026
  N      1.080812   -1.809207   -0.316505
  C     -2.392157    0.535418   -0.157559
  C     -2.548106   -2.212001   -0.946216
  H     -3.060566   -1.786989   -1.791778
  H     -2.659667   -3.287920   -0.844710
  C     -3.556120    0.007812    0.421562
  H     -3.889504    0.573920    1.290654
  C     -4.190790   -1.201449    0.167312
  C     -1.263044   -0.219410   -0.531618
  C     -4.997812   -1.863180    1.253632
  H     -4.953702   -2.949841    1.156194
  H     -4.629450   -1.601705    2.246303
  H     -6.053443   -1.579049    1.189200
  H     -4.572332   -1.383332   -0.820832
  C      2.494303    0.127326    0.295241
  C      2.191991   -2.639577    0.105543
  H      2.032478   -3.648920   -0.279404
  H      2.246777   -2.713782    1.207192
  C      3.481385   -2.062708   -0.445491
  H      3.472831   -2.160360   -1.535277
  C      3.620500   -0.614020   -0.060588
  H      4.339958   -2.627807   -0.073756
  C      4.876419   -0.010766   -0.025688
  H      5.747042   -0.595767   -0.303142
  C      2.660681    1.447415    0.714894
  H      1.798617    2.022904    1.030426
  C      5.029068    1.307090    0.366793
  H      6.013586    1.758527    0.389393
  C      3.911664    2.038348    0.749353
  H      4.015854    3.065115    1.078650
  C     -2.246760    2.009425    0.057155
  O     -2.568053    2.611290    1.050311
  O     -1.751838    2.618108   -1.031836
  C     -1.581314    4.034009   -0.930378
  H     -0.879289    4.277394   -0.132257
  H     -2.534829    4.518812   -0.722688
  H     -1.189860    4.351435   -1.893083

 Total Charge           Charge          ....    0
 Multiplicity           Mult            ....    1
 Number of Electrons    NEL             ....  166
 Basis Dimension        Dim             .... 1587

ORBITAL ENERGIES
----------------

  NO   OCC          E(Eh)            E(eV)
   0   2.0000     -20.598962      -560.5263
   1   2.0000     -20.537324      -558.8490
   2   2.0000     -15.549813      -423.1319
   3   2.0000     -11.374689      -309.5210
   4   2.0000     -11.281966      -306.9979
   5   2.0000     -11.262860      -306.4780
   6   2.0000     -11.256410      -306.3025
   7   2.0000     -11.251460      -306.1678
   8   2.0000     -11.250898      -306.1525
   9   2.0000     -11.249750      -306.1213
  10   2.0000     -11.243097      -305.9402
  11   2.0000     -11.242558      -305.9256
  12   2.0000     -11.235972      -305.7463
  13   2.0000     -11.235695      -305.7388
  14   2.0000     -11.234463      -305.7053
  15   2.0000     -11.230468      -305.5966
  16   2.0000     -11.229204      -305.5622
  17   2.0000     -11.228621      -305.5463
  18   2.0000     -11.227377      -305.5125
  19   2.0000     -11.226674      -305.4933
  20   2.0000     -11.224926      -305.4458
  21   2.0000     -11.224076      -305.4226
  22   2.0000     -11.224034      -305.4215
  23   2.0000      -1.460705       -39.7478
  24   2.0000      -1.355876       -36.8953
  25   2.0000      -1.256729       -34.1973
  26   2.0000      -1.157909       -31.5083
  27   2.0000      -1.144615       -31.1466
  28   2.0000      -1.080834       -29.4110
  29   2.0000      -1.065019       -28.9807
  30   2.0000      -1.053427       -28.6652
  31   2.0000      -1.033818       -28.1316
  32   2.0000      -1.001135       -27.2423
  33   2.0000      -0.977883       -26.6096
  34   2.0000      -0.967521       -26.3276
  35   2.0000      -0.933810       -25.4103
  36   2.0000      -0.897348       -24.4181
  37   2.0000      -0.863117       -23.4866
  38   2.0000      -0.854772       -23.2595
  39   2.0000      -0.837833       -22.7986
  40   2.0000      -0.810769       -22.0621
  41   2.0000      -0.785471       -21.3738
  42   2.0000      -0.765429       -20.8284
  43   2.0000      -0.751684       -20.4544
  44   2.0000      -0.713804       -19.4236
  45   2.0000      -0.696662       -18.9571
  46   2.0000      -0.682350       -18.5677
  47   2.0000      -0.672587       -18.3020
  48   2.0000      -0.667199       -18.1554
  49   2.0000      -0.660063       -17.9612
  50   2.0000      -0.652630       -17.7590
  51   2.0000      -0.640410       -17.4264
  52   2.0000      -0.623498       -16.9662
  53   2.0000      -0.620437       -16.8829
  54   2.0000      -0.608919       -16.5695
  55   2.0000      -0.598512       -16.2863
  56   2.0000      -0.592288       -16.1170
  57   2.0000      -0.586182       -15.9508
  58   2.0000      -0.576610       -15.6904
  59   2.0000      -0.569943       -15.5089
  60   2.0000      -0.568807       -15.4780
  61   2.0000      -0.558322       -15.1927
  62   2.0000      -0.553479       -15.0609
  63   2.0000      -0.543259       -14.7828
  64   2.0000      -0.535613       -14.5748
  65   2.0000      -0.530450       -14.4343
  66   2.0000      -0.524891       -14.2830
  67   2.0000      -0.523658       -14.2495
  68   2.0000      -0.519370       -14.1328
  69   2.0000      -0.504265       -13.7218
  70   2.0000      -0.501433       -13.6447
  71   2.0000      -0.490203       -13.3391
  72   2.0000      -0.479297       -13.0423
  73   2.0000      -0.465040       -12.6544
  74   2.0000      -0.459804       -12.5119
  75   2.0000      -0.452899       -12.3240
  76   2.0000      -0.449597       -12.2342
  77   2.0000      -0.426510       -11.6059
  78   2.0000      -0.364868        -9.9286
  79   2.0000      -0.328523        -8.9396
  80   2.0000      -0.321814        -8.7570
  81   2.0000      -0.315042        -8.5727
  82   2.0000      -0.289909        -7.8888
  83   0.0000       0.023956         0.6519
  84   0.0000       0.027437         0.7466
  85   0.0000       0.029473         0.8020
  86   0.0000       0.033458         0.9104
  87   0.0000       0.036123         0.9829

MULLIKEN ATOMIC CHARGES
-----------------------
   0 C :   -0.532203
   1 H :    0.316158
   2 H :    0.210845
   3 C :    0.792910
   4 C :   -0.762163
   5 H :    0.236994
   6 H :    0.222720
   7 C :    0.237743
   8 H :    0.208806
   9 N :   -0.367403
  10 C :    0.932547
  11 C :   -1.359081
  12 H :    0.278338
  13 H :    0.398340
  14 C :   -0.540263
  15 H :   -0.061346
  16 C :    0.198169
  17 C :   -0.253178
  18 C :   -0.926387
  19 H :    0.259980
  20 H :    0.296557
  21 H :    0.292852
  22 H :    0.391566
  23 C :    1.441571
  24 C :   -0.732690
  25 H :    0.358687
  26 H :    0.230634
  27 C :   -0.564866
  28 H :    0.187071
  29 C :    1.095190
  30 H :    0.219390
  31 C :   -1.117619
  32 H :    0.038426
  33 C :   -1.193153
  34 H :    0.065503
  35 C :   -0.322521
  36 H :    0.644856
  37 C :   -0.693642
  38 H :    0.468370
  39 C :    0.935920
  40 O :   -1.185145
  41 O :   -0.439071
  42 C :   -1.022427
  43 H :    0.419842
  44 H :    0.358183
  45 H :    0.334991
Sum of atomic charges:    0.0000000

LOEWDIN ATOMIC CHARGES
----------------------
   0 C :    0.170882
   1 H :   -0.149087
   2 H :   -0.111733
   3 C :   -0.084534
   4 C :    0.309741
   5 H :   -0.113824
   6 H :   -0.210642
   7 C :   -0.105763
   8 H :   -0.102426
   9 N :    0.312782
  10 C :   -0.071221
  11 C :    0.509636
  12 H :   -0.211424
  13 H :   -0.160845
  14 C :    0.211014
  15 H :   -0.190389
  16 C :    0.188719
  17 C :   -0.041668
  18 C :    0.583035
  19 H :   -0.174209
  20 H :   -0.174502
  21 H :   -0.165713
  22 H :   -0.221670
  23 C :   -0.036217
  24 C :    0.169013
  25 H :   -0.138486
  26 H :   -0.113111
  27 C :    0.300815
  28 H :   -0.131356
  29 C :   -0.067788
  30 H :   -0.142967
  31 C :    0.222411
  32 H :   -0.172827
  33 C :    0.228915
  34 H :   -0.179652
  35 C :    0.199318
  36 H :   -0.182843
  37 C :    0.205457
  38 H :   -0.182620
  39 C :   -0.854015
  40 O :    0.482015
  41 O :    0.578137
  42 C :    0.359861
  43 H :   -0.177507
  44 H :   -0.179641
  45 H :   -0.183070

  Mayer bond orders larger than 0.100000
B(  0-C ,  1-H ) :   1.0192 B(  0-C ,  2-H ) :   1.1193 B(  0-C ,  3-C ) :   0.4677
B(  0-C ,  9-N ) :   0.8777 B(  0-C , 17-C ) :   0.1107 B(  2-H ,  9-N ) :  -0.1200
B(  3-C ,  4-C ) :   0.1048 B(  3-C , 10-C ) :   0.1911 B(  3-C , 11-C ) :   0.6408
B(  3-C , 12-H ) :  -0.1012 B(  3-C , 14-C ) :   0.4810 B(  3-C , 16-C ) :  -0.2755
B(  3-C , 17-C ) :   1.0915 B(  3-C , 22-H ) :  -0.1812 B(  3-C , 39-C ) :  -0.2131
B(  4-C ,  5-H ) :   1.0366 B(  4-C ,  6-H ) :   1.0731 B(  4-C ,  7-C ) :   0.8919
B(  4-C ,  9-N ) :   0.1693 B(  4-C , 17-C ) :   0.9211 B(  4-C , 23-C ) :   0.1062
B(  4-C , 29-C ) :  -0.1142 B(  4-C , 33-C ) :   0.1001 B(  4-C , 39-C ) :   0.1404
B(  4-C , 41-O ) :  -0.1207 B(  5-H ,  9-N ) :  -0.1171 B(  6-H , 33-C ) :  -0.1222
B(  6-H , 39-C ) :   0.1782 B(  7-C ,  8-H ) :   0.9200 B(  7-C ,  9-N ) :   0.6666
B(  7-C , 17-C ) :   0.1191 B(  7-C , 23-C ) :   0.8766 B(  7-C , 27-C ) :  -0.1534
B(  7-C , 29-C ) :   0.3073 B(  7-C , 33-C ) :   0.7516 B(  8-H ,  9-N ) :  -0.1154
B(  9-N , 17-C ) :  -0.1731 B(  9-N , 23-C ) :  -0.2425 B(  9-N , 24-C ) :   1.0150
B(  9-N , 27-C ) :  -0.1106 B( 10-C , 14-C ) :   0.5539 B( 10-C , 15-H ) :  -0.2378
B( 10-C , 17-C ) :   1.2485 B( 10-C , 40-O ) :  -0.1361 B( 10-C , 41-O ) :  -0.2315
B( 11-C , 12-H ) :   1.0830 B( 11-C , 13-H ) :   0.8514 B( 11-C , 14-C ) :  -0.1185
B( 11-C , 15-H ) :  -0.1089 B( 11-C , 16-C ) :   0.6213 B( 11-C , 17-C ) :   0.2851
B( 11-C , 22-H ) :   0.2677 B( 13-H , 17-C ) :  -0.1237 B( 14-C , 15-H ) :   1.4903
B( 14-C , 16-C ) :   0.8992 B( 14-C , 17-C ) :   0.2792 B( 14-C , 18-C ) :   0.1517
B( 14-C , 39-C ) :   0.2511 B( 15-H , 17-C ) :   0.2166 B( 16-C , 17-C ) :   0.1336
B( 16-C , 18-C ) :   0.5016 B( 16-C , 22-H ) :   0.8707 B( 17-C , 33-C ) :  -0.1154
B( 17-C , 39-C ) :   0.2834 B( 17-C , 41-O ) :   0.1307 B( 18-C , 19-H ) :   0.9954
B( 18-C , 20-H ) :   0.9785 B( 18-C , 21-H ) :   1.0000 B( 23-C , 27-C ) :   0.2735
B( 23-C , 29-C ) :   0.7849 B( 23-C , 31-C ) :   0.5046 B( 23-C , 33-C ) :  -0.2450
B( 23-C , 34-H ) :  -0.1263 B( 23-C , 35-C ) :  -0.1659 B( 24-C , 25-H ) :   0.8777
B( 24-C , 26-H ) :   1.0556 B( 24-C , 27-C ) :   1.0439 B( 24-C , 29-C ) :   0.1225
B( 27-C , 28-H ) :   1.1365 B( 27-C , 30-H ) :   1.1165 B( 27-C , 31-C ) :   0.1481
B( 27-C , 33-C ) :  -0.1067 B( 28-H , 29-C ) :  -0.1264 B( 29-C , 31-C ) :   0.3656
B( 29-C , 33-C ) :  -0.3446 B( 29-C , 35-C ) :   0.2692 B( 31-C , 32-H ) :   1.5524
B( 31-C , 35-C ) :   0.8978 B( 32-H , 35-C ) :  -0.1401 B( 33-C , 34-H ) :   1.5604
B( 33-C , 35-C ) :   0.1708 B( 33-C , 37-C ) :   1.3486 B( 35-C , 36-H ) :   0.4656
B( 35-C , 37-C ) :   1.0441 B( 37-C , 38-H ) :   0.7649 B( 39-C , 40-O ) :   0.8563
B( 39-C , 41-O ) :   1.1429 B( 39-C , 42-C ) :  -0.1500 B( 41-O , 42-C ) :   0.9772
B( 42-C , 43-H ) :   0.8282 B( 42-C , 44-H ) :   0.9063 B( 42-C , 45-H ) :   0.9391

MP2 TOTAL ENERGY:     -979.166939410 Eh
FINAL SINGLE POINT ENERGY      -979.166939409627

DIPOLE MOMENT
-------------
                                X             Y             Z
Electronic contribution:      4.11113       7.64945      -1.69853
Nuclear contribution   :     -4.05093      -8.45068       1.33813
                        -----------------------------------------
Total Dipole Moment    :      0.06020      -0.80123      -0.36040
                        -----------------------------------------
Magnitude (a.u.)       :      0.88061
Magnitude (Debye)      :      2.23834

Rotational constants in cm-1:     0.013263     0.005945     0.004402
Rotational constants in MHz :   397.605641   178.220573   131.976170

                             ****ORCA TERMINATED NORMALLY****
TOTAL RUN TIME: 0 days 1 hours 33 minutes 45 seconds 623 msec
