                         Program Version 4.2.1 -  RELEASE  -
|  1> %pal
|  2>  nprocs 32
|  3> end
|  4> !RI-MP2 aug-cc-pVTZ aug-cc-pVTZ/C TightSCF
|  5> %maxcore 4500
|  6> *xyzfile 0 1  04_52P2.xyz
|  7>
|  8>
|  9>                          ****END OF INPUT****

CARTESIAN COORDINATES (ANGSTROEM)
---------------------------------
  C      0.285810   -1.199707   -0.013410
  C     -1.100006   -1.190044    0.002830
  C     -1.817117    0.003068    0.010285
  C     -1.095159    1.192644    0.015270
  C      0.291498    1.197341    0.015436
  C      0.993701   -0.002361   -0.007482
  H      0.818582   -2.142951   -0.035730
  H      0.823186    2.141085    0.039557
  H     -1.625066    2.138833    0.029272
  H     -1.633837   -2.134153    0.002502
  C     -3.321215    0.004716   -0.012675
  S      2.771810   -0.076508    0.024147
  H      2.990825    1.173645   -0.413199
  H     -3.723269    0.919287    0.425667
  H     -3.727264   -0.843042    0.541634
  H     -3.697203   -0.062514   -1.037573

 Total Charge           Charge          ....    0
 Multiplicity           Mult            ....    1
 Number of Electrons    NEL             ....   66
 Basis Dimension        Dim             ....  556

ORBITAL ENERGIES
----------------

  NO   OCC          E(Eh)            E(eV)
   0   2.0000     -91.964651     -2502.4854
   1   2.0000     -11.271451      -306.7118
   2   2.0000     -11.243026      -305.9383
   3   2.0000     -11.240823      -305.8783
   4   2.0000     -11.239435      -305.8406
   5   2.0000     -11.236524      -305.7614
   6   2.0000     -11.235993      -305.7469
   7   2.0000     -11.227292      -305.5101
   8   2.0000      -8.965538      -243.9647
   9   2.0000      -6.646925      -180.8720
  10   2.0000      -6.645909      -180.8444
  11   2.0000      -6.644887      -180.8166
  12   2.0000      -1.169806       -31.8320
  13   2.0000      -1.074180       -29.2299
  14   2.0000      -1.022947       -27.8358
  15   2.0000      -0.985104       -26.8061
  16   2.0000      -0.907282       -24.6884
  17   2.0000      -0.839323       -22.8391
  18   2.0000      -0.793522       -21.5928
  19   2.0000      -0.678425       -18.4609
  20   2.0000      -0.653129       -17.7725
  21   2.0000      -0.634886       -17.2761
  22   2.0000      -0.592409       -16.1203
  23   2.0000      -0.581113       -15.8129
  24   2.0000      -0.566929       -15.4269
  25   2.0000      -0.545690       -14.8490
  26   2.0000      -0.521163       -14.1816
  27   2.0000      -0.506254       -13.7759
  28   2.0000      -0.494413       -13.4537
  29   2.0000      -0.464934       -12.6515
  30   2.0000      -0.404613       -11.0101
  31   2.0000      -0.345380        -9.3983
  32   2.0000      -0.303128        -8.2485
  33   0.0000       0.028645         0.7795
  34   0.0000       0.032095         0.8734
  35   0.0000       0.035363         0.9623
  36   0.0000       0.044861         1.2207
  37   0.0000       0.046489         1.2650

MULLIKEN ATOMIC CHARGES
-----------------------
   0 C :   -0.902214
   1 C :   -0.788503
   2 C :    1.318734
   3 C :   -0.791241
   4 C :   -0.847230
   5 C :    1.065679
   6 H :    0.498668
   7 H :    0.422711
   8 H :    0.281932
   9 H :    0.318867
  10 C :   -0.935191
  11 S :   -0.569847
  12 H :    0.097171
  13 H :    0.261226
  14 H :    0.261593
  15 H :    0.307646
Sum of atomic charges:    0.0000000

LOEWDIN ATOMIC CHARGES
----------------------
   0 C :    0.110984
   1 C :    0.204551
   2 C :   -0.129701
   3 C :    0.205477
   4 C :    0.124286
   5 C :   -0.566841
   6 H :   -0.198390
   7 H :   -0.200260
   8 H :   -0.175839
   9 H :   -0.174266
  10 C :    0.576436
  11 S :    1.307796
  12 H :   -0.571861
  13 H :   -0.175921
  14 H :   -0.173512
  15 H :   -0.162939

  Mayer bond orders larger than 0.100000
B(  0-C ,  1-C ) :   1.2537 B(  0-C ,  4-C ) :   0.1064 B(  0-C ,  5-C ) :   1.1436
B(  0-C ,  6-H ) :   0.7599 B(  0-C , 11-S ) :   0.1136 B(  1-C ,  2-C ) :   0.6615
B(  1-C ,  9-H ) :   1.0130 B(  1-C , 10-C ) :   0.1013 B(  2-C ,  3-C ) :   0.6169
B(  2-C , 10-C ) :   0.4721 B(  3-C ,  4-C ) :   1.2870 B(  3-C ,  8-H ) :   1.0957
B(  4-C ,  5-C ) :   0.9503 B(  4-C ,  7-H ) :   0.8920 B(  5-C , 11-S ) :   0.5298
B( 10-C , 13-H ) :   1.0081 B( 10-C , 14-H ) :   1.0117 B( 10-C , 15-H ) :   0.9547
B( 11-S , 12-H ) :   1.1117

MP2 TOTAL ENERGY:     -668.697786086 Eh
FINAL SINGLE POINT ENERGY      -668.697786086181

DIPOLE MOMENT
-------------
                                X             Y             Z
Electronic contribution:      9.22577      -0.89557       0.33116
Nuclear contribution   :     -9.83987       1.19017      -0.44772
                        -----------------------------------------
Total Dipole Moment    :     -0.61410       0.29460      -0.11656
                        -----------------------------------------
Magnitude (a.u.)       :      0.69101
Magnitude (Debye)      :      1.75641

Rotational constants in cm-1:     0.183374     0.032433     0.027719
Rotational constants in MHz :  5497.411542   972.319848   830.988891

                             ****ORCA TERMINATED NORMALLY****
TOTAL RUN TIME: 0 days 0 hours 3 minutes 11 seconds 660 msec
