                         Program Version 4.2.1 -  RELEASE  -
|  1> %pal
|  2>  nprocs 32
|  3> end
|  4> !RI-MP2 aug-cc-pVTZ aug-cc-pVTZ/C TightSCF
|  5> %maxcore 4500
|  6> *xyzfile 0 1  03_34P2.xyz
|  7>
|  8>
|  9>                          ****END OF INPUT****

CARTESIAN COORDINATES (ANGSTROEM)
---------------------------------
  O     -0.763894    1.595683   -0.000028
  C     -0.686758    0.420319   -0.000008
  C      0.551443   -0.426284   -0.000014
  C      1.834980    0.393107   -0.000019
  H      0.492677   -1.085721   -0.871229
  H      0.492687   -1.085732    0.871193
  H      1.842970    1.049479   -0.873177
  C      3.071140   -0.498267   -0.000022
  H      1.842975    1.049483    0.873135
  H      3.096548   -1.142647    0.882501
  H      3.983707    0.099818   -0.000007
  H      3.096562   -1.142623   -0.882561
  Cl    -2.197753   -0.578869    0.000044

 Total Charge           Charge          ....    0
 Multiplicity           Mult            ....    1
 Number of Electrons    NEL             ....   56
 Basis Dimension        Dim             ....  441

ORBITAL ENERGIES
----------------

  NO   OCC          E(Eh)            E(eV)
   0   2.0000    -104.843192     -2852.9283
   1   2.0000     -20.593245      -560.3707
   2   2.0000     -11.406318      -310.3817
   3   2.0000     -11.266590      -306.5795
   4   2.0000     -11.242444      -305.9225
   5   2.0000     -11.230459      -305.5963
   6   2.0000     -10.567836      -287.5654
   7   2.0000      -8.034443      -218.6283
   8   2.0000      -8.032803      -218.5837
   9   2.0000      -8.032672      -218.5801
  10   2.0000      -1.453242       -39.5447
  11   2.0000      -1.133108       -30.8334
  12   2.0000      -1.090421       -29.6719
  13   2.0000      -0.984815       -26.7982
  14   2.0000      -0.847646       -23.0656
  15   2.0000      -0.766222       -20.8500
  16   2.0000      -0.683868       -18.6090
  17   2.0000      -0.673263       -18.3204
  18   2.0000      -0.662178       -18.0188
  19   2.0000      -0.602493       -16.3947
  20   2.0000      -0.585473       -15.9315
  21   2.0000      -0.545244       -14.8368
  22   2.0000      -0.535320       -14.5668
  23   2.0000      -0.509782       -13.8719
  24   2.0000      -0.496423       -13.5084
  25   2.0000      -0.463377       -12.6091
  26   2.0000      -0.460251       -12.5241
  27   2.0000      -0.445622       -12.1260
  28   0.0000       0.025768         0.7012
  29   0.0000       0.036538         0.9942
  30   0.0000       0.037048         1.0081
  31   0.0000       0.043071         1.1720
  32   0.0000       0.059234         1.6118

MULLIKEN ATOMIC CHARGES
-----------------------
   0 O :   -0.617701
   1 C :    0.382144
   2 C :   -0.159182
   3 C :   -0.350370
   4 H :    0.317419
   5 H :    0.317420
   6 H :    0.249784
   7 C :   -0.931240
   8 H :    0.249783
   9 H :    0.276777
  10 H :    0.277270
  11 H :    0.276777
  12 Cl:   -0.288882
Sum of atomic charges:    0.0000000

LOEWDIN ATOMIC CHARGES
----------------------
   0 O :    0.410701
   1 C :   -1.092763
   2 C :    0.157312
   3 C :    0.238627
   4 H :   -0.166821
   5 H :   -0.166823
   6 H :   -0.147283
   7 C :    0.581218
   8 H :   -0.147284
   9 H :   -0.167701
  10 H :   -0.168381
  11 H :   -0.167701
  12 Cl:    0.836899

  Mayer bond orders larger than 0.100000
B(  0-O ,  1-C ) :   1.5684 B(  1-C ,  2-C ) :   0.7488 B(  1-C , 12-Cl) :   0.9157
B(  2-C ,  3-C ) :   0.8984 B(  2-C ,  4-H ) :   0.9226 B(  2-C ,  5-H ) :   0.9226
B(  3-C ,  6-H ) :   0.9414 B(  3-C ,  7-C ) :   0.8982 B(  3-C ,  8-H ) :   0.9414
B(  7-C ,  9-H ) :   0.9415 B(  7-C , 10-H ) :   0.9725 B(  7-C , 11-H ) :   0.9415

MP2 TOTAL ENERGY:     -691.146887522 Eh
FINAL SINGLE POINT ENERGY      -691.146887521805

DIPOLE MOMENT
-------------
                                X             Y             Z
Electronic contribution:    -16.67185       0.68073       0.00020
Nuclear contribution   :     17.74745      -1.38644      -0.00021
                        -----------------------------------------
Total Dipole Moment    :      1.07560      -0.70571      -0.00001
                        -----------------------------------------
Magnitude (a.u.)       :      1.28645
Magnitude (Debye)      :      3.26989

Rotational constants in cm-1:     0.229337     0.043443     0.037273
Rotational constants in MHz :  6875.349084  1302.386320  1117.422618

                             ****ORCA TERMINATED NORMALLY****
TOTAL RUN TIME: 0 days 0 hours 1 minutes 24 seconds 502 msec
