                         Program Version 4.2.1 -  RELEASE  -
|  1> %pal
|  2>  nprocs 32
|  3> end
|  4> !RI-MP2 aug-cc-pVTZ aug-cc-pVTZ/C TightSCF
|  5> %maxcore 4500
|  6> *xyzfile 0 1  02_18TS.xyz
|  7>
|  8>
|  9>                          ****END OF INPUT****

CARTESIAN COORDINATES (ANGSTROEM)
---------------------------------
  C      2.102142   -0.905714    0.625139
  C      0.673124   -1.293535    0.309545
  C     -0.414742    0.640892    0.891892
  C      2.576531    0.363686   -0.074306
  H      2.165410   -0.751092    1.713328
  C      1.784195    1.630967    0.216992
  H      3.612481    0.535499    0.222022
  H      2.584329    0.211875   -1.152381
  C      0.287811    1.538787   -0.081740
  H      1.901524    1.893563    1.281421
  C      0.191399   -1.556336   -0.957069
  C     -1.199559   -1.662113   -1.141091
  C     -1.766083    0.351869    0.893254
  C     -2.112552   -1.570892   -0.119671
  H     -1.566318   -1.570718   -2.161340
  C      1.045630   -1.512605   -2.201807
  H      0.641142   -2.204666   -2.942484
  H      1.047643   -0.518357   -2.657580
  H      2.074955   -1.796223   -1.995129
  H     -0.157877    2.533642   -0.011983
  H      0.124318    1.215073   -1.113609
  C     -3.540364   -1.227556   -0.416197
  H     -4.222706   -1.544877    0.373318
  H     -3.877068   -1.661066   -1.358148
  C     -2.696001    0.986068   -0.102598
  O      3.045965   -1.912807    0.273901
  O      2.404946    2.639254   -0.563183
  O     -2.649856    2.139242   -0.430927
  O     -3.679932    0.197706   -0.591090
  C      2.880416   -3.124387    0.972431
  H      3.709689   -3.771338    0.690365
  H      2.908291   -2.962056    2.058254
  H      1.938081   -3.619325    0.712500
  C      2.151184    3.959730   -0.144404
  H      1.103377    4.248162   -0.278857
  H      2.423246    4.098137    0.910086
  H      2.771955    4.611220   -0.757874
  C     -2.415151    0.019377    2.224281
  H     -1.737120   -0.579623    2.836207
  H     -3.351346   -0.530398    2.122803
  H     -2.636091    0.937144    2.775760
  H      0.100898   -1.667386    1.147784
  H      0.068588    0.556466    1.861681
  H     -1.884266   -2.000230    0.846349

 Total Charge           Charge          ....    0
 Multiplicity           Mult            ....    1
 Number of Electrons    NEL             ....  152
 Basis Dimension        Dim             .... 1472

ORBITAL ENERGIES
----------------

  NO   OCC          E(Eh)            E(eV)
   0   2.0000     -20.595096      -560.4210
   1   2.0000     -20.560106      -559.4689
   2   2.0000     -20.552561      -559.2636
   3   2.0000     -20.534792      -558.7801
   4   2.0000     -11.374809      -309.5243
   5   2.0000     -11.304388      -307.6080
   6   2.0000     -11.291546      -307.2586
   7   2.0000     -11.281325      -306.9805
   8   2.0000     -11.273024      -306.7546
   9   2.0000     -11.266179      -306.5683
  10   2.0000     -11.259443      -306.3850
  11   2.0000     -11.257431      -306.3303
  12   2.0000     -11.255819      -306.2864
  13   2.0000     -11.245820      -306.0143
  14   2.0000     -11.243070      -305.9395
  15   2.0000     -11.242784      -305.9317
  16   2.0000     -11.234048      -305.6940
  17   2.0000     -11.222691      -305.3849
  18   2.0000     -11.220290      -305.3196
  19   2.0000     -11.216563      -305.2182
  20   2.0000      -1.453120       -39.5414
  21   2.0000      -1.381196       -37.5842
  22   2.0000      -1.374336       -37.3976
  23   2.0000      -1.357971       -36.9523
  24   2.0000      -1.146450       -31.1965
  25   2.0000      -1.104850       -30.0645
  26   2.0000      -1.086296       -29.5596
  27   2.0000      -1.044183       -28.4137
  28   2.0000      -1.016139       -27.6505
  29   2.0000      -0.977249       -26.5923
  30   2.0000      -0.955935       -26.0123
  31   2.0000      -0.938633       -25.5415
  32   2.0000      -0.910447       -24.7745
  33   2.0000      -0.909206       -24.7408
  34   2.0000      -0.863632       -23.5006
  35   2.0000      -0.842978       -22.9386
  36   2.0000      -0.812374       -22.1058
  37   2.0000      -0.793645       -21.5962
  38   2.0000      -0.736360       -20.0374
  39   2.0000      -0.724368       -19.7111
  40   2.0000      -0.693730       -18.8774
  41   2.0000      -0.685068       -18.6417
  42   2.0000      -0.676619       -18.4118
  43   2.0000      -0.671597       -18.2751
  44   2.0000      -0.656398       -17.8615
  45   2.0000      -0.650474       -17.7003
  46   2.0000      -0.642459       -17.4822
  47   2.0000      -0.634868       -17.2756
  48   2.0000      -0.630846       -17.1662
  49   2.0000      -0.619102       -16.8466
  50   2.0000      -0.604763       -16.4564
  51   2.0000      -0.602177       -16.3861
  52   2.0000      -0.593478       -16.1494
  53   2.0000      -0.589141       -16.0313
  54   2.0000      -0.579265       -15.7626
  55   2.0000      -0.573996       -15.6192
  56   2.0000      -0.566863       -15.4251
  57   2.0000      -0.557869       -15.1804
  58   2.0000      -0.547134       -14.8883
  59   2.0000      -0.534384       -14.5413
  60   2.0000      -0.527562       -14.3557
  61   2.0000      -0.524503       -14.2724
  62   2.0000      -0.513402       -13.9704
  63   2.0000      -0.507287       -13.8040
  64   2.0000      -0.505300       -13.7499
  65   2.0000      -0.498581       -13.5671
  66   2.0000      -0.481295       -13.0967
  67   2.0000      -0.469084       -12.7644
  68   2.0000      -0.464336       -12.6352
  69   2.0000      -0.452097       -12.3022
  70   2.0000      -0.450418       -12.2565
  71   2.0000      -0.433577       -11.7982
  72   2.0000      -0.426732       -11.6120
  73   2.0000      -0.416391       -11.3306
  74   2.0000      -0.314368        -8.5544
  75   2.0000      -0.308455        -8.3935
  76   0.0000       0.018507         0.5036
  77   0.0000       0.027062         0.7364
  78   0.0000       0.029228         0.7953
  79   0.0000       0.031986         0.8704
  80   0.0000       0.039458         1.0737

MULLIKEN ATOMIC CHARGES
-----------------------
   0 C :    0.880285
   1 C :   -0.756571
   2 C :   -0.711226
   3 C :   -0.456319
   4 H :    0.509452
   5 C :    0.730236
   6 H :    0.224558
   7 H :    0.125864
   8 C :   -0.628870
   9 H :    0.181494
  10 C :    0.992769
  11 C :   -1.483330
  12 C :    1.285170
  13 C :    0.596867
  14 H :   -0.303447
  15 C :   -0.777786
  16 H :    0.343180
  17 H :    0.227177
  18 H :    0.301778
  19 H :    0.275408
  20 H :    0.153126
  21 C :   -0.552770
  22 H :    0.247697
  23 H :    0.368043
  24 C :    0.784183
  25 O :   -0.986718
  26 O :   -0.931587
  27 O :   -1.180232
  28 O :   -0.581114
  29 C :   -1.108715
  30 H :    0.346772
  31 H :    0.343364
  32 H :    0.415601
  33 C :   -1.100101
  34 H :    0.381184
  35 H :    0.322310
  36 H :    0.345201
  37 C :   -1.159844
  38 H :    0.253969
  39 H :    0.318950
  40 H :    0.241580
  41 H :    0.440127
  42 H :    0.482966
  43 H :    0.599318
Sum of atomic charges:    0.0000000

LOEWDIN ATOMIC CHARGES
----------------------
   0 C :   -0.254406
   1 C :    0.189669
   2 C :    0.192083
   3 C :    0.307789
   4 H :   -0.135317
   5 C :   -0.253121
   6 H :   -0.131735
   7 H :   -0.173817
   8 C :    0.297630
   9 H :   -0.133013
  10 C :   -0.094581
  11 C :    0.227189
  12 C :   -0.158332
  13 C :    0.149890
  14 H :   -0.161942
  15 C :    0.592450
  16 H :   -0.161816
  17 H :   -0.156050
  18 H :   -0.187198
  19 H :   -0.174178
  20 H :   -0.137159
  21 C :    0.079059
  22 H :   -0.158761
  23 H :   -0.153229
  24 C :   -0.804287
  25 O :    0.585371
  26 O :    0.590915
  27 O :    0.472194
  28 O :    0.596566
  29 C :    0.328681
  30 H :   -0.180697
  31 H :   -0.170936
  32 H :   -0.177930
  33 C :    0.333311
  34 H :   -0.183310
  35 H :   -0.172400
  36 H :   -0.181898
  37 C :    0.584167
  38 H :   -0.154571
  39 H :   -0.182815
  40 H :   -0.144537
  41 H :   -0.197749
  42 H :   -0.160204
  43 H :   -0.190975

  Mayer bond orders larger than 0.100000
B(  0-C ,  1-C ) :   1.1420 B(  0-C ,  3-C ) :   0.7528 B(  0-C ,  4-H ) :   0.9352
B(  0-C , 29-C ) :  -0.1836 B(  0-C , 41-H ) :  -0.1509 B(  1-C ,  2-C ) :   0.3388
B(  1-C ,  3-C ) :   0.1030 B(  1-C ,  4-H ) :  -0.1410 B(  1-C ,  8-C ) :   0.1751
B(  1-C , 10-C ) :   1.7328 B(  1-C , 12-C ) :   0.1422 B(  1-C , 14-H ) :   0.2370
B(  1-C , 15-C ) :   0.2121 B(  1-C , 25-O ) :   0.2809 B(  1-C , 37-C ) :  -0.1051
B(  1-C , 41-H ) :   0.6956 B(  2-C ,  8-C ) :   0.7934 B(  2-C , 11-C ) :   0.1200
B(  2-C , 12-C ) :   1.3457 B(  2-C , 20-H ) :  -0.1160 B(  2-C , 24-C ) :   0.4725
B(  2-C , 27-O ) :   0.2456 B(  2-C , 37-C ) :   0.1878 B(  2-C , 42-H ) :   0.6816
B(  3-C ,  4-H ) :  -0.1371 B(  3-C ,  5-C ) :   0.7949 B(  3-C ,  6-H ) :   0.9421
B(  3-C ,  7-H ) :   1.1202 B(  3-C , 25-O ) :   0.2114 B(  3-C , 26-O ) :   0.1693
B(  4-H , 25-O ) :  -0.3511 B(  5-C ,  6-H ) :  -0.1029 B(  5-C ,  8-C ) :   0.9022
B(  5-C ,  9-H ) :   1.2024 B(  5-C , 19-H ) :  -0.1202 B(  5-C , 20-H ) :   0.1605
B(  5-C , 26-O ) :  -0.1220 B(  5-C , 33-C ) :  -0.2110 B(  8-C , 19-H ) :   0.9633
B(  8-C , 20-H ) :   1.1364 B(  8-C , 24-C ) :  -0.1311 B(  8-C , 26-O ) :   0.3217
B(  9-H , 26-O ) :  -0.1857 B( 10-C , 11-C ) :   0.2427 B( 10-C , 12-C ) :   0.1658
B( 10-C , 13-C ) :   0.2739 B( 10-C , 14-H ) :  -0.4354 B( 10-C , 15-C ) :   0.4698
B( 10-C , 41-H ) :  -0.1268 B( 11-C , 13-C ) :   0.9930 B( 11-C , 14-H ) :   1.9592
B( 11-C , 15-C ) :  -0.2145 B( 11-C , 16-H ) :  -0.1402 B( 11-C , 21-C ) :  -0.1736
B( 11-C , 24-C ) :   0.1568 B( 11-C , 41-H ) :   0.1614 B( 11-C , 43-H ) :  -0.2000
B( 12-C , 13-C ) :   0.2546 B( 12-C , 24-C ) :   0.1518 B( 12-C , 27-O ) :   0.3000
B( 12-C , 28-O ) :  -0.2052 B( 12-C , 37-C ) :   0.1250 B( 12-C , 38-H ) :  -0.1433
B( 12-C , 40-H ) :  -0.1410 B( 13-C , 14-H ) :  -0.1358 B( 13-C , 21-C ) :   1.0209
B( 13-C , 37-C ) :   0.1041 B( 13-C , 43-H ) :   0.6719 B( 15-C , 16-H ) :   0.9421
B( 15-C , 17-H ) :   1.1082 B( 15-C , 18-H ) :   0.9574 B( 21-C , 22-H ) :   1.0834
B( 21-C , 23-H ) :   0.9528 B( 21-C , 28-O ) :   0.7599 B( 21-C , 43-H ) :  -0.1666
B( 24-C , 27-O ) :   0.4825 B( 24-C , 28-O ) :   0.9064 B( 24-C , 37-C ) :  -0.2184
B( 25-O , 29-C ) :   1.2380 B( 26-O , 33-C ) :   1.2324 B( 27-O , 28-O ) :  -0.2248
B( 29-C , 30-H ) :   0.9853 B( 29-C , 31-H ) :   0.9061 B( 29-C , 32-H ) :   0.8364
B( 33-C , 34-H ) :   0.8532 B( 33-C , 35-H ) :   0.9137 B( 33-C , 36-H ) :   0.9899
B( 37-C , 38-H ) :   1.1168 B( 37-C , 39-H ) :   0.9780 B( 37-C , 40-H ) :   1.1499

MP2 TOTAL ENERGY:     -923.207127461 Eh
FINAL SINGLE POINT ENERGY      -923.207127461378

DIPOLE MOMENT
-------------
                                X             Y             Z
Electronic contribution:     -9.80071       2.95222      -3.85236
Nuclear contribution   :      9.90637      -4.36634       5.19468
                        -----------------------------------------
Total Dipole Moment    :      0.10566      -1.41412       1.34233
                        -----------------------------------------
Magnitude (a.u.)       :      1.95262
Magnitude (Debye)      :      4.96317

Rotational constants in cm-1:     0.014145     0.009712     0.007032
Rotational constants in MHz :   424.051683   291.161880   210.826357

                             ****ORCA TERMINATED NORMALLY****
TOTAL RUN TIME: 0 days 1 hours 24 minutes 58 seconds 280 msec
