                         Program Version 4.2.1 -  RELEASE  -
|  1> %pal
|  2>  nprocs 32
|  3> end
|  4> !RI-MP2 aug-cc-pVTZ aug-cc-pVTZ/C TightSCF
|  5> %maxcore 4500
|  6> *xyzfile 0 1  10_19TS.xyz
|  7>
|  8>
|  9>                          ****END OF INPUT****

CARTESIAN COORDINATES (ANGSTROEM)
---------------------------------
  C     -5.386186   -2.165413    0.331917
  C     -4.758030   -0.943563    0.517684
  C     -3.485932   -0.700217   -0.003443
  C     -2.850809   -1.731280   -0.702892
  C     -3.482552   -2.949558   -0.893713
  C     -4.753211   -3.174631   -0.379612
  H     -6.374621   -2.328789    0.744669
  H     -5.260926   -0.160371    1.074113
  H     -1.844583   -1.588886   -1.075864
  H     -2.972339   -3.734917   -1.438862
  H     -5.241214   -4.130361   -0.526079
  C     -2.853487    0.610125    0.229817
  H     -3.443363    1.300300    0.817174
  C     -1.962096    1.144087   -0.698522
  H     -1.657709    0.533970   -1.537483
  C     -0.465731    2.762371   -1.706765
  C     -1.625212    3.333501    0.379757
  C      0.893995    3.000015   -1.054590
  H     -0.806361    3.678519   -2.202860
  H     -0.408468    1.976795   -2.458781
  C     -0.291554    3.575373    1.083535
  H     -2.002600    4.272242   -0.041461
  H     -2.368117    2.962031    1.079535
  C      0.780674    4.009007    0.086168
  H      1.597853    3.347480   -1.814665
  H      1.273066    2.050369   -0.670153
  H     -0.431742    4.332930    1.858211
  H      0.015688    2.654926    1.587179
  H      1.743163    4.121839    0.589456
  H      0.521029    4.993219   -0.321670
  N     -1.466279    2.381102   -0.714251
  N     -0.077653   -0.208632    0.361268
  N     -0.619117   -0.113339    1.526922
  N     -1.678544    0.217934    1.890632
  C      1.252018   -0.577857    0.285237
  C      2.155000   -0.775737    1.333287
  C      1.768499   -0.736495   -1.005187
  C      3.475666   -1.120086    1.103763
  C      3.083310   -1.074620   -1.245339
  C      3.950232   -1.272090   -0.184942
  F      1.764480   -0.626393    2.602713
  F      4.298585   -1.299269    2.135081
  F      5.222745   -1.600041   -0.404311
  F      3.520923   -1.209681   -2.496069
  F      0.958247   -0.542209   -2.056461

 Total Charge           Charge          ....    0
 Multiplicity           Mult            ....    1
 Number of Electrons    NEL             ....  204
 Basis Dimension        Dim             .... 1679

ORBITAL ENERGIES
----------------

  NO   OCC          E(Eh)            E(eV)
   0   2.0000     -26.341852      -716.7982
   1   2.0000     -26.339348      -716.7301
   2   2.0000     -26.338396      -716.7042
   3   2.0000     -26.336746      -716.6593
   4   2.0000     -26.331667      -716.5211
   5   2.0000     -15.711765      -427.5388
   6   2.0000     -15.673021      -426.4846
   7   2.0000     -15.615947      -424.9315
   8   2.0000     -15.599557      -424.4855
   9   2.0000     -11.361961      -309.1747
  10   2.0000     -11.361138      -309.1523
  11   2.0000     -11.354949      -308.9839
  12   2.0000     -11.352900      -308.9281
  13   2.0000     -11.352150      -308.9077
  14   2.0000     -11.324601      -308.1580
  15   2.0000     -11.318770      -307.9994
  16   2.0000     -11.284008      -307.0535
  17   2.0000     -11.283532      -307.0405
  18   2.0000     -11.245039      -305.9931
  19   2.0000     -11.240694      -305.8748
  20   2.0000     -11.239678      -305.8472
  21   2.0000     -11.239274      -305.8362
  22   2.0000     -11.239064      -305.8305
  23   2.0000     -11.230584      -305.5997
  24   2.0000     -11.230298      -305.5920
  25   2.0000     -11.226159      -305.4793
  26   2.0000     -11.224373      -305.4307
  27   2.0000     -11.223991      -305.4203
  28   2.0000      -1.670552       -45.4580
  29   2.0000      -1.664350       -45.2893
  30   2.0000      -1.654867       -45.0312
  31   2.0000      -1.648484       -44.8575
  32   2.0000      -1.644754       -44.7560
  33   2.0000      -1.466326       -39.9007
  34   2.0000      -1.307726       -35.5850
  35   2.0000      -1.259936       -34.2846
  36   2.0000      -1.191215       -32.4146
  37   2.0000      -1.157915       -31.5085
  38   2.0000      -1.113620       -30.3031
  39   2.0000      -1.066606       -29.0238
  40   2.0000      -1.060255       -28.8510
  41   2.0000      -1.057501       -28.7761
  42   2.0000      -1.052167       -28.6309
  43   2.0000      -1.012543       -27.5527
  44   2.0000      -0.995118       -27.0785
  45   2.0000      -0.930934       -25.3320
  46   2.0000      -0.923160       -25.1205
  47   2.0000      -0.906591       -24.6696
  48   2.0000      -0.885757       -24.1027
  49   2.0000      -0.844118       -22.9696
  50   2.0000      -0.840693       -22.8764
  51   2.0000      -0.824568       -22.4376
  52   2.0000      -0.816225       -22.2106
  53   2.0000      -0.805871       -21.9289
  54   2.0000      -0.800268       -21.7764
  55   2.0000      -0.773983       -21.0612
  56   2.0000      -0.764560       -20.8047
  57   2.0000      -0.753083       -20.4924
  58   2.0000      -0.752470       -20.4757
  59   2.0000      -0.750404       -20.4195
  60   2.0000      -0.735003       -20.0005
  61   2.0000      -0.730993       -19.8913
  62   2.0000      -0.722492       -19.6600
  63   2.0000      -0.720142       -19.5961
  64   2.0000      -0.706717       -19.2307
  65   2.0000      -0.705996       -19.2111
  66   2.0000      -0.703372       -19.1397
  67   2.0000      -0.701407       -19.0863
  68   2.0000      -0.685062       -18.6415
  69   2.0000      -0.679642       -18.4940
  70   2.0000      -0.668237       -18.1836
  71   2.0000      -0.658589       -17.9211
  72   2.0000      -0.648251       -17.6398
  73   2.0000      -0.642802       -17.4915
  74   2.0000      -0.640283       -17.4230
  75   2.0000      -0.632589       -17.2136
  76   2.0000      -0.626372       -17.0445
  77   2.0000      -0.620159       -16.8754
  78   2.0000      -0.612298       -16.6615
  79   2.0000      -0.602902       -16.4058
  80   2.0000      -0.594982       -16.1903
  81   2.0000      -0.586756       -15.9664
  82   2.0000      -0.581084       -15.8121
  83   2.0000      -0.578400       -15.7391
  84   2.0000      -0.558284       -15.1917
  85   2.0000      -0.546868       -14.8810
  86   2.0000      -0.538195       -14.6450
  87   2.0000      -0.521406       -14.1882
  88   2.0000      -0.518256       -14.1025
  89   2.0000      -0.506083       -13.7712
  90   2.0000      -0.496522       -13.5111
  91   2.0000      -0.488088       -13.2815
  92   2.0000      -0.484763       -13.1911
  93   2.0000      -0.476786       -12.9740
  94   2.0000      -0.457967       -12.4619
  95   2.0000      -0.448670       -12.2089
  96   2.0000      -0.441135       -12.0039
  97   2.0000      -0.366100        -9.9621
  98   2.0000      -0.365062        -9.9338
  99   2.0000      -0.335273        -9.1232
 100   2.0000      -0.315855        -8.5948
 101   2.0000      -0.273687        -7.4474
 102   0.0000       0.017812         0.4847
 103   0.0000       0.026012         0.7078
 104   0.0000       0.027943         0.7604
 105   0.0000       0.030645         0.8339
 106   0.0000       0.036775         1.0007

MULLIKEN ATOMIC CHARGES
-----------------------
   0 C :   -0.700992
   1 C :   -1.068120
   2 C :    1.873540
   3 C :   -0.316399
   4 C :   -1.274282
   5 C :   -0.074097
   6 H :    0.604018
   7 H :   -0.320286
   8 H :    0.272600
   9 H :    0.392148
  10 H :    0.527848
  11 C :    0.297178
  12 H :    0.146505
  13 C :    0.329968
  14 H :    0.846372
  15 C :   -0.965713
  16 C :   -1.030040
  17 C :   -0.607501
  18 H :    0.280651
  19 H :    0.149351
  20 C :   -0.510872
  21 H :    0.293334
  22 H :    0.341353
  23 C :   -0.585953
  24 H :    0.292044
  25 H :    0.467415
  26 H :    0.317701
  27 H :    0.345210
  28 H :    0.277186
  29 H :    0.105473
  30 N :   -0.328934
  31 N :    0.619013
  32 N :    0.229672
  33 N :   -0.954899
  34 C :   -0.204463
  35 C :    0.332040
  36 C :    1.078462
  37 C :    0.451770
  38 C :    0.194466
  39 C :    0.558113
  40 F :   -0.538044
  41 F :   -0.481137
  42 F :   -0.470075
  43 F :   -0.485522
  44 F :   -0.706105
Sum of atomic charges:    0.0000000

LOEWDIN ATOMIC CHARGES
----------------------
   0 C :    0.193631
   1 C :    0.212448
   2 C :   -0.152076
   3 C :    0.209160
   4 C :    0.200075
   5 C :    0.189990
   6 H :   -0.182083
   7 H :   -0.178272
   8 H :   -0.207095
   9 H :   -0.181018
  10 H :   -0.187833
  11 C :    0.062437
  12 H :   -0.220232
  13 C :    0.101023
  14 H :   -0.174231
  15 C :    0.232734
  16 C :    0.234432
  17 C :    0.315033
  18 H :   -0.121878
  19 H :   -0.144273
  20 C :    0.314311
  21 H :   -0.118890
  22 H :   -0.168085
  23 C :    0.304250
  24 H :   -0.129444
  25 H :   -0.171820
  26 H :   -0.131681
  27 H :   -0.150776
  28 H :   -0.135902
  29 H :   -0.137003
  30 N :    0.305617
  31 N :    0.206882
  32 N :   -0.138931
  33 N :    0.368342
  34 C :   -0.367492
  35 C :   -0.520853
  36 C :   -0.548821
  37 C :   -0.544105
  38 C :   -0.541928
  39 C :   -0.544062
  40 F :    0.526396
  41 F :    0.532116
  42 F :    0.525270
  43 F :    0.531263
  44 F :    0.533374

  Mayer bond orders larger than 0.100000
B(  0-C ,  1-C ) :   1.0467 B(  0-C ,  4-C ) :   0.2737 B(  0-C ,  5-C ) :   1.1017
B(  0-C ,  6-H ) :   0.4948 B(  0-C ,  7-H ) :  -0.1699 B(  0-C , 10-H ) :  -0.2225
B(  0-C , 11-C ) :   0.1104 B(  1-C ,  2-C ) :  -0.2572 B(  1-C ,  3-C ) :  -0.8295
B(  1-C ,  4-C ) :   0.2080 B(  1-C ,  5-C ) :  -0.1954 B(  1-C ,  6-H ) :  -0.2205
B(  1-C ,  7-H ) :   2.3585 B(  1-C , 10-H ) :   0.1920 B(  1-C , 11-C ) :   0.5496
B(  2-C ,  3-C ) :   0.8224 B(  2-C ,  5-C ) :   0.1140 B(  2-C ,  7-H ) :  -0.5507
B(  2-C ,  8-H ) :  -0.2646 B(  2-C , 11-C ) :   0.6475 B(  2-C , 12-H ) :  -0.2245
B(  2-C , 13-C ) :   0.1620 B(  3-C ,  4-C ) :   0.9732 B(  3-C ,  5-C ) :  -0.1671
B(  3-C ,  7-H ) :   0.2569 B(  3-C ,  8-H ) :   1.2810 B(  3-C , 11-C ) :   0.2144
B(  3-C , 12-H ) :  -0.1317 B(  4-C ,  5-C ) :   1.0904 B(  4-C ,  8-H ) :  -0.1730
B(  4-C ,  9-H ) :   0.8544 B(  4-C , 10-H ) :  -0.1940 B(  4-C , 11-C ) :   0.2142
B(  5-C ,  8-H ) :  -0.1005 B(  5-C , 10-H ) :   0.6875 B(  7-H ,  8-H ) :   0.2762
B(  7-H , 11-C ) :  -0.2718 B(  7-H , 12-H ) :  -0.1388 B( 11-C , 12-H ) :   1.1357
B( 11-C , 13-C ) :   0.8394 B( 11-C , 16-C ) :  -0.3359 B( 11-C , 22-H ) :  -0.1256
B( 11-C , 30-N ) :  -0.6082 B( 11-C , 32-N ) :   0.2458 B( 13-C , 14-H ) :   0.4442
B( 13-C , 15-C ) :  -0.5381 B( 13-C , 16-C ) :  -0.1165 B( 13-C , 19-H ) :  -0.1625
B( 13-C , 30-N ) :   0.9684 B( 14-H , 30-N ) :  -0.4114 B( 15-C , 16-C ) :   0.1659
B( 15-C , 17-C ) :   0.8861 B( 15-C , 18-H ) :   1.0265 B( 15-C , 19-H ) :   1.1477
B( 15-C , 23-C ) :   0.1577 B( 15-C , 30-N ) :   1.2340 B( 16-C , 20-C ) :   0.8995
B( 16-C , 21-H ) :   0.9949 B( 16-C , 22-H ) :   1.0019 B( 16-C , 23-C ) :   0.1558
B( 16-C , 30-N ) :   1.2264 B( 17-C , 23-C ) :   0.8637 B( 17-C , 24-H ) :   0.9235
B( 17-C , 25-H ) :   0.7842 B( 20-C , 23-C ) :   0.8808 B( 20-C , 26-H ) :   0.9042
B( 20-C , 27-H ) :   0.9473 B( 23-C , 28-H ) :   0.9529 B( 23-C , 29-H ) :   1.0884
B( 23-C , 30-N ) :  -0.1253 B( 30-N , 31-N ) :  -0.1300 B( 31-N , 32-N ) :   0.9260
B( 31-N , 33-N ) :   0.6344 B( 31-N , 35-C ) :  -0.5406 B( 31-N , 36-C ) :  -0.1659
B( 31-N , 37-C ) :   0.1788 B( 32-N , 33-N ) :   0.3957 B( 32-N , 34-C ) :   0.1673
B( 34-C , 35-C ) :   0.9893 B( 34-C , 36-C ) :   0.9807 B( 34-C , 37-C ) :  -0.2158
B( 34-C , 38-C ) :   0.2491 B( 34-C , 40-F ) :   0.3281 B( 34-C , 44-F ) :   0.2032
B( 35-C , 36-C ) :  -0.1922 B( 35-C , 37-C ) :   1.1840 B( 35-C , 40-F ) :   0.1965
B( 35-C , 41-F ) :   0.3403 B( 36-C , 38-C ) :   0.8297 B( 36-C , 43-F ) :   0.3150
B( 36-C , 44-F ) :   0.1990 B( 37-C , 39-C ) :   1.2638 B( 37-C , 42-F ) :   0.2145
B( 38-C , 39-C ) :   1.2451 B( 38-C , 42-F ) :   0.2299 B( 39-C , 41-F ) :   0.1193
B( 39-C , 42-F ) :   0.1338 B( 40-F , 41-F ) :   0.1326 B( 41-F , 42-F ) :   0.1418
B( 42-F , 43-F ) :   0.1367 B( 43-F , 44-F ) :   0.1437

MP2 TOTAL ENERGY:    -1449.903571925 Eh
FINAL SINGLE POINT ENERGY     -1449.903571925224

DIPOLE MOMENT
-------------
                                X             Y             Z
Electronic contribution:     40.85808     -26.60042       3.39055
Nuclear contribution   :    -41.80874      28.52141      -3.96620
                        -----------------------------------------
Total Dipole Moment    :     -0.95066       1.92099      -0.57565
                        -----------------------------------------
Magnitude (a.u.)       :      2.21931
Magnitude (Debye)      :      5.64103

Rotational constants in cm-1:     0.007771     0.004080     0.003440
Rotational constants in MHz :   232.982291   122.318203   103.127826

                             ****ORCA TERMINATED NORMALLY****
TOTAL RUN TIME: 0 days 1 hours 52 minutes 37 seconds 839 msec
