                         Program Version 4.2.1 -  RELEASE  -
|  1> %pal
|  2>  nprocs 32
|  3> end
|  4> !RI-MP2 aug-cc-pVTZ aug-cc-pVTZ/C TightSCF
|  5> %maxcore 4500
|  6> *xyzfile 0 1  10_4R2.xyz
|  7>
|  8>
|  9>                          ****END OF INPUT****

CARTESIAN COORDINATES (ANGSTROEM)
---------------------------------
  C      0.000000   -1.254289    0.662297
  C      0.000000   -1.254289   -0.662297
  C      0.000000    0.160820   -1.124884
  C      0.000000    0.160820    1.124884
  O      0.000000    0.598035    2.226294
  O      0.000000    0.964656    0.000000
  O      0.000000    0.598035   -2.226294
  H      0.000000   -2.082089    1.354793
  H      0.000000   -2.082089   -1.354793

 Total Charge           Charge          ....    0
 Multiplicity           Mult            ....    1
 Number of Electrons    NEL             ....   50
 Basis Dimension        Dim             ....  368

ORBITAL ENERGIES
----------------

  NO   OCC          E(Eh)            E(eV)
   0   2.0000     -20.650560      -561.9303
   1   2.0000     -20.591488      -560.3229
   2   2.0000     -20.591487      -560.3229
   3   2.0000     -11.422734      -310.8284
   4   2.0000     -11.422717      -310.8279
   5   2.0000     -11.311977      -307.8145
   6   2.0000     -11.310149      -307.7648
   7   2.0000      -1.526108       -41.5275
   8   2.0000      -1.450883       -39.4805
   9   2.0000      -1.404155       -38.2090
  10   2.0000      -1.157715       -31.5030
  11   2.0000      -0.959021       -26.0963
  12   2.0000      -0.866748       -23.5854
  13   2.0000      -0.832304       -22.6481
  14   2.0000      -0.737336       -20.0639
  15   2.0000      -0.704359       -19.1666
  16   2.0000      -0.695468       -18.9246
  17   2.0000      -0.674700       -18.3595
  18   2.0000      -0.642386       -17.4802
  19   2.0000      -0.621253       -16.9052
  20   2.0000      -0.584601       -15.9078
  21   2.0000      -0.510400       -13.8887
  22   2.0000      -0.510068       -13.8797
  23   2.0000      -0.478041       -13.0082
  24   2.0000      -0.450991       -12.2721
  25   0.0000       0.017892         0.4869
  26   0.0000       0.021499         0.5850
  27   0.0000       0.032996         0.8979
  28   0.0000       0.058648         1.5959
  29   0.0000       0.069832         1.9002

MULLIKEN ATOMIC CHARGES
-----------------------
   0 C :   -0.394276
   1 C :   -0.394276
   2 C :    0.550907
   3 C :    0.550907
   4 O :   -0.661559
   5 O :   -0.083412
   6 O :   -0.661559
   7 H :    0.546633
   8 H :    0.546633
Sum of atomic charges:   -0.0000000

LOEWDIN ATOMIC CHARGES
----------------------
   0 C :    0.237016
   1 C :    0.237016
   2 C :   -0.812333
   3 C :   -0.812333
   4 O :    0.458801
   5 O :    0.566322
   6 O :    0.458801
   7 H :   -0.166645
   8 H :   -0.166645

  Mayer bond orders larger than 0.100000
B(  0-C ,  1-C ) :   1.6209 B(  0-C ,  3-C ) :   0.9343 B(  0-C ,  7-H ) :   0.6823
B(  1-C ,  2-C ) :   0.9343 B(  1-C ,  8-H ) :   0.6823 B(  2-C ,  5-O ) :   0.9488
B(  2-C ,  6-O ) :   1.5992 B(  3-C ,  4-O ) :   1.5992 B(  3-C ,  5-O ) :   0.9488

MP2 TOTAL ENERGY:     -378.682022127 Eh
FINAL SINGLE POINT ENERGY      -378.682022127002

DIPOLE MOMENT
-------------
                                X             Y             Z
Electronic contribution:     -0.00000       2.09815      -0.00000
Nuclear contribution   :      0.00000      -3.95518       0.00000
                        -----------------------------------------
Total Dipole Moment    :     -0.00000      -1.85703      -0.00000
                        -----------------------------------------
Magnitude (a.u.)       :      1.85703
Magnitude (Debye)      :      4.72019

Rotational constants in cm-1:     0.229939     0.082949     0.060959
Rotational constants in MHz :  6893.411455  2486.758359  1827.498745

                             ****ORCA TERMINATED NORMALLY****
TOTAL RUN TIME: 0 days 0 hours 0 minutes 48 seconds 935 msec
