                         Program Version 4.2.1 -  RELEASE  -
|  1> %pal
|  2>  nprocs 32
|  3> end
|  4> !RI-MP2 aug-cc-pVTZ aug-cc-pVTZ/C TightSCF
|  5> %maxcore 4500
|  6> *xyzfile 0 2  03_27P1.xyz
|  7>
|  8>
|  9>                          ****END OF INPUT****

CARTESIAN COORDINATES (ANGSTROEM)
---------------------------------
  C      2.188118   -0.182736    0.066647
  C      1.341612   -0.111499   -1.167785
  C     -0.045625    0.393162   -0.795901
  O     -0.298728    1.552653   -0.599821
  C     -2.661401    0.068691    0.017407
  C     -2.575982    0.393302    1.499688
  C      2.715243    1.089271    0.633087
  C      2.118691   -1.396269    0.928144
  H      1.753704    0.606846   -1.881228
  H     -3.542388   -0.531179   -0.213038
  H     -2.698511    0.977067   -0.582770
  H     -2.525146   -0.515229    2.102001
  H     -3.457448    0.960082    1.809866
  H     -1.695290    1.000462    1.709611
  H      3.088916    1.754921   -0.149204
  H      3.520766    0.902228    1.346823
  H      1.930967    1.650048    1.163594
  H      1.962504   -2.304008    0.340724
  H      1.288199   -1.340777    1.648463
  H      3.034580   -1.515444    1.512966
  H      1.263865   -1.090243   -1.646783
  S     -1.251177   -0.906220   -0.590637

 Total Charge           Charge          ....    0
 Multiplicity           Mult            ....    2
 Number of Electrons    NEL             ....   79
 Basis Dimension        Dim             ....  717

ORBITAL ENERGIES
----------------
                 SPIN UP ORBITALS
  NO   OCC          E(Eh)            E(eV)
   0   1.0000     -91.964766     -2502.4885
   1   1.0000     -20.553365      -559.2855
   2   1.0000     -11.359212      -309.0999
   3   1.0000     -11.261702      -306.4465
   4   1.0000     -11.243930      -305.9629
   5   1.0000     -11.243226      -305.9437
   6   1.0000     -11.222133      -305.3698
   7   1.0000     -11.219690      -305.3033
   8   1.0000     -11.215231      -305.1820
   9   1.0000      -8.966488      -243.9906
  10   1.0000      -6.647709      -180.8933
  11   1.0000      -6.646543      -180.8616
  12   1.0000      -6.645878      -180.8435
  13   1.0000      -1.404863       -38.2283
  14   1.0000      -1.117350       -30.4046
  15   1.0000      -1.079920       -29.3861
  16   1.0000      -1.003614       -27.3097
  17   1.0000      -0.950695       -25.8697
  18   1.0000      -0.942635       -25.6504
  19   1.0000      -0.842744       -22.9322
  20   1.0000      -0.772796       -21.0289
  21   1.0000      -0.722732       -19.6665
  22   1.0000      -0.666666       -18.1409
  23   1.0000      -0.652249       -17.7486
  24   1.0000      -0.628347       -17.0982
  25   1.0000      -0.622121       -16.9288
  26   1.0000      -0.594842       -16.1865
  27   1.0000      -0.582825       -15.8595
  28   1.0000      -0.574440       -15.6313
  29   1.0000      -0.551165       -14.9980
  30   1.0000      -0.542060       -14.7502
  31   1.0000      -0.535811       -14.5802
  32   1.0000      -0.524073       -14.2607
  33   1.0000      -0.505933       -13.7671
  34   1.0000      -0.496435       -13.5087
  35   1.0000      -0.489600       -13.3227
  36   1.0000      -0.456648       -12.4260
  37   1.0000      -0.413438       -11.2502
  38   1.0000      -0.368262       -10.0209
  39   1.0000      -0.319428        -8.6921
  40   0.0000       0.028954         0.7879
  41   0.0000       0.032177         0.8756
  42   0.0000       0.036304         0.9879
  43   0.0000       0.038732         1.0539
  44   0.0000       0.047162         1.2833

                 SPIN DOWN ORBITALS
  NO   OCC          E(Eh)            E(eV)
   0   1.0000     -91.964697     -2502.4866
   1   1.0000     -20.552916      -559.2733
   2   1.0000     -11.356857      -309.0358
   3   1.0000     -11.261699      -306.4464
   4   1.0000     -11.246595      -306.0354
   5   1.0000     -11.222809      -305.3881
   6   1.0000     -11.222131      -305.3697
   7   1.0000     -11.219288      -305.2923
   8   1.0000     -11.218140      -305.2611
   9   1.0000      -8.966404      -243.9883
  10   1.0000      -6.647506      -180.8878
  11   1.0000      -6.646423      -180.8584
  12   1.0000      -6.645855      -180.8429
  13   1.0000      -1.403376       -38.1878
  14   1.0000      -1.090525       -29.6747
  15   1.0000      -1.071873       -29.1672
  16   1.0000      -0.996935       -27.1280
  17   1.0000      -0.950286       -25.8586
  18   1.0000      -0.942194       -25.6384
  19   1.0000      -0.840250       -22.8644
  20   1.0000      -0.740851       -20.1596
  21   1.0000      -0.707520       -19.2526
  22   1.0000      -0.664271       -18.0757
  23   1.0000      -0.638044       -17.3621
  24   1.0000      -0.618672       -16.8349
  25   1.0000      -0.615553       -16.7500
  26   1.0000      -0.591447       -16.0941
  27   1.0000      -0.571609       -15.5543
  28   1.0000      -0.558859       -15.2073
  29   1.0000      -0.547503       -14.8983
  30   1.0000      -0.536233       -14.5916
  31   1.0000      -0.530500       -14.4356
  32   1.0000      -0.522264       -14.2115
  33   1.0000      -0.504887       -13.7387
  34   1.0000      -0.490089       -13.3360
  35   1.0000      -0.484278       -13.1779
  36   1.0000      -0.454314       -12.3625
  37   1.0000      -0.403839       -10.9890
  38   1.0000      -0.367393        -9.9973
  39   0.0000       0.029141         0.7930
  40   0.0000       0.032249         0.8775
  41   0.0000       0.036114         0.9827
  42   0.0000       0.038808         1.0560
  43   0.0000       0.047092         1.2814

MULLIKEN ATOMIC CHARGES AND SPIN POPULATIONS
--------------------------------------------
   0 C :    0.275484    1.287202
   1 C :   -0.204631   -0.182230
   2 C :    0.854314    0.021797
   3 O :   -1.014251    0.005922
   4 C :   -0.428251   -0.000198
   5 C :   -0.996123   -0.000486
   6 C :   -0.967767   -0.181357
   7 C :   -0.933983   -0.201218
   8 H :    0.284363    0.023925
   9 H :    0.298192    0.000373
  10 H :    0.237771    0.000042
  11 H :    0.279471   -0.000318
  12 H :    0.279863    0.000143
  13 H :    0.397398   -0.000043
  14 H :    0.289760    0.024462
  15 H :    0.268111    0.011781
  16 H :    0.264148    0.066440
  17 H :    0.285611    0.012411
  18 H :    0.310238    0.064309
  19 H :    0.250020    0.026856
  20 H :    0.244326    0.013360
  21 S :   -0.274063    0.006826
Sum of atomic charges         :   -0.0000000

LOEWDIN ATOMIC CHARGES AND SPIN POPULATIONS
-------------------------------------------
   0 C :   -0.075263    0.538913
   1 C :    0.183406    0.097396
   2 C :   -0.915455    0.029347
   3 O :    0.422291    0.011023
   4 C :   -0.083693    0.001401
   5 C :    0.506650    0.000214
   6 C :    0.559130    0.107553
   7 C :    0.549256    0.110743
   8 H :   -0.161601    0.009244
   9 H :   -0.230194    0.000157
  10 H :   -0.239095    0.000167
  11 H :   -0.184546    0.000152
  12 H :   -0.173730    0.000055
  13 H :   -0.190336    0.000134
  14 H :   -0.170320    0.007898
  15 H :   -0.175561    0.004681
  16 H :   -0.163840    0.027672
  17 H :   -0.176804    0.004849
  18 H :   -0.164959    0.028752
  19 H :   -0.175138    0.008472
  20 H :   -0.188987    0.006135
  21 S :    1.248790    0.005042

  Mayer bond orders larger than 0.100000
B(  0-C ,  1-C ) :   0.7800 B(  0-C ,  2-C ) :   0.4204 B(  0-C ,  6-C ) :   0.6821
B(  0-C ,  7-C ) :   0.6716 B(  1-C ,  2-C ) :   0.6785 B(  1-C ,  8-H ) :   0.9610
B(  1-C , 20-H ) :   1.0133 B(  2-C ,  3-O ) :   1.1330 B(  2-C , 21-S ) :   0.8244
B(  4-C ,  5-C ) :   0.9274 B(  4-C ,  9-H ) :   0.9357 B(  4-C , 10-H ) :   0.9442
B(  4-C , 21-S ) :   0.9870 B(  5-C , 11-H ) :   0.9497 B(  5-C , 12-H ) :   0.9693
B(  5-C , 13-H ) :   0.8365 B(  6-C , 14-H ) :   0.9904 B(  6-C , 15-H ) :   1.0040
B(  6-C , 16-H ) :   0.9346 B(  7-C , 17-H ) :   0.9859 B(  7-C , 18-H ) :   0.9147
B(  7-C , 19-H ) :   1.0311

MP2 TOTAL ENERGY:     -746.763232591 Eh
FINAL SINGLE POINT ENERGY      -746.763232591144

DIPOLE MOMENT
-------------
                                X             Y             Z
Electronic contribution:     -4.03354      -1.11850      -7.14788
Nuclear contribution   :      4.04387       0.62029       7.32420
                        -----------------------------------------
Total Dipole Moment    :      0.01032      -0.49821       0.17632
                        -----------------------------------------
Magnitude (a.u.)       :      0.52859
Magnitude (Debye)      :      1.34358

Rotational constants in cm-1:     0.071259     0.026619     0.025825
Rotational constants in MHz :  2136.291024   798.008443   774.209865

                             ****ORCA TERMINATED NORMALLY****
TOTAL RUN TIME: 0 days 0 hours 10 minutes 43 seconds 346 msec
