                         Program Version 4.2.1 -  RELEASE  -
|  1> %pal
|  2>  nprocs 32
|  3> end
|  4> !RI-MP2 aug-cc-pVTZ aug-cc-pVTZ/C TightSCF
|  5> %maxcore 4500
|  6> *xyzfile -1 1  02_14TS.xyz
|  7>
|  8>
|  9>                          ****END OF INPUT****

CARTESIAN COORDINATES (ANGSTROEM)
---------------------------------
  C     -4.202839    2.610629   -0.284739
  C     -2.901570    2.141568    0.367188
  H     -2.155174    2.936941    0.266322
  H     -3.047552    2.007262    1.446317
  H     -4.465995    3.601422    0.101080
  H     -4.024434    2.735188   -1.359493
  C     -2.343461    0.876526   -0.248158
  H     -2.500540    0.761781   -1.316359
  C     -1.162654    0.315802    0.217678
  H     -0.664071    0.720061    1.089289
  C     -3.989847   -0.414337    0.166714
  C     -3.514488   -1.669319   -0.162573
  H     -3.843688   -2.130432   -1.089107
  C     -2.417079   -2.230244    0.493665
  H     -1.960427   -3.113346    0.058211
  C     -1.727279   -1.564278    1.479735
  H     -2.241517   -0.806612    2.057975
  C     -0.492737   -2.119453    2.122238
  H      0.032165   -2.795549    1.445962
  H      0.194608   -1.321221    2.404640
  H     -0.754503   -2.674639    3.031748
  C     -0.329958   -0.443758   -0.757039
  C      1.068706   -0.638885   -0.433443
  O     -0.860200   -0.852378   -1.790694
  C      1.984454   -1.462339   -1.213297
  C      1.783667   -0.061568    0.641923
  O      1.438598    0.674684    1.579385
  O      1.785219   -2.259600   -2.114748
  C      3.252347   -0.502874    0.526782
  H      3.452692   -1.165613    1.380980
  C      4.225132    0.679355    0.598736
  C      3.969139    1.681029   -0.530080
  H      2.906438    1.934018   -0.528932
  H      4.166355    1.191016   -1.487912
  C      4.782347    2.967236   -0.417244
  H      5.856214    2.787603   -0.514753
  H      4.499172    3.676925   -1.199006
  H      4.612524    3.453675    0.548246
  N      3.282928   -1.233111   -0.722246
  H      3.918410   -2.005954   -0.847208
  C      5.669341    0.181294    0.618639
  H      5.819540   -0.545458    1.422589
  H      5.920802   -0.306636   -0.328486
  H      6.382179    0.994385    0.773317
  H      4.004715    1.176661    1.549974
  C     -5.133737    0.240691   -0.565620
  H     -6.048596   -0.348830   -0.427929
  H     -4.926024    0.241150   -1.641418
  H     -3.905620   -0.116474    1.207075
  C     -5.388018    1.668029   -0.082809
  H     -6.266352    2.076835   -0.593574
  H     -5.639559    1.635344    0.984858

 Total Charge           Charge          ....   -1
 Multiplicity           Mult            ....    1
 Number of Electrons    NEL             ....  180
 Basis Dimension        Dim             .... 1748

ORBITAL ENERGIES
----------------

  NO   OCC          E(Eh)            E(eV)
   0   2.0000     -20.369433      -554.2805
   1   2.0000     -20.361030      -554.0518
   2   2.0000     -20.359310      -554.0050
   3   2.0000     -15.430763      -419.8924
   4   2.0000     -11.192362      -304.5596
   5   2.0000     -11.172041      -304.0067
   6   2.0000     -11.167762      -303.8902
   7   2.0000     -11.138243      -303.0870
   8   2.0000     -11.135766      -303.0196
   9   2.0000     -11.131968      -302.9163
  10   2.0000     -11.131824      -302.9123
  11   2.0000     -11.130783      -302.8840
  12   2.0000     -11.129333      -302.8446
  13   2.0000     -11.126326      -302.7627
  14   2.0000     -11.119077      -302.5655
  15   2.0000     -11.118783      -302.5575
  16   2.0000     -11.118278      -302.5437
  17   2.0000     -11.116683      -302.5003
  18   2.0000     -11.109047      -302.2925
  19   2.0000     -11.107218      -302.2428
  20   2.0000     -11.103220      -302.1340
  21   2.0000     -11.100983      -302.0731
  22   2.0000     -11.091989      -301.8284
  23   2.0000     -11.051162      -300.7174
  24   2.0000      -1.226973       -33.3876
  25   2.0000      -1.209372       -32.9087
  26   2.0000      -1.202173       -32.7128
  27   2.0000      -1.101358       -29.9695
  28   2.0000      -1.023282       -27.8449
  29   2.0000      -0.982790       -26.7431
  30   2.0000      -0.979965       -26.6662
  31   2.0000      -0.947042       -25.7703
  32   2.0000      -0.914179       -24.8761
  33   2.0000      -0.901526       -24.5318
  34   2.0000      -0.890535       -24.2327
  35   2.0000      -0.869428       -23.6583
  36   2.0000      -0.828358       -22.5408
  37   2.0000      -0.818846       -22.2819
  38   2.0000      -0.764559       -20.8047
  39   2.0000      -0.758165       -20.6307
  40   2.0000      -0.723606       -19.6903
  41   2.0000      -0.704108       -19.1597
  42   2.0000      -0.682551       -18.5732
  43   2.0000      -0.668896       -18.2016
  44   2.0000      -0.637925       -17.3588
  45   2.0000      -0.613862       -16.7040
  46   2.0000      -0.608223       -16.5506
  47   2.0000      -0.571568       -15.5532
  48   2.0000      -0.552864       -15.0442
  49   2.0000      -0.542144       -14.7525
  50   2.0000      -0.537220       -14.6185
  51   2.0000      -0.524133       -14.2624
  52   2.0000      -0.520857       -14.1732
  53   2.0000      -0.519795       -14.1443
  54   2.0000      -0.512145       -13.9362
  55   2.0000      -0.506786       -13.7904
  56   2.0000      -0.487289       -13.2598
  57   2.0000      -0.479386       -13.0448
  58   2.0000      -0.472348       -12.8532
  59   2.0000      -0.464797       -12.6478
  60   2.0000      -0.462201       -12.5771
  61   2.0000      -0.459402       -12.5010
  62   2.0000      -0.453381       -12.3371
  63   2.0000      -0.443372       -12.0648
  64   2.0000      -0.442145       -12.0314
  65   2.0000      -0.434643       -11.8272
  66   2.0000      -0.420695       -11.4477
  67   2.0000      -0.416776       -11.3410
  68   2.0000      -0.414367       -11.2755
  69   2.0000      -0.410980       -11.1833
  70   2.0000      -0.404865       -11.0169
  71   2.0000      -0.400927       -10.9098
  72   2.0000      -0.390490       -10.6258
  73   2.0000      -0.389114       -10.5883
  74   2.0000      -0.379419       -10.3245
  75   2.0000      -0.376721       -10.2511
  76   2.0000      -0.372124       -10.1260
  77   2.0000      -0.364588        -9.9209
  78   2.0000      -0.360369        -9.8061
  79   2.0000      -0.357293        -9.7224
  80   2.0000      -0.354916        -9.6578
  81   2.0000      -0.347881        -9.4663
  82   2.0000      -0.314543        -8.5591
  83   2.0000      -0.291204        -7.9241
  84   2.0000      -0.260799        -7.0967
  85   2.0000      -0.246793        -6.7156
  86   2.0000      -0.239708        -6.5228
  87   2.0000      -0.193686        -5.2705
  88   2.0000      -0.180982        -4.9248
  89   2.0000      -0.159876        -4.3504
  90   0.0000       0.083917         2.2835
  91   0.0000       0.089783         2.4431
  92   0.0000       0.095251         2.5919
  93   0.0000       0.097750         2.6599
  94   0.0000       0.099937         2.7194

MULLIKEN ATOMIC CHARGES
-----------------------
   0 C :   -0.639345
   1 C :   -0.659461
   2 H :    0.346651
   3 H :    0.110450
   4 H :    0.302767
   5 H :    0.131117
   6 C :   -0.585340
   7 H :    0.027222
   8 C :    0.221730
   9 H :    0.371918
  10 C :    1.222103
  11 C :   -1.198506
  12 H :   -0.022341
  13 C :   -0.555041
  14 H :    0.147728
  15 C :    0.205551
  16 H :    0.125599
  17 C :   -0.931340
  18 H :    0.304892
  19 H :    0.343549
  20 H :    0.270694
  21 C :    1.164070
  22 C :    0.523782
  23 O :   -1.611874
  24 C :    0.320633
  25 C :    2.538163
  26 O :   -1.695798
  27 O :   -1.228816
  28 C :   -0.531671
  29 H :    0.238216
  30 C :    0.509683
  31 C :   -0.564629
  32 H :    0.385410
  33 H :    0.262486
  34 C :   -1.183852
  35 H :    0.286135
  36 H :    0.258174
  37 H :    0.236813
  38 N :    0.024517
  39 H :   -0.157555
  40 C :   -1.231209
  41 H :    0.223891
  42 H :    0.274763
  43 H :    0.251129
  44 H :    0.291939
  45 C :   -0.739695
  46 H :    0.366530
  47 H :    0.119125
  48 H :    0.243616
  49 C :   -0.534176
  50 H :    0.304072
  51 H :    0.115529
Sum of atomic charges:   -1.0000000

LOEWDIN ATOMIC CHARGES
----------------------
   0 C :    0.283898
   1 C :    0.280011
   2 H :   -0.138781
   3 H :   -0.139785
   4 H :   -0.146106
   5 H :   -0.140678
   6 C :    0.140958
   7 H :   -0.192071
   8 C :    0.168506
   9 H :   -0.253380
  10 C :    0.126253
  11 C :    0.197246
  12 H :   -0.166078
  13 C :    0.172730
  14 H :   -0.172974
  15 C :    0.157657
  16 H :   -0.192234
  17 C :    0.571171
  18 H :   -0.170319
  19 H :   -0.210050
  20 H :   -0.167056
  21 C :   -0.597914
  22 C :   -0.122328
  23 O :    0.459410
  24 C :   -0.723905
  25 C :   -0.604033
  26 O :    0.449566
  27 O :    0.399405
  28 C :   -0.130725
  29 H :   -0.122635
  30 C :   -0.026999
  31 C :    0.273706
  32 H :   -0.151667
  33 H :   -0.142673
  34 C :    0.577495
  35 H :   -0.185943
  36 H :   -0.173454
  37 H :   -0.165636
  38 N :    0.551710
  39 H :   -0.288227
  40 C :    0.581671
  41 H :   -0.166117
  42 H :   -0.161043
  43 H :   -0.180024
  44 H :   -0.140462
  45 C :    0.274473
  46 H :   -0.142618
  47 H :   -0.139812
  48 H :   -0.199445
  49 C :    0.278153
  50 H :   -0.146076
  51 H :   -0.142770

  Mayer bond orders larger than 0.100000
B(  0-C ,  1-C ) :   1.0356 B(  0-C ,  4-H ) :   0.9375 B(  0-C ,  5-H ) :   1.1328
B(  0-C , 49-C ) :   0.8451 B(  1-C ,  2-H ) :   0.8854 B(  1-C ,  3-H ) :   1.2048
B(  1-C ,  6-C ) :   0.6342 B(  1-C , 10-C ) :   0.1272 B(  6-C ,  7-H ) :   1.3210
B(  6-C ,  8-C ) :   1.0003 B(  6-C , 15-C ) :   0.2147 B(  6-C , 16-H ) :   0.4135
B(  6-C , 21-C ) :   0.6450 B(  6-C , 22-C ) :  -0.1699 B(  6-C , 23-O ) :   0.1084
B(  7-H ,  8-C ) :  -0.1447 B(  7-H , 10-C ) :  -0.1073 B(  7-H , 13-C ) :  -0.1138
B(  7-H , 23-O ) :   0.1129 B(  8-C ,  9-H ) :   1.0075 B(  8-C , 10-C ) :   0.1663
B(  8-C , 11-C ) :   0.1726 B(  8-C , 15-C ) :   0.1388 B(  8-C , 16-H ) :  -0.3847
B(  8-C , 17-C ) :   0.2412 B(  8-C , 21-C ) :   1.0181 B(  8-C , 22-C ) :  -0.2057
B(  8-C , 23-O ) :   0.1400 B(  8-C , 24-C ) :   0.1522 B(  8-C , 26-O ) :  -0.1924
B(  8-C , 48-H ) :  -0.1463 B(  9-H , 16-H ) :  -0.1666 B( 10-C , 11-C ) :   0.7656
B( 10-C , 12-H ) :  -0.1564 B( 10-C , 16-H ) :  -0.1400 B( 10-C , 45-C ) :   0.4669
B( 10-C , 47-H ) :  -0.1086 B( 10-C , 48-H ) :   0.9907 B( 11-C , 12-H ) :   1.4902
B( 11-C , 13-C ) :   0.9075 B( 11-C , 14-H ) :  -0.1507 B( 11-C , 15-C ) :   0.1165
B( 11-C , 16-H ) :   0.1415 B( 11-C , 45-C ) :  -0.1469 B( 12-H , 13-C ) :  -0.2053
B( 13-C , 14-H ) :   1.2026 B( 13-C , 15-C ) :   1.0680 B( 13-C , 21-C ) :   0.1704
B( 13-C , 22-C ) :  -0.1277 B( 14-H , 15-C ) :  -0.1163 B( 14-H , 16-H ) :   0.1134
B( 14-H , 22-C ) :  -0.1089 B( 15-C , 16-H ) :   1.1677 B( 15-C , 17-C ) :   0.4108
B( 15-C , 20-H ) :  -0.1304 B( 15-C , 25-C ) :  -0.1302 B( 16-H , 21-C ) :   0.1512
B( 17-C , 18-H ) :   1.0641 B( 17-C , 19-H ) :   0.9249 B( 17-C , 20-H ) :   0.9878
B( 17-C , 22-C ) :  -0.1485 B( 21-C , 22-C ) :   0.4651 B( 21-C , 23-O ) :  -0.7228
B( 21-C , 24-C ) :   0.2491 B( 21-C , 25-C ) :   0.2993 B( 21-C , 26-O ) :   0.3554
B( 22-C , 23-O ) :   0.3548 B( 22-C , 25-C ) :   0.6641 B( 22-C , 26-O ) :   0.3104
B( 22-C , 27-O ) :   0.6695 B( 22-C , 28-C ) :   0.5730 B( 22-C , 30-C ) :  -0.1169
B( 22-C , 31-C ) :   0.1353 B( 22-C , 38-N ) :  -0.3374 B( 24-C , 25-C ) :  -0.9723
B( 24-C , 26-O ) :  -0.1308 B( 24-C , 27-O ) :   0.2532 B( 24-C , 28-C ) :   0.3865
B( 24-C , 31-C ) :  -0.1154 B( 24-C , 38-N ) :   1.0827 B( 25-C , 26-O ) :  -0.6931
B( 25-C , 27-O ) :  -0.1118 B( 25-C , 28-C ) :   0.5641 B( 25-C , 30-C ) :   0.1433
B( 25-C , 31-C ) :  -0.2589 B( 25-C , 38-N ) :  -0.4422 B( 25-C , 39-H ) :  -0.1086
B( 26-O , 28-C ) :   0.4260 B( 26-O , 31-C ) :   0.1364 B( 27-O , 28-C ) :   0.1535
B( 27-O , 38-N ) :  -0.2863 B( 28-C , 29-H ) :   0.9112 B( 28-C , 30-C ) :   0.8017
B( 28-C , 31-C ) :   0.2340 B( 28-C , 38-N ) :   0.9827 B( 28-C , 39-H ) :   0.1076
B( 30-C , 31-C ) :   0.7804 B( 30-C , 38-N ) :   0.1864 B( 30-C , 40-C ) :   0.5442
B( 30-C , 42-H ) :  -0.1089 B( 30-C , 44-H ) :   0.8760 B( 31-C , 32-H ) :   0.8648
B( 31-C , 33-H ) :   1.0282 B( 31-C , 34-C ) :   0.6767 B( 31-C , 40-C ) :   0.1674
B( 34-C , 35-H ) :   0.9915 B( 34-C , 36-H ) :   1.0326 B( 34-C , 37-H ) :   1.0627
B( 38-N , 39-H ) :   1.1938 B( 40-C , 41-H ) :   1.0550 B( 40-C , 42-H ) :   1.0246
B( 40-C , 43-H ) :   1.0488 B( 45-C , 46-H ) :   0.9140 B( 45-C , 47-H ) :   1.2560
B( 45-C , 49-C ) :   0.9496 B( 49-C , 50-H ) :   0.9358 B( 49-C , 51-H ) :   1.1167

MP2 TOTAL ENERGY:    -1057.387122454 Eh
FINAL SINGLE POINT ENERGY     -1057.387122453717

DIPOLE MOMENT
-------------
                                X             Y             Z
Electronic contribution:     -0.20792     -13.38347      -6.85150
Nuclear contribution   :     -0.63248      14.80608       8.53897
                        -----------------------------------------
Total Dipole Moment    :     -0.84040       1.42261       1.68747
                        -----------------------------------------
Magnitude (a.u.)       :      2.36170
Magnitude (Debye)      :      6.00296

Rotational constants in cm-1:     0.014758     0.004331     0.003903
Rotational constants in MHz :   442.427078   129.825372   117.010851

                             ****ORCA TERMINATED NORMALLY****
TOTAL RUN TIME: 0 days 1 hours 57 minutes 1 seconds 96 msec
