                         Program Version 4.2.1 -  RELEASE  -
|  1> %pal
|  2>  nprocs 32
|  3> end
|  4> !RI-MP2 aug-cc-pVTZ aug-cc-pVTZ/C TightSCF
|  5> %maxcore 4500
|  6> *xyzfile 0 2  01_21P.xyz
|  7>
|  8>
|  9>                          ****END OF INPUT****

CARTESIAN COORDINATES (ANGSTROEM)
---------------------------------
  N      0.187027   -0.238057   -0.018432
  C     -0.581353   -1.469505    0.174538
  C     -2.029214   -0.986340    0.197021
  H     -0.272283   -1.971386    1.091276
  H     -0.389918   -2.159215   -0.653171
  C     -1.999291    0.256865   -0.691242
  H     -2.322021   -0.712790    1.213394
  H     -2.725383   -1.745902   -0.158160
  C     -0.655164    0.925434   -0.316627
  H     -2.846575    0.925075   -0.540727
  H     -1.972395   -0.032005   -1.745343
  C     -0.768661    1.868095    0.831323
  C      1.544908   -0.276506   -0.018634
  O      2.146094   -1.318333    0.187019
  C      2.267155    1.020669   -0.302329
  H      1.894250    1.838741    0.315545
  H      2.135684    1.305755   -1.349369
  H      3.325965    0.865675   -0.111745
  H     -1.149989    2.869458    0.674568
  H     -0.560932    1.535683    1.839727
  H     -0.264625    1.461698   -1.187413

 Total Charge           Charge          ....    0
 Multiplicity           Mult            ....    2
 Number of Electrons    NEL             ....   69
 Basis Dimension        Dim             ....  690

ORBITAL ENERGIES
----------------
                 SPIN UP ORBITALS
  NO   OCC          E(Eh)            E(eV)
   0   1.0000     -20.504638      -557.9596
   1   1.0000     -15.575004      -423.8174
   2   1.0000     -11.336700      -308.4873
   3   1.0000     -11.280590      -306.9605
   4   1.0000     -11.255827      -306.2866
   5   1.0000     -11.242920      -305.9354
   6   1.0000     -11.238047      -305.8028
   7   1.0000     -11.231184      -305.6161
   8   1.0000     -11.228073      -305.5314
   9   1.0000      -1.371877       -37.3307
  10   1.0000      -1.256074       -34.1795
  11   1.0000      -1.079421       -29.3725
  12   1.0000      -1.045347       -28.4453
  13   1.0000      -0.992379       -27.0040
  14   1.0000      -0.930322       -25.3154
  15   1.0000      -0.850020       -23.1302
  16   1.0000      -0.807087       -21.9620
  17   1.0000      -0.742562       -20.2061
  18   1.0000      -0.678167       -18.4539
  19   1.0000      -0.674721       -18.3601
  20   1.0000      -0.639821       -17.4104
  21   1.0000      -0.606991       -16.5171
  22   1.0000      -0.600592       -16.3429
  23   1.0000      -0.587142       -15.9769
  24   1.0000      -0.583734       -15.8842
  25   1.0000      -0.558183       -15.1889
  26   1.0000      -0.550667       -14.9844
  27   1.0000      -0.527204       -14.3459
  28   1.0000      -0.511865       -13.9285
  29   1.0000      -0.497112       -13.5271
  30   1.0000      -0.494714       -13.4619
  31   1.0000      -0.477662       -12.9979
  32   1.0000      -0.411914       -11.2088
  33   1.0000      -0.374511       -10.1910
  34   1.0000      -0.362792        -9.8721
  35   0.0000       0.024350         0.6626
  36   0.0000       0.031923         0.8687
  37   0.0000       0.032730         0.8906
  38   0.0000       0.037996         1.0339
  39   0.0000       0.048446         1.3183

                 SPIN DOWN ORBITALS
  NO   OCC          E(Eh)            E(eV)
   0   1.0000     -20.504743      -557.9624
   1   1.0000     -15.574580      -423.8059
   2   1.0000     -11.336734      -308.4882
   3   1.0000     -11.283857      -307.0494
   4   1.0000     -11.255853      -306.2873
   5   1.0000     -11.235665      -305.7380
   6   1.0000     -11.231257      -305.6180
   7   1.0000     -11.227825      -305.5246
   8   1.0000     -11.219426      -305.2961
   9   1.0000      -1.371933       -37.3322
  10   1.0000      -1.254350       -34.1326
  11   1.0000      -1.074463       -29.2376
  12   1.0000      -1.025428       -27.9033
  13   1.0000      -0.989121       -26.9153
  14   1.0000      -0.893417       -24.3111
  15   1.0000      -0.835291       -22.7294
  16   1.0000      -0.798530       -21.7291
  17   1.0000      -0.736895       -20.0519
  18   1.0000      -0.675023       -18.3683
  19   1.0000      -0.670661       -18.2496
  20   1.0000      -0.635340       -17.2885
  21   1.0000      -0.604023       -16.4363
  22   1.0000      -0.594456       -16.1760
  23   1.0000      -0.582062       -15.8387
  24   1.0000      -0.581472       -15.8226
  25   1.0000      -0.553930       -15.0732
  26   1.0000      -0.545823       -14.8526
  27   1.0000      -0.522761       -14.2250
  28   1.0000      -0.496850       -13.5200
  29   1.0000      -0.495005       -13.4698
  30   1.0000      -0.493088       -13.4176
  31   1.0000      -0.476238       -12.9591
  32   1.0000      -0.411323       -11.1927
  33   1.0000      -0.367253        -9.9935
  34   0.0000       0.024403         0.6640
  35   0.0000       0.031394         0.8543
  36   0.0000       0.033053         0.8994
  37   0.0000       0.037764         1.0276
  38   0.0000       0.048389         1.3167

MULLIKEN ATOMIC CHARGES AND SPIN POPULATIONS
--------------------------------------------
   0 N :    0.433837    0.000598
   1 C :   -0.600222    0.008611
   2 C :   -0.505496   -0.008209
   3 H :    0.317435    0.000487
   4 H :    0.257818    0.000189
   5 C :   -0.650695    0.071563
   6 H :    0.187797   -0.001900
   7 H :    0.335513    0.001603
   8 C :    0.423061   -0.226057
   9 H :    0.351202   -0.008376
  10 H :    0.188437    0.008595
  11 C :   -1.167279    1.285764
  12 C :    0.004133    0.010307
  13 O :   -0.900286   -0.002620
  14 C :   -0.600326    0.006194
  15 H :    0.313266   -0.009395
  16 H :    0.292034   -0.000988
  17 H :    0.276899    0.000805
  18 H :    0.336274   -0.099823
  19 H :    0.350468   -0.071145
  20 H :    0.356129    0.033797
Sum of atomic charges         :   -0.0000000

LOEWDIN ATOMIC CHARGES AND SPIN POPULATIONS
-------------------------------------------
   0 N :    0.267439    0.004365
   1 C :    0.203863    0.000681
   2 C :    0.308691    0.005970
   3 H :   -0.138902   -0.000079
   4 H :   -0.130971    0.000030
   5 C :    0.317169    0.036190
   6 H :   -0.141327    0.002860
   7 H :   -0.138121    0.000957
   8 C :   -0.160693    0.111131
   9 H :   -0.139317    0.007327
  10 H :   -0.134856    0.005782
  11 C :    0.615344    0.556715
  12 C :   -0.678997    0.001163
  13 O :    0.444857   -0.001947
  14 C :    0.592262    0.007882
  15 H :   -0.183343    0.012749
  16 H :   -0.166022    0.000503
  17 H :   -0.179186    0.000857
  18 H :   -0.207835    0.116269
  19 H :   -0.204228    0.118281
  20 H :   -0.145828    0.012314

  Mayer bond orders larger than 0.100000
B(  0-N ,  1-C ) :   0.5695 B(  0-N ,  8-C ) :   0.7586 B(  0-N , 12-C ) :   1.1152
B(  0-N , 13-O ) :  -0.1429 B(  1-C ,  2-C ) :   0.9692 B(  1-C ,  3-H ) :   0.9452
B(  1-C ,  4-H ) :   1.0386 B(  1-C , 12-C ) :  -0.1546 B(  2-C ,  5-C ) :   1.0026
B(  2-C ,  6-H ) :   1.0233 B(  2-C ,  7-H ) :   0.8952 B(  5-C ,  8-C ) :   0.9281
B(  5-C ,  9-H ) :   0.9079 B(  5-C , 10-H ) :   1.0276 B(  8-C , 11-C ) :   0.5767
B(  8-C , 12-C ) :  -0.1385 B(  8-C , 20-H ) :   0.9003 B( 11-C , 18-H ) :   0.8989
B( 11-C , 19-H ) :   0.9407 B( 12-C , 13-O ) :   1.3369 B( 12-C , 14-C ) :   0.5820
B( 14-C , 15-H ) :   0.9371 B( 14-C , 16-H ) :   0.9480 B( 14-C , 17-H ) :   0.9713

MP2 TOTAL ENERGY:     -403.103639559 Eh
FINAL SINGLE POINT ENERGY      -403.103639558673

DIPOLE MOMENT
-------------
                                X             Y             Z
Electronic contribution:      3.94504      -3.09792       0.31357
Nuclear contribution   :     -5.25140       4.27093      -0.62502
                        -----------------------------------------
Total Dipole Moment    :     -1.30636       1.17301      -0.31144
                        -----------------------------------------
Magnitude (a.u.)       :      1.78312
Magnitude (Debye)      :      4.53234

Rotational constants in cm-1:     0.086361     0.047282     0.034489
Rotational constants in MHz :  2589.046015  1417.485717  1033.963025

                             ****ORCA TERMINATED NORMALLY****
TOTAL RUN TIME: 0 days 0 hours 8 minutes 45 seconds 239 msec
