                         Program Version 4.2.1 -  RELEASE  -
|  1> %pal
|  2>  nprocs 32
|  3> end
|  4> !RI-MP2 aug-cc-pVTZ aug-cc-pVTZ/C TightSCF
|  5> %maxcore 4500
|  6> *xyzfile 0 1  05_21R1.xyz
|  7>
|  8>
|  9>                          ****END OF INPUT****

CARTESIAN COORDINATES (ANGSTROEM)
---------------------------------
  C      3.717416    0.539561    0.000068
  C      2.538442    0.011508    0.000042
  C      3.678878   -0.963177    0.000066
  H      4.355242    1.404438    0.000086
  C      1.100760    0.106122    0.000011
  C      0.320657   -1.044024    0.000063
  C      0.454749    1.350065   -0.000069
  C     -1.067403   -0.976095    0.000040
  H      0.810137   -2.010467    0.000121
  C     -0.918795    1.431877   -0.000095
  H      1.049340    2.255727   -0.000113
  C     -1.690494    0.266562   -0.000039
  H     -1.643341   -1.890353    0.000082
  H     -1.428538    2.386811   -0.000158
  O     -3.033836    0.449944   -0.000069
  C     -3.868600   -0.690516   -0.000019
  H     -4.889381   -0.315646   -0.000050
  H     -3.706988   -1.301353   -0.893233
  H     -3.707009   -1.301260    0.893264
  H      3.918774   -1.509370    0.913202
  H      3.918799   -1.509375   -0.913060

 Total Charge           Charge          ....    0
 Multiplicity           Mult            ....    1
 Number of Electrons    NEL             ....   78
 Basis Dimension        Dim             ....  736

ORBITAL ENERGIES
----------------

  NO   OCC          E(Eh)            E(eV)
   0   2.0000     -20.591678      -560.3280
   1   2.0000     -11.307239      -307.6856
   2   2.0000     -11.288791      -307.1836
   3   2.0000     -11.245174      -305.9967
   4   2.0000     -11.244376      -305.9750
   5   2.0000     -11.242881      -305.9343
   6   2.0000     -11.241374      -305.8933
   7   2.0000     -11.233775      -305.6866
   8   2.0000     -11.230768      -305.6047
   9   2.0000     -11.230505      -305.5976
  10   2.0000     -11.229844      -305.5796
  11   2.0000      -1.420309       -38.6486
  12   2.0000      -1.175052       -31.9748
  13   2.0000      -1.144546       -31.1447
  14   2.0000      -1.035104       -28.1666
  15   2.0000      -1.026393       -27.9296
  16   2.0000      -0.954240       -25.9662
  17   2.0000      -0.852908       -23.2088
  18   2.0000      -0.834262       -22.7014
  19   2.0000      -0.807060       -21.9612
  20   2.0000      -0.749518       -20.3954
  21   2.0000      -0.720700       -19.6112
  22   2.0000      -0.683966       -18.6117
  23   2.0000      -0.675216       -18.3736
  24   2.0000      -0.662592       -18.0301
  25   2.0000      -0.626845       -17.0573
  26   2.0000      -0.597278       -16.2528
  27   2.0000      -0.595288       -16.1986
  28   2.0000      -0.588249       -16.0071
  29   2.0000      -0.559614       -15.2279
  30   2.0000      -0.534690       -14.5497
  31   2.0000      -0.529246       -14.4015
  32   2.0000      -0.492912       -13.4128
  33   2.0000      -0.482681       -13.1344
  34   2.0000      -0.474222       -12.9042
  35   2.0000      -0.412624       -11.2281
  36   2.0000      -0.379992       -10.3401
  37   2.0000      -0.348280        -9.4772
  38   2.0000      -0.289806        -7.8860
  39   0.0000       0.026345         0.7169
  40   0.0000       0.031599         0.8599
  41   0.0000       0.033724         0.9177
  42   0.0000       0.042268         1.1502
  43   0.0000       0.043198         1.1755

MULLIKEN ATOMIC CHARGES
-----------------------
   0 C :   -1.098164
   1 C :    1.479802
   2 C :   -1.243547
   3 H :    0.316718
   4 C :    2.430078
   5 C :   -1.187672
   6 C :   -1.239932
   7 C :   -0.442132
   8 H :   -0.174691
   9 C :   -0.801823
  10 H :   -0.266270
  11 C :    1.388219
  12 H :    0.349486
  13 H :    0.571502
  14 O :   -0.854238
  15 C :   -0.893821
  16 H :    0.377762
  17 H :    0.366178
  18 H :    0.366177
  19 H :    0.278173
  20 H :    0.278196
Sum of atomic charges:   -0.0000000

LOEWDIN ATOMIC CHARGES
----------------------
   0 C :    0.323812
   1 C :   -0.095242
   2 C :    0.308543
   3 H :   -0.192040
   4 C :   -0.123630
   5 C :    0.213636
   6 C :    0.213201
   7 C :    0.217868
   8 H :   -0.166130
   9 C :    0.221121
  10 H :   -0.163581
  11 C :   -0.384410
  12 H :   -0.205222
  13 H :   -0.178883
  14 O :    0.576980
  15 C :    0.339704
  16 H :   -0.179025
  17 H :   -0.172442
  18 H :   -0.172441
  19 H :   -0.190910
  20 H :   -0.190909

  Mayer bond orders larger than 0.100000
B(  0-C ,  1-C ) :   0.6349 B(  0-C ,  2-C ) :   1.3024 B(  0-C ,  3-H ) :   1.3036
B(  0-C ,  6-C ) :   0.2717 B(  0-C ,  8-H ) :  -0.1125 B(  0-C , 10-H ) :  -0.2966
B(  0-C , 12-H ) :   0.1490 B(  0-C , 13-H ) :   0.1025 B(  1-C ,  2-C ) :  -0.1989
B(  1-C ,  3-H ) :  -0.1323 B(  1-C ,  4-C ) :   0.1145 B(  1-C ,  5-C ) :   0.3530
B(  1-C ,  6-C ) :   0.5245 B(  1-C ,  7-C ) :  -0.1145 B(  1-C ,  8-H ) :  -0.2547
B(  1-C , 10-H ) :  -0.3392 B(  1-C , 11-C ) :   0.1313 B(  1-C , 12-H ) :   0.3367
B(  1-C , 13-H ) :   0.2222 B(  2-C ,  4-C ) :  -0.1141 B(  2-C , 19-H ) :   0.9900
B(  2-C , 20-H ) :   0.9900 B(  3-H ,  4-C ) :  -0.1070 B(  4-C ,  5-C ) :  -0.1057
B(  4-C ,  7-C ) :   0.5120 B(  4-C ,  8-H ) :  -0.6101 B(  4-C ,  9-C ) :   0.2050
B(  4-C , 10-H ) :  -0.4369 B(  4-C , 11-C ) :   0.1659 B(  4-C , 12-H ) :  -0.2120
B(  4-C , 13-H ) :  -0.2024 B(  4-C , 14-O ) :   0.1226 B(  5-C ,  6-C ) :  -0.7190
B(  5-C ,  7-C ) :   1.0251 B(  5-C ,  8-H ) :   2.1787 B(  5-C ,  9-C ) :   0.1106
B(  5-C , 10-H ) :   0.3681 B(  5-C , 11-C ) :  -0.3967 B(  5-C , 12-H ) :  -0.1378
B(  6-C ,  8-H ) :   0.3393 B(  6-C ,  9-C ) :   1.3623 B(  6-C , 10-H ) :   2.3627
B(  6-C , 11-C ) :  -0.3647 B(  6-C , 12-H ) :  -0.1379 B(  7-C ,  8-H ) :  -0.2257
B(  7-C , 11-C ) :   1.0923 B(  7-C , 12-H ) :   0.8918 B(  7-C , 13-H ) :  -0.1017
B(  7-C , 14-O ) :  -0.2543 B(  8-H , 10-H ) :   0.3559 B(  8-H , 11-C ) :  -0.1027
B(  9-C , 10-H ) :  -0.1198 B(  9-C , 11-C ) :   0.9718 B(  9-C , 13-H ) :   0.4855
B(  9-C , 14-O ) :   0.2998 B( 10-H , 11-C ) :  -0.1426 B( 11-C , 12-H ) :   0.1335
B( 11-C , 13-H ) :   0.1443 B( 11-C , 14-O ) :   0.3234 B( 14-O , 15-C ) :   0.9981
B( 15-C , 16-H ) :   0.9181 B( 15-C , 17-H ) :   0.8793 B( 15-C , 18-H ) :   0.8793

MP2 TOTAL ENERGY:     -461.279230032 Eh
FINAL SINGLE POINT ENERGY      -461.279230031635

DIPOLE MOMENT
-------------
                                X             Y             Z
Electronic contribution:      0.74902       3.48727      -0.00012
Nuclear contribution   :     -1.37361      -3.79154       0.00014
                        -----------------------------------------
Total Dipole Moment    :     -0.62459      -0.30427       0.00002
                        -----------------------------------------
Magnitude (a.u.)       :      0.69476
Magnitude (Debye)      :      1.76595

Rotational constants in cm-1:     0.132278     0.018301     0.016178
Rotational constants in MHz :  3965.583388   548.655642   485.015778

                             ****ORCA TERMINATED NORMALLY****
TOTAL RUN TIME: 0 days 0 hours 6 minutes 59 seconds 556 msec
