                         Program Version 4.2.1 -  RELEASE  -
|  1> %pal
|  2>  nprocs 32
|  3> end
|  4> !RI-MP2 aug-cc-pVTZ aug-cc-pVTZ/C TightSCF
|  5> %maxcore 4500
|  6> *xyzfile 0 1  02_30P.xyz
|  7>
|  8>
|  9>                          ****END OF INPUT****

CARTESIAN COORDINATES (ANGSTROEM)
---------------------------------
  C     -1.202026    1.311085   -0.038045
  C     -1.540554   -1.103359    0.133960
  N     -2.512680   -0.412621   -0.789838
  N     -2.345810    0.790093   -0.874998
  N     -1.708729   -0.364586    1.443002
  N     -1.538663    0.837338    1.356368
  C     -1.949718   -2.540058    0.310500
  C     -1.198137    2.814674   -0.071675
  H     -1.104120    3.177006   -1.095143
  H     -0.384231    3.217235    0.531320
  H     -2.141315    3.179146    0.334781
  H     -1.365178   -3.015280    1.097692
  H     -1.826478   -3.097423   -0.618061
  H     -3.000625   -2.574887    0.596873
  C      3.283055    0.519851    0.495466
  C      2.783142   -0.914194    0.690370
  C      0.025099    0.546488   -0.472782
  C      2.290690   -1.608867   -0.595678
  C     -0.154213   -0.771742   -0.363969
  C      0.791300   -1.908477   -0.631106
  C      2.218229    1.592652    0.271285
  C      1.244062    1.319493   -0.891696
  H      1.992001   -0.926035    1.447162
  H      2.587051   -1.030353   -1.471553
  H      3.606614   -1.496551    1.110216
  H      2.799416   -2.569918   -0.704992
  H      0.537353   -2.365740   -1.594742
  H      0.595162   -2.683702    0.114018
  H      2.729810    2.541865    0.088378
  H      1.640926    1.729004    1.191382
  H      0.919948    2.271641   -1.310684
  H      1.758589    0.806885   -1.703302
  H      3.867616    0.809920    1.373566
  H      3.983055    0.530330   -0.348430

 Total Charge           Charge          ....    0
 Multiplicity           Mult            ....    1
 Number of Electrons    NEL             ....  118
 Basis Dimension        Dim             .... 1150

ORBITAL ENERGIES
----------------

  NO   OCC          E(Eh)            E(eV)
   0   2.0000     -15.633488      -425.4088
   1   2.0000     -15.632793      -425.3899
   2   2.0000     -15.631892      -425.3654
   3   2.0000     -15.631119      -425.3444
   4   2.0000     -11.308342      -307.7156
   5   2.0000     -11.308299      -307.7145
   6   2.0000     -11.247732      -306.0664
   7   2.0000     -11.245827      -306.0145
   8   2.0000     -11.240996      -305.8831
   9   2.0000     -11.237159      -305.7786
  10   2.0000     -11.229891      -305.5809
  11   2.0000     -11.229540      -305.5713
  12   2.0000     -11.228934      -305.5548
  13   2.0000     -11.228697      -305.5484
  14   2.0000     -11.225545      -305.4626
  15   2.0000     -11.224273      -305.4280
  16   2.0000      -1.433475       -39.0068
  17   2.0000      -1.351822       -36.7849
  18   2.0000      -1.148947       -31.2644
  19   2.0000      -1.137886       -30.9635
  20   2.0000      -1.087239       -29.5853
  21   2.0000      -1.056922       -28.7603
  22   2.0000      -1.020543       -27.7704
  23   2.0000      -0.967491       -26.3268
  24   2.0000      -0.930040       -25.3077
  25   2.0000      -0.926637       -25.2151
  26   2.0000      -0.889618       -24.2077
  27   2.0000      -0.865034       -23.5388
  28   2.0000      -0.812583       -22.1115
  29   2.0000      -0.795187       -21.6381
  30   2.0000      -0.761749       -20.7283
  31   2.0000      -0.731260       -19.8986
  32   2.0000      -0.707773       -19.2595
  33   2.0000      -0.670334       -18.2407
  34   2.0000      -0.636057       -17.3080
  35   2.0000      -0.627585       -17.0774
  36   2.0000      -0.620774       -16.8921
  37   2.0000      -0.605856       -16.4862
  38   2.0000      -0.601880       -16.3780
  39   2.0000      -0.587643       -15.9906
  40   2.0000      -0.578739       -15.7483
  41   2.0000      -0.566717       -15.4211
  42   2.0000      -0.561962       -15.2918
  43   2.0000      -0.553688       -15.0666
  44   2.0000      -0.545604       -14.8466
  45   2.0000      -0.543706       -14.7950
  46   2.0000      -0.531180       -14.4541
  47   2.0000      -0.529516       -14.4089
  48   2.0000      -0.515958       -14.0399
  49   2.0000      -0.504375       -13.7247
  50   2.0000      -0.498240       -13.5578
  51   2.0000      -0.490721       -13.3532
  52   2.0000      -0.475324       -12.9342
  53   2.0000      -0.468425       -12.7465
  54   2.0000      -0.459458       -12.5025
  55   2.0000      -0.446816       -12.1585
  56   2.0000      -0.405243       -11.0272
  57   2.0000      -0.357290        -9.7224
  58   2.0000      -0.353648        -9.6232
  59   0.0000       0.023827         0.6484
  60   0.0000       0.027066         0.7365
  61   0.0000       0.031135         0.8472
  62   0.0000       0.033523         0.9122
  63   0.0000       0.040201         1.0939

MULLIKEN ATOMIC CHARGES
-----------------------
   0 C :    1.517276
   1 C :    1.524616
   2 N :   -0.666798
   3 N :   -0.689920
   4 N :   -0.526996
   5 N :   -0.634081
   6 C :   -1.304972
   7 C :   -1.328184
   8 H :    0.295935
   9 H :    0.311405
  10 H :    0.197026
  11 H :    0.270596
  12 H :    0.265757
  13 H :    0.213036
  14 C :   -0.473005
  15 C :   -0.533973
  16 C :   -0.066375
  17 C :   -0.384330
  18 C :    0.801609
  19 C :   -0.396690
  20 C :   -0.404570
  21 C :   -0.438971
  22 H :    0.126537
  23 H :    0.164719
  24 H :    0.261407
  25 H :    0.227794
  26 H :    0.519068
  27 H :    0.072725
  28 H :    0.346444
  29 H :    0.209729
  30 H :    0.062106
  31 H :    0.044612
  32 H :    0.303197
  33 H :    0.113273
Sum of atomic charges:    0.0000000

LOEWDIN ATOMIC CHARGES
----------------------
   0 C :   -0.603998
   1 C :   -0.604299
   2 N :    0.256943
   3 N :    0.259138
   4 N :    0.259055
   5 N :    0.257176
   6 C :    0.574079
   7 C :    0.574824
   8 H :   -0.160315
   9 H :   -0.158471
  10 H :   -0.158105
  11 H :   -0.163949
  12 H :   -0.155726
  13 H :   -0.159835
  14 C :    0.299833
  15 C :    0.318180
  16 C :   -0.054796
  17 C :    0.319706
  18 C :   -0.052571
  19 C :    0.307679
  20 C :    0.314557
  21 C :    0.322450
  22 H :   -0.142464
  23 H :   -0.172950
  24 H :   -0.145113
  25 H :   -0.139284
  26 H :   -0.126090
  27 H :   -0.168519
  28 H :   -0.137989
  29 H :   -0.142474
  30 H :   -0.171923
  31 H :   -0.162561
  32 H :   -0.141804
  33 H :   -0.140384

  Mayer bond orders larger than 0.100000
B(  0-C ,  2-N ) :   0.4790 B(  0-C ,  3-N ) :  -0.3701 B(  0-C ,  4-N ) :   0.3895
B(  0-C ,  5-N ) :   0.6501 B(  0-C ,  7-C ) :  -0.5682 B(  0-C ,  8-H ) :  -0.1935
B(  0-C ,  9-H ) :  -0.1248 B(  0-C , 10-H ) :  -0.3990 B(  0-C , 16-C ) :   1.5007
B(  0-C , 18-C ) :  -0.3592 B(  0-C , 21-C ) :  -0.1054 B(  1-C ,  2-N ) :   0.1431
B(  1-C ,  3-N ) :   0.3898 B(  1-C ,  4-N ) :   0.3726 B(  1-C ,  5-N ) :   0.3122
B(  1-C ,  6-C ) :  -0.3918 B(  1-C , 11-H ) :  -0.2429 B(  1-C , 12-H ) :  -0.2044
B(  1-C , 13-H ) :  -0.2630 B(  1-C , 18-C ) :   1.2814 B(  2-N ,  4-N ) :   0.1014
B(  2-N ,  5-N ) :   0.1807 B(  2-N ,  6-C ) :   0.1973 B(  2-N , 16-C ) :  -0.3268
B(  2-N , 18-C ) :   0.3910 B(  2-N , 19-C ) :  -0.1381 B(  3-N ,  4-N ) :   0.1864
B(  3-N ,  7-C ) :   0.2098 B(  3-N , 16-C ) :   0.5100 B(  3-N , 18-C ) :  -0.1181
B(  4-N ,  5-N ) :  -0.3064 B(  4-N ,  6-C ) :   0.1394 B(  4-N , 16-C ) :  -0.4669
B(  4-N , 18-C ) :   0.4631 B(  5-N ,  7-C ) :   0.1392 B(  5-N , 16-C ) :   0.1487
B(  5-N , 18-C ) :  -0.1798 B(  6-C , 11-H ) :   1.1009 B(  6-C , 12-H ) :   1.1083
B(  6-C , 13-H ) :   1.1521 B(  6-C , 18-C ) :   0.1640 B(  7-C ,  8-H ) :   1.0893
B(  7-C ,  9-H ) :   1.0155 B(  7-C , 10-H ) :   1.1959 B(  7-C , 16-C ) :   0.2856
B( 10-H , 16-C ) :   0.1516 B( 14-C , 15-C ) :   0.8305 B( 14-C , 20-C ) :   0.8125
B( 14-C , 32-H ) :   0.9336 B( 14-C , 33-H ) :   1.1622 B( 15-C , 17-C ) :   0.7702
B( 15-C , 19-C ) :   0.1064 B( 15-C , 22-H ) :   1.1419 B( 15-C , 24-H ) :   0.9695
B( 16-C , 18-C ) :   1.4753 B( 16-C , 19-C ) :  -0.2013 B( 16-C , 21-C ) :   0.9590
B( 16-C , 26-H ) :  -0.1256 B( 16-C , 31-H ) :   0.1865 B( 17-C , 19-C ) :   0.8445
B( 17-C , 23-H ) :   1.1236 B( 17-C , 25-H ) :   0.9968 B( 18-C , 19-C ) :   0.2055
B( 18-C , 26-H ) :  -0.1483 B( 18-C , 30-H ) :  -0.1224 B( 19-C , 26-H ) :   0.8853
B( 19-C , 27-H ) :   1.2985 B( 20-C , 21-C ) :   0.8655 B( 20-C , 28-H ) :   0.9161
B( 20-C , 29-H ) :   1.0565 B( 21-C , 30-H ) :   1.1473 B( 21-C , 31-H ) :   1.0972

MP2 TOTAL ENERGY:     -685.675943679 Eh
FINAL SINGLE POINT ENERGY      -685.675943678570

DIPOLE MOMENT
-------------
                                X             Y             Z
Electronic contribution:    -15.90872       1.27552       0.56882
Nuclear contribution   :     17.40791      -1.51448      -0.96933
                        -----------------------------------------
Total Dipole Moment    :      1.49919      -0.23895      -0.40052
                        -----------------------------------------
Magnitude (a.u.)       :      1.57006
Magnitude (Debye)      :      3.99078

Rotational constants in cm-1:     0.027824     0.017846     0.013034
Rotational constants in MHz :   834.138739   534.997131   390.746509

                             ****ORCA TERMINATED NORMALLY****
TOTAL RUN TIME: 0 days 0 hours 39 minutes 23 seconds 819 msec
