                         Program Version 4.2.1 -  RELEASE  -
|  1> %pal
|  2>  nprocs 32
|  3> end
|  4> !RI-MP2 aug-cc-pVTZ aug-cc-pVTZ/C TightSCF
|  5> %maxcore 4500
|  6> *xyzfile 0 1  02_24R.xyz
|  7>
|  8>
|  9>                          ****END OF INPUT****

CARTESIAN COORDINATES (ANGSTROEM)
---------------------------------
  C      0.788607   -1.612924   -0.901339
  C     -0.613505   -1.468823   -0.400345
  C     -1.318975   -0.341473   -0.481890
  C     -2.685560   -0.184991   -0.007888
  C     -3.376769    0.950734   -0.092451
  C      2.948287    1.296076    0.138993
  C      3.527635    2.523027   -0.390248
  H      3.671956    2.446383   -1.469894
  H      4.499977    2.723552    0.063960
  C      2.477183    0.283056    0.572570
  C     -4.777770    1.141760    0.388762
  H     -5.436434    1.445315   -0.430361
  H     -4.829327    1.931829    1.143805
  C      1.896289   -0.952023    1.104890
  H      0.948053   -0.718008    1.602823
  H      2.565958   -1.387501    1.847264
  H      1.110661   -0.692604   -1.401755
  H      0.860488   -2.433434   -1.617522
  H     -5.177981    0.225634    0.826239
  H      2.879297    3.379931   -0.196690
  O      1.709031   -1.958582    0.127598
  H     -1.053582   -2.350507    0.060539
  H     -0.856666    0.535706   -0.931076
  H     -2.896769    1.816377   -0.545122
  H     -3.150423   -1.060534    0.440680

 Total Charge           Charge          ....    0
 Multiplicity           Mult            ....    1
 Number of Electrons    NEL             ....   82
 Basis Dimension        Dim             ....  828

ORBITAL ENERGIES
----------------

  NO   OCC          E(Eh)            E(eV)
   0   2.0000     -20.556899      -559.3817
   1   2.0000     -11.292662      -307.2890
   2   2.0000     -11.272863      -306.7502
   3   2.0000     -11.247442      -306.0584
   4   2.0000     -11.236205      -305.7527
   5   2.0000     -11.234807      -305.7146
   6   2.0000     -11.228861      -305.5528
   7   2.0000     -11.225372      -305.4579
   8   2.0000     -11.225243      -305.4544
   9   2.0000     -11.224389      -305.4311
  10   2.0000     -11.214178      -305.1533
  11   2.0000      -1.374784       -37.4098
  12   2.0000      -1.105804       -30.0904
  13   2.0000      -1.065723       -28.9998
  14   2.0000      -1.050113       -28.5750
  15   2.0000      -0.999541       -27.1989
  16   2.0000      -0.960403       -26.1339
  17   2.0000      -0.921610       -25.0783
  18   2.0000      -0.869061       -23.6483
  19   2.0000      -0.773211       -21.0402
  20   2.0000      -0.757863       -20.6225
  21   2.0000      -0.680638       -18.5211
  22   2.0000      -0.673481       -18.3264
  23   2.0000      -0.664566       -18.0838
  24   2.0000      -0.632628       -17.2147
  25   2.0000      -0.622203       -16.9310
  26   2.0000      -0.610688       -16.6177
  27   2.0000      -0.589438       -16.0394
  28   2.0000      -0.588018       -16.0008
  29   2.0000      -0.571427       -15.5493
  30   2.0000      -0.562888       -15.3170
  31   2.0000      -0.548800       -14.9336
  32   2.0000      -0.534001       -14.5309
  33   2.0000      -0.516953       -14.0670
  34   2.0000      -0.497718       -13.5436
  35   2.0000      -0.478171       -13.0117
  36   2.0000      -0.435705       -11.8561
  37   2.0000      -0.432630       -11.7725
  38   2.0000      -0.378318       -10.2946
  39   2.0000      -0.368587       -10.0298
  40   2.0000      -0.313148        -8.5212
  41   0.0000       0.025335         0.6894
  42   0.0000       0.028966         0.7882
  43   0.0000       0.034272         0.9326
  44   0.0000       0.038000         1.0340
  45   0.0000       0.041744         1.1359

MULLIKEN ATOMIC CHARGES
-----------------------
   0 C :   -0.160439
   1 C :   -0.455590
   2 C :    0.016100
   3 C :   -0.114972
   4 C :   -0.431654
   5 C :   -0.357472
   6 C :   -0.952644
   7 H :    0.268947
   8 H :    0.279905
   9 C :    0.385287
  10 C :   -0.826716
  11 H :    0.275332
  12 H :    0.266453
  13 C :   -0.260270
  14 H :    0.332217
  15 H :    0.388941
  16 H :    0.335278
  17 H :    0.423607
  18 H :    0.297118
  19 H :    0.271479
  20 O :   -0.736332
  21 H :    0.181991
  22 H :    0.074290
  23 H :    0.287412
  24 H :    0.211735
Sum of atomic charges:    0.0000000

LOEWDIN ATOMIC CHARGES
----------------------
   0 C :    0.000324
   1 C :    0.206100
   2 C :    0.178681
   3 C :    0.181296
   4 C :    0.202346
   5 C :    0.084832
   6 C :    0.513011
   7 H :   -0.185329
   8 H :   -0.185497
   9 C :    0.076624
  10 C :    0.551502
  11 H :   -0.176220
  12 H :   -0.176240
  13 C :   -0.045721
  14 H :   -0.178184
  15 H :   -0.173916
  16 H :   -0.181927
  17 H :   -0.161989
  18 H :   -0.182278
  19 H :   -0.186399
  20 O :    0.560939
  21 H :   -0.173501
  22 H :   -0.179892
  23 H :   -0.182588
  24 H :   -0.185972

  Mayer bond orders larger than 0.100000
B(  0-C ,  1-C ) :   0.7903 B(  0-C , 16-H ) :   0.9741 B(  0-C , 17-H ) :   0.8686
B(  0-C , 20-O ) :   0.7741 B(  1-C ,  2-C ) :   1.0300 B(  1-C ,  3-C ) :  -0.1352
B(  1-C ,  4-C ) :   0.2521 B(  1-C , 17-H ) :  -0.1249 B(  1-C , 20-O ) :   0.1164
B(  1-C , 21-H ) :   1.2918 B(  2-C ,  3-C ) :   0.4329 B(  2-C ,  4-C ) :  -0.1285
B(  2-C , 21-H ) :  -0.1161 B(  2-C , 22-H ) :   1.4465 B(  3-C ,  4-C ) :   0.9611
B(  3-C , 24-H ) :   1.2012 B(  4-C , 10-C ) :   0.7234 B(  4-C , 23-H ) :   1.0826
B(  5-C ,  6-C ) :   1.0515 B(  5-C ,  9-C ) :   2.1033 B(  5-C , 13-C ) :   0.1152
B(  6-C ,  7-H ) :   0.9514 B(  6-C ,  8-H ) :   0.9833 B(  6-C ,  9-C ) :  -0.1385
B(  6-C , 13-C ) :   0.1604 B(  6-C , 19-H ) :   0.9540 B(  9-C , 13-C ) :   0.7689
B( 10-C , 11-H ) :   0.9931 B( 10-C , 12-H ) :   0.9858 B( 10-C , 18-H ) :   0.9559
B( 13-C , 14-H ) :   0.9618 B( 13-C , 15-H ) :   0.9080 B( 13-C , 20-O ) :   0.8859

MP2 TOTAL ENERGY:     -463.648415111 Eh
FINAL SINGLE POINT ENERGY      -463.648415110610

DIPOLE MOMENT
-------------
                                X             Y             Z
Electronic contribution:      6.56779      -5.17485       0.54969
Nuclear contribution   :     -7.00995       5.97803      -0.62033
                        -----------------------------------------
Total Dipole Moment    :     -0.44216       0.80318      -0.07064
                        -----------------------------------------
Magnitude (a.u.)       :      0.91957
Magnitude (Debye)      :      2.33735

Rotational constants in cm-1:     0.046967     0.014607     0.011992
Rotational constants in MHz :  1408.021891   437.895082   359.500432

                             ****ORCA TERMINATED NORMALLY****
TOTAL RUN TIME: 0 days 0 hours 6 minutes 48 seconds 981 msec
