                         Program Version 4.2.1 -  RELEASE  -
|  1> %pal
|  2>  nprocs 32
|  3> end
|  4> !RI-MP2 aug-cc-pVTZ aug-cc-pVTZ/C TightSCF
|  5> %maxcore 4500
|  6> *xyzfile 0 1  04_86R1.xyz
|  7>
|  8>
|  9>                          ****END OF INPUT****

CARTESIAN COORDINATES (ANGSTROEM)
---------------------------------
  C     -4.754364   -1.590978   -0.279232
  C     -3.385422   -1.735821   -0.135579
  C     -2.558046   -0.625550    0.016816
  C     -3.117375    0.649953    0.028504
  C     -4.496749    0.787226   -0.115669
  C     -5.314496   -0.318960   -0.269580
  H     -5.383232   -2.464639   -0.400381
  H     -2.944950   -2.727680   -0.145122
  H     -4.931033    1.781472   -0.103853
  H     -6.384711   -0.192463   -0.380064
  C     -0.879756    1.486876    0.760830
  H     -0.203145    2.336945    0.722328
  H     -0.984167    1.204344    1.822175
  N     -0.315000    0.377687    0.000509
  C      1.090289    0.258901   -0.016582
  C      1.869489    1.353830   -0.421667
  C      1.756121   -0.916748    0.307693
  C      3.242095    1.275309   -0.476656
  H      1.381566    2.272278   -0.722759
  C      3.147444   -1.009389    0.236114
  H      1.205243   -1.789986    0.627093
  C      3.897662    0.088027   -0.147466
  H      3.836139    2.122753   -0.794915
  H      3.619072   -1.947273    0.493862
  C     -2.234463    1.861065    0.185930
  H     -2.086909    2.331813   -0.791208
  H     -2.723066    2.597418    0.829791
  C     -1.073324   -0.839504    0.192774
  O      5.257492    0.108913   -0.243262
  C      5.960074   -1.071289    0.076242
  H      7.014675   -0.843912   -0.063293
  H      5.789494   -1.368988    1.116001
  H      5.677853   -1.896144   -0.586205
  H     -0.732620   -1.580753   -0.532890
  H     -0.900226   -1.267995    1.197141

 Total Charge           Charge          ....    0
 Multiplicity           Mult            ....    1
 Number of Electrons    NEL             ....  128
 Basis Dimension        Dim             .... 1219

ORBITAL ENERGIES
----------------

  NO   OCC          E(Eh)            E(eV)
   0   2.0000     -20.578772      -559.9769
   1   2.0000     -15.559703      -423.4011
   2   2.0000     -11.287415      -307.1462
   3   2.0000     -11.280262      -306.9515
   4   2.0000     -11.263616      -306.4986
   5   2.0000     -11.260126      -306.4036
   6   2.0000     -11.255999      -306.2913
   7   2.0000     -11.236650      -305.7648
   8   2.0000     -11.235227      -305.7261
   9   2.0000     -11.230257      -305.5908
  10   2.0000     -11.229485      -305.5698
  11   2.0000     -11.229467      -305.5693
  12   2.0000     -11.228641      -305.5469
  13   2.0000     -11.228614      -305.5461
  14   2.0000     -11.227811      -305.5243
  15   2.0000     -11.227557      -305.5174
  16   2.0000     -11.227424      -305.5137
  17   2.0000     -11.226154      -305.4792
  18   2.0000      -1.406089       -38.2616
  19   2.0000      -1.260579       -34.3021
  20   2.0000      -1.161465       -31.6051
  21   2.0000      -1.136798       -30.9338
  22   2.0000      -1.063222       -28.9317
  23   2.0000      -1.042659       -28.3722
  24   2.0000      -1.020376       -27.7658
  25   2.0000      -1.003569       -27.3085
  26   2.0000      -0.989101       -26.9148
  27   2.0000      -0.939187       -25.5566
  28   2.0000      -0.897997       -24.4357
  29   2.0000      -0.861052       -23.4304
  30   2.0000      -0.832257       -22.6469
  31   2.0000      -0.819749       -22.3065
  32   2.0000      -0.797433       -21.6992
  33   2.0000      -0.757272       -20.6064
  34   2.0000      -0.722922       -19.6717
  35   2.0000      -0.694488       -18.8980
  36   2.0000      -0.682985       -18.5850
  37   2.0000      -0.669535       -18.2190
  38   2.0000      -0.652530       -17.7562
  39   2.0000      -0.643973       -17.5234
  40   2.0000      -0.631663       -17.1884
  41   2.0000      -0.625323       -17.0159
  42   2.0000      -0.614455       -16.7202
  43   2.0000      -0.612140       -16.6572
  44   2.0000      -0.590985       -16.0815
  45   2.0000      -0.582151       -15.8411
  46   2.0000      -0.573533       -15.6066
  47   2.0000      -0.567095       -15.4314
  48   2.0000      -0.545718       -14.8497
  49   2.0000      -0.542452       -14.7609
  50   2.0000      -0.531433       -14.4610
  51   2.0000      -0.528690       -14.3864
  52   2.0000      -0.521526       -14.1915
  53   2.0000      -0.510247       -13.8845
  54   2.0000      -0.484550       -13.1853
  55   2.0000      -0.481660       -13.1066
  56   2.0000      -0.478349       -13.0165
  57   2.0000      -0.465048       -12.6546
  58   2.0000      -0.462791       -12.5932
  59   2.0000      -0.390293       -10.6204
  60   2.0000      -0.340912        -9.2767
  61   2.0000      -0.330083        -8.9820
  62   2.0000      -0.322173        -8.7668
  63   2.0000      -0.280699        -7.6382
  64   0.0000       0.026244         0.7141
  65   0.0000       0.028433         0.7737
  66   0.0000       0.029892         0.8134
  67   0.0000       0.035561         0.9677
  68   0.0000       0.037747         1.0272

MULLIKEN ATOMIC CHARGES
-----------------------
   0 C :   -0.533645
   1 C :   -1.202242
   2 C :    1.447417
   3 C :    1.098385
   4 C :   -1.304035
   5 C :   -0.257728
   6 H :    0.521526
   7 H :    0.040358
   8 H :    0.102801
   9 H :    0.577529
  10 C :   -0.746405
  11 H :    0.432014
  12 H :    0.196037
  13 N :   -0.180647
  14 C :    1.296273
  15 C :   -0.248189
  16 C :   -0.699636
  17 C :   -1.048819
  18 H :    0.443528
  19 C :   -0.711997
  20 H :    0.119017
  21 C :    1.280619
  22 H :    0.410689
  23 H :    0.215641
  24 C :   -0.438174
  25 H :    0.223283
  26 H :    0.247097
  27 C :   -0.941745
  28 O :   -0.881753
  29 C :   -0.940394
  30 H :    0.372887
  31 H :    0.366730
  32 H :    0.360568
  33 H :    0.161169
  34 H :    0.221839
Sum of atomic charges:   -0.0000000

LOEWDIN ATOMIC CHARGES
----------------------
   0 C :    0.197682
   1 C :    0.220731
   2 C :   -0.058958
   3 C :   -0.071491
   4 C :    0.220696
   5 C :    0.197096
   6 H :   -0.183995
   7 H :   -0.169949
   8 H :   -0.172508
   9 H :   -0.183859
  10 C :    0.188301
  11 H :   -0.164260
  12 H :   -0.113138
  13 N :    0.290501
  14 C :   -0.209361
  15 C :    0.221346
  16 C :    0.225997
  17 C :    0.216825
  18 H :   -0.177539
  19 C :    0.209583
  20 H :   -0.198717
  21 C :   -0.389534
  22 H :   -0.176047
  23 H :   -0.202853
  24 C :    0.304059
  25 H :   -0.131936
  26 H :   -0.141572
  27 C :    0.154482
  28 O :    0.568935
  29 C :    0.328103
  30 H :   -0.180843
  31 H :   -0.173645
  32 H :   -0.173865
  33 H :   -0.145188
  34 H :   -0.125079

  Mayer bond orders larger than 0.100000
B(  0-C ,  1-C ) :   1.0590 B(  0-C ,  3-C ) :   0.1281 B(  0-C ,  5-C ) :   1.0168
B(  0-C ,  6-H ) :   0.6698 B(  0-C ,  7-H ) :  -0.1044 B(  1-C ,  3-C ) :  -0.1400
B(  1-C ,  4-C ) :   0.1082 B(  1-C ,  7-H ) :   1.5890 B(  1-C , 27-C ) :   0.4161
B(  2-C ,  3-C ) :   0.9903 B(  2-C ,  4-C ) :   0.1213 B(  2-C ,  5-C ) :  -0.1090
B(  2-C ,  7-H ) :  -0.1651 B(  2-C , 27-C ) :   0.2387 B(  2-C , 33-H ) :  -0.1137
B(  3-C ,  4-C ) :   0.3627 B(  3-C ,  5-C ) :   0.1059 B(  3-C , 10-C ) :   0.1870
B(  3-C , 27-C ) :   0.1934 B(  4-C ,  5-C ) :   1.0103 B(  4-C ,  8-H ) :   1.4500
B(  4-C ,  9-H ) :  -0.1370 B(  4-C , 27-C ) :   0.1136 B(  5-C ,  9-H ) :   0.6017
B( 10-C , 11-H ) :   0.9064 B( 10-C , 12-H ) :   1.0193 B( 10-C , 13-N ) :   1.0647
B( 10-C , 24-C ) :   0.9217 B( 11-H , 15-C ) :  -0.1184 B( 13-N , 14-C ) :   0.5666
B( 13-N , 16-C ) :  -0.7282 B( 13-N , 27-C ) :   1.0556 B( 14-C , 15-C ) :   0.5799
B( 14-C , 16-C ) :   0.3370 B( 14-C , 20-H ) :  -0.3016 B( 14-C , 21-C ) :   0.1131
B( 15-C , 16-C ) :  -0.1339 B( 15-C , 17-C ) :   1.1314 B( 15-C , 18-H ) :   0.8025
B( 15-C , 19-C ) :  -0.1700 B( 15-C , 21-C ) :  -0.1128 B( 15-C , 27-C ) :   0.1053
B( 16-C , 19-C ) :   1.1077 B( 16-C , 20-H ) :   1.4998 B( 16-C , 23-H ) :  -0.1625
B( 16-C , 27-C ) :   0.1418 B( 17-C , 18-H ) :  -0.1001 B( 17-C , 19-C ) :   0.1850
B( 17-C , 21-C ) :   0.6736 B( 17-C , 22-H ) :   0.8914 B( 17-C , 28-O ) :   0.2339
B( 19-C , 20-H ) :  -0.1915 B( 19-C , 21-C ) :   1.2564 B( 19-C , 23-H ) :   1.0871
B( 19-C , 28-O ) :  -0.2698 B( 21-C , 28-O ) :   0.2702 B( 23-H , 29-C ) :  -0.1505
B( 24-C , 25-H ) :   1.0980 B( 24-C , 26-H ) :   1.0940 B( 27-C , 33-H ) :   1.1714
B( 27-C , 34-H ) :   1.1052 B( 28-O , 29-C ) :   0.9976 B( 29-C , 30-H ) :   0.9319
B( 29-C , 31-H ) :   0.8854 B( 29-C , 32-H ) :   0.8896

MP2 TOTAL ENERGY:     -748.393605595 Eh
FINAL SINGLE POINT ENERGY      -748.393605594645

DIPOLE MOMENT
-------------
                                X             Y             Z
Electronic contribution:     -1.34432       1.10970      -1.94720
Nuclear contribution   :      1.33699      -1.43530       2.29413
                        -----------------------------------------
Total Dipole Moment    :     -0.00732      -0.32560       0.34693
                        -----------------------------------------
Magnitude (a.u.)       :      0.47584
Magnitude (Debye)      :      1.20949

Rotational constants in cm-1:     0.050450     0.005705     0.005216
Rotational constants in MHz :  1512.458729   171.034606   156.379990

                             ****ORCA TERMINATED NORMALLY****
TOTAL RUN TIME: 0 days 0 hours 32 minutes 45 seconds 192 msec
