                         Program Version 4.2.1 -  RELEASE  -
|  1> %pal
|  2>  nprocs 32
|  3> end
|  4> !RI-MP2 aug-cc-pVTZ aug-cc-pVTZ/C TightSCF
|  5> %maxcore 4500
|  6> *xyzfile 0 1  02_2TS.xyz
|  7>
|  8>
|  9>                          ****END OF INPUT****

CARTESIAN COORDINATES (ANGSTROEM)
---------------------------------
  C      2.375835    0.522420    0.663576
  O      3.170324   -0.511601    0.914639
  C      1.255856    0.704993    1.459103
  C      0.289913    1.667626    1.215898
  C     -0.939134    1.717613    2.079192
  C      0.385006    2.490465    0.074407
  C     -0.577770    3.618891   -0.160865
  C      0.181305    1.138675   -1.471317
  C      1.243969    0.217134   -1.456414
  C      1.069518   -1.161549   -1.062249
  O      1.935709   -2.012309   -1.220732
  C     -0.229893   -1.511111   -0.408111
  C     -1.319087   -0.625443   -0.487421
  C     -1.181684    0.666156   -1.162328
  O     -2.167555    1.361457   -1.425237
  C     -2.553460   -0.996283    0.077591
  C     -2.659431   -2.206784    0.761599
  C     -1.569958   -3.052710    0.840196
  C     -0.355718   -2.721227    0.244142
  C      4.338609   -0.631871    0.103401
  O     -3.635992   -0.213038   -0.005733
  H      1.085973   -0.041215    2.226913
  H     -1.853079    1.600474    1.492834
  H     -0.920402    0.931367    2.832862
  H     -1.014711    2.681414    2.590665
  H     -0.394767    4.093834   -1.125233
  H     -1.614964    3.285853   -0.151523
  H     -0.458118    4.381938    0.615096
  H      2.132075    0.426241   -2.040450
  H     -3.612944   -2.464598    1.204273
  H     -1.669807   -3.996150    1.364030
  H      0.198596    1.934738   -2.206890
  H      1.389349    2.705831   -0.270265
  H      2.804423    1.320321    0.070479
  H      0.495831   -3.387225    0.272391
  H     -3.402992    0.542258   -0.592861
  H      4.947747   -1.406291    0.561862
  H      4.053960   -0.939105   -0.902379
  H      4.890701    0.312270    0.092314

 Total Charge           Charge          ....    0
 Multiplicity           Mult            ....    1
 Number of Electrons    NEL             ....  152
 Basis Dimension        Dim             .... 1380

ORBITAL ENERGIES
----------------

  NO   OCC          E(Eh)            E(eV)
   0   2.0000     -20.608554      -560.7873
   1   2.0000     -20.577475      -559.9416
   2   2.0000     -20.553188      -559.2807
   3   2.0000     -20.517297      -558.3040
   4   2.0000     -11.348852      -308.8180
   5   2.0000     -11.342588      -308.6475
   6   2.0000     -11.320192      -308.0381
   7   2.0000     -11.318468      -307.9912
   8   2.0000     -11.289087      -307.1917
   9   2.0000     -11.271299      -306.7076
  10   2.0000     -11.267593      -306.6068
  11   2.0000     -11.266449      -306.5757
  12   2.0000     -11.256077      -306.2934
  13   2.0000     -11.254569      -306.2524
  14   2.0000     -11.244967      -305.9911
  15   2.0000     -11.236945      -305.7728
  16   2.0000     -11.235282      -305.7276
  17   2.0000     -11.234584      -305.7086
  18   2.0000     -11.234043      -305.6939
  19   2.0000     -11.229816      -305.5788
  20   2.0000     -11.228718      -305.5489
  21   2.0000      -1.441193       -39.2168
  22   2.0000      -1.418446       -38.5979
  23   2.0000      -1.386317       -37.7236
  24   2.0000      -1.363547       -37.1040
  25   2.0000      -1.173370       -31.9290
  26   2.0000      -1.149270       -31.2732
  27   2.0000      -1.099539       -29.9200
  28   2.0000      -1.053194       -28.6589
  29   2.0000      -1.034990       -28.1635
  30   2.0000      -1.023988       -27.8641
  31   2.0000      -1.000274       -27.2188
  32   2.0000      -0.954391       -25.9703
  33   2.0000      -0.940995       -25.6058
  34   2.0000      -0.891014       -24.2457
  35   2.0000      -0.871601       -23.7175
  36   2.0000      -0.860325       -23.4106
  37   2.0000      -0.839965       -22.8566
  38   2.0000      -0.797121       -21.6908
  39   2.0000      -0.748053       -20.3556
  40   2.0000      -0.725636       -19.7456
  41   2.0000      -0.720824       -19.6146
  42   2.0000      -0.714131       -19.4325
  43   2.0000      -0.704490       -19.1701
  44   2.0000      -0.691754       -18.8236
  45   2.0000      -0.674260       -18.3475
  46   2.0000      -0.672595       -18.3022
  47   2.0000      -0.641603       -17.4589
  48   2.0000      -0.635415       -17.2905
  49   2.0000      -0.622958       -16.9515
  50   2.0000      -0.621662       -16.9163
  51   2.0000      -0.619570       -16.8594
  52   2.0000      -0.599546       -16.3145
  53   2.0000      -0.593322       -16.1451
  54   2.0000      -0.586532       -15.9603
  55   2.0000      -0.575752       -15.6670
  56   2.0000      -0.566646       -15.4192
  57   2.0000      -0.565557       -15.3896
  58   2.0000      -0.555522       -15.1165
  59   2.0000      -0.553515       -15.0619
  60   2.0000      -0.550102       -14.9690
  61   2.0000      -0.539953       -14.6929
  62   2.0000      -0.533355       -14.5133
  63   2.0000      -0.527359       -14.3502
  64   2.0000      -0.525083       -14.2882
  65   2.0000      -0.517866       -14.0918
  66   2.0000      -0.511128       -13.9085
  67   2.0000      -0.498157       -13.5555
  68   2.0000      -0.476659       -12.9706
  69   2.0000      -0.460988       -12.5441
  70   2.0000      -0.434768       -11.8306
  71   2.0000      -0.406294       -11.0558
  72   2.0000      -0.357243        -9.7211
  73   2.0000      -0.346513        -9.4291
  74   2.0000      -0.318985        -8.6800
  75   2.0000      -0.289684        -7.8827
  76   0.0000       0.019344         0.5264
  77   0.0000       0.027978         0.7613
  78   0.0000       0.029417         0.8005
  79   0.0000       0.034152         0.9293
  80   0.0000       0.039694         1.0801

MULLIKEN ATOMIC CHARGES
-----------------------
   0 C :    0.423287
   1 O :   -0.839410
   2 C :   -0.529926
   3 C :    1.058021
   4 C :   -0.899850
   5 C :   -0.389873
   6 C :   -1.166468
   7 C :   -0.049884
   8 C :   -0.794311
   9 C :    1.232835
  10 O :   -1.535036
  11 C :    1.774556
  12 C :    0.983941
  13 C :    1.115360
  14 O :   -1.509759
  15 C :    0.467281
  16 C :   -0.956265
  17 C :   -0.325694
  18 C :   -1.299883
  19 C :   -1.050016
  20 O :   -1.189831
  21 H :   -0.203602
  22 H :    0.334716
  23 H :    0.228738
  24 H :    0.220305
  25 H :    0.164752
  26 H :    0.362619
  27 H :    0.236199
  28 H :    0.086597
  29 H :    0.475328
  30 H :    0.647951
  31 H :    0.445853
  32 H :    0.510984
  33 H :    0.595267
  34 H :    0.129583
  35 H :    0.117040
  36 H :    0.380104
  37 H :    0.422250
  38 H :    0.326240
Sum of atomic charges:    0.0000000

LOEWDIN ATOMIC CHARGES
----------------------
   0 C :   -0.089423
   1 O :    0.597403
   2 C :    0.221583
   3 C :   -0.112612
   4 C :    0.599907
   5 C :    0.134486
   6 C :    0.581129
   7 C :    0.135785
   8 C :    0.168371
   9 C :   -0.583108
  10 O :    0.483779
  11 C :   -0.112870
  12 C :   -0.074320
  13 C :   -0.480612
  14 O :    0.588458
  15 C :   -0.351876
  16 C :    0.237186
  17 C :    0.216374
  18 C :    0.225977
  19 C :    0.380443
  20 O :    0.873923
  21 H :   -0.167056
  22 H :   -0.174986
  23 H :   -0.161836
  24 H :   -0.150190
  25 H :   -0.156750
  26 H :   -0.205109
  27 H :   -0.153361
  28 H :   -0.172177
  29 H :   -0.177525
  30 H :   -0.169910
  31 H :   -0.158344
  32 H :   -0.183229
  33 H :   -0.183560
  34 H :   -0.185452
  35 H :   -0.688371
  36 H :   -0.169855
  37 H :   -0.211743
  38 H :   -0.170528

  Mayer bond orders larger than 0.100000
B(  0-C ,  1-O ) :   0.4850 B(  0-C ,  2-C ) :   1.1082 B(  0-C ,  3-C ) :   0.2579
B(  0-C , 28-H ) :   0.1563 B(  0-C , 33-H ) :   0.8028 B(  1-O , 19-C ) :   1.0662
B(  1-O , 33-H ) :  -0.3095 B(  2-C ,  3-C ) :   0.7220 B(  2-C ,  5-C ) :  -0.1883
B(  2-C ,  7-C ) :   0.1993 B(  2-C , 11-C ) :   0.1324 B(  2-C , 21-H ) :   1.6792
B(  3-C ,  5-C ) :   1.8906 B(  3-C ,  6-C ) :   0.1707 B(  3-C ,  8-C ) :   0.1894
B(  3-C , 21-H ) :  -0.4093 B(  3-C , 24-H ) :  -0.2415 B(  4-C ,  5-C ) :   0.1041
B(  4-C , 22-H ) :   0.9150 B(  4-C , 23-H ) :   1.0896 B(  4-C , 24-H ) :   1.1376
B(  5-C ,  6-C ) :   0.4875 B(  5-C ,  7-C ) :   0.2548 B(  5-C , 12-C ) :   0.1362
B(  5-C , 13-C ) :   0.1834 B(  5-C , 21-H ) :   0.1499 B(  5-C , 32-H ) :   0.6740
B(  6-C ,  7-C ) :   0.1126 B(  6-C , 25-H ) :   1.1104 B(  6-C , 26-H ) :   1.0145
B(  6-C , 27-H ) :   1.0921 B(  6-C , 32-H ) :  -0.1361 B(  7-C ,  8-C ) :   1.0634
B(  7-C ,  9-C ) :   0.2924 B(  7-C , 11-C ) :  -0.3814 B(  7-C , 12-C ) :   0.3564
B(  7-C , 13-C ) :   1.0220 B(  7-C , 31-H ) :   0.7637 B(  8-C ,  9-C ) :   1.2851
B(  8-C , 11-C ) :   0.1984 B(  8-C , 12-C ) :  -0.4791 B(  8-C , 13-C ) :   0.1444
B(  8-C , 28-H ) :   1.1272 B(  8-C , 31-H ) :  -0.1718 B(  9-C , 10-O ) :  -0.5854
B(  9-C , 11-C ) :   0.7818 B(  9-C , 12-C ) :   0.2601 B(  9-C , 13-C ) :   0.2517
B(  9-C , 15-C ) :  -0.1525 B(  9-C , 18-C ) :   0.1035 B(  9-C , 31-H ) :  -0.1069
B( 10-O , 12-C ) :   0.1590 B( 10-O , 28-H ) :   0.1307 B( 10-O , 34-H ) :   0.2044
B( 11-C , 12-C ) :   0.5875 B( 11-C , 13-C ) :  -0.2036 B( 11-C , 15-C ) :  -0.6440
B( 11-C , 16-C ) :  -0.1569 B( 11-C , 17-C ) :   0.2103 B( 11-C , 18-C ) :   0.1422
B( 12-C , 13-C ) :   0.8834 B( 12-C , 15-C ) :   0.4588 B( 12-C , 16-C ) :   0.3592
B( 12-C , 17-C ) :  -0.1429 B( 12-C , 18-C ) :  -0.1335 B( 12-C , 20-O ) :  -0.1299
B( 12-C , 30-H ) :   0.1461 B( 12-C , 35-H ) :  -0.1563 B( 13-C , 14-O ) :  -0.4768
B( 13-C , 15-C ) :   0.3462 B( 13-C , 20-O ) :   0.1319 B( 13-C , 28-H ) :  -0.1542
B( 14-O , 15-C ) :   0.2614 B( 14-O , 35-H ) :   0.2697 B( 15-C , 16-C ) :   0.8264
B( 15-C , 18-C ) :   0.2317 B( 15-C , 20-O ) :  -0.1418 B( 15-C , 35-H ) :   0.1526
B( 16-C , 17-C ) :   1.1661 B( 16-C , 20-O ) :   0.2202 B( 16-C , 29-H ) :   0.7028
B( 17-C , 18-C ) :   1.0945 B( 17-C , 30-H ) :   0.4717 B( 17-C , 34-H ) :  -0.1660
B( 18-C , 29-H ) :   0.1106 B( 18-C , 30-H ) :  -0.1018 B( 18-C , 34-H ) :   1.2299
B( 19-C , 36-H ) :   0.9220 B( 19-C , 37-H ) :   0.7963 B( 19-C , 38-H ) :   0.9153
B( 20-O , 35-H ) :   0.9418

MP2 TOTAL ENERGY:     -957.709696548 Eh
FINAL SINGLE POINT ENERGY      -957.709696548323

DIPOLE MOMENT
-------------
                                X             Y             Z
Electronic contribution:     -5.82607     -10.77647      -5.18765
Nuclear contribution   :      7.02471      11.92435       5.98869
                        -----------------------------------------
Total Dipole Moment    :      1.19864       1.14788       0.80105
                        -----------------------------------------
Magnitude (a.u.)       :      1.84283
Magnitude (Debye)      :      4.68411

Rotational constants in cm-1:     0.014369     0.011011     0.008093
Rotational constants in MHz :   430.765676   330.090354   242.610503

                             ****ORCA TERMINATED NORMALLY****
TOTAL RUN TIME: 0 days 1 hours 10 minutes 39 seconds 849 msec
