                         Program Version 4.2.1 -  RELEASE  -
|  1> %pal
|  2>  nprocs 32
|  3> end
|  4> !RI-MP2 aug-cc-pVTZ aug-cc-pVTZ/C TightSCF
|  5> %maxcore 4500
|  6> *xyzfile 0 2  04_64R.xyz
|  7>
|  8>
|  9>                          ****END OF INPUT****

CARTESIAN COORDINATES (ANGSTROEM)
---------------------------------
  N      0.628076    0.446540   -0.316830
  S      1.212651   -1.113952   -0.294771
  O     -0.110507   -1.926404   -0.636038
  C     -1.036608   -2.294683    0.425033
  C     -1.858162   -1.123698    0.920454
  H     -0.465154   -2.759311    1.228304
  H     -1.660178   -3.046444   -0.056660
  C     -2.644733   -0.414003   -0.174409
  H     -1.204893   -0.410415    1.430383
  H     -2.538243   -1.514112    1.685787
  C     -3.358683    0.833695    0.331959
  C      1.496071    1.537056    0.126535
  C      1.193346    1.713366    1.630355
  C      1.010068    2.766235   -0.645768
  C      2.996766    1.325242   -0.091293
  H      3.378798    0.490750    0.496812
  H      3.525616    2.227840    0.219314
  H      3.218843    1.137198   -1.141493
  H      0.126895    1.874395    1.793037
  H      1.735527    2.589708    1.990719
  H      1.512727    0.838274    2.194920
  H     -0.061078    2.910211   -0.500040
  H      1.199713    2.646926   -1.713403
  H      1.537053    3.656475   -0.297253
  O      1.639918   -1.457721    1.047265
  O      2.082573   -1.291419   -1.427354
  C     -4.133229    1.556624   -0.763396
  H     -2.616665    1.513929    0.764778
  H     -4.038133    0.564032    1.148166
  H     -3.467777    1.863583   -1.574462
  H     -4.629330    2.451195   -0.381145
  H     -4.901191    0.909291   -1.194930
  H     -1.960488   -0.134306   -0.978479
  H     -3.375874   -1.106410   -0.608004

 Total Charge           Charge          ....    0
 Multiplicity           Mult            ....    2
 Number of Electrons    NEL             ....  121
 Basis Dimension        Dim             .... 1108

ORBITAL ENERGIES
----------------
                 SPIN UP ORBITALS
  NO   OCC          E(Eh)            E(eV)
   0   1.0000     -92.238251     -2509.9304
   1   1.0000     -20.619574      -561.0871
   2   1.0000     -20.565998      -559.6292
   3   1.0000     -20.562308      -559.5288
   4   1.0000     -15.640652      -425.6038
   5   1.0000     -11.304735      -307.6175
   6   1.0000     -11.295195      -307.3579
   7   1.0000     -11.234913      -305.7175
   8   1.0000     -11.233379      -305.6758
   9   1.0000     -11.229754      -305.5772
  10   1.0000     -11.224311      -305.4290
  11   1.0000     -11.223909      -305.4181
  12   1.0000     -11.221243      -305.3455
  13   1.0000     -11.215471      -305.1885
  14   1.0000      -9.199021      -250.3181
  15   1.0000      -6.884939      -187.3487
  16   1.0000      -6.883713      -187.3154
  17   1.0000      -6.883567      -187.3114
  18   1.0000      -1.515622       -41.2422
  19   1.0000      -1.392375       -37.8885
  20   1.0000      -1.362754       -37.0824
  21   1.0000      -1.270648       -34.5761
  22   1.0000      -1.097520       -29.8650
  23   1.0000      -1.081403       -29.4265
  24   1.0000      -1.033623       -28.1263
  25   1.0000      -0.957450       -26.0535
  26   1.0000      -0.955015       -25.9873
  27   1.0000      -0.948259       -25.8034
  28   1.0000      -0.882241       -24.0070
  29   1.0000      -0.828620       -22.5479
  30   1.0000      -0.802884       -21.8476
  31   1.0000      -0.770432       -20.9645
  32   1.0000      -0.725047       -19.7295
  33   1.0000      -0.708200       -19.2711
  34   1.0000      -0.692854       -18.8535
  35   1.0000      -0.664244       -18.0750
  36   1.0000      -0.652955       -17.7678
  37   1.0000      -0.641720       -17.4621
  38   1.0000      -0.631435       -17.1822
  39   1.0000      -0.624547       -16.9948
  40   1.0000      -0.603258       -16.4155
  41   1.0000      -0.592536       -16.1237
  42   1.0000      -0.588171       -16.0049
  43   1.0000      -0.569467       -15.4960
  44   1.0000      -0.567042       -15.4300
  45   1.0000      -0.556196       -15.1349
  46   1.0000      -0.546508       -14.8712
  47   1.0000      -0.535164       -14.5626
  48   1.0000      -0.531322       -14.4580
  49   1.0000      -0.526698       -14.3322
  50   1.0000      -0.515688       -14.0326
  51   1.0000      -0.513689       -13.9782
  52   1.0000      -0.512615       -13.9490
  53   1.0000      -0.500664       -13.6238
  54   1.0000      -0.495225       -13.4758
  55   1.0000      -0.489525       -13.3206
  56   1.0000      -0.474090       -12.9007
  57   1.0000      -0.470329       -12.7983
  58   1.0000      -0.460247       -12.5240
  59   1.0000      -0.453166       -12.3313
  60   1.0000      -0.449859       -12.2413
  61   0.0000       0.024367         0.6630
  62   0.0000       0.028150         0.7660
  63   0.0000       0.032275         0.8783
  64   0.0000       0.033755         0.9185
  65   0.0000       0.041695         1.1346

                 SPIN DOWN ORBITALS
  NO   OCC          E(Eh)            E(eV)
   0   1.0000     -92.238904     -2509.9482
   1   1.0000     -20.619990      -561.0984
   2   1.0000     -20.564470      -559.5877
   3   1.0000     -20.560096      -559.4686
   4   1.0000     -15.609333      -424.7515
   5   1.0000     -11.304732      -307.6174
   6   1.0000     -11.297507      -307.4208
   7   1.0000     -11.234814      -305.7148
   8   1.0000     -11.231162      -305.6155
   9   1.0000     -11.229156      -305.5609
  10   1.0000     -11.223908      -305.4181
  11   1.0000     -11.223811      -305.4154
  12   1.0000     -11.221275      -305.3464
  13   1.0000     -11.215471      -305.1885
  14   1.0000      -9.199893      -250.3418
  15   1.0000      -6.885604      -187.3668
  16   1.0000      -6.885274      -187.3578
  17   1.0000      -6.884396      -187.3339
  18   1.0000      -1.511672       -41.1347
  19   1.0000      -1.391075       -37.8531
  20   1.0000      -1.357639       -36.9432
  21   1.0000      -1.198491       -32.6126
  22   1.0000      -1.097071       -29.8528
  23   1.0000      -1.058019       -28.7902
  24   1.0000      -1.030559       -28.0429
  25   1.0000      -0.953418       -25.9438
  26   1.0000      -0.950270       -25.8582
  27   1.0000      -0.945708       -25.7340
  28   1.0000      -0.877470       -23.8772
  29   1.0000      -0.825474       -22.4623
  30   1.0000      -0.801825       -21.8188
  31   1.0000      -0.766041       -20.8450
  32   1.0000      -0.719651       -19.5827
  33   1.0000      -0.696536       -18.9537
  34   1.0000      -0.685484       -18.6530
  35   1.0000      -0.655406       -17.8345
  36   1.0000      -0.642611       -17.4863
  37   1.0000      -0.626513       -17.0483
  38   1.0000      -0.625652       -17.0249
  39   1.0000      -0.616754       -16.7827
  40   1.0000      -0.597939       -16.2708
  41   1.0000      -0.587602       -15.9895
  42   1.0000      -0.573009       -15.5924
  43   1.0000      -0.566127       -15.4051
  44   1.0000      -0.560254       -15.2453
  45   1.0000      -0.554473       -15.0880
  46   1.0000      -0.541410       -14.7325
  47   1.0000      -0.530657       -14.4399
  48   1.0000      -0.519698       -14.1417
  49   1.0000      -0.513017       -13.9599
  50   1.0000      -0.508941       -13.8490
  51   1.0000      -0.507724       -13.8159
  52   1.0000      -0.498130       -13.5548
  53   1.0000      -0.492800       -13.4098
  54   1.0000      -0.487830       -13.2745
  55   1.0000      -0.484704       -13.1895
  56   1.0000      -0.472830       -12.8664
  57   1.0000      -0.470090       -12.7918
  58   1.0000      -0.459432       -12.5018
  59   1.0000      -0.430149       -11.7049
  60   0.0000       0.024366         0.6630
  61   0.0000       0.028001         0.7620
  62   0.0000       0.031647         0.8612
  63   0.0000       0.033522         0.9122
  64   0.0000       0.041420         1.1271

MULLIKEN ATOMIC CHARGES AND SPIN POPULATIONS
--------------------------------------------
   0 N :   -0.391907    1.120853
   1 S :    2.432262   -0.126452
   2 O :   -0.865280   -0.010512
   3 C :   -0.410188   -0.000007
   4 C :   -0.547424    0.007948
   5 H :    0.338111   -0.000375
   6 H :    0.311271   -0.000780
   7 C :   -0.321900   -0.003869
   8 H :    0.274454    0.006663
   9 H :    0.403241   -0.000770
  10 C :   -0.606185   -0.001327
  11 C :    1.836192   -0.175043
  12 C :   -1.226209    0.100502
  13 C :   -1.503744    0.020512
  14 C :   -1.222003    0.011352
  15 H :    0.315157   -0.003494
  16 H :    0.197700   -0.002593
  17 H :    0.289324   -0.004719
  18 H :    0.415097    0.010311
  19 H :    0.163976    0.001251
  20 H :    0.323746    0.003826
  21 H :    0.418500   -0.007624
  22 H :    0.250219   -0.002069
  23 H :    0.247306   -0.000327
  24 O :   -1.025274    0.024587
  25 O :   -1.069662    0.035071
  26 C :   -1.024884    0.000232
  27 H :    0.391709    0.000333
  28 H :    0.216339   -0.000115
  29 H :    0.292673    0.000038
  30 H :    0.251536    0.000006
  31 H :    0.251766    0.000000
  32 H :    0.290449   -0.003153
  33 H :    0.303632   -0.000256
Sum of atomic charges         :    0.0000000

LOEWDIN ATOMIC CHARGES AND SPIN POPULATIONS
-------------------------------------------
   0 N :    0.319026    0.723683
   1 S :   -0.110619    0.073554
   2 O :    0.359193   -0.007641
   3 C :    0.035399   -0.000479
   4 C :    0.257695    0.002677
   5 H :   -0.180459   -0.000135
   6 H :   -0.156138   -0.000191
   7 C :    0.256729   -0.001114
   8 H :   -0.172226    0.004523
   9 H :   -0.133227    0.000507
  10 C :    0.251699   -0.000212
  11 C :   -0.587996    0.091576
  12 C :    0.575475    0.033824
  13 C :    0.570997    0.006081
  14 C :    0.562181    0.003603
  15 H :   -0.182891   -0.000044
  16 H :   -0.155626    0.000291
  17 H :   -0.170831    0.000214
  18 H :   -0.165696    0.002765
  19 H :   -0.153592    0.008331
  20 H :   -0.181669    0.001135
  21 H :   -0.163821   -0.000800
  22 H :   -0.155316    0.001497
  23 H :   -0.156252    0.000581
  24 O :    0.089561    0.023555
  25 O :    0.072482    0.034340
  26 C :    0.579878   -0.000032
  27 H :   -0.150069   -0.000086
  28 H :   -0.142325   -0.000009
  29 H :   -0.168603   -0.000003
  30 H :   -0.171179   -0.000002
  31 H :   -0.168556   -0.000003
  32 H :   -0.168981   -0.001871
  33 H :   -0.134242   -0.000112

  Mayer bond orders larger than 0.100000
B(  0-N ,  1-S ) :   1.0271 B(  0-N , 11-C ) :   0.2947 B(  0-N , 12-C ) :   0.1097
B(  0-N , 13-C ) :   0.1528 B(  0-N , 24-O ) :   0.1281 B(  1-S ,  2-O ) :   0.7807
B(  1-S , 24-O ) :   1.1626 B(  1-S , 25-O ) :   0.9531 B(  2-O ,  3-C ) :   0.6624
B(  3-C ,  4-C ) :   0.8932 B(  3-C ,  5-H ) :   0.9734 B(  3-C ,  6-H ) :   0.9413
B(  4-C ,  7-C ) :   0.8654 B(  4-C ,  8-H ) :   0.9972 B(  4-C ,  9-H ) :   0.8171
B(  7-C ,  8-H ) :   0.1231 B(  7-C , 10-C ) :   0.8750 B(  7-C , 32-H ) :   1.0162
B(  7-C , 33-H ) :   0.8990 B( 10-C , 26-C ) :   0.9228 B( 10-C , 27-H ) :   0.8367
B( 10-C , 28-H ) :   1.0143 B( 11-C , 12-C ) :   0.6386 B( 11-C , 13-C ) :   0.1553
B( 11-C , 14-C ) :   0.2985 B( 11-C , 16-H ) :  -0.1187 B( 11-C , 25-O ) :   0.1557
B( 12-C , 18-H ) :   0.8384 B( 12-C , 19-H ) :   1.1160 B( 12-C , 20-H ) :   0.9800
B( 13-C , 21-H ) :   0.8503 B( 13-C , 22-H ) :   1.0959 B( 13-C , 23-H ) :   1.0944
B( 14-C , 15-H ) :   0.9513 B( 14-C , 16-H ) :   1.1360 B( 14-C , 17-H ) :   1.0316
B( 26-C , 29-H ) :   0.9446 B( 26-C , 30-H ) :   1.0198 B( 26-C , 31-H ) :   0.9914

MP2 TOTAL ENERGY:    -1031.894175612 Eh
FINAL SINGLE POINT ENERGY     -1031.894175611877

DIPOLE MOMENT
-------------
                                X             Y             Z
Electronic contribution:     13.92457     -16.05075      -3.86597
Nuclear contribution   :    -14.98532      17.03520       4.59718
                        -----------------------------------------
Total Dipole Moment    :     -1.06075       0.98445       0.73121
                        -----------------------------------------
Magnitude (a.u.)       :      1.62142
Magnitude (Debye)      :      4.12132

Rotational constants in cm-1:     0.024585     0.015203     0.011274
Rotational constants in MHz :   737.025838   455.765136   337.981160

                             ****ORCA TERMINATED NORMALLY****
TOTAL RUN TIME: 0 days 0 hours 51 minutes 8 seconds 230 msec
