                         Program Version 4.2.1 -  RELEASE  -
|  1> %pal
|  2>  nprocs 32
|  3> end
|  4> !RI-MP2 aug-cc-pVTZ aug-cc-pVTZ/C TightSCF
|  5> %maxcore 4500
|  6> *xyzfile 0 1  10_1R.xyz
|  7>
|  8>
|  9>                          ****END OF INPUT****

CARTESIAN COORDINATES (ANGSTROEM)
---------------------------------
  C      1.807395    0.866110    0.798597
  C      0.507556    0.010686    0.517989
  C      1.286102    2.300738    0.912072
  C      2.840126    0.806991   -0.333410
  C      0.895949   -1.318701   -0.125776
  C     -0.258754    0.944911   -0.411902
  C     -0.196131   -0.200744    1.882056
  C      1.864363   -1.265152   -1.278505
  C      3.171748   -0.601258   -0.818229
  C      3.896823   -1.439094    0.233066
  C      0.161342    2.353293   -0.104270
  C     -2.709685   -0.264844    1.315396
  C     -1.544629   -0.940095    1.962409
  N     -3.139707   -0.480380    0.113004
  O     -4.127149    0.132780   -0.413684
  C     -1.734239   -0.540511   -1.897666
  C     -2.427955   -1.377757   -0.811438
  H      2.259975    0.521381    1.729573
  H      2.037205    3.059166    0.691536
  H      0.875003    2.527398    1.898559
  H      3.747164    1.315198    0.006346
  H      2.467060    1.386182   -1.185347
  O      0.502695   -2.377923    0.309121
  H     -0.323452    0.780266    2.345218
  H      0.503511   -0.752512    2.515764
  H      1.432188   -0.672679   -2.089346
  H      2.025331   -2.284169   -1.630460
  H      3.825254   -0.514375   -1.690910
  H      4.146110   -2.426846   -0.159867
  H      3.290288   -1.593597    1.128719
  H      4.825889   -0.953396    0.539578
  O     -0.303002    3.350507   -0.593297
  H     -1.417899   -1.960645    1.613182
  H     -1.783177   -1.015486    3.027055
  H     -1.719450   -1.990299   -0.268037
  H     -3.188197   -2.013805   -1.260343
  C     -1.128247    0.739020   -1.399361
  H     -2.464757   -0.292768   -2.664893
  H     -0.975074   -1.174426   -2.367218
  H     -1.474658    1.648745   -1.882125
  H     -3.281308    0.484862    1.848706

 Total Charge           Charge          ....    0
 Multiplicity           Mult            ....    1
 Number of Electrons    NEL             ....  148
 Basis Dimension        Dim             .... 1403

ORBITAL ENERGIES
----------------

  NO   OCC          E(Eh)            E(eV)
   0   2.0000     -20.565581      -559.6179
   1   2.0000     -20.548069      -559.1414
   2   2.0000     -20.493305      -557.6512
   3   2.0000     -15.704050      -427.3289
   4   2.0000     -11.346678      -308.7588
   5   2.0000     -11.333988      -308.4135
   6   2.0000     -11.283212      -307.0318
   7   2.0000     -11.277339      -306.8720
   8   2.0000     -11.276185      -306.8406
   9   2.0000     -11.263711      -306.5012
  10   2.0000     -11.263249      -306.4886
  11   2.0000     -11.255397      -306.2749
  12   2.0000     -11.253680      -306.2282
  13   2.0000     -11.252267      -306.1897
  14   2.0000     -11.250333      -306.1371
  15   2.0000     -11.249603      -306.1173
  16   2.0000     -11.246560      -306.0345
  17   2.0000     -11.245852      -306.0152
  18   2.0000     -11.244641      -305.9822
  19   2.0000     -11.232697      -305.6572
  20   2.0000      -1.431340       -38.9487
  21   2.0000      -1.412954       -38.4484
  22   2.0000      -1.394263       -37.9398
  23   2.0000      -1.190869       -32.4052
  24   2.0000      -1.160462       -31.5778
  25   2.0000      -1.119989       -30.4764
  26   2.0000      -1.103149       -30.0182
  27   2.0000      -1.067156       -29.0388
  28   2.0000      -1.028549       -27.9882
  29   2.0000      -1.009665       -27.4744
  30   2.0000      -0.975572       -26.5467
  31   2.0000      -0.969342       -26.3771
  32   2.0000      -0.923372       -25.1262
  33   2.0000      -0.879780       -23.9400
  34   2.0000      -0.853995       -23.2384
  35   2.0000      -0.819956       -22.3121
  36   2.0000      -0.797737       -21.7075
  37   2.0000      -0.764709       -20.8088
  38   2.0000      -0.745712       -20.2919
  39   2.0000      -0.716591       -19.4994
  40   2.0000      -0.698138       -18.9973
  41   2.0000      -0.683439       -18.5973
  42   2.0000      -0.679785       -18.4979
  43   2.0000      -0.673812       -18.3354
  44   2.0000      -0.659589       -17.9483
  45   2.0000      -0.650009       -17.6876
  46   2.0000      -0.642421       -17.4812
  47   2.0000      -0.632839       -17.2204
  48   2.0000      -0.622096       -16.9281
  49   2.0000      -0.614327       -16.7167
  50   2.0000      -0.608707       -16.5638
  51   2.0000      -0.604558       -16.4509
  52   2.0000      -0.589971       -16.0539
  53   2.0000      -0.583211       -15.8700
  54   2.0000      -0.571202       -15.5432
  55   2.0000      -0.557911       -15.1815
  56   2.0000      -0.551553       -15.0085
  57   2.0000      -0.543855       -14.7990
  58   2.0000      -0.542175       -14.7533
  59   2.0000      -0.530169       -14.4266
  60   2.0000      -0.524512       -14.2727
  61   2.0000      -0.523085       -14.2339
  62   2.0000      -0.516406       -14.0521
  63   2.0000      -0.505153       -13.7459
  64   2.0000      -0.502282       -13.6678
  65   2.0000      -0.489100       -13.3091
  66   2.0000      -0.485209       -13.2032
  67   2.0000      -0.472061       -12.8454
  68   2.0000      -0.461665       -12.5626
  69   2.0000      -0.423976       -11.5370
  70   2.0000      -0.404741       -11.0136
  71   2.0000      -0.401208       -10.9174
  72   2.0000      -0.375155       -10.2085
  73   2.0000      -0.325669        -8.8619
  74   0.0000       0.017969         0.4889
  75   0.0000       0.022199         0.6041
  76   0.0000       0.027264         0.7419
  77   0.0000       0.030818         0.8386
  78   0.0000       0.036490         0.9930

MULLIKEN ATOMIC CHARGES
-----------------------
   0 C :   -0.386628
   1 C :    2.284865
   2 C :   -0.813233
   3 C :   -0.647787
   4 C :    1.505106
   5 C :    1.099961
   6 C :   -0.940032
   7 C :   -0.881329
   8 C :   -0.015522
   9 C :   -1.148194
  10 C :    1.005127
  11 C :   -0.900558
  12 C :    0.019475
  13 N :    0.245470
  14 O :   -1.024430
  15 C :   -0.048411
  16 C :   -0.485118
  17 H :    0.356223
  18 H :    0.162567
  19 H :    0.262050
  20 H :    0.437983
  21 H :    0.133220
  22 O :   -1.687341
  23 H :    0.314131
  24 H :    0.111777
  25 H :    0.194361
  26 H :    0.274003
  27 H :    0.429539
  28 H :    0.206036
  29 H :    0.377532
  30 H :    0.199434
  31 O :   -1.368065
  32 H :    0.084875
  33 H :    0.335648
  34 H :    0.350063
  35 H :    0.444253
  36 C :   -1.347049
  37 H :    0.299171
  38 H :    0.224248
  39 H :   -0.328251
  40 H :    0.664829
Sum of atomic charges:   -0.0000000

LOEWDIN ATOMIC CHARGES
----------------------
   0 C :    0.030529
   1 C :   -0.224756
   2 C :    0.333957
   3 C :    0.319955
   4 C :   -0.464931
   5 C :   -0.053027
   6 C :    0.325025
   7 C :    0.319968
   8 C :   -0.004589
   9 C :    0.607118
  10 C :   -0.499947
  11 C :    0.201342
  12 C :    0.315979
  13 N :   -0.270995
  14 O :    0.298908
  15 C :    0.324262
  16 C :    0.241431
  17 H :   -0.123081
  18 H :   -0.131571
  19 H :   -0.138145
  20 H :   -0.119948
  21 H :   -0.129608
  22 O :    0.556501
  23 H :   -0.151510
  24 H :   -0.132829
  25 H :   -0.145448
  26 H :   -0.138486
  27 H :   -0.117207
  28 H :   -0.152116
  29 H :   -0.164505
  30 H :   -0.153035
  31 O :    0.492084
  32 H :   -0.207047
  33 H :   -0.140621
  34 H :   -0.235862
  35 H :   -0.124241
  36 C :    0.272851
  37 H :   -0.149361
  38 H :   -0.146417
  39 H :   -0.169220
  40 H :   -0.151407

  Mayer bond orders larger than 0.100000
B(  0-C ,  1-C ) :   0.8256 B(  0-C ,  2-C ) :   1.1858 B(  0-C ,  3-C ) :   0.7768
B(  0-C ,  4-C ) :  -0.3179 B(  0-C ,  5-C ) :   0.2829 B(  0-C ,  6-C ) :  -0.1112
B(  0-C , 10-C ) :   0.3638 B(  0-C , 17-H ) :   0.9307 B(  0-C , 22-O ) :  -0.1179
B(  0-C , 36-C ) :  -0.1545 B(  1-C ,  2-C ) :  -0.6120 B(  1-C ,  3-C ) :  -0.1073
B(  1-C ,  4-C ) :   1.5001 B(  1-C ,  5-C ) :   1.1365 B(  1-C ,  6-C ) :   0.3972
B(  1-C ,  7-C ) :  -0.1485 B(  1-C ,  9-C ) :  -0.1430 B(  1-C , 10-C ) :   0.3547
B(  1-C , 11-C ) :  -0.2459 B(  1-C , 12-C ) :   0.1365 B(  1-C , 13-N ) :  -0.1786
B(  1-C , 15-C ) :  -0.1171 B(  1-C , 16-C ) :  -0.1021 B(  1-C , 17-H ) :   0.1737
B(  1-C , 19-H ) :  -0.1421 B(  1-C , 22-O ) :  -0.1667 B(  1-C , 23-H ) :   0.1162
B(  1-C , 24-H ) :  -0.5111 B(  1-C , 32-H ) :  -0.1273 B(  1-C , 36-C ) :   0.9727
B(  1-C , 39-H ) :   0.4099 B(  2-C ,  5-C ) :   0.2990 B(  2-C , 10-C ) :   0.9174
B(  2-C , 17-H ) :  -0.2249 B(  2-C , 18-H ) :   1.0899 B(  2-C , 19-H ) :   1.0968
B(  2-C , 36-C ) :  -0.1420 B(  3-C ,  8-C ) :   1.0444 B(  3-C , 20-H ) :   0.7885
B(  3-C , 21-H ) :   1.2568 B(  4-C ,  5-C ) :  -0.2633 B(  4-C ,  7-C ) :   0.9614
B(  4-C , 10-C ) :   0.1466 B(  4-C , 22-O ) :  -0.4207 B(  4-C , 24-H ) :   0.1052
B(  4-C , 34-H ) :  -0.1231 B(  4-C , 36-C ) :  -0.2839 B(  5-C ,  6-C ) :  -0.5628
B(  5-C ,  7-C ) :  -0.1563 B(  5-C , 10-C ) :   0.5173 B(  5-C , 11-C ) :   0.1263
B(  5-C , 13-N ) :   0.1680 B(  5-C , 15-C ) :   0.3779 B(  5-C , 23-H ) :  -0.1207
B(  5-C , 31-O ) :   0.8532 B(  5-C , 36-C ) :  -1.0812 B(  5-C , 39-H ) :  -0.7935
B(  6-C , 10-C ) :  -0.2642 B(  6-C , 11-C ) :   0.3347 B(  6-C , 12-C ) :   0.8097
B(  6-C , 22-O ) :   0.1794 B(  6-C , 23-H ) :   1.0553 B(  6-C , 24-H ) :   1.3161
B(  6-C , 32-H ) :   0.1647 B(  7-C ,  8-C ) :   0.9763 B(  7-C ,  9-C ) :   0.1291
B(  7-C , 22-O ) :   0.4379 B(  7-C , 25-H ) :   1.1517 B(  7-C , 26-H ) :   0.8659
B(  8-C ,  9-C ) :   0.7487 B(  8-C , 27-H ) :   0.8314 B(  9-C , 28-H ) :   1.0853
B(  9-C , 29-H ) :   0.9059 B(  9-C , 30-H ) :   1.0690 B( 10-C , 23-H ) :  -0.1680
B( 10-C , 31-O ) :  -0.8833 B( 10-C , 36-C ) :   0.3556 B( 11-C , 12-C ) :   0.4870
B( 11-C , 13-N ) :   1.8250 B( 11-C , 33-H ) :  -0.1573 B( 11-C , 40-H ) :   0.4625
B( 12-C , 13-N ) :  -0.1834 B( 12-C , 32-H ) :   1.1707 B( 12-C , 33-H ) :   0.8883
B( 13-N , 14-O ) :   0.7118 B( 13-N , 16-C ) :   0.9476 B( 13-N , 34-H ) :   0.1481
B( 13-N , 35-H ) :  -0.1248 B( 13-N , 40-H ) :  -0.1233 B( 15-C , 16-C ) :   0.9741
B( 15-C , 36-C ) :   0.1769 B( 15-C , 37-H ) :   0.9516 B( 15-C , 38-H ) :   0.9607
B( 15-C , 39-H ) :  -0.2249 B( 16-C , 34-H ) :   0.9171 B( 16-C , 35-H ) :   0.8755
B( 23-H , 24-H ) :   0.1016 B( 31-O , 36-C ) :   0.2375 B( 31-O , 39-H ) :   0.1833
B( 36-C , 39-H ) :   2.0059

MP2 TOTAL ENERGY:     -900.985613518 Eh
FINAL SINGLE POINT ENERGY      -900.985613518049

DIPOLE MOMENT
-------------
                                X             Y             Z
Electronic contribution:    -12.25993       4.94322      -1.54095
Nuclear contribution   :     14.86609      -5.96313       2.15557
                        -----------------------------------------
Total Dipole Moment    :      2.60616      -1.01990       0.61462
                        -----------------------------------------
Magnitude (a.u.)       :      2.86531
Magnitude (Debye)      :      7.28305

Rotational constants in cm-1:     0.018490     0.010380     0.008821
Rotational constants in MHz :   554.318986   311.185033   264.456566

                             ****ORCA TERMINATED NORMALLY****
TOTAL RUN TIME: 0 days 1 hours 10 minutes 41 seconds 552 msec
