                         Program Version 4.2.1 -  RELEASE  -
|  1> %pal
|  2>  nprocs 32
|  3> end
|  4> !RI-MP2 aug-cc-pVTZ aug-cc-pVTZ/C TightSCF
|  5> %maxcore 4500
|  6> *xyzfile -1 1  05_6R.xyz
|  7>
|  8>
|  9>                          ****END OF INPUT****

CARTESIAN COORDINATES (ANGSTROEM)
---------------------------------
  C      1.075372    0.593011    1.070561
  C      2.400034    0.861951    0.344585
  C      3.262960   -0.389376    0.095361
  C      2.336297   -1.332404   -0.764449
  C      0.902274   -1.426701   -0.341781
  C      0.305638   -0.558970    0.472502
  H      0.306315   -2.251280   -0.737622
  C     -1.169823   -0.650551    0.790263
  C     -2.025300   -0.056133   -0.333804
  H     -1.393212   -0.123082    1.724642
  H     -1.481857   -1.685477    0.934655
  C     -3.526989   -0.190041   -0.057081
  O     -4.031191   -1.151571    0.455482
  O     -4.239688    0.858934   -0.477431
  N     -1.729463    1.338834   -0.683787
  H     -1.848609   -0.653247   -1.233619
  O      4.459293   -0.236543   -0.413208
  O      2.673236    1.996721    0.023440
  H     -3.565539    1.485831   -0.830121
  H     -1.455642    1.864108    0.140364
  H     -0.944726    1.390619   -1.322680
  H      2.408545   -0.963628   -1.795585
  H      2.809257   -2.318530   -0.767668
  H      0.496836    1.522242    1.055312
  H      1.287847    0.379685    2.125786
  H      3.231045   -0.864118    1.129829

 Total Charge           Charge          ....   -1
 Multiplicity           Mult            ....    1
 Number of Electrons    NEL             ....  106
 Basis Dimension        Dim             ....  920

ORBITAL ENERGIES
----------------

  NO   OCC          E(Eh)            E(eV)
   0   2.0000     -20.517882      -558.3200
   1   2.0000     -20.457702      -556.6824
   2   2.0000     -20.395294      -554.9842
   3   2.0000     -20.247873      -550.9726
   4   2.0000     -15.493510      -421.5998
   5   2.0000     -11.293840      -307.3210
   6   2.0000     -11.203969      -304.8755
   7   2.0000     -11.166845      -303.8653
   8   2.0000     -11.147746      -303.3456
   9   2.0000     -11.128807      -302.8302
  10   2.0000     -11.118217      -302.5421
  11   2.0000     -11.116591      -302.4978
  12   2.0000     -11.103180      -302.1329
  13   2.0000     -11.080226      -301.5083
  14   2.0000      -1.376129       -37.4464
  15   2.0000      -1.279208       -34.8090
  16   2.0000      -1.235264       -33.6132
  17   2.0000      -1.137389       -30.9499
  18   2.0000      -1.074166       -29.2295
  19   2.0000      -1.010415       -27.4948
  20   2.0000      -0.931564       -25.3492
  21   2.0000      -0.872284       -23.7361
  22   2.0000      -0.843181       -22.9441
  23   2.0000      -0.779547       -21.2126
  24   2.0000      -0.724037       -19.7020
  25   2.0000      -0.701675       -19.0935
  26   2.0000      -0.658594       -17.9213
  27   2.0000      -0.625563       -17.0224
  28   2.0000      -0.601253       -16.3609
  29   2.0000      -0.582425       -15.8486
  30   2.0000      -0.551723       -15.0131
  31   2.0000      -0.547028       -14.8854
  32   2.0000      -0.537388       -14.6231
  33   2.0000      -0.521012       -14.1774
  34   2.0000      -0.506570       -13.7845
  35   2.0000      -0.493931       -13.4405
  36   2.0000      -0.480891       -13.0857
  37   2.0000      -0.465264       -12.6605
  38   2.0000      -0.453704       -12.3459
  39   2.0000      -0.442651       -12.0452
  40   2.0000      -0.422236       -11.4896
  41   2.0000      -0.402155       -10.9432
  42   2.0000      -0.390916       -10.6374
  43   2.0000      -0.383220       -10.4280
  44   2.0000      -0.379495       -10.3266
  45   2.0000      -0.372790       -10.1441
  46   2.0000      -0.341813        -9.3012
  47   2.0000      -0.337218        -9.1762
  48   2.0000      -0.326341        -8.8802
  49   2.0000      -0.271515        -7.3883
  50   2.0000      -0.229221        -6.2374
  51   2.0000      -0.158825        -4.3218
  52   2.0000      -0.158020        -4.2999
  53   0.0000       0.096906         2.6370
  54   0.0000       0.104002         2.8300
  55   0.0000       0.106628         2.9015
  56   0.0000       0.119441         3.2502
  57   0.0000       0.120219         3.2713

MULLIKEN ATOMIC CHARGES
-----------------------
   0 C :   -0.242938
   1 C :    0.406573
   2 C :    0.840936
   3 C :   -0.486311
   4 C :   -1.007140
   5 C :    1.119266
   6 H :    0.099808
   7 C :   -0.503882
   8 C :    0.554260
   9 H :    0.160618
  10 H :    0.247332
  11 C :    0.429270
  12 O :   -0.845992
  13 O :   -0.597204
  14 N :   -0.628738
  15 H :    0.287314
  16 O :   -1.289607
  17 O :   -1.078830
  18 H :    0.273795
  19 H :    0.077027
  20 H :    0.113480
  21 H :    0.238665
  22 H :    0.229372
  23 H :    0.136357
  24 H :    0.330920
  25 H :    0.135651
Sum of atomic charges:   -1.0000000

LOEWDIN ATOMIC CHARGES
----------------------
   0 C :    0.253099
   1 C :   -0.524474
   2 C :   -0.653608
   3 C :    0.234422
   4 C :    0.236596
   5 C :   -0.096800
   6 H :   -0.171648
   7 C :    0.277954
   8 C :   -0.109677
   9 H :   -0.139673
  10 H :   -0.154497
  11 C :   -0.785594
  12 O :    0.429530
  13 O :    0.834349
  14 N :    0.880865
  15 H :   -0.132094
  16 O :    0.226687
  17 O :    0.433457
  18 H :   -0.608825
  19 H :   -0.300359
  20 H :   -0.276927
  21 H :   -0.167388
  22 H :   -0.169481
  23 H :   -0.192517
  24 H :   -0.145108
  25 H :   -0.178287

  Mayer bond orders larger than 0.100000
B(  0-C ,  1-C ) :   0.8879 B(  0-C ,  5-C ) :   0.5732 B(  0-C , 23-H ) :   0.9837
B(  0-C , 24-H ) :   1.0322 B(  1-C ,  2-C ) :   0.8119 B(  1-C ,  3-C ) :   0.2530
B(  1-C ,  4-C ) :  -0.1569 B(  1-C ,  5-C ) :   0.1317 B(  1-C , 16-O ) :   0.1655
B(  1-C , 17-O ) :   0.7741 B(  2-C ,  3-C ) :   0.9066 B(  2-C , 16-O ) :   0.5526
B(  2-C , 25-H ) :   1.1061 B(  3-C ,  4-C ) :   0.6122 B(  3-C , 16-O ) :   0.1484
B(  3-C , 17-O ) :   0.1159 B(  3-C , 21-H ) :   0.9582 B(  3-C , 22-H ) :   1.0322
B(  4-C ,  5-C ) :   1.0400 B(  4-C ,  6-H ) :   1.2618 B(  4-C ,  7-C ) :   0.1580
B(  4-C , 22-H ) :  -0.1099 B(  5-C ,  6-H ) :  -0.1715 B(  5-C ,  7-C ) :   0.7798
B(  5-C , 24-H ) :  -0.1220 B(  7-C ,  8-C ) :   0.9188 B(  7-C ,  9-H ) :   1.0850
B(  7-C , 10-H ) :   0.9906 B(  8-C , 11-C ) :   0.5546 B(  8-C , 13-O ) :   0.1352
B(  8-C , 14-N ) :   0.4845 B(  8-C , 15-H ) :   0.9619 B( 10-H , 12-O ) :   0.1092
B( 11-C , 12-O ) :   1.3055 B( 11-C , 13-O ) :   0.6869 B( 11-C , 14-N ) :   0.1289
B( 11-C , 15-H ) :  -0.1092 B( 13-O , 18-H ) :   0.8240 B( 14-N , 18-H ) :   0.1436
B( 14-N , 19-H ) :   1.0259 B( 14-N , 20-H ) :   1.0060 B( 17-O , 23-H ) :   0.1657

MP2 TOTAL ENERGY:     -704.622579399 Eh
FINAL SINGLE POINT ENERGY      -704.622579399036

DIPOLE MOMENT
-------------
                                X             Y             Z
Electronic contribution:     -4.74000       2.20613      -0.07198
Nuclear contribution   :     -0.17694      -2.17485       0.41071
                        -----------------------------------------
Total Dipole Moment    :     -4.91694       0.03128       0.33873
                        -----------------------------------------
Magnitude (a.u.)       :      4.92869
Magnitude (Debye)      :     12.52773

Rotational constants in cm-1:     0.058311     0.010246     0.009403
Rotational constants in MHz :  1748.114689   307.181544   281.885412

                             ****ORCA TERMINATED NORMALLY****
TOTAL RUN TIME: 0 days 0 hours 13 minutes 45 seconds 555 msec
