                         Program Version 4.2.1 -  RELEASE  -
|  1> %pal
|  2>  nprocs 32
|  3> end
|  4> !RI-MP2 aug-cc-pVTZ aug-cc-pVTZ/C TightSCF
|  5> %maxcore 4500
|  6> *xyzfile 1 1  05_9TS.xyz
|  7>
|  8>
|  9>                          ****END OF INPUT****

CARTESIAN COORDINATES (ANGSTROEM)
---------------------------------
  C      2.350238   -0.249184    0.104030
  C      1.502895   -0.929896   -0.961935
  C      0.292990   -1.561049   -0.879687
  C     -0.562450   -1.849354    0.306541
  C     -1.993986   -1.398734    0.072215
  C     -2.495173   -0.313185    0.656388
  C     -1.792166    0.604403    1.610392
  C     -1.411072    1.964399    0.993292
  C     -0.645001    1.937386   -0.308210
  C      0.639083    1.525649   -0.436919
  C      1.547805    0.987448    0.634778
  H      0.980474    0.713456    1.522670
  C      3.634560    0.238442   -0.580330
  H      4.287039    0.719851    0.148706
  H      3.424782    0.963254   -1.370951
  H      4.185735   -0.593920   -1.023057
  C      2.722047   -1.195465    1.250766
  H      3.329318   -0.655526    1.979525
  H      3.312623   -2.038831    0.889141
  H      1.851257   -1.589998    1.773431
  C     -2.810243   -2.269530   -0.838931
  H     -3.808539   -1.860163   -0.987342
  H     -2.915204   -3.273676   -0.417923
  H     -2.351206   -2.386894   -1.825311
  H     -0.140291   -1.428814    1.212280
  H     -0.546829   -2.940399    0.425692
  H     -3.529591   -0.060145    0.437357
  H     -2.454041    0.812366    2.454442
  H     -0.911850    0.128515    2.037829
  H      2.269855    1.746019    0.945118
  H      1.122343    1.777972   -1.380753
  C     -1.377003    2.478874   -1.492315
  H     -2.314003    1.932599   -1.633439
  H     -0.791800    2.431511   -2.410060
  H     -1.652206    3.521637   -1.308374
  H     -2.326903    2.534254    0.827774
  H     -0.826449    2.524910    1.728127
  H      1.913698   -0.891606   -1.968716
  H      0.381787    0.005938   -1.008176
  H     -0.105137   -1.913546   -1.828446

 Total Charge           Charge          ....    1
 Multiplicity           Mult            ....    1
 Number of Electrons    NEL             ....  114
 Basis Dimension        Dim             .... 1265

ORBITAL ENERGIES
----------------

  NO   OCC          E(Eh)            E(eV)
   0   2.0000     -11.455576      -311.7221
   1   2.0000     -11.437718      -311.2361
   2   2.0000     -11.409776      -310.4758
   3   2.0000     -11.396043      -310.1021
   4   2.0000     -11.387149      -309.8601
   5   2.0000     -11.369986      -309.3931
   6   2.0000     -11.368900      -309.3635
   7   2.0000     -11.366309      -309.2930
   8   2.0000     -11.361893      -309.1728
   9   2.0000     -11.358043      -309.0681
  10   2.0000     -11.352007      -308.9038
  11   2.0000     -11.351255      -308.8834
  12   2.0000     -11.347806      -308.7895
  13   2.0000     -11.345598      -308.7294
  14   2.0000     -11.339699      -308.5689
  15   2.0000      -1.317713       -35.8568
  16   2.0000      -1.258175       -34.2367
  17   2.0000      -1.253399       -34.1067
  18   2.0000      -1.202350       -32.7176
  19   2.0000      -1.160544       -31.5800
  20   2.0000      -1.122497       -30.5447
  21   2.0000      -1.101848       -29.9828
  22   2.0000      -1.068815       -29.0839
  23   2.0000      -1.063323       -28.9345
  24   2.0000      -1.024831       -27.8871
  25   2.0000      -0.982980       -26.7482
  26   2.0000      -0.964732       -26.2517
  27   2.0000      -0.879931       -23.9441
  28   2.0000      -0.861324       -23.4378
  29   2.0000      -0.854214       -23.2443
  30   2.0000      -0.835152       -22.7256
  31   2.0000      -0.788891       -21.4668
  32   2.0000      -0.783619       -21.3234
  33   2.0000      -0.763840       -20.7852
  34   2.0000      -0.747554       -20.3420
  35   2.0000      -0.741910       -20.1884
  36   2.0000      -0.732805       -19.9406
  37   2.0000      -0.724954       -19.7270
  38   2.0000      -0.713943       -19.4274
  39   2.0000      -0.711738       -19.3674
  40   2.0000      -0.690060       -18.7775
  41   2.0000      -0.688305       -18.7297
  42   2.0000      -0.679098       -18.4792
  43   2.0000      -0.674475       -18.3534
  44   2.0000      -0.668758       -18.1978
  45   2.0000      -0.660679       -17.9780
  46   2.0000      -0.651959       -17.7407
  47   2.0000      -0.645566       -17.5667
  48   2.0000      -0.639160       -17.3924
  49   2.0000      -0.624104       -16.9827
  50   2.0000      -0.618844       -16.8396
  51   2.0000      -0.608234       -16.5509
  52   2.0000      -0.597429       -16.2569
  53   2.0000      -0.594594       -16.1797
  54   2.0000      -0.583602       -15.8806
  55   2.0000      -0.482489       -13.1292
  56   2.0000      -0.473065       -12.8728
  57   0.0000      -0.068500        -1.8640
  58   0.0000      -0.057409        -1.5622
  59   0.0000      -0.055601        -1.5130
  60   0.0000      -0.051509        -1.4016
  61   0.0000      -0.049503        -1.3470

MULLIKEN ATOMIC CHARGES
-----------------------
   0 C :    2.209121
   1 C :   -0.154389
   2 C :   -0.595329
   3 C :   -0.012591
   4 C :    1.200774
   5 C :   -0.612000
   6 C :   -0.225998
   7 C :   -0.320727
   8 C :    1.035238
   9 C :   -0.592508
  10 C :   -0.656420
  11 H :    0.221545
  12 C :   -1.577429
  13 H :    0.237107
  14 H :    0.279439
  15 H :    0.221827
  16 C :   -1.432918
  17 H :    0.162652
  18 H :    0.235813
  19 H :    0.382411
  20 C :   -1.256166
  21 H :    0.230438
  22 H :    0.255574
  23 H :    0.270801
  24 H :    0.280324
  25 H :    0.220659
  26 H :   -0.369831
  27 H :    0.500070
  28 H :    0.150141
  29 H :    0.299128
  30 H :    0.163525
  31 C :   -1.271602
  32 H :    0.303722
  33 H :    0.238159
  34 H :    0.258458
  35 H :    0.352417
  36 H :    0.192615
  37 H :   -0.114991
  38 H :   -0.057178
  39 H :    0.348121
Sum of atomic charges:    1.0000000

LOEWDIN ATOMIC CHARGES
----------------------
   0 C :   -0.267348
   1 C :    0.335341
   2 C :    0.367438
   3 C :    0.342213
   4 C :   -0.060771
   5 C :    0.274971
   6 C :    0.311188
   7 C :    0.335147
   8 C :   -0.013849
   9 C :    0.249916
  10 C :    0.344291
  11 H :   -0.168922
  12 C :    0.607216
  13 H :   -0.142312
  14 H :   -0.146500
  15 H :   -0.141415
  16 C :    0.629788
  17 H :   -0.136770
  18 H :   -0.138429
  19 H :   -0.171832
  20 C :    0.593072
  21 H :   -0.164251
  22 H :   -0.151045
  23 H :   -0.166643
  24 H :   -0.200770
  25 H :   -0.108075
  26 H :   -0.159454
  27 H :   -0.125255
  28 H :   -0.195119
  29 H :   -0.116033
  30 H :   -0.146652
  31 C :    0.620317
  32 H :   -0.147177
  33 H :   -0.157838
  34 H :   -0.141062
  35 H :   -0.142671
  36 H :   -0.123793
  37 H :   -0.108992
  38 H :   -0.152907
  39 H :   -0.115010

  Mayer bond orders larger than 0.100000
B(  0-C ,  1-C ) :   0.6815 B(  0-C ,  2-C ) :   0.1734 B(  0-C ,  8-C ) :   0.2169
B(  0-C , 10-C ) :   0.8852 B(  0-C , 12-C ) :  -0.1272 B(  0-C , 13-H ) :  -0.1351
B(  0-C , 14-H ) :  -0.1483 B(  0-C , 15-H ) :  -0.1747 B(  0-C , 16-C ) :   0.1028
B(  0-C , 17-H ) :  -0.2204 B(  0-C , 18-H ) :  -0.1492 B(  0-C , 30-H ) :  -0.1273
B(  0-C , 37-H ) :  -0.1378 B(  0-C , 38-H ) :  -0.1106 B(  1-C ,  2-C ) :   0.9646
B(  1-C ,  9-C ) :  -0.2405 B(  1-C , 12-C ) :  -0.1595 B(  1-C , 16-C ) :  -0.1196
B(  1-C , 30-H ) :   0.1890 B(  1-C , 37-H ) :   1.3909 B(  1-C , 38-H ) :   0.4465
B(  1-C , 39-H ) :  -0.1077 B(  2-C ,  3-C ) :   0.7634 B(  2-C ,  4-C ) :   0.2529
B(  2-C ,  8-C ) :   0.1460 B(  2-C , 16-C ) :  -0.1530 B(  2-C , 24-H ) :   0.1614
B(  2-C , 30-H ) :  -0.1616 B(  2-C , 37-H ) :  -0.5145 B(  2-C , 38-H ) :   0.2324
B(  2-C , 39-H ) :   0.8470 B(  3-C ,  4-C ) :   0.7054 B(  3-C , 24-H ) :   0.8441
B(  3-C , 25-H ) :   1.1252 B(  3-C , 26-H ) :   0.1495 B(  3-C , 37-H ) :   0.1079
B(  3-C , 38-H ) :   0.1261 B(  3-C , 39-H ) :  -0.1056 B(  4-C ,  5-C ) :   1.3689
B(  4-C ,  6-C ) :   0.2134 B(  4-C ,  9-C ) :   0.1131 B(  4-C , 20-C ) :   0.1549
B(  4-C , 22-H ) :  -0.1672 B(  4-C , 23-H ) :  -0.1950 B(  4-C , 24-H ) :   0.1536
B(  4-C , 25-H ) :  -0.1246 B(  4-C , 26-H ) :  -0.4562 B(  4-C , 39-H ) :   0.2309
B(  5-C ,  6-C ) :   0.7031 B(  5-C ,  7-C ) :   0.1778 B(  5-C , 26-H ) :   1.9082
B(  5-C , 27-H ) :  -0.1100 B(  5-C , 28-H ) :   0.1047 B(  5-C , 39-H ) :  -0.1482
B(  6-C ,  7-C ) :   0.9178 B(  6-C ,  8-C ) :   0.1007 B(  6-C , 27-H ) :   0.8974
B(  6-C , 28-H ) :   1.0032 B(  7-C ,  8-C ) :   0.7041 B(  7-C , 10-C ) :  -0.1300
B(  7-C , 35-H ) :   0.8715 B(  7-C , 36-H ) :   1.0703 B(  8-C ,  9-C ) :   1.4966
B(  8-C , 10-C ) :  -0.1381 B(  8-C , 30-H ) :  -0.1397 B(  8-C , 31-C ) :   0.2346
B(  8-C , 34-H ) :  -0.1216 B(  8-C , 37-H ) :  -0.1502 B(  8-C , 38-H ) :  -0.1847
B(  9-C , 10-C ) :   1.2936 B(  9-C , 11-H ) :   0.1806 B(  9-C , 29-H ) :  -0.1194
B(  9-C , 30-H ) :   1.0233 B(  9-C , 31-C ) :   0.1080 B(  9-C , 38-H ) :   0.6844
B( 10-C , 11-H ) :   0.9877 B( 10-C , 12-C ) :   0.1280 B( 10-C , 29-H ) :   0.9675
B( 10-C , 38-H ) :   0.2562 B( 12-C , 13-H ) :   1.1592 B( 12-C , 14-H ) :   1.1419
B( 12-C , 15-H ) :   1.2033 B( 12-C , 16-C ) :   0.1325 B( 16-C , 17-H ) :   1.2672
B( 16-C , 18-H ) :   1.1574 B( 16-C , 19-H ) :   0.9491 B( 20-C , 21-H ) :   1.1051
B( 20-C , 22-H ) :   1.1209 B( 20-C , 23-H ) :   1.0539 B( 26-H , 27-H ) :  -0.1945
B( 26-H , 28-H ) :   0.1819 B( 30-H , 38-H ) :   0.1452 B( 31-C , 32-H ) :   1.0454
B( 31-C , 33-H ) :   1.0660 B( 31-C , 34-H ) :   1.1230 B( 37-H , 38-H ) :   0.2006
B( 37-H , 39-H ) :  -0.1120

MP2 TOTAL ENERGY:     -585.028379078 Eh
FINAL SINGLE POINT ENERGY      -585.028379077981

DIPOLE MOMENT
-------------
                                X             Y             Z
Electronic contribution:     -2.13855      -0.42187       0.17221
Nuclear contribution   :      2.50811       0.18801      -0.82079
                        -----------------------------------------
Total Dipole Moment    :      0.36956      -0.23387      -0.64858
                        -----------------------------------------
Magnitude (a.u.)       :      0.78226
Magnitude (Debye)      :      1.98834

Rotational constants in cm-1:     0.025044     0.016416     0.012792
Rotational constants in MHz :   750.792344   492.146055   383.493203

                             ****ORCA TERMINATED NORMALLY****
TOTAL RUN TIME: 0 days 0 hours 44 minutes 24 seconds 24 msec
