                         Program Version 4.2.1 -  RELEASE  -
|  1> %pal
|  2>  nprocs 32
|  3> end
|  4> !RI-MP2 aug-cc-pVTZ aug-cc-pVTZ/C TightSCF
|  5> %maxcore 4500
|  6> *xyzfile -1 1  05_2R.xyz
|  7>
|  8>
|  9>                          ****END OF INPUT****

CARTESIAN COORDINATES (ANGSTROEM)
---------------------------------
  O      0.578012    1.821886   -0.971547
  C      0.570864    0.857472   -0.238064
  C      1.674528   -0.216113   -0.279960
  O      2.363363   -0.114426    1.011320
  O      1.182266   -1.436383   -0.461251
  C     -0.571920    0.639028    0.746185
  H      2.408434    0.117512   -1.037603
  C     -1.766070   -0.128603    0.175604
  H     -0.941762    1.608548    1.073447
  H     -0.192751    0.080666    1.604696
  O     -2.915977    0.255904    0.370495
  N     -1.435898   -1.234430   -0.503112
  H      2.270241   -1.020064    1.329614
  H     -0.409090   -1.488682   -0.580281
  H     -2.189510   -1.783522   -0.882811

 Total Charge           Charge          ....   -1
 Multiplicity           Mult            ....    1
 Number of Electrons    NEL             ....   70
 Basis Dimension        Dim             ....  552

ORBITAL ENERGIES
----------------

  NO   OCC          E(Eh)            E(eV)
   0   2.0000     -20.406839      -555.2983
   1   2.0000     -20.397464      -555.0432
   2   2.0000     -20.376111      -554.4622
   3   2.0000     -20.308366      -552.6187
   4   2.0000     -15.417176      -419.5227
   5   2.0000     -11.209145      -305.0164
   6   2.0000     -11.178317      -304.1775
   7   2.0000     -11.159783      -303.6731
   8   2.0000     -11.100303      -302.0546
   9   2.0000      -1.250401       -34.0251
  10   2.0000      -1.233296       -33.5597
  11   2.0000      -1.211475       -32.9659
  12   2.0000      -1.101393       -29.9704
  13   2.0000      -1.054729       -28.7006
  14   2.0000      -0.887612       -24.1532
  15   2.0000      -0.752276       -20.4705
  16   2.0000      -0.656202       -17.8562
  17   2.0000      -0.593399       -16.1472
  18   2.0000      -0.576582       -15.6896
  19   2.0000      -0.527643       -14.3579
  20   2.0000      -0.511438       -13.9169
  21   2.0000      -0.494416       -13.4538
  22   2.0000      -0.487027       -13.2527
  23   2.0000      -0.456537       -12.4230
  24   2.0000      -0.435521       -11.8511
  25   2.0000      -0.425851       -11.5880
  26   2.0000      -0.394250       -10.7281
  27   2.0000      -0.377069       -10.2606
  28   2.0000      -0.365842        -9.9551
  29   2.0000      -0.328354        -8.9350
  30   2.0000      -0.290951        -7.9172
  31   2.0000      -0.284423        -7.7395
  32   2.0000      -0.263465        -7.1692
  33   2.0000      -0.232205        -6.3186
  34   2.0000      -0.204441        -5.5631
  35   0.0000       0.121167         3.2971
  36   0.0000       0.127002         3.4559
  37   0.0000       0.131756         3.5853
  38   0.0000       0.135422         3.6850
  39   0.0000       0.149992         4.0815

MULLIKEN ATOMIC CHARGES
-----------------------
   0 O :   -0.946229
   1 C :    0.413741
   2 C :    0.693765
   3 O :   -0.666295
   4 O :   -0.970338
   5 C :   -0.043085
   6 H :    0.335191
   7 C :    0.417275
   8 H :    0.202578
   9 H :    0.317980
  10 O :   -0.919110
  11 N :   -0.413135
  12 H :    0.168604
  13 H :    0.273738
  14 H :    0.135319
Sum of atomic charges:   -1.0000000

LOEWDIN ATOMIC CHARGES
----------------------
   0 O :    0.432691
   1 C :   -0.540390
   2 C :   -0.752351
   3 O :    0.748828
   4 O :    0.422755
   5 C :    0.263442
   6 H :   -0.207088
   7 C :   -0.714595
   8 H :   -0.185801
   9 H :   -0.174582
  10 O :    0.375310
  11 N :    0.825768
  12 H :   -0.584187
  13 H :   -0.606900
  14 H :   -0.302900

  Mayer bond orders larger than 0.100000
B(  0-O ,  1-C ) :   1.0949 B(  1-C ,  2-C ) :   0.7270 B(  1-C ,  5-C ) :   0.8438
B(  1-C ,  7-C ) :   0.1853 B(  2-C ,  3-O ) :   0.6886 B(  2-C ,  4-O ) :   0.9552
B(  2-C ,  6-H ) :   1.0028 B(  3-O , 12-H ) :   0.9723 B(  4-O , 13-H ) :   0.1838
B(  5-C ,  7-C ) :   0.5822 B(  5-C ,  8-H ) :   1.0187 B(  5-C ,  9-H ) :   0.9027
B(  7-C , 10-O ) :   1.2619 B(  7-C , 11-N ) :   1.0814 B( 11-N , 13-H ) :   0.8608
B( 11-N , 14-H ) :   0.9990

MP2 TOTAL ENERGY:     -510.952119714 Eh
FINAL SINGLE POINT ENERGY      -510.952119714193

DIPOLE MOMENT
-------------
                                X             Y             Z
Electronic contribution:     -1.12444       2.02163      -0.95063
Nuclear contribution   :      0.93802      -2.43731       1.47476
                        -----------------------------------------
Total Dipole Moment    :     -0.18642      -0.41568       0.52413
                        -----------------------------------------
Magnitude (a.u.)       :      0.69445
Magnitude (Debye)      :      1.76515

Rotational constants in cm-1:     0.089054     0.038765     0.033033
Rotational constants in MHz :  2669.781736  1162.151430   990.299291

                             ****ORCA TERMINATED NORMALLY****
TOTAL RUN TIME: 0 days 0 hours 2 minutes 41 seconds 241 msec
