                         Program Version 4.2.1 -  RELEASE  -
|  1> %pal
|  2>  nprocs 32
|  3> end
|  4> !RI-MP2 aug-cc-pVTZ aug-cc-pVTZ/C TightSCF
|  5> %maxcore 4500
|  6> *xyzfile 0 2  01_18P.xyz
|  7>
|  8>
|  9>                          ****END OF INPUT****

CARTESIAN COORDINATES (ANGSTROEM)
---------------------------------
  C      0.317958   -0.371629    0.473654
  C     -0.839777   -1.375732    0.557430
  C     -1.916713   -0.846091   -0.392110
  H     -1.228733   -1.399827    1.578690
  H     -0.484441   -2.376672    0.313540
  C     -1.780168    0.666976   -0.245471
  H     -2.916033   -1.213407   -0.152211
  H     -1.693132   -1.142080   -1.421133
  C     -0.247821    0.891556   -0.246529
  H     -2.199742    0.992250    0.712300
  H     -2.275558    1.238862   -1.031733
  C      0.182988    2.188370    0.325598
  H      0.447519    3.028569   -0.302866
  H      0.134186    2.353903    1.396132
  O      1.380922   -0.968725   -0.246786
  C      2.569336   -0.215257   -0.237383
  H      2.909329   -0.027767    0.789546
  H      2.448412    0.750557   -0.741761
  H      3.324167   -0.798358   -0.763482
  H      0.686524   -0.104277    1.473242
  H      0.085310    0.818888   -1.287111

 Total Charge           Charge          ....    0
 Multiplicity           Mult            ....    2
 Number of Electrons    NEL             ....   63
 Basis Dimension        Dim             ....  667

ORBITAL ENERGIES
----------------
                 SPIN UP ORBITALS
  NO   OCC          E(Eh)            E(eV)
   0   1.0000     -20.549263      -559.1739
   1   1.0000     -11.272524      -306.7410
   2   1.0000     -11.263996      -306.5089
   3   1.0000     -11.228942      -305.5550
   4   1.0000     -11.223116      -305.3965
   5   1.0000     -11.218752      -305.2778
   6   1.0000     -11.214032      -305.1493
   7   1.0000     -11.211374      -305.0770
   8   1.0000      -1.371473       -37.3197
   9   1.0000      -1.125675       -30.6312
  10   1.0000      -1.018708       -27.7205
  11   1.0000      -0.972637       -26.4668
  12   1.0000      -0.908889       -24.7321
  13   1.0000      -0.874210       -23.7885
  14   1.0000      -0.786583       -21.4040
  15   1.0000      -0.762978       -20.7617
  16   1.0000      -0.674960       -18.3666
  17   1.0000      -0.655881       -17.8474
  18   1.0000      -0.636513       -17.3204
  19   1.0000      -0.604755       -16.4562
  20   1.0000      -0.597426       -16.2568
  21   1.0000      -0.593092       -16.1389
  22   1.0000      -0.546791       -14.8789
  23   1.0000      -0.526994       -14.3402
  24   1.0000      -0.500064       -13.6074
  25   1.0000      -0.486761       -13.2454
  26   1.0000      -0.486222       -13.2308
  27   1.0000      -0.471076       -12.8186
  28   1.0000      -0.463094       -12.6014
  29   1.0000      -0.455206       -12.3868
  30   1.0000      -0.414719       -11.2851
  31   1.0000      -0.339674        -9.2430
  32   0.0000       0.029501         0.8028
  33   0.0000       0.034502         0.9388
  34   0.0000       0.035963         0.9786
  35   0.0000       0.038444         1.0461
  36   0.0000       0.050655         1.3784

                 SPIN DOWN ORBITALS
  NO   OCC          E(Eh)            E(eV)
   0   1.0000     -20.549141      -559.1706
   1   1.0000     -11.271169      -306.7041
   2   1.0000     -11.263905      -306.5064
   3   1.0000     -11.226413      -305.4862
   4   1.0000     -11.216205      -305.2084
   5   1.0000     -11.213893      -305.1455
   6   1.0000     -11.211388      -305.0774
   7   1.0000     -11.205551      -304.9185
   8   1.0000      -1.371002       -37.3069
   9   1.0000      -1.119692       -30.4684
  10   1.0000      -0.992375       -27.0039
  11   1.0000      -0.969544       -26.3826
  12   1.0000      -0.900690       -24.5090
  13   1.0000      -0.833383       -22.6775
  14   1.0000      -0.781200       -21.2575
  15   1.0000      -0.755713       -20.5640
  16   1.0000      -0.672642       -18.3035
  17   1.0000      -0.652586       -17.7578
  18   1.0000      -0.634844       -17.2750
  19   1.0000      -0.599086       -16.3019
  20   1.0000      -0.596250       -16.2248
  21   1.0000      -0.588307       -16.0086
  22   1.0000      -0.540396       -14.7049
  23   1.0000      -0.520909       -14.1747
  24   1.0000      -0.487641       -13.2694
  25   1.0000      -0.483596       -13.1593
  26   1.0000      -0.472336       -12.8529
  27   1.0000      -0.469908       -12.7869
  28   1.0000      -0.461021       -12.5450
  29   1.0000      -0.450971       -12.2716
  30   1.0000      -0.405358       -11.0303
  31   0.0000       0.029898         0.8136
  32   0.0000       0.034283         0.9329
  33   0.0000       0.035938         0.9779
  34   0.0000       0.038162         1.0384
  35   0.0000       0.050653         1.3783

MULLIKEN ATOMIC CHARGES AND SPIN POPULATIONS
--------------------------------------------
   0 C :    0.471694    0.043807
   1 C :   -0.762082    0.005546
   2 C :   -0.627903    0.005097
   3 H :    0.114947   -0.001090
   4 H :    0.378406    0.001581
   5 C :   -0.717026    0.095457
   6 H :    0.343365    0.003218
   7 H :    0.165354   -0.000924
   8 C :    0.649116   -0.211498
   9 H :    0.159797   -0.004183
  10 H :    0.340761   -0.005495
  11 C :   -1.155451    1.287777
  12 H :    0.402217   -0.057211
  13 H :    0.199039   -0.119215
  14 O :   -0.796119    0.000930
  15 C :   -0.958849    0.001069
  16 H :    0.326514   -0.000946
  17 H :    0.358293   -0.009059
  18 H :    0.322064    0.002595
  19 H :    0.517407   -0.003218
  20 H :    0.268455   -0.034239
Sum of atomic charges         :   -0.0000000

LOEWDIN ATOMIC CHARGES AND SPIN POPULATIONS
-------------------------------------------
   0 C :   -0.247324    0.019529
   1 C :    0.316699    0.001617
   2 C :    0.297060    0.006671
   3 H :   -0.143411    0.000012
   4 H :   -0.147960    0.000443
   5 C :    0.298776    0.035716
   6 H :   -0.141158    0.001924
   7 H :   -0.138556    0.000295
   8 C :   -0.058055    0.110182
   9 H :   -0.140564    0.005630
  10 H :   -0.135634    0.003128
  11 C :    0.602397    0.555226
  12 H :   -0.214467    0.120278
  13 H :   -0.210153    0.116080
  14 O :    0.576450    0.003516
  15 C :    0.319945    0.006274
  16 H :   -0.171963    0.000709
  17 H :   -0.183520    0.006949
  18 H :   -0.182075    0.000691
  19 H :   -0.144373    0.003482
  20 H :   -0.152114    0.001646

  Mayer bond orders larger than 0.100000
B(  0-C ,  1-C ) :   0.9351 B(  0-C ,  5-C ) :   0.1436 B(  0-C ,  8-C ) :   0.9343
B(  0-C , 14-O ) :   0.2073 B(  0-C , 19-H ) :   0.8219 B(  1-C ,  2-C ) :   1.0308
B(  1-C ,  3-H ) :   1.1441 B(  1-C ,  4-H ) :   0.8271 B(  1-C , 14-O ) :   0.1205
B(  1-C , 19-H ) :  -0.1088 B(  2-C ,  5-C ) :   1.0100 B(  2-C ,  6-H ) :   0.8871
B(  2-C ,  7-H ) :   1.0452 B(  5-C ,  8-C ) :   0.7389 B(  5-C ,  9-H ) :   1.0858
B(  5-C , 10-H ) :   0.9088 B(  8-C , 11-C ) :   0.3444 B(  8-C , 14-O ) :   0.2078
B(  8-C , 20-H ) :   0.9718 B( 11-C , 12-H ) :   0.7794 B( 11-C , 13-H ) :   1.1825
B( 14-O , 15-C ) :   1.0667 B( 14-O , 19-H ) :  -0.1186 B( 15-C , 16-H ) :   0.8908
B( 15-C , 17-H ) :   0.8565 B( 15-C , 18-H ) :   0.9804

MP2 TOTAL ENERGY:     -349.004233842 Eh
FINAL SINGLE POINT ENERGY      -349.004233841924

DIPOLE MOMENT
-------------
                                X             Y             Z
Electronic contribution:      0.71437      -1.80333      -0.41286
Nuclear contribution   :     -0.77404       2.20096       0.58465
                        -----------------------------------------
Total Dipole Moment    :     -0.05967       0.39763       0.17180
                        -----------------------------------------
Magnitude (a.u.)       :      0.43724
Magnitude (Debye)      :      1.11138

Rotational constants in cm-1:     0.095190     0.060359     0.041808
Rotational constants in MHz :  2853.710254  1809.523290  1253.386534

                             ****ORCA TERMINATED NORMALLY****
TOTAL RUN TIME: 0 days 0 hours 7 minutes 10 seconds 607 msec
