                         Program Version 4.2.1 -  RELEASE  -
|  1> %pal
|  2>  nprocs 32
|  3> end
|  4> !RI-MP2 aug-cc-pVTZ aug-cc-pVTZ/C TightSCF
|  5> %maxcore 4500
|  6> *xyzfile 0 1  02_22R.xyz
|  7>
|  8>
|  9>                          ****END OF INPUT****

CARTESIAN COORDINATES (ANGSTROEM)
---------------------------------
  C     -2.857239    0.908395   -0.235644
  C     -1.458494    1.389203   -0.391747
  C     -0.730611    2.005571    0.538371
  C      0.730611    2.005545    0.538399
  C      1.458534    1.389254   -0.391738
  C      0.600848   -1.183923    0.376213
  C      2.059170   -1.279812    0.532709
  N      2.880627   -0.544561   -0.430081
  H      2.332781   -2.333437    0.440273
  H      2.308972   -0.983985    1.567908
  C     -0.600863   -1.183923    0.376227
  C      2.857255    0.908393   -0.235577
  H      3.260177    1.194239    0.752343
  H      3.513567    1.339057   -0.998024
  C     -2.059186   -1.279782    0.532746
  N     -2.880636   -0.544568   -0.430080
  H     -2.308973   -0.983894    1.567930
  H     -2.332816   -2.333408    0.440371
  C     -4.242602   -1.045773   -0.421723
  H     -4.252405   -2.106691   -0.676436
  H     -4.830516   -0.514131   -1.171196
  H     -4.741256   -0.920102    0.555723
  C      4.242586   -1.045788   -0.421746
  H      4.252372   -2.106696   -0.676502
  H      4.741242   -0.920167    0.555706
  H      4.830510   -0.514126   -1.171197
  H     -3.513495    1.339041   -0.998150
  H     -3.260210    1.194300    0.752239
  H     -0.987455    1.039358   -1.303232
  H     -1.214336    2.335497    1.453820
  H      0.987549    1.039531   -1.303300
  H      1.214300    2.335363    1.453908

 Total Charge           Charge          ....    0
 Multiplicity           Mult            ....    1
 Number of Electrons    NEL             ....  104
 Basis Dimension        Dim             .... 1058

ORBITAL ENERGIES
----------------

  NO   OCC          E(Eh)            E(eV)
   0   2.0000     -15.555044      -423.2743
   1   2.0000     -15.555044      -423.2743
   2   2.0000     -11.273519      -306.7680
   3   2.0000     -11.273518      -306.7680
   4   2.0000     -11.253330      -306.2187
   5   2.0000     -11.253329      -306.2187
   6   2.0000     -11.246342      -306.0285
   7   2.0000     -11.246342      -306.0285
   8   2.0000     -11.222850      -305.3893
   9   2.0000     -11.222126      -305.3696
  10   2.0000     -11.219683      -305.3031
  11   2.0000     -11.219603      -305.3009
  12   2.0000     -11.213674      -305.1396
  13   2.0000     -11.209836      -305.0351
  14   2.0000      -1.238848       -33.7108
  15   2.0000      -1.237442       -33.6725
  16   2.0000      -1.098068       -29.8800
  17   2.0000      -1.051221       -28.6052
  18   2.0000      -1.037417       -28.2296
  19   2.0000      -0.987372       -26.8677
  20   2.0000      -0.968134       -26.3443
  21   2.0000      -0.926569       -25.2132
  22   2.0000      -0.912881       -24.8408
  23   2.0000      -0.834940       -22.7199
  24   2.0000      -0.820610       -22.3299
  25   2.0000      -0.790609       -21.5136
  26   2.0000      -0.724424       -19.7126
  27   2.0000      -0.681524       -18.5452
  28   2.0000      -0.672803       -18.3079
  29   2.0000      -0.659024       -17.9330
  30   2.0000      -0.650035       -17.6883
  31   2.0000      -0.649103       -17.6630
  32   2.0000      -0.625522       -17.0213
  33   2.0000      -0.616285       -16.7700
  34   2.0000      -0.593343       -16.1457
  35   2.0000      -0.575287       -15.6544
  36   2.0000      -0.561267       -15.2729
  37   2.0000      -0.556634       -15.1468
  38   2.0000      -0.539915       -14.6918
  39   2.0000      -0.538756       -14.6603
  40   2.0000      -0.528527       -14.3819
  41   2.0000      -0.525799       -14.3077
  42   2.0000      -0.525374       -14.2961
  43   2.0000      -0.512527       -13.9466
  44   2.0000      -0.485108       -13.2005
  45   2.0000      -0.478001       -13.0071
  46   2.0000      -0.442182       -12.0324
  47   2.0000      -0.374629       -10.1942
  48   2.0000      -0.365151        -9.9363
  49   2.0000      -0.359862        -9.7924
  50   2.0000      -0.345695        -9.4068
  51   2.0000      -0.301206        -8.1962
  52   0.0000       0.028767         0.7828
  53   0.0000       0.029027         0.7899
  54   0.0000       0.034865         0.9487
  55   0.0000       0.037993         1.0338
  56   0.0000       0.043051         1.1715

MULLIKEN ATOMIC CHARGES
-----------------------
   0 C :    0.140413
   1 C :    0.007705
   2 C :   -0.332123
   3 C :   -0.331963
   4 C :    0.007619
   5 C :    0.252553
   6 C :   -0.460800
   7 N :   -0.266408
   8 H :    0.293504
   9 H :    0.205550
  10 C :    0.252392
  11 C :    0.140415
  12 H :    0.241383
  13 H :    0.513662
  14 C :   -0.460336
  15 N :   -0.266418
  16 H :    0.205545
  17 H :    0.293558
  18 C :   -1.242345
  19 H :    0.334421
  20 H :    0.311940
  21 H :    0.296597
  22 C :   -1.242369
  23 H :    0.334412
  24 H :    0.296595
  25 H :    0.311943
  26 H :    0.513637
  27 H :    0.241384
  28 H :   -0.119776
  29 H :   -0.176269
  30 H :   -0.119854
  31 H :   -0.176570
Sum of atomic charges:    0.0000000

LOEWDIN ATOMIC CHARGES
----------------------
   0 C :    0.132893
   1 C :    0.192824
   2 C :    0.202941
   3 C :    0.202932
   4 C :    0.192831
   5 C :    0.114274
   6 C :    0.102139
   7 N :    0.256195
   8 H :   -0.170243
   9 H :   -0.138715
  10 C :    0.114270
  11 C :    0.132890
  12 H :   -0.136203
  13 H :   -0.148735
  14 C :    0.102142
  15 N :    0.256195
  16 H :   -0.138715
  17 H :   -0.170241
  18 C :    0.443265
  19 H :   -0.167006
  20 H :   -0.167148
  21 H :   -0.146019
  22 C :    0.443265
  23 H :   -0.167007
  24 H :   -0.146018
  25 H :   -0.167148
  26 H :   -0.148732
  27 H :   -0.136202
  28 H :   -0.188071
  29 H :   -0.182398
  30 H :   -0.188059
  31 H :   -0.182396

  Mayer bond orders larger than 0.100000
B(  0-C ,  1-C ) :   0.4273 B(  0-C , 15-N ) :   0.8828 B(  0-C , 26-H ) :   0.8505
B(  0-C , 27-H ) :   1.0328 B(  0-C , 29-H ) :  -0.1977 B(  1-C ,  2-C ) :   1.2009
B(  1-C , 26-H ) :  -0.2267 B(  1-C , 28-H ) :   1.5911 B(  1-C , 29-H ) :  -0.2165
B(  1-C , 30-H ) :  -0.1546 B(  1-C , 31-H ) :  -0.1095 B(  2-C ,  3-C ) :   0.5664
B(  2-C , 29-H ) :   1.7842 B(  2-C , 31-H ) :  -0.1601 B(  3-C ,  4-C ) :   1.2011
B(  3-C , 29-H ) :  -0.1599 B(  3-C , 31-H ) :   1.7845 B(  4-C , 11-C ) :   0.4272
B(  4-C , 13-H ) :  -0.2268 B(  4-C , 28-H ) :  -0.1544 B(  4-C , 29-H ) :  -0.1095
B(  4-C , 30-H ) :   1.5911 B(  4-C , 31-H ) :  -0.2165 B(  5-C ,  6-C ) :   1.0004
B(  5-C ,  7-N ) :  -0.2350 B(  5-C , 10-C ) :   2.1132 B(  5-C , 14-C ) :  -0.2097
B(  6-C ,  7-N ) :   1.0314 B(  6-C ,  8-H ) :   0.9541 B(  6-C ,  9-H ) :   1.1125
B(  6-C , 10-C ) :  -0.2096 B(  7-N , 11-C ) :   0.8828 B(  7-N , 22-C ) :   1.0894
B( 10-C , 14-C ) :   1.0001 B( 10-C , 15-N ) :  -0.2350 B( 11-C , 12-H ) :   1.0328
B( 11-C , 13-H ) :   0.8505 B( 11-C , 31-H ) :  -0.1977 B( 13-H , 31-H ) :  -0.1045
B( 14-C , 15-N ) :   1.0314 B( 14-C , 16-H ) :   1.1125 B( 14-C , 17-H ) :   0.9541
B( 15-N , 18-C ) :   1.0894 B( 18-C , 19-H ) :   0.9460 B( 18-C , 20-H ) :   0.9672
B( 18-C , 21-H ) :   0.9473 B( 22-C , 23-H ) :   0.9460 B( 22-C , 24-H ) :   0.9473
B( 22-C , 25-H ) :   0.9672 B( 26-H , 29-H ) :  -0.1045 B( 28-H , 29-H ) :   0.3223
B( 30-H , 31-H ) :   0.3224

MP2 TOTAL ENERGY:     -576.271160913 Eh
FINAL SINGLE POINT ENERGY      -576.271160912969

DIPOLE MOMENT
-------------
                                X             Y             Z
Electronic contribution:     -0.00003       1.74473      -0.69488
Nuclear contribution   :      0.00001      -1.95704       1.26983
                        -----------------------------------------
Total Dipole Moment    :     -0.00002      -0.21231       0.57495
                        -----------------------------------------
Magnitude (a.u.)       :      0.61290
Magnitude (Debye)      :      1.55787

Rotational constants in cm-1:     0.046021     0.013075     0.010866
Rotational constants in MHz :  1379.679831   391.968613   325.763408

                             ****ORCA TERMINATED NORMALLY****
TOTAL RUN TIME: 0 days 0 hours 22 minutes 2 seconds 757 msec
