                         Program Version 4.2.1 -  RELEASE  -
|  1> %pal
|  2>  nprocs 32
|  3> end
|  4> !RI-MP2 aug-cc-pVTZ aug-cc-pVTZ/C TightSCF
|  5> %maxcore 4500
|  6> *xyzfile 0 1  10_92TS.xyz
|  7>
|  8>
|  9>                          ****END OF INPUT****

CARTESIAN COORDINATES (ANGSTROEM)
---------------------------------
  C     -1.813079   -1.618312   -0.247366
  C     -3.001168   -0.964642    0.433446
  C     -3.077762    0.455421   -0.105501
  C     -1.750493    1.114156   -0.096980
  C     -0.583533   -0.812024   -0.090517
  H     -1.615985   -2.615418    0.156379
  H     -2.025309   -1.737631   -1.315595
  H     -2.844793   -0.947924    1.515144
  H     -3.924421   -1.512852    0.234670
  H     -3.437347    0.431502   -1.139668
  H     -3.783227    1.064221    0.463151
  C      0.644504   -0.784759    0.021963
  C     -1.128625    2.168362   -0.119200
  H     -0.899360    3.203062   -0.146364
  C      1.865023   -1.622042    0.143531
  H      1.725678   -2.559055   -0.400995
  C      3.083727   -0.859740   -0.356791
  H      3.053098   -0.781902   -1.446522
  H      4.012765   -1.362536   -0.082475
  C      3.009825    0.523761    0.260768
  H      3.212657    0.469819    1.334728
  H      3.721725    1.224382   -0.175753
  C      1.642498    1.098450    0.102597
  N      1.064806    2.116163    0.018390
  H      2.005377   -1.880594    1.198873

 Total Charge           Charge          ....    0
 Multiplicity           Mult            ....    1
 Number of Electrons    NEL             ....   86
 Basis Dimension        Dim             ....  851

ORBITAL ENERGIES
----------------

  NO   OCC          E(Eh)            E(eV)
   0   2.0000     -15.537207      -422.7889
   1   2.0000     -11.258891      -306.3700
   2   2.0000     -11.257027      -306.3193
   3   2.0000     -11.248701      -306.0927
   4   2.0000     -11.245815      -306.0142
   5   2.0000     -11.241351      -305.8927
   6   2.0000     -11.236696      -305.7660
   7   2.0000     -11.235283      -305.7276
   8   2.0000     -11.226907      -305.4997
   9   2.0000     -11.225086      -305.4501
  10   2.0000     -11.210556      -305.0547
  11   2.0000     -11.210334      -305.0487
  12   2.0000      -1.196120       -32.5481
  13   2.0000      -1.118530       -30.4368
  14   2.0000      -1.104562       -30.0567
  15   2.0000      -1.033711       -28.1287
  16   2.0000      -1.010448       -27.4957
  17   2.0000      -0.959026       -26.0964
  18   2.0000      -0.920734       -25.0544
  19   2.0000      -0.844898       -22.9908
  20   2.0000      -0.820573       -22.3289
  21   2.0000      -0.718004       -19.5379
  22   2.0000      -0.703791       -19.1511
  23   2.0000      -0.668905       -18.2018
  24   2.0000      -0.655820       -17.8458
  25   2.0000      -0.643573       -17.5125
  26   2.0000      -0.627211       -17.0673
  27   2.0000      -0.595795       -16.2124
  28   2.0000      -0.585252       -15.9255
  29   2.0000      -0.571931       -15.5630
  30   2.0000      -0.553304       -15.0562
  31   2.0000      -0.529012       -14.3951
  32   2.0000      -0.521332       -14.1862
  33   2.0000      -0.510993       -13.9048
  34   2.0000      -0.507559       -13.8114
  35   2.0000      -0.498094       -13.5538
  36   2.0000      -0.496638       -13.5142
  37   2.0000      -0.488191       -13.2843
  38   2.0000      -0.434402       -11.8207
  39   2.0000      -0.369947       -10.0668
  40   2.0000      -0.354002        -9.6329
  41   2.0000      -0.343783        -9.3548
  42   2.0000      -0.295382        -8.0378
  43   0.0000       0.026058         0.7091
  44   0.0000       0.028152         0.7661
  45   0.0000       0.035906         0.9770
  46   0.0000       0.036751         1.0000
  47   0.0000       0.043286         1.1779

MULLIKEN ATOMIC CHARGES
-----------------------
   0 C :   -0.739059
   1 C :   -0.506586
   2 C :   -0.496728
   3 C :    0.899056
   4 C :    0.341120
   5 H :    0.281507
   6 H :    0.177227
   7 H :    0.226100
   8 H :    0.305574
   9 H :    0.221420
  10 H :    0.253065
  11 C :    0.219481
  12 C :   -1.130427
  13 H :    0.344168
  14 C :   -0.688552
  15 H :    0.307523
  16 C :   -0.581696
  17 H :    0.223036
  18 H :    0.309444
  19 C :   -0.120908
  20 H :    0.258253
  21 H :    0.387933
  22 C :    0.235996
  23 N :   -0.896516
  24 H :    0.169569
Sum of atomic charges:   -0.0000000

LOEWDIN ATOMIC CHARGES
----------------------
   0 C :    0.232312
   1 C :    0.265851
   2 C :    0.215529
   3 C :   -0.006158
   4 C :    0.076396
   5 H :   -0.142160
   6 H :   -0.141865
   7 H :   -0.137458
   8 H :   -0.137521
   9 H :   -0.147259
  10 H :   -0.149329
  11 C :    0.036388
  12 C :    0.323812
  13 H :   -0.290583
  14 C :    0.231110
  15 H :   -0.144514
  16 C :    0.268689
  17 H :   -0.136980
  18 H :   -0.137029
  19 C :    0.245108
  20 H :   -0.142647
  21 H :   -0.146378
  22 C :   -0.252034
  23 N :    0.359969
  24 H :   -0.143249

  Mayer bond orders larger than 0.100000
B(  0-C ,  1-C ) :   1.0516 B(  0-C ,  4-C ) :   1.1346 B(  0-C ,  5-H ) :   0.9294
B(  0-C ,  6-H ) :   1.0505 B(  0-C , 11-C ) :  -0.3599 B(  0-C , 14-C ) :   0.1015
B(  1-C ,  2-C ) :   0.9893 B(  1-C ,  7-H ) :   0.9982 B(  1-C ,  8-H ) :   0.9389
B(  2-C ,  3-C ) :   0.8804 B(  2-C ,  4-C ) :   0.1389 B(  2-C ,  9-H ) :   1.0227
B(  2-C , 10-H ) :   0.9796 B(  2-C , 12-C ) :  -0.1745 B(  3-C ,  4-C ) :   0.5087
B(  3-C , 11-C ) :  -0.1191 B(  3-C , 12-C ) :   0.9272 B(  3-C , 13-H ) :  -0.3454
B(  3-C , 23-N ) :   0.1376 B(  4-C , 11-C ) :   2.3510 B(  4-C , 14-C ) :  -0.3224
B( 11-C , 12-C ) :   0.2191 B( 11-C , 14-C ) :   0.9703 B( 11-C , 22-C ) :   0.4900
B( 11-C , 23-N ) :   0.1671 B( 12-C , 13-H ) :   1.4425 B( 14-C , 15-H ) :   0.9305
B( 14-C , 16-C ) :   1.0728 B( 14-C , 24-H ) :   1.0638 B( 16-C , 17-H ) :   0.9855
B( 16-C , 18-H ) :   0.9468 B( 16-C , 19-C ) :   0.9943 B( 19-C , 20-H ) :   0.9697
B( 19-C , 21-H ) :   0.8982 B( 19-C , 22-C ) :   0.4547 B( 22-C , 23-N ) :   1.6588

MP2 TOTAL ENERGY:     -480.537289703 Eh
FINAL SINGLE POINT ENERGY      -480.537289703150

DIPOLE MOMENT
-------------
                                X             Y             Z
Electronic contribution:      0.93910       5.79775      -0.14307
Nuclear contribution   :     -0.80426      -7.09273       0.19849
                        -----------------------------------------
Total Dipole Moment    :      0.13485      -1.29498       0.05541
                        -----------------------------------------
Magnitude (a.u.)       :      1.30316
Magnitude (Debye)      :      3.31236

Rotational constants in cm-1:     0.054522     0.021955     0.016177
Rotational constants in MHz :  1634.523891   658.180186   484.971549

                             ****ORCA TERMINATED NORMALLY****
TOTAL RUN TIME: 0 days 0 hours 12 minutes 9 seconds 436 msec
