                         Program Version 4.2.1 -  RELEASE  -
|  1> %pal
|  2>  nprocs 32
|  3> end
|  4> !RI-MP2 aug-cc-pVTZ aug-cc-pVTZ/C TightSCF
|  5> %maxcore 4500
|  6> *xyzfile 0 1  04_38R1.xyz
|  7>
|  8>
|  9>                          ****END OF INPUT****

CARTESIAN COORDINATES (ANGSTROEM)
---------------------------------
  C      0.909978    1.167119    0.509896
  C      1.570914    0.098771   -0.356077
  O      0.508287   -0.819938   -0.662567
  C     -0.705230   -0.102676   -0.808790
  C     -0.510034    1.183405   -0.007622
  C      2.699877   -0.668099    0.285052
  H      1.913221    0.550251   -1.297126
  H      2.365630   -1.124174    1.219390
  H      3.536869   -0.001753    0.503245
  H      3.051014   -1.457117   -0.381205
  C     -1.848326   -0.956007   -0.291767
  H     -0.883008    0.168643   -1.859150
  O     -1.593818   -1.394624    1.025087
  H     -2.003952   -1.803961   -0.967916
  H     -2.757470   -0.354701   -0.266824
  H     -0.752098   -1.862435    1.006595
  O     -1.341814    2.032948    0.142906
  H      1.368849    2.153376    0.457853
  H      0.876623    0.849703    1.557581

 Total Charge           Charge          ....    0
 Multiplicity           Mult            ....    1
 Number of Electrons    NEL             ....   70
 Basis Dimension        Dim             ....  644

ORBITAL ENERGIES
----------------

  NO   OCC          E(Eh)            E(eV)
   0   2.0000     -20.579237      -559.9895
   1   2.0000     -20.562483      -559.5336
   2   2.0000     -20.559113      -559.4419
   3   2.0000     -11.338358      -308.5324
   4   2.0000     -11.304407      -307.6085
   5   2.0000     -11.297221      -307.4130
   6   2.0000     -11.285359      -307.0902
   7   2.0000     -11.246722      -306.0389
   8   2.0000     -11.233869      -305.6891
   9   2.0000      -1.419643       -38.6305
  10   2.0000      -1.396907       -38.0118
  11   2.0000      -1.365438       -37.1555
  12   2.0000      -1.084760       -29.5178
  13   2.0000      -1.047017       -28.4908
  14   2.0000      -0.981254       -26.7013
  15   2.0000      -0.878507       -23.9054
  16   2.0000      -0.826606       -22.4931
  17   2.0000      -0.767783       -20.8924
  18   2.0000      -0.710616       -19.3368
  19   2.0000      -0.695685       -18.9305
  20   2.0000      -0.674280       -18.3481
  21   2.0000      -0.662851       -18.0371
  22   2.0000      -0.630100       -17.1459
  23   2.0000      -0.604513       -16.4496
  24   2.0000      -0.595963       -16.2170
  25   2.0000      -0.590594       -16.0709
  26   2.0000      -0.565335       -15.3835
  27   2.0000      -0.553899       -15.0724
  28   2.0000      -0.538291       -14.6476
  29   2.0000      -0.515439       -14.0258
  30   2.0000      -0.509886       -13.8747
  31   2.0000      -0.492623       -13.4050
  32   2.0000      -0.467728       -12.7275
  33   2.0000      -0.442001       -12.0274
  34   2.0000      -0.404123       -10.9968
  35   0.0000       0.024517         0.6672
  36   0.0000       0.030925         0.8415
  37   0.0000       0.034160         0.9296
  38   0.0000       0.039531         1.0757
  39   0.0000       0.049863         1.3568

MULLIKEN ATOMIC CHARGES
-----------------------
   0 C :   -0.497419
   1 C :    0.324675
   2 O :   -0.811860
   3 C :    0.270371
   4 C :    0.586646
   5 C :   -1.023304
   6 H :    0.391296
   7 H :    0.275470
   8 H :    0.282375
   9 H :    0.282448
  10 C :   -0.245479
  11 H :    0.380207
  12 O :   -0.685096
  13 H :    0.289844
  14 H :    0.327739
  15 H :    0.209544
  16 O :   -0.960933
  17 H :    0.342594
  18 H :    0.260882
Sum of atomic charges:   -0.0000000

LOEWDIN ATOMIC CHARGES
----------------------
   0 C :    0.322608
   1 C :   -0.275422
   2 O :    0.598903
   3 C :   -0.257333
   4 C :   -0.495229
   5 C :    0.596392
   6 H :   -0.126308
   7 H :   -0.164576
   8 H :   -0.160574
   9 H :   -0.163007
  10 C :    0.041229
  11 H :   -0.125977
  12 O :    0.821404
  13 H :   -0.148021
  14 H :   -0.158576
  15 H :   -0.514500
  16 O :    0.482689
  17 H :   -0.136224
  18 H :   -0.137477

  Mayer bond orders larger than 0.100000
B(  0-C ,  1-C ) :   0.9685 B(  0-C ,  4-C ) :   0.8855 B(  0-C , 17-H ) :   0.8930
B(  0-C , 18-H ) :   0.9314 B(  1-C ,  2-O ) :   0.7724 B(  1-C ,  5-C ) :   0.7238
B(  1-C ,  6-H ) :   0.8584 B(  2-O ,  3-C ) :   0.7924 B(  3-C ,  4-C ) :   0.8479
B(  3-C , 10-C ) :   0.8817 B(  3-C , 11-H ) :   0.8007 B(  4-C , 16-O ) :   0.9861
B(  5-C ,  7-H ) :   0.9841 B(  5-C ,  8-H ) :   0.9848 B(  5-C ,  9-H ) :   0.9751
B( 10-C , 12-O ) :   0.7312 B( 10-C , 13-H ) :   0.9723 B( 10-C , 14-H ) :   0.9624
B( 12-O , 15-H ) :   0.9663

MP2 TOTAL ENERGY:     -459.514768111 Eh
FINAL SINGLE POINT ENERGY      -459.514768110927

DIPOLE MOMENT
-------------
                                X             Y             Z
Electronic contribution:     -5.37933       2.53385      -0.54432
Nuclear contribution   :      6.74525      -2.91434      -0.01979
                        -----------------------------------------
Total Dipole Moment    :      1.36592      -0.38049      -0.56410
                        -----------------------------------------
Magnitude (a.u.)       :      1.52601
Magnitude (Debye)      :      3.87882

Rotational constants in cm-1:     0.075281     0.048429     0.035754
Rotational constants in MHz :  2256.853306  1451.861108  1071.877106

                             ****ORCA TERMINATED NORMALLY****
TOTAL RUN TIME: 0 days 0 hours 4 minutes 10 seconds 783 msec
