                         Program Version 4.2.1 -  RELEASE  -
|  1> %pal
|  2>  nprocs 32
|  3> end
|  4> !RI-MP2 aug-cc-pVTZ aug-cc-pVTZ/C TightSCF
|  5> %maxcore 4500
|  6> *xyzfile 0 2  04_83P1.xyz
|  7>
|  8>
|  9>                          ****END OF INPUT****

CARTESIAN COORDINATES (ANGSTROEM)
---------------------------------
  O      2.948715   -1.308680   -0.082153
  C      2.739308   -0.113695   -0.079759
  O      3.708271    0.789126   -0.351288
  C      1.465183    0.499975    0.204013
  C      0.304319   -0.344031    0.556291
  H      1.365228    1.576104    0.170970
  C     -1.020036    0.313465    0.212107
  H      0.280189   -0.511876    1.644567
  H      0.392646   -1.337157    0.111175
  S     -2.326709   -0.844617   -0.094874
  C     -3.693130    0.314926   -0.338815
  H     -3.858730    0.899781    0.562977
  H     -4.573914   -0.284826   -0.560833
  H     -3.475781    0.980004   -1.171131
  O     -1.181321    1.503977    0.179169
  H      4.518533    0.292624   -0.528594

 Total Charge           Charge          ....    0
 Multiplicity           Mult            ....    2
 Number of Electrons    NEL             ....   77
 Basis Dimension        Dim             ....  579

ORBITAL ENERGIES
----------------
                 SPIN UP ORBITALS
  NO   OCC          E(Eh)            E(eV)
   0   1.0000     -91.979607     -2502.8923
   1   1.0000     -20.613473      -560.9211
   2   1.0000     -20.567521      -559.6707
   3   1.0000     -20.566284      -559.6370
   4   1.0000     -11.385339      -309.8108
   5   1.0000     -11.373436      -309.4869
   6   1.0000     -11.281569      -306.9871
   7   1.0000     -11.265851      -306.5594
   8   1.0000     -11.265696      -306.5552
   9   1.0000      -8.981187      -244.3905
  10   1.0000      -6.662394      -181.2930
  11   1.0000      -6.661235      -181.2614
  12   1.0000      -6.660593      -181.2440
  13   1.0000      -1.472625       -40.0722
  14   1.0000      -1.418995       -38.6128
  15   1.0000      -1.375543       -37.4304
  16   1.0000      -1.118973       -30.4488
  17   1.0000      -1.071092       -29.1459
  18   1.0000      -0.985173       -26.8079
  19   1.0000      -0.901714       -24.5369
  20   1.0000      -0.805335       -21.9143
  21   1.0000      -0.751299       -20.4439
  22   1.0000      -0.720521       -19.6064
  23   1.0000      -0.707959       -19.2645
  24   1.0000      -0.670327       -18.2405
  25   1.0000      -0.653492       -17.7824
  26   1.0000      -0.645861       -17.5748
  27   1.0000      -0.632564       -17.2129
  28   1.0000      -0.604393       -16.4464
  29   1.0000      -0.598210       -16.2781
  30   1.0000      -0.576054       -15.6752
  31   1.0000      -0.554036       -15.0761
  32   1.0000      -0.536048       -14.5866
  33   1.0000      -0.520518       -14.1640
  34   1.0000      -0.492646       -13.4056
  35   1.0000      -0.478466       -13.0197
  36   1.0000      -0.427180       -11.6241
  37   1.0000      -0.395479       -10.7615
  38   1.0000      -0.377411       -10.2699
  39   0.0000       0.027562         0.7500
  40   0.0000       0.031808         0.8655
  41   0.0000       0.038556         1.0492
  42   0.0000       0.043420         1.1815
  43   0.0000       0.047505         1.2927

                 SPIN DOWN ORBITALS
  NO   OCC          E(Eh)            E(eV)
   0   1.0000     -91.979579     -2502.8916
   1   1.0000     -20.613692      -560.9271
   2   1.0000     -20.568034      -559.6846
   3   1.0000     -20.554588      -559.3188
   4   1.0000     -11.391020      -309.9654
   5   1.0000     -11.372546      -309.4627
   6   1.0000     -11.268441      -306.6299
   7   1.0000     -11.265835      -306.5590
   8   1.0000     -11.260315      -306.4087
   9   1.0000      -8.981153      -244.3896
  10   1.0000      -6.662362      -181.2921
  11   1.0000      -6.661212      -181.2608
  12   1.0000      -6.660519      -181.2419
  13   1.0000      -1.466634       -39.9091
  14   1.0000      -1.419767       -38.6338
  15   1.0000      -1.357006       -36.9260
  16   1.0000      -1.093849       -29.7652
  17   1.0000      -1.059912       -28.8417
  18   1.0000      -0.961559       -26.1654
  19   1.0000      -0.900286       -24.4980
  20   1.0000      -0.790887       -21.5211
  21   1.0000      -0.742558       -20.2060
  22   1.0000      -0.713273       -19.4091
  23   1.0000      -0.702129       -19.1059
  24   1.0000      -0.651082       -17.7169
  25   1.0000      -0.647995       -17.6329
  26   1.0000      -0.635322       -17.2880
  27   1.0000      -0.624422       -16.9914
  28   1.0000      -0.600445       -16.3389
  29   1.0000      -0.593160       -16.1407
  30   1.0000      -0.572208       -15.5706
  31   1.0000      -0.548924       -14.9370
  32   1.0000      -0.529971       -14.4213
  33   1.0000      -0.490939       -13.3591
  34   1.0000      -0.464659       -12.6440
  35   1.0000      -0.462276       -12.5792
  36   1.0000      -0.420733       -11.4487
  37   1.0000      -0.379935       -10.3385
  38   0.0000       0.027459         0.7472
  39   0.0000       0.031881         0.8675
  40   0.0000       0.038663         1.0521
  41   0.0000       0.042781         1.1641
  42   0.0000       0.043658         1.1880

MULLIKEN ATOMIC CHARGES AND SPIN POPULATIONS
--------------------------------------------
   0 O :   -0.767371    0.257344
   1 C :    0.441139   -0.218476
   2 O :   -0.425726    0.003547
   3 C :   -0.311702    1.139346
   4 C :    0.083643   -0.213948
   5 H :    0.457047   -0.049731
   6 C :    0.562858    0.026481
   7 H :    0.305995    0.056091
   8 H :    0.318119    0.013712
   9 S :   -0.142779    0.001326
  10 C :   -0.811237    0.000483
  11 H :    0.291854    0.000027
  12 H :    0.286518    0.000118
  13 H :    0.296086   -0.000057
  14 O :   -0.834749   -0.010584
  15 H :    0.250304   -0.005678
Sum of atomic charges         :   -0.0000000

LOEWDIN ATOMIC CHARGES AND SPIN POPULATIONS
-------------------------------------------
   0 O :    0.455992    0.187631
   1 C :   -0.834192    0.083211
   2 O :    0.818935   -0.009045
   3 C :    0.256304    0.486993
   4 C :    0.152016    0.108561
   5 H :   -0.191566    0.100329
   6 C :   -0.939793    0.013241
   7 H :   -0.145967    0.026826
   8 H :   -0.195393    0.005628
   9 S :    1.205211    0.003387
  10 C :    0.223489    0.000764
  11 H :   -0.240868    0.000077
  12 H :   -0.255042    0.000160
  13 H :   -0.243124    0.000049
  14 O :    0.410999   -0.006545
  15 H :   -0.477002   -0.001268

  Mayer bond orders larger than 0.100000
B(  0-O ,  1-C ) :   1.5018 B(  1-C ,  2-O ) :   1.0113 B(  1-C ,  3-C ) :   0.5741
B(  2-O , 15-H ) :   0.9627 B(  3-C ,  4-C ) :   0.6339 B(  3-C ,  5-H ) :   0.7864
B(  3-C ,  6-C ) :   0.1714 B(  4-C ,  6-C ) :   0.7944 B(  4-C ,  7-H ) :   0.8521
B(  4-C ,  8-H ) :   0.9498 B(  6-C ,  9-S ) :   0.9496 B(  6-C , 14-O ) :   1.3457
B(  9-S , 10-C ) :   0.9720 B( 10-C , 11-H ) :   0.9092 B( 10-C , 12-H ) :   0.9567
B( 10-C , 13-H ) :   0.9082

MP2 TOTAL ENERGY:     -817.394015530 Eh
FINAL SINGLE POINT ENERGY      -817.394015530109

DIPOLE MOMENT
-------------
                                X             Y             Z
Electronic contribution:      4.68376      -1.55013      -0.15999
Nuclear contribution   :     -5.10350       1.62746       0.22409
                        -----------------------------------------
Total Dipole Moment    :     -0.41973       0.07733       0.06410
                        -----------------------------------------
Magnitude (a.u.)       :      0.43159
Magnitude (Debye)      :      1.09700

Rotational constants in cm-1:     0.135922     0.018063     0.016382
Rotational constants in MHz :  4074.826119   541.503250   491.117910

                             ****ORCA TERMINATED NORMALLY****
TOTAL RUN TIME: 0 days 0 hours 5 minutes 5 seconds 157 msec
