                         Program Version 4.2.1 -  RELEASE  -
|  1> %pal
|  2>  nprocs 32
|  3> end
|  4> !RI-MP2 aug-cc-pVTZ aug-cc-pVTZ/C TightSCF
|  5> %maxcore 4500
|  6> *xyzfile 0 1  04_32R1.xyz
|  7>
|  8>
|  9>                          ****END OF INPUT****

CARTESIAN COORDINATES (ANGSTROEM)
---------------------------------
  H     -3.550853   -0.796061    0.000239
  O     -3.171828    0.087044    0.000203
  C     -1.811820    0.015934    0.000116
  C     -1.124169   -1.190641    0.000079
  C      0.263571   -1.200490   -0.000010
  C      0.954303   -0.002195   -0.000062
  C      0.273882    1.206318   -0.000025
  C     -1.109907    1.215184    0.000064
  H     -1.660859    2.146568    0.000094
  H      0.803384   -2.137970   -0.000039
  H     -1.668140   -2.129197    0.000119
  H      0.826284    2.136534   -0.000066
  Cl     2.702921   -0.010640   -0.000173

 Total Charge           Charge          ....    0
 Multiplicity           Mult            ....    1
 Number of Electrons    NEL             ....   66
 Basis Dimension        Dim             ....  487

ORBITAL ENERGIES
----------------

  NO   OCC          E(Eh)            E(eV)
   0   2.0000    -104.838720     -2852.8066
   1   2.0000     -20.601617      -560.5985
   2   2.0000     -11.314846      -307.8926
   3   2.0000     -11.296288      -307.3876
   4   2.0000     -11.257741      -306.3387
   5   2.0000     -11.255964      -306.2904
   6   2.0000     -11.248790      -306.0951
   7   2.0000     -11.242983      -305.9371
   8   2.0000     -10.562383      -287.4171
   9   2.0000      -8.029288      -218.4880
  10   2.0000      -8.027437      -218.4377
  11   2.0000      -8.027394      -218.4365
  12   2.0000      -1.419089       -38.6154
  13   2.0000      -1.191108       -32.4117
  14   2.0000      -1.115675       -30.3591
  15   2.0000      -1.041025       -28.3277
  16   2.0000      -0.991985       -26.9933
  17   2.0000      -0.868346       -23.6289
  18   2.0000      -0.827407       -22.5149
  19   2.0000      -0.751651       -20.4535
  20   2.0000      -0.690856       -18.7992
  21   2.0000      -0.659913       -17.9572
  22   2.0000      -0.626688       -17.0530
  23   2.0000      -0.609465       -16.5844
  24   2.0000      -0.605419       -16.4743
  25   2.0000      -0.585344       -15.9280
  26   2.0000      -0.535417       -14.5694
  27   2.0000      -0.531572       -14.4648
  28   2.0000      -0.515553       -14.0289
  29   2.0000      -0.457640       -12.4530
  30   2.0000      -0.453567       -12.3422
  31   2.0000      -0.360639        -9.8135
  32   2.0000      -0.320421        -8.7191
  33   0.0000       0.023209         0.6316
  34   0.0000       0.034205         0.9308
  35   0.0000       0.037666         1.0249
  36   0.0000       0.049626         1.3504
  37   0.0000       0.055388         1.5072

MULLIKEN ATOMIC CHARGES
-----------------------
   0 H :    0.160037
   1 O :   -0.742920
   2 C :    0.885995
   3 C :   -0.510156
   4 C :   -0.788803
   5 C :    0.773632
   6 C :   -0.742826
   7 C :   -0.747177
   8 H :    0.595939
   9 H :    0.563783
  10 H :    0.511572
  11 H :    0.537729
  12 Cl:   -0.496806
Sum of atomic charges:    0.0000000

LOEWDIN ATOMIC CHARGES
----------------------
   0 H :   -0.478680
   1 O :    0.842426
   2 C :   -0.385095
   3 C :    0.202729
   4 C :    0.096069
   5 C :   -0.777222
   6 C :    0.098988
   7 C :    0.203426
   8 H :   -0.178441
   9 H :   -0.196821
  10 H :   -0.181574
  11 H :   -0.196299
  12 Cl:    0.950494

  Mayer bond orders larger than 0.100000
B(  0-H ,  1-O ) :   1.0473 B(  1-O ,  2-C ) :   0.6003 B(  1-O ,  3-C ) :  -0.1676
B(  2-C ,  3-C ) :   1.0977 B(  2-C ,  6-C ) :  -0.2193 B(  2-C ,  7-C ) :   1.0426
B(  3-C ,  4-C ) :   1.1970 B(  3-C ,  5-C ) :  -0.1516 B(  3-C ,  6-C ) :   0.1041
B(  3-C ,  7-C ) :   0.2597 B(  3-C , 10-H ) :   0.6491 B(  4-C ,  5-C ) :   1.0959
B(  4-C ,  6-C ) :   0.1982 B(  4-C ,  9-H ) :   0.6272 B(  5-C ,  6-C ) :   1.1672
B(  5-C , 12-Cl) :   0.6096 B(  6-C ,  7-C ) :   1.3636 B(  6-C , 11-H ) :   0.6753
B(  7-C ,  8-H ) :   0.5037

MP2 TOTAL ENERGY:     -765.999409818 Eh
FINAL SINGLE POINT ENERGY      -765.999409818398

DIPOLE MOMENT
-------------
                                X             Y             Z
Electronic contribution:      8.09175       0.21144      -0.00052
Nuclear contribution   :     -8.83875      -0.73618       0.00058
                        -----------------------------------------
Total Dipole Moment    :     -0.74700      -0.52474       0.00005
                        -----------------------------------------
Magnitude (a.u.)       :      0.91288
Magnitude (Debye)      :      2.32037

Rotational constants in cm-1:     0.190014     0.032353     0.027646
Rotational constants in MHz :  5696.489588   969.915740   828.799727

                             ****ORCA TERMINATED NORMALLY****
TOTAL RUN TIME: 0 days 0 hours 2 minutes 6 seconds 538 msec
