                         Program Version 4.2.1 -  RELEASE  -
|  1> %pal
|  2>  nprocs 32
|  3> end
|  4> !RI-MP2 aug-cc-pVTZ aug-cc-pVTZ/C TightSCF
|  5> %maxcore 4500
|  6> *xyzfile 0 1  02_49R2.xyz
|  7>
|  8>
|  9>                          ****END OF INPUT****

CARTESIAN COORDINATES (ANGSTROEM)
---------------------------------
  C      2.251261    0.262442    0.000045
  C      1.772643   -1.038749    0.000055
  C      1.351542    1.322830   -0.000022
  H      2.463768   -1.873043    0.000101
  C      0.405294   -1.275060    0.000002
  H      1.717537    2.342646   -0.000042
  C     -0.011660    1.083968   -0.000073
  C     -0.509313   -0.221742   -0.000052
  H      0.035963   -2.294661    0.000008
  C     -1.948478   -0.530133   -0.000088
  H     -0.695804    1.923239   -0.000144
  C     -2.956035    0.336251    0.000113
  H      3.317629    0.452618    0.000082
  H     -3.982382   -0.007491    0.000063
  H     -2.805087    1.409137    0.000343
  H     -2.183146   -1.591290   -0.000287

 Total Charge           Charge          ....    0
 Multiplicity           Mult            ....    1
 Number of Electrons    NEL             ....   56
 Basis Dimension        Dim             ....  552

ORBITAL ENERGIES
----------------

  NO   OCC          E(Eh)            E(eV)
   0   2.0000     -11.244483      -305.9779
   1   2.0000     -11.240020      -305.8565
   2   2.0000     -11.236216      -305.7530
   3   2.0000     -11.235807      -305.7419
   4   2.0000     -11.234689      -305.7114
   5   2.0000     -11.234236      -305.6991
   6   2.0000     -11.233849      -305.6886
   7   2.0000     -11.227180      -305.5071
   8   2.0000      -1.162622       -31.6366
   9   2.0000      -1.073536       -29.2124
  10   2.0000      -1.019198       -27.7338
  11   2.0000      -0.992576       -27.0094
  12   2.0000      -0.852513       -23.1980
  13   2.0000      -0.828258       -22.5380
  14   2.0000      -0.766629       -20.8610
  15   2.0000      -0.701850       -19.0983
  16   2.0000      -0.655211       -17.8292
  17   2.0000      -0.634607       -17.2685
  18   2.0000      -0.611214       -16.6320
  19   2.0000      -0.587864       -15.9966
  20   2.0000      -0.580518       -15.7967
  21   2.0000      -0.526937       -14.3387
  22   2.0000      -0.516750       -14.0615
  23   2.0000      -0.495162       -13.4740
  24   2.0000      -0.487408       -13.2630
  25   2.0000      -0.412534       -11.2256
  26   2.0000      -0.340636        -9.2692
  27   2.0000      -0.307299        -8.3620
  28   0.0000       0.029210         0.7948
  29   0.0000       0.031577         0.8592
  30   0.0000       0.033084         0.9003
  31   0.0000       0.045088         1.2269
  32   0.0000       0.045874         1.2483

MULLIKEN ATOMIC CHARGES
-----------------------
   0 C :   -0.282637
   1 C :   -0.558494
   2 C :   -0.711336
   3 H :    0.552159
   4 C :   -1.102153
   5 H :    0.482187
   6 C :   -0.685625
   7 C :    2.149514
   8 H :    0.187675
   9 C :   -0.217151
  10 H :    0.082093
  11 C :   -1.139618
  12 H :    0.380262
  13 H :    0.331035
  14 H :    0.341537
  15 H :    0.190554
Sum of atomic charges:   -0.0000000

LOEWDIN ATOMIC CHARGES
----------------------
   0 C :    0.193507
   1 C :    0.197134
   2 C :    0.199145
   3 H :   -0.182427
   4 C :    0.203471
   5 H :   -0.181803
   6 C :    0.209859
   7 C :   -0.141343
   8 H :   -0.180275
   9 C :    0.176246
  10 H :   -0.192543
  11 C :    0.532629
  12 H :   -0.184246
  13 H :   -0.222751
  14 H :   -0.229120
  15 H :   -0.197481

  Mayer bond orders larger than 0.100000
B(  0-C ,  1-C ) :   1.1524 B(  0-C ,  2-C ) :   1.1160 B(  0-C ,  4-C ) :  -0.1108
B(  0-C ,  9-C ) :   0.1365 B(  0-C , 12-H ) :   0.9217 B(  1-C ,  2-C ) :   0.1551
B(  1-C ,  3-H ) :   0.6219 B(  1-C ,  4-C ) :   1.1298 B(  1-C ,  8-H ) :  -0.1117
B(  1-C , 12-H ) :  -0.1514 B(  2-C ,  5-H ) :   0.7387 B(  2-C ,  6-C ) :   1.1304
B(  2-C , 10-H ) :  -0.1530 B(  2-C , 12-H ) :  -0.1817 B(  3-H ,  4-C ) :  -0.2012
B(  3-H ,  9-C ) :   0.1311 B(  4-C ,  6-C ) :  -0.2476 B(  4-C ,  8-H ) :   1.5090
B(  4-C ,  9-C ) :   0.2226 B(  4-C , 10-H ) :   0.1626 B(  4-C , 12-H ) :   0.2118
B(  6-C ,  7-C ) :   0.4157 B(  6-C ,  8-H ) :   0.1202 B(  6-C ,  9-C ) :   0.3103
B(  6-C , 10-H ) :   1.5569 B(  6-C , 14-H ) :  -0.1358 B(  7-C ,  8-H ) :  -0.1456
B(  7-C , 10-H ) :  -0.2520 B(  9-C , 11-C ) :   1.0334 B(  9-C , 15-H ) :   1.1876
B( 11-C , 13-H ) :   0.9291 B( 11-C , 14-H ) :   1.0886 B( 11-C , 15-H ) :  -0.1530

MP2 TOTAL ENERGY:     -308.976549965 Eh
FINAL SINGLE POINT ENERGY      -308.976549964985

DIPOLE MOMENT
-------------
                                X             Y             Z
Electronic contribution:      2.21616      -0.36159      -0.00012
Nuclear contribution   :     -2.15240       0.36469       0.00012
                        -----------------------------------------
Total Dipole Moment    :      0.06376       0.00311       0.00000
                        -----------------------------------------
Magnitude (a.u.)       :      0.06384
Magnitude (Debye)      :      0.16227

Rotational constants in cm-1:     0.174458     0.051781     0.039929
Rotational constants in MHz :  5230.118810  1552.341380  1197.047922

                             ****ORCA TERMINATED NORMALLY****
TOTAL RUN TIME: 0 days 0 hours 2 minutes 31 seconds 268 msec
