                         Program Version 4.2.1 -  RELEASE  -
|  1> %pal
|  2>  nprocs 32
|  3> end
|  4> !RI-MP2 aug-cc-pVTZ aug-cc-pVTZ/C TightSCF
|  5> %maxcore 4500
|  6> *xyzfile 0 1  03_7R1.xyz
|  7>
|  8>
|  9>                          ****END OF INPUT****

CARTESIAN COORDINATES (ANGSTROEM)
---------------------------------
  C     -2.271412    0.007798    0.000021
  C     -2.836664   -0.614559    1.265040
  C     -0.754924    0.012642    0.000002
  C     -2.836699   -0.614947   -1.264790
  H     -2.458578   -0.088276    2.141927
  H     -2.547793   -1.663733    1.341124
  H     -3.925773   -0.551725    1.254337
  C     -0.051628   -1.189656    0.000160
  C     -0.040762    1.203969   -0.000167
  H     -2.547839   -1.664147   -1.340558
  H     -2.458633   -0.088939   -2.141850
  H     -3.925807   -0.552101   -1.254078
  C      1.347622    1.200521   -0.000179
  C      2.023428   -0.006061   -0.000020
  C      1.333404   -1.207637    0.000151
  H     -0.582884   -2.134105    0.000295
  H      1.874913   -2.144137    0.000274
  H     -0.575128    2.143521   -0.000291
  H      1.900279    2.130626   -0.000311
  Cl     3.770859   -0.018455   -0.000033
  F     -2.703506    1.352705   -0.000180

 Total Charge           Charge          ....    0
 Multiplicity           Mult            ....    1
 Number of Electrons    NEL             ....   90
 Basis Dimension        Dim             ....  740

ORBITAL ENERGIES
----------------

  NO   OCC          E(Eh)            E(eV)
   0   2.0000    -104.841494     -2852.8821
   1   2.0000     -26.275759      -714.9998
   2   2.0000     -11.331393      -308.3429
   3   2.0000     -11.303228      -307.5765
   4   2.0000     -11.253769      -306.2306
   5   2.0000     -11.252742      -306.2027
   6   2.0000     -11.251195      -306.1606
   7   2.0000     -11.250193      -306.1333
   8   2.0000     -11.245207      -305.9977
   9   2.0000     -11.230703      -305.6030
  10   2.0000     -11.230690      -305.6026
  11   2.0000     -10.565197      -287.4936
  12   2.0000      -8.032090      -218.5643
  13   2.0000      -8.030220      -218.5134
  14   2.0000      -8.030210      -218.5131
  15   2.0000      -1.586640       -43.1747
  16   2.0000      -1.196641       -32.5623
  17   2.0000      -1.135893       -30.9092
  18   2.0000      -1.080721       -29.4079
  19   2.0000      -1.036229       -28.1972
  20   2.0000      -0.993897       -27.0453
  21   2.0000      -0.961511       -26.1640
  22   2.0000      -0.859713       -23.3940
  23   2.0000      -0.848063       -23.0770
  24   2.0000      -0.791104       -21.5270
  25   2.0000      -0.730059       -19.8659
  26   2.0000      -0.681821       -18.5533
  27   2.0000      -0.679346       -18.4859
  28   2.0000      -0.652778       -17.7630
  29   2.0000      -0.642014       -17.4701
  30   2.0000      -0.633116       -17.2280
  31   2.0000      -0.607384       -16.5277
  32   2.0000      -0.590221       -16.0607
  33   2.0000      -0.576634       -15.6910
  34   2.0000      -0.558675       -15.2023
  35   2.0000      -0.547555       -14.8997
  36   2.0000      -0.543251       -14.7826
  37   2.0000      -0.543013       -14.7761
  38   2.0000      -0.516268       -14.0484
  39   2.0000      -0.501592       -13.6490
  40   2.0000      -0.483137       -13.1468
  41   2.0000      -0.464874       -12.6499
  42   2.0000      -0.455210       -12.3869
  43   2.0000      -0.355651        -9.6778
  44   2.0000      -0.334944        -9.1143
  45   0.0000       0.025562         0.6956
  46   0.0000       0.033978         0.9246
  47   0.0000       0.034787         0.9466
  48   0.0000       0.036972         1.0060
  49   0.0000       0.048038         1.3072

MULLIKEN ATOMIC CHARGES
-----------------------
   0 C :    1.455666
   1 C :   -1.072369
   2 C :    1.409437
   3 C :   -1.072375
   4 H :    0.329505
   5 H :    0.321934
   6 H :    0.242753
   7 C :   -0.473407
   8 C :   -0.903667
   9 H :    0.321935
  10 H :    0.329505
  11 H :    0.242747
  12 C :   -0.715587
  13 C :    0.652293
  14 C :   -0.991223
  15 H :    0.173598
  16 H :    0.447766
  17 H :    0.089526
  18 H :    0.494507
  19 Cl:   -0.531139
  20 F :   -0.751402
Sum of atomic charges:    0.0000000

LOEWDIN ATOMIC CHARGES
----------------------
   0 C :   -0.691412
   1 C :    0.589563
   2 C :   -0.113582
   3 C :    0.589562
   4 H :   -0.154529
   5 H :   -0.165083
   6 H :   -0.159726
   7 C :    0.204735
   8 C :    0.214869
   9 H :   -0.165084
  10 H :   -0.154529
  11 H :   -0.159726
  12 C :    0.118218
  13 C :   -0.768072
  14 C :    0.118701
  15 H :   -0.175642
  16 H :   -0.197196
  17 H :   -0.196094
  18 H :   -0.196987
  19 Cl:    0.962715
  20 F :    0.499298

  Mayer bond orders larger than 0.100000
B(  0-C ,  1-C ) :   0.6779 B(  0-C ,  2-C ) :   1.0459 B(  0-C ,  3-C ) :   0.6780
B(  0-C ,  7-C ) :   0.1287 B(  0-C , 17-H ) :  -0.1270 B(  0-C , 20-F ) :  -0.2199
B(  1-C ,  3-C ) :   0.1243 B(  1-C ,  4-H ) :   0.9578 B(  1-C ,  5-H ) :   0.9312
B(  1-C ,  6-H ) :   1.0321 B(  1-C , 20-F ) :   0.1418 B(  2-C ,  7-C ) :   0.2618
B(  2-C , 15-H ) :  -0.2212 B(  2-C , 17-H ) :  -0.2544 B(  2-C , 20-F ) :   0.3406
B(  3-C ,  9-H ) :   0.9312 B(  3-C , 10-H ) :   0.9578 B(  3-C , 11-H ) :   1.0321
B(  3-C , 20-F ) :   0.1418 B(  7-C ,  8-C ) :  -0.1162 B(  7-C , 12-C ) :  -0.1137
B(  7-C , 14-C ) :   1.2472 B(  7-C , 15-H ) :   1.2299 B(  7-C , 17-H ) :   0.1933
B(  8-C , 12-C ) :   1.2799 B(  8-C , 13-C ) :  -0.1167 B(  8-C , 15-H ) :   0.2014
B(  8-C , 17-H ) :   1.4801 B( 12-C , 13-C ) :   1.3529 B( 12-C , 14-C ) :   0.1216
B( 12-C , 18-H ) :   0.7710 B( 13-C , 14-C ) :   1.3772 B( 13-C , 19-Cl) :   0.4948
B( 14-C , 15-H ) :  -0.1263 B( 14-C , 16-H ) :   0.8275 B( 17-H , 20-F ) :   0.1157

MP2 TOTAL ENERGY:     -907.697446011 Eh
FINAL SINGLE POINT ENERGY      -907.697446011421

DIPOLE MOMENT
-------------
                                X             Y             Z
Electronic contribution:     16.93809       5.08092      -0.00095
Nuclear contribution   :    -17.59694      -5.79891       0.00107
                        -----------------------------------------
Total Dipole Moment    :     -0.65885      -0.71799       0.00012
                        -----------------------------------------
Magnitude (a.u.)       :      0.97447
Magnitude (Debye)      :      2.47691

Rotational constants in cm-1:     0.087945     0.015124     0.014079
Rotational constants in MHz :  2636.519371   453.397267   422.072867

                             ****ORCA TERMINATED NORMALLY****
TOTAL RUN TIME: 0 days 0 hours 6 minutes 56 seconds 63 msec
