                         Program Version 4.2.1 -  RELEASE  -
|  1> %pal
|  2>  nprocs 32
|  3> end
|  4> !RI-MP2 aug-cc-pVTZ aug-cc-pVTZ/C TightSCF
|  5> %maxcore 4500
|  6> *xyzfile -1 1  10_47TS.xyz
|  7>
|  8>
|  9>                          ****END OF INPUT****

CARTESIAN COORDINATES (ANGSTROEM)
---------------------------------
  C      0.399531    0.678456   -0.515370
  C     -0.911280    1.225941   -0.927031
  H     -0.925146    1.842565   -1.830617
  C      0.277734   -0.591280   -0.132005
  C     -1.790886    1.733614    0.191662
  H     -2.758220    2.028717   -0.237299
  C     -1.128518   -1.061292   -0.450606
  C     -2.027161    0.627162    1.236430
  H     -1.152363    0.564857    1.892610
  C     -2.224236   -0.723441    0.555312
  H     -2.259000   -1.527482    1.307396
  H     -3.167716   -0.760953    0.003554
  H     -1.426131    2.630421    0.743262
  H     -2.881355    0.867975    1.881714
  O     -1.318484   -1.958745   -1.282006
  C      1.723783    1.401844   -0.460217
  H      1.688734    2.171343    0.324205
  H      1.878739    1.943338   -1.400921
  C      1.332905   -1.429076    0.527897
  H      0.935431   -1.933429    1.418516
  H      1.645796   -2.233212   -0.152201
  C      2.533403   -0.557697    0.912406
  H      2.286590    0.010933    1.817256
  H      3.400935   -1.182261    1.155037
  C      2.881389    0.430268   -0.203104
  H      3.800314    0.975412    0.042194
  H      3.081285   -0.135263   -1.120912

 Total Charge           Charge          ....   -1
 Multiplicity           Mult            ....    1
 Number of Electrons    NEL             ....   90
 Basis Dimension        Dim             ....  897

ORBITAL ENERGIES
----------------

  NO   OCC          E(Eh)            E(eV)
   0   2.0000     -20.334899      -553.3407
   1   2.0000     -11.151236      -303.4406
   2   2.0000     -11.100520      -302.0605
   3   2.0000     -11.097448      -301.9769
   4   2.0000     -11.090617      -301.7910
   5   2.0000     -11.083550      -301.5987
   6   2.0000     -11.066919      -301.1462
   7   2.0000     -11.065924      -301.1191
   8   2.0000     -11.058068      -300.9053
   9   2.0000     -11.054336      -300.8038
  10   2.0000     -11.044674      -300.5408
  11   2.0000     -10.977589      -298.7154
  12   2.0000      -1.172311       -31.9002
  13   2.0000      -0.989697       -26.9310
  14   2.0000      -0.929271       -25.2868
  15   2.0000      -0.872302       -23.7366
  16   2.0000      -0.868830       -23.6421
  17   2.0000      -0.804044       -21.8791
  18   2.0000      -0.736030       -20.0284
  19   2.0000      -0.696828       -18.9616
  20   2.0000      -0.677595       -18.4383
  21   2.0000      -0.612334       -16.6624
  22   2.0000      -0.583530       -15.8787
  23   2.0000      -0.513936       -13.9849
  24   2.0000      -0.488762       -13.2999
  25   2.0000      -0.480541       -13.0762
  26   2.0000      -0.469705       -12.7813
  27   2.0000      -0.460157       -12.5215
  28   2.0000      -0.455078       -12.3833
  29   2.0000      -0.416066       -11.3217
  30   2.0000      -0.412138       -11.2148
  31   2.0000      -0.397137       -10.8066
  32   2.0000      -0.393182       -10.6990
  33   2.0000      -0.390700       -10.6315
  34   2.0000      -0.366939        -9.9849
  35   2.0000      -0.345311        -9.3964
  36   2.0000      -0.341062        -9.2808
  37   2.0000      -0.332530        -9.0486
  38   2.0000      -0.311944        -8.4884
  39   2.0000      -0.299115        -8.1393
  40   2.0000      -0.294347        -8.0096
  41   2.0000      -0.277235        -7.5439
  42   2.0000      -0.210422        -5.7259
  43   2.0000      -0.174681        -4.7533
  44   2.0000      -0.055340        -1.5059
  45   0.0000       0.100187         2.7262
  46   0.0000       0.109096         2.9686
  47   0.0000       0.113590         3.0910
  48   0.0000       0.122080         3.3220
  49   0.0000       0.123170         3.3516

MULLIKEN ATOMIC CHARGES
-----------------------
   0 C :    0.756551
   1 C :   -1.300375
   2 H :    0.267489
   3 C :    0.228569
   4 C :   -0.447314
   5 H :    0.172614
   6 C :    1.060784
   7 C :   -0.577722
   8 H :    0.163653
   9 C :   -0.547164
  10 H :    0.271439
  11 H :    0.238298
  12 H :    0.267724
  13 H :    0.347150
  14 O :   -1.357934
  15 C :   -0.493673
  16 H :    0.153713
  17 H :    0.187550
  18 C :   -0.581467
  19 H :    0.233250
  20 H :    0.171506
  21 C :   -0.564138
  22 H :    0.155022
  23 H :    0.279473
  24 C :   -0.518604
  25 H :    0.264176
  26 H :    0.169432
Sum of atomic charges:   -1.0000000

LOEWDIN ATOMIC CHARGES
----------------------
   0 C :   -0.163472
   1 C :    0.150160
   2 H :   -0.248753
   3 C :   -0.099415
   4 C :    0.167714
   5 H :   -0.175645
   6 C :   -0.594224
   7 C :    0.235479
   8 H :   -0.164899
   9 C :    0.249869
  10 H :   -0.155150
  11 H :   -0.162445
  12 H :   -0.169003
  13 H :   -0.157640
  14 O :    0.383444
  15 C :    0.283673
  16 H :   -0.146309
  17 H :   -0.153007
  18 C :    0.274222
  19 H :   -0.149818
  20 H :   -0.147412
  21 C :    0.267958
  22 H :   -0.145117
  23 H :   -0.151344
  24 C :    0.268382
  25 H :   -0.152778
  26 H :   -0.144469

  Mayer bond orders larger than 0.100000
B(  0-C ,  1-C ) :  -0.4801 B(  0-C ,  2-H ) :  -0.1568 B(  0-C ,  3-C ) :   2.3259
B(  0-C ,  6-C ) :   0.3419 B(  0-C , 15-C ) :   0.4210 B(  1-C ,  2-H ) :   0.9128
B(  1-C ,  3-C ) :   0.1296 B(  1-C ,  4-C ) :   0.8310 B(  1-C ,  6-C ) :   1.1250
B(  1-C ,  7-C ) :   0.1147 B(  2-H ,  6-C ) :   0.1320 B(  3-C , 15-C ) :  -0.1120
B(  3-C , 18-C ) :   0.4444 B(  3-C , 20-H ) :  -0.1015 B(  4-C ,  5-H ) :   1.0599
B(  4-C ,  7-C ) :   0.8229 B(  4-C ,  9-C ) :   0.1187 B(  4-C , 12-H ) :   0.9324
B(  6-C ,  7-C ) :   0.1200 B(  6-C ,  9-C ) :   0.9807 B(  6-C , 14-O ) :   0.1969
B(  6-C , 15-C ) :  -0.2340 B(  7-C ,  8-H ) :   1.1080 B(  7-C ,  9-C ) :   0.8679
B(  7-C , 13-H ) :   0.8538 B(  9-C , 10-H ) :   0.9222 B(  9-C , 11-H ) :   1.0029
B( 15-C , 16-H ) :   1.1086 B( 15-C , 17-H ) :   1.1251 B( 15-C , 24-C ) :   0.9010
B( 18-C , 19-H ) :   1.0483 B( 18-C , 20-H ) :   1.0906 B( 18-C , 21-C ) :   0.9737
B( 18-C , 24-C ) :   0.1017 B( 21-C , 22-H ) :   1.0599 B( 21-C , 23-H ) :   0.9556
B( 21-C , 24-C ) :   0.8661 B( 24-C , 25-H ) :   0.9642 B( 24-C , 26-H ) :   1.0679

MP2 TOTAL ENERGY:     -502.352046339 Eh
FINAL SINGLE POINT ENERGY      -502.352046339001

DIPOLE MOMENT
-------------
                                X             Y             Z
Electronic contribution:     -2.49643      -5.00602      -4.27274
Nuclear contribution   :      4.22592       5.35736       5.96302
                        -----------------------------------------
Total Dipole Moment    :      1.72950       0.35134       1.69028
                        -----------------------------------------
Magnitude (a.u.)       :      2.44370
Magnitude (Debye)      :      6.21138

Rotational constants in cm-1:     0.048736     0.026860     0.022007
Rotational constants in MHz :  1461.058658   805.247810   659.758493

                             ****ORCA TERMINATED NORMALLY****
TOTAL RUN TIME: 0 days 0 hours 16 minutes 5 seconds 661 msec
