                         Program Version 4.2.1 -  RELEASE  -
|  1> %pal
|  2>  nprocs 32
|  3> end
|  4> !RI-MP2 aug-cc-pVTZ aug-cc-pVTZ/C TightSCF
|  5> %maxcore 4500
|  6> *xyzfile 0 1  02_26TS.xyz
|  7>
|  8>
|  9>                          ****END OF INPUT****

CARTESIAN COORDINATES (ANGSTROEM)
---------------------------------
  C      1.366448    1.063438   -0.134188
  C     -0.908843   -0.441778   -0.951894
  C     -1.239859    1.804213   -0.898544
  C     -0.721204    2.186787    0.320777
  C      0.578283    1.843407    0.695948
  C      2.716892    0.509013    0.223428
  C      2.755628   -0.999682   -0.132598
  C      1.502976   -1.350029   -0.939516
  H     -1.020580   -0.474903   -2.027794
  H     -2.297367    1.916332   -1.102752
  H     -1.395218    2.564309    1.082196
  H      0.884270    1.998460    1.726353
  H      3.489780    1.048656   -0.330506
  H      2.765206   -1.591311    0.785655
  H      1.589872   -0.992883   -1.969337
  H     -0.607151    1.761621   -1.773415
  H      1.218824    1.196832   -1.199640
  H      2.925644    0.663922    1.284250
  H      3.661056   -1.264836   -0.680699
  H      1.375018   -2.436212   -0.990937
  C     -0.035684   -1.174277    1.144142
  H      0.582996   -0.680962    1.894136
  H      0.164857   -2.248264    1.223986
  C     -1.529846   -0.892893    1.327504
  H     -2.076775   -1.682846    1.841100
  C      0.289844   -0.730622   -0.285669
  C     -2.065598   -0.713242   -0.085994
  O     -3.226423   -0.805180   -0.417138
  H     -1.703266    0.037516    1.874133

 Total Charge           Charge          ....    0
 Multiplicity           Mult            ....    1
 Number of Electrons    NEL             ....   96
 Basis Dimension        Dim             ....  966

ORBITAL ENERGIES
----------------

  NO   OCC          E(Eh)            E(eV)
   0   2.0000     -20.516012      -558.2691
   1   2.0000     -11.310212      -307.7665
   2   2.0000     -11.262480      -306.4677
   3   2.0000     -11.251874      -306.1790
   4   2.0000     -11.247669      -306.0646
   5   2.0000     -11.239290      -305.8366
   6   2.0000     -11.238323      -305.8103
   7   2.0000     -11.236127      -305.7506
   8   2.0000     -11.234409      -305.7038
   9   2.0000     -11.233472      -305.6783
  10   2.0000     -11.231186      -305.6161
  11   2.0000     -11.229730      -305.5765
  12   2.0000     -11.224284      -305.4283
  13   2.0000      -1.361930       -37.0600
  14   2.0000      -1.162261       -31.6267
  15   2.0000      -1.106225       -30.1019
  16   2.0000      -1.085037       -29.5254
  17   2.0000      -1.009774       -27.4773
  18   2.0000      -0.976196       -26.5636
  19   2.0000      -0.956520       -26.0282
  20   2.0000      -0.901305       -24.5258
  21   2.0000      -0.861500       -23.4426
  22   2.0000      -0.806411       -21.9435
  23   2.0000      -0.754199       -20.5228
  24   2.0000      -0.733537       -19.9605
  25   2.0000      -0.721043       -19.6206
  26   2.0000      -0.674879       -18.3644
  27   2.0000      -0.657970       -17.9043
  28   2.0000      -0.649366       -17.6702
  29   2.0000      -0.641724       -17.4622
  30   2.0000      -0.616267       -16.7695
  31   2.0000      -0.603231       -16.4148
  32   2.0000      -0.583677       -15.8827
  33   2.0000      -0.567881       -15.4528
  34   2.0000      -0.560714       -15.2578
  35   2.0000      -0.539101       -14.6697
  36   2.0000      -0.531027       -14.4500
  37   2.0000      -0.528338       -14.3768
  38   2.0000      -0.522174       -14.2091
  39   2.0000      -0.499796       -13.6002
  40   2.0000      -0.493550       -13.4302
  41   2.0000      -0.488214       -13.2850
  42   2.0000      -0.478129       -13.0105
  43   2.0000      -0.469112       -12.7652
  44   2.0000      -0.457811       -12.4577
  45   2.0000      -0.389101       -10.5880
  46   2.0000      -0.314601        -8.5607
  47   2.0000      -0.309465        -8.4210
  48   0.0000       0.022210         0.6044
  49   0.0000       0.028542         0.7767
  50   0.0000       0.031902         0.8681
  51   0.0000       0.034318         0.9338
  52   0.0000       0.042674         1.1612

MULLIKEN ATOMIC CHARGES
-----------------------
   0 C :    0.440365
   1 C :   -1.025693
   2 C :   -0.460422
   3 C :   -0.390523
   4 C :   -0.745103
   5 C :   -0.856862
   6 C :   -0.571322
   7 C :   -1.050100
   8 H :    0.231522
   9 H :    0.268563
  10 H :    0.532888
  11 H :    0.037437
  12 H :    0.232546
  13 H :    0.092536
  14 H :    0.187652
  15 H :    0.375381
  16 H :    0.418098
  17 H :    0.187079
  18 H :    0.402505
  19 H :    0.403857
  20 C :   -0.865655
  21 H :    0.274227
  22 H :    0.238740
  23 C :   -0.448511
  24 H :    0.336241
  25 C :    1.599254
  26 C :    1.183439
  27 O :   -1.178487
  28 H :    0.150347
Sum of atomic charges:   -0.0000000

LOEWDIN ATOMIC CHARGES
----------------------
   0 C :    0.130057
   1 C :    0.186203
   2 C :    0.482285
   3 C :    0.170715
   4 C :    0.206410
   5 C :    0.316236
   6 C :    0.319212
   7 C :    0.294710
   8 H :   -0.150211
   9 H :   -0.168249
  10 H :   -0.178547
  11 H :   -0.162333
  12 H :   -0.140571
  13 H :   -0.147785
  14 H :   -0.134403
  15 H :   -0.210264
  16 H :   -0.187783
  17 H :   -0.146445
  18 H :   -0.140406
  19 H :   -0.128008
  20 C :    0.303118
  21 H :   -0.147634
  22 H :   -0.132033
  23 C :    0.319487
  24 H :   -0.141451
  25 C :   -0.145945
  26 C :   -0.557631
  27 O :    0.442867
  28 H :   -0.151600

  Mayer bond orders larger than 0.100000
B(  0-C ,  3-C ) :   0.1452 B(  0-C ,  4-C ) :   1.0598 B(  0-C ,  5-C ) :   0.8005
B(  0-C , 16-H ) :   0.8218 B(  0-C , 25-C ) :   0.4095 B(  1-C ,  2-C ) :   0.3378
B(  1-C ,  4-C ) :   0.1222 B(  1-C ,  7-C ) :  -0.1532 B(  1-C ,  8-H ) :   0.9699
B(  1-C , 16-H ) :   0.1541 B(  1-C , 20-C ) :   0.3206 B(  1-C , 25-C ) :   0.7554
B(  1-C , 26-C ) :   1.1182 B(  2-C ,  3-C ) :   1.1723 B(  2-C ,  8-H ) :   0.1695
B(  2-C ,  9-H ) :   1.0069 B(  2-C , 15-H ) :   0.9411 B(  2-C , 26-C ) :  -0.1111
B(  3-C ,  4-C ) :   1.0588 B(  3-C ,  8-H ) :  -0.1576 B(  3-C , 10-H ) :   0.6804
B(  3-C , 11-H ) :  -0.1427 B(  3-C , 25-C ) :   0.2074 B(  4-C , 11-H ) :   1.3544
B(  5-C ,  6-C ) :   1.0826 B(  5-C ,  7-C ) :   0.2625 B(  5-C , 12-H ) :   0.9779
B(  5-C , 17-H ) :   1.1836 B(  6-C ,  7-C ) :   1.1830 B(  6-C , 13-H ) :   1.1549
B(  6-C , 18-H ) :   0.8112 B(  6-C , 25-C ) :  -0.2036 B(  7-C , 14-H ) :   1.1572
B(  7-C , 19-H ) :   0.8923 B(  8-H , 27-O ) :   0.1160 B( 14-H , 25-C ) :  -0.1281
B( 20-C , 21-H ) :   1.0486 B( 20-C , 22-H ) :   0.9524 B( 20-C , 23-C ) :   1.0983
B( 20-C , 25-C ) :   0.4581 B( 20-C , 26-C ) :   0.2200 B( 23-C , 24-H ) :   0.8934
B( 23-C , 26-C ) :   0.7612 B( 23-C , 28-H ) :   1.0584 B( 25-C , 27-O ) :   0.1511
B( 26-C , 27-O ) :   0.2523 B( 26-C , 28-H ) :   0.1481

MP2 TOTAL ENERGY:     -540.953450866 Eh
FINAL SINGLE POINT ENERGY      -540.953450865773

DIPOLE MOMENT
-------------
                                X             Y             Z
Electronic contribution:     -7.84431       0.30015      -1.39047
Nuclear contribution   :      9.72398      -0.20178       1.66748
                        -----------------------------------------
Total Dipole Moment    :      1.87967       0.09837       0.27701
                        -----------------------------------------
Magnitude (a.u.)       :      1.90252
Magnitude (Debye)      :      4.83582

Rotational constants in cm-1:     0.042876     0.024287     0.019617
Rotational constants in MHz :  1285.398316   728.119157   588.104409

                             ****ORCA TERMINATED NORMALLY****
TOTAL RUN TIME: 0 days 0 hours 21 minutes 54 seconds 212 msec
