                         Program Version 4.2.1 -  RELEASE  -
|  1> %pal
|  2>  nprocs 32
|  3> end
|  4> !RI-MP2 aug-cc-pVTZ aug-cc-pVTZ/C TightSCF
|  5> %maxcore 4500
|  6> *xyzfile 0 2  01_2R.xyz
|  7>
|  8>
|  9>                          ****END OF INPUT****

CARTESIAN COORDINATES (ANGSTROEM)
---------------------------------
  C      0.000000    1.232385    0.367757
  C      0.000000    0.663793   -1.030348
  C      0.000000    0.000000    1.215574
  H     -0.874642    1.874312    0.548599
  H      0.874642    1.874312    0.548599
  C      0.000000   -0.663793   -1.030348
  C      0.000000   -1.232385    0.367757
  H      0.000000    0.000000    2.296466
  H     -0.874642   -1.874312    0.548599
  H      0.874642   -1.874312    0.548599
  H      0.000000   -1.286042   -1.916607
  H      0.000000    1.286042   -1.916607

 Total Charge           Charge          ....    0
 Multiplicity           Mult            ....    2
 Number of Electrons    NEL             ....   37
 Basis Dimension        Dim             ....  391

ORBITAL ENERGIES
----------------
                 SPIN UP ORBITALS
  NO   OCC          E(Eh)            E(eV)
   0   1.0000     -11.225036      -305.4488
   1   1.0000     -11.223840      -305.4162
   2   1.0000     -11.223658      -305.4113
   3   1.0000     -11.222249      -305.3729
   4   1.0000     -11.220501      -305.3254
   5   1.0000      -1.140795       -31.0426
   6   1.0000      -0.967100       -26.3161
   7   1.0000      -0.961598       -26.1664
   8   1.0000      -0.776905       -21.1407
   9   1.0000      -0.727853       -19.8059
  10   1.0000      -0.682299       -18.5663
  11   1.0000      -0.620143       -16.8750
  12   1.0000      -0.552704       -15.0398
  13   1.0000      -0.545662       -14.8482
  14   1.0000      -0.506744       -13.7892
  15   1.0000      -0.505097       -13.7444
  16   1.0000      -0.487986       -13.2788
  17   1.0000      -0.360267        -9.8034
  18   1.0000      -0.319337        -8.6896
  19   0.0000       0.030839         0.8392
  20   0.0000       0.037516         1.0209
  21   0.0000       0.038481         1.0471
  22   0.0000       0.043583         1.1860
  23   0.0000       0.053904         1.4668

                 SPIN DOWN ORBITALS
  NO   OCC          E(Eh)            E(eV)
   0   1.0000     -11.227120      -305.5055
   1   1.0000     -11.227114      -305.5053
   2   1.0000     -11.222153      -305.3703
   3   1.0000     -11.220372      -305.3218
   4   1.0000     -11.200545      -304.7823
   5   1.0000      -1.125757       -30.6334
   6   1.0000      -0.961703       -26.1693
   7   1.0000      -0.935341       -25.4519
   8   1.0000      -0.737464       -20.0674
   9   1.0000      -0.726706       -19.7747
  10   1.0000      -0.675763       -18.3885
  11   1.0000      -0.584999       -15.9186
  12   1.0000      -0.540379       -14.7045
  13   1.0000      -0.539023       -14.6676
  14   1.0000      -0.502807       -13.6821
  15   1.0000      -0.495862       -13.4931
  16   1.0000      -0.485006       -13.1977
  17   1.0000      -0.345877        -9.4118
  18   0.0000       0.031074         0.8456
  19   0.0000       0.037713         1.0262
  20   0.0000       0.038530         1.0485
  21   0.0000       0.043767         1.1910
  22   0.0000       0.053918         1.4672

MULLIKEN ATOMIC CHARGES AND SPIN POPULATIONS
--------------------------------------------
   0 C :   -0.263668   -0.207340
   1 C :   -0.626856    0.017254
   2 C :   -0.646620    1.282162
   3 H :    0.281158    0.050632
   4 H :    0.281158    0.050632
   5 C :   -0.626856    0.017254
   6 C :   -0.263668   -0.207340
   7 H :    0.378220   -0.105562
   8 H :    0.281158    0.050632
   9 H :    0.281158    0.050632
  10 H :    0.462408    0.000522
  11 H :    0.462408    0.000522
Sum of atomic charges         :    0.0000000

LOEWDIN ATOMIC CHARGES AND SPIN POPULATIONS
-------------------------------------------
   0 C :    0.223519    0.118403
   1 C :    0.219471    0.004179
   2 C :    0.293209    0.554649
   3 H :   -0.157757    0.022103
   4 H :   -0.157757    0.022103
   5 C :    0.219471    0.004179
   6 C :    0.223519    0.118403
   7 H :   -0.188251    0.113018
   8 H :   -0.157757    0.022103
   9 H :   -0.157757    0.022103
  10 H :   -0.179955   -0.000620
  11 H :   -0.179955   -0.000620

  Mayer bond orders larger than 0.100000
B(  0-C ,  1-C ) :   0.9551 B(  0-C ,  2-C ) :   0.7907 B(  0-C ,  3-H ) :   0.9359
B(  0-C ,  4-H ) :   0.9359 B(  0-C ,  6-C ) :   0.1059 B(  1-C ,  5-C ) :   1.5253
B(  1-C , 11-H ) :   0.8036 B(  2-C ,  6-C ) :   0.7907 B(  2-C ,  7-H ) :   0.8903
B(  5-C ,  6-C ) :   0.9551 B(  5-C , 10-H ) :   0.8036 B(  6-C ,  8-H ) :   0.9359
B(  6-C ,  9-H ) :   0.9359

MP2 TOTAL ENERGY:     -194.224564270 Eh
FINAL SINGLE POINT ENERGY      -194.224564269841

DIPOLE MOMENT
-------------
                                X             Y             Z
Electronic contribution:     -0.00000      -0.00000      -0.64007
Nuclear contribution   :      0.00000       0.00000       0.68095
                        -----------------------------------------
Total Dipole Moment    :     -0.00000      -0.00000       0.04088
                        -----------------------------------------
Magnitude (a.u.)       :      0.04088
Magnitude (Debye)      :      0.10391

Rotational constants in cm-1:     0.265425     0.249182     0.134867
Rotational constants in MHz :  7957.254789  7470.291877  4043.205828

                             ****ORCA TERMINATED NORMALLY****
TOTAL RUN TIME: 0 days 0 hours 1 minutes 7 seconds 830 msec
