                         Program Version 4.2.1 -  RELEASE  -
|  1> %pal
|  2>  nprocs 32
|  3> end
|  4> !RI-MP2 aug-cc-pVTZ aug-cc-pVTZ/C TightSCF
|  5> %maxcore 4500
|  6> *xyzfile 0 2  01_6R.xyz
|  7>
|  8>
|  9>                          ****END OF INPUT****

CARTESIAN COORDINATES (ANGSTROEM)
---------------------------------
  C     -1.402274    0.310807   -0.128283
  C     -0.574842   -0.304577    0.944988
  C      0.368383   -1.387686    0.424012
  H     -1.256503   -0.724444    1.697931
  H     -0.015237    0.499932    1.425395
  C      1.432997   -0.861085   -0.546357
  H     -0.214595   -2.169544   -0.068064
  H      0.857003   -1.857499    1.282189
  C      2.375549    0.111713    0.094854
  H      0.950944   -0.392951   -1.409048
  H      2.002153   -1.715323   -0.926907
  C      2.522427    1.379452   -0.261826
  H      1.950072    1.806029   -1.079243
  H      3.220876    2.035098    0.244043
  H      2.966935   -0.275418    0.923331
  F     -2.159774   -0.539952   -0.833750
  F     -2.150790    1.351327    0.249977

 Total Charge           Charge          ....    0
 Multiplicity           Mult            ....    2
 Number of Electrons    NEL             ....   63
 Basis Dimension        Dim             ....  575

ORBITAL ENERGIES
----------------
                 SPIN UP ORBITALS
  NO   OCC          E(Eh)            E(eV)
   0   1.0000     -26.323198      -716.2906
   1   1.0000     -26.322989      -716.2849
   2   1.0000     -11.405382      -310.3562
   3   1.0000     -11.248680      -306.0922
   4   1.0000     -11.240826      -305.8784
   5   1.0000     -11.238792      -305.8231
   6   1.0000     -11.235300      -305.7281
   7   1.0000     -11.226012      -305.4753
   8   1.0000      -1.679586       -45.7038
   9   1.0000      -1.616078       -43.9757
  10   1.0000      -1.117595       -30.4113
  11   1.0000      -1.061894       -28.8956
  12   1.0000      -0.984846       -26.7990
  13   1.0000      -0.905329       -24.6352
  14   1.0000      -0.837116       -22.7791
  15   1.0000      -0.775093       -21.0914
  16   1.0000      -0.772251       -21.0140
  17   1.0000      -0.766515       -20.8579
  18   1.0000      -0.732713       -19.9381
  19   1.0000      -0.686125       -18.6704
  20   1.0000      -0.650357       -17.6971
  21   1.0000      -0.643866       -17.5205
  22   1.0000      -0.633745       -17.2451
  23   1.0000      -0.628043       -17.0899
  24   1.0000      -0.583570       -15.8797
  25   1.0000      -0.567277       -15.4364
  26   1.0000      -0.526542       -14.3279
  27   1.0000      -0.516517       -14.0552
  28   1.0000      -0.498206       -13.5569
  29   1.0000      -0.481558       -13.1039
  30   1.0000      -0.398338       -10.8393
  31   1.0000      -0.369771       -10.0620
  32   0.0000       0.026927         0.7327
  33   0.0000       0.034041         0.9263
  34   0.0000       0.035743         0.9726
  35   0.0000       0.040632         1.1056
  36   0.0000       0.053175         1.4470

                 SPIN DOWN ORBITALS
  NO   OCC          E(Eh)            E(eV)
   0   1.0000     -26.318968      -716.1755
   1   1.0000     -26.318787      -716.1706
   2   1.0000     -11.377163      -309.5883
   3   1.0000     -11.248919      -306.0987
   4   1.0000     -11.240684      -305.8746
   5   1.0000     -11.238781      -305.8228
   6   1.0000     -11.235191      -305.7251
   7   1.0000     -11.226023      -305.4756
   8   1.0000      -1.664452       -45.2920
   9   1.0000      -1.605157       -43.6785
  10   1.0000      -1.112541       -30.2738
  11   1.0000      -1.053225       -28.6597
  12   1.0000      -0.972232       -26.4558
  13   1.0000      -0.884026       -24.0556
  14   1.0000      -0.828792       -22.5526
  15   1.0000      -0.767510       -20.8850
  16   1.0000      -0.765220       -20.8227
  17   1.0000      -0.726795       -19.7771
  18   1.0000      -0.707351       -19.2480
  19   1.0000      -0.653797       -17.7907
  20   1.0000      -0.645811       -17.5734
  21   1.0000      -0.640465       -17.4279
  22   1.0000      -0.626623       -17.0513
  23   1.0000      -0.624297       -16.9880
  24   1.0000      -0.577780       -15.7222
  25   1.0000      -0.561828       -15.2881
  26   1.0000      -0.522752       -14.2248
  27   1.0000      -0.509629       -13.8677
  28   1.0000      -0.493736       -13.4352
  29   1.0000      -0.481071       -13.0906
  30   1.0000      -0.370267       -10.0755
  31   0.0000       0.026485         0.7207
  32   0.0000       0.034067         0.9270
  33   0.0000       0.035747         0.9727
  34   0.0000       0.039534         1.0758
  35   0.0000       0.053007         1.4424

MULLIKEN ATOMIC CHARGES AND SPIN POPULATIONS
--------------------------------------------
   0 C :    0.594891    0.964159
   1 C :   -0.401457   -0.082094
   2 C :   -0.360003    0.008026
   3 H :    0.284849    0.096893
   4 H :    0.227290   -0.014476
   5 C :   -0.249103   -0.002581
   6 H :    0.262862   -0.003211
   7 H :    0.255684   -0.006599
   8 C :   -0.144338    0.005454
   9 H :    0.144688   -0.003138
  10 H :    0.314325   -0.001098
  11 C :   -1.068444   -0.003003
  12 H :    0.220754    0.001748
  13 H :    0.521226   -0.000263
  14 H :    0.249415    0.000668
  15 F :   -0.434488    0.020759
  16 F :   -0.418151    0.018756
Sum of atomic charges         :    0.0000000

LOEWDIN ATOMIC CHARGES AND SPIN POPULATIONS
-------------------------------------------
   0 C :   -0.787155    0.612347
   1 C :    0.221651    0.106542
   2 C :    0.264933    0.006341
   3 H :   -0.146973    0.025021
   4 H :   -0.171243    0.004423
   5 C :    0.245201    0.010079
   6 H :   -0.149049    0.000919
   7 H :   -0.142707   -0.000218
   8 C :    0.169390    0.001762
   9 H :   -0.162839    0.010173
  10 H :   -0.144699    0.000710
  11 C :    0.527730    0.000983
  12 H :   -0.214223    0.000521
  13 H :   -0.223277    0.000003
  14 H :   -0.176280    0.000211
  15 F :    0.445569    0.110180
  16 F :    0.443971    0.110004

  Mayer bond orders larger than 0.100000
B(  0-C ,  1-C ) :   0.8824 B(  0-C , 15-F ) :   0.7582 B(  0-C , 16-F ) :   0.7263
B(  1-C ,  2-C ) :   0.8453 B(  1-C ,  3-H ) :   0.9060 B(  1-C ,  4-H ) :   0.9846
B(  2-C ,  5-C ) :   0.8957 B(  2-C ,  6-H ) :   0.9521 B(  2-C ,  7-H ) :   0.9637
B(  5-C ,  8-C ) :   0.7959 B(  5-C ,  9-H ) :   1.0397 B(  5-C , 10-H ) :   0.9190
B(  8-C , 11-C ) :   1.3326 B(  8-C , 14-H ) :   1.0334 B( 11-C , 12-H ) :   1.1641
B( 11-C , 13-H ) :   0.6099

MP2 TOTAL ENERGY:     -432.927983747 Eh
FINAL SINGLE POINT ENERGY      -432.927983747306

DIPOLE MOMENT
-------------
                                X             Y             Z
Electronic contribution:    -13.88043       3.14454      -2.21600
Nuclear contribution   :     14.61797      -3.57082       2.64791
                        -----------------------------------------
Total Dipole Moment    :      0.73754      -0.42628       0.43190
                        -----------------------------------------
Magnitude (a.u.)       :      0.95510
Magnitude (Debye)      :      2.42768

Rotational constants in cm-1:     0.105077     0.037730     0.032383
Rotational constants in MHz :  3150.142276  1131.114716   970.829154

                             ****ORCA TERMINATED NORMALLY****
TOTAL RUN TIME: 0 days 0 hours 3 minutes 59 seconds 348 msec
