                         Program Version 4.2.1 -  RELEASE  -
|  1> %pal
|  2>  nprocs 32
|  3> end
|  4> !RI-MP2 aug-cc-pVTZ aug-cc-pVTZ/C TightSCF
|  5> %maxcore 4500
|  6> *xyzfile 0 1  06_24R1.xyz
|  7>
|  8>
|  9>                          ****END OF INPUT****

CARTESIAN COORDINATES (ANGSTROEM)
---------------------------------
  C     -2.846573   -0.378033   -1.046103
  C     -1.689592    0.602844   -1.395594
  C     -0.447243   -0.689659    1.153509
  H     -3.311834   -0.708297   -1.978334
  C     -1.652218    1.833503   -0.461037
  H     -0.737010    2.406695   -0.646071
  H     -2.477284    2.495013   -0.748157
  H      0.163173   -1.174540    1.921928
  H     -1.895884    0.995284   -2.395199
  H      0.150691   -0.478964   -2.497344
  C     -1.782586    1.561863    1.034348
  H     -1.831691    2.525491    1.551356
  H     -2.744740    1.081091    1.230740
  C     -0.671646    0.739411    1.679014
  H      0.267132    1.298157    1.618958
  H     -0.899561    0.662995    2.747723
  C     -1.765778   -1.503198    1.087369
  H     -1.558221   -2.519485    1.436220
  C     -2.448339   -1.647363   -0.278891
  H     -1.800431   -2.250581   -0.925807
  H     -3.348317   -2.253671   -0.135539
  H     -2.476483   -1.087190    1.809106
  H     -3.629232    0.157954   -0.499743
  C      0.345176   -0.758860   -0.167207
  H      0.590660   -1.811232   -0.384904
  Si     2.125498   -0.065482   -0.115067
  C      2.219639    1.765311   -0.543677
  H      1.682665    2.392609    0.170091
  H      3.262023    2.095720   -0.553645
  H      1.806330    1.962684   -1.536660
  C      3.148534   -1.010136   -1.375323
  H      4.176199   -0.638039   -1.398819
  H      3.187907   -2.076062   -1.136722
  H      2.734617   -0.909404   -2.380841
  C      2.859120   -0.340073    1.593335
  H      2.834873   -1.397803    1.867620
  H      3.903881   -0.017994    1.610805
  H      2.328300    0.216714    2.368036
  B     -0.349141   -0.220810   -1.436462

 Total Charge           Charge          ....    0
 Multiplicity           Mult            ....    1
 Number of Electrons    NEL             ....  116
 Basis Dimension        Dim             .... 1223

ORBITAL ENERGIES
----------------

  NO   OCC          E(Eh)            E(eV)
   0   2.0000     -68.751133     -1870.8134
   1   2.0000     -11.221049      -305.3403
   2   2.0000     -11.216148      -305.2069
   3   2.0000     -11.215409      -305.1868
   4   2.0000     -11.212780      -305.1153
   5   2.0000     -11.211879      -305.0907
   6   2.0000     -11.211303      -305.0751
   7   2.0000     -11.209852      -305.0356
   8   2.0000     -11.194928      -304.6295
   9   2.0000     -11.193649      -304.5947
  10   2.0000     -11.191115      -304.5257
  11   2.0000     -11.190718      -304.5149
  12   2.0000     -11.178323      -304.1776
  13   2.0000      -7.572428      -206.0562
  14   2.0000      -6.097915      -165.9327
  15   2.0000      -4.204202      -114.4022
  16   2.0000      -4.204103      -114.3995
  17   2.0000      -4.204052      -114.3981
  18   2.0000      -1.112792       -30.2806
  19   2.0000      -1.044108       -28.4116
  20   2.0000      -1.041341       -28.3363
  21   2.0000      -0.977462       -26.5981
  22   2.0000      -0.948100       -25.7991
  23   2.0000      -0.921883       -25.0857
  24   2.0000      -0.919600       -25.0236
  25   2.0000      -0.914011       -24.8715
  26   2.0000      -0.875065       -23.8117
  27   2.0000      -0.796317       -21.6689
  28   2.0000      -0.788358       -21.4523
  29   2.0000      -0.713117       -19.4049
  30   2.0000      -0.660783       -17.9808
  31   2.0000      -0.640936       -17.4407
  32   2.0000      -0.622568       -16.9409
  33   2.0000      -0.616864       -16.7857
  34   2.0000      -0.598596       -16.2886
  35   2.0000      -0.580890       -15.8068
  36   2.0000      -0.571761       -15.5584
  37   2.0000      -0.569699       -15.5023
  38   2.0000      -0.563429       -15.3317
  39   2.0000      -0.557740       -15.1769
  40   2.0000      -0.551125       -14.9969
  41   2.0000      -0.544679       -14.8215
  42   2.0000      -0.539026       -14.6676
  43   2.0000      -0.531918       -14.4742
  44   2.0000      -0.527234       -14.3468
  45   2.0000      -0.519330       -14.1317
  46   2.0000      -0.491165       -13.3653
  47   2.0000      -0.484143       -13.1742
  48   2.0000      -0.475423       -12.9369
  49   2.0000      -0.463016       -12.5993
  50   2.0000      -0.445683       -12.1276
  51   2.0000      -0.443601       -12.0710
  52   2.0000      -0.430352       -11.7105
  53   2.0000      -0.428685       -11.6651
  54   2.0000      -0.416891       -11.3442
  55   2.0000      -0.409557       -11.1446
  56   2.0000      -0.399316       -10.8660
  57   2.0000      -0.379184       -10.3181
  58   0.0000       0.022717         0.6182
  59   0.0000       0.029279         0.7967
  60   0.0000       0.030722         0.8360
  61   0.0000       0.031083         0.8458
  62   0.0000       0.041259         1.1227

MULLIKEN ATOMIC CHARGES
-----------------------
   0 C :   -0.636098
   1 C :    0.166247
   2 C :    0.066148
   3 H :    0.232427
   4 C :   -0.543331
   5 H :    0.306525
   6 H :    0.159957
   7 H :    0.073959
   8 H :    0.345067
   9 H :    0.062591
  10 C :   -0.410028
  11 H :    0.429784
  12 H :   -0.039580
  13 C :   -0.361136
  14 H :    0.187595
  15 H :    0.098711
  16 C :   -0.907188
  17 H :    0.197266
  18 C :   -0.431695
  19 H :    0.085112
  20 H :    0.473832
  21 H :   -0.032170
  22 H :    0.007165
  23 C :    0.866779
  24 H :    0.476367
  25 Si:    3.063138
  26 C :   -1.185655
  27 H :    0.201847
  28 H :    0.300066
  29 H :    0.146875
  30 C :   -2.028221
  31 H :    0.155329
  32 H :    0.182438
  33 H :    0.222254
  34 C :   -1.509426
  35 H :    0.185543
  36 H :    0.154708
  37 H :    0.302926
  38 B :   -1.066127
Sum of atomic charges:    0.0000000

LOEWDIN ATOMIC CHARGES
----------------------
   0 C :    0.325734
   1 C :    0.125918
   2 C :   -0.004023
   3 H :   -0.137001
   4 C :    0.310571
   5 H :   -0.145309
   6 H :   -0.133411
   7 H :   -0.150284
   8 H :   -0.155196
   9 H :   -0.040573
  10 C :    0.308387
  11 H :   -0.131874
  12 H :   -0.164622
  13 C :    0.312943
  14 H :   -0.171980
  15 H :   -0.127120
  16 C :    0.337443
  17 H :   -0.136206
  18 C :    0.313120
  19 H :   -0.144100
  20 H :   -0.134167
  21 H :   -0.146001
  22 H :   -0.148522
  23 C :    0.122321
  24 H :   -0.191400
  25 Si:    0.511300
  26 C :    0.598913
  27 H :   -0.234364
  28 H :   -0.220140
  29 H :   -0.218445
  30 C :    0.591263
  31 H :   -0.225081
  32 H :   -0.223092
  33 H :   -0.229219
  34 C :    0.595038
  35 H :   -0.219604
  36 H :   -0.224060
  37 H :   -0.229539
  38 B :   -0.167617

  Mayer bond orders larger than 0.100000
B(  0-C ,  1-C ) :   0.8934 B(  0-C ,  3-H ) :   1.0013 B(  0-C ,  8-H ) :  -0.1325
B(  0-C , 18-C ) :   0.7949 B(  0-C , 20-H ) :  -0.1079 B(  0-C , 22-H ) :   1.2450
B(  0-C , 38-B ) :   0.1579 B(  1-C ,  2-C ) :   0.1121 B(  1-C ,  4-C ) :   0.8837
B(  1-C ,  8-H ) :   0.8639 B(  1-C , 38-B ) :   1.1071 B(  2-C ,  7-H ) :   1.0842
B(  2-C , 10-C ) :   0.1347 B(  2-C , 13-C ) :   0.8524 B(  2-C , 16-C ) :   0.7062
B(  2-C , 23-C ) :   1.0928 B(  2-C , 25-Si) :   0.2763 B(  2-C , 38-B ) :   0.2912
B(  4-C ,  5-H ) :   0.9715 B(  4-C ,  6-H ) :   1.0697 B(  4-C ,  8-H ) :  -0.1141
B(  4-C , 10-C ) :   0.7953 B(  4-C , 12-H ) :   0.1023 B(  7-H , 16-C ) :  -0.2564
B(  7-H , 23-C ) :  -0.1461 B(  8-H , 38-B ) :  -0.1018 B(  9-H , 23-C ) :  -0.1988
B(  9-H , 38-B ) :   0.8067 B( 10-C , 11-H ) :   0.7884 B( 10-C , 12-H ) :   1.3288
B( 10-C , 13-C ) :   0.7331 B( 13-C , 14-H ) :   0.9357 B( 13-C , 15-H ) :   1.1973
B( 13-C , 25-Si) :  -0.1061 B( 16-C , 17-H ) :   1.0594 B( 16-C , 18-C ) :   0.8297
B( 16-C , 19-H ) :   0.1245 B( 16-C , 21-H ) :   1.3648 B( 18-C , 19-H ) :   1.1830
B( 18-C , 20-H ) :   0.8054 B( 23-C , 24-H ) :   0.7125 B( 23-C , 25-Si) :   0.8300
B( 23-C , 26-C ) :   0.2903 B( 23-C , 34-C ) :   0.3074 B( 23-C , 38-B ) :   0.5872
B( 24-H , 25-Si) :  -0.2349 B( 24-H , 30-C ) :   0.1072 B( 24-H , 38-B ) :  -0.1972
B( 25-Si, 26-C ) :   0.1799 B( 25-Si, 30-C ) :  -1.2540 B( 25-Si, 31-H ) :  -0.2234
B( 25-Si, 32-H ) :  -0.1604 B( 25-Si, 34-C ) :  -0.3092 B( 25-Si, 36-H ) :  -0.1053
B( 26-C , 27-H ) :   1.1484 B( 26-C , 28-H ) :   0.8340 B( 26-C , 29-H ) :   1.1465
B( 26-C , 30-C ) :   0.1667 B( 26-C , 34-C ) :   0.1801 B( 27-H , 29-H ) :   0.1075
B( 30-C , 31-H ) :   1.2718 B( 30-C , 32-H ) :   1.1718 B( 30-C , 33-H ) :   1.1396
B( 30-C , 34-C ) :   0.1540 B( 30-C , 38-B ) :   0.1434 B( 34-C , 35-H ) :   1.1253
B( 34-C , 36-H ) :   1.0868 B( 34-C , 37-H ) :   1.0122

MP2 TOTAL ENERGY:     -785.149241287 Eh
FINAL SINGLE POINT ENERGY      -785.149241286986

DIPOLE MOMENT
-------------
                                X             Y             Z
Electronic contribution:     -0.58483      -1.25177      -2.17442
Nuclear contribution   :      0.55458       1.20218       2.38468
                        -----------------------------------------
Total Dipole Moment    :     -0.03025      -0.04959       0.21026
                        -----------------------------------------
Magnitude (a.u.)       :      0.21813
Magnitude (Debye)      :      0.55445

Rotational constants in cm-1:     0.031452     0.014801     0.014640
Rotational constants in MHz :   942.916121   443.726175   438.905560

                             ****ORCA TERMINATED NORMALLY****
TOTAL RUN TIME: 0 days 0 hours 43 minutes 47 seconds 699 msec
