                         Program Version 4.2.1 -  RELEASE  -
|  1> %pal
|  2>  nprocs 32
|  3> end
|  4> !RI-MP2 aug-cc-pVTZ aug-cc-pVTZ/C TightSCF
|  5> %maxcore 4500
|  6> *xyzfile 0 2  04_54TS.xyz
|  7>
|  8>
|  9>                          ****END OF INPUT****

CARTESIAN COORDINATES (ANGSTROEM)
---------------------------------
  N     -0.625244   -2.035519   -0.052498
  C      0.555752   -2.488530   -0.759236
  H     -3.456238    2.573165   -0.847216
  C      1.542693   -1.359990   -1.062917
  H      1.053755   -3.255705   -0.162903
  H      0.254429   -2.915378   -1.712634
  O      1.792259   -1.001841   -2.198588
  N      2.114262   -0.805315    0.038460
  H      1.796816   -1.135249    0.948311
  C      3.022073    0.293910   -0.071486
  C      2.396406    1.642204    0.207277
  H      3.869121    0.175371    0.608349
  H      3.421107    0.321098   -1.087489
  O      1.245952    1.856481    0.485081
  O      3.312475    2.617189    0.113820
  H      2.871914    3.460526    0.287904
  C     -0.604721   -1.758179    1.273768
  C     -1.836669   -1.149687    1.805093
  O      0.401964   -1.926239    1.966822
  N     -3.685495    1.616777   -1.070911
  H     -1.794338   -0.921256    2.863466
  H     -2.779706   -1.539919    1.435719
  C     -2.804765    0.647326   -0.740017
  C     -1.728297    1.040448    0.223230
  O     -2.883013   -0.501725   -1.159245
  N     -1.771922    2.354588    0.750151
  H     -0.747456    0.814903   -0.187017
  H     -1.816921    0.095871    1.115957
  H     -1.425602   -1.708499   -0.592299
  H     -2.452539    2.490050    1.486901
  H     -0.854941    2.661473    1.048401
  H     -4.372520    1.413892   -1.779271

 Total Charge           Charge          ....    0
 Multiplicity           Mult            ....    2
 Number of Electrons    NEL             ....  131
 Basis Dimension        Dim             .... 1127

ORBITAL ENERGIES
----------------
                 SPIN UP ORBITALS
  NO   OCC          E(Eh)            E(eV)
   0   1.0000     -20.628952      -561.3423
   1   1.0000     -20.567450      -559.6688
   2   1.0000     -20.530261      -558.6568
   3   1.0000     -20.523507      -558.4730
   4   1.0000     -20.519740      -558.3705
   5   1.0000     -15.592324      -424.2887
   6   1.0000     -15.579940      -423.9517
   7   1.0000     -15.577466      -423.8844
   8   1.0000     -15.567677      -423.6180
   9   1.0000     -11.401710      -310.2563
  10   1.0000     -11.360543      -309.1361
  11   1.0000     -11.351449      -308.8886
  12   1.0000     -11.345197      -308.7185
  13   1.0000     -11.288669      -307.1803
  14   1.0000     -11.282031      -306.9997
  15   1.0000     -11.272830      -306.7493
  16   1.0000     -11.252438      -306.1944
  17   1.0000      -1.487221       -40.4693
  18   1.0000      -1.395388       -37.9704
  19   1.0000      -1.390644       -37.8413
  20   1.0000      -1.383563       -37.6487
  21   1.0000      -1.380623       -37.5687
  22   1.0000      -1.240838       -33.7649
  23   1.0000      -1.237588       -33.6765
  24   1.0000      -1.229812       -33.4649
  25   1.0000      -1.201997       -32.7080
  26   1.0000      -1.049808       -28.5667
  27   1.0000      -1.018448       -27.7134
  28   1.0000      -0.971913       -26.4471
  29   1.0000      -0.950489       -25.8641
  30   1.0000      -0.849404       -23.1135
  31   1.0000      -0.809635       -22.0313
  32   1.0000      -0.794714       -21.6253
  33   1.0000      -0.777884       -21.1673
  34   1.0000      -0.749639       -20.3987
  35   1.0000      -0.732374       -19.9289
  36   1.0000      -0.725303       -19.7365
  37   1.0000      -0.713004       -19.4018
  38   1.0000      -0.704739       -19.1769
  39   1.0000      -0.687883       -18.7183
  40   1.0000      -0.677377       -18.4324
  41   1.0000      -0.666783       -18.1441
  42   1.0000      -0.660346       -17.9689
  43   1.0000      -0.650458       -17.6999
  44   1.0000      -0.642673       -17.4880
  45   1.0000      -0.612068       -16.6552
  46   1.0000      -0.611045       -16.6274
  47   1.0000      -0.604065       -16.4374
  48   1.0000      -0.596866       -16.2415
  49   1.0000      -0.584182       -15.8964
  50   1.0000      -0.579688       -15.7741
  51   1.0000      -0.571756       -15.5583
  52   1.0000      -0.555868       -15.1259
  53   1.0000      -0.545866       -14.8538
  54   1.0000      -0.533816       -14.5259
  55   1.0000      -0.530708       -14.4413
  56   1.0000      -0.504171       -13.7192
  57   1.0000      -0.477164       -12.9843
  58   1.0000      -0.469403       -12.7731
  59   1.0000      -0.451453       -12.2847
  60   1.0000      -0.443158       -12.0590
  61   1.0000      -0.432639       -11.7727
  62   1.0000      -0.430936       -11.7264
  63   1.0000      -0.397863       -10.8264
  64   1.0000      -0.389887       -10.6094
  65   1.0000      -0.325002        -8.8437
  66   0.0000       0.018648         0.5074
  67   0.0000       0.027259         0.7417
  68   0.0000       0.033694         0.9169
  69   0.0000       0.036208         0.9853
  70   0.0000       0.042905         1.1675

                 SPIN DOWN ORBITALS
  NO   OCC          E(Eh)            E(eV)
   0   1.0000     -20.628954      -561.3424
   1   1.0000     -20.567484      -559.6697
   2   1.0000     -20.529101      -558.6252
   3   1.0000     -20.519922      -558.3755
   4   1.0000     -20.519762      -558.3711
   5   1.0000     -15.591785      -424.2740
   6   1.0000     -15.579522      -423.9404
   7   1.0000     -15.577414      -423.8830
   8   1.0000     -15.566167      -423.5769
   9   1.0000     -11.401709      -310.2563
  10   1.0000     -11.361378      -309.1588
  11   1.0000     -11.353682      -308.9494
  12   1.0000     -11.345143      -308.7170
  13   1.0000     -11.288678      -307.1805
  14   1.0000     -11.272922      -306.7518
  15   1.0000     -11.267162      -306.5951
  16   1.0000     -11.233717      -305.6850
  17   1.0000      -1.487241       -40.4699
  18   1.0000      -1.392785       -37.8996
  19   1.0000      -1.388358       -37.7791
  20   1.0000      -1.382307       -37.6145
  21   1.0000      -1.377952       -37.4960
  22   1.0000      -1.239646       -33.7325
  23   1.0000      -1.232014       -33.5248
  24   1.0000      -1.227717       -33.4079
  25   1.0000      -1.194284       -32.4981
  26   1.0000      -1.037933       -28.2436
  27   1.0000      -0.998442       -27.1690
  28   1.0000      -0.950725       -25.8705
  29   1.0000      -0.925490       -25.1839
  30   1.0000      -0.848589       -23.0913
  31   1.0000      -0.803218       -21.8567
  32   1.0000      -0.791085       -21.5265
  33   1.0000      -0.776074       -21.1180
  34   1.0000      -0.747826       -20.3494
  35   1.0000      -0.730178       -19.8691
  36   1.0000      -0.724296       -19.7091
  37   1.0000      -0.708746       -19.2859
  38   1.0000      -0.694682       -18.9032
  39   1.0000      -0.682769       -18.5791
  40   1.0000      -0.672326       -18.2949
  41   1.0000      -0.665089       -18.0980
  42   1.0000      -0.657979       -17.9045
  43   1.0000      -0.647996       -17.6329
  44   1.0000      -0.619559       -16.8590
  45   1.0000      -0.609709       -16.5910
  46   1.0000      -0.601844       -16.3770
  47   1.0000      -0.597716       -16.2647
  48   1.0000      -0.591383       -16.0924
  49   1.0000      -0.578050       -15.7295
  50   1.0000      -0.573582       -15.6080
  51   1.0000      -0.566157       -15.4059
  52   1.0000      -0.546527       -14.8718
  53   1.0000      -0.542018       -14.7491
  54   1.0000      -0.530130       -14.4256
  55   1.0000      -0.513742       -13.9796
  56   1.0000      -0.502328       -13.6690
  57   1.0000      -0.476317       -12.9613
  58   1.0000      -0.450466       -12.2578
  59   1.0000      -0.442039       -12.0285
  60   1.0000      -0.433661       -11.8005
  61   1.0000      -0.424315       -11.5462
  62   1.0000      -0.402328       -10.9479
  63   1.0000      -0.397454       -10.8153
  64   1.0000      -0.379822       -10.3355
  65   0.0000       0.018771         0.5108
  66   0.0000       0.027269         0.7420
  67   0.0000       0.033816         0.9202
  68   0.0000       0.036101         0.9824
  69   0.0000       0.042324         1.1517

MULLIKEN ATOMIC CHARGES AND SPIN POPULATIONS
--------------------------------------------
   0 N :   -0.342083    0.021234
   1 C :   -0.076687   -0.006485
   2 H :    0.120144   -0.000069
   3 C :    0.513539    0.000064
   4 H :    0.365543    0.000152
   5 H :    0.331775    0.000020
   6 O :   -1.090700   -0.000467
   7 N :   -0.190900    0.003613
   8 H :    0.209644   -0.001666
   9 C :   -0.025557    0.000266
  10 C :    0.310485   -0.000383
  11 H :    0.358027    0.000096
  12 H :    0.384177    0.000198
  13 O :   -0.648133    0.000908
  14 O :   -0.581334    0.000006
  15 H :    0.254391    0.000002
  16 C :    0.743860   -0.083963
  17 C :   -0.639498    0.906803
  18 O :   -1.098688    0.075352
  19 N :   -0.517018    0.015475
  20 H :    0.351492   -0.031377
  21 H :    0.336146   -0.049979
  22 C :    0.660771   -0.046688
  23 C :    0.403184    0.678345
  24 O :   -0.878174    0.021146
  25 N :   -0.843544    0.025920
  26 H :    0.485126   -0.016322
  27 H :    0.154590   -0.513513
  28 H :    0.513033   -0.002968
  29 H :    0.045721    0.011132
  30 H :    0.256289   -0.005247
  31 H :    0.134377   -0.001605
Sum of atomic charges         :    0.0000000

LOEWDIN ATOMIC CHARGES AND SPIN POPULATIONS
-------------------------------------------
   0 N :    0.567041    0.002871
   1 C :    0.225998   -0.000041
   2 H :   -0.327173    0.000698
   3 C :   -0.640758    0.000440
   4 H :   -0.148301   -0.000128
   5 H :   -0.152795   -0.000105
   6 O :    0.454811   -0.000253
   7 N :    0.549604    0.000853
   8 H :   -0.435598    0.000652
   9 C :    0.186821    0.000030
  10 C :   -0.749340   -0.000116
  11 H :   -0.141917   -0.000010
  12 H :   -0.171616    0.000032
  13 O :    0.511111   -0.000879
  14 O :    0.845572   -0.000025
  15 H :   -0.461757   -0.000002
  16 C :   -0.663137    0.045346
  17 C :    0.569720    0.326833
  18 O :    0.501620    0.055796
  19 N :    0.866905    0.009283
  20 H :   -0.167975    0.055081
  21 H :   -0.167171    0.048486
  22 C :   -0.633655    0.028818
  23 C :    0.124907    0.225385
  24 O :    0.502019    0.018072
  25 N :    0.855806    0.071677
  26 H :   -0.194455    0.023684
  27 H :   -0.352100    0.076039
  28 H :   -0.419566   -0.000905
  29 H :   -0.292984    0.007304
  30 H :   -0.359658    0.003832
  31 H :   -0.281981    0.001253

  Mayer bond orders larger than 0.100000
B(  0-N ,  1-C ) :   1.0595 B(  0-N , 16-C ) :   1.1130 B(  0-N , 28-H ) :   0.5678
B(  1-C ,  3-C ) :   0.5049 B(  1-C ,  4-H ) :   0.9378 B(  1-C ,  5-H ) :   0.9315
B(  2-H , 19-N ) :   1.0956 B(  3-C ,  6-O ) :   0.9163 B(  3-C ,  7-N ) :   0.9920
B(  7-N ,  8-H ) :   0.9152 B(  7-N ,  9-C ) :   1.0677 B(  9-C , 10-C ) :   0.3154
B(  9-C , 11-H ) :   0.8880 B(  9-C , 12-H ) :   0.8648 B( 10-C , 13-O ) :   1.5858
B( 10-C , 14-O ) :   0.9635 B( 13-O , 14-O ) :  -0.1343 B( 13-O , 26-H ) :  -0.1595
B( 14-O , 15-H ) :   0.9601 B( 16-C , 17-C ) :   0.7686 B( 16-C , 18-O ) :   0.7923
B( 16-C , 27-H ) :   0.2364 B( 16-C , 28-H ) :  -0.1032 B( 17-C , 20-H ) :   0.9154
B( 17-C , 21-H ) :   0.9501 B( 17-C , 27-H ) :   0.3235 B( 18-O , 27-H ) :   0.1218
B( 19-N , 22-C ) :   0.7645 B( 19-N , 24-O ) :  -0.1102 B( 19-N , 31-H ) :   1.0812
B( 22-C , 23-C ) :   0.5095 B( 22-C , 24-O ) :   1.2599 B( 22-C , 25-N ) :   0.2328
B( 22-C , 27-H ) :   0.1627 B( 23-C , 25-N ) :   0.2780 B( 23-C , 26-H ) :   0.8746
B( 23-C , 27-H ) :   0.4704 B( 24-O , 27-H ) :  -0.1215 B( 25-N , 29-H ) :   1.0951
B( 25-N , 30-H ) :   0.8256

MP2 TOTAL ENERGY:     -907.499528463 Eh
FINAL SINGLE POINT ENERGY      -907.499528462947

DIPOLE MOMENT
-------------
                                X             Y             Z
Electronic contribution:      5.70700      -0.79583      -2.53189
Nuclear contribution   :     -6.36428       2.54101       3.39512
                        -----------------------------------------
Total Dipole Moment    :     -0.65728       1.74517       0.86323
                        -----------------------------------------
Magnitude (a.u.)       :      2.05495
Magnitude (Debye)      :      5.22327

Rotational constants in cm-1:     0.017056     0.011460     0.009069
Rotational constants in MHz :   511.320441   343.570126   271.882435

                             ****ORCA TERMINATED NORMALLY****
TOTAL RUN TIME: 0 days 0 hours 49 minutes 19 seconds 503 msec
