                         Program Version 4.2.1 -  RELEASE  -
|  1> %pal
|  2>  nprocs 32
|  3> end
|  4> !RI-MP2 aug-cc-pVTZ aug-cc-pVTZ/C TightSCF
|  5> %maxcore 4500
|  6> *xyzfile 0 2  04_19R.xyz
|  7>
|  8>
|  9>                          ****END OF INPUT****

CARTESIAN COORDINATES (ANGSTROEM)
---------------------------------
  C      0.395303    1.855468    0.619333
  H      0.000170    2.861360    0.451814
  C      2.446586    0.473977   -0.168162
  H      3.309131    0.605312   -0.828322
  H      0.917218    1.896365    1.582560
  H      2.816512    0.594008    0.852639
  C      1.401957    1.543875   -0.489656
  H      1.945262    2.472784   -0.688187
  H      0.877530    1.294153   -1.414968
  C     -0.827275    0.949479    0.783674
  C     -1.506426   -0.854884   -1.149339
  C     -1.413316   -1.664672    0.128996
  H     -2.315583   -1.214492   -1.785894
  H     -0.566582   -0.892910   -1.696079
  H     -2.396681   -1.832390    0.566339
  H     -0.922723   -2.624138   -0.041609
  S     -1.911457    0.856030   -0.690396
  S     -0.377446   -0.751122    1.312576
  S      1.964230   -1.251708   -0.429645
  H     -1.450481    1.369299    1.572081

 Total Charge           Charge          ....    0
 Multiplicity           Mult            ....    2
 Number of Electrons    NEL             ....   95
 Basis Dimension        Dim             ....  679

ORBITAL ENERGIES
----------------
                 SPIN UP ORBITALS
  NO   OCC          E(Eh)            E(eV)
   0   1.0000     -91.960291     -2502.3667
   1   1.0000     -91.954849     -2502.2187
   2   1.0000     -91.949566     -2502.0749
   3   1.0000     -11.296460      -307.3923
   4   1.0000     -11.270091      -306.6748
   5   1.0000     -11.265819      -306.5585
   6   1.0000     -11.257481      -306.3316
   7   1.0000     -11.240444      -305.8680
   8   1.0000     -11.232580      -305.6541
   9   1.0000      -8.961323      -243.8500
  10   1.0000      -8.955482      -243.6911
  11   1.0000      -8.950511      -243.5558
  12   1.0000      -6.645818      -180.8419
  13   1.0000      -6.642629      -180.7551
  14   1.0000      -6.641952      -180.7367
  15   1.0000      -6.640813      -180.7057
  16   1.0000      -6.636639      -180.5921
  17   1.0000      -6.635762      -180.5683
  18   1.0000      -6.634769      -180.5412
  19   1.0000      -6.627595      -180.3460
  20   1.0000      -6.626178      -180.3075
  21   1.0000      -1.144787       -31.1513
  22   1.0000      -1.088902       -29.6305
  23   1.0000      -1.037936       -28.2437
  24   1.0000      -0.985491       -26.8166
  25   1.0000      -0.965114       -26.2621
  26   1.0000      -0.882866       -24.0240
  27   1.0000      -0.811301       -22.0766
  28   1.0000      -0.803855       -21.8740
  29   1.0000      -0.749260       -20.3884
  30   1.0000      -0.659203       -17.9378
  31   1.0000      -0.642985       -17.4965
  32   1.0000      -0.624162       -16.9843
  33   1.0000      -0.619861       -16.8673
  34   1.0000      -0.588390       -16.0109
  35   1.0000      -0.563043       -15.3212
  36   1.0000      -0.550125       -14.9697
  37   1.0000      -0.521511       -14.1910
  38   1.0000      -0.518153       -14.0997
  39   1.0000      -0.487315       -13.2605
  40   1.0000      -0.476488       -12.9659
  41   1.0000      -0.468878       -12.7588
  42   1.0000      -0.452213       -12.3053
  43   1.0000      -0.429912       -11.6985
  44   1.0000      -0.413955       -11.2643
  45   1.0000      -0.354807        -9.6548
  46   1.0000      -0.347755        -9.4629
  47   1.0000      -0.327623        -8.9151
  48   0.0000       0.028437         0.7738
  49   0.0000       0.031290         0.8514
  50   0.0000       0.034588         0.9412
  51   0.0000       0.041647         1.1333
  52   0.0000       0.047618         1.2957

                 SPIN DOWN ORBITALS
  NO   OCC          E(Eh)            E(eV)
   0   1.0000     -91.958695     -2502.3233
   1   1.0000     -91.954845     -2502.2185
   2   1.0000     -91.940220     -2501.8206
   3   1.0000     -11.296685      -307.3984
   4   1.0000     -11.270347      -306.6817
   5   1.0000     -11.265818      -306.5585
   6   1.0000     -11.258536      -306.3603
   7   1.0000     -11.240329      -305.8649
   8   1.0000     -11.232277      -305.6458
   9   1.0000      -8.959368      -243.7968
  10   1.0000      -8.955478      -243.6909
  11   1.0000      -8.940243      -243.2764
  12   1.0000      -6.640767      -180.7045
  13   1.0000      -6.639925      -180.6816
  14   1.0000      -6.637000      -180.6020
  15   1.0000      -6.636628      -180.5918
  16   1.0000      -6.635761      -180.5682
  17   1.0000      -6.634757      -180.5409
  18   1.0000      -6.622266      -180.2010
  19   1.0000      -6.620652      -180.1571
  20   1.0000      -6.605151      -179.7353
  21   1.0000      -1.142897       -31.0998
  22   1.0000      -1.084823       -29.5195
  23   1.0000      -1.027107       -27.9490
  24   1.0000      -0.980772       -26.6882
  25   1.0000      -0.947432       -25.7809
  26   1.0000      -0.857397       -23.3309
  27   1.0000      -0.803798       -21.8725
  28   1.0000      -0.778732       -21.1904
  29   1.0000      -0.744371       -20.2554
  30   1.0000      -0.656285       -17.8584
  31   1.0000      -0.639810       -17.4101
  32   1.0000      -0.618628       -16.8337
  33   1.0000      -0.617008       -16.7896
  34   1.0000      -0.585836       -15.9414
  35   1.0000      -0.557749       -15.1771
  36   1.0000      -0.546819       -14.8797
  37   1.0000      -0.517224       -14.0744
  38   1.0000      -0.511634       -13.9223
  39   1.0000      -0.481552       -13.1037
  40   1.0000      -0.475680       -12.9439
  41   1.0000      -0.467323       -12.7165
  42   1.0000      -0.443640       -12.0721
  43   1.0000      -0.416507       -11.3337
  44   1.0000      -0.355978        -9.6866
  45   1.0000      -0.344820        -9.3830
  46   1.0000      -0.332026        -9.0349
  47   0.0000       0.028467         0.7746
  48   0.0000       0.031295         0.8516
  49   0.0000       0.033634         0.9152
  50   0.0000       0.041594         1.1318
  51   0.0000       0.042779         1.1641

MULLIKEN ATOMIC CHARGES AND SPIN POPULATIONS
--------------------------------------------
   0 C :   -0.564173    0.001845
   1 H :    0.271496    0.000019
   2 C :   -0.284334   -0.126600
   3 H :    0.272878    0.025141
   4 H :    0.255349   -0.003192
   5 H :    0.237541    0.004121
   6 C :   -0.466084    0.013341
   7 H :    0.247842   -0.000976
   8 H :    0.274930   -0.009403
   9 C :    0.297871   -0.014564
  10 C :   -0.337602    0.003095
  11 C :   -0.432549   -0.014648
  12 H :    0.363994   -0.000205
  13 H :    0.222767   -0.001903
  14 H :    0.279527   -0.002440
  15 H :    0.281651   -0.000749
  16 S :   -0.492634   -0.001202
  17 S :   -0.413122    0.079305
  18 S :   -0.318997    1.051054
  19 H :    0.303648   -0.002039
Sum of atomic charges         :   -0.0000000

LOEWDIN ATOMIC CHARGES AND SPIN POPULATIONS
-------------------------------------------
   0 C :    0.140866    0.000541
   1 H :   -0.164469    0.000352
   2 C :   -0.221044    0.109245
   3 H :   -0.244099    0.024603
   4 H :   -0.162361    0.000289
   5 H :   -0.241341    0.001125
   6 C :    0.177003    0.003039
   7 H :   -0.154095   -0.000028
   8 H :   -0.190571   -0.000571
   9 C :   -0.652397    0.008557
  10 C :   -0.152902   -0.001201
  11 C :   -0.136170    0.002731
  12 H :   -0.221945   -0.000174
  13 H :   -0.283526   -0.001818
  14 H :   -0.226022    0.000236
  15 H :   -0.228735    0.000290
  16 S :    1.201608    0.000458
  17 S :    1.164517    0.108657
  18 S :    0.887640    0.741574
  19 H :   -0.291956    0.002096

  Mayer bond orders larger than 0.100000
B(  0-C ,  1-H ) :   0.9670 B(  0-C ,  4-H ) :   0.9459 B(  0-C ,  6-C ) :   0.8935
B(  0-C ,  9-C ) :   0.9356 B(  2-C ,  3-H ) :   0.9493 B(  2-C ,  5-H ) :   0.9569
B(  2-C ,  6-C ) :   0.9406 B(  2-C , 18-S ) :   0.9106 B(  6-C ,  7-H ) :   0.9806
B(  6-C ,  8-H ) :   0.9561 B(  9-C , 16-S ) :   0.8975 B(  9-C , 17-S ) :   0.8704
B(  9-C , 19-H ) :   0.9229 B( 10-C , 11-C ) :   0.9782 B( 10-C , 12-H ) :   0.8604
B( 10-C , 13-H ) :   0.9848 B( 10-C , 16-S ) :   0.9077 B( 11-C , 14-H ) :   0.9434
B( 11-C , 15-H ) :   0.9210 B( 11-C , 17-S ) :   1.0032

MP2 TOTAL ENERGY:    -1427.867882757 Eh
FINAL SINGLE POINT ENERGY     -1427.867882756625

DIPOLE MOMENT
-------------
                                X             Y             Z
Electronic contribution:     -2.31281      -4.16448       1.35148
Nuclear contribution   :      2.21242       4.54139      -1.42823
                        -----------------------------------------
Total Dipole Moment    :     -0.10039       0.37692      -0.07674
                        -----------------------------------------
Magnitude (a.u.)       :      0.39753
Magnitude (Debye)      :      1.01045

Rotational constants in cm-1:     0.045135     0.029772     0.024302
Rotational constants in MHz :  1353.109982   892.552587   728.566532

                             ****ORCA TERMINATED NORMALLY****
TOTAL RUN TIME: 0 days 0 hours 17 minutes 35 seconds 659 msec
