                         Program Version 4.2.1 -  RELEASE  -
|  1> %pal
|  2>  nprocs 32
|  3> end
|  4> !RI-MP2 aug-cc-pVTZ aug-cc-pVTZ/C TightSCF
|  5> %maxcore 4500
|  6> *xyzfile -1 1  09_4P.xyz
|  7>
|  8>
|  9>                          ****END OF INPUT****

CARTESIAN COORDINATES (ANGSTROEM)
---------------------------------
  C     -1.782882    1.076111   -0.393469
  C     -1.193591   -0.218024    0.112762
  C     -0.004411   -0.071825    1.016188
  O     -1.639918   -1.298585   -0.234190
  C      1.233487    0.237817    0.146900
  H     -2.426827    1.490954    0.389996
  H     -0.974238    1.790423   -0.572778
  H     -2.380454    0.897106   -1.288020
  C      1.870969   -1.031509   -0.398955
  H      2.244998   -1.681591    0.406639
  H      2.712370   -0.779352   -1.048376
  H      1.161200   -1.639471   -0.975888
  C      1.597094    1.509575   -0.079867
  H      2.492140    1.519846   -0.736535
  H      0.115695   -0.997287    1.589297
  H     -0.149536    0.775182    1.687839

 Total Charge           Charge          ....   -1
 Multiplicity           Mult            ....    1
 Number of Electrons    NEL             ....   54
 Basis Dimension        Dim             ....  529

ORBITAL ENERGIES
----------------

  NO   OCC          E(Eh)            E(eV)
   0   2.0000     -20.391898      -554.8918
   1   2.0000     -11.175715      -304.1067
   2   2.0000     -11.080470      -301.5149
   3   2.0000     -11.061304      -300.9934
   4   2.0000     -11.054436      -300.8065
   5   2.0000     -11.026545      -300.0476
   6   2.0000     -10.974691      -298.6365
   7   2.0000      -1.231655       -33.5150
   8   2.0000      -0.913020       -24.8445
   9   2.0000      -0.853330       -23.2203
  10   2.0000      -0.783371       -21.3166
  11   2.0000      -0.716414       -19.4946
  12   2.0000      -0.585472       -15.9315
  13   2.0000      -0.510840       -13.9007
  14   2.0000      -0.486343       -13.2341
  15   2.0000      -0.484203       -13.1758
  16   2.0000      -0.443745       -12.0749
  17   2.0000      -0.414428       -11.2772
  18   2.0000      -0.399621       -10.8742
  19   2.0000      -0.394634       -10.7385
  20   2.0000      -0.381316       -10.3761
  21   2.0000      -0.350793        -9.5456
  22   2.0000      -0.326580        -8.8867
  23   2.0000      -0.290951        -7.9172
  24   2.0000      -0.259489        -7.0610
  25   2.0000      -0.132427        -3.6035
  26   2.0000      -0.102678        -2.7940
  27   0.0000       0.118614         3.2276
  28   0.0000       0.123442         3.3590
  29   0.0000       0.124545         3.3890
  30   0.0000       0.135946         3.6993
  31   0.0000       0.139913         3.8072

MULLIKEN ATOMIC CHARGES
-----------------------
   0 C :   -0.873392
   1 C :    0.503527
   2 C :   -0.236892
   3 O :   -0.970872
   4 C :    0.895303
   5 H :    0.277824
   6 H :    0.365298
   7 H :    0.250299
   8 C :   -0.942944
   9 H :    0.244248
  10 H :    0.252899
  11 H :    0.224093
  12 C :   -1.654005
  13 H :    0.149848
  14 H :    0.219314
  15 H :    0.295453
Sum of atomic charges:   -1.0000000

LOEWDIN ATOMIC CHARGES
----------------------
   0 C :    0.558208
   1 C :   -0.576152
   2 C :    0.173725
   3 O :    0.422216
   4 C :   -0.361755
   5 H :   -0.178587
   6 H :   -0.226743
   7 H :   -0.190041
   8 C :    0.478011
   9 H :   -0.190667
  10 H :   -0.209401
  11 H :   -0.192371
  12 C :    0.284428
  13 H :   -0.418478
  14 H :   -0.178095
  15 H :   -0.194299

  Mayer bond orders larger than 0.100000
B(  0-C ,  1-C ) :   0.8499 B(  0-C ,  5-H ) :   0.9630 B(  0-C ,  6-H ) :   0.8452
B(  0-C ,  7-H ) :   0.9885 B(  1-C ,  2-C ) :   0.6746 B(  1-C ,  3-O ) :   1.0337
B(  1-C ,  4-C ) :   0.3366 B(  1-C , 12-C ) :   0.1539 B(  2-C ,  4-C ) :   0.8815
B(  2-C , 14-H ) :   0.9770 B(  2-C , 15-H ) :   0.9366 B(  4-C ,  8-C ) :   0.6774
B(  4-C , 12-C ) :   0.4366 B(  8-C ,  9-H ) :   1.0186 B(  8-C , 10-H ) :   0.9807
B(  8-C , 11-H ) :   1.0032 B( 12-C , 13-H ) :   1.1193

MP2 TOTAL ENERGY:     -308.603235778 Eh
FINAL SINGLE POINT ENERGY      -308.603235777775

DIPOLE MOMENT
-------------
                                X             Y             Z
Electronic contribution:     -4.22861      -2.50975       0.71842
Nuclear contribution   :      2.83795       1.38884      -0.56515
                        -----------------------------------------
Total Dipole Moment    :     -1.39066      -1.12091       0.15327
                        -----------------------------------------
Magnitude (a.u.)       :      1.79273
Magnitude (Debye)      :      4.55675

Rotational constants in cm-1:     0.134316     0.067186     0.052562
Rotational constants in MHz :  4026.705958  2014.185119  1575.756766

                             ****ORCA TERMINATED NORMALLY****
TOTAL RUN TIME: 0 days 0 hours 2 minutes 25 seconds 476 msec
