                         Program Version 4.2.1 -  RELEASE  -
|  1> %pal
|  2>  nprocs 32
|  3> end
|  4> !RI-MP2 aug-cc-pVTZ aug-cc-pVTZ/C TightSCF
|  5> %maxcore 4500
|  6> *xyzfile 0 1  10_60P.xyz
|  7>
|  8>
|  9>                          ****END OF INPUT****

CARTESIAN COORDINATES (ANGSTROEM)
---------------------------------
  C      0.594825   -1.407380    0.496480
  C     -0.752360   -1.401904   -0.227166
  C     -1.531967   -0.158235    0.127836
  C     -2.825366   -0.078717   -0.088549
  C      2.680327   -0.242868   -0.041794
  C      1.377830   -0.155308    0.167821
  C     -0.764893    0.993099    0.729724
  F     -3.590495    0.971747    0.179215
  F      3.374795   -1.370401    0.013837
  C      0.611006    1.108806    0.111947
  C      1.022321    2.253699   -0.430034
  F      3.496328    0.755374   -0.326364
  F     -3.565875   -1.047827   -0.611775
  H      0.370482    3.118608   -0.427494
  H      1.994285    2.372137   -0.885565
  H     -0.575865   -1.432619   -1.307247
  H     -1.320713   -2.298656    0.024768
  H      0.426911   -1.461102    1.577544
  H      1.164025   -2.294495    0.223988
  H     -0.653053    0.820485    1.807562
  H     -1.309195    1.928464    0.614641

 Total Charge           Charge          ....    0
 Multiplicity           Mult            ....    1
 Number of Electrons    NEL             ....   98
 Basis Dimension        Dim             ....  782

ORBITAL ENERGIES
----------------

  NO   OCC          E(Eh)            E(eV)
   0   2.0000     -26.349203      -716.9983
   1   2.0000     -26.347077      -716.9404
   2   2.0000     -26.339885      -716.7447
   3   2.0000     -26.339450      -716.7329
   4   2.0000     -11.420691      -310.7728
   5   2.0000     -11.407153      -310.4044
   6   2.0000     -11.262375      -306.4648
   7   2.0000     -11.259972      -306.3994
   8   2.0000     -11.254494      -306.2503
   9   2.0000     -11.252903      -306.2071
  10   2.0000     -11.251965      -306.1815
  11   2.0000     -11.249846      -306.1239
  12   2.0000     -11.230900      -305.6083
  13   2.0000      -1.704701       -46.3873
  14   2.0000      -1.693337       -46.0780
  15   2.0000      -1.639743       -44.6197
  16   2.0000      -1.630368       -44.3646
  17   2.0000      -1.174691       -31.9650
  18   2.0000      -1.104276       -30.0489
  19   2.0000      -1.065164       -28.9846
  20   2.0000      -1.007222       -27.4079
  21   2.0000      -0.952458       -25.9177
  22   2.0000      -0.908818       -24.7302
  23   2.0000      -0.864850       -23.5338
  24   2.0000      -0.839406       -22.8414
  25   2.0000      -0.803311       -21.8592
  26   2.0000      -0.794782       -21.6271
  27   2.0000      -0.781762       -21.2728
  28   2.0000      -0.765256       -20.8237
  29   2.0000      -0.756910       -20.5966
  30   2.0000      -0.731366       -19.9015
  31   2.0000      -0.696045       -18.9403
  32   2.0000      -0.691723       -18.8228
  33   2.0000      -0.684222       -18.6186
  34   2.0000      -0.680567       -18.5192
  35   2.0000      -0.665369       -18.1056
  36   2.0000      -0.662281       -18.0216
  37   2.0000      -0.648280       -17.6406
  38   2.0000      -0.627513       -17.0755
  39   2.0000      -0.613605       -16.6970
  40   2.0000      -0.573061       -15.5938
  41   2.0000      -0.566831       -15.4243
  42   2.0000      -0.551570       -15.0090
  43   2.0000      -0.525802       -14.3078
  44   2.0000      -0.510196       -13.8831
  45   2.0000      -0.494517       -13.4565
  46   2.0000      -0.434291       -11.8177
  47   2.0000      -0.365124        -9.9355
  48   2.0000      -0.332680        -9.0527
  49   0.0000       0.027674         0.7531
  50   0.0000       0.031947         0.8693
  51   0.0000       0.035146         0.9564
  52   0.0000       0.041689         1.1344
  53   0.0000       0.050011         1.3609

MULLIKEN ATOMIC CHARGES
-----------------------
   0 C :   -0.291657
   1 C :   -0.507427
   2 C :    0.538576
   3 C :    0.440196
   4 C :    0.205339
   5 C :    1.085343
   6 C :   -0.355651
   7 F :   -0.367286
   8 F :   -0.375151
   9 C :    0.398354
  10 C :   -1.632274
  11 F :   -0.356465
  12 F :   -0.350108
  13 H :    0.317195
  14 H :    0.393351
  15 H :    0.200084
  16 H :    0.141075
  17 H :    0.188914
  18 H :    0.170169
  19 H :    0.196482
  20 H :   -0.039060
Sum of atomic charges:   -0.0000000

LOEWDIN ATOMIC CHARGES
----------------------
   0 C :    0.267864
   1 C :    0.282452
   2 C :   -0.131356
   3 C :   -0.857220
   4 C :   -0.851115
   5 C :   -0.140568
   6 C :    0.255847
   7 F :    0.502273
   8 F :    0.513405
   9 C :   -0.125028
  10 C :    0.567209
  11 F :    0.528559
  12 F :    0.501444
  13 H :   -0.209483
  14 H :   -0.242788
  15 H :   -0.131669
  16 H :   -0.143915
  17 H :   -0.132537
  18 H :   -0.157488
  19 H :   -0.130124
  20 H :   -0.165763

  Mayer bond orders larger than 0.100000
B(  0-C ,  1-C ) :   0.9918 B(  0-C ,  5-C ) :   0.7099 B(  0-C , 17-H ) :   1.0477
B(  0-C , 18-H ) :   0.9687 B(  1-C ,  2-C ) :   0.6910 B(  1-C , 15-H ) :   1.0141
B(  1-C , 16-H ) :   1.0501 B(  2-C ,  3-C ) :   1.5214 B(  2-C ,  5-C ) :  -0.1528
B(  2-C ,  6-C ) :   0.7395 B(  2-C ,  7-F ) :   0.1156 B(  2-C ,  9-C ) :   0.2817
B(  2-C , 12-F ) :   0.2088 B(  3-C ,  7-F ) :   0.6443 B(  3-C , 12-F ) :   0.5833
B(  4-C ,  5-C ) :   0.7475 B(  4-C ,  8-F ) :   0.7227 B(  4-C ,  9-C ) :   0.2335
B(  4-C , 10-C ) :   0.1351 B(  4-C , 11-F ) :   0.6865 B(  5-C ,  9-C ) :   0.4078
B(  5-C , 10-C ) :  -0.1029 B(  5-C , 11-F ) :   0.2176 B(  6-C ,  9-C ) :   0.9986
B(  6-C , 19-H ) :   1.0472 B(  6-C , 20-H ) :   1.1125 B(  7-F , 20-H ) :   0.1718
B(  8-F , 11-F ) :  -0.1229 B(  8-F , 18-H ) :   0.1323 B(  9-C , 10-C ) :   0.7709
B( 10-C , 13-H ) :   0.9814 B( 10-C , 14-H ) :   0.9756 B( 12-F , 16-H ) :   0.1096

MP2 TOTAL ENERGY:     -745.912574585 Eh
FINAL SINGLE POINT ENERGY      -745.912574585180

DIPOLE MOMENT
-------------
                                X             Y             Z
Electronic contribution:     -0.24840      -1.49958      -1.99896
Nuclear contribution   :      0.36262       1.37482       2.26434
                        -----------------------------------------
Total Dipole Moment    :      0.11422      -0.12476       0.26537
                        -----------------------------------------
Magnitude (a.u.)       :      0.31470
Magnitude (Debye)      :      0.79990

Rotational constants in cm-1:     0.058520     0.013541     0.011469
Rotational constants in MHz :  1754.391184   405.938843   343.843993

                             ****ORCA TERMINATED NORMALLY****
TOTAL RUN TIME: 0 days 0 hours 8 minutes 38 seconds 186 msec
