                         Program Version 4.2.1 -  RELEASE  -
|  1> %pal
|  2>  nprocs 32
|  3> end
|  4> !RI-MP2 aug-cc-pVTZ aug-cc-pVTZ/C TightSCF
|  5> %maxcore 4500
|  6> *xyzfile 0 1  10_80R.xyz
|  7>
|  8>
|  9>                          ****END OF INPUT****

CARTESIAN COORDINATES (ANGSTROEM)
---------------------------------
  C      3.168561    0.395477    0.033340
  C      2.445938    0.395671    1.377930
  C      0.968391    0.175449    1.240116
  C      0.387792   -0.232247    0.118457
  C      1.161414   -0.544447   -1.138073
  C      2.649029   -0.732436   -0.851065
  H      4.246069    0.304505    0.185664
  H      2.998120    1.352650   -0.470547
  H      2.617252    1.337172    1.907328
  H      2.852582   -0.387746    2.028978
  H      0.757007   -1.444432   -1.611230
  H      1.027069    0.272095   -1.857179
  H      3.202438   -0.775914   -1.791432
  H      2.801022   -1.691944   -0.346303
  C     -1.130453   -0.410216    0.016645
  C     -1.816498   -0.028888    1.259402
  C     -1.434502   -1.828151   -0.254955
  N     -2.367934    0.281686    2.214056
  N     -1.651660   -2.924107   -0.509870
  C     -1.731628    0.427867   -1.160917
  C     -1.430478    1.844529   -1.040279
  C     -1.176255    3.006986   -0.931303
  H     -1.327073    0.033547   -2.094163
  H     -2.811354    0.269421   -1.185326
  H      0.365073    0.367149    2.120949
  H     -0.958912    4.042871   -0.831831

 Total Charge           Charge          ....    0
 Multiplicity           Mult            ....    1
 Number of Electrons    NEL             ....   98
 Basis Dimension        Dim             ....  920

ORBITAL ENERGIES
----------------

  NO   OCC          E(Eh)            E(eV)
   0   2.0000     -15.592476      -424.2928
   1   2.0000     -15.590025      -424.2262
   2   2.0000     -11.358096      -309.0695
   3   2.0000     -11.303216      -307.5761
   4   2.0000     -11.294832      -307.3480
   5   2.0000     -11.292455      -307.2833
   6   2.0000     -11.267869      -306.6143
   7   2.0000     -11.255596      -306.2803
   8   2.0000     -11.251884      -306.1793
   9   2.0000     -11.247625      -306.0634
  10   2.0000     -11.246760      -306.0399
  11   2.0000     -11.241693      -305.9020
  12   2.0000     -11.236160      -305.7515
  13   2.0000     -11.234040      -305.6938
  14   2.0000      -1.261069       -34.3154
  15   2.0000      -1.240167       -33.7467
  16   2.0000      -1.181016       -32.1371
  17   2.0000      -1.130766       -30.7697
  18   2.0000      -1.067240       -29.0411
  19   2.0000      -1.032018       -28.0827
  20   2.0000      -1.018219       -27.7072
  21   2.0000      -0.961482       -26.1632
  22   2.0000      -0.877831       -23.8870
  23   2.0000      -0.843338       -22.9484
  24   2.0000      -0.790820       -21.5193
  25   2.0000      -0.747392       -20.3376
  26   2.0000      -0.734239       -19.9797
  27   2.0000      -0.710139       -19.3239
  28   2.0000      -0.669820       -18.2267
  29   2.0000      -0.654419       -17.8076
  30   2.0000      -0.634300       -17.2602
  31   2.0000      -0.625826       -17.0296
  32   2.0000      -0.606756       -16.5107
  33   2.0000      -0.595181       -16.1957
  34   2.0000      -0.584159       -15.8958
  35   2.0000      -0.577814       -15.7231
  36   2.0000      -0.564040       -15.3483
  37   2.0000      -0.557132       -15.1603
  38   2.0000      -0.543997       -14.8029
  39   2.0000      -0.500372       -13.6158
  40   2.0000      -0.496991       -13.5238
  41   2.0000      -0.488221       -13.2852
  42   2.0000      -0.484523       -13.1845
  43   2.0000      -0.480273       -13.0689
  44   2.0000      -0.469787       -12.7835
  45   2.0000      -0.462580       -12.5874
  46   2.0000      -0.414377       -11.2758
  47   2.0000      -0.413682       -11.2568
  48   2.0000      -0.374762       -10.1978
  49   0.0000       0.020482         0.5574
  50   0.0000       0.027336         0.7439
  51   0.0000       0.028773         0.7829
  52   0.0000       0.035339         0.9616
  53   0.0000       0.042376         1.1531

MULLIKEN ATOMIC CHARGES
-----------------------
   0 C :   -0.546679
   1 C :   -0.343135
   2 C :   -1.452479
   3 C :    1.560959
   4 C :   -0.520024
   5 C :   -0.608365
   6 H :    0.288236
   7 H :    0.184001
   8 H :    0.292297
   9 H :    0.260087
  10 H :    0.316213
  11 H :    0.217600
  12 H :    0.324150
  13 H :    0.142622
  14 C :   -0.054528
  15 C :    1.134501
  16 C :    0.869856
  17 N :   -1.062219
  18 N :   -1.046412
  19 C :    0.107153
  20 C :    1.349093
  21 C :   -2.215765
  22 H :    0.228260
  23 H :    0.329219
  24 H :   -0.108410
  25 H :    0.353769
Sum of atomic charges:   -0.0000000

LOEWDIN ATOMIC CHARGES
----------------------
   0 C :    0.294080
   1 C :    0.295097
   2 C :    0.279478
   3 C :   -0.079024
   4 C :    0.283301
   5 C :    0.303159
   6 H :   -0.137066
   7 H :   -0.135706
   8 H :   -0.143057
   9 H :   -0.137776
  10 H :   -0.147600
  11 H :   -0.138041
  12 H :   -0.134312
  13 H :   -0.131040
  14 C :   -0.398038
  15 C :   -0.241271
  16 C :   -0.217995
  17 N :    0.343325
  18 N :    0.325391
  19 C :    0.219234
  20 C :    0.030980
  21 C :    0.433678
  22 H :   -0.154407
  23 H :   -0.139189
  24 H :   -0.191547
  25 H :   -0.281653

  Mayer bond orders larger than 0.100000
B(  0-C ,  1-C ) :   0.9029 B(  0-C ,  2-C ) :   0.1702 B(  0-C ,  3-C ) :  -0.1311
B(  0-C ,  4-C ) :   0.1119 B(  0-C ,  5-C ) :   0.9177 B(  0-C ,  6-H ) :   0.9495
B(  0-C ,  7-H ) :   1.0493 B(  1-C ,  2-C ) :   0.5578 B(  1-C ,  8-H ) :   1.0056
B(  1-C ,  9-H ) :   1.0244 B(  1-C , 24-H ) :  -0.1100 B(  2-C ,  3-C ) :  -0.6648
B(  2-C ,  8-H ) :  -0.1736 B(  2-C ,  9-H ) :  -0.1208 B(  2-C , 14-C ) :   0.3663
B(  2-C , 15-C ) :  -0.2240 B(  2-C , 16-C ) :   0.1243 B(  2-C , 24-H ) :   2.1423
B(  3-C ,  4-C ) :   0.6143 B(  3-C , 14-C ) :   0.6406 B(  3-C , 15-C ) :   0.3933
B(  3-C , 16-C ) :   0.4077 B(  3-C , 19-C ) :   0.1349 B(  3-C , 21-C ) :   0.2763
B(  3-C , 24-H ) :  -0.8330 B(  4-C ,  5-C ) :   0.9546 B(  4-C , 10-H ) :   0.9042
B(  4-C , 11-H ) :   1.0191 B(  5-C , 12-H ) :   0.8823 B(  5-C , 13-H ) :   1.0982
B( 10-H , 14-C ) :  -0.1191 B( 14-C , 15-C ) :   0.9625 B( 14-C , 16-C ) :   0.9766
B( 14-C , 17-N ) :   0.3886 B( 14-C , 18-N ) :   0.4834 B( 14-C , 19-C ) :   0.7368
B( 14-C , 20-C ) :   0.1291 B( 14-C , 21-C ) :   0.3101 B( 15-C , 17-N ) :   1.3557
B( 15-C , 24-H ) :  -0.1117 B( 16-C , 18-N ) :   1.2008 B( 19-C , 20-C ) :   0.6584
B( 19-C , 21-C ) :  -0.4417 B( 19-C , 22-H ) :   0.9871 B( 19-C , 23-H ) :   0.9713
B( 20-C , 21-C ) :  -0.8593 B( 20-C , 23-H ) :  -0.1265 B( 20-C , 25-H ) :  -0.4976
B( 21-C , 25-H ) :   1.5665

MP2 TOTAL ENERGY:     -572.732541082 Eh
FINAL SINGLE POINT ENERGY      -572.732541082419

DIPOLE MOMENT
-------------
                                X             Y             Z
Electronic contribution:    -14.22120      -2.51424       2.99788
Nuclear contribution   :     15.72939       3.66007      -3.93101
                        -----------------------------------------
Total Dipole Moment    :      1.50819       1.14583      -0.93313
                        -----------------------------------------
Magnitude (a.u.)       :      2.11147
Magnitude (Debye)      :      5.36693

Rotational constants in cm-1:     0.028993     0.019214     0.016737
Rotational constants in MHz :   869.192811   576.015125   501.767802

                             ****ORCA TERMINATED NORMALLY****
TOTAL RUN TIME: 0 days 0 hours 16 minutes 50 seconds 143 msec
