                         Program Version 4.2.1 -  RELEASE  -
|  1> %pal
|  2>  nprocs 32
|  3> end
|  4> !RI-MP2 aug-cc-pVTZ aug-cc-pVTZ/C TightSCF
|  5> %maxcore 4500
|  6> *xyzfile 0 1  05_39R1.xyz
|  7>
|  8>
|  9>                          ****END OF INPUT****

CARTESIAN COORDINATES (ANGSTROEM)
---------------------------------
  C      0.218208   -0.792242   -0.000008
  C     -1.215595   -0.326581   -0.000001
  C     -2.234897   -1.275950    0.000003
  C     -1.547628    1.021356   -0.000001
  C     -3.564508   -0.885686    0.000003
  H     -1.984904   -2.332418    0.000005
  C     -2.881365    1.413393    0.000000
  H     -0.753740    1.755268   -0.000001
  C     -3.892667    0.464917    0.000002
  H     -4.346871   -1.635370    0.000006
  H     -3.128897    2.468487    0.000000
  O      1.079575    0.317844    0.000040
  C      2.495237    0.078628    0.000001
  H     -4.931247    0.773105    0.000003
  C      3.091043    1.479397    0.000101
  H      2.761136    2.026473    0.884681
  H      4.181853    1.437099    0.000080
  H      2.761107    2.026612   -0.884382
  C      2.918525   -0.675785   -1.259475
  H      2.549223   -1.702770   -1.266631
  H      2.544124   -0.164823   -2.148630
  H      4.007710   -0.719502   -1.320412
  C      2.918563   -0.675982    1.259347
  H      2.544186   -0.165161    2.148594
  H      2.549263   -1.702969    1.266351
  H      4.007750   -0.719705    1.320245
  H      0.386599   -1.419967    0.883895
  H      0.386611   -1.419901   -0.883956

 Total Charge           Charge          ....    0
 Multiplicity           Mult            ....    1
 Number of Electrons    NEL             ....   90
 Basis Dimension        Dim             ....  920

ORBITAL ENERGIES
----------------

  NO   OCC          E(Eh)            E(eV)
   0   2.0000     -20.550640      -559.2113
   1   2.0000     -11.288011      -307.1624
   2   2.0000     -11.277654      -306.8806
   3   2.0000     -11.233724      -305.6852
   4   2.0000     -11.228611      -305.5461
   5   2.0000     -11.226297      -305.4831
   6   2.0000     -11.225778      -305.4690
   7   2.0000     -11.223799      -305.4151
   8   2.0000     -11.219118      -305.2877
   9   2.0000     -11.215795      -305.1973
  10   2.0000     -11.215780      -305.1969
  11   2.0000     -11.210677      -305.0580
  12   2.0000      -1.375855       -37.4389
  13   2.0000      -1.151411       -31.3315
  14   2.0000      -1.083606       -29.4864
  15   2.0000      -1.027790       -27.9676
  16   2.0000      -1.008303       -27.4373
  17   2.0000      -0.946074       -25.7440
  18   2.0000      -0.943728       -25.6802
  19   2.0000      -0.911065       -24.7913
  20   2.0000      -0.824243       -22.4288
  21   2.0000      -0.795902       -21.6576
  22   2.0000      -0.753905       -20.5148
  23   2.0000      -0.697898       -18.9908
  24   2.0000      -0.663265       -18.0483
  25   2.0000      -0.655955       -17.8494
  26   2.0000      -0.637189       -17.3388
  27   2.0000      -0.615441       -16.7470
  28   2.0000      -0.608878       -16.5684
  29   2.0000      -0.604218       -16.4416
  30   2.0000      -0.581282       -15.8175
  31   2.0000      -0.576291       -15.6817
  32   2.0000      -0.555679       -15.1208
  33   2.0000      -0.541278       -14.7289
  34   2.0000      -0.531145       -14.4532
  35   2.0000      -0.518322       -14.1043
  36   2.0000      -0.506965       -13.7952
  37   2.0000      -0.501837       -13.6557
  38   2.0000      -0.485830       -13.2201
  39   2.0000      -0.483776       -13.1642
  40   2.0000      -0.477260       -12.9869
  41   2.0000      -0.448851       -12.2139
  42   2.0000      -0.419642       -11.4191
  43   2.0000      -0.330759        -9.0004
  44   2.0000      -0.321566        -8.7502
  45   0.0000       0.026797         0.7292
  46   0.0000       0.030848         0.8394
  47   0.0000       0.032512         0.8847
  48   0.0000       0.037445         1.0189
  49   0.0000       0.041844         1.1386

MULLIKEN ATOMIC CHARGES
-----------------------
   0 C :   -0.115442
   1 C :    2.022502
   2 C :   -1.157760
   3 C :   -0.721540
   4 C :   -0.616850
   5 H :    0.055070
   6 C :   -0.924384
   7 H :   -0.026581
   8 C :   -0.155707
   9 H :    0.509780
  10 H :    0.537641
  11 O :   -0.683227
  12 C :    1.778915
  13 H :    0.424067
  14 C :   -1.328172
  15 H :    0.239632
  16 H :    0.255734
  17 H :    0.239649
  18 C :   -1.226770
  19 H :    0.306083
  20 H :    0.275595
  21 H :    0.229710
  22 C :   -1.226753
  23 H :    0.275587
  24 H :    0.306080
  25 H :    0.229708
  26 H :    0.248707
  27 H :    0.248727
Sum of atomic charges:    0.0000000

LOEWDIN ATOMIC CHARGES
----------------------
   0 C :    0.016917
   1 C :   -0.103137
   2 C :    0.208084
   3 C :    0.217800
   4 C :    0.190664
   5 H :   -0.172180
   6 C :    0.195713
   7 H :   -0.200503
   8 C :    0.186907
   9 H :   -0.184309
  10 H :   -0.183599
  11 O :    0.616300
  12 C :   -0.594863
  13 H :   -0.187168
  14 C :    0.576291
  15 H :   -0.158912
  16 H :   -0.160300
  17 H :   -0.158913
  18 C :    0.586272
  19 H :   -0.172870
  20 H :   -0.151804
  21 H :   -0.156986
  22 C :    0.586271
  23 H :   -0.151804
  24 H :   -0.172869
  25 H :   -0.156986
  26 H :   -0.157007
  27 H :   -0.157007

  Mayer bond orders larger than 0.100000
B(  0-C ,  1-C ) :  -0.1405 B(  0-C ,  2-C ) :   0.1482 B(  0-C ,  3-C ) :   0.2597
B(  0-C ,  5-H ) :  -0.2119 B(  0-C ,  6-C ) :   0.1408 B(  0-C ,  7-H ) :  -0.2308
B(  0-C ,  8-C ) :   0.2274 B(  0-C , 11-O ) :   1.4619 B(  0-C , 26-H ) :   1.0955
B(  0-C , 27-H ) :   1.0955 B(  1-C ,  2-C ) :   0.3290 B(  1-C ,  3-C ) :   0.3216
B(  1-C ,  4-C ) :   0.1338 B(  1-C ,  5-H ) :  -0.3467 B(  1-C ,  7-H ) :  -0.4139
B(  1-C , 10-H ) :   0.1100 B(  1-C , 11-O ) :  -0.1688 B(  1-C , 26-H ) :  -0.1204
B(  1-C , 27-H ) :  -0.1204 B(  2-C ,  3-C ) :  -0.3224 B(  2-C ,  4-C ) :   1.2961
B(  2-C ,  5-H ) :   1.5240 B(  2-C ,  7-H ) :   0.2946 B(  2-C , 13-H ) :   0.1364
B(  3-C ,  5-H ) :   0.3024 B(  3-C ,  6-C ) :   0.9187 B(  3-C ,  7-H ) :   1.9272
B(  3-C ,  8-C ) :  -0.2497 B(  3-C , 10-H ) :  -0.1788 B(  3-C , 13-H ) :   0.1373
B(  4-C ,  5-H ) :  -0.1460 B(  4-C ,  6-C ) :   0.2342 B(  4-C ,  7-H ) :  -0.1149
B(  4-C ,  8-C ) :   1.0180 B(  4-C ,  9-H ) :   0.7278 B(  4-C , 13-H ) :  -0.2446
B(  5-H ,  7-H ) :   0.2507 B(  6-C ,  8-C ) :   1.0839 B(  6-C , 10-H ) :   0.5733
B(  6-C , 13-H ) :  -0.2166 B(  7-H ,  9-H ) :  -0.1282 B(  8-C , 13-H ) :   0.8631
B( 11-O , 12-C ) :   0.1485 B( 12-C , 14-C ) :   0.4180 B( 12-C , 18-C ) :   0.5289
B( 12-C , 22-C ) :   0.5289 B( 14-C , 15-H ) :   1.0784 B( 14-C , 16-H ) :   1.0614
B( 14-C , 17-H ) :   1.0784 B( 18-C , 19-H ) :   0.9684 B( 18-C , 20-H ) :   1.0142
B( 18-C , 21-H ) :   1.0649 B( 18-C , 22-C ) :   0.1817 B( 22-C , 23-H ) :   1.0142
B( 22-C , 24-H ) :   0.9684 B( 22-C , 25-H ) :   1.0649

MP2 TOTAL ENERGY:     -502.993251708 Eh
FINAL SINGLE POINT ENERGY      -502.993251708319

DIPOLE MOMENT
-------------
                                X             Y             Z
Electronic contribution:    -13.41921       1.10632       0.00013
Nuclear contribution   :     13.94517      -1.53390      -0.00016
                        -----------------------------------------
Total Dipole Moment    :      0.52595      -0.42758      -0.00003
                        -----------------------------------------
Magnitude (a.u.)       :      0.67783
Magnitude (Debye)      :      1.72290

Rotational constants in cm-1:     0.079306     0.014530     0.013399
Rotational constants in MHz :  2377.544177   435.589402   401.679747

                             ****ORCA TERMINATED NORMALLY****
TOTAL RUN TIME: 0 days 0 hours 13 minutes 16 seconds 305 msec
