                         Program Version 4.2.1 -  RELEASE  -
|  1> %pal
|  2>  nprocs 32
|  3> end
|  4> !RI-MP2 aug-cc-pVTZ aug-cc-pVTZ/C TightSCF
|  5> %maxcore 4500
|  6> *xyzfile 0 1  10_50TS.xyz
|  7>
|  8>
|  9>                          ****END OF INPUT****

CARTESIAN COORDINATES (ANGSTROEM)
---------------------------------
  C      0.109888    1.098459   -0.134340
  C     -0.109888    0.677811    1.203209
  C      0.109888   -0.677811    1.203209
  C     -0.109888   -1.098459   -0.134340
  H      0.482292   -1.307624    2.007045
  H     -0.482292    1.307624    2.007045
  C      1.458803    1.100491   -0.816885
  H      2.140282    0.377946   -0.369992
  H      1.377094    0.888627   -1.886124
  H      1.908891    2.097282   -0.727388
  C     -1.458803   -1.100491   -0.816885
  H     -2.140282   -0.377946   -0.369992
  H     -1.377094   -0.888627   -1.886124
  H     -1.908891   -2.097282   -0.727388
  H      0.535702   -1.888841   -0.535445
  H     -0.535702    1.888841   -0.535445

 Total Charge           Charge          ....    0
 Multiplicity           Mult            ....    1
 Number of Electrons    NEL             ....   46
 Basis Dimension        Dim             ....  506

ORBITAL ENERGIES
----------------

  NO   OCC          E(Eh)            E(eV)
   0   2.0000     -11.248914      -306.0985
   1   2.0000     -11.248847      -306.0967
   2   2.0000     -11.221482      -305.3520
   3   2.0000     -11.220139      -305.3155
   4   2.0000     -11.218174      -305.2620
   5   2.0000     -11.218173      -305.2620
   6   2.0000      -1.127291       -30.6752
   7   2.0000      -1.008810       -27.4511
   8   2.0000      -0.965799       -26.2807
   9   2.0000      -0.876475       -23.8501
  10   2.0000      -0.788113       -21.4456
  11   2.0000      -0.698492       -19.0069
  12   2.0000      -0.670226       -18.2378
  13   2.0000      -0.610949       -16.6248
  14   2.0000      -0.580387       -15.7931
  15   2.0000      -0.558680       -15.2025
  16   2.0000      -0.545913       -14.8550
  17   2.0000      -0.538006       -14.6399
  18   2.0000      -0.519138       -14.1265
  19   2.0000      -0.494470       -13.4552
  20   2.0000      -0.492777       -13.4091
  21   2.0000      -0.336133        -9.1466
  22   2.0000      -0.293248        -7.9797
  23   0.0000       0.029594         0.8053
  24   0.0000       0.035608         0.9690
  25   0.0000       0.036867         1.0032
  26   0.0000       0.038532         1.0485
  27   0.0000       0.051980         1.4145

MULLIKEN ATOMIC CHARGES
-----------------------
   0 C :    0.009405
   1 C :   -0.911636
   2 C :   -0.911636
   3 C :    0.009405
   4 H :    0.468385
   5 H :    0.468385
   6 C :   -0.780698
   7 H :    0.339586
   8 H :    0.237816
   9 H :    0.254220
  10 C :   -0.780698
  11 H :    0.339586
  12 H :    0.237816
  13 H :    0.254220
  14 H :    0.382922
  15 H :    0.382922
Sum of atomic charges:    0.0000000

LOEWDIN ATOMIC CHARGES
----------------------
   0 C :    0.154215
   1 C :    0.167275
   2 C :    0.167275
   3 C :    0.154215
   4 H :   -0.176023
   5 H :   -0.176023
   6 C :    0.540939
   7 H :   -0.186027
   8 H :   -0.171833
   9 H :   -0.172727
  10 C :    0.540939
  11 H :   -0.186027
  12 H :   -0.171833
  13 H :   -0.172727
  14 H :   -0.155819
  15 H :   -0.155819

  Mayer bond orders larger than 0.100000
B(  0-C ,  1-C ) :   1.1123 B(  0-C ,  2-C ) :  -0.1032 B(  0-C ,  3-C ) :   0.5803
B(  0-C ,  6-C ) :   0.6675 B(  0-C , 15-H ) :   0.8107 B(  1-C ,  2-C ) :   1.4237
B(  1-C ,  3-C ) :  -0.1032 B(  1-C ,  5-H ) :   0.7527 B(  1-C ,  6-C ) :   0.1117
B(  2-C ,  3-C ) :   1.1123 B(  2-C ,  4-H ) :   0.7527 B(  2-C , 10-C ) :   0.1117
B(  3-C , 10-C ) :   0.6675 B(  3-C , 14-H ) :   0.8107 B(  6-C ,  7-H ) :   0.9410
B(  6-C ,  8-H ) :   0.9988 B(  6-C ,  9-H ) :   0.9668 B( 10-C , 11-H ) :   0.9410
B( 10-C , 12-H ) :   0.9988 B( 10-C , 13-H ) :   0.9668

MP2 TOTAL ENERGY:     -234.013771926 Eh
FINAL SINGLE POINT ENERGY      -234.013771926408

DIPOLE MOMENT
-------------
                                X             Y             Z
Electronic contribution:     -0.00000      -0.00000       3.02998
Nuclear contribution   :      0.00000      -0.00000      -3.18008
                        -----------------------------------------
Total Dipole Moment    :     -0.00000      -0.00000      -0.15010
                        -----------------------------------------
Magnitude (a.u.)       :      0.15010
Magnitude (Debye)      :      0.38153

Rotational constants in cm-1:     0.167124     0.103008     0.084511
Rotational constants in MHz :  5010.249479  3088.090485  2533.575095

                             ****ORCA TERMINATED NORMALLY****
TOTAL RUN TIME: 0 days 0 hours 1 minutes 50 seconds 952 msec
