                         Program Version 4.2.1 -  RELEASE  -
|  1> %pal
|  2>  nprocs 32
|  3> end
|  4> !RI-MP2 aug-cc-pVTZ aug-cc-pVTZ/C TightSCF
|  5> %maxcore 4500
|  6> *xyzfile -1 1  09_2TS.xyz
|  7>
|  8>
|  9>                          ****END OF INPUT****

CARTESIAN COORDINATES (ANGSTROEM)
---------------------------------
  C      2.704847   -0.396465   -0.270972
  C      1.916031   -1.268560    0.473565
  C      0.598796   -0.942503    0.757180
  C      0.051171    0.252902    0.305084
  C      0.843595    1.124707   -0.427469
  C      2.162516    0.800382   -0.721174
  H      3.734590   -0.650919   -0.497907
  H      2.330256   -2.207491    0.825594
  H     -0.030255   -1.629589    1.314380
  H      0.392238    2.055148   -0.751191
  H      2.772435    1.485927   -1.300587
  C     -1.372623    0.661823    0.657796
  C     -2.318665   -0.749194   -0.386814
  N     -2.987881   -1.516414   -0.943288
  O     -1.763063    1.810376    0.386042
  H     -1.693599    0.180259    1.601211

 Total Charge           Charge          ....   -1
 Multiplicity           Mult            ....    1
 Number of Electrons    NEL             ....   70
 Basis Dimension        Dim             ....  598

ORBITAL ENERGIES
----------------

  NO   OCC          E(Eh)            E(eV)
   0   2.0000     -20.329564      -553.1956
   1   2.0000     -15.351590      -417.7380
   2   2.0000     -11.181352      -304.2601
   3   2.0000     -11.124320      -302.7081
   4   2.0000     -11.123060      -302.6738
   5   2.0000     -11.121799      -302.6395
   6   2.0000     -11.114787      -302.4487
   7   2.0000     -11.110171      -302.3231
   8   2.0000     -11.107522      -302.2510
   9   2.0000     -11.037729      -300.3519
  10   2.0000      -1.175505       -31.9871
  11   2.0000      -1.038020       -28.2460
  12   2.0000      -0.998274       -27.1644
  13   2.0000      -0.909559       -24.7504
  14   2.0000      -0.899522       -24.4772
  15   2.0000      -0.747612       -20.3436
  16   2.0000      -0.711314       -19.3558
  17   2.0000      -0.653791       -17.7906
  18   2.0000      -0.580451       -15.7949
  19   2.0000      -0.524729       -14.2786
  20   2.0000      -0.507047       -13.7974
  21   2.0000      -0.474427       -12.9098
  22   2.0000      -0.468778       -12.7561
  23   2.0000      -0.451483       -12.2855
  24   2.0000      -0.434651       -11.8274
  25   2.0000      -0.388850       -10.5811
  26   2.0000      -0.385532       -10.4909
  27   2.0000      -0.372450       -10.1349
  28   2.0000      -0.356906        -9.7119
  29   2.0000      -0.266882        -7.2622
  30   2.0000      -0.264163        -7.1883
  31   2.0000      -0.231908        -6.3105
  32   2.0000      -0.229572        -6.2470
  33   2.0000      -0.219759        -5.9799
  34   2.0000      -0.200858        -5.4656
  35   0.0000       0.096789         2.6338
  36   0.0000       0.105041         2.8583
  37   0.0000       0.113783         3.0962
  38   0.0000       0.130595         3.5537
  39   0.0000       0.136248         3.7075

MULLIKEN ATOMIC CHARGES
-----------------------
   0 C :   -0.182313
   1 C :   -0.618647
   2 C :   -0.880367
   3 C :    1.378391
   4 C :   -1.016324
   5 C :   -0.474337
   6 H :    0.398405
   7 H :    0.430412
   8 H :    0.200113
   9 H :    0.095246
  10 H :    0.531990
  11 C :    0.577684
  12 C :   -0.167850
  13 N :   -0.552660
  14 O :   -1.121906
  15 H :    0.402163
Sum of atomic charges:   -1.0000000

LOEWDIN ATOMIC CHARGES
----------------------
   0 C :    0.162950
   1 C :    0.174400
   2 C :    0.175873
   3 C :   -0.192046
   4 C :    0.194314
   5 C :    0.175838
   6 H :   -0.199587
   7 H :   -0.195016
   8 H :   -0.178833
   9 H :   -0.198576
  10 H :   -0.195342
  11 C :   -0.555664
  12 C :   -0.252115
  13 N :   -0.016680
  14 O :    0.334103
  15 H :   -0.233618

  Mayer bond orders larger than 0.100000
B(  0-C ,  1-C ) :   1.1544 B(  0-C ,  2-C ) :  -0.1554 B(  0-C ,  4-C ) :  -0.2023
B(  0-C ,  5-C ) :   1.1045 B(  0-C ,  6-H ) :   0.8985 B(  1-C ,  2-C ) :   1.2680
B(  1-C ,  5-C ) :   0.1463 B(  1-C ,  6-H ) :  -0.1727 B(  1-C ,  7-H ) :   0.8460
B(  1-C ,  8-H ) :  -0.1220 B(  2-C ,  3-C ) :   0.4743 B(  2-C ,  8-H ) :   1.2163
B(  2-C ,  9-H ) :   0.1519 B(  3-C ,  4-C ) :   0.6504 B(  3-C ,  5-C ) :   0.1780
B(  3-C ,  8-H ) :  -0.1798 B(  3-C ,  9-H ) :  -0.1675 B(  3-C , 11-C ) :   0.6391
B(  3-C , 14-O ) :  -0.1117 B(  4-C ,  5-C ) :   1.1141 B(  4-C ,  6-H ) :   0.1694
B(  4-C ,  8-H ) :   0.1869 B(  4-C ,  9-H ) :   1.4246 B(  4-C , 10-H ) :  -0.1616
B(  5-C ,  6-H ) :  -0.2088 B(  5-C , 10-H ) :   0.7352 B( 11-C , 12-C ) :   0.3149
B( 11-C , 14-O ) :   1.0746 B( 11-C , 15-H ) :   0.9480 B( 12-C , 13-N ) :   2.1722
B( 12-C , 14-O ) :   0.1101

MP2 TOTAL ENERGY:     -437.599743181 Eh
FINAL SINGLE POINT ENERGY      -437.599743181494

DIPOLE MOMENT
-------------
                                X             Y             Z
Electronic contribution:     -3.40673       0.64930      -0.32766
Nuclear contribution   :      7.31609      -0.73258       1.16900
                        -----------------------------------------
Total Dipole Moment    :      3.90936      -0.08329       0.84135
                        -----------------------------------------
Magnitude (a.u.)       :      3.99974
Magnitude (Debye)      :     10.16653

Rotational constants in cm-1:     0.078051     0.031106     0.025537
Rotational constants in MHz :  2339.895457   932.520583   765.594889

                             ****ORCA TERMINATED NORMALLY****
TOTAL RUN TIME: 0 days 0 hours 3 minutes 25 seconds 706 msec
