                         Program Version 4.2.1 -  RELEASE  -
|  1> %pal
|  2>  nprocs 32
|  3> end
|  4> !RI-MP2 aug-cc-pVTZ aug-cc-pVTZ/C TightSCF
|  5> %maxcore 4500
|  6> *xyzfile 0 1  08_9R1.xyz
|  7>
|  8>
|  9>                          ****END OF INPUT****

CARTESIAN COORDINATES (ANGSTROEM)
---------------------------------
  N     -2.528648   -1.959243   -0.097290
  C     -1.285019   -2.272837   -0.277018
  N     -0.426224   -1.191828   -0.319339
  C     -1.220955   -0.083277   -0.155496
  C     -2.518620   -0.584308   -0.021153
  C     -3.521223    0.372292    0.143921
  N     -0.897803    1.213873   -0.141897
  C     -1.937785    2.015833    0.023811
  N     -3.215658    1.659948    0.164156
  C      1.005056   -1.305837   -0.504568
  C      1.866528   -1.145862    0.759773
  O      1.436668   -0.338962   -1.430993
  C      3.186601   -0.673417    0.130377
  C      2.727136    0.186695   -1.072553
  C      2.610988    1.676344   -0.809933
  H      3.393655    0.040522   -1.926878
  O      1.694159    1.976945    0.225673
  H      2.310862    2.172759   -1.737588
  H      3.587484    2.059930   -0.511960
  H      0.772554    1.826786   -0.091609
  O      4.045056   -0.029566    1.026933
  H      3.722997   -1.542578   -0.258848
  H      3.509035    0.347625    1.736192
  O      1.379753   -0.244433    1.710943
  H      1.975129   -2.103932    1.268226
  H      1.407586    0.661176    1.333838
  H     -0.907826   -3.278880   -0.392067
  H     -1.731062    3.079768    0.049423
  O     -4.792435    0.016863    0.282093
  H     -5.308497    0.828552    0.384261
  H      1.164571   -2.311522   -0.912550

 Total Charge           Charge          ....    0
 Multiplicity           Mult            ....    1
 Number of Electrons    NEL             ....  140
 Basis Dimension        Dim             .... 1150

ORBITAL ENERGIES
----------------

  NO   OCC          E(Eh)            E(eV)
   0   2.0000     -20.619518      -561.0856
   1   2.0000     -20.588240      -560.2345
   2   2.0000     -20.571888      -559.7895
   3   2.0000     -20.564759      -559.5955
   4   2.0000     -20.558916      -559.4366
   5   2.0000     -15.643948      -425.6935
   6   2.0000     -15.585789      -424.1109
   7   2.0000     -15.574864      -423.8136
   8   2.0000     -15.574580      -423.8059
   9   2.0000     -11.373960      -309.5012
  10   2.0000     -11.357856      -309.0630
  11   2.0000     -11.338431      -308.5344
  12   2.0000     -11.334436      -308.4257
  13   2.0000     -11.330108      -308.3079
  14   2.0000     -11.304221      -307.6035
  15   2.0000     -11.301677      -307.5343
  16   2.0000     -11.298603      -307.4506
  17   2.0000     -11.283447      -307.0382
  18   2.0000     -11.270384      -306.6827
  19   2.0000      -1.457187       -39.6521
  20   2.0000      -1.437362       -39.1126
  21   2.0000      -1.393886       -37.9296
  22   2.0000      -1.379275       -37.5320
  23   2.0000      -1.369542       -37.2671
  24   2.0000      -1.361929       -37.0600
  25   2.0000      -1.313871       -35.7523
  26   2.0000      -1.227730       -33.4082
  27   2.0000      -1.195840       -32.5405
  28   2.0000      -1.067624       -29.0515
  29   2.0000      -1.059086       -28.8192
  30   2.0000      -1.041232       -28.3334
  31   2.0000      -0.948596       -25.8126
  32   2.0000      -0.917180       -24.9577
  33   2.0000      -0.903672       -24.5902
  34   2.0000      -0.867263       -23.5994
  35   2.0000      -0.833419       -22.6785
  36   2.0000      -0.815725       -22.1970
  37   2.0000      -0.785710       -21.3803
  38   2.0000      -0.773053       -21.0358
  39   2.0000      -0.746846       -20.3227
  40   2.0000      -0.723555       -19.6889
  41   2.0000      -0.710662       -19.3381
  42   2.0000      -0.700077       -19.0501
  43   2.0000      -0.688040       -18.7225
  44   2.0000      -0.676180       -18.3998
  45   2.0000      -0.669239       -18.2109
  46   2.0000      -0.657448       -17.8901
  47   2.0000      -0.647505       -17.6195
  48   2.0000      -0.636791       -17.3280
  49   2.0000      -0.625667       -17.0253
  50   2.0000      -0.619568       -16.8593
  51   2.0000      -0.610227       -16.6051
  52   2.0000      -0.595327       -16.1997
  53   2.0000      -0.587506       -15.9869
  54   2.0000      -0.570229       -15.5167
  55   2.0000      -0.562363       -15.3027
  56   2.0000      -0.550664       -14.9843
  57   2.0000      -0.543273       -14.7832
  58   2.0000      -0.523471       -14.2444
  59   2.0000      -0.515127       -14.0173
  60   2.0000      -0.502129       -13.6636
  61   2.0000      -0.482902       -13.1404
  62   2.0000      -0.477486       -12.9930
  63   2.0000      -0.468185       -12.7400
  64   2.0000      -0.454604       -12.3704
  65   2.0000      -0.438582       -11.9344
  66   2.0000      -0.435789       -11.8584
  67   2.0000      -0.424868       -11.5612
  68   2.0000      -0.388467       -10.5707
  69   2.0000      -0.338088        -9.1998
  70   0.0000       0.019806         0.5389
  71   0.0000       0.027753         0.7552
  72   0.0000       0.030858         0.8397
  73   0.0000       0.037064         1.0086
  74   0.0000       0.039424         1.0728

MULLIKEN ATOMIC CHARGES
-----------------------
   0 N :   -1.020144
   1 C :   -0.548986
   2 N :    0.111513
   3 C :   -0.379868
   4 C :    1.684704
   5 C :    0.052185
   6 N :   -0.398167
   7 C :   -0.588999
   8 N :   -0.539903
   9 C :    0.738246
  10 C :    0.113568
  11 O :   -0.912881
  12 C :    0.421495
  13 C :   -0.057281
  14 C :   -0.244243
  15 H :    0.408684
  16 O :   -0.808742
  17 H :    0.291923
  18 H :    0.301629
  19 H :    0.427173
  20 O :   -0.912196
  21 H :    0.376522
  22 H :    0.192271
  23 O :   -1.084737
  24 H :    0.456475
  25 H :    0.498890
  26 H :    0.681391
  27 H :    0.599872
  28 O :   -0.589980
  29 H :    0.242598
  30 H :    0.486988
Sum of atomic charges:    0.0000000

LOEWDIN ATOMIC CHARGES
----------------------
   0 N :    0.414817
   1 C :   -0.033926
   2 N :    0.296212
   3 C :   -0.376206
   4 C :   -0.295956
   5 C :   -0.544417
   6 N :    0.447765
   7 C :   -0.114330
   8 N :    0.400673
   9 C :   -0.308771
  10 C :   -0.199122
  11 O :    0.625833
  12 C :   -0.221829
  13 C :   -0.193135
  14 C :    0.085648
  15 H :   -0.134277
  16 O :    0.886316
  17 H :   -0.144221
  18 H :   -0.157938
  19 H :   -0.663110
  20 O :    0.859072
  21 H :   -0.134296
  22 H :   -0.510610
  23 O :    0.881783
  24 H :   -0.129103
  25 H :   -0.671550
  26 H :   -0.153429
  27 H :   -0.183036
  28 O :    0.867365
  29 H :   -0.463661
  30 H :   -0.132558

  Mayer bond orders larger than 0.100000
B(  0-N ,  1-C ) :   1.4015 B(  0-N ,  2-N ) :  -0.1944 B(  0-N ,  3-C ) :   0.6021
B(  0-N ,  4-C ) :  -0.3160 B(  0-N , 26-H ) :  -0.1187 B(  1-C ,  2-N ) :   1.3779
B(  1-C ,  3-C ) :  -0.6278 B(  1-C ,  9-C ) :  -0.3447 B(  1-C , 26-H ) :   0.4276
B(  2-N ,  3-C ) :   0.8268 B(  2-N ,  6-N ) :  -0.3744 B(  2-N ,  9-C ) :   0.5272
B(  2-N , 30-H ) :  -0.1226 B(  3-C ,  4-C ) :   0.5220 B(  3-C ,  5-C ) :   1.3647
B(  3-C ,  6-N ) :   1.1921 B(  3-C ,  7-C ) :  -0.4103 B(  3-C ,  8-N ) :   0.1248
B(  3-C ,  9-C ) :  -0.3074 B(  4-C ,  5-C ) :  -0.8581 B(  4-C ,  6-N ) :  -0.3813
B(  4-C , 28-O ) :   0.1086 B(  5-C ,  6-N ) :   0.2570 B(  5-C ,  7-C ) :  -0.3089
B(  5-C ,  8-N ) :   0.6985 B(  5-C , 28-O ) :   0.6950 B(  6-N ,  7-C ) :   1.6697
B(  7-C ,  8-N ) :   0.9733 B(  7-C , 27-H ) :   0.4718 B(  8-N , 28-O ) :  -0.1481
B(  9-C , 10-C ) :   1.0302 B(  9-C , 11-O ) :   0.6298 B(  9-C , 13-C ) :   0.1068
B(  9-C , 23-O ) :   0.1802 B(  9-C , 30-H ) :   0.8124 B( 10-C , 12-C ) :   1.1735
B( 10-C , 20-O ) :   0.1955 B( 10-C , 23-O ) :   0.2865 B( 10-C , 24-H ) :   0.8041
B( 11-O , 13-C ) :   0.6845 B( 12-C , 13-C ) :   0.9826 B( 12-C , 21-H ) :   0.9491
B( 12-C , 23-O ) :   0.1820 B( 13-C , 14-C ) :   0.9131 B( 13-C , 15-H ) :   0.7646
B( 13-C , 20-O ) :   0.1835 B( 14-C , 16-O ) :   0.8278 B( 14-C , 17-H ) :   0.9438
B( 14-C , 18-H ) :   0.9775 B( 14-C , 19-H ) :   0.1259 B( 16-O , 19-H ) :   0.5921
B( 20-O , 22-H ) :   0.9797 B( 23-O , 24-H ) :  -0.1030 B( 23-O , 25-H ) :   0.5318
B( 28-O , 29-H ) :   0.9753

MP2 TOTAL ENERGY:     -981.786328865 Eh
FINAL SINGLE POINT ENERGY      -981.786328864766

DIPOLE MOMENT
-------------
                                X             Y             Z
Electronic contribution:    -13.13914      -1.98703       0.23540
Nuclear contribution   :     13.63945       1.76478      -1.01286
                        -----------------------------------------
Total Dipole Moment    :      0.50030      -0.22225      -0.77746
                        -----------------------------------------
Magnitude (a.u.)       :      0.95086
Magnitude (Debye)      :      2.41689

Rotational constants in cm-1:     0.028770     0.008935     0.007751
Rotational constants in MHz :   862.517544   267.874029   232.368041

                             ****ORCA TERMINATED NORMALLY****
TOTAL RUN TIME: 0 days 0 hours 31 minutes 54 seconds 171 msec
