                         Program Version 4.2.1 -  RELEASE  -
|  1> %pal
|  2>  nprocs 32
|  3> end
|  4> !RI-MP2 aug-cc-pVTZ aug-cc-pVTZ/C TightSCF
|  5> %maxcore 4500
|  6> *xyzfile 0 2  04_2TS.xyz
|  7>
|  8>
|  9>                          ****END OF INPUT****

CARTESIAN COORDINATES (ANGSTROEM)
---------------------------------
  C     -0.155432   -0.641101   -0.523781
  C     -1.429829   -0.227938    0.119312
  O     -1.529619    0.092235    1.277145
  N      0.758646   -1.176969    0.382901
  H      0.279733    0.463538   -0.904765
  H     -0.278754   -1.226256   -1.434313
  C      2.096135   -1.458091   -0.096887
  H      2.672103   -1.931060    0.697323
  H      2.612570   -0.547734   -0.421678
  H      2.043099   -2.150472   -0.939470
  H      0.710464   -0.737896    1.293856
  O     -2.450369   -0.173641   -0.747994
  O      1.361982    1.666357    0.467609
  O      0.884018    1.668155   -0.829227
  H      0.673831    2.123909    0.973567
  H     -3.216913    0.182698   -0.276943

 Total Charge           Charge          ....    0
 Multiplicity           Mult            ....    2
 Number of Electrons    NEL             ....   65
 Basis Dimension        Dim             ....  552

ORBITAL ENERGIES
----------------
                 SPIN UP ORBITALS
  NO   OCC          E(Eh)            E(eV)
   0   1.0000     -20.686368      -562.9047
   1   1.0000     -20.658197      -562.1381
   2   1.0000     -20.622889      -561.1773
   3   1.0000     -20.557805      -559.4063
   4   1.0000     -15.554199      -423.2513
   5   1.0000     -11.393218      -310.0252
   6   1.0000     -11.283505      -307.0398
   7   1.0000     -11.248759      -306.0943
   8   1.0000      -1.541468       -41.9455
   9   1.0000      -1.479356       -40.2553
  10   1.0000      -1.375371       -37.4257
  11   1.0000      -1.235358       -33.6158
  12   1.0000      -1.219669       -33.1889
  13   1.0000      -1.015512       -27.6335
  14   1.0000      -0.900104       -24.4931
  15   1.0000      -0.824675       -22.4406
  16   1.0000      -0.774337       -21.0708
  17   1.0000      -0.754307       -20.5257
  18   1.0000      -0.726394       -19.7662
  19   1.0000      -0.716412       -19.4946
  20   1.0000      -0.661423       -17.9982
  21   1.0000      -0.651139       -17.7184
  22   1.0000      -0.630210       -17.1489
  23   1.0000      -0.621247       -16.9050
  24   1.0000      -0.598984       -16.2992
  25   1.0000      -0.564738       -15.3673
  26   1.0000      -0.548791       -14.9334
  27   1.0000      -0.532366       -14.4864
  28   1.0000      -0.529893       -14.4191
  29   1.0000      -0.512835       -13.9549
  30   1.0000      -0.487057       -13.2535
  31   1.0000      -0.467171       -12.7124
  32   1.0000      -0.349971        -9.5232
  33   0.0000       0.027684         0.7533
  34   0.0000       0.035268         0.9597
  35   0.0000       0.037372         1.0169
  36   0.0000       0.047581         1.2947
  37   0.0000       0.053438         1.4541

                 SPIN DOWN ORBITALS
  NO   OCC          E(Eh)            E(eV)
   0   1.0000     -20.655508      -562.0650
   1   1.0000     -20.649301      -561.8961
   2   1.0000     -20.622802      -561.1750
   3   1.0000     -20.556162      -559.3616
   4   1.0000     -15.551183      -423.1692
   5   1.0000     -11.394187      -310.0516
   6   1.0000     -11.274750      -306.8016
   7   1.0000     -11.248869      -306.0973
   8   1.0000      -1.489605       -40.5342
   9   1.0000      -1.478236       -40.2248
  10   1.0000      -1.372643       -37.3515
  11   1.0000      -1.225021       -33.3345
  12   1.0000      -1.139712       -31.0131
  13   1.0000      -0.999983       -27.2109
  14   1.0000      -0.897720       -24.4282
  15   1.0000      -0.809843       -22.0369
  16   1.0000      -0.742836       -20.2136
  17   1.0000      -0.725606       -19.7447
  18   1.0000      -0.715180       -19.4610
  19   1.0000      -0.679879       -18.5004
  20   1.0000      -0.640439       -17.4272
  21   1.0000      -0.626501       -17.0480
  22   1.0000      -0.621062       -16.9000
  23   1.0000      -0.606605       -16.5066
  24   1.0000      -0.576448       -15.6859
  25   1.0000      -0.560684       -15.2570
  26   1.0000      -0.532176       -14.4812
  27   1.0000      -0.507477       -13.8092
  28   1.0000      -0.498957       -13.5773
  29   1.0000      -0.483851       -13.1662
  30   1.0000      -0.462205       -12.5772
  31   1.0000      -0.354865        -9.6564
  32   0.0000       0.027759         0.7554
  33   0.0000       0.035214         0.9582
  34   0.0000       0.037387         1.0173
  35   0.0000       0.046323         1.2605
  36   0.0000       0.049589         1.3494

MULLIKEN ATOMIC CHARGES AND SPIN POPULATIONS
--------------------------------------------
   0 C :    0.253197    0.485138
   1 C :    0.495341   -0.073259
   2 O :   -0.829203    0.037276
   3 N :   -0.396097    0.041758
   4 H :    0.311438   -0.309287
   5 H :    0.463370    0.006542
   6 C :   -0.932212   -0.011712
   7 H :    0.340819    0.000059
   8 H :    0.339147    0.006220
   9 H :    0.345686    0.001452
  10 H :    0.081476   -0.007048
  11 O :   -0.478070    0.001758
  12 O :   -0.269422   -0.021003
  13 O :   -0.230222    0.846951
  14 H :    0.250041   -0.003971
  15 H :    0.254710   -0.000873
Sum of atomic charges         :    0.0000000

LOEWDIN ATOMIC CHARGES AND SPIN POPULATIONS
-------------------------------------------
   0 C :    0.063850    0.125050
   1 C :   -0.804932    0.008810
   2 O :    0.466101    0.025492
   3 N :    0.507367    0.068442
   4 H :   -0.558646    0.028983
   5 H :   -0.141645    0.019864
   6 C :    0.471190    0.003085
   7 H :   -0.166662   -0.000442
   8 H :   -0.178001    0.000514
   9 H :   -0.169567   -0.000080
  10 H :   -0.327312    0.003191
  11 O :    0.844218    0.000080
  12 O :    0.542799    0.064533
  13 O :    0.432240    0.661117
  14 H :   -0.516832   -0.008507
  15 H :   -0.464168   -0.000132

  Mayer bond orders larger than 0.100000
B(  0-C ,  1-C ) :   0.4120 B(  0-C ,  3-N ) :   0.8843 B(  0-C ,  4-H ) :   0.6199
B(  0-C ,  5-H ) :   0.8550 B(  1-C ,  2-O ) :   1.3832 B(  1-C ,  3-N ) :   0.1825
B(  1-C ,  4-H ) :   0.1426 B(  1-C ,  5-H ) :  -0.1126 B(  1-C , 11-O ) :   0.8893
B(  3-N ,  5-H ) :  -0.1208 B(  3-N ,  6-C ) :   0.8648 B(  3-N , 10-H ) :   1.0002
B(  6-C ,  7-H ) :   0.9334 B(  6-C ,  8-H ) :   0.8997 B(  6-C ,  9-H ) :   0.8923
B( 11-O , 15-H ) :   0.9548 B( 12-O , 13-O ) :   0.8931 B( 12-O , 14-H ) :   0.9725

MP2 TOTAL ENERGY:     -473.868585532 Eh
FINAL SINGLE POINT ENERGY      -473.868585531710

DIPOLE MOMENT
-------------
                                X             Y             Z
Electronic contribution:     -5.68628       3.92643       0.84417
Nuclear contribution   :      5.47212      -3.77812      -1.00733
                        -----------------------------------------
Total Dipole Moment    :     -0.21416       0.14831      -0.16316
                        -----------------------------------------
Magnitude (a.u.)       :      0.30738
Magnitude (Debye)      :      0.78130

Rotational constants in cm-1:     0.077649     0.047625     0.037746
Rotational constants in MHz :  2327.854116  1427.766758  1131.585854

                             ****ORCA TERMINATED NORMALLY****
TOTAL RUN TIME: 0 days 0 hours 6 minutes 1 seconds 822 msec
