                         Program Version 4.2.1 -  RELEASE  -
|  1> %pal
|  2>  nprocs 32
|  3> end
|  4> !RI-MP2 aug-cc-pVTZ aug-cc-pVTZ/C TightSCF
|  5> %maxcore 4500
|  6> *xyzfile -1 1  07_6P.xyz
|  7>
|  8>
|  9>                          ****END OF INPUT****

CARTESIAN COORDINATES (ANGSTROEM)
---------------------------------
  C     -1.338214    0.951634    0.207348
  C     -2.627850    0.166180    0.096681
  C     -2.371471   -1.258855    0.551374
  H     -2.953904    0.167288   -0.944820
  H     -3.404044    0.641879    0.696003
  C     -1.145265   -1.873864   -0.136652
  C     -0.124080   -1.025923   -0.523983
  O     -0.329921    0.407702   -0.590916
  C     -1.481029    2.391377   -0.303241
  C      1.014977   -1.428364   -1.352937
  H      0.966826   -0.778702    1.167608
  O      2.358363   -1.297361   -0.733946
  H      1.072677   -0.848784   -2.279101
  H      0.927930   -2.488754   -1.571244
  P      2.760906   -0.082397    0.211192
  O      4.170692   -0.064606    0.605792
  O      1.715967   -0.195515    1.439659
  O      2.327753    1.260635   -0.553441
  H      1.362371    1.324929   -0.671367
  O     -1.165120   -3.125155   -0.258923
  O     -3.485561   -2.081009    0.282249
  H     -2.166597   -1.256021    1.629022
  H     -3.065089   -2.931738    0.051813
  O     -2.501104    2.930034   -0.630409
  O     -0.289006    3.015190   -0.311030
  H     -0.429782    3.919349   -0.621233
  O     -0.962793    1.005892    1.566416
  H     -0.000558    1.106930    1.620285

 Total Charge           Charge          ....   -1
 Multiplicity           Mult            ....    1
 Number of Electrons    NEL             ....  148
 Basis Dimension        Dim             .... 1062

ORBITAL ENERGIES
----------------

  NO   OCC          E(Eh)            E(eV)
   0   2.0000     -79.978093     -2176.3145
   1   2.0000     -20.537582      -558.8560
   2   2.0000     -20.484398      -557.4088
   3   2.0000     -20.478693      -557.2536
   4   2.0000     -20.476651      -557.1980
   5   2.0000     -20.471298      -557.0524
   6   2.0000     -20.469827      -557.0123
   7   2.0000     -20.462774      -556.8204
   8   2.0000     -20.433827      -556.0327
   9   2.0000     -20.385391      -554.7147
  10   2.0000     -20.369333      -554.2777
  11   2.0000     -11.304916      -307.6224
  12   2.0000     -11.271421      -306.7110
  13   2.0000     -11.183714      -304.3243
  14   2.0000     -11.177564      -304.1570
  15   2.0000     -11.167161      -303.8739
  16   2.0000     -11.128377      -302.8185
  17   2.0000     -11.126990      -302.7808
  18   2.0000      -7.494111      -203.9251
  19   2.0000      -5.392548      -146.7387
  20   2.0000      -5.392374      -146.7339
  21   2.0000      -5.391285      -146.7043
  22   2.0000      -1.398670       -38.0597
  23   2.0000      -1.339366       -36.4460
  24   2.0000      -1.321099       -35.9489
  25   2.0000      -1.291392       -35.1406
  26   2.0000      -1.259660       -34.2771
  27   2.0000      -1.254053       -34.1245
  28   2.0000      -1.251211       -34.0472
  29   2.0000      -1.244887       -33.8751
  30   2.0000      -1.195085       -32.5199
  31   2.0000      -1.173503       -31.9326
  32   2.0000      -0.966528       -26.3006
  33   2.0000      -0.939128       -25.5550
  34   2.0000      -0.861314       -23.4375
  35   2.0000      -0.799362       -21.7517
  36   2.0000      -0.751177       -20.4406
  37   2.0000      -0.719877       -19.5888
  38   2.0000      -0.694624       -18.9017
  39   2.0000      -0.662649       -18.0316
  40   2.0000      -0.646225       -17.5847
  41   2.0000      -0.631851       -17.1935
  42   2.0000      -0.626430       -17.0460
  43   2.0000      -0.608375       -16.5547
  44   2.0000      -0.589026       -16.0282
  45   2.0000      -0.567709       -15.4482
  46   2.0000      -0.560643       -15.2559
  47   2.0000      -0.548794       -14.9334
  48   2.0000      -0.542372       -14.7587
  49   2.0000      -0.534818       -14.5531
  50   2.0000      -0.528703       -14.3867
  51   2.0000      -0.520241       -14.1565
  52   2.0000      -0.493256       -13.4222
  53   2.0000      -0.483965       -13.1694
  54   2.0000      -0.482138       -13.1196
  55   2.0000      -0.457281       -12.4432
  56   2.0000      -0.455168       -12.3857
  57   2.0000      -0.444773       -12.1029
  58   2.0000      -0.440949       -11.9988
  59   2.0000      -0.436800       -11.8859
  60   2.0000      -0.419713       -11.4210
  61   2.0000      -0.415150       -11.2968
  62   2.0000      -0.411869       -11.2075
  63   2.0000      -0.403360       -10.9760
  64   2.0000      -0.401724       -10.9315
  65   2.0000      -0.387034       -10.5317
  66   2.0000      -0.371346       -10.1048
  67   2.0000      -0.364587        -9.9209
  68   2.0000      -0.354857        -9.6562
  69   2.0000      -0.349113        -9.4999
  70   2.0000      -0.346238        -9.4216
  71   2.0000      -0.327657        -8.9160
  72   2.0000      -0.269452        -7.3322
  73   2.0000      -0.176210        -4.7949
  74   0.0000       0.096063         2.6140
  75   0.0000       0.111838         3.0433
  76   0.0000       0.114660         3.1200
  77   0.0000       0.121614         3.3093
  78   0.0000       0.126246         3.4353

MULLIKEN ATOMIC CHARGES
-----------------------
   0 C :    2.258994
   1 C :   -0.667808
   2 C :    0.736102
   3 H :    0.142361
   4 H :    0.366849
   5 C :    0.391542
   6 C :    0.865293
   7 O :   -0.780241
   8 C :    0.059276
   9 C :   -0.543205
  10 H :    0.385040
  11 O :   -0.706529
  12 H :    0.235246
  13 H :    0.352757
  14 P :    1.842089
  15 O :   -1.155628
  16 O :   -0.798199
  17 O :   -0.719336
  18 H :    0.477624
  19 O :   -1.342568
  20 O :   -0.939313
  21 H :    0.219262
  22 H :    0.241473
  23 O :   -0.963112
  24 O :   -0.398184
  25 H :    0.193611
  26 O :   -0.952209
  27 H :    0.198813
Sum of atomic charges:   -1.0000000

LOEWDIN ATOMIC CHARGES
----------------------
   0 C :   -0.831984
   1 C :    0.276818
   2 C :   -0.287142
   3 H :   -0.138319
   4 H :   -0.137467
   5 C :   -0.583753
   6 C :   -0.358130
   7 O :    0.596848
   8 C :   -0.777151
   9 C :    0.001483
  10 H :   -0.659078
  11 O :    0.350912
  12 H :   -0.168216
  13 H :   -0.186218
  14 P :   -0.254998
  15 O :   -0.030849
  16 O :    0.652672
  17 O :    0.644521
  18 H :   -0.735928
  19 O :    0.405297
  20 O :    0.819507
  21 H :   -0.146733
  22 H :   -0.621863
  23 O :    0.463894
  24 O :    0.849416
  25 H :   -0.459284
  26 O :    0.864567
  27 H :   -0.548821

  Mayer bond orders larger than 0.100000
B(  0-C ,  1-C ) :   0.6878 B(  0-C ,  5-C ) :  -0.1474 B(  0-C ,  7-O ) :   0.6591
B(  0-C , 23-O ) :   0.2616 B(  0-C , 24-O ) :  -0.1279 B(  0-C , 26-O ) :   0.1163
B(  1-C ,  2-C ) :   0.9437 B(  1-C ,  3-H ) :   1.1169 B(  1-C ,  4-H ) :   0.8592
B(  1-C ,  5-C ) :   0.2193 B(  1-C ,  8-C ) :  -0.1998 B(  1-C , 20-O ) :   0.1611
B(  1-C , 23-O ) :  -0.1207 B(  2-C ,  5-C ) :   0.9008 B(  2-C , 20-O ) :   0.1463
B(  2-C , 21-H ) :   1.1062 B(  5-C ,  6-C ) :   1.2611 B(  5-C ,  7-O ) :  -0.1238
B(  5-C , 19-O ) :   0.2293 B(  5-C , 20-O ) :   0.1795 B(  6-C ,  7-O ) :   0.6866
B(  6-C ,  9-C ) :   0.6903 B(  6-C , 10-H ) :   0.1128 B(  6-C , 19-O ) :   0.1193
B(  7-O , 26-O ) :   0.1269 B(  8-C , 23-O ) :   1.1038 B(  8-C , 24-O ) :   1.0775
B(  8-C , 26-O ) :   0.2131 B(  9-C , 11-O ) :   0.5743 B(  9-C , 12-H ) :   1.0227
B(  9-C , 13-H ) :   0.9688 B( 10-H , 16-O ) :   0.6069 B( 11-O , 14-P ) :   1.1354
B( 11-O , 16-O ) :   0.1464 B( 11-O , 17-O ) :   0.1450 B( 14-P , 15-O ) :   0.9660
B( 14-P , 16-O ) :   0.9567 B( 14-P , 17-O ) :   0.9148 B( 16-O , 17-O ) :   0.1392
B( 17-O , 18-H ) :   0.5631 B( 20-O , 22-H ) :   0.9686 B( 24-O , 25-H ) :   1.0001
B( 26-O , 27-H ) :   0.9096

MP2 TOTAL ENERGY:    -1364.591228069 Eh
FINAL SINGLE POINT ENERGY     -1364.591228069427

DIPOLE MOMENT
-------------
                                X             Y             Z
Electronic contribution:      8.86416       3.18583       0.42967
Nuclear contribution   :     -9.96416      -1.00304      -1.07606
                        -----------------------------------------
Total Dipole Moment    :     -1.10000       2.18280      -0.64639
                        -----------------------------------------
Magnitude (a.u.)       :      2.52833
Magnitude (Debye)      :      6.42649

Rotational constants in cm-1:     0.017709     0.011284     0.007904
Rotational constants in MHz :   530.902911   338.299243   236.960073

                             ****ORCA TERMINATED NORMALLY****
TOTAL RUN TIME: 0 days 0 hours 24 minutes 3 seconds 528 msec
