                         Program Version 4.2.1 -  RELEASE  -
|  1> %pal
|  2>  nprocs 32
|  3> end
|  4> !RI-MP2 aug-cc-pVTZ aug-cc-pVTZ/C TightSCF
|  5> %maxcore 4500
|  6> *xyzfile 1 1  05_28TS.xyz
|  7>
|  8>
|  9>                          ****END OF INPUT****

CARTESIAN COORDINATES (ANGSTROEM)
---------------------------------
  C      0.031439   -2.587645   -0.790679
  C      0.044410   -1.416041    1.581902
  C      1.505873   -1.050449    1.309770
  C      2.227955   -2.059498    0.419463
  C      1.503275   -2.189182   -0.917372
  H      1.553677   -0.071252    0.832061
  H      2.018487   -0.970197    2.270524
  H      2.240732   -3.031191    0.916945
  H      1.579000   -1.233886   -1.436426
  H      2.001971   -2.936018   -1.538444
  N     -0.607130   -1.756068    0.279815
  O     -1.878626   -1.694045    0.242158
  C     -0.678626   -2.314638   -2.115984
  H     -0.612044   -1.264551   -2.399796
  H     -0.180713   -2.891532   -2.895352
  H     -1.723836   -2.619440   -2.087281
  C     -0.145605   -4.075325   -0.446673
  H     -1.190849   -4.293290   -0.224981
  H      0.150443   -4.671502   -1.310901
  H      0.462440   -4.392160    0.397484
  C     -0.674595   -0.232123    2.219068
  H     -0.179610    0.003641    3.161240
  H     -0.622182    0.647080    1.580517
  H     -1.717567   -0.462189    2.431818
  C     -0.089299   -2.619991    2.533197
  H      0.247354   -2.320647    3.526400
  H     -1.131692   -2.931886    2.605919
  H      0.506277   -3.475540    2.224933
  C     -2.609998    0.400234   -0.986583
  H     -2.939783   -0.125376   -1.882730
  H     -2.264882   -0.713750   -0.338043
  O     -3.627452    0.945976   -0.245125
  C     -1.383928    1.116545   -1.009073
  H     -0.624983    0.758891   -1.691273
  C     -1.153355    2.212520   -0.229268
  H     -1.987189    2.570828    0.367389
  C      0.057455    2.977315   -0.143742
  C      0.021581    4.206396    0.537887
  C      1.274490    2.535817   -0.688838
  C      1.159001    4.981545    0.646507
  H     -0.912195    4.547216    0.970105
  C      2.412082    3.304953   -0.562608
  H      1.356189    1.574798   -1.177031
  C      2.354418    4.531087    0.095218
  H      1.121729    5.932255    1.162535
  H      3.344304    2.932561   -0.965291
  H      3.248961    5.135092    0.187233
  C     -4.851177    0.287844   -0.294758
  O     -4.975826   -0.730504   -0.898610
  C     -5.878582    1.034806    0.482640
  H     -5.540440    1.170969    1.510785
  H     -6.019711    2.025275    0.046755
  H     -6.814906    0.484196    0.464527
  N      3.633740   -1.711704    0.234591
  C      4.076397   -0.588524   -0.389686
  C      5.571721   -0.423653   -0.472562
  H      5.849090   -0.291386   -1.518460
  H      5.850801    0.486713    0.059419
  H      6.129439   -1.262570   -0.056985
  O      3.312204    0.244048   -0.854852
  H      4.323423   -2.352495    0.590037

 Total Charge           Charge          ....    1
 Multiplicity           Mult            ....    1
 Number of Electrons    NEL             ....  210
 Basis Dimension        Dim             .... 2047

ORBITAL ENERGIES
----------------

  NO   OCC          E(Eh)            E(eV)
   0   2.0000     -20.786105      -565.6187
   1   2.0000     -20.746451      -564.5396
   2   2.0000     -20.670847      -562.4823
   3   2.0000     -20.614004      -560.9356
   4   2.0000     -15.788224      -429.6194
   5   2.0000     -15.687557      -426.8801
   6   2.0000     -11.503859      -313.0359
   7   2.0000     -11.466370      -312.0158
   8   2.0000     -11.449549      -311.5581
   9   2.0000     -11.407745      -310.4205
  10   2.0000     -11.399839      -310.2054
  11   2.0000     -11.399591      -310.1986
  12   2.0000     -11.382934      -309.7454
  13   2.0000     -11.369653      -309.3840
  14   2.0000     -11.357414      -309.0510
  15   2.0000     -11.354683      -308.9766
  16   2.0000     -11.349766      -308.8428
  17   2.0000     -11.348049      -308.7961
  18   2.0000     -11.345638      -308.7305
  19   2.0000     -11.336425      -308.4798
  20   2.0000     -11.332555      -308.3745
  21   2.0000     -11.332028      -308.3601
  22   2.0000     -11.331780      -308.3534
  23   2.0000     -11.329780      -308.2990
  24   2.0000     -11.326750      -308.2165
  25   2.0000     -11.326605      -308.2126
  26   2.0000     -11.325150      -308.1730
  27   2.0000     -11.324408      -308.1528
  28   2.0000      -1.625459       -44.2310
  29   2.0000      -1.601400       -43.5763
  30   2.0000      -1.500696       -40.8360
  31   2.0000      -1.483009       -40.3547
  32   2.0000      -1.342101       -36.5204
  33   2.0000      -1.294720       -35.2311
  34   2.0000      -1.280725       -34.8503
  35   2.0000      -1.231706       -33.5164
  36   2.0000      -1.221582       -33.2409
  37   2.0000      -1.167531       -31.7701
  38   2.0000      -1.158476       -31.5237
  39   2.0000      -1.129605       -30.7381
  40   2.0000      -1.125400       -30.6237
  41   2.0000      -1.109227       -30.1836
  42   2.0000      -1.084912       -29.5219
  43   2.0000      -1.059477       -28.8298
  44   2.0000      -1.056523       -28.7495
  45   2.0000      -1.047167       -28.4949
  46   2.0000      -1.045792       -28.4575
  47   2.0000      -0.968719       -26.3602
  48   2.0000      -0.965237       -26.2654
  49   2.0000      -0.937856       -25.5203
  50   2.0000      -0.936984       -25.4966
  51   2.0000      -0.936041       -25.4710
  52   2.0000      -0.898953       -24.4618
  53   2.0000      -0.875216       -23.8158
  54   2.0000      -0.865984       -23.5646
  55   2.0000      -0.829845       -22.5812
  56   2.0000      -0.828801       -22.5528
  57   2.0000      -0.811804       -22.0903
  58   2.0000      -0.810786       -22.0626
  59   2.0000      -0.806966       -21.9586
  60   2.0000      -0.801129       -21.7998
  61   2.0000      -0.789595       -21.4860
  62   2.0000      -0.776892       -21.1403
  63   2.0000      -0.762087       -20.7375
  64   2.0000      -0.752772       -20.4840
  65   2.0000      -0.745481       -20.2856
  66   2.0000      -0.731886       -19.9156
  67   2.0000      -0.727877       -19.8065
  68   2.0000      -0.727091       -19.7852
  69   2.0000      -0.711266       -19.3545
  70   2.0000      -0.709050       -19.2942
  71   2.0000      -0.707381       -19.2488
  72   2.0000      -0.699864       -19.0443
  73   2.0000      -0.698154       -18.9977
  74   2.0000      -0.689891       -18.7729
  75   2.0000      -0.683470       -18.5982
  76   2.0000      -0.679322       -18.4853
  77   2.0000      -0.677492       -18.4355
  78   2.0000      -0.676389       -18.4055
  79   2.0000      -0.672187       -18.2911
  80   2.0000      -0.666423       -18.1343
  81   2.0000      -0.659212       -17.9381
  82   2.0000      -0.650354       -17.6970
  83   2.0000      -0.645169       -17.5559
  84   2.0000      -0.644865       -17.5477
  85   2.0000      -0.642196       -17.4750
  86   2.0000      -0.637903       -17.3582
  87   2.0000      -0.630424       -17.1547
  88   2.0000      -0.623204       -16.9582
  89   2.0000      -0.617494       -16.8029
  90   2.0000      -0.612331       -16.6624
  91   2.0000      -0.607785       -16.5387
  92   2.0000      -0.602584       -16.3971
  93   2.0000      -0.596482       -16.2311
  94   2.0000      -0.593947       -16.1621
  95   2.0000      -0.584779       -15.9126
  96   2.0000      -0.575021       -15.6471
  97   2.0000      -0.573606       -15.6086
  98   2.0000      -0.569013       -15.4836
  99   2.0000      -0.540795       -14.7158
 100   2.0000      -0.518066       -14.0973
 101   2.0000      -0.494622       -13.4594
 102   2.0000      -0.474937       -12.9237
 103   2.0000      -0.444926       -12.1071
 104   2.0000      -0.406160       -11.0522
 105   0.0000      -0.153370        -4.1734
 106   0.0000      -0.052263        -1.4221
 107   0.0000      -0.048525        -1.3204
 108   0.0000      -0.043016        -1.1705
 109   0.0000      -0.039997        -1.0884

MULLIKEN ATOMIC CHARGES
-----------------------
   0 C :    1.770464
   1 C :    1.836278
   2 C :   -1.066555
   3 C :    0.796330
   4 C :   -0.826587
   5 H :    0.756710
   6 H :    0.228279
   7 H :    0.232976
   8 H :    0.496976
   9 H :    0.346878
  10 N :    2.348860
  11 O :   -1.566214
  12 C :   -1.661808
  13 H :    0.383688
  14 H :    0.023004
  15 H :    0.198489
  16 C :   -1.719671
  17 H :    0.178463
  18 H :    0.131811
  19 H :    0.302975
  20 C :   -1.955164
  21 H :   -0.053069
  22 H :    0.781831
  23 H :    0.177766
  24 C :   -1.757667
  25 H :    0.131723
  26 H :    0.150799
  27 H :    0.330108
  28 C :    0.943898
  29 H :    0.622774
  30 H :    0.253853
  31 O :   -0.475344
  32 C :   -0.296238
  33 H :   -0.191479
  34 C :   -0.566869
  35 H :    0.206413
  36 C :    2.214413
  37 C :   -1.176936
  38 C :   -0.502670
  39 C :   -0.563439
  40 H :   -0.136087
  41 C :   -0.904716
  42 H :    0.291964
  43 C :   -0.206773
  44 H :    0.724750
  45 H :    0.559571
  46 H :    0.468652
  47 C :    0.266326
  48 O :   -0.861870
  49 C :   -0.686244
  50 H :    0.270833
  51 H :    0.288755
  52 H :    0.381891
  53 N :   -0.583874
  54 C :    0.679524
  55 C :   -0.970772
  56 H :    0.337683
  57 H :    0.334501
  58 H :    0.279846
  59 O :   -0.919881
  60 H :   -0.080127
Sum of atomic charges:    1.0000000

LOEWDIN ATOMIC CHARGES
----------------------
   0 C :   -0.365642
   1 C :   -0.366611
   2 C :    0.337573
   3 C :   -0.054652
   4 C :    0.331589
   5 H :   -0.168061
   6 H :   -0.111914
   7 H :   -0.135986
   8 H :   -0.175577
   9 H :   -0.112020
  10 N :    0.105620
  11 O :    0.739733
  12 C :    0.608029
  13 H :   -0.181598
  14 H :   -0.137936
  15 H :   -0.150275
  16 C :    0.629082
  17 H :   -0.141055
  18 H :   -0.143170
  19 H :   -0.184142
  20 C :    0.612273
  21 H :   -0.137663
  22 H :   -0.205907
  23 H :   -0.149522
  24 C :    0.629821
  25 H :   -0.143103
  26 H :   -0.140393
  27 H :   -0.189628
  28 C :   -0.030112
  29 H :   -0.139008
  30 H :   -0.566261
  31 O :    0.626134
  32 C :    0.266810
  33 H :   -0.189755
  34 C :    0.259805
  35 H :   -0.162696
  36 C :   -0.106578
  37 C :    0.234142
  38 C :    0.227398
  39 C :    0.231134
  40 H :   -0.164612
  41 C :    0.234935
  42 H :   -0.220947
  43 C :    0.240009
  44 H :   -0.172807
  45 H :   -0.181653
  46 H :   -0.163297
  47 C :   -0.750686
  48 O :    0.507815
  49 C :    0.608864
  50 H :   -0.165984
  51 H :   -0.162752
  52 H :   -0.168689
  53 N :    0.607404
  54 C :   -0.641492
  55 C :    0.618135
  56 H :   -0.163511
  57 H :   -0.163437
  58 H :   -0.176140
  59 O :    0.503248
  60 H :   -0.274278

  Mayer bond orders larger than 0.100000
B(  0-C ,  2-C ) :   0.1303 B(  0-C ,  4-C ) :   0.5195 B(  0-C , 10-N ) :   1.0596
B(  0-C , 11-O ) :  -0.1621 B(  0-C , 14-H ) :  -0.1533 B(  0-C , 17-H ) :  -0.1088
B(  0-C , 18-H ) :  -0.2315 B(  0-C , 19-H ) :  -0.1239 B(  1-C ,  2-C ) :   0.3268
B(  1-C ,  3-C ) :  -0.1377 B(  1-C ,  4-C ) :   0.1201 B(  1-C , 10-N ) :   1.0806
B(  1-C , 21-H ) :  -0.2333 B(  1-C , 24-C ) :  -0.1878 B(  1-C , 25-H ) :  -0.2565
B(  1-C , 26-H ) :  -0.1451 B(  1-C , 27-H ) :  -0.1259 B(  1-C , 30-H ) :  -0.1484
B(  2-C ,  3-C ) :   0.9383 B(  2-C ,  5-H ) :   0.7194 B(  2-C ,  6-H ) :   0.8912
B(  2-C ,  7-H ) :   0.1386 B(  2-C , 53-N ) :   0.1971 B(  3-C ,  4-C ) :   0.9881
B(  3-C ,  6-H ) :  -0.1251 B(  3-C ,  7-H ) :   0.7167 B(  3-C , 10-N ) :   0.1437
B(  3-C , 53-N ) :  -0.3064 B(  3-C , 54-C ) :  -0.6976 B(  3-C , 60-H ) :   0.1009
B(  4-C ,  7-H ) :   0.1044 B(  4-C ,  8-H ) :   0.9161 B(  4-C ,  9-H ) :   0.7957
B(  4-C , 53-N ) :   0.1294 B(  5-H , 10-N ) :   0.1505 B(  5-H , 20-C ) :  -0.1540
B(  7-H , 53-N ) :  -0.1597 B(  7-H , 54-C ) :   0.2089 B( 10-N , 11-O ) :  -0.2359
B( 10-N , 12-C ) :  -0.2339 B( 10-N , 15-H ) :  -0.1492 B( 10-N , 16-C ) :  -0.2750
B( 10-N , 17-H ) :  -0.1715 B( 10-N , 20-C ) :  -0.2114 B( 10-N , 23-H ) :  -0.1292
B( 10-N , 24-C ) :  -0.2918 B( 10-N , 26-H ) :  -0.2070 B( 10-N , 28-C ) :   0.1826
B( 10-N , 30-H ) :   0.2132 B( 11-O , 16-C ) :   0.1477 B( 11-O , 24-C ) :   0.1455
B( 11-O , 26-H ) :   0.1008 B( 11-O , 30-H ) :   0.3155 B( 12-C , 13-H ) :   0.9671
B( 12-C , 14-H ) :   1.4805 B( 12-C , 15-H ) :   1.1690 B( 12-C , 16-C ) :   0.1548
B( 16-C , 17-H ) :   1.2350 B( 16-C , 18-H ) :   1.3103 B( 16-C , 19-H ) :   1.1053
B( 20-C , 21-H ) :   1.5803 B( 20-C , 22-H ) :   0.5853 B( 20-C , 23-H ) :   1.1969
B( 20-C , 24-C ) :   0.2434 B( 21-H , 22-H ) :  -0.1222 B( 22-H , 34-C ) :   0.1181
B( 24-C , 25-H ) :   1.3045 B( 24-C , 26-H ) :   1.2858 B( 24-C , 27-H ) :   1.0871
B( 28-C , 29-H ) :   0.7778 B( 28-C , 30-H ) :   0.5257 B( 28-C , 31-O ) :   0.4654
B( 28-C , 32-C ) :   0.2174 B( 28-C , 33-H ) :  -0.5594 B( 28-C , 37-C ) :   0.1071
B( 28-C , 42-H ) :   0.1513 B( 28-C , 47-C ) :  -0.1468 B( 29-H , 31-O ) :  -0.1036
B( 29-H , 32-C ) :  -0.3223 B( 29-H , 47-C ) :  -0.1639 B( 30-H , 32-C ) :   0.3244
B( 31-O , 32-C ) :   0.2346 B( 31-O , 34-C ) :  -0.1563 B( 31-O , 47-C ) :   1.0658
B( 31-O , 48-O ) :  -0.1740 B( 31-O , 49-C ) :  -0.1416 B( 32-C , 33-H ) :   2.0967
B( 32-C , 34-C ) :   0.8405 B( 32-C , 35-H ) :  -0.1905 B( 32-C , 36-C ) :   0.1412
B( 32-C , 38-C ) :  -0.4121 B( 32-C , 40-H ) :  -0.1345 B( 32-C , 42-H ) :  -0.3346
B( 32-C , 48-O ) :  -0.1223 B( 33-H , 34-C ) :  -0.1051 B( 34-C , 35-H ) :   1.3381
B( 34-C , 36-C ) :   0.4842 B( 34-C , 37-C ) :   0.5624 B( 34-C , 38-C ) :   0.3904
B( 34-C , 39-C ) :   0.1534 B( 34-C , 40-H ) :  -0.3575 B( 34-C , 42-H ) :   0.3811
B( 34-C , 43-C ) :   0.2146 B( 34-C , 45-H ) :  -0.1660 B( 35-H , 36-C ) :  -0.2320
B( 35-H , 40-H ) :  -0.1109 B( 36-C , 37-C ) :  -0.5240 B( 36-C , 38-C ) :   0.2930
B( 36-C , 39-C ) :   0.1585 B( 36-C , 40-H ) :  -0.3647 B( 36-C , 42-H ) :  -0.4195
B( 37-C , 38-C ) :  -0.3713 B( 37-C , 39-C ) :   1.0381 B( 37-C , 40-H ) :   2.1180
B( 37-C , 41-C ) :   0.1027 B( 37-C , 43-C ) :  -0.1060 B( 37-C , 44-H ) :  -0.1623
B( 37-C , 46-H ) :   0.1981 B( 38-C , 39-C ) :  -0.1495 B( 38-C , 40-H ) :   0.2492
B( 38-C , 41-C ) :   1.3799 B( 38-C , 42-H ) :   1.3643 B( 38-C , 43-C ) :  -0.1585
B( 38-C , 44-H ) :   0.1028 B( 38-C , 45-H ) :   0.1400 B( 38-C , 46-H ) :  -0.1946
B( 39-C , 40-H ) :  -0.1662 B( 39-C , 41-C ) :   0.2905 B( 39-C , 42-H ) :  -0.1473
B( 39-C , 43-C ) :   1.0992 B( 39-C , 44-H ) :   0.2942 B( 39-C , 46-H ) :  -0.1705
B( 40-H , 42-H ) :   0.3206 B( 40-H , 44-H ) :  -0.1081 B( 41-C , 42-H ) :  -0.1019
B( 41-C , 43-C ) :   1.1067 B( 41-C , 45-H ) :   0.6357 B( 41-C , 46-H ) :  -0.1908
B( 42-H , 43-C ) :  -0.1639 B( 42-H , 44-H ) :  -0.1077 B( 42-H , 46-H ) :   0.1454
B( 43-C , 46-H ) :   0.7758 B( 47-C , 48-O ) :   1.5839 B( 47-C , 49-C ) :   0.7521
B( 48-O , 49-C ) :  -0.1148 B( 49-C , 50-H ) :   0.9903 B( 49-C , 51-H ) :   0.9592
B( 49-C , 52-H ) :   0.9015 B( 53-N , 54-C ) :   1.1948 B( 53-N , 60-H ) :   1.2082
B( 54-C , 55-C ) :   0.3002 B( 54-C , 56-H ) :  -0.1060 B( 54-C , 59-O ) :   1.8511
B( 54-C , 60-H ) :  -0.1850 B( 55-C , 56-H ) :   1.0334 B( 55-C , 57-H ) :   1.0131
B( 55-C , 58-H ) :   0.9865 B( 55-C , 59-O ) :  -0.2037

MP2 TOTAL ENERGY:    -1265.909571006 Eh
FINAL SINGLE POINT ENERGY     -1265.909571005597

DIPOLE MOMENT
-------------
                                X             Y             Z
Electronic contribution:     -7.12773      14.42379      -4.92928
Nuclear contribution   :      7.55531     -14.32544       5.85887
                        -----------------------------------------
Total Dipole Moment    :      0.42758       0.09835       0.92959
                        -----------------------------------------
Magnitude (a.u.)       :      1.02793
Magnitude (Debye)      :      2.61279

Rotational constants in cm-1:     0.006567     0.004867     0.003265
Rotational constants in MHz :   196.859122   145.917509    97.873317

                             ****ORCA TERMINATED NORMALLY****
TOTAL RUN TIME: 0 days 4 hours 38 minutes 37 seconds 607 msec
