                         Program Version 4.2.1 -  RELEASE  -
|  1> %pal
|  2>  nprocs 32
|  3> end
|  4> !RI-MP2 aug-cc-pVTZ aug-cc-pVTZ/C TightSCF
|  5> %maxcore 4500
|  6> *xyzfile 0 1  02_37P.xyz
|  7>
|  8>
|  9>                          ****END OF INPUT****

CARTESIAN COORDINATES (ANGSTROEM)
---------------------------------
  C      0.342742    0.090939    2.160585
  C     -1.592826   -0.299647    0.757385
  C      0.831975    1.159858    1.226104
  C     -1.348289    0.862489    0.066196
  C     -2.272855    1.337658   -1.021948
  C     -0.759966   -0.605231    1.906230
  C     -0.041150    2.903986   -0.302695
  C     -2.652366   -1.218886    0.378301
  C      2.113707    0.771005    0.445505
  C      3.272233    0.599590    1.439905
  H      3.163097   -0.305926    2.040662
  H      3.325217    1.446234    2.132652
  H      2.365060    1.635041   -0.185877
  H      4.232926    0.539249    0.927736
  N     -0.259693    1.619971    0.343451
  Si     2.063821   -0.690851   -0.784196
  C      0.812315   -0.413598   -2.160028
  C      3.770382   -0.737873   -1.581049
  C      1.733684   -2.344370    0.033090
  H      0.850275    3.357344    0.125167
  H     -0.874074    3.588708   -0.132753
  H      0.117411    2.806238   -1.380126
  H      4.047435    0.232061   -2.003542
  H      3.785944   -1.466873   -2.395578
  H      4.548603   -1.026734   -0.871351
  H      0.861958    0.600852   -2.564236
  H     -0.204532   -0.601949   -1.816467
  H      1.014726   -1.103379   -2.983681
  H      0.701950   -2.428645    0.374995
  H      2.383762   -2.508235    0.895668
  H      1.922264   -3.153115   -0.678680
  C     -3.479305   -0.855622   -0.838218
  C     -3.632127    0.651018   -0.973616
  H     -4.439649   -1.364284   -0.753590
  H     -2.972520   -1.267019   -1.719812
  H     -4.195388    1.032828   -0.117016
  H     -4.202258    0.906087   -1.869558
  H     -1.788579    1.153769   -1.989063
  H     -2.406113    2.417541   -0.951773
  O     -2.857857   -2.260931    0.981366
  H      0.941877   -0.104225    3.040786
  H     -1.089280   -1.408498    2.553176
  H      1.108171    2.034593    1.831449

 Total Charge           Charge          ....    0
 Multiplicity           Mult            ....    1
 Number of Electrons    NEL             ....  144
 Basis Dimension        Dim             .... 1407

ORBITAL ENERGIES
----------------

  NO   OCC          E(Eh)            E(eV)
   0   2.0000     -68.748180     -1870.7331
   1   2.0000     -20.506115      -557.9997
   2   2.0000     -15.598022      -424.4438
   3   2.0000     -11.308772      -307.7273
   4   2.0000     -11.303806      -307.5922
   5   2.0000     -11.279616      -306.9340
   6   2.0000     -11.275953      -306.8343
   7   2.0000     -11.249831      -306.1235
   8   2.0000     -11.236706      -305.7663
   9   2.0000     -11.224150      -305.4247
  10   2.0000     -11.221379      -305.3492
  11   2.0000     -11.221169      -305.3435
  12   2.0000     -11.214332      -305.1575
  13   2.0000     -11.213190      -305.1264
  14   2.0000     -11.203145      -304.8531
  15   2.0000     -11.196858      -304.6820
  16   2.0000     -11.193829      -304.5996
  17   2.0000     -11.186308      -304.3949
  18   2.0000      -6.095689      -165.8721
  19   2.0000      -4.201973      -114.3415
  20   2.0000      -4.201834      -114.3377
  21   2.0000      -4.201765      -114.3358
  22   2.0000      -1.351272       -36.7700
  23   2.0000      -1.290554       -35.1178
  24   2.0000      -1.126791       -30.6615
  25   2.0000      -1.095443       -29.8085
  26   2.0000      -1.059307       -28.8252
  27   2.0000      -1.007216       -27.4077
  28   2.0000      -0.981497       -26.7079
  29   2.0000      -0.966052       -26.2876
  30   2.0000      -0.959333       -26.1048
  31   2.0000      -0.923157       -25.1204
  32   2.0000      -0.916424       -24.9372
  33   2.0000      -0.901097       -24.5201
  34   2.0000      -0.856823       -23.3153
  35   2.0000      -0.818942       -22.2845
  36   2.0000      -0.798039       -21.7157
  37   2.0000      -0.745103       -20.2753
  38   2.0000      -0.695573       -18.9275
  39   2.0000      -0.688210       -18.7271
  40   2.0000      -0.672901       -18.3106
  41   2.0000      -0.649653       -17.6780
  42   2.0000      -0.634400       -17.2629
  43   2.0000      -0.618988       -16.8435
  44   2.0000      -0.609211       -16.5775
  45   2.0000      -0.603858       -16.4318
  46   2.0000      -0.597202       -16.2507
  47   2.0000      -0.588204       -16.0058
  48   2.0000      -0.580900       -15.8071
  49   2.0000      -0.576286       -15.6815
  50   2.0000      -0.569838       -15.5061
  51   2.0000      -0.564311       -15.3557
  52   2.0000      -0.560247       -15.2451
  53   2.0000      -0.550460       -14.9788
  54   2.0000      -0.546466       -14.8701
  55   2.0000      -0.537106       -14.6154
  56   2.0000      -0.532600       -14.4928
  57   2.0000      -0.530649       -14.4397
  58   2.0000      -0.527833       -14.3631
  59   2.0000      -0.518663       -14.1135
  60   2.0000      -0.513882       -13.9834
  61   2.0000      -0.497040       -13.5251
  62   2.0000      -0.484612       -13.1870
  63   2.0000      -0.475748       -12.9458
  64   2.0000      -0.466624       -12.6975
  65   2.0000      -0.445715       -12.1285
  66   2.0000      -0.425204       -11.5704
  67   2.0000      -0.420338       -11.4380
  68   2.0000      -0.400549       -10.8995
  69   2.0000      -0.390755       -10.6330
  70   2.0000      -0.385947       -10.5022
  71   2.0000      -0.272408        -7.4126
  72   0.0000       0.017423         0.4741
  73   0.0000       0.025183         0.6853
  74   0.0000       0.026904         0.7321
  75   0.0000       0.032308         0.8791
  76   0.0000       0.038118         1.0373

MULLIKEN ATOMIC CHARGES
-----------------------
   0 C :   -0.436056
   1 C :    1.373795
   2 C :    0.341080
   3 C :    0.954891
   4 C :   -0.292521
   5 C :   -1.586334
   6 C :   -1.322796
   7 C :    0.829701
   8 C :    0.722300
   9 C :   -1.428576
  10 H :    0.352972
  11 H :    0.170339
  12 H :    0.152422
  13 H :    0.257329
  14 N :   -0.587186
  15 Si:    2.626669
  16 C :   -1.483545
  17 C :   -1.848227
  18 C :   -1.431678
  19 H :    0.316540
  20 H :    0.262372
  21 H :    0.298138
  22 H :    0.219041
  23 H :    0.123025
  24 H :    0.214988
  25 H :    0.209719
  26 H :    0.420889
  27 H :    0.034193
  28 H :    0.503788
  29 H :    0.194785
  30 H :    0.068837
  31 C :   -0.361602
  32 C :   -0.704200
  33 H :    0.342098
  34 H :    0.163319
  35 H :    0.163637
  36 H :    0.309900
  37 H :    0.168560
  38 H :    0.450255
  39 O :   -1.377733
  40 H :    0.215475
  41 H :    0.147941
  42 H :    0.251455
Sum of atomic charges:    0.0000000

LOEWDIN ATOMIC CHARGES
----------------------
   0 C :    0.248291
   1 C :   -0.103771
   2 C :   -0.133297
   3 C :   -0.169660
   4 C :    0.311084
   5 C :    0.195752
   6 C :    0.507066
   7 C :   -0.547024
   8 C :    0.028902
   9 C :    0.540373
  10 H :   -0.171806
  11 H :   -0.155944
  12 H :   -0.198109
  13 H :   -0.175382
  14 N :    0.327160
  15 Si:    0.538789
  16 C :    0.599362
  17 C :    0.584018
  18 C :    0.599055
  19 H :   -0.165473
  20 H :   -0.153800
  21 H :   -0.145210
  22 H :   -0.221799
  23 H :   -0.227972
  24 H :   -0.232216
  25 H :   -0.220959
  26 H :   -0.263282
  27 H :   -0.217377
  28 H :   -0.240490
  29 H :   -0.222277
  30 H :   -0.221990
  31 C :    0.290940
  32 C :    0.298896
  33 H :   -0.149666
  34 H :   -0.136701
  35 H :   -0.132557
  36 H :   -0.133451
  37 H :   -0.133675
  38 H :   -0.161243
  39 O :    0.458000
  40 H :   -0.170848
  41 H :   -0.174657
  42 H :   -0.147051

  Mayer bond orders larger than 0.100000
B(  0-C ,  2-C ) :   0.4769 B(  0-C ,  3-C ) :   0.1071 B(  0-C ,  5-C ) :   1.7682
B(  0-C ,  7-C ) :  -0.1357 B(  0-C ,  8-C ) :   0.2657 B(  0-C , 40-H ) :   1.0792
B(  0-C , 42-H ) :  -0.2920 B(  1-C ,  3-C ) :   1.1133 B(  1-C ,  4-C ) :  -0.1722
B(  1-C ,  5-C ) :  -0.1537 B(  1-C ,  7-C ) :   1.2473 B(  1-C , 14-N ) :  -0.6457
B(  1-C , 15-Si) :  -0.1084 B(  1-C , 31-C ) :   0.1055 B(  1-C , 39-O ) :   0.2553
B(  1-C , 40-H ) :   0.1404 B(  1-C , 41-H ) :  -0.1369 B(  1-C , 42-H ) :   0.1488
B(  2-C ,  3-C ) :  -0.1630 B(  2-C ,  6-C ) :  -0.1153 B(  2-C ,  8-C ) :   0.8648
B(  2-C , 14-N ) :   0.5739 B(  2-C , 15-Si) :   0.2199 B(  2-C , 16-C ) :   0.1335
B(  2-C , 38-H ) :   0.1135 B(  2-C , 42-H ) :   1.1566 B(  3-C ,  4-C ) :   0.6084
B(  3-C ,  5-C ) :   0.7857 B(  3-C ,  6-C ) :  -0.3445 B(  3-C ,  7-C ) :  -0.3209
B(  3-C ,  8-C ) :   0.2069 B(  3-C , 14-N ) :   1.0970 B(  3-C , 15-Si) :   0.1111
B(  3-C , 21-H ) :  -0.1315 B(  3-C , 31-C ) :  -0.1298 B(  3-C , 38-H ) :  -0.1901
B(  3-C , 42-H ) :  -0.1221 B(  4-C ,  5-C ) :  -0.1115 B(  4-C ,  7-C ) :   0.1239
B(  4-C , 14-N ) :  -0.3559 B(  4-C , 32-C ) :   1.0325 B(  4-C , 37-H ) :   1.2066
B(  4-C , 38-H ) :   0.8829 B(  5-C ,  7-C ) :   0.5168 B(  5-C , 14-N ) :  -0.1028
B(  5-C , 15-Si) :   0.2138 B(  5-C , 41-H ) :   1.1476 B(  5-C , 42-H ) :  -0.1530
B(  6-C , 14-N ) :   1.2153 B(  6-C , 19-H ) :   1.0019 B(  6-C , 20-H ) :   1.0384
B(  6-C , 21-H ) :   1.0426 B(  7-C , 31-C ) :   0.9490 B(  7-C , 40-H ) :  -0.1487
B(  8-C ,  9-C ) :   0.3146 B(  8-C , 10-H ) :  -0.1178 B(  8-C , 12-H ) :   0.9504
B(  8-C , 14-N ) :  -0.1337 B(  8-C , 15-Si) :   1.1510 B(  8-C , 16-C ) :   0.1242
B(  9-C , 10-H ) :   1.0096 B(  9-C , 11-H ) :   1.1437 B(  9-C , 13-H ) :   1.0834
B( 12-H , 15-Si) :  -0.1455 B( 14-N , 19-H ) :  -0.1043 B( 14-N , 38-H ) :  -0.1309
B( 14-N , 41-H ) :   0.1185 B( 15-Si, 17-C ) :  -0.6061 B( 15-Si, 23-H ) :  -0.1899
B( 15-Si, 26-H ) :   0.1448 B( 16-C , 17-C ) :   0.1840 B( 16-C , 18-C ) :   0.1717
B( 16-C , 25-H ) :   1.0967 B( 16-C , 26-H ) :   0.8271 B( 16-C , 27-H ) :   1.1721
B( 17-C , 18-C ) :   0.1955 B( 17-C , 22-H ) :   1.0994 B( 17-C , 23-H ) :   1.2638
B( 17-C , 24-H ) :   1.1055 B( 18-C , 28-H ) :   0.7639 B( 18-C , 29-H ) :   1.0995
B( 18-C , 30-H ) :   1.2355 B( 31-C , 32-C ) :   0.9702 B( 31-C , 33-H ) :   0.8524
B( 31-C , 34-H ) :   1.0648 B( 32-C , 35-H ) :   1.1256 B( 32-C , 36-H ) :   0.8914
B( 32-C , 38-H ) :  -0.1290 B( 39-O , 41-H ) :   0.2123

MP2 TOTAL ENERGY:    -1004.240121605 Eh
FINAL SINGLE POINT ENERGY     -1004.240121605122

DIPOLE MOMENT
-------------
                                X             Y             Z
Electronic contribution:    -12.59802      -2.97447       7.60158
Nuclear contribution   :     13.37181       5.16077      -8.64913
                        -----------------------------------------
Total Dipole Moment    :      0.77379       2.18631      -1.04755
                        -----------------------------------------
Magnitude (a.u.)       :      2.54481
Magnitude (Debye)      :      6.46839

Rotational constants in cm-1:     0.019431     0.009715     0.009157
Rotational constants in MHz :   582.535180   291.247659   274.513992

                             ****ORCA TERMINATED NORMALLY****
TOTAL RUN TIME: 0 days 1 hours 9 minutes 12 seconds 284 msec
