                         Program Version 4.2.1 -  RELEASE  -
|  1> %pal
|  2>  nprocs 32
|  3> end
|  4> !RI-MP2 aug-cc-pVTZ aug-cc-pVTZ/C TightSCF
|  5> %maxcore 4500
|  6> *xyzfile 0 1  04_10R1.xyz
|  7>
|  8>
|  9>                          ****END OF INPUT****

CARTESIAN COORDINATES (ANGSTROEM)
---------------------------------
  N     -0.612510   -1.091392   -0.278201
  H      0.070365   -1.526045   -0.885966
  C     -0.119102   -0.061500    0.622144
  C      1.321082   -0.350353    1.026578
  C     -0.271810    1.350155    0.021785
  H      1.704782    0.478589    1.616100
  H      1.349782   -1.252727    1.636938
  S      2.460863   -0.669419   -0.362623
  O      0.690024    2.058273   -0.211576
  H      2.399056    0.576563   -0.863686
  N     -1.548618    1.721134   -0.195862
  H     -1.719787    2.625014   -0.606549
  H     -2.316550    1.093232    0.012961
  C     -1.912179   -1.420669   -0.383091
  H     -2.094660   -2.256080   -1.075738
  O     -2.815189   -0.863977    0.216998
  H     -0.745523   -0.096202    1.518468

 Total Charge           Charge          ....    0
 Multiplicity           Mult            ....    1
 Number of Electrons    NEL             ....   78
 Basis Dimension        Dim             ....  602

ORBITAL ENERGIES
----------------

  NO   OCC          E(Eh)            E(eV)
   0   2.0000     -91.959799     -2502.3533
   1   2.0000     -20.548333      -559.1486
   2   2.0000     -20.531649      -558.6946
   3   2.0000     -15.613813      -424.8735
   4   2.0000     -15.583742      -424.0552
   5   2.0000     -11.372433      -309.4596
   6   2.0000     -11.361035      -309.1495
   7   2.0000     -11.305555      -307.6398
   8   2.0000     -11.279342      -306.9265
   9   2.0000      -8.961260      -243.8483
  10   2.0000      -6.642608      -180.7546
  11   2.0000      -6.641689      -180.7296
  12   2.0000      -6.640764      -180.7044
  13   2.0000      -1.411229       -38.4015
  14   2.0000      -1.395786       -37.9813
  15   2.0000      -1.268224       -34.5101
  16   2.0000      -1.216985       -33.1158
  17   2.0000      -1.087278       -29.5863
  18   2.0000      -0.985025       -26.8039
  19   2.0000      -0.871892       -23.7254
  20   2.0000      -0.856606       -23.3094
  21   2.0000      -0.794935       -21.6313
  22   2.0000      -0.755382       -20.5550
  23   2.0000      -0.739560       -20.1245
  24   2.0000      -0.689427       -18.7603
  25   2.0000      -0.676366       -18.4049
  26   2.0000      -0.634548       -17.2669
  27   2.0000      -0.622142       -16.9293
  28   2.0000      -0.590956       -16.0807
  29   2.0000      -0.581431       -15.8216
  30   2.0000      -0.576387       -15.6843
  31   2.0000      -0.562834       -15.3155
  32   2.0000      -0.524293       -14.2667
  33   2.0000      -0.469996       -12.7892
  34   2.0000      -0.463523       -12.6131
  35   2.0000      -0.451533       -12.2868
  36   2.0000      -0.419167       -11.4061
  37   2.0000      -0.407998       -11.1022
  38   2.0000      -0.370490       -10.0815
  39   0.0000       0.024763         0.6738
  40   0.0000       0.032629         0.8879
  41   0.0000       0.034181         0.9301
  42   0.0000       0.044038         1.1983
  43   0.0000       0.051410         1.3989

MULLIKEN ATOMIC CHARGES
-----------------------
   0 N :   -0.152924
   1 H :    0.169880
   2 C :    0.547240
   3 C :   -0.340419
   4 C :    0.546811
   5 H :    0.263156
   6 H :    0.281749
   7 S :   -0.511359
   8 O :   -0.879753
   9 H :    0.245733
  10 N :   -0.457582
  11 H :    0.128862
  12 H :    0.245704
  13 C :   -0.287595
  14 H :    0.626899
  15 O :   -0.767562
  16 H :    0.341160
Sum of atomic charges:   -0.0000000

LOEWDIN ATOMIC CHARGES
----------------------
   0 N :    0.522820
   1 H :   -0.349839
   2 C :   -0.175603
   3 C :   -0.075103
   4 C :   -0.660215
   5 H :   -0.216935
   6 H :   -0.220334
   7 S :    1.326727
   8 O :    0.448647
   9 H :   -0.587211
  10 N :    0.865925
  11 H :   -0.275775
  12 H :   -0.413512
  13 C :   -0.334111
  14 H :   -0.164800
  15 O :    0.455685
  16 H :   -0.146365

  Mayer bond orders larger than 0.100000
B(  0-N ,  1-H ) :   0.9944 B(  0-N ,  2-C ) :   0.7550 B(  0-N ,  4-C ) :   0.1223
B(  0-N , 13-C ) :   1.2825 B(  2-C ,  3-C ) :   0.9726 B(  2-C ,  4-C ) :   0.5087
B(  2-C ,  7-S ) :   0.1878 B(  2-C , 13-C ) :  -0.1201 B(  2-C , 16-H ) :   0.8889
B(  3-C ,  5-H ) :   0.9355 B(  3-C ,  6-H ) :   0.9500 B(  3-C ,  7-S ) :   0.8632
B(  4-C ,  8-O ) :   1.2814 B(  4-C , 10-N ) :   0.9369 B(  7-S ,  9-H ) :   0.9841
B( 10-N , 11-H ) :   1.0520 B( 10-N , 12-H ) :   0.9642 B( 13-C , 14-H ) :   0.5414
B( 13-C , 15-O ) :   1.6506

MP2 TOTAL ENERGY:     -814.240362297 Eh
FINAL SINGLE POINT ENERGY      -814.240362297154

DIPOLE MOMENT
-------------
                                X             Y             Z
Electronic contribution:      1.14986      -0.37654      -1.43905
Nuclear contribution   :     -1.45783      -0.31089       1.34550
                        -----------------------------------------
Total Dipole Moment    :     -0.30797      -0.68743      -0.09356
                        -----------------------------------------
Magnitude (a.u.)       :      0.75905
Magnitude (Debye)      :      1.92936

Rotational constants in cm-1:     0.066174     0.034097     0.024973
Rotational constants in MHz :  1983.860749  1022.205214   748.658324

                             ****ORCA TERMINATED NORMALLY****
TOTAL RUN TIME: 0 days 0 hours 3 minutes 53 seconds 301 msec
