                         Program Version 4.2.1 -  RELEASE  -
|  1> %pal
|  2>  nprocs 32
|  3> end
|  4> !RI-MP2 aug-cc-pVTZ aug-cc-pVTZ/C TightSCF
|  5> %maxcore 4500
|  6> *xyzfile 0 1  10_21P.xyz
|  7>
|  8>
|  9>                          ****END OF INPUT****

CARTESIAN COORDINATES (ANGSTROEM)
---------------------------------
  C     -0.123589   -0.325306   -1.155652
  C     -1.185874   -1.415089   -0.987064
  C      1.178888   -1.025940   -0.671098
  N      0.783926   -2.444767   -0.484854
  N     -0.413351   -2.643115   -0.674002
  C      2.043004   -0.498408    0.424771
  C      2.808690    0.644970    0.217538
  C      2.040232   -1.102381    1.677867
  C      3.551646    1.185983    1.254541
  H      2.826415    1.117429   -0.757296
  C      2.785883   -0.560676    2.714643
  H      1.462811   -2.003812    1.838207
  C      3.539445    0.585897    2.506347
  H      4.143755    2.076396    1.083240
  H      2.781580   -1.039324    3.686327
  H      4.122538    1.007366    3.316143
  C     -2.229607   -1.176632    0.057239
  C     -3.420322   -0.284644   -0.206399
  C     -2.286617   -1.726741    1.265032
  C     -4.019143   -0.088475    1.197972
  H     -4.115873   -0.797037   -0.882537
  H     -3.151321    0.660128   -0.682199
  C     -3.507119   -1.284898    2.026490
  H     -1.578705   -2.451086    1.647679
  H     -5.106568   -0.011810    1.188373
  H     -3.285513   -1.014761    3.061811
  C      1.607839   -0.852154   -2.137084
  C     -0.435606    1.074803   -0.737216
  C     -0.645052    2.059574   -1.696175
  C     -0.539818    1.400306    0.613590
  C     -0.973847    3.351912   -1.309713
  H     -0.546192    1.810631   -2.744344
  C     -0.867296    2.690990    0.995313
  H     -0.362741    0.646839    1.368389
  C     -1.089516    3.669881    0.035290
  H     -1.137579    4.111306   -2.064534
  H     -0.941558    2.934934    2.048061
  H     -1.344074    4.678830    0.336275
  O      0.395452   -0.375419   -2.535543
  O      2.577167   -1.025242   -2.787168
  H     -4.240034   -2.099101    2.066503
  H     -3.627466    0.838207    1.622328
  H     -1.667778   -1.582500   -1.956137

 Total Charge           Charge          ....    0
 Multiplicity           Mult            ....    1
 Number of Electrons    NEL             ....  174
 Basis Dimension        Dim             .... 1564

ORBITAL ENERGIES
----------------

  NO   OCC          E(Eh)            E(eV)
   0   2.0000     -20.616162      -560.9943
   1   2.0000     -20.567410      -559.6677
   2   2.0000     -15.645286      -425.7299
   3   2.0000     -15.643766      -425.6885
   4   2.0000     -11.395561      -310.0890
   5   2.0000     -11.334976      -308.4404
   6   2.0000     -11.309372      -307.7437
   7   2.0000     -11.292368      -307.2810
   8   2.0000     -11.260143      -306.4041
   9   2.0000     -11.259708      -306.3922
  10   2.0000     -11.248368      -306.0837
  11   2.0000     -11.248125      -306.0770
  12   2.0000     -11.248000      -306.0736
  13   2.0000     -11.247748      -306.0668
  14   2.0000     -11.247287      -306.0542
  15   2.0000     -11.247165      -306.0509
  16   2.0000     -11.246096      -306.0218
  17   2.0000     -11.245613      -306.0087
  18   2.0000     -11.245432      -306.0038
  19   2.0000     -11.244751      -305.9852
  20   2.0000     -11.244428      -305.9765
  21   2.0000     -11.234538      -305.7073
  22   2.0000     -11.232537      -305.6529
  23   2.0000     -11.232461      -305.6508
  24   2.0000     -11.228283      -305.5371
  25   2.0000      -1.489043       -40.5189
  26   2.0000      -1.409687       -38.3595
  27   2.0000      -1.390525       -37.8381
  28   2.0000      -1.181866       -32.1602
  29   2.0000      -1.176988       -32.0275
  30   2.0000      -1.158589       -31.5268
  31   2.0000      -1.104573       -30.0569
  32   2.0000      -1.091590       -29.7037
  33   2.0000      -1.039564       -28.2880
  34   2.0000      -1.031716       -28.0744
  35   2.0000      -1.031494       -28.0684
  36   2.0000      -1.009560       -27.4715
  37   2.0000      -0.975128       -26.5346
  38   2.0000      -0.963193       -26.2098
  39   2.0000      -0.903405       -24.5829
  40   2.0000      -0.868137       -23.6232
  41   2.0000      -0.847749       -23.0684
  42   2.0000      -0.844555       -22.9815
  43   2.0000      -0.830746       -22.6058
  44   2.0000      -0.811787       -22.0898
  45   2.0000      -0.802387       -21.8341
  46   2.0000      -0.756599       -20.5881
  47   2.0000      -0.749185       -20.3864
  48   2.0000      -0.731353       -19.9011
  49   2.0000      -0.715871       -19.4798
  50   2.0000      -0.706675       -19.2296
  51   2.0000      -0.693149       -18.8615
  52   2.0000      -0.681565       -18.5463
  53   2.0000      -0.662549       -18.0289
  54   2.0000      -0.658897       -17.9295
  55   2.0000      -0.647179       -17.6106
  56   2.0000      -0.642705       -17.4889
  57   2.0000      -0.639222       -17.3941
  58   2.0000      -0.634852       -17.2752
  59   2.0000      -0.610821       -16.6213
  60   2.0000      -0.607553       -16.5324
  61   2.0000      -0.601215       -16.3599
  62   2.0000      -0.599032       -16.3005
  63   2.0000      -0.589126       -16.0309
  64   2.0000      -0.578254       -15.7351
  65   2.0000      -0.560805       -15.2603
  66   2.0000      -0.556075       -15.1316
  67   2.0000      -0.541704       -14.7405
  68   2.0000      -0.526984       -14.3400
  69   2.0000      -0.522489       -14.2177
  70   2.0000      -0.516812       -14.0632
  71   2.0000      -0.514667       -14.0048
  72   2.0000      -0.509675       -13.8690
  73   2.0000      -0.508828       -13.8459
  74   2.0000      -0.498532       -13.5657
  75   2.0000      -0.497560       -13.5393
  76   2.0000      -0.492286       -13.3958
  77   2.0000      -0.487606       -13.2684
  78   2.0000      -0.486332       -13.2338
  79   2.0000      -0.474189       -12.9033
  80   2.0000      -0.448352       -12.2003
  81   2.0000      -0.405910       -11.0454
  82   2.0000      -0.362666        -9.8686
  83   2.0000      -0.353004        -9.6057
  84   2.0000      -0.352217        -9.5843
  85   2.0000      -0.342747        -9.3266
  86   2.0000      -0.339831        -9.2473
  87   0.0000       0.018576         0.5055
  88   0.0000       0.024784         0.6744
  89   0.0000       0.026807         0.7295
  90   0.0000       0.031302         0.8518
  91   0.0000       0.035420         0.9638

MULLIKEN ATOMIC CHARGES
-----------------------
   0 C :    2.752446
   1 C :    0.047589
   2 C :    1.347258
   3 N :   -0.552790
   4 N :   -0.876016
   5 C :    0.834552
   6 C :   -0.126129
   7 C :   -0.731093
   8 C :   -1.009698
   9 H :    0.219225
  10 C :   -0.715079
  11 H :   -0.019762
  12 C :   -0.050561
  13 H :    0.382958
  14 H :    0.439984
  15 H :    0.601836
  16 C :    0.946683
  17 C :   -0.927947
  18 C :   -0.951860
  19 C :   -0.614536
  20 H :    0.292830
  21 H :    0.366604
  22 C :   -0.629918
  23 H :    0.512937
  24 H :    0.348691
  25 H :    0.321144
  26 C :    0.822160
  27 C :    0.146959
  28 C :   -0.891475
  29 C :   -0.212340
  30 C :   -0.577580
  31 H :   -0.077738
  32 C :   -1.195118
  33 H :    0.108935
  34 C :   -0.120936
  35 H :    0.557371
  36 H :    0.375102
  37 H :    0.660154
  38 O :   -1.164314
  39 O :   -1.171668
  40 H :    0.269031
  41 H :    0.276594
  42 H :   -0.014484
Sum of atomic charges:    0.0000000

LOEWDIN ATOMIC CHARGES
----------------------
   0 C :   -0.473310
   1 C :   -0.105017
   2 C :   -0.399219
   3 N :    0.273891
   4 N :    0.278461
   5 C :   -0.111636
   6 C :    0.223260
   7 C :    0.215799
   8 C :    0.219289
   9 H :   -0.164186
  10 C :    0.212744
  11 H :   -0.186548
  12 C :    0.205819
  13 H :   -0.175937
  14 H :   -0.178768
  15 H :   -0.178802
  16 C :   -0.091253
  17 C :    0.305458
  18 C :    0.267142
  19 C :    0.314063
  20 H :   -0.130078
  21 H :   -0.155431
  22 C :    0.293811
  23 H :   -0.166100
  24 H :   -0.142076
  25 H :   -0.149729
  26 C :   -0.757225
  27 C :   -0.106506
  28 C :    0.227147
  29 C :    0.205273
  30 C :    0.212582
  31 H :   -0.183809
  32 C :    0.219953
  33 H :   -0.170682
  34 C :    0.206561
  35 H :   -0.177987
  36 H :   -0.173131
  37 H :   -0.178484
  38 O :    0.624366
  39 O :    0.471106
  40 H :   -0.145106
  41 H :   -0.148858
  42 H :   -0.126846

  Mayer bond orders larger than 0.100000
B(  0-C ,  1-C ) :   1.2645 B(  0-C ,  2-C ) :   0.6648 B(  0-C ,  3-N ) :   0.2685
B(  0-C ,  5-C ) :   0.1589 B(  0-C , 16-C ) :   0.1580 B(  0-C , 17-C ) :  -0.1012
B(  0-C , 26-C ) :  -0.5850 B(  0-C , 27-C ) :  -0.2165 B(  0-C , 28-C ) :   0.4062
B(  0-C , 29-C ) :   0.1622 B(  0-C , 31-H ) :  -0.5477 B(  0-C , 32-C ) :  -0.3528
B(  0-C , 33-H ) :  -0.3722 B(  0-C , 38-O ) :  -1.5895 B(  0-C , 39-O ) :   0.5481
B(  0-C , 42-H ) :  -0.2362 B(  1-C ,  4-N ) :   0.6454 B(  1-C , 16-C ) :   0.9263
B(  1-C , 18-C ) :   0.1889 B(  1-C , 22-C ) :  -0.1034 B(  1-C , 27-C ) :  -0.1396
B(  1-C , 38-O ) :   0.4310 B(  1-C , 42-H ) :   1.1265 B(  2-C ,  4-N ) :  -0.2404
B(  2-C ,  5-C ) :   0.1516 B(  2-C ,  6-C ) :  -0.3460 B(  2-C ,  7-C ) :   0.2445
B(  2-C ,  8-C ) :   0.1020 B(  2-C , 10-C ) :   0.1130 B(  2-C , 11-H ) :  -0.1602
B(  2-C , 18-C ) :  -0.1424 B(  2-C , 26-C ) :   1.2767 B(  2-C , 27-C ) :  -0.1175
B(  2-C , 32-C ) :   0.2315 B(  3-N ,  4-N ) :   0.2748 B(  4-N ,  7-C ) :   0.1114
B(  4-N , 18-C ) :   0.1218 B(  4-N , 33-H ) :   0.1019 B(  5-C ,  6-C ) :   1.1694
B(  5-C ,  7-C ) :   0.3214 B(  5-C ,  8-C ) :  -0.1454 B(  5-C , 10-C ) :   0.2208
B(  5-C , 11-H ) :  -0.1759 B(  5-C , 27-C ) :  -0.1390 B(  5-C , 32-C ) :   0.1258
B(  5-C , 33-H ) :  -0.1539 B(  5-C , 39-O ) :   0.1926 B(  6-C ,  7-C ) :  -0.4844
B(  6-C ,  8-C ) :   1.2108 B(  6-C ,  9-H ) :   1.0905 B(  6-C , 27-C ) :   0.1390
B(  6-C , 29-C ) :   0.1224 B(  7-C ,  8-C ) :   0.1093 B(  7-C , 10-C ) :   1.2412
B(  7-C , 11-H ) :   1.6451 B(  7-C , 32-C ) :  -0.1200 B(  8-C , 10-C ) :   0.1436
B(  8-C , 12-C ) :   1.1491 B(  8-C , 13-H ) :   0.8796 B(  8-C , 15-H ) :  -0.1091
B(  9-H , 11-H ) :   0.1303 B(  9-H , 27-C ) :  -0.1061 B( 10-C , 11-H ) :  -0.1247
B( 10-C , 12-C ) :   1.1186 B( 10-C , 14-H ) :   0.8747 B( 10-C , 15-H ) :  -0.1576
B( 10-C , 32-C ) :   0.1219 B( 12-C , 15-H ) :   0.5702 B( 16-C , 17-C ) :   0.5835
B( 16-C , 18-C ) :   0.9643 B( 16-C , 19-C ) :  -0.1595 B( 16-C , 22-C ) :  -0.1859
B( 16-C , 29-C ) :   0.1303 B( 17-C , 18-C ) :   0.2557 B( 17-C , 19-C ) :   1.0966
B( 17-C , 20-H ) :   0.8853 B( 17-C , 21-H ) :   0.8843 B( 17-C , 22-C ) :   0.2561
B( 17-C , 27-C ) :   0.1123 B( 18-C , 19-C ) :   0.1143 B( 18-C , 22-C ) :   0.8829
B( 18-C , 23-H ) :   0.7470 B( 19-C , 22-C ) :   1.0222 B( 19-C , 24-H ) :   0.8597
B( 19-C , 41-H ) :   1.0477 B( 22-C , 25-H ) :   0.9187 B( 22-C , 40-H ) :   0.9782
B( 26-C , 38-O ) :   1.6343 B( 26-C , 39-O ) :   0.3327 B( 27-C , 28-C ) :   0.4756
B( 27-C , 29-C ) :   1.0754 B( 27-C , 30-C ) :   0.4230 B( 27-C , 33-H ) :   1.0049
B( 27-C , 35-H ) :  -0.1484 B( 27-C , 36-H ) :  -0.1078 B( 27-C , 37-H ) :   0.1497
B( 27-C , 38-O ) :   0.3820 B( 27-C , 42-H ) :   0.1068 B( 28-C , 29-C ) :  -0.4851
B( 28-C , 30-C ) :   0.7834 B( 28-C , 31-H ) :   1.6912 B( 28-C , 32-C ) :   0.2674
B( 28-C , 33-H ) :  -0.2547 B( 29-C , 31-H ) :   0.1397 B( 29-C , 32-C ) :   1.6909
B( 29-C , 33-H ) :   0.8588 B( 29-C , 34-C ) :   0.2963 B( 29-C , 35-H ) :   0.1889
B( 29-C , 36-H ) :   0.1294 B( 29-C , 37-H ) :  -0.2208 B( 30-C , 31-H ) :  -0.1680
B( 30-C , 34-C ) :   1.1195 B( 30-C , 35-H ) :   0.5654 B( 31-H , 33-H ) :   0.2279
B( 31-H , 38-O ) :   0.1168 B( 32-C , 34-C ) :   1.3401 B( 32-C , 36-H ) :   0.9451
B( 32-C , 37-H ) :  -0.1509 B( 33-H , 34-C ) :  -0.2012 B( 34-C , 37-H ) :   0.4962
B( 38-O , 39-O ) :  -0.1875 B( 38-O , 42-H ) :   0.1762

MP2 TOTAL ENERGY:    -1068.892285989 Eh
FINAL SINGLE POINT ENERGY     -1068.892285988629

DIPOLE MOMENT
-------------
                                X             Y             Z
Electronic contribution:     14.25437      -7.25202     -12.33524
Nuclear contribution   :    -15.54788       8.73441      13.93200
                        -----------------------------------------
Total Dipole Moment    :     -1.29351       1.48239       1.59676
                        -----------------------------------------
Magnitude (a.u.)       :      2.53383
Magnitude (Debye)      :      6.44049

Rotational constants in cm-1:     0.009913     0.007135     0.006736
Rotational constants in MHz :   297.178230   213.904102   201.954818

                             ****ORCA TERMINATED NORMALLY****
TOTAL RUN TIME: 0 days 1 hours 44 minutes 57 seconds 191 msec
