                         Program Version 4.2.1 -  RELEASE  -
|  1> %pal
|  2>  nprocs 32
|  3> end
|  4> !RI-MP2 aug-cc-pVTZ aug-cc-pVTZ/C TightSCF
|  5> %maxcore 4500
|  6> *xyzfile 0 1  07_3P.xyz
|  7>
|  8>
|  9>                          ****END OF INPUT****

CARTESIAN COORDINATES (ANGSTROEM)
---------------------------------
  C     -0.323223    1.302025   -0.000458
  C      0.807391    0.482830   -0.003126
  C      0.529156   -0.884221   -0.000140
  N     -0.668802   -1.458721    0.001520
  C     -1.657274   -0.568761   -0.005247
  N     -1.532046    0.775135   -0.000965
  N      2.172353    0.709283   -0.001710
  C      2.696532   -0.474878    0.001600
  N      1.755418   -1.488198    0.003417
  N     -2.931504   -1.045801   -0.043046
  O     -0.212729    2.628443    0.004550
  H      3.754651   -0.689575    0.002799
  H      1.922629   -2.481303    0.002419
  H     -3.679499   -0.402611    0.148221
  H     -3.068887   -2.024759    0.139200
  H     -1.110480    2.986860    0.000685

 Total Charge           Charge          ....    0
 Multiplicity           Mult            ....    1
 Number of Electrons    NEL             ....   78
 Basis Dimension        Dim             ....  621

ORBITAL ENERGIES
----------------

  NO   OCC          E(Eh)            E(eV)
   0   2.0000     -20.607731      -560.7649
   1   2.0000     -15.625862      -425.2013
   2   2.0000     -15.576318      -423.8532
   3   2.0000     -15.562334      -423.4726
   4   2.0000     -15.552853      -423.2146
   5   2.0000     -15.551214      -423.1700
   6   2.0000     -11.361608      -309.1651
   7   2.0000     -11.357684      -309.0583
   8   2.0000     -11.320789      -308.0543
   9   2.0000     -11.314234      -307.8759
  10   2.0000     -11.244804      -305.9867
  11   2.0000      -1.443873       -39.2898
  12   2.0000      -1.367009       -37.1982
  13   2.0000      -1.317372       -35.8475
  14   2.0000      -1.206595       -32.8331
  15   2.0000      -1.199669       -32.6446
  16   2.0000      -1.167681       -31.7742
  17   2.0000      -1.030747       -28.0480
  18   2.0000      -0.907996       -24.7078
  19   2.0000      -0.871759       -23.7218
  20   2.0000      -0.841991       -22.9117
  21   2.0000      -0.791805       -21.5461
  22   2.0000      -0.777216       -21.1491
  23   2.0000      -0.710310       -19.3285
  24   2.0000      -0.685361       -18.6496
  25   2.0000      -0.655355       -17.8331
  26   2.0000      -0.652541       -17.7566
  27   2.0000      -0.636145       -17.3104
  28   2.0000      -0.612926       -16.6786
  29   2.0000      -0.600438       -16.3388
  30   2.0000      -0.584111       -15.8945
  31   2.0000      -0.563556       -15.3352
  32   2.0000      -0.509951       -13.8765
  33   2.0000      -0.457253       -12.4425
  34   2.0000      -0.445496       -12.1226
  35   2.0000      -0.437776       -11.9125
  36   2.0000      -0.412552       -11.2261
  37   2.0000      -0.386983       -10.5304
  38   2.0000      -0.301539        -8.2053
  39   0.0000       0.022461         0.6112
  40   0.0000       0.028067         0.7637
  41   0.0000       0.037293         1.0148
  42   0.0000       0.044648         1.2149
  43   0.0000       0.053854         1.4654

MULLIKEN ATOMIC CHARGES
-----------------------
   0 C :    0.239021
   1 C :    1.079933
   2 C :    0.636965
   3 N :   -0.424876
   4 C :    0.023265
   5 N :   -0.321717
   6 N :   -0.682623
   7 C :   -0.710446
   8 N :    0.024341
   9 N :   -0.464402
  10 O :   -0.588722
  11 H :    0.651170
  12 H :    0.066613
  13 H :    0.113305
  14 H :    0.103381
  15 H :    0.254793
Sum of atomic charges:    0.0000000

LOEWDIN ATOMIC CHARGES
----------------------
   0 C :   -0.557932
   1 C :   -0.315808
   2 C :   -0.454281
   3 N :    0.422306
   4 C :   -0.633703
   5 N :    0.414407
   6 N :    0.388941
   7 C :   -0.055330
   8 N :    0.571026
   9 N :    0.844546
  10 O :    0.863855
  11 H :   -0.172577
  12 H :   -0.240140
  13 H :   -0.303523
  14 H :   -0.300959
  15 H :   -0.470827

  Mayer bond orders larger than 0.100000
B(  0-C ,  2-C ) :   0.6220 B(  0-C ,  3-N ) :   0.1263 B(  0-C ,  4-C ) :  -0.3632
B(  0-C ,  5-N ) :   0.8083 B(  0-C ,  6-N ) :  -0.1940 B(  0-C , 10-O ) :   0.6592
B(  1-C ,  2-C ) :   1.5331 B(  1-C ,  6-N ) :   0.2002 B(  1-C ,  7-C ) :  -0.1632
B(  1-C , 10-O ) :   0.1502 B(  2-C ,  3-N ) :   0.7896 B(  2-C ,  4-C ) :  -0.5621
B(  2-C ,  7-C ) :  -0.5856 B(  2-C ,  8-N ) :   0.7528 B(  3-N ,  4-C ) :   1.1779
B(  3-N ,  8-N ) :  -0.2343 B(  3-N ,  9-N ) :  -0.2711 B(  4-C ,  5-N ) :   1.1854
B(  4-C ,  9-N ) :   1.0388 B(  5-N ,  9-N ) :  -0.2290 B(  5-N , 10-O ) :  -0.1111
B(  6-N ,  7-C ) :   1.9132 B(  7-C ,  8-N ) :   1.1698 B(  7-C , 11-H ) :   0.4718
B(  8-N , 12-H ) :   1.1600 B(  9-N , 13-H ) :   1.0835 B(  9-N , 14-H ) :   1.0966
B( 10-O , 15-H ) :   0.9527

MP2 TOTAL ENERGY:     -541.626640337 Eh
FINAL SINGLE POINT ENERGY      -541.626640336862

DIPOLE MOMENT
-------------
                                X             Y             Z
Electronic contribution:      1.76286       1.36549      -0.06372
Nuclear contribution   :     -2.12472      -2.50533       0.28416
                        -----------------------------------------
Total Dipole Moment    :     -0.36186      -1.13984       0.22044
                        -----------------------------------------
Magnitude (a.u.)       :      1.21605
Magnitude (Debye)      :      3.09095

Rotational constants in cm-1:     0.064530     0.037910     0.023885
Rotational constants in MHz :  1934.557403  1136.511628   716.055524

                             ****ORCA TERMINATED NORMALLY****
TOTAL RUN TIME: 0 days 0 hours 4 minutes 0 seconds 198 msec
