                         Program Version 4.2.1 -  RELEASE  -
|  1> %pal
|  2>  nprocs 32
|  3> end
|  4> !RI-MP2 aug-cc-pVTZ aug-cc-pVTZ/C TightSCF
|  5> %maxcore 4500
|  6> *xyzfile 0 1  04_75R1.xyz
|  7>
|  8>
|  9>                          ****END OF INPUT****

CARTESIAN COORDINATES (ANGSTROEM)
---------------------------------
  C     -0.873220    0.913191    0.000005
  C      0.482043    1.237997   -0.000002
  C      1.416072    0.210744   -0.000010
  C      1.024078   -1.129445   -0.000012
  C     -0.329804   -1.425434   -0.000003
  C     -1.281751   -0.413475    0.000006
  H     -1.594607    1.718617    0.000011
  H     -0.668662   -2.454126   -0.000003
  O     -2.585279   -0.819203    0.000013
  O      2.739271    0.579498   -0.000021
  C      2.057732   -2.222277   -0.000025
  H      1.583507   -3.202786   -0.000017
  H      2.700918   -2.173124   -0.885198
  H      2.700943   -2.173124    0.885129
  C      0.945798    2.665702   -0.000001
  H      1.563445    2.876357   -0.875930
  H      0.097702    3.350823   -0.000003
  H      1.563439    2.876357    0.875933
  C     -3.588290    0.171629    0.000039
  H     -4.538076   -0.358912    0.000050
  H     -3.528124    0.802849   -0.892600
  H     -3.528093    0.802834    0.892685
  H      3.299716   -0.199912    0.000019

 Total Charge           Charge          ....    0
 Multiplicity           Mult            ....    1
 Number of Electrons    NEL             ....   82
 Basis Dimension        Dim             ....  782

ORBITAL ENERGIES
----------------

  NO   OCC          E(Eh)            E(eV)
   0   2.0000     -20.579849      -560.0062
   1   2.0000     -20.576560      -559.9167
   2   2.0000     -11.285691      -307.0993
   3   2.0000     -11.278658      -306.9079
   4   2.0000     -11.278588      -306.9060
   5   2.0000     -11.240148      -305.8600
   6   2.0000     -11.235202      -305.7254
   7   2.0000     -11.234223      -305.6987
   8   2.0000     -11.222159      -305.3705
   9   2.0000     -11.219776      -305.3056
  10   2.0000     -11.215864      -305.1992
  11   2.0000      -1.403527       -38.1919
  12   2.0000      -1.395173       -37.9646
  13   2.0000      -1.149605       -31.2823
  14   2.0000      -1.064478       -28.9659
  15   2.0000      -1.023709       -27.8565
  16   2.0000      -0.951062       -25.8797
  17   2.0000      -0.944109       -25.6905
  18   2.0000      -0.916934       -24.9510
  19   2.0000      -0.807480       -21.9727
  20   2.0000      -0.795983       -21.6598
  21   2.0000      -0.729071       -19.8390
  22   2.0000      -0.695770       -18.9329
  23   2.0000      -0.679063       -18.4782
  24   2.0000      -0.650899       -17.7119
  25   2.0000      -0.613295       -16.6886
  26   2.0000      -0.608082       -16.5468
  27   2.0000      -0.585994       -15.9457
  28   2.0000      -0.584069       -15.8933
  29   2.0000      -0.572151       -15.5690
  30   2.0000      -0.569648       -15.5009
  31   2.0000      -0.553847       -15.0709
  32   2.0000      -0.542880       -14.7725
  33   2.0000      -0.531320       -14.4579
  34   2.0000      -0.520435       -14.1617
  35   2.0000      -0.511491       -13.9184
  36   2.0000      -0.503059       -13.6889
  37   2.0000      -0.471713       -12.8360
  38   2.0000      -0.439907       -11.9705
  39   2.0000      -0.328036        -8.9263
  40   2.0000      -0.286290        -7.7903
  41   0.0000       0.027210         0.7404
  42   0.0000       0.029253         0.7960
  43   0.0000       0.034124         0.9286
  44   0.0000       0.041666         1.1338
  45   0.0000       0.044681         1.2158

MULLIKEN ATOMIC CHARGES
-----------------------
   0 C :   -0.442862
   1 C :    0.742095
   2 C :    0.177106
   3 C :    0.783982
   4 C :   -0.485558
   5 C :    1.018359
   6 H :   -0.151183
   7 H :    0.051702
   8 O :   -0.739787
   9 O :   -0.962683
  10 C :   -1.009759
  11 H :    0.240368
  12 H :    0.262408
  13 H :    0.262405
  14 C :   -0.919084
  15 H :    0.258768
  16 H :    0.267689
  17 H :    0.258766
  18 C :   -0.846882
  19 H :    0.355092
  20 H :    0.351983
  21 H :    0.351985
  22 H :    0.175091
Sum of atomic charges:   -0.0000000

LOEWDIN ATOMIC CHARGES
----------------------
   0 C :    0.219138
   1 C :   -0.115573
   2 C :   -0.335263
   3 C :   -0.105607
   4 C :    0.221380
   5 C :   -0.381321
   6 H :   -0.204709
   7 H :   -0.176389
   8 O :    0.571218
   9 O :    0.864077
  10 C :    0.580813
  11 H :   -0.172817
  12 H :   -0.159817
  13 H :   -0.159819
  14 C :    0.579520
  15 H :   -0.165508
  16 H :   -0.178553
  17 H :   -0.165507
  18 C :    0.328903
  19 H :   -0.181087
  20 H :   -0.173356
  21 H :   -0.173357
  22 H :   -0.516363

  Mayer bond orders larger than 0.100000
B(  0-C ,  1-C ) :   0.9563 B(  0-C ,  2-C ) :  -0.4378 B(  0-C ,  3-C ) :   0.2361
B(  0-C ,  4-C ) :  -0.1617 B(  0-C ,  5-C ) :   0.8224 B(  0-C ,  6-H ) :   1.9548
B(  0-C ,  8-O ) :  -0.4747 B(  0-C , 18-C ) :  -0.1373 B(  1-C ,  2-C ) :   1.3851
B(  1-C ,  5-C ) :   0.2648 B(  1-C ,  6-H ) :  -0.2778 B(  1-C ,  9-O ) :   0.1012
B(  1-C , 14-C ) :   0.3322 B(  1-C , 15-H ) :  -0.1191 B(  1-C , 17-H ) :  -0.1191
B(  2-C ,  3-C ) :   1.3079 B(  2-C ,  5-C ) :   0.2180 B(  2-C ,  7-H ) :   0.1349
B(  2-C ,  9-O ) :   0.3953 B(  2-C , 10-C ) :   0.4809 B(  2-C , 14-C ) :   0.2120
B(  3-C ,  4-C ) :   0.7669 B(  3-C ,  5-C ) :   0.3331 B(  3-C ,  7-H ) :  -0.2345
B(  3-C ,  9-O ) :  -0.2360 B(  3-C , 10-C ) :   0.3412 B(  3-C , 12-H ) :  -0.1218
B(  3-C , 13-H ) :  -0.1218 B(  4-C ,  5-C ) :   0.7217 B(  4-C ,  7-H ) :   1.5200
B(  4-C ,  8-O ) :   0.1501 B(  4-C , 10-C ) :  -0.1299 B(  5-C ,  6-H ) :  -0.1542
B(  5-C ,  7-H ) :  -0.1624 B(  5-C ,  8-O ) :   0.4782 B(  6-H , 18-C ) :  -0.1141
B(  8-O , 18-C ) :   0.9555 B(  9-O , 22-H ) :   1.0094 B( 10-C , 11-H ) :   1.0704
B( 10-C , 12-H ) :   1.0065 B( 10-C , 13-H ) :   1.0065 B( 14-C , 15-H ) :   1.0239
B( 14-C , 16-H ) :   0.9896 B( 14-C , 17-H ) :   1.0239 B( 18-C , 19-H ) :   0.9378
B( 18-C , 20-H ) :   0.8978 B( 18-C , 21-H ) :   0.8978

MP2 TOTAL ENERGY:     -499.675384987 Eh
FINAL SINGLE POINT ENERGY      -499.675384987447

DIPOLE MOMENT
-------------
                                X             Y             Z
Electronic contribution:      0.34059      -1.98452      -0.00005
Nuclear contribution   :     -0.34957       1.88421       0.00008
                        -----------------------------------------
Total Dipole Moment    :     -0.00898      -0.10031       0.00003
                        -----------------------------------------
Magnitude (a.u.)       :      0.10071
Magnitude (Debye)      :      0.25600

Rotational constants in cm-1:     0.057264     0.028086     0.019045
Rotational constants in MHz :  1716.719483   841.993077   570.960323

                             ****ORCA TERMINATED NORMALLY****
TOTAL RUN TIME: 0 days 0 hours 8 minutes 1 seconds 36 msec
