                         Program Version 4.2.1 -  RELEASE  -
|  1> %pal
|  2>  nprocs 32
|  3> end
|  4> !RI-MP2 aug-cc-pVTZ aug-cc-pVTZ/C TightSCF
|  5> %maxcore 4500
|  6> *xyzfile -1 1  07_4TS.xyz
|  7>
|  8>
|  9>                          ****END OF INPUT****

CARTESIAN COORDINATES (ANGSTROEM)
---------------------------------
  C      1.336778   -1.204494   -0.531511
  C      2.349415   -0.330239   -0.004452
  O      3.052841   -0.573518    0.981671
  C      2.456876    1.041883   -0.664148
  C     -1.118565   -0.190813    0.495230
  C     -2.237560   -0.973209    0.107368
  C     -3.130183   -1.702292   -0.271413
  O     -1.035912    1.081763   -0.160735
  C     -2.057856    1.974013    0.189704
  H      1.116842   -1.071025   -1.591201
  H      1.449400   -2.246772   -0.236188
  H      0.169257   -0.795977    0.019881
  H      3.109061    1.682009   -0.069234
  H      1.463491    1.487882   -0.751283
  H      2.872083    0.943601   -1.672381
  H     -3.891188   -2.356756   -0.614296
  H     -1.030037   -0.070324    1.581002
  H     -1.895666    2.905006   -0.362201
  H     -2.043891    2.193596    1.268449
  H     -3.048206    1.573704   -0.064705

 Total Charge           Charge          ....   -1
 Multiplicity           Mult            ....    1
 Number of Electrons    NEL             ....   70
 Basis Dimension        Dim             ....  667

ORBITAL ENERGIES
----------------

  NO   OCC          E(Eh)            E(eV)
   0   2.0000     -20.408019      -555.3304
   1   2.0000     -20.356480      -553.9280
   2   2.0000     -11.153621      -303.5054
   3   2.0000     -11.136653      -303.0437
   4   2.0000     -11.084865      -301.6345
   5   2.0000     -11.077238      -301.4270
   6   2.0000     -11.076402      -301.4042
   7   2.0000     -11.059671      -300.9490
   8   2.0000     -11.019999      -299.8694
   9   2.0000      -1.218310       -33.1519
  10   2.0000      -1.192417       -32.4473
  11   2.0000      -0.885476       -24.0950
  12   2.0000      -0.868370       -23.6296
  13   2.0000      -0.807322       -21.9684
  14   2.0000      -0.780323       -21.2337
  15   2.0000      -0.725316       -19.7368
  16   2.0000      -0.569256       -15.4902
  17   2.0000      -0.560946       -15.2641
  18   2.0000      -0.515636       -14.0312
  19   2.0000      -0.499261       -13.5856
  20   2.0000      -0.490563       -13.3489
  21   2.0000      -0.464464       -12.6387
  22   2.0000      -0.460643       -12.5347
  23   2.0000      -0.443454       -12.0670
  24   2.0000      -0.424871       -11.5613
  25   2.0000      -0.391913       -10.6645
  26   2.0000      -0.373511       -10.1637
  27   2.0000      -0.354692        -9.6516
  28   2.0000      -0.348726        -9.4893
  29   2.0000      -0.314413        -8.5556
  30   2.0000      -0.285353        -7.7649
  31   2.0000      -0.250991        -6.8298
  32   2.0000      -0.238224        -6.4824
  33   2.0000      -0.234482        -6.3806
  34   2.0000      -0.089876        -2.4457
  35   0.0000       0.104406         2.8410
  36   0.0000       0.111376         3.0307
  37   0.0000       0.120862         3.2888
  38   0.0000       0.125193         3.4067
  39   0.0000       0.129054         3.5117

MULLIKEN ATOMIC CHARGES
-----------------------
   0 C :   -0.768211
   1 C :    0.611235
   2 O :   -1.008067
   3 C :   -0.859745
   4 C :   -0.303069
   5 C :    1.096830
   6 C :   -1.940745
   7 O :   -0.499609
   8 C :   -0.925574
   9 H :    0.251117
  10 H :    0.248976
  11 H :    0.441345
  12 H :    0.229882
  13 H :    0.483215
  14 H :    0.267638
  15 H :    0.396054
  16 H :    0.246330
  17 H :    0.295921
  18 H :    0.344110
  19 H :    0.392369
Sum of atomic charges:   -1.0000000

LOEWDIN ATOMIC CHARGES
----------------------
   0 C :    0.447382
   1 C :   -0.636058
   2 O :    0.365572
   3 C :    0.546596
   4 C :   -0.178364
   5 C :   -0.094263
   6 C :    0.324670
   7 O :    0.491400
   8 C :    0.250989
   9 H :   -0.209005
  10 H :   -0.210138
  11 H :   -0.331968
  12 H :   -0.201891
  13 H :   -0.203257
  14 H :   -0.186541
  15 H :   -0.361037
  16 H :   -0.222693
  17 H :   -0.201811
  18 H :   -0.189470
  19 H :   -0.200114

  Mayer bond orders larger than 0.100000
B(  0-C ,  1-C ) :   0.9729 B(  0-C ,  9-H ) :   0.9854 B(  0-C , 10-H ) :   1.0314
B(  0-C , 11-H ) :   0.4143 B(  1-C ,  2-O ) :   1.0453 B(  1-C ,  3-C ) :   0.8196
B(  1-C , 11-H ) :   0.2162 B(  3-C , 12-H ) :   1.0149 B(  3-C , 13-H ) :   0.7565
B(  3-C , 14-H ) :   0.9729 B(  4-C ,  5-C ) :   1.2073 B(  4-C ,  6-C ) :  -0.1178
B(  4-C ,  7-O ) :   0.8317 B(  4-C , 11-H ) :   0.2280 B(  4-C , 16-H ) :   0.9609
B(  5-C , 15-H ) :  -0.2069 B(  6-C , 15-H ) :   1.1634 B(  7-O ,  8-C ) :   1.0256
B(  8-C , 17-H ) :   0.9684 B(  8-C , 18-H ) :   0.8819 B(  8-C , 19-H ) :   0.8336

MP2 TOTAL ENERGY:     -422.902175538 Eh
FINAL SINGLE POINT ENERGY      -422.902175537667

DIPOLE MOMENT
-------------
                                X             Y             Z
Electronic contribution:      0.82307      -3.10138       1.84058
Nuclear contribution   :     -1.72941       4.33403      -2.52648
                        -----------------------------------------
Total Dipole Moment    :     -0.90634       1.23265      -0.68590
                        -----------------------------------------
Magnitude (a.u.)       :      1.67670
Magnitude (Debye)      :      4.26184

Rotational constants in cm-1:     0.075677     0.025278     0.020788
Rotational constants in MHz :  2268.733517   757.825733   623.220199

                             ****ORCA TERMINATED NORMALLY****
TOTAL RUN TIME: 0 days 0 hours 4 minutes 20 seconds 283 msec
