                         Program Version 4.2.1 -  RELEASE  -
|  1> %pal
|  2>  nprocs 32
|  3> end
|  4> !RI-MP2 aug-cc-pVTZ aug-cc-pVTZ/C TightSCF
|  5> %maxcore 4500
|  6> *xyzfile 0 2  04_28P.xyz
|  7>
|  8>
|  9>                          ****END OF INPUT****

CARTESIAN COORDINATES (ANGSTROEM)
---------------------------------
  C      0.262198   -1.907548    0.576790
  H      0.271418   -2.610818   -0.261651
  H     -0.108039   -2.479850    1.438634
  C      1.701787   -1.456627    0.871813
  H      1.691184   -0.654355    1.614594
  C      2.032275    0.209945   -1.097733
  H      2.671658    0.379787   -1.965432
  H      2.223966   -2.293418    1.344053
  H      1.015354    0.092513   -1.465960
  C      2.512615   -1.031244   -0.352149
  H      3.549107   -0.870058   -0.043778
  H      2.524879   -1.861810   -1.068751
  C     -0.691771   -0.802544    0.262793
  C     -1.923692    1.476548    0.214450
  C     -2.746329    0.579656   -0.696324
  H     -2.550668    2.197777    0.738040
  H     -1.148979    2.005454   -0.341843
  H     -3.646739    0.232452   -0.190349
  H     -3.025905    1.094421   -1.615323
  S     -1.130254    0.402646    1.452016
  S     -1.733789   -0.872491   -1.144849
  S      2.141686    1.774465   -0.158766
  H      1.207974    1.484867    0.765513

 Total Charge           Charge          ....    0
 Multiplicity           Mult            ....    2
 Number of Electrons    NEL             ....  103
 Basis Dimension        Dim             ....  771

ORBITAL ENERGIES
----------------
                 SPIN UP ORBITALS
  NO   OCC          E(Eh)            E(eV)
   0   1.0000     -91.968578     -2502.5922
   1   1.0000     -91.968017     -2502.5770
   2   1.0000     -91.939985     -2501.8142
   3   1.0000     -11.282990      -307.0258
   4   1.0000     -11.277326      -306.8716
   5   1.0000     -11.276581      -306.8514
   6   1.0000     -11.252519      -306.1966
   7   1.0000     -11.240968      -305.8823
   8   1.0000     -11.227806      -305.5241
   9   1.0000     -11.227193      -305.5075
  10   1.0000      -8.968898      -244.0561
  11   1.0000      -8.968126      -244.0351
  12   1.0000      -8.941267      -243.3042
  13   1.0000      -6.650137      -180.9594
  14   1.0000      -6.649693      -180.9474
  15   1.0000      -6.649284      -180.9362
  16   1.0000      -6.648600      -180.9176
  17   1.0000      -6.648327      -180.9102
  18   1.0000      -6.647368      -180.8841
  19   1.0000      -6.622629      -180.2109
  20   1.0000      -6.621663      -180.1846
  21   1.0000      -6.620734      -180.1593
  22   1.0000      -1.161084       -31.5947
  23   1.0000      -1.097912       -29.8757
  24   1.0000      -1.050766       -28.5928
  25   1.0000      -0.996003       -27.1026
  26   1.0000      -0.994871       -27.0718
  27   1.0000      -0.928154       -25.2564
  28   1.0000      -0.865362       -23.5477
  29   1.0000      -0.817396       -22.2425
  30   1.0000      -0.782122       -21.2826
  31   1.0000      -0.733331       -19.9549
  32   1.0000      -0.663138       -18.0449
  33   1.0000      -0.653740       -17.7892
  34   1.0000      -0.640373       -17.4254
  35   1.0000      -0.612217       -16.6593
  36   1.0000      -0.591713       -16.1013
  37   1.0000      -0.577648       -15.7186
  38   1.0000      -0.561160       -15.2699
  39   1.0000      -0.542715       -14.7680
  40   1.0000      -0.534561       -14.5462
  41   1.0000      -0.522593       -14.2205
  42   1.0000      -0.496700       -13.5159
  43   1.0000      -0.485451       -13.2098
  44   1.0000      -0.480316       -13.0701
  45   1.0000      -0.464350       -12.6356
  46   1.0000      -0.450585       -12.2610
  47   1.0000      -0.438819       -11.9409
  48   1.0000      -0.433692       -11.8014
  49   1.0000      -0.367054        -9.9881
  50   1.0000      -0.348047        -9.4708
  51   1.0000      -0.275245        -7.4898
  52   0.0000       0.027515         0.7487
  53   0.0000       0.030324         0.8252
  54   0.0000       0.035251         0.9592
  55   0.0000       0.039788         1.0827
  56   0.0000       0.045988         1.2514

                 SPIN DOWN ORBITALS
  NO   OCC          E(Eh)            E(eV)
   0   1.0000     -91.968565     -2502.5919
   1   1.0000     -91.967620     -2502.5662
   2   1.0000     -91.940001     -2501.8146
   3   1.0000     -11.277106      -306.8657
   4   1.0000     -11.276474      -306.8484
   5   1.0000     -11.257667      -306.3367
   6   1.0000     -11.252444      -306.1946
   7   1.0000     -11.243945      -305.9633
   8   1.0000     -11.227648      -305.5198
   9   1.0000     -11.226132      -305.4786
  10   1.0000      -8.968885      -244.0558
  11   1.0000      -8.967675      -244.0228
  12   1.0000      -8.941284      -243.3047
  13   1.0000      -6.651097      -180.9855
  14   1.0000      -6.649939      -180.9540
  15   1.0000      -6.649662      -180.9465
  16   1.0000      -6.648468      -180.9140
  17   1.0000      -6.646795      -180.8685
  18   1.0000      -6.645112      -180.8227
  19   1.0000      -6.622669      -180.2120
  20   1.0000      -6.621702      -180.1857
  21   1.0000      -6.620746      -180.1597
  22   1.0000      -1.142878       -31.0993
  23   1.0000      -1.095878       -29.8203
  24   1.0000      -1.040277       -28.3074
  25   1.0000      -0.992233       -27.0000
  26   1.0000      -0.981801       -26.7162
  27   1.0000      -0.926623       -25.2147
  28   1.0000      -0.863281       -23.4911
  29   1.0000      -0.815512       -22.1912
  30   1.0000      -0.777999       -21.1704
  31   1.0000      -0.698347       -19.0030
  32   1.0000      -0.658469       -17.9179
  33   1.0000      -0.646130       -17.5821
  34   1.0000      -0.635351       -17.2888
  35   1.0000      -0.609515       -16.5857
  36   1.0000      -0.587045       -15.9743
  37   1.0000      -0.568939       -15.4816
  38   1.0000      -0.557557       -15.1719
  39   1.0000      -0.537245       -14.6192
  40   1.0000      -0.528847       -14.3907
  41   1.0000      -0.494369       -13.4525
  42   1.0000      -0.488742       -13.2993
  43   1.0000      -0.480234       -13.0678
  44   1.0000      -0.475405       -12.9364
  45   1.0000      -0.462468       -12.5844
  46   1.0000      -0.438449       -11.9308
  47   1.0000      -0.432636       -11.7726
  48   1.0000      -0.397070       -10.8048
  49   1.0000      -0.349608        -9.5133
  50   1.0000      -0.343401        -9.3444
  51   0.0000       0.027344         0.7441
  52   0.0000       0.030114         0.8195
  53   0.0000       0.035024         0.9530
  54   0.0000       0.039811         1.0833
  55   0.0000       0.046018         1.2522

MULLIKEN ATOMIC CHARGES AND SPIN POPULATIONS
--------------------------------------------
   0 C :   -0.515176   -0.216253
   1 H :    0.242241   -0.000850
   2 H :    0.264966    0.060913
   3 C :   -0.422115    0.034540
   4 H :    0.139918   -0.004291
   5 C :   -0.378774   -0.007944
   6 H :    0.320463    0.005135
   7 H :    0.269871   -0.003308
   8 H :    0.239077   -0.001976
   9 C :   -0.372228    0.001138
  10 H :    0.326737    0.000710
  11 H :    0.184020    0.000880
  12 C :    1.040950    1.122795
  13 C :   -0.424668    0.018371
  14 C :   -0.456116   -0.007034
  15 H :    0.339039    0.001698
  16 H :    0.232248   -0.003503
  17 H :    0.247466   -0.002444
  18 H :    0.279414    0.000076
  19 S :   -0.690602   -0.029972
  20 S :   -0.581340    0.028363
  21 S :   -0.545984   -0.002117
  22 H :    0.260593    0.005074
Sum of atomic charges         :   -0.0000000

LOEWDIN ATOMIC CHARGES AND SPIN POPULATIONS
-------------------------------------------
   0 C :    0.112276    0.090270
   1 H :   -0.179468   -0.000241
   2 H :   -0.159612    0.021215
   3 C :    0.242224    0.017467
   4 H :   -0.184712    0.000791
   5 C :   -0.096962    0.005626
   6 H :   -0.228068    0.001133
   7 H :   -0.145230    0.002368
   8 H :   -0.271522    0.009079
   9 C :    0.212068    0.001950
  10 H :   -0.159003    0.000266
  11 H :   -0.148887    0.000141
  12 C :   -0.899911    0.551755
  13 C :   -0.115303    0.012516
  14 C :   -0.111283    0.008119
  15 H :   -0.216528    0.000526
  16 H :   -0.232636    0.002586
  17 H :   -0.227953    0.003076
  18 H :   -0.222326   -0.000063
  19 S :    1.188677    0.125380
  20 S :    1.184804    0.144594
  21 S :    1.310249   -0.000900
  22 H :   -0.650892    0.002344

  Mayer bond orders larger than 0.100000
B(  0-C ,  1-H ) :   1.0009 B(  0-C ,  2-H ) :   0.9756 B(  0-C ,  3-C ) :   0.8949
B(  0-C , 12-C ) :   0.7240 B(  3-C ,  4-H ) :   1.0116 B(  3-C ,  7-H ) :   0.9682
B(  3-C ,  9-C ) :   0.8392 B(  3-C , 12-C ) :   0.1091 B(  5-C ,  6-H ) :   0.9190
B(  5-C ,  8-H ) :   0.9701 B(  5-C ,  9-C ) :   0.9191 B(  5-C , 21-S ) :   0.8569
B(  8-H , 21-S ) :   0.1232 B(  9-C , 10-H ) :   0.9206 B(  9-C , 11-H ) :   0.9708
B( 12-C , 13-C ) :  -0.1561 B( 12-C , 14-C ) :  -0.1168 B( 12-C , 19-S ) :   0.6660
B( 12-C , 20-S ) :   0.7244 B( 13-C , 14-C ) :   1.0091 B( 13-C , 15-H ) :   0.8780
B( 13-C , 16-H ) :   0.9627 B( 13-C , 19-S ) :   0.9936 B( 14-C , 17-H ) :   0.9722
B( 14-C , 18-H ) :   0.9170 B( 14-C , 20-S ) :   0.9989 B( 21-S , 22-H ) :   0.9062

MP2 TOTAL ENERGY:    -1467.088513537 Eh
FINAL SINGLE POINT ENERGY     -1467.088513537034

DIPOLE MOMENT
-------------
                                X             Y             Z
Electronic contribution:     -5.29472       3.10364       0.86847
Nuclear contribution   :      4.69946      -3.32468      -1.05727
                        -----------------------------------------
Total Dipole Moment    :     -0.59526      -0.22104      -0.18881
                        -----------------------------------------
Magnitude (a.u.)       :      0.66245
Magnitude (Debye)      :      1.68381

Rotational constants in cm-1:     0.037504     0.020580     0.017929
Rotational constants in MHz :  1124.329198   616.979929   537.501284

                             ****ORCA TERMINATED NORMALLY****
TOTAL RUN TIME: 0 days 0 hours 16 minutes 13 seconds 710 msec
