                         Program Version 4.2.1 -  RELEASE  -
|  1> %pal
|  2>  nprocs 32
|  3> end
|  4> !RI-MP2 aug-cc-pVTZ aug-cc-pVTZ/C TightSCF
|  5> %maxcore 4500
|  6> *xyzfile 0 1  03_16R1.xyz
|  7>
|  8>
|  9>                          ****END OF INPUT****

CARTESIAN COORDINATES (ANGSTROEM)
---------------------------------
  S     -3.061134    0.482276    0.000014
  C     -1.316105    0.257393    0.000003
  C     -0.534038    1.413644   -0.000011
  C      0.841057    1.302080   -0.000009
  C      1.445806    0.046491    0.000002
  C      0.656112   -1.098225    0.000012
  C     -0.725865   -1.000627    0.000015
  H     -0.995687    2.394684   -0.000025
  H      1.467838    2.184334   -0.000020
  H      1.126393   -2.072094    0.000020
  H     -1.340495   -1.889374    0.000024
  C      2.924529   -0.015584    0.000000
  O      3.653060    0.942615   -0.000010
  O      3.400628   -1.276861    0.000010
  H      4.365500   -1.215056    0.000008
  F     -3.535988   -1.097331   -0.000034

 Total Charge           Charge          ....    0
 Multiplicity           Mult            ....    1
 Number of Electrons    NEL             ....   88
 Basis Dimension        Dim             ....  625

ORBITAL ENERGIES
----------------

  NO   OCC          E(Eh)            E(eV)
   0   2.0000     -92.059681     -2505.0713
   1   2.0000     -26.325453      -716.3520
   2   2.0000     -20.619555      -561.0866
   3   2.0000     -20.552814      -559.2705
   4   2.0000     -11.395164      -310.0782
   5   2.0000     -11.307737      -307.6992
   6   2.0000     -11.269070      -306.6470
   7   2.0000     -11.267558      -306.6058
   8   2.0000     -11.263680      -306.5003
   9   2.0000     -11.261792      -306.4489
  10   2.0000     -11.258765      -306.3666
  11   2.0000      -9.052388      -246.3280
  12   2.0000      -6.733626      -183.2313
  13   2.0000      -6.731598      -183.1761
  14   2.0000      -6.730250      -183.1394
  15   2.0000      -1.614490       -43.9325
  16   2.0000      -1.475631       -40.1540
  17   2.0000      -1.369564       -37.2677
  18   2.0000      -1.197123       -32.5754
  19   2.0000      -1.094559       -29.7845
  20   2.0000      -1.050366       -28.5819
  21   2.0000      -0.986449       -26.8426
  22   2.0000      -0.888323       -24.1725
  23   2.0000      -0.865592       -23.5540
  24   2.0000      -0.811608       -22.0850
  25   2.0000      -0.748710       -20.3734
  26   2.0000      -0.717222       -19.5166
  27   2.0000      -0.708335       -19.2748
  28   2.0000      -0.698750       -19.0140
  29   2.0000      -0.689030       -18.7495
  30   2.0000      -0.650239       -17.6939
  31   2.0000      -0.649583       -17.6761
  32   2.0000      -0.644197       -17.5295
  33   2.0000      -0.621686       -16.9169
  34   2.0000      -0.614219       -16.7138
  35   2.0000      -0.579127       -15.7589
  36   2.0000      -0.548056       -14.9133
  37   2.0000      -0.524998       -14.2859
  38   2.0000      -0.505866       -13.7653
  39   2.0000      -0.496002       -13.4969
  40   2.0000      -0.464381       -12.6364
  41   2.0000      -0.438327       -11.9275
  42   2.0000      -0.368684       -10.0324
  43   2.0000      -0.334083        -9.0908
  44   0.0000       0.027080         0.7369
  45   0.0000       0.030582         0.8322
  46   0.0000       0.036859         1.0030
  47   0.0000       0.048766         1.3270
  48   0.0000       0.052118         1.4182

MULLIKEN ATOMIC CHARGES
-----------------------
   0 S :    0.139164
   1 C :    0.961323
   2 C :   -0.810625
   3 C :   -0.783598
   4 C :    1.768880
   5 C :   -0.575489
   6 C :   -0.882149
   7 H :    0.460973
   8 H :    0.354421
   9 H :    0.388993
  10 H :    0.387599
  11 C :    0.267323
  12 O :   -0.885038
  13 O :   -0.470261
  14 H :    0.259396
  15 F :   -0.580912
Sum of atomic charges:    0.0000000

LOEWDIN ATOMIC CHARGES
----------------------
   0 S :    0.868275
   1 C :   -0.560345
   2 C :    0.120227
   3 C :    0.202450
   4 C :   -0.139388
   5 C :    0.208353
   6 C :    0.140245
   7 H :   -0.192772
   8 H :   -0.175448
   9 H :   -0.184300
  10 H :   -0.221317
  11 C :   -0.812155
  12 O :    0.459987
  13 O :    0.838392
  14 H :   -0.465540
  15 F :   -0.086662

  Mayer bond orders larger than 0.100000
B(  0-S ,  1-C ) :   0.5474 B(  0-S ,  2-C ) :   0.1757 B(  0-S , 15-F ) :   0.5747
B(  1-C ,  2-C ) :   1.3515 B(  1-C ,  6-C ) :   0.9621 B(  2-C ,  3-C ) :   1.3827
B(  2-C ,  4-C ) :  -0.1351 B(  2-C ,  7-H ) :   0.7932 B(  3-C ,  4-C ) :   0.3194
B(  3-C ,  5-C ) :  -0.2431 B(  3-C ,  8-H ) :   0.9334 B(  3-C , 11-C ) :   0.1078
B(  4-C ,  5-C ) :   0.4649 B(  5-C ,  6-C ) :   1.3325 B(  5-C ,  9-H ) :   0.9219
B(  5-C , 11-C ) :   0.1411 B(  6-C , 10-H ) :   0.8839 B( 11-C , 12-O ) :   1.2485
B( 11-C , 13-O ) :   1.0129 B( 13-O , 14-H ) :   0.9260

MP2 TOTAL ENERGY:     -916.897205239 Eh
FINAL SINGLE POINT ENERGY      -916.897205239242

DIPOLE MOMENT
-------------
                                X             Y             Z
Electronic contribution:     -8.02674      -0.61804      -0.00002
Nuclear contribution   :      7.98770       0.44737       0.00004
                        -----------------------------------------
Total Dipole Moment    :     -0.03904      -0.17066       0.00002
                        -----------------------------------------
Magnitude (a.u.)       :      0.17507
Magnitude (Debye)      :      0.44500

Rotational constants in cm-1:     0.103884     0.014870     0.013008
Rotational constants in MHz :  3114.375368   445.787548   389.968041

                             ****ORCA TERMINATED NORMALLY****
TOTAL RUN TIME: 0 days 0 hours 4 minutes 43 seconds 248 msec
