                         Program Version 4.2.1 -  RELEASE  -
|  1> %pal
|  2>  nprocs 32
|  3> end
|  4> !RI-MP2 aug-cc-pVTZ aug-cc-pVTZ/C TightSCF
|  5> %maxcore 4500
|  6> *xyzfile -1 1  05_10TS.xyz
|  7>
|  8>
|  9>                          ****END OF INPUT****

CARTESIAN COORDINATES (ANGSTROEM)
---------------------------------
  C      0.284434    1.641145   -0.068136
  C      0.582893    0.482936   -0.821283
  N     -0.376625   -0.440046   -1.138519
  N     -1.028922    1.877932    0.301303
  C     -2.042503    1.024987   -0.104620
  C     -1.667755   -0.109474   -0.857795
  N     -3.277848    1.358740    0.220376
  C     -4.302289    0.551385   -0.162846
  N     -3.979454   -0.583761   -0.918736
  C     -2.716866   -0.996879   -1.314731
  C     -1.337258    3.010819    1.152185
  H     -0.777876    2.933234    2.087923
  H     -2.403445    2.990013    1.351451
  H     -1.076580    3.948244    0.653089
  H     -4.754061   -1.166692   -1.200441
  O     -5.478055    0.754533    0.107560
  O     -2.563559   -2.018500   -1.966034
  C      1.325157    2.497914    0.269025
  C      2.641008    2.240329   -0.123252
  C      2.946329    1.098899   -0.863953
  C      1.912800    0.220426   -1.169445
  C      3.728575    3.198042    0.278532
  H      4.222355    3.631897   -0.596135
  H      4.502453    2.690752    0.861219
  H      3.330815    4.015648    0.880856
  C      4.357883    0.783540   -1.275765
  H      4.967279    0.509886   -0.411234
  H      4.833253    1.632237   -1.776567
  H      4.377158   -0.066941   -1.957259
  H      2.098945   -0.665703   -1.762466
  H      1.125562    3.383426    0.855354
  H      0.035300   -1.496510   -0.369636
  C      0.512266   -2.117066    0.671505
  C      1.811057   -1.624635    0.947130
  C      3.003394   -2.190716    0.424820
  C     -0.563556   -1.702051    1.602986
  O      2.797563   -3.239097   -0.445085
  H      3.682622   -3.522905   -0.702322
  O      4.153744   -1.838633    0.658732
  O     -0.526284   -0.761143    2.357516
  O     -1.679492   -2.447792    1.462116
  H     -2.363658   -2.027124    2.001635
  H      0.419376   -3.133583    0.297821
  H      1.935694   -0.798501    1.631157

 Total Charge           Charge          ....   -1
 Multiplicity           Mult            ....    1
 Number of Electrons    NEL             ....  196
 Basis Dimension        Dim             .... 1633

ORBITAL ENERGIES
----------------

  NO   OCC          E(Eh)            E(eV)
   0   2.0000     -20.509733      -558.0982
   1   2.0000     -20.487711      -557.4990
   2   2.0000     -20.444367      -556.3195
   3   2.0000     -20.409000      -555.3571
   4   2.0000     -20.402484      -555.1798
   5   2.0000     -20.390709      -554.8594
   6   2.0000     -15.518176      -422.2710
   7   2.0000     -15.511512      -422.0897
   8   2.0000     -15.481576      -421.2751
   9   2.0000     -15.418199      -419.5505
  10   2.0000     -11.282697      -307.0178
  11   2.0000     -11.253567      -306.2251
  12   2.0000     -11.252975      -306.2090
  13   2.0000     -11.238856      -305.8248
  14   2.0000     -11.235604      -305.7363
  15   2.0000     -11.203198      -304.8545
  16   2.0000     -11.177178      -304.1465
  17   2.0000     -11.166499      -303.8559
  18   2.0000     -11.163143      -303.7646
  19   2.0000     -11.153199      -303.4940
  20   2.0000     -11.150417      -303.4183
  21   2.0000     -11.146631      -303.3153
  22   2.0000     -11.144205      -303.2492
  23   2.0000     -11.140166      -303.1393
  24   2.0000     -11.139914      -303.1325
  25   2.0000     -11.131253      -302.8968
  26   2.0000     -11.106986      -302.2365
  27   2.0000      -1.365434       -37.1553
  28   2.0000      -1.331614       -36.2351
  29   2.0000      -1.282551       -34.9000
  30   2.0000      -1.258567       -34.2473
  31   2.0000      -1.255347       -34.1597
  32   2.0000      -1.231048       -33.4985
  33   2.0000      -1.220309       -33.2063
  34   2.0000      -1.154579       -31.4177
  35   2.0000      -1.133670       -30.8487
  36   2.0000      -1.082296       -29.4508
  37   2.0000      -1.059238       -28.8233
  38   2.0000      -0.975003       -26.5312
  39   2.0000      -0.964643       -26.2493
  40   2.0000      -0.951614       -25.8947
  41   2.0000      -0.905848       -24.6494
  42   2.0000      -0.874414       -23.7940
  43   2.0000      -0.860828       -23.4243
  44   2.0000      -0.842254       -22.9189
  45   2.0000      -0.808106       -21.9897
  46   2.0000      -0.773605       -21.0509
  47   2.0000      -0.735562       -20.0157
  48   2.0000      -0.726870       -19.7791
  49   2.0000      -0.716790       -19.5049
  50   2.0000      -0.684835       -18.6353
  51   2.0000      -0.663938       -18.0667
  52   2.0000      -0.650023       -17.6880
  53   2.0000      -0.632309       -17.2060
  54   2.0000      -0.606384       -16.5005
  55   2.0000      -0.595081       -16.1930
  56   2.0000      -0.594318       -16.1722
  57   2.0000      -0.583030       -15.8650
  58   2.0000      -0.576018       -15.6742
  59   2.0000      -0.564372       -15.3573
  60   2.0000      -0.550807       -14.9882
  61   2.0000      -0.547695       -14.9035
  62   2.0000      -0.540343       -14.7035
  63   2.0000      -0.534681       -14.5494
  64   2.0000      -0.519668       -14.1409
  65   2.0000      -0.515969       -14.0402
  66   2.0000      -0.512996       -13.9593
  67   2.0000      -0.507543       -13.8110
  68   2.0000      -0.503490       -13.7007
  69   2.0000      -0.501097       -13.6356
  70   2.0000      -0.490129       -13.3371
  71   2.0000      -0.488920       -13.3042
  72   2.0000      -0.484323       -13.1791
  73   2.0000      -0.469244       -12.7688
  74   2.0000      -0.466886       -12.7046
  75   2.0000      -0.461391       -12.5551
  76   2.0000      -0.458611       -12.4794
  77   2.0000      -0.452175       -12.3043
  78   2.0000      -0.432975       -11.7818
  79   2.0000      -0.431090       -11.7306
  80   2.0000      -0.427026       -11.6200
  81   2.0000      -0.412259       -11.2181
  82   2.0000      -0.408534       -11.1168
  83   2.0000      -0.387187       -10.5359
  84   2.0000      -0.384840       -10.4720
  85   2.0000      -0.368060       -10.0154
  86   2.0000      -0.366221        -9.9654
  87   2.0000      -0.355571        -9.6756
  88   2.0000      -0.340647        -9.2695
  89   2.0000      -0.327973        -8.9246
  90   2.0000      -0.316695        -8.6177
  91   2.0000      -0.304151        -8.2764
  92   2.0000      -0.299105        -8.1390
  93   2.0000      -0.295690        -8.0461
  94   2.0000      -0.285667        -7.7734
  95   2.0000      -0.237968        -6.4754
  96   2.0000      -0.202250        -5.5035
  97   2.0000      -0.122702        -3.3389
  98   0.0000       0.081443         2.2162
  99   0.0000       0.091544         2.4910
 100   0.0000       0.100104         2.7240
 101   0.0000       0.103016         2.8032
 102   0.0000       0.107885         2.9357

MULLIKEN ATOMIC CHARGES
-----------------------
   0 C :    1.703464
   1 C :    1.968364
   2 N :   -1.538912
   3 N :    0.032406
   4 C :    0.526046
   5 C :    1.541410
   6 N :   -0.584437
   7 C :   -0.129945
   8 N :    0.194525
   9 C :   -0.492051
  10 C :   -1.340234
  11 H :    0.307630
  12 H :    0.338377
  13 H :    0.327061
  14 H :    0.112162
  15 O :   -0.953566
  16 O :   -1.112878
  17 C :   -0.786946
  18 C :    1.152906
  19 C :    0.411787
  20 C :   -0.885594
  21 C :   -0.994922
  22 H :    0.241284
  23 H :    0.246428
  24 H :    0.250738
  25 C :   -1.176824
  26 H :    0.295848
  27 H :    0.235354
  28 H :    0.191282
  29 H :    0.010653
  30 H :   -0.522501
  31 H :   -0.264799
  32 C :    0.106018
  33 C :    0.059331
  34 C :    0.666667
  35 C :    1.013976
  36 O :   -0.596297
  37 H :    0.176541
  38 O :   -1.124273
  39 O :   -1.071307
  40 O :   -0.678459
  41 H :    0.214618
  42 H :    0.519683
  43 H :    0.409384
Sum of atomic charges:   -1.0000000

LOEWDIN ATOMIC CHARGES
----------------------
   0 C :   -0.155184
   1 C :   -0.225562
   2 N :    0.488746
   3 N :    0.290619
   4 C :   -0.405508
   5 C :   -0.241030
   6 N :    0.378363
   7 C :   -0.916215
   8 N :    0.525590
   9 C :   -0.714564
  10 C :    0.501539
  11 H :   -0.149390
  12 H :   -0.224691
  13 H :   -0.152800
  14 H :   -0.290752
  15 O :    0.368194
  16 O :    0.420845
  17 C :    0.258758
  18 C :   -0.088523
  19 C :   -0.092822
  20 C :    0.231454
  21 C :    0.582950
  22 H :   -0.166733
  23 H :   -0.160789
  24 H :   -0.177919
  25 C :    0.564574
  26 H :   -0.176784
  27 H :   -0.175973
  28 H :   -0.172698
  29 H :   -0.153828
  30 H :   -0.206802
  31 H :   -0.408444
  32 C :    0.161686
  33 C :    0.162872
  34 C :   -0.886772
  35 C :   -0.815077
  36 O :    0.815020
  37 H :   -0.510444
  38 O :    0.404323
  39 O :    0.485128
  40 O :    0.853652
  41 H :   -0.467835
  42 H :   -0.151469
  43 H :   -0.205705

  Mayer bond orders larger than 0.100000
B(  0-C ,  2-N ) :   0.3855 B(  0-C ,  3-N ) :  -0.2160 B(  0-C ,  4-C ) :  -0.6050
B(  0-C ,  5-C ) :  -0.1170 B(  0-C ,  6-N ) :   0.2967 B(  0-C ,  8-N ) :  -0.1219
B(  0-C ,  9-C ) :   0.2301 B(  0-C , 10-C ) :  -0.5739 B(  0-C , 16-O ) :  -0.1317
B(  0-C , 17-C ) :  -0.6699 B(  0-C , 18-C ) :   1.2252 B(  0-C , 19-C ) :  -0.4839
B(  0-C , 20-C ) :  -0.3826 B(  0-C , 21-C ) :  -0.2997 B(  0-C , 30-H ) :  -0.6203
B(  0-C , 31-H ) :   0.1768 B(  0-C , 32-C ) :  -0.1003 B(  0-C , 33-C ) :  -0.1302
B(  0-C , 39-O ) :  -0.1194 B(  1-C ,  2-N ) :  -1.7106 B(  1-C ,  3-N ) :  -0.4957
B(  1-C ,  4-C ) :  -0.1531 B(  1-C ,  5-C ) :   0.3088 B(  1-C ,  7-C ) :   0.1433
B(  1-C ,  9-C ) :  -0.1823 B(  1-C , 11-H ) :  -0.1327 B(  1-C , 18-C ) :  -0.1274
B(  1-C , 19-C ) :   0.9703 B(  1-C , 20-C ) :   0.6511 B(  1-C , 21-C ) :   0.1699
B(  1-C , 25-C ) :  -0.1935 B(  1-C , 29-H ) :  -0.1010 B(  1-C , 31-H ) :   0.1425
B(  1-C , 32-C ) :   0.2788 B(  2-N ,  3-N ) :  -0.2540 B(  2-N ,  4-C ) :   0.6409
B(  2-N ,  5-C ) :   0.3508 B(  2-N ,  8-N ) :   0.1179 B(  2-N ,  9-C ) :   0.3361
B(  2-N , 31-H ) :   0.7382 B(  2-N , 33-C ) :   0.1159 B(  3-N ,  5-C ) :   0.5777
B(  3-N ,  9-C ) :  -0.1466 B(  3-N , 10-C ) :   1.4596 B(  3-N , 11-H ) :   0.1085
B(  3-N , 17-C ) :  -0.5646 B(  3-N , 18-C ) :   0.1516 B(  3-N , 19-C ) :  -0.2367
B(  3-N , 20-C ) :   0.1474 B(  3-N , 21-C ) :   0.1017 B(  3-N , 30-H ) :  -0.1481
B(  3-N , 31-H ) :  -0.1034 B(  4-C ,  5-C ) :   0.5395 B(  4-C ,  6-N ) :  -0.2409
B(  4-C ,  7-C ) :  -0.1123 B(  4-C ,  8-N ) :   0.1695 B(  4-C ,  9-C ) :   0.5331
B(  4-C , 16-O ) :   0.1423 B(  4-C , 18-C ) :  -0.1415 B(  4-C , 20-C ) :   0.1076
B(  4-C , 30-H ) :   0.1282 B(  5-C ,  6-N ) :  -0.3431 B(  5-C ,  7-C ) :  -0.7148
B(  5-C ,  8-N ) :  -0.7018 B(  5-C ,  9-C ) :  -1.4113 B(  5-C , 16-O ) :   0.1974
B(  5-C , 20-C ) :   0.4350 B(  5-C , 29-H ) :  -0.1002 B(  5-C , 31-H ) :   0.1718
B(  6-N ,  7-C ) :   1.2923 B(  6-N ,  9-C ) :   0.1600 B(  6-N , 10-C ) :  -0.1264
B(  6-N , 12-H ) :   0.1424 B(  6-N , 15-O ) :  -0.3158 B(  7-C ,  8-N ) :   1.0340
B(  7-C , 15-O ) :   1.4560 B(  8-N ,  9-C ) :   1.1783 B(  8-N , 14-H ) :   1.0582
B(  8-N , 15-O ) :  -0.1829 B(  8-N , 16-O ) :  -0.2195 B(  9-C , 16-O ) :   0.6462
B(  9-C , 18-C ) :  -0.1248 B( 10-C , 11-H ) :   0.9968 B( 10-C , 12-H ) :   0.8527
B( 10-C , 13-H ) :   0.9860 B( 10-C , 18-C ) :   0.1406 B( 10-C , 30-H ) :  -0.1457
B( 17-C , 18-C ) :   0.8238 B( 17-C , 19-C ) :   0.6383 B( 17-C , 20-C ) :   0.1097
B( 17-C , 21-C ) :  -0.2625 B( 17-C , 22-H ) :  -0.1318 B( 17-C , 23-H ) :  -0.1658
B( 17-C , 25-C ) :   0.1086 B( 17-C , 30-H ) :   2.4607 B( 17-C , 31-H ) :  -0.1252
B( 18-C , 19-C ) :   0.1866 B( 18-C , 20-C ) :  -0.2213 B( 18-C , 22-H ) :  -0.2431
B( 18-C , 23-H ) :  -0.1463 B( 18-C , 25-C ) :   0.4208 B( 18-C , 27-H ) :   0.1144
B( 18-C , 28-H ) :   0.1360 B( 18-C , 30-H ) :  -0.4702 B( 19-C , 20-C ) :   0.7836
B( 19-C , 21-C ) :   0.5594 B( 19-C , 22-H ) :   0.1227 B( 19-C , 24-H ) :   0.1076
B( 19-C , 25-C ) :   0.2064 B( 19-C , 26-H ) :  -0.1474 B( 19-C , 27-H ) :  -0.2240
B( 19-C , 29-H ) :  -0.2989 B( 19-C , 30-H ) :   0.4048 B( 19-C , 38-O ) :  -0.1327
B( 20-C , 21-C ) :   0.1624 B( 20-C , 25-C ) :  -0.1398 B( 20-C , 28-H ) :  -0.1890
B( 20-C , 29-H ) :   1.7205 B( 20-C , 31-H ) :   0.1022 B( 20-C , 38-O ) :   0.1240
B( 21-C , 22-H ) :   1.1070 B( 21-C , 23-H ) :   1.0840 B( 21-C , 24-H ) :   1.0242
B( 25-C , 26-H ) :   1.0671 B( 25-C , 27-H ) :   1.0560 B( 25-C , 28-H ) :   1.0860
B( 31-H , 32-C ) :   0.5252 B( 31-H , 33-C ) :   0.1218 B( 31-H , 35-C ) :   0.1965
B( 31-H , 43-H ) :   0.1062 B( 32-C , 33-C ) :   1.1002 B( 32-C , 35-C ) :   0.8162
B( 32-C , 42-H ) :   0.7917 B( 33-C , 34-C ) :   0.6369 B( 33-C , 38-O ) :  -0.1645
B( 33-C , 42-H ) :  -0.2043 B( 33-C , 43-H ) :   0.8370 B( 34-C , 36-O ) :   0.8532
B( 34-C , 38-O ) :   0.8799 B( 34-C , 43-H ) :  -0.1010 B( 35-C , 39-O ) :   0.9242
B( 35-C , 40-O ) :   0.6071 B( 35-C , 42-H ) :  -0.1403 B( 36-O , 37-H ) :   1.0061
B( 40-O , 41-H ) :   0.9929

MP2 TOTAL ENERGY:    -1326.230410336 Eh
FINAL SINGLE POINT ENERGY     -1326.230410336216

DIPOLE MOMENT
-------------
                                X             Y             Z
Electronic contribution:    -21.00942     -11.03320      -1.84811
Nuclear contribution   :     23.59364      12.47721       1.83405
                        -----------------------------------------
Total Dipole Moment    :      2.58422       1.44400      -0.01405
                        -----------------------------------------
Magnitude (a.u.)       :      2.96033
Magnitude (Debye)      :      7.52455

Rotational constants in cm-1:     0.010306     0.005218     0.004157
Rotational constants in MHz :   308.978070   156.429539   124.622461

                             ****ORCA TERMINATED NORMALLY****
TOTAL RUN TIME: 0 days 1 hours 54 minutes 44 seconds 860 msec
