                         Program Version 4.2.1 -  RELEASE  -
|  1> %pal
|  2>  nprocs 32
|  3> end
|  4> !RI-MP2 aug-cc-pVTZ aug-cc-pVTZ/C TightSCF
|  5> %maxcore 4500
|  6> *xyzfile 0 1  02_1P.xyz
|  7>
|  8>
|  9>                          ****END OF INPUT****

CARTESIAN COORDINATES (ANGSTROEM)
---------------------------------
  C      1.083385   -1.635592    0.226375
  O      0.259715   -1.277345    1.331963
  C      2.528216   -1.282979    0.433411
  C      3.144852   -0.242789   -0.123674
  C      4.602624    0.011014    0.122701
  C      2.439182    0.678353   -1.099252
  C      2.938600    2.126400   -1.084689
  C      0.917524    0.563820   -0.991096
  C      0.493960   -0.910035   -0.988104
  C     -1.008168   -1.076296   -1.009458
  O     -1.499981   -2.076079   -1.524445
  C     -1.832609   -0.030694   -0.404418
  C     -1.238984    1.083162    0.221974
  C      0.245231    1.275151    0.172372
  O      0.815191    1.994979    0.955317
  C     -2.012973    2.023266    0.867124
  C     -3.400171    1.872788    0.884112
  C     -4.006374    0.793944    0.277172
  C     -3.231038   -0.175073   -0.365559
  C      0.619464   -1.854070    2.566211
  O     -3.855528   -1.219966   -0.913929
  H      4.755349    0.975005    0.613113
  H      5.035258   -0.766868    0.751724
  H      5.159709    0.040168   -0.818751
  H      2.342500    2.729726   -1.773650
  H      2.854878    2.570143   -0.095658
  H      3.976040    2.184104   -1.416224
  H     -1.528879    2.863263    1.346619
  H     -4.013015    2.614163    1.383041
  H     -5.080600    0.662293    0.291677
  H     -3.165788   -1.815516   -1.285435
  H     -0.175895   -1.612343    3.269069
  H      0.703114   -2.945016    2.481943
  H      1.562691   -1.447164    2.942656
  H      3.095065   -1.939909    1.085346
  H      0.479709    1.030747   -1.882876
  H      2.685590    0.281365   -2.095445
  H      0.875533   -1.400922   -1.885856
  H      0.987250   -2.718163    0.066238

 Total Charge           Charge          ....    0
 Multiplicity           Mult            ....    1
 Number of Electrons    NEL             ....  152
 Basis Dimension        Dim             .... 1380

ORBITAL ENERGIES
----------------

  NO   OCC          E(Eh)            E(eV)
   0   2.0000     -20.579096      -559.9857
   1   2.0000     -20.565917      -559.6270
   2   2.0000     -20.560675      -559.4844
   3   2.0000     -20.550194      -559.1992
   4   2.0000     -11.350348      -308.8587
   5   2.0000     -11.339709      -308.5692
   6   2.0000     -11.322040      -308.0884
   7   2.0000     -11.301676      -307.5342
   8   2.0000     -11.274978      -306.8077
   9   2.0000     -11.261514      -306.4414
  10   2.0000     -11.258411      -306.3569
  11   2.0000     -11.257544      -306.3334
  12   2.0000     -11.256736      -306.3114
  13   2.0000     -11.251827      -306.1778
  14   2.0000     -11.250037      -306.1291
  15   2.0000     -11.247516      -306.0605
  16   2.0000     -11.238874      -305.8253
  17   2.0000     -11.236915      -305.7720
  18   2.0000     -11.228578      -305.5452
  19   2.0000     -11.224416      -305.4319
  20   2.0000     -11.216724      -305.2226
  21   2.0000      -1.422814       -38.7167
  22   2.0000      -1.399390       -38.0793
  23   2.0000      -1.393616       -37.9222
  24   2.0000      -1.386858       -37.7383
  25   2.0000      -1.179606       -32.0987
  26   2.0000      -1.158209       -31.5165
  27   2.0000      -1.094555       -29.7844
  28   2.0000      -1.053746       -28.6739
  29   2.0000      -1.045491       -28.4493
  30   2.0000      -1.028330       -27.9823
  31   2.0000      -0.971664       -26.4403
  32   2.0000      -0.956297       -26.0222
  33   2.0000      -0.932744       -25.3812
  34   2.0000      -0.897476       -24.4216
  35   2.0000      -0.876291       -23.8451
  36   2.0000      -0.853990       -23.2382
  37   2.0000      -0.824971       -22.4486
  38   2.0000      -0.790474       -21.5099
  39   2.0000      -0.757155       -20.6032
  40   2.0000      -0.726311       -19.7639
  41   2.0000      -0.720954       -19.6182
  42   2.0000      -0.710196       -19.3254
  43   2.0000      -0.689749       -18.7690
  44   2.0000      -0.671672       -18.2771
  45   2.0000      -0.665984       -18.1223
  46   2.0000      -0.663321       -18.0499
  47   2.0000      -0.641837       -17.4653
  48   2.0000      -0.636760       -17.3271
  49   2.0000      -0.629783       -17.1373
  50   2.0000      -0.615029       -16.7358
  51   2.0000      -0.604252       -16.4425
  52   2.0000      -0.602510       -16.3951
  53   2.0000      -0.596297       -16.2261
  54   2.0000      -0.594431       -16.1753
  55   2.0000      -0.575400       -15.6574
  56   2.0000      -0.568351       -15.4656
  57   2.0000      -0.562005       -15.2929
  58   2.0000      -0.553992       -15.0749
  59   2.0000      -0.551137       -14.9972
  60   2.0000      -0.546404       -14.8684
  61   2.0000      -0.537541       -14.6272
  62   2.0000      -0.528646       -14.3852
  63   2.0000      -0.524905       -14.2834
  64   2.0000      -0.517573       -14.0839
  65   2.0000      -0.503936       -13.7128
  66   2.0000      -0.496869       -13.5205
  67   2.0000      -0.485681       -13.2160
  68   2.0000      -0.481575       -13.1043
  69   2.0000      -0.455798       -12.4029
  70   2.0000      -0.436521       -11.8784
  71   2.0000      -0.418509       -11.3882
  72   2.0000      -0.411098       -11.1865
  73   2.0000      -0.359742        -9.7891
  74   2.0000      -0.357119        -9.7177
  75   2.0000      -0.322174        -8.7668
  76   0.0000       0.022280         0.6063
  77   0.0000       0.028086         0.7643
  78   0.0000       0.029511         0.8030
  79   0.0000       0.032925         0.8959
  80   0.0000       0.038660         1.0520

MULLIKEN ATOMIC CHARGES
-----------------------
   0 C :    0.579351
   1 O :   -0.416872
   2 C :   -1.187505
   3 C :    1.182898
   4 C :   -1.295758
   5 C :    0.345095
   6 C :   -1.124503
   7 C :   -0.111521
   8 C :    0.196705
   9 C :    0.656226
  10 O :   -1.405477
  11 C :    1.038493
  12 C :    1.870767
  13 C :    1.006051
  14 O :   -1.494641
  15 C :   -1.435476
  16 C :   -0.326450
  17 C :   -0.782117
  18 C :    0.111489
  19 C :   -1.144010
  20 O :   -1.091776
  21 H :    0.269300
  22 H :    0.230958
  23 H :    0.242410
  24 H :    0.233537
  25 H :    0.317441
  26 H :    0.211576
  27 H :    0.038337
  28 H :    0.629223
  29 H :    0.518548
  30 H :    0.119700
  31 H :    0.306691
  32 H :    0.356286
  33 H :    0.423650
  34 H :   -0.267448
  35 H :    0.433508
  36 H :    0.110691
  37 H :    0.245468
  38 H :    0.409159
Sum of atomic charges:   -0.0000000

LOEWDIN ATOMIC CHARGES
----------------------
   0 C :   -0.248678
   1 O :    0.588557
   2 C :    0.270547
   3 C :   -0.047179
   4 C :    0.586698
   5 C :    0.000952
   6 C :    0.594846
   7 C :    0.022726
   8 C :    0.019627
   9 C :   -0.433369
  10 O :    0.587677
  11 C :   -0.059952
  12 C :   -0.102733
  13 C :   -0.472848
  14 O :    0.538874
  15 C :    0.226541
  16 C :    0.217064
  17 C :    0.239372
  18 C :   -0.341739
  19 C :    0.341609
  20 O :    0.873983
  21 H :   -0.163055
  22 H :   -0.172071
  23 H :   -0.154878
  24 H :   -0.151663
  25 H :   -0.195331
  26 H :   -0.167155
  27 H :   -0.184734
  28 H :   -0.169849
  29 H :   -0.176756
  30 H :   -0.687569
  31 H :   -0.176807
  32 H :   -0.166799
  33 H :   -0.178707
  34 H :   -0.178628
  35 H :   -0.114515
  36 H :   -0.120012
  37 H :   -0.119206
  38 H :   -0.124840

  Mayer bond orders larger than 0.100000
B(  0-C ,  1-O ) :   0.7537 B(  0-C ,  2-C ) :   0.7653 B(  0-C ,  3-C ) :   0.1544
B(  0-C ,  4-C ) :  -0.1021 B(  0-C ,  7-C ) :   0.1491 B(  0-C ,  8-C ) :   1.1343
B(  0-C , 10-O ) :   0.2383 B(  0-C , 34-H ) :  -0.1577 B(  0-C , 38-H ) :   0.7780
B(  1-O , 19-C ) :   1.0272 B(  2-C ,  3-C ) :   1.3004 B(  2-C ,  4-C ) :  -0.1062
B(  2-C ,  7-C ) :   0.1638 B(  2-C , 34-H ) :   2.0402 B(  2-C , 38-H ) :  -0.1499
B(  3-C ,  4-C ) :   0.5520 B(  3-C ,  5-C ) :   0.6026 B(  3-C ,  6-C ) :   0.1512
B(  3-C ,  7-C ) :   0.2948 B(  3-C ,  9-C ) :  -0.1033 B(  3-C , 13-C ) :  -0.1147
B(  3-C , 21-H ) :  -0.1617 B(  3-C , 23-H ) :  -0.1344 B(  3-C , 34-H ) :  -0.5433
B(  3-C , 36-H ) :  -0.3427 B(  4-C , 21-H ) :   1.1053 B(  4-C , 22-H ) :   1.0292
B(  4-C , 23-H ) :   1.1331 B(  5-C ,  6-C ) :   0.6313 B(  5-C ,  7-C ) :   0.6739
B(  5-C ,  9-C ) :   0.1286 B(  5-C , 35-H ) :  -0.1666 B(  5-C , 36-H ) :   1.1733
B(  6-C ,  7-C ) :  -0.2600 B(  6-C , 24-H ) :   1.0362 B(  6-C , 25-H ) :   0.9803
B(  6-C , 26-H ) :   1.1126 B(  7-C ,  8-C ) :   1.1449 B(  7-C , 11-C ) :  -0.1122
B(  7-C , 13-C ) :   1.4166 B(  7-C , 14-O ) :   0.3492 B(  7-C , 15-C ) :  -0.1669
B(  7-C , 24-H ) :  -0.1336 B(  7-C , 35-H ) :   0.9640 B(  8-C ,  9-C ) :   0.6141
B(  8-C , 10-O ) :   0.2038 B(  8-C , 11-C ) :   0.2560 B(  8-C , 12-C ) :  -0.2470
B(  8-C , 13-C ) :   0.1641 B(  8-C , 27-H ) :   0.1083 B(  8-C , 37-H ) :   0.7915
B(  9-C , 10-O ) :  -0.5452 B(  9-C , 11-C ) :   0.6747 B(  9-C , 12-C ) :   0.1389
B(  9-C , 18-C ) :   0.4195 B(  9-C , 20-O ) :   0.1333 B(  9-C , 27-H ) :  -0.1471
B( 10-O , 18-C ) :   0.1557 B( 10-O , 30-H ) :   0.2528 B( 11-C , 12-C ) :   1.3148
B( 11-C , 15-C ) :  -0.2807 B( 11-C , 16-C ) :   0.1245 B( 11-C , 17-C ) :   0.4985
B( 11-C , 18-C ) :   0.2186 B( 11-C , 20-O ) :  -0.1215 B( 11-C , 27-H ) :   0.1656
B( 11-C , 29-H ) :   0.1796 B( 11-C , 35-H ) :  -0.1449 B( 12-C , 13-C ) :   0.3187
B( 12-C , 15-C ) :  -0.5464 B( 12-C , 17-C ) :  -0.4208 B( 12-C , 18-C ) :  -0.7520
B( 12-C , 27-H ) :  -0.1560 B( 13-C , 15-C ) :   0.8730 B( 13-C , 17-C ) :   0.1529
B( 13-C , 35-H ) :  -0.2244 B( 14-O , 27-H ) :   0.1426 B( 15-C , 16-C ) :   1.1192
B( 15-C , 18-C ) :   0.3900 B( 15-C , 27-H ) :   1.6266 B( 15-C , 28-H ) :  -0.1804
B( 15-C , 29-H ) :   0.1361 B( 16-C , 17-C ) :   1.0497 B( 16-C , 18-C ) :  -0.1228
B( 16-C , 27-H ) :  -0.1787 B( 16-C , 28-H ) :   0.4764 B( 17-C , 18-C ) :   0.9778
B( 17-C , 20-O ) :   0.2680 B( 17-C , 29-H ) :   0.6695 B( 18-C , 20-O ) :   0.1177
B( 18-C , 28-H ) :   0.1266 B( 18-C , 29-H ) :  -0.1445 B( 18-C , 30-H ) :   0.1589
B( 19-C , 31-H ) :   1.0340 B( 19-C , 32-H ) :   0.8957 B( 19-C , 33-H ) :   0.8166
B( 20-O , 30-H ) :   0.9170

MP2 TOTAL ENERGY:     -957.761873994 Eh
FINAL SINGLE POINT ENERGY      -957.761873994310

DIPOLE MOMENT
-------------
                                X             Y             Z
Electronic contribution:    -19.40276      -1.09141      -2.93320
Nuclear contribution   :     20.41952       1.26063       2.96621
                        -----------------------------------------
Total Dipole Moment    :      1.01676       0.16922       0.03302
                        -----------------------------------------
Magnitude (a.u.)       :      1.03127
Magnitude (Debye)      :      2.62128

Rotational constants in cm-1:     0.019179     0.008372     0.007442
Rotational constants in MHz :   574.983749   250.971538   223.097722

                             ****ORCA TERMINATED NORMALLY****
TOTAL RUN TIME: 0 days 1 hours 5 minutes 40 seconds 571 msec
