                         Program Version 4.2.1 -  RELEASE  -
|  1> %pal
|  2>  nprocs 32
|  3> end
|  4> !RI-MP2 aug-cc-pVTZ aug-cc-pVTZ/C TightSCF
|  5> %maxcore 4500
|  6> *xyzfile 0 1  10_72R.xyz
|  7>
|  8>
|  9>                          ****END OF INPUT****

CARTESIAN COORDINATES (ANGSTROEM)
---------------------------------
  C      3.161525    1.527544   -0.579766
  C      4.134055    1.242598    0.586756
  C      5.253709    0.212544    0.312051
  C      4.949829   -1.179260    0.926437
  C      3.613840   -1.721091    0.543085
  C      1.862890    2.079753   -0.055265
  H      4.584900    2.202043    0.853319
  H      3.563770    0.916371    1.459637
  H      3.636617    2.252191   -1.245658
  H      5.752754   -1.847276    0.605406
  H      5.007245   -1.085279    2.015013
  H      6.160693    0.559087    0.811477
  O      5.609619    0.127786   -1.053436
  H      4.794767    0.000536   -1.559383
  O      2.935711    0.396001   -1.421347
  H      2.351121   -0.212595   -0.955132
  C      0.669709    1.736418   -0.537803
  C      2.546061   -1.688864    1.344579
  C     -0.639540    2.096288    0.017249
  C     -0.661781    2.957937    1.247254
  H     -0.137310    3.899165    1.063397
  H     -0.149335    2.463658    2.077673
  H     -1.671479    3.199205    1.571246
  C     -1.726007    1.581833   -0.574088
  C     -1.544597   -1.660093   -0.295376
  C     -3.158445    1.657000   -0.137505
  H     -1.562398    0.988041   -1.470912
  H     -1.229991   -0.776302    0.237828
  C     -3.610569    0.293935    0.427345
  H     -3.251080    2.359530    0.693697
  H     -2.864031   -0.054674    1.144817
  C      1.164143   -1.946296    0.953196
  C     -4.048529    2.137836   -1.286624
  H     -3.692935    3.100451   -1.657232
  H     -4.030002    1.424328   -2.111569
  H     -5.085308    2.260827   -0.970982
  C     -4.957963    0.339434    1.133271
  H     -4.919869    1.136565    1.882321
  H     -5.728475    0.613397    0.409752
  C     -5.316696   -0.986228    1.792711
  H     -4.566587   -1.275342    2.534459
  H     -6.279268   -0.920791    2.302706
  H     -5.383756   -1.782631    1.050294
  O     -3.741404   -0.670480   -0.634647
  C     -2.911032   -1.715070   -0.861007
  O     -3.299493   -2.608654   -1.565300
  C     -0.666162   -2.635089   -0.551664
  H     -0.999338   -3.465740   -1.166314
  C      0.726494   -2.613338   -0.123345
  H      1.429749   -3.168758   -0.737140
  H      0.418182   -1.496445    1.602789
  H      3.503022   -2.055373   -0.484980
  H      2.683372   -1.329998    2.361359
  H      0.635825    1.082046   -1.403693
  H      1.948066    2.749791    0.794682

 Total Charge           Charge          ....    0
 Multiplicity           Mult            ....    1
 Number of Electrons    NEL             ....  188
 Basis Dimension        Dim             .... 1840

ORBITAL ENERGIES
----------------

  NO   OCC          E(Eh)            E(eV)
   0   2.0000     -20.589116      -560.2583
   1   2.0000     -20.572645      -559.8101
   2   2.0000     -20.543656      -559.0213
   3   2.0000     -20.526055      -558.5424
   4   2.0000     -11.375277      -309.5370
   5   2.0000     -11.301737      -307.5359
   6   2.0000     -11.299216      -307.4673
   7   2.0000     -11.288416      -307.1734
   8   2.0000     -11.267097      -306.5933
   9   2.0000     -11.262743      -306.4748
  10   2.0000     -11.254118      -306.2401
  11   2.0000     -11.251681      -306.1738
  12   2.0000     -11.249781      -306.1221
  13   2.0000     -11.247186      -306.0515
  14   2.0000     -11.245635      -306.0093
  15   2.0000     -11.241131      -305.8867
  16   2.0000     -11.241102      -305.8859
  17   2.0000     -11.239213      -305.8345
  18   2.0000     -11.236930      -305.7724
  19   2.0000     -11.235949      -305.7457
  20   2.0000     -11.234285      -305.7004
  21   2.0000     -11.233134      -305.6691
  22   2.0000     -11.230528      -305.5982
  23   2.0000     -11.218970      -305.2837
  24   2.0000     -11.217149      -305.2341
  25   2.0000      -1.447219       -39.3808
  26   2.0000      -1.386716       -37.7345
  27   2.0000      -1.352292       -36.7977
  28   2.0000      -1.351768       -36.7835
  29   2.0000      -1.139486       -31.0070
  30   2.0000      -1.138207       -30.9722
  31   2.0000      -1.103511       -30.0281
  32   2.0000      -1.101491       -29.9731
  33   2.0000      -1.069104       -29.0918
  34   2.0000      -1.051823       -28.6215
  35   2.0000      -1.033354       -28.1190
  36   2.0000      -1.005484       -27.3606
  37   2.0000      -0.971145       -26.4262
  38   2.0000      -0.952624       -25.9222
  39   2.0000      -0.942839       -25.6560
  40   2.0000      -0.909414       -24.7464
  41   2.0000      -0.887632       -24.1537
  42   2.0000      -0.852105       -23.1870
  43   2.0000      -0.836042       -22.7499
  44   2.0000      -0.821840       -22.3634
  45   2.0000      -0.795016       -21.6335
  46   2.0000      -0.784427       -21.3453
  47   2.0000      -0.759891       -20.6777
  48   2.0000      -0.735870       -20.0240
  49   2.0000      -0.727546       -19.7975
  50   2.0000      -0.717310       -19.5190
  51   2.0000      -0.708209       -19.2713
  52   2.0000      -0.685580       -18.6556
  53   2.0000      -0.673350       -18.3228
  54   2.0000      -0.669208       -18.2101
  55   2.0000      -0.660718       -17.9791
  56   2.0000      -0.652886       -17.7659
  57   2.0000      -0.643586       -17.5129
  58   2.0000      -0.635823       -17.3016
  59   2.0000      -0.626619       -17.0512
  60   2.0000      -0.621678       -16.9167
  61   2.0000      -0.609969       -16.5981
  62   2.0000      -0.602646       -16.3988
  63   2.0000      -0.600176       -16.3316
  64   2.0000      -0.588642       -16.0178
  65   2.0000      -0.584733       -15.9114
  66   2.0000      -0.580165       -15.7871
  67   2.0000      -0.573462       -15.6047
  68   2.0000      -0.566437       -15.4135
  69   2.0000      -0.561487       -15.2788
  70   2.0000      -0.553419       -15.0593
  71   2.0000      -0.541186       -14.7264
  72   2.0000      -0.538057       -14.6413
  73   2.0000      -0.533959       -14.5298
  74   2.0000      -0.529881       -14.4188
  75   2.0000      -0.526454       -14.3255
  76   2.0000      -0.520195       -14.1552
  77   2.0000      -0.512085       -13.9345
  78   2.0000      -0.506777       -13.7901
  79   2.0000      -0.503718       -13.7069
  80   2.0000      -0.496857       -13.5202
  81   2.0000      -0.494136       -13.4461
  82   2.0000      -0.481783       -13.1100
  83   2.0000      -0.479611       -13.0509
  84   2.0000      -0.473140       -12.8748
  85   2.0000      -0.469532       -12.7766
  86   2.0000      -0.448569       -12.2062
  87   2.0000      -0.444046       -12.0831
  88   2.0000      -0.438055       -11.9201
  89   2.0000      -0.436623       -11.8811
  90   2.0000      -0.419235       -11.4080
  91   2.0000      -0.397147       -10.8069
  92   2.0000      -0.321895        -8.7592
  93   2.0000      -0.314058        -8.5460
  94   0.0000       0.016108         0.4383
  95   0.0000       0.024015         0.6535
  96   0.0000       0.026907         0.7322
  97   0.0000       0.030255         0.8233
  98   0.0000       0.033992         0.9250

MULLIKEN ATOMIC CHARGES
-----------------------
   0 C :    1.122508
   1 C :   -0.691995
   2 C :    0.408558
   3 C :   -0.434567
   4 C :   -0.141627
   5 C :   -0.618890
   6 H :    0.265923
   7 H :    0.235024
   8 H :    0.465664
   9 H :    0.363759
  10 H :    0.118289
  11 H :    0.328994
  12 O :   -0.993175
  13 H :    0.273678
  14 O :   -0.944046
  15 H :    0.316672
  16 C :    0.194842
  17 C :   -0.336272
  18 C :    1.898723
  19 C :   -1.130718
  20 H :    0.119193
  21 H :    0.141337
  22 H :    0.375890
  23 C :   -1.235120
  24 C :    0.533712
  25 C :    0.254230
  26 H :   -0.378919
  27 H :    0.468164
  28 C :    1.120844
  29 H :    0.197320
  30 H :    0.466529
  31 C :    0.399597
  32 C :   -1.281456
  33 H :    0.259636
  34 H :    0.314596
  35 H :    0.251606
  36 C :   -0.866741
  37 H :    0.215136
  38 H :    0.261338
  39 C :   -1.086674
  40 H :    0.261186
  41 H :    0.290254
  42 H :    0.310864
  43 O :   -0.781678
  44 C :    0.584638
  45 O :   -1.256531
  46 C :   -0.607462
  47 H :    0.051196
  48 C :    0.328989
  49 H :    0.011850
  50 H :   -0.409720
  51 H :    0.153013
  52 H :    0.183906
  53 H :   -0.236144
  54 H :   -0.115925
Sum of atomic charges:   -0.0000000

LOEWDIN ATOMIC CHARGES
----------------------
   0 C :   -0.219599
   1 C :    0.323135
   2 C :   -0.218933
   3 C :    0.293812
   4 C :    0.209963
   5 C :    0.260030
   6 H :   -0.139332
   7 H :   -0.173382
   8 H :   -0.136863
   9 H :   -0.144740
  10 H :   -0.153362
  11 H :   -0.148261
  12 O :    0.852664
  13 H :   -0.620766
  14 O :    0.893812
  15 H :   -0.535672
  16 C :    0.215834
  17 C :    0.210010
  18 C :   -0.085986
  19 C :    0.582003
  20 H :   -0.159709
  21 H :   -0.158295
  22 H :   -0.188918
  23 C :    0.235397
  24 C :    0.201632
  25 C :   -0.012594
  26 H :   -0.171270
  27 H :   -0.262630
  28 C :   -0.216153
  29 H :   -0.168034
  30 H :   -0.164361
  31 C :    0.200345
  32 C :    0.608351
  33 H :   -0.156162
  34 H :   -0.160883
  35 H :   -0.167833
  36 C :    0.278846
  37 H :   -0.136463
  38 H :   -0.150403
  39 C :    0.594030
  40 H :   -0.164538
  41 H :   -0.166646
  42 H :   -0.169661
  43 O :    0.613824
  44 C :   -0.827918
  45 O :    0.445107
  46 C :    0.217340
  47 H :   -0.181383
  48 C :    0.213751
  49 H :   -0.182796
  50 H :   -0.183033
  51 H :   -0.168370
  52 H :   -0.180941
  53 H :   -0.195223
  54 H :   -0.178770

  Mayer bond orders larger than 0.100000
B(  0-C ,  1-C ) :   0.8382 B(  0-C ,  5-C ) :   0.3310 B(  0-C ,  8-H ) :   0.8471
B(  0-C , 14-O ) :   0.3470 B(  0-C , 15-H ) :   0.1276 B(  0-C , 53-H ) :  -0.1595
B(  0-C , 54-H ) :  -0.1549 B(  1-C ,  2-C ) :   0.9331 B(  1-C ,  6-H ) :   0.8949
B(  1-C ,  7-H ) :   1.0440 B(  1-C , 12-O ) :   0.1888 B(  2-C ,  3-C ) :   1.0008
B(  2-C ,  4-C ) :   0.1398 B(  2-C , 11-H ) :   0.9669 B(  2-C , 12-O ) :   0.1108
B(  3-C ,  4-C ) :   0.8113 B(  3-C ,  9-H ) :   0.8627 B(  3-C , 10-H ) :   1.1498
B(  3-C , 12-O ) :   0.2283 B(  3-C , 17-C ) :  -0.1148 B(  4-C ,  9-H ) :  -0.1676
B(  4-C , 17-C ) :   1.3298 B(  4-C , 49-H ) :  -0.1811 B(  4-C , 51-H ) :   1.2578
B(  5-C ,  8-H ) :  -0.3418 B(  5-C , 16-C ) :   0.9820 B(  5-C , 18-C ) :   0.3218
B(  5-C , 19-C ) :  -0.1986 B(  5-C , 23-C ) :   0.1139 B(  5-C , 54-H ) :   1.7469
B(  8-H , 16-C ) :   0.1128 B( 12-O , 13-H ) :   0.8488 B( 14-O , 15-H ) :   0.6930
B( 14-O , 16-C ) :  -0.1967 B( 16-C , 18-C ) :   0.4495 B( 16-C , 23-C ) :   0.2703
B( 16-C , 26-H ) :  -0.2521 B( 16-C , 53-H ) :   1.7298 B( 16-C , 54-H ) :  -0.2959
B( 17-C , 31-C ) :   0.3686 B( 17-C , 48-C ) :   0.1961 B( 17-C , 50-H ) :  -0.2010
B( 17-C , 52-H ) :   1.0124 B( 18-C , 19-C ) :   0.2405 B( 18-C , 20-H ) :  -0.2243
B( 18-C , 21-H ) :  -0.2011 B( 18-C , 23-C ) :   1.1918 B( 18-C , 26-H ) :  -0.7214
B( 19-C , 20-H ) :   1.3367 B( 19-C , 21-H ) :   1.2469 B( 19-C , 22-H ) :   0.8349
B( 19-C , 23-C ) :   0.1329 B( 19-C , 54-H ) :  -0.1622 B( 20-H , 21-H ) :   0.1131
B( 22-H , 23-C ) :   0.1095 B( 23-C , 25-C ) :   0.9563 B( 23-C , 26-H ) :   2.5759
B( 23-C , 27-H ) :  -0.1646 B( 23-C , 44-C ) :   0.1557 B( 23-C , 53-H ) :  -0.2078
B( 24-C , 27-H ) :   1.0574 B( 24-C , 30-H ) :  -0.1326 B( 24-C , 43-O ) :  -0.1552
B( 24-C , 46-C ) :   0.9676 B( 24-C , 47-H ) :  -0.2478 B( 24-C , 48-C ) :   0.1923
B( 24-C , 52-H ) :   0.1173 B( 25-C , 28-C ) :   1.0495 B( 25-C , 29-H ) :   0.8804
B( 25-C , 30-H ) :   0.1050 B( 25-C , 32-C ) :   0.4303 B( 25-C , 36-C ) :   0.1157
B( 25-C , 43-O ) :   0.1684 B( 26-H , 53-H ) :  -0.1284 B( 27-H , 44-C ) :   0.2644
B( 27-H , 48-C ) :  -0.1631 B( 28-C , 30-H ) :   0.8156 B( 28-C , 36-C ) :   0.4560
B( 28-C , 38-H ) :  -0.1177 B( 28-C , 45-O ) :   0.1551 B( 28-C , 46-C ) :   0.1220
B( 30-H , 44-C ) :  -0.1183 B( 31-C , 47-H ) :  -0.1044 B( 31-C , 48-C ) :   1.3787
B( 31-C , 50-H ) :   1.9238 B( 31-C , 51-H ) :  -0.1359 B( 31-C , 52-H ) :  -0.1248
B( 32-C , 33-H ) :   1.0667 B( 32-C , 34-H ) :   0.9993 B( 32-C , 35-H ) :   1.0611
B( 36-C , 37-H ) :   1.0577 B( 36-C , 38-H ) :   1.1020 B( 36-C , 39-C ) :   0.7884
B( 39-C , 40-H ) :   0.9961 B( 39-C , 41-H ) :   1.0043 B( 39-C , 42-H ) :   0.9406
B( 43-O , 44-C ) :   1.2196 B( 43-O , 45-O ) :  -0.1173 B( 43-O , 46-C ) :   0.1054
B( 44-C , 45-O ) :   0.4246 B( 44-C , 46-C ) :   0.4901 B( 44-C , 47-H ) :   0.1248
B( 44-C , 48-C ) :  -0.1292 B( 44-C , 49-H ) :  -0.1319 B( 45-O , 47-H ) :   0.1697
B( 46-C , 47-H ) :   1.1527 B( 46-C , 48-C ) :   0.3537 B( 46-C , 49-H ) :  -0.2009
B( 46-C , 50-H ) :   0.2333 B( 47-H , 49-H ) :   0.1226 B( 48-C , 49-H ) :   1.3922
B( 48-C , 50-H ) :  -0.2870 B( 49-H , 50-H ) :   0.1710 B( 53-H , 54-H ) :   0.1204

MP2 TOTAL ENERGY:    -1116.958805505 Eh
FINAL SINGLE POINT ENERGY     -1116.958805505274

DIPOLE MOMENT
-------------
                                X             Y             Z
Electronic contribution:      5.50171     -10.66314      -9.76530
Nuclear contribution   :     -5.15386      11.91569      11.85719
                        -----------------------------------------
Total Dipole Moment    :      0.34786       1.25255       2.09189
                        -----------------------------------------
Magnitude (a.u.)       :      2.46291
Magnitude (Debye)      :      6.26021

Rotational constants in cm-1:     0.012415     0.003880     0.003343
Rotational constants in MHz :   372.179718   116.320758   100.231661

                             ****ORCA TERMINATED NORMALLY****
TOTAL RUN TIME: 0 days 2 hours 8 minutes 13 seconds 894 msec
