                         Program Version 4.2.1 -  RELEASE  -
|  1> %pal
|  2>  nprocs 32
|  3> end
|  4> !RI-MP2 aug-cc-pVTZ aug-cc-pVTZ/C TightSCF
|  5> %maxcore 4500
|  6> *xyzfile 0 1  10_19P.xyz
|  7>
|  8>
|  9>                          ****END OF INPUT****

CARTESIAN COORDINATES (ANGSTROEM)
---------------------------------
  C     -4.400293   -2.615428   -0.047319
  C     -3.350074   -1.870261    0.466791
  C     -3.399088   -0.479336    0.445129
  C     -4.516132    0.150996   -0.091417
  C     -5.567582   -0.593944   -0.607373
  C     -5.510778   -1.979886   -0.587422
  H     -4.353449   -3.697356   -0.022093
  H     -2.492793   -2.374123    0.896919
  H     -4.565580    1.234406   -0.103893
  H     -6.433566   -0.090451   -1.019784
  H     -6.331133   -2.563954   -0.986283
  C     -2.236956    0.345591    0.935569
  C     -1.038469    0.347964   -0.047809
  C     -1.025559    2.338496   -1.431270
  C     -0.056972    2.438301    0.791214
  C     -0.104474    3.445859   -1.926374
  H     -1.983490    2.780908   -1.102693
  H     -1.253599    1.642968   -2.242001
  C      0.906606    3.538459    0.367066
  H     -0.961391    2.900465    1.223294
  H      0.393077    1.824233    1.571074
  C      0.318193    4.358543   -0.777801
  H     -0.610606    4.017255   -2.708563
  H      0.780490    2.986381   -2.376710
  H      1.129383    4.175670    1.226173
  H      1.846911    3.078057    0.048747
  H      1.036706    5.103994   -1.126261
  H     -0.556369    4.910253   -0.413136
  N     -0.390123    1.594487   -0.351624
  N     -0.149614   -0.542403    0.704740
  N     -0.561372   -0.687193    2.007479
  N     -1.685763   -0.213173    2.193479
  C      1.183622   -0.773412    0.368152
  C      1.486349   -1.331659   -0.869619
  C      2.252501   -0.439688    1.194905
  C      2.787874   -1.552792   -1.273557
  C      3.560151   -0.685165    0.815342
  C      3.832070   -1.237412   -0.422590
  F      0.494844   -1.661929   -1.699747
  F      3.039291   -2.084540   -2.466425
  F      5.087764   -1.460055   -0.794688
  F      4.561168   -0.359256    1.628025
  F      2.043142    0.158702    2.365359
  H     -2.579138    1.358970    1.145516
  H     -1.319175   -0.117357   -0.991246

 Total Charge           Charge          ....    0
 Multiplicity           Mult            ....    1
 Number of Electrons    NEL             ....  204
 Basis Dimension        Dim             .... 1679

ORBITAL ENERGIES
----------------

  NO   OCC          E(Eh)            E(eV)
   0   2.0000     -26.350709      -717.0392
   1   2.0000     -26.349071      -716.9947
   2   2.0000     -26.348249      -716.9723
   3   2.0000     -26.347537      -716.9529
   4   2.0000     -26.344370      -716.8667
   5   2.0000     -15.680912      -426.6993
   6   2.0000     -15.632216      -425.3742
   7   2.0000     -15.617342      -424.9695
   8   2.0000     -15.566240      -423.5789
   9   2.0000     -11.372739      -309.4680
  10   2.0000     -11.369975      -309.3928
  11   2.0000     -11.369762      -309.3870
  12   2.0000     -11.368531      -309.3534
  13   2.0000     -11.368408      -309.3501
  14   2.0000     -11.329070      -308.2797
  15   2.0000     -11.318680      -307.9969
  16   2.0000     -11.283683      -307.0446
  17   2.0000     -11.264603      -306.5254
  18   2.0000     -11.259811      -306.3950
  19   2.0000     -11.254116      -306.2401
  20   2.0000     -11.244806      -305.9867
  21   2.0000     -11.243507      -305.9514
  22   2.0000     -11.242945      -305.9361
  23   2.0000     -11.241130      -305.8867
  24   2.0000     -11.240692      -305.8748
  25   2.0000     -11.229313      -305.5651
  26   2.0000     -11.228405      -305.5404
  27   2.0000     -11.227615      -305.5189
  28   2.0000      -1.681521       -45.7565
  29   2.0000      -1.674756       -45.5724
  30   2.0000      -1.668542       -45.4033
  31   2.0000      -1.660209       -45.1766
  32   2.0000      -1.656238       -45.0685
  33   2.0000      -1.451064       -39.4855
  34   2.0000      -1.279102       -34.8061
  35   2.0000      -1.247512       -33.9465
  36   2.0000      -1.197368       -32.5820
  37   2.0000      -1.172312       -31.9002
  38   2.0000      -1.107512       -30.1369
  39   2.0000      -1.074813       -29.2471
  40   2.0000      -1.071333       -29.1524
  41   2.0000      -1.061956       -28.8973
  42   2.0000      -1.033609       -28.1259
  43   2.0000      -1.027264       -27.9533
  44   2.0000      -1.006138       -27.3784
  45   2.0000      -0.939276       -25.5590
  46   2.0000      -0.923104       -25.1189
  47   2.0000      -0.911175       -24.7943
  48   2.0000      -0.868492       -23.6329
  49   2.0000      -0.864601       -23.5270
  50   2.0000      -0.843656       -22.9570
  51   2.0000      -0.840819       -22.8799
  52   2.0000      -0.833821       -22.6894
  53   2.0000      -0.819842       -22.3090
  54   2.0000      -0.815661       -22.1953
  55   2.0000      -0.790750       -21.5174
  56   2.0000      -0.769792       -20.9471
  57   2.0000      -0.764258       -20.7965
  58   2.0000      -0.762903       -20.7596
  59   2.0000      -0.761214       -20.7137
  60   2.0000      -0.749297       -20.3894
  61   2.0000      -0.744281       -20.2529
  62   2.0000      -0.740503       -20.1501
  63   2.0000      -0.730548       -19.8792
  64   2.0000      -0.719148       -19.5690
  65   2.0000      -0.715998       -19.4833
  66   2.0000      -0.711442       -19.3593
  67   2.0000      -0.696266       -18.9464
  68   2.0000      -0.694037       -18.8857
  69   2.0000      -0.688289       -18.7293
  70   2.0000      -0.680028       -18.5045
  71   2.0000      -0.651642       -17.7321
  72   2.0000      -0.647548       -17.6207
  73   2.0000      -0.641189       -17.4476
  74   2.0000      -0.635136       -17.2829
  75   2.0000      -0.628498       -17.1023
  76   2.0000      -0.622167       -16.9300
  77   2.0000      -0.612716       -16.6728
  78   2.0000      -0.606737       -16.5102
  79   2.0000      -0.598586       -16.2883
  80   2.0000      -0.596270       -16.2253
  81   2.0000      -0.584514       -15.9054
  82   2.0000      -0.571423       -15.5492
  83   2.0000      -0.568265       -15.4633
  84   2.0000      -0.555962       -15.1285
  85   2.0000      -0.549147       -14.9430
  86   2.0000      -0.535699       -14.5771
  87   2.0000      -0.521455       -14.1895
  88   2.0000      -0.512663       -13.9503
  89   2.0000      -0.507747       -13.8165
  90   2.0000      -0.503730       -13.7072
  91   2.0000      -0.500652       -13.6234
  92   2.0000      -0.481024       -13.0893
  93   2.0000      -0.467775       -12.7288
  94   2.0000      -0.460984       -12.5440
  95   2.0000      -0.439132       -11.9494
  96   2.0000      -0.421083       -11.4583
  97   2.0000      -0.378247       -10.2926
  98   2.0000      -0.373797       -10.1715
  99   2.0000      -0.351135        -9.5549
 100   2.0000      -0.346318        -9.4238
 101   2.0000      -0.334363        -9.0985
 102   0.0000       0.020771         0.5652
 103   0.0000       0.025965         0.7065
 104   0.0000       0.030034         0.8173
 105   0.0000       0.031804         0.8654
 106   0.0000       0.037643         1.0243

MULLIKEN ATOMIC CHARGES
-----------------------
   0 C :   -0.855205
   1 C :   -0.572422
   2 C :    1.420248
   3 C :   -0.926340
   4 C :   -0.862009
   5 C :   -0.036766
   6 H :    0.414333
   7 H :    0.310359
   8 H :   -0.181734
   9 H :    0.637847
  10 H :    0.451217
  11 C :    0.753681
  12 C :   -0.636224
  13 C :   -0.790909
  14 C :   -0.626979
  15 C :   -0.712289
  16 H :    0.269808
  17 H :    0.285499
  18 C :   -0.748339
  19 H :    0.148062
  20 H :    0.465372
  21 C :   -0.507489
  22 H :    0.313273
  23 H :    0.112786
  24 H :    0.307436
  25 H :    0.163584
  26 H :    0.324798
  27 H :    0.113135
  28 N :    0.589109
  29 N :    0.844588
  30 N :   -0.684018
  31 N :   -0.899351
  32 C :    0.662463
  33 C :    0.584911
  34 C :    0.782577
  35 C :    0.238810
  36 C :    0.204071
  37 C :    0.617721
  38 F :   -0.609665
  39 F :   -0.477631
  40 F :   -0.469668
  41 F :   -0.490626
  42 F :   -0.634700
  43 H :    0.244842
  44 H :    0.461832
Sum of atomic charges:    0.0000000

LOEWDIN ATOMIC CHARGES
----------------------
   0 C :    0.210234
   1 C :    0.221276
   2 C :   -0.109879
   3 C :    0.222729
   4 C :    0.203600
   5 C :    0.198797
   6 H :   -0.178760
   7 H :   -0.179522
   8 H :   -0.173044
   9 H :   -0.180680
  10 H :   -0.182166
  11 C :   -0.135859
  12 C :   -0.199919
  13 C :    0.179137
  14 C :    0.173867
  15 C :    0.304591
  16 H :   -0.120048
  17 H :   -0.137786
  18 C :    0.307342
  19 H :   -0.127325
  20 H :   -0.174360
  21 C :    0.294426
  22 H :   -0.137164
  23 H :   -0.136792
  24 H :   -0.134356
  25 H :   -0.136383
  26 H :   -0.138518
  27 H :   -0.139076
  28 N :    0.320235
  29 N :    0.117505
  30 N :    0.147787
  31 N :    0.267195
  32 C :   -0.258226
  33 C :   -0.500613
  34 C :   -0.506025
  35 C :   -0.526786
  36 C :   -0.529485
  37 C :   -0.534439
  38 F :    0.559114
  39 F :    0.535196
  40 F :    0.537364
  41 F :    0.536100
  42 F :    0.558166
  43 H :   -0.163332
  44 H :   -0.154115

  Mayer bond orders larger than 0.100000
B(  0-C ,  1-C ) :   1.4076 B(  0-C ,  4-C ) :   0.2516 B(  0-C ,  5-C ) :   1.0844
B(  0-C ,  6-H ) :   0.8620 B(  0-C , 10-H ) :  -0.1598 B(  0-C , 12-C ) :  -0.1191
B(  1-C ,  2-C ) :   0.4250 B(  1-C ,  3-C ) :  -0.5189 B(  1-C ,  5-C ) :  -0.1025
B(  1-C ,  7-H ) :   1.0945 B(  1-C , 11-C ) :   0.2341 B(  1-C , 12-C ) :   0.1059
B(  1-C , 28-N ) :  -0.1128 B(  1-C , 29-N ) :  -0.1879 B(  2-C ,  7-H ) :  -0.1984
B(  2-C ,  8-H ) :  -0.3575 B(  2-C , 11-C ) :   0.4450 B(  2-C , 12-C ) :   0.1758
B(  2-C , 28-N ) :   0.1328 B(  2-C , 31-N ) :   0.1666 B(  3-C ,  4-C ) :   1.3649
B(  3-C ,  5-C ) :  -0.2213 B(  3-C ,  7-H ) :   0.2260 B(  3-C ,  8-H ) :   2.0799
B(  3-C ,  9-H ) :  -0.1747 B(  3-C , 10-H ) :   0.2490 B(  3-C , 11-C ) :   0.3027
B(  3-C , 12-C ) :   0.1800 B(  3-C , 43-H ) :  -0.2059 B(  4-C ,  5-C ) :   1.0625
B(  4-C ,  8-H ) :  -0.1429 B(  4-C ,  9-H ) :   0.4619 B(  4-C , 10-H ) :  -0.1978
B(  4-C , 12-C ) :   0.1163 B(  5-C , 10-H ) :   0.8133 B(  7-H ,  8-H ) :   0.1139
B(  7-H , 11-C ) :  -0.1193 B(  7-H , 12-C ) :   0.1379 B(  7-H , 29-N ) :  -0.1452
B(  8-H ,  9-H ) :  -0.1178 B(  8-H , 10-H ) :   0.1094 B(  8-H , 11-C ) :  -0.1527
B(  8-H , 12-C ) :  -0.1064 B(  8-H , 29-N ) :   0.1321 B(  8-H , 43-H ) :  -0.1658
B( 11-C , 12-C ) :   0.7673 B( 11-C , 28-N ) :  -0.1523 B( 11-C , 31-N ) :   0.5797
B( 11-C , 32-C ) :   0.1043 B( 11-C , 43-H ) :   1.0110 B( 12-C , 13-C ) :  -0.2168
B( 12-C , 14-C ) :  -0.2503 B( 12-C , 20-H ) :  -0.1354 B( 12-C , 28-N ) :   1.1584
B( 12-C , 29-N ) :   0.9756 B( 12-C , 30-N ) :   0.6854 B( 12-C , 31-N ) :   0.3256
B( 12-C , 33-C ) :   0.2969 B( 12-C , 34-C ) :   0.1139 B( 12-C , 38-F ) :  -0.4269
B( 12-C , 43-H ) :   0.1132 B( 12-C , 44-H ) :   0.6869 B( 13-C , 15-C ) :   1.0196
B( 13-C , 16-H ) :   1.0145 B( 13-C , 17-H ) :   1.0388 B( 13-C , 28-N ) :   0.4461
B( 14-C , 18-C ) :   0.9588 B( 14-C , 19-H ) :   1.1375 B( 14-C , 20-H ) :   0.7970
B( 14-C , 28-N ) :   0.6218 B( 15-C , 18-C ) :   0.1088 B( 15-C , 21-C ) :   0.9575
B( 15-C , 22-H ) :   0.8947 B( 15-C , 23-H ) :   1.1749 B( 15-C , 28-N ) :  -0.1306
B( 16-H , 28-N ) :  -0.1057 B( 18-C , 21-C ) :   0.9120 B( 18-C , 24-H ) :   0.9288
B( 18-C , 25-H ) :   1.1255 B( 21-C , 26-H ) :   0.9022 B( 21-C , 27-H ) :   1.0599
B( 21-C , 28-N ) :  -0.1003 B( 28-N , 33-C ) :  -0.1452 B( 28-N , 34-C ) :  -0.1625
B( 28-N , 38-F ) :   0.1159 B( 28-N , 44-H ) :  -0.2025 B( 29-N , 31-N ) :  -0.2657
B( 29-N , 32-C ) :   0.3915 B( 29-N , 34-C ) :  -0.4167 B( 29-N , 35-C ) :   0.1606
B( 29-N , 36-C ) :   0.1459 B( 30-N , 31-N ) :   0.7719 B( 30-N , 32-C ) :  -0.5867
B( 30-N , 34-C ) :   0.1083 B( 31-N , 32-C ) :  -0.1227 B( 32-C , 33-C ) :   1.0518
B( 32-C , 34-C ) :   1.2579 B( 32-C , 36-C ) :  -0.1076 B( 32-C , 38-F ) :   0.4548
B( 32-C , 42-F ) :   0.3257 B( 33-C , 34-C ) :  -0.2202 B( 33-C , 35-C ) :   0.9294
B( 33-C , 38-F ) :   0.1949 B( 33-C , 39-F ) :   0.4045 B( 34-C , 36-C ) :   1.0184
B( 34-C , 41-F ) :   0.3495 B( 34-C , 42-F ) :   0.2154 B( 35-C , 37-C ) :   1.2402
B( 35-C , 40-F ) :   0.2296 B( 36-C , 37-C ) :   1.2864 B( 36-C , 40-F ) :   0.2043
B( 37-C , 40-F ) :   0.1255 B( 37-C , 41-F ) :   0.1054 B( 38-F , 39-F ) :   0.1573
B( 39-F , 40-F ) :   0.1437 B( 40-F , 41-F ) :   0.1398 B( 41-F , 42-F ) :   0.1292

MP2 TOTAL ENERGY:    -1449.949085926 Eh
FINAL SINGLE POINT ENERGY     -1449.949085925602

DIPOLE MOMENT
-------------
                                X             Y             Z
Electronic contribution:     40.83711     -30.48307       4.81442
Nuclear contribution   :    -41.86113      31.42551      -5.79842
                        -----------------------------------------
Total Dipole Moment    :     -1.02402       0.94244      -0.98400
                        -----------------------------------------
Magnitude (a.u.)       :      1.70442
Magnitude (Debye)      :      4.33230

Rotational constants in cm-1:     0.008555     0.004091     0.003547
Rotational constants in MHz :   256.485040   122.645965   106.330103

                             ****ORCA TERMINATED NORMALLY****
TOTAL RUN TIME: 0 days 1 hours 42 minutes 49 seconds 868 msec
