                         Program Version 4.2.1 -  RELEASE  -
|  1> %pal
|  2>  nprocs 32
|  3> end
|  4> !RI-MP2 aug-cc-pVTZ aug-cc-pVTZ/C TightSCF
|  5> %maxcore 4500
|  6> *xyzfile 1 1  05_12TS.xyz
|  7>
|  8>
|  9>                          ****END OF INPUT****

CARTESIAN COORDINATES (ANGSTROEM)
---------------------------------
  C      0.339672   -0.703234   -0.578206
  C      0.667074    1.846389    0.093706
  C      2.148944    1.659494   -0.250837
  C      2.639021    0.242446   -0.018370
  C      1.835550   -0.708524   -0.897352
  H      2.303452    1.925523   -1.301984
  H      2.720634    2.368729    0.351323
  H      2.506412   -0.040089    1.027218
  H      1.985096   -0.430944   -1.945213
  H      2.205719   -1.725376   -0.766466
  N     -0.124296    0.709368   -0.468565
  O     -1.366470    0.908612   -0.604078
  C     -0.438368   -1.364607   -1.715239
  H     -0.032013   -2.363415   -1.877977
  H     -1.497241   -1.456200   -1.479566
  H     -0.334299   -0.796500   -2.640588
  C      0.050918   -1.439362    0.741899
  H     -1.007112   -1.379412    0.993171
  H      0.310438   -2.490804    0.612630
  H      0.637394   -1.060139    1.576236
  C      0.153148    3.138025   -0.539302
  H     -0.865588    3.365155   -0.230047
  H      0.796342    3.960589   -0.224648
  H      0.180400    3.076776   -1.627867
  C      0.447796    1.890782    1.614154
  H      0.892351    2.806785    2.005094
  H     -0.615819    1.915554    1.855898
  H      0.903433    1.047998    2.129999
  C     -4.560597   -1.207746   -1.043315
  C     -4.186617   -2.032827   -0.025217
  C     -3.782547   -1.675269    1.292362
  C     -4.657935    0.212722   -1.032107
  C     -3.408755   -0.454136    1.752535
  C     -4.150473    1.084684   -0.123320
  C     -3.292812    0.779785    1.003959
  H     -4.906103   -1.690117   -1.951048
  H     -4.271895   -3.097595   -0.212977
  H     -3.750962   -2.489953    2.007787
  H     -5.205497    0.647599   -1.861203
  H     -3.112234   -0.395133    2.794480
  H     -4.338468    2.138340   -0.297239
  H     -3.111856    1.643276    1.641675
  H     -2.136422    0.746355    0.387386
  N      4.059649    0.137638   -0.276817
  C      4.773771   -0.899775    0.254343
  C      6.242700   -0.939800   -0.071408
  H      6.805501   -0.915483    0.862085
  H      6.466359   -1.886872   -0.563071
  H      6.569456   -0.117501   -0.708214
  O      4.231889   -1.733610    0.955397
  H      4.508746    0.789518   -0.899460

 Total Charge           Charge          ....    1
 Multiplicity           Mult            ....    1
 Number of Electrons    NEL             ....  166
 Basis Dimension        Dim             .... 1679

ORBITAL ENERGIES
----------------

  NO   OCC          E(Eh)            E(eV)
   0   2.0000     -20.801161      -566.0284
   1   2.0000     -20.600099      -560.5572
   2   2.0000     -15.815467      -430.3607
   3   2.0000     -15.676133      -426.5693
   4   2.0000     -11.433545      -311.1226
   5   2.0000     -11.414756      -310.6113
   6   2.0000     -11.414131      -310.5943
   7   2.0000     -11.407012      -310.4006
   8   2.0000     -11.393968      -310.0456
   9   2.0000     -11.393589      -310.0353
  10   2.0000     -11.390366      -309.9476
  11   2.0000     -11.390134      -309.9413
  12   2.0000     -11.388299      -309.8914
  13   2.0000     -11.386902      -309.8533
  14   2.0000     -11.374552      -309.5173
  15   2.0000     -11.348506      -308.8085
  16   2.0000     -11.343911      -308.6835
  17   2.0000     -11.335967      -308.4674
  18   2.0000     -11.335281      -308.4487
  19   2.0000     -11.334161      -308.4182
  20   2.0000     -11.331334      -308.3413
  21   2.0000     -11.311763      -307.8087
  22   2.0000      -1.643183       -44.7133
  23   2.0000      -1.470114       -40.0038
  24   2.0000      -1.336991       -36.3814
  25   2.0000      -1.304947       -35.5094
  26   2.0000      -1.288679       -35.0667
  27   2.0000      -1.233026       -33.5524
  28   2.0000      -1.203922       -32.7604
  29   2.0000      -1.200788       -32.6751
  30   2.0000      -1.161028       -31.5932
  31   2.0000      -1.115934       -30.3661
  32   2.0000      -1.077654       -29.3245
  33   2.0000      -1.070187       -29.1213
  34   2.0000      -1.058029       -28.7904
  35   2.0000      -1.057215       -28.7683
  36   2.0000      -1.053307       -28.6619
  37   2.0000      -1.028136       -27.9770
  38   2.0000      -0.956729       -26.0339
  39   2.0000      -0.951251       -25.8848
  40   2.0000      -0.908885       -24.7320
  41   2.0000      -0.885503       -24.0958
  42   2.0000      -0.869681       -23.6652
  43   2.0000      -0.859616       -23.3913
  44   2.0000      -0.852080       -23.1863
  45   2.0000      -0.814298       -22.1582
  46   2.0000      -0.810326       -22.0501
  47   2.0000      -0.804376       -21.8882
  48   2.0000      -0.778215       -21.1763
  49   2.0000      -0.765309       -20.8251
  50   2.0000      -0.761314       -20.7164
  51   2.0000      -0.760531       -20.6951
  52   2.0000      -0.737371       -20.0649
  53   2.0000      -0.725866       -19.7518
  54   2.0000      -0.712258       -19.3815
  55   2.0000      -0.711867       -19.3709
  56   2.0000      -0.700775       -19.0690
  57   2.0000      -0.700177       -19.0528
  58   2.0000      -0.692022       -18.8309
  59   2.0000      -0.689327       -18.7575
  60   2.0000      -0.685511       -18.6537
  61   2.0000      -0.684574       -18.6282
  62   2.0000      -0.668373       -18.1874
  63   2.0000      -0.658647       -17.9227
  64   2.0000      -0.654517       -17.8103
  65   2.0000      -0.651409       -17.7257
  66   2.0000      -0.644663       -17.5422
  67   2.0000      -0.642028       -17.4705
  68   2.0000      -0.640224       -17.4214
  69   2.0000      -0.633385       -17.2353
  70   2.0000      -0.630108       -17.1461
  71   2.0000      -0.623305       -16.9610
  72   2.0000      -0.614512       -16.7217
  73   2.0000      -0.600871       -16.3505
  74   2.0000      -0.599963       -16.3258
  75   2.0000      -0.592713       -16.1285
  76   2.0000      -0.577131       -15.7045
  77   2.0000      -0.572656       -15.5828
  78   2.0000      -0.545281       -14.8378
  79   2.0000      -0.516587       -14.0571
  80   2.0000      -0.508360       -13.8332
  81   2.0000      -0.483856       -13.1664
  82   2.0000      -0.403495       -10.9797
  83   0.0000      -0.154045        -4.1918
  84   0.0000      -0.080031        -2.1777
  85   0.0000      -0.060032        -1.6336
  86   0.0000      -0.050569        -1.3761
  87   0.0000      -0.049713        -1.3528

MULLIKEN ATOMIC CHARGES
-----------------------
   0 C :    1.940586
   1 C :    1.829200
   2 C :   -1.322518
   3 C :    1.256397
   4 C :   -1.159323
   5 H :    0.189927
   6 H :    0.358803
   7 H :    0.554038
   8 H :    0.184924
   9 H :    0.380732
  10 N :    1.228259
  11 O :   -1.163956
  12 C :   -2.070002
  13 H :    0.130897
  14 H :    0.719357
  15 H :    0.162448
  16 C :   -1.524673
  17 H :    0.895570
  18 H :    0.042982
  19 H :    0.266446
  20 C :   -1.796861
  21 H :    0.321891
  22 H :    0.130598
  23 H :    0.221432
  24 C :   -1.416442
  25 H :    0.095599
  26 H :    0.461394
  27 H :    0.323292
  28 C :   -0.089884
  29 C :   -0.012163
  30 C :   -0.299131
  31 C :   -0.027672
  32 C :   -0.507633
  33 C :   -0.486776
  34 C :    0.512023
  35 H :    0.141950
  36 H :    0.039501
  37 H :    0.373720
  38 H :    0.297496
  39 H :    0.128705
  40 H :    0.182804
  41 H :    0.404697
  42 H :    0.105204
  43 N :   -0.630531
  44 C :    0.719541
  45 C :   -0.891501
  46 H :    0.326070
  47 H :    0.322036
  48 H :    0.272051
  49 O :   -1.043275
  50 H :   -0.078227
Sum of atomic charges:    1.0000000

LOEWDIN ATOMIC CHARGES
----------------------
   0 C :   -0.367110
   1 C :   -0.367604
   2 C :    0.334284
   3 C :   -0.104329
   4 C :    0.334302
   5 H :   -0.122509
   6 H :   -0.114066
   7 H :   -0.163517
   8 H :   -0.120241
   9 H :   -0.130530
  10 N :    0.103439
  11 O :    0.721667
  12 C :    0.608280
  13 H :   -0.140466
  14 H :   -0.177737
  15 H :   -0.143978
  16 C :    0.638975
  17 H :   -0.190479
  18 H :   -0.131208
  19 H :   -0.167454
  20 C :    0.605206
  21 H :   -0.160301
  22 H :   -0.143337
  23 H :   -0.145047
  24 C :    0.631113
  25 H :   -0.136716
  26 H :   -0.163515
  27 H :   -0.170507
  28 C :    0.247309
  29 C :    0.245670
  30 C :    0.244343
  31 C :    0.258838
  32 C :    0.270652
  33 C :    0.278654
  34 C :    0.225441
  35 H :   -0.169419
  36 H :   -0.169127
  37 H :   -0.164009
  38 H :   -0.165740
  39 H :   -0.154809
  40 H :   -0.152744
  41 H :   -0.131607
  42 H :   -0.511876
  43 N :    0.592642
  44 C :   -0.661578
  45 C :    0.612347
  46 H :   -0.164735
  47 H :   -0.165304
  48 H :   -0.178878
  49 O :    0.470014
  50 H :   -0.272699

  Mayer bond orders larger than 0.100000
B(  0-C , 10-N ) :   0.7111 B(  0-C , 12-C ) :   0.1898 B(  0-C , 13-H ) :  -0.1575
B(  0-C , 15-H ) :  -0.1728 B(  0-C , 16-C ) :   0.5490 B(  1-C ,  2-C ) :   0.2453
B(  1-C ,  3-C ) :   0.1180 B(  1-C , 10-N ) :   0.6158 B(  1-C , 20-C ) :   0.1573
B(  1-C , 22-H ) :  -0.1819 B(  1-C , 23-H ) :  -0.1368 B(  1-C , 24-C ) :   0.3980
B(  1-C , 25-H ) :  -0.1005 B(  2-C ,  3-C ) :   0.5263 B(  2-C ,  4-C ) :   0.2987
B(  2-C ,  5-H ) :   1.2718 B(  2-C ,  6-H ) :   0.8169 B(  2-C , 10-N ) :   0.1201
B(  2-C , 20-C ) :  -0.1489 B(  2-C , 43-N ) :   0.1878 B(  3-C ,  4-C ) :   0.7920
B(  3-C ,  7-H ) :   0.8522 B(  3-C , 10-N ) :  -0.2718 B(  4-C ,  7-H ) :   0.2155
B(  4-C ,  8-H ) :   1.2148 B(  4-C ,  9-H ) :   0.9394 B(  4-C , 43-N ) :   0.1631
B(  7-H , 43-N ) :  -0.4292 B(  7-H , 44-C ) :  -0.1477 B(  7-H , 49-O ) :  -0.2267
B( 10-N , 11-O ) :  -0.3367 B( 10-N , 12-C ) :  -0.2531 B( 10-N , 15-H ) :  -0.1209
B( 10-N , 20-C ) :  -0.4154 B( 10-N , 23-H ) :  -0.1649 B( 11-O , 12-C ) :   0.1556
B( 11-O , 20-C ) :   0.2158 B( 11-O , 42-H ) :   0.1284 B( 12-C , 13-H ) :   1.3675
B( 12-C , 14-H ) :   0.4849 B( 12-C , 15-H ) :   1.3604 B( 16-C , 17-H ) :   0.2647
B( 16-C , 18-H ) :   1.3741 B( 16-C , 19-H ) :   1.1575 B( 17-H , 18-H ) :  -0.1065
B( 20-C , 21-H ) :   0.9998 B( 20-C , 22-H ) :   1.3346 B( 20-C , 23-H ) :   1.2410
B( 20-C , 24-C ) :   0.1233 B( 24-C , 25-H ) :   1.2488 B( 24-C , 26-H ) :   0.8085
B( 24-C , 27-H ) :   1.0678 B( 28-C , 29-C ) :   1.3689 B( 28-C , 30-C ) :   0.1158
B( 28-C , 31-C ) :   0.9409 B( 28-C , 32-C ) :   0.1092 B( 28-C , 35-H ) :   1.2096
B( 28-C , 36-H ) :  -0.1024 B( 28-C , 38-H ) :  -0.1102 B( 29-C , 30-C ) :   1.0348
B( 29-C , 32-C ) :  -0.1009 B( 29-C , 36-H ) :   1.2987 B( 30-C , 32-C ) :   1.5359
B( 30-C , 36-H ) :  -0.1850 B( 30-C , 37-H ) :   0.8630 B( 30-C , 39-H ) :  -0.1267
B( 31-C , 33-C ) :   1.4161 B( 31-C , 35-H ) :  -0.1605 B( 31-C , 38-H ) :   0.9599
B( 31-C , 40-H ) :  -0.1106 B( 32-C , 33-C ) :   0.2436 B( 32-C , 34-C ) :   0.9505
B( 32-C , 36-H ) :   0.1267 B( 32-C , 37-H ) :  -0.1737 B( 32-C , 39-H ) :   1.2783
B( 32-C , 41-H ) :  -0.1298 B( 32-C , 42-H ) :   0.1895 B( 33-C , 34-C ) :   0.9594
B( 33-C , 38-H ) :  -0.1474 B( 33-C , 40-H ) :   1.1795 B( 33-C , 41-H ) :  -0.1374
B( 33-C , 42-H ) :   0.3696 B( 34-C , 39-H ) :  -0.1291 B( 34-C , 40-H ) :  -0.1471
B( 34-C , 41-H ) :   0.9859 B( 34-C , 42-H ) :   0.5096 B( 43-N , 44-C ) :   1.1989
B( 43-N , 50-H ) :   1.2960 B( 44-C , 45-C ) :   0.4572 B( 44-C , 49-O ) :   1.4722
B( 45-C , 46-H ) :   0.9897 B( 45-C , 47-H ) :   0.9813 B( 45-C , 48-H ) :   0.9998
B( 45-C , 49-O ) :  -0.1320

MP2 TOTAL ENERGY:     -961.106815289 Eh
FINAL SINGLE POINT ENERGY      -961.106815289453

DIPOLE MOMENT
-------------
                                X             Y             Z
Electronic contribution:     -7.10385      -3.10302      -0.18029
Nuclear contribution   :      4.79993       4.19834      -0.35058
                        -----------------------------------------
Total Dipole Moment    :     -2.30392       1.09532      -0.53088
                        -----------------------------------------
Magnitude (a.u.)       :      2.60569
Magnitude (Debye)      :      6.62314

Rotational constants in cm-1:     0.018797     0.004900     0.004451
Rotational constants in MHz :   563.526239   146.885188   133.444846

                             ****ORCA TERMINATED NORMALLY****
TOTAL RUN TIME: 0 days 2 hours 14 minutes 39 seconds 221 msec
