                         Program Version 4.2.1 -  RELEASE  -
|  1> %pal
|  2>  nprocs 32
|  3> end
|  4> !RI-MP2 aug-cc-pVTZ aug-cc-pVTZ/C TightSCF
|  5> %maxcore 4500
|  6> *xyzfile 0 2  03_22R2.xyz
|  7>
|  8>
|  9>                          ****END OF INPUT****

CARTESIAN COORDINATES (ANGSTROEM)
---------------------------------
  C     -0.773908    0.012196   -0.080600
  C      0.080048    1.224258    0.116083
  C      0.067826   -1.226459   -0.127726
  C     -2.253756    0.005553    0.018628
  C      1.496480    0.730204   -0.212062
  C      1.481043   -0.737493    0.233972
  H      0.030688    1.577125    1.160312
  H     -0.234670    2.071847   -0.502565
  H      0.052933   -1.674632   -1.133093
  H     -0.292850   -2.008365    0.551816
  H     -2.688234    0.941350   -0.343726
  H     -2.595730   -0.120152    1.058633
  H     -2.693366   -0.816007   -0.554654
  H      2.281350    1.314394    0.271550
  H      1.661482    0.786848   -1.292201
  H      1.618624   -0.789960    1.318226
  H      2.273376   -1.331993   -0.224065

 Total Charge           Charge          ....    0
 Multiplicity           Mult            ....    2
 Number of Electrons    NEL             ....   47
 Basis Dimension        Dim             ....  529

ORBITAL ENERGIES
----------------
                 SPIN UP ORBITALS
  NO   OCC          E(Eh)            E(eV)
   0   1.0000     -11.215976      -305.2022
   1   1.0000     -11.213630      -305.1384
   2   1.0000     -11.213027      -305.1220
   3   1.0000     -11.212211      -305.0998
   4   1.0000     -11.212191      -305.0992
   5   1.0000     -11.211699      -305.0858
   6   1.0000      -1.131917       -30.8010
   7   1.0000      -1.009463       -27.4689
   8   1.0000      -0.961740       -26.1703
   9   1.0000      -0.893275       -24.3073
  10   1.0000      -0.780615       -21.2416
  11   1.0000      -0.729990       -19.8640
  12   1.0000      -0.652847       -17.7649
  13   1.0000      -0.633366       -17.2348
  14   1.0000      -0.580918       -15.8076
  15   1.0000      -0.570449       -15.5227
  16   1.0000      -0.563281       -15.3277
  17   1.0000      -0.516463       -14.0537
  18   1.0000      -0.485272       -13.2049
  19   1.0000      -0.482724       -13.1356
  20   1.0000      -0.465076       -12.6554
  21   1.0000      -0.457920       -12.4606
  22   1.0000      -0.456939       -12.4339
  23   1.0000      -0.299708        -8.1555
  24   0.0000       0.031227         0.8497
  25   0.0000       0.035101         0.9551
  26   0.0000       0.037954         1.0328
  27   0.0000       0.039205         1.0668
  28   0.0000       0.053184         1.4472

                 SPIN DOWN ORBITALS
  NO   OCC          E(Eh)            E(eV)
   0   1.0000     -11.215711      -305.1950
   1   1.0000     -11.215678      -305.1941
   2   1.0000     -11.215019      -305.1762
   3   1.0000     -11.213266      -305.1285
   4   1.0000     -11.212588      -305.1100
   5   1.0000     -11.191283      -304.5303
   6   1.0000      -1.111871       -30.2555
   7   1.0000      -0.990389       -26.9499
   8   1.0000      -0.961806       -26.1721
   9   1.0000      -0.886950       -24.1351
  10   1.0000      -0.778524       -21.1847
  11   1.0000      -0.695070       -18.9138
  12   1.0000      -0.635891       -17.3035
  13   1.0000      -0.623039       -16.9538
  14   1.0000      -0.564151       -15.3513
  15   1.0000      -0.560980       -15.2650
  16   1.0000      -0.547388       -14.8952
  17   1.0000      -0.503229       -13.6936
  18   1.0000      -0.478998       -13.0342
  19   1.0000      -0.477762       -13.0006
  20   1.0000      -0.464255       -12.6330
  21   1.0000      -0.454046       -12.3552
  22   1.0000      -0.451193       -12.2776
  23   0.0000       0.031359         0.8533
  24   0.0000       0.035188         0.9575
  25   0.0000       0.037952         1.0327
  26   0.0000       0.038903         1.0586
  27   0.0000       0.053257         1.4492

MULLIKEN ATOMIC CHARGES AND SPIN POPULATIONS
--------------------------------------------
   0 C :    0.443327    1.359081
   1 C :   -0.687332   -0.239777
   2 C :   -0.526742   -0.226438
   3 C :   -0.949110   -0.221098
   4 C :   -0.493766    0.024575
   5 C :   -0.555552    0.023773
   6 H :    0.186279    0.060331
   7 H :    0.293483    0.030534
   8 H :    0.207336    0.052954
   9 H :    0.292406    0.036872
  10 H :    0.257014    0.014432
  11 H :    0.256396    0.069812
  12 H :    0.259906    0.017031
  13 H :    0.297418   -0.000303
  14 H :    0.214223   -0.001019
  15 H :    0.193751    0.000038
  16 H :    0.310961   -0.000799
Sum of atomic charges         :    0.0000000

LOEWDIN ATOMIC CHARGES AND SPIN POPULATIONS
-------------------------------------------
   0 C :   -0.031723    0.534040
   1 C :    0.273145    0.108771
   2 C :    0.277768    0.107231
   3 C :    0.568001    0.109664
   4 C :    0.289172    0.006762
   5 C :    0.292260    0.005191
   6 H :   -0.137384    0.028062
   7 H :   -0.146847    0.013857
   8 H :   -0.142324    0.025772
   9 H :   -0.144924    0.015989
  10 H :   -0.177904    0.006577
  11 H :   -0.165317    0.028558
  12 H :   -0.175835    0.007922
  13 H :   -0.144554    0.000232
  14 H :   -0.143719    0.000868
  15 H :   -0.144860    0.000266
  16 H :   -0.144955    0.000238

  Mayer bond orders larger than 0.100000
B(  0-C ,  1-C ) :   0.7824 B(  0-C ,  2-C ) :   0.6658 B(  0-C ,  3-C ) :   0.5655
B(  1-C ,  4-C ) :   1.0464 B(  1-C ,  5-C ) :   0.1097 B(  1-C ,  6-H ) :   0.9923
B(  1-C ,  7-H ) :   0.9359 B(  2-C ,  5-C ) :   1.0401 B(  2-C ,  8-H ) :   0.9896
B(  2-C ,  9-H ) :   0.9146 B(  3-C , 10-H ) :   1.0170 B(  3-C , 11-H ) :   0.9867
B(  3-C , 12-H ) :   1.0088 B(  4-C ,  5-C ) :   0.9160 B(  4-C , 13-H ) :   0.9363
B(  4-C , 14-H ) :   0.9968 B(  5-C , 15-H ) :   1.0227 B(  5-C , 16-H ) :   0.9160

MP2 TOTAL ENERGY:     -234.676150458 Eh
FINAL SINGLE POINT ENERGY      -234.676150458463

DIPOLE MOMENT
-------------
                                X             Y             Z
Electronic contribution:      0.63675       0.04735      -0.29861
Nuclear contribution   :     -0.62247      -0.05260       0.32932
                        -----------------------------------------
Total Dipole Moment    :      0.01428      -0.00524       0.03070
                        -----------------------------------------
Magnitude (a.u.)       :      0.03427
Magnitude (Debye)      :      0.08710

Rotational constants in cm-1:     0.213215     0.099776     0.073909
Rotational constants in MHz :  6392.017400  2991.196828  2215.737950

                             ****ORCA TERMINATED NORMALLY****
TOTAL RUN TIME: 0 days 0 hours 2 minutes 58 seconds 695 msec
