                         Program Version 4.2.1 -  RELEASE  -
|  1> %pal
|  2>  nprocs 32
|  3> end
|  4> !RI-MP2 aug-cc-pVTZ aug-cc-pVTZ/C TightSCF
|  5> %maxcore 4500
|  6> *xyzfile 0 1  04_33P2.xyz
|  7>
|  8>
|  9>                          ****END OF INPUT****

CARTESIAN COORDINATES (ANGSTROEM)
---------------------------------
  C      1.815315    0.000000    0.005602
  C      1.150887    1.209639   -0.001488
  C     -0.236097    1.202484   -0.013530
  C     -0.936100   -0.000002   -0.007742
  C     -0.236096   -1.202485   -0.013497
  C      1.150890   -1.209638   -0.001474
  S     -2.727776   -0.000028   -0.071307
  H      1.714646    2.133159   -0.002616
  H     -0.781079    2.137321   -0.027009
  H     -0.781079   -2.137322   -0.026925
  H      1.714650   -2.133158   -0.002585
  F      3.162355    0.000003    0.014986
  H     -2.936707    0.000437    1.257938

 Total Charge           Charge          ....    0
 Multiplicity           Mult            ....    1
 Number of Electrons    NEL             ....   66
 Basis Dimension        Dim             ....  487

ORBITAL ENERGIES
----------------

  NO   OCC          E(Eh)            E(eV)
   0   2.0000     -91.966784     -2502.5434
   1   2.0000     -26.317278      -716.1295
   2   2.0000     -11.339023      -308.5505
   3   2.0000     -11.276866      -306.8591
   4   2.0000     -11.261033      -306.4283
   5   2.0000     -11.260970      -306.4266
   6   2.0000     -11.252323      -306.1913
   7   2.0000     -11.252302      -306.1907
   8   2.0000      -8.967421      -244.0159
   9   2.0000      -6.648743      -180.9215
  10   2.0000      -6.647823      -180.8965
  11   2.0000      -6.646817      -180.8691
  12   2.0000      -1.634559       -44.4786
  13   2.0000      -1.184102       -32.2211
  14   2.0000      -1.064108       -28.9558
  15   2.0000      -1.046263       -28.4703
  16   2.0000      -0.952896       -25.9296
  17   2.0000      -0.870478       -23.6869
  18   2.0000      -0.830208       -22.5911
  19   2.0000      -0.755202       -20.5501
  20   2.0000      -0.714563       -19.4442
  21   2.0000      -0.701403       -19.0862
  22   2.0000      -0.664887       -18.0925
  23   2.0000      -0.629538       -17.1306
  24   2.0000      -0.617895       -16.8138
  25   2.0000      -0.610254       -16.6058
  26   2.0000      -0.565499       -15.3880
  27   2.0000      -0.519706       -14.1419
  28   2.0000      -0.519095       -14.1253
  29   2.0000      -0.477443       -12.9919
  30   2.0000      -0.376444       -10.2436
  31   2.0000      -0.363296        -9.8858
  32   2.0000      -0.348918        -9.4945
  33   0.0000       0.028644         0.7795
  34   0.0000       0.032985         0.8976
  35   0.0000       0.036622         0.9965
  36   0.0000       0.048431         1.3179
  37   0.0000       0.050089         1.3630

MULLIKEN ATOMIC CHARGES
-----------------------
   0 C :    0.717403
   1 C :   -0.660492
   2 C :   -0.684101
   3 C :    0.764352
   4 C :   -0.684091
   5 C :   -0.660499
   6 S :   -0.516235
   7 H :    0.477259
   8 H :    0.594221
   9 H :    0.594198
  10 H :    0.477281
  11 F :   -0.511984
  12 H :    0.092691
Sum of atomic charges:   -0.0000000

LOEWDIN ATOMIC CHARGES
----------------------
   0 C :   -0.518651
   1 C :    0.193572
   2 C :    0.110341
   3 C :   -0.562882
   4 C :    0.110337
   5 C :    0.193571
   6 S :    1.290230
   7 H :   -0.179997
   8 H :   -0.196399
   9 H :   -0.196405
  10 H :   -0.179996
  11 F :    0.499904
  12 H :   -0.563624

  Mayer bond orders larger than 0.100000
B(  0-C ,  1-C ) :   1.3150 B(  0-C ,  2-C ) :  -0.1295 B(  0-C ,  4-C ) :  -0.1295
B(  0-C ,  5-C ) :   1.3150 B(  0-C , 11-F ) :   0.4351 B(  1-C ,  2-C ) :   1.2951
B(  1-C ,  5-C ) :   0.1573 B(  1-C ,  7-H ) :   0.6979 B(  1-C , 11-F ) :   0.1092
B(  2-C ,  3-C ) :   1.0126 B(  2-C ,  4-C ) :   0.1380 B(  2-C ,  8-H ) :   0.6468
B(  3-C ,  4-C ) :   1.0126 B(  3-C ,  6-S ) :   0.9546 B(  4-C ,  5-C ) :   1.2952
B(  4-C ,  9-H ) :   0.6468 B(  5-C , 10-H ) :   0.6979 B(  5-C , 11-F ) :   0.1092
B(  6-S ,  8-H ) :  -0.1697 B(  6-S ,  9-H ) :  -0.1697 B(  6-S , 12-H ) :   1.1633

MP2 TOTAL ENERGY:     -728.604323151 Eh
FINAL SINGLE POINT ENERGY      -728.604323151455

DIPOLE MOMENT
-------------
                                X             Y             Z
Electronic contribution:      3.86773      -0.00031      -0.83268
Nuclear contribution   :     -3.97351       0.00042       1.14723
                        -----------------------------------------
Total Dipole Moment    :     -0.10578       0.00011       0.31454
                        -----------------------------------------
Magnitude (a.u.)       :      0.33185
Magnitude (Debye)      :      0.84351

Rotational constants in cm-1:     0.187308     0.031850     0.027374
Rotational constants in MHz :  5615.348798   954.840196   820.664721

                             ****ORCA TERMINATED NORMALLY****
TOTAL RUN TIME: 0 days 0 hours 2 minutes 1 seconds 87 msec
