                         Program Version 4.2.1 -  RELEASE  -
|  1> %pal
|  2>  nprocs 32
|  3> end
|  4> !RI-MP2 aug-cc-pVTZ aug-cc-pVTZ/C TightSCF
|  5> %maxcore 4500
|  6> *xyzfile 0 1  03_39P2.xyz
|  7>
|  8>
|  9>                          ****END OF INPUT****

CARTESIAN COORDINATES (ANGSTROEM)
---------------------------------
  O      1.267110    1.595611    0.000012
  C      1.237446    0.418137    0.000007
  C      0.035284   -0.478687    0.000024
  C     -1.280071    0.286811   -0.000009
  H      0.121928   -1.134956    0.871205
  H     -1.318356    0.943159    0.873733
  C     -2.485973   -0.647020    0.000019
  H     -1.318348    0.943096   -0.873799
  C     -3.809599    0.108456   -0.000022
  H     -2.437606   -1.302954    0.875886
  H     -2.437592   -1.303024   -0.875795
  H     -3.897131    0.748008    0.881882
  H     -4.659104   -0.577028    0.000002
  H     -3.897120    0.747933   -0.881980
  H      0.121939   -1.135019   -0.871107
  Cl     2.788352   -0.518840   -0.000014

 Total Charge           Charge          ....    0
 Multiplicity           Mult            ....    1
 Number of Electrons    NEL             ....   64
 Basis Dimension        Dim             ....  533

ORBITAL ENERGIES
----------------

  NO   OCC          E(Eh)            E(eV)
   0   2.0000    -104.842664     -2852.9139
   1   2.0000     -20.592746      -560.3571
   2   2.0000     -11.405854      -310.3691
   3   2.0000     -11.265935      -306.5617
   4   2.0000     -11.239216      -305.8346
   5   2.0000     -11.234801      -305.7145
   6   2.0000     -11.222619      -305.3830
   7   2.0000     -10.567292      -287.5506
   8   2.0000      -8.033897      -218.6134
   9   2.0000      -8.032262      -218.5690
  10   2.0000      -8.032130      -218.5654
  11   2.0000      -1.452761       -39.5316
  12   2.0000      -1.133170       -30.8351
  13   2.0000      -1.098579       -29.8938
  14   2.0000      -1.025538       -27.9063
  15   2.0000      -0.912818       -24.8391
  16   2.0000      -0.816744       -22.2247
  17   2.0000      -0.765072       -20.8187
  18   2.0000      -0.679941       -18.5021
  19   2.0000      -0.677167       -18.4266
  20   2.0000      -0.661553       -18.0018
  21   2.0000      -0.621963       -16.9245
  22   2.0000      -0.597518       -16.2593
  23   2.0000      -0.565148       -15.3785
  24   2.0000      -0.549969       -14.9654
  25   2.0000      -0.518041       -14.0966
  26   2.0000      -0.509732       -13.8705
  27   2.0000      -0.491150       -13.3649
  28   2.0000      -0.483920       -13.1681
  29   2.0000      -0.462807       -12.5936
  30   2.0000      -0.458547       -12.4777
  31   2.0000      -0.443772       -12.0756
  32   0.0000       0.025754         0.7008
  33   0.0000       0.034509         0.9390
  34   0.0000       0.035772         0.9734
  35   0.0000       0.039693         1.0801
  36   0.0000       0.054445         1.4815

MULLIKEN ATOMIC CHARGES
-----------------------
   0 O :   -0.650381
   1 C :    0.436246
   2 C :   -0.242555
   3 C :   -0.190247
   4 H :    0.284077
   5 H :    0.252296
   6 C :   -0.468641
   7 H :    0.252297
   8 C :   -0.982880
   9 H :    0.254961
  10 H :    0.254961
  11 H :    0.272603
  12 H :    0.276798
  13 H :    0.272603
  14 H :    0.284079
  15 Cl:   -0.306218
Sum of atomic charges:    0.0000000

LOEWDIN ATOMIC CHARGES
----------------------
   0 O :    0.411385
   1 C :   -1.090213
   2 C :    0.165297
   3 C :    0.248932
   4 H :   -0.165247
   5 H :   -0.140732
   6 C :    0.253344
   7 H :   -0.140731
   8 C :    0.581430
   9 H :   -0.144497
  10 H :   -0.144497
  11 H :   -0.167640
  12 H :   -0.170454
  13 H :   -0.167642
  14 H :   -0.165251
  15 Cl:    0.836517

  Mayer bond orders larger than 0.100000
B(  0-O ,  1-C ) :   1.5050 B(  1-C ,  2-C ) :   0.7690 B(  1-C , 15-Cl) :   0.8908
B(  2-C ,  3-C ) :   0.9790 B(  2-C ,  4-H ) :   0.9370 B(  2-C , 14-H ) :   0.9370
B(  3-C ,  5-H ) :   0.9327 B(  3-C ,  6-C ) :   0.8570 B(  3-C ,  7-H ) :   0.9327
B(  6-C ,  8-C ) :   0.9299 B(  6-C ,  9-H ) :   0.9453 B(  6-C , 10-H ) :   0.9453
B(  8-C , 11-H ) :   0.9573 B(  8-C , 12-H ) :   0.9810 B(  8-C , 13-H ) :   0.9573

MP2 TOTAL ENERGY:     -730.372071864 Eh
FINAL SINGLE POINT ENERGY      -730.372071863921

DIPOLE MOMENT
-------------
                                X             Y             Z
Electronic contribution:     22.53641       0.53333      -0.00004
Nuclear contribution   :    -23.61547      -1.29922       0.00005
                        -----------------------------------------
Total Dipole Moment    :     -1.07905      -0.76589       0.00001
                        -----------------------------------------
Magnitude (a.u.)       :      1.32323
Magnitude (Debye)      :      3.36339

Rotational constants in cm-1:     0.219731     0.025636     0.023351
Rotational constants in MHz :  6587.380232   768.549506   700.041607

                             ****ORCA TERMINATED NORMALLY****
TOTAL RUN TIME: 0 days 0 hours 2 minutes 13 seconds 91 msec
