                         Program Version 4.2.1 -  RELEASE  -
|  1> %pal
|  2>  nprocs 32
|  3> end
|  4> !RI-MP2 aug-cc-pVTZ aug-cc-pVTZ/C TightSCF
|  5> %maxcore 4500
|  6> *xyzfile 0 1  04_30P2.xyz
|  7>
|  8>
|  9>                          ****END OF INPUT****

CARTESIAN COORDINATES (ANGSTROEM)
---------------------------------
  C      0.694387    1.202719    0.000000
  C     -0.694387    1.202713    0.000000
  C      1.388772    0.000004    0.000000
  C     -1.388773   -0.000003    0.000000
  C      0.694387   -1.202713    0.000000
  C     -0.694387   -1.202718    0.000000
  H      2.472265   -0.000006    0.000000
  H      1.236142   -2.141041    0.000000
  H     -1.236145    2.141039    0.000000
  H     -2.472265    0.000002    0.000000
  H     -1.236133   -2.141051    0.000000
  H      1.236133    2.141052    0.000000

 Total Charge           Charge          ....    0
 Multiplicity           Mult            ....    1
 Number of Electrons    NEL             ....   42
 Basis Dimension        Dim             ....  414

ORBITAL ENERGIES
----------------

  NO   OCC          E(Eh)            E(eV)
   0   2.0000     -11.234945      -305.7184
   1   2.0000     -11.234353      -305.7023
   2   2.0000     -11.234353      -305.7023
   3   2.0000     -11.233077      -305.6676
   4   2.0000     -11.233077      -305.6676
   5   2.0000     -11.232455      -305.6507
   6   2.0000      -1.153434       -31.3865
   7   2.0000      -1.016208       -27.6524
   8   2.0000      -1.016207       -27.6524
   9   2.0000      -0.824477       -22.4352
  10   2.0000      -0.824476       -22.4351
  11   2.0000      -0.710501       -19.3337
  12   2.0000      -0.641862       -17.4659
  13   2.0000      -0.621254       -16.9052
  14   2.0000      -0.588096       -16.0029
  15   2.0000      -0.588094       -16.0029
  16   2.0000      -0.504618       -13.7314
  17   2.0000      -0.494417       -13.4538
  18   2.0000      -0.494417       -13.4538
  19   2.0000      -0.337811        -9.1923
  20   2.0000      -0.337810        -9.1923
  21   0.0000       0.029976         0.8157
  22   0.0000       0.034999         0.9524
  23   0.0000       0.034999         0.9524
  24   0.0000       0.048365         1.3161
  25   0.0000       0.048365         1.3161

MULLIKEN ATOMIC CHARGES
-----------------------
   0 C :   -0.445733
   1 C :   -0.445680
   2 C :   -0.445659
   3 C :   -0.445667
   4 C :   -0.445688
   5 C :   -0.445712
   6 H :    0.445700
   7 H :    0.445692
   8 H :    0.445677
   9 H :    0.445717
  10 H :    0.445667
  11 H :    0.445687
Sum of atomic charges:   -0.0000000

LOEWDIN ATOMIC CHARGES
----------------------
   0 C :    0.185118
   1 C :    0.185116
   2 C :    0.185116
   3 C :    0.185117
   4 C :    0.185117
   5 C :    0.185118
   6 H :   -0.185117
   7 H :   -0.185117
   8 H :   -0.185117
   9 H :   -0.185118
  10 H :   -0.185116
  11 H :   -0.185116

  Mayer bond orders larger than 0.100000
B(  0-C ,  1-C ) :   1.1583 B(  0-C ,  2-C ) :   1.1583 B(  0-C , 11-H ) :   0.8275
B(  1-C ,  3-C ) :   1.1583 B(  1-C ,  8-H ) :   0.8275 B(  2-C ,  4-C ) :   1.1583
B(  2-C ,  6-H ) :   0.8275 B(  3-C ,  5-C ) :   1.1583 B(  3-C ,  9-H ) :   0.8275
B(  4-C ,  5-C ) :   1.1583 B(  4-C ,  7-H ) :   0.8275 B(  5-C , 10-H ) :   0.8276

MP2 TOTAL ENERGY:     -231.744413143 Eh
FINAL SINGLE POINT ENERGY      -231.744413142935

DIPOLE MOMENT
-------------
                                X             Y             Z
Electronic contribution:      0.00000       0.00001       0.00000
Nuclear contribution   :     -0.00000      -0.00001       0.00000
                        -----------------------------------------
Total Dipole Moment    :     -0.00000      -0.00000       0.00000
                        -----------------------------------------
Magnitude (a.u.)       :      0.00000
Magnitude (Debye)      :      0.00000

Rotational constants in cm-1:     0.191609     0.191608     0.095804
Rotational constants in MHz :  5744.289511  5744.258822  2872.137083

                             ****ORCA TERMINATED NORMALLY****
TOTAL RUN TIME: 0 days 0 hours 1 minutes 0 seconds 120 msec
