                         Program Version 4.2.1 -  RELEASE  -
|  1> %pal
|  2>  nprocs 32
|  3> end
|  4> !RI-MP2 aug-cc-pVTZ aug-cc-pVTZ/C TightSCF
|  5> %maxcore 4500
|  6> *xyzfile 0 1  02_42R1.xyz
|  7>
|  8>
|  9>                          ****END OF INPUT****

CARTESIAN COORDINATES (ANGSTROEM)
---------------------------------
  C      0.045543   -0.385809    1.261670
  C      0.045543   -1.611162    0.731860
  C      0.045543   -0.385809   -1.261670
  C      0.045543   -1.611162   -0.731860
  S      0.286337    0.849040    0.000000
  O     -0.735089    1.950549    0.000000
  H      0.054693   -0.088729   -2.298922
  H      0.048451   -2.523963   -1.313268
  H      0.054693   -0.088729    2.298922
  H      0.048451   -2.523963    1.313268

 Total Charge           Charge          ....    0
 Multiplicity           Mult            ....    1
 Number of Electrons    NEL             ....   52
 Basis Dimension        Dim             ....  372

ORBITAL ENERGIES
----------------

  NO   OCC          E(Eh)            E(eV)
   0   2.0000     -92.083240     -2505.7124
   1   2.0000     -20.517735      -558.3160
   2   2.0000     -11.280125      -306.9478
   3   2.0000     -11.279730      -306.9371
   4   2.0000     -11.278367      -306.9000
   5   2.0000     -11.277963      -306.8890
   6   2.0000      -9.069458      -246.7925
   7   2.0000      -6.751343      -183.7134
   8   2.0000      -6.751302      -183.7123
   9   2.0000      -6.749915      -183.6745
  10   2.0000      -1.341090       -36.4929
  11   2.0000      -1.179700       -32.1013
  12   2.0000      -1.022262       -27.8172
  13   2.0000      -0.970449       -26.4073
  14   2.0000      -0.791536       -21.5388
  15   2.0000      -0.778761       -21.1912
  16   2.0000      -0.724057       -19.7026
  17   2.0000      -0.615240       -16.7415
  18   2.0000      -0.599158       -16.3039
  19   2.0000      -0.583532       -15.8787
  20   2.0000      -0.579587       -15.7714
  21   2.0000      -0.563633       -15.3372
  22   2.0000      -0.476282       -12.9603
  23   2.0000      -0.437656       -11.9092
  24   2.0000      -0.369916       -10.0659
  25   2.0000      -0.361661        -9.8413
  26   0.0000       0.021461         0.5840
  27   0.0000       0.030628         0.8334
  28   0.0000       0.037458         1.0193
  29   0.0000       0.047422         1.2904
  30   0.0000       0.048192         1.3114

MULLIKEN ATOMIC CHARGES
-----------------------
   0 C :   -0.360342
   1 C :   -0.535133
   2 C :   -0.360342
   3 C :   -0.535133
   4 S :    0.758616
   5 O :   -0.899678
   6 H :    0.484920
   7 H :    0.481086
   8 H :    0.484920
   9 H :    0.481086
Sum of atomic charges:   -0.0000000

LOEWDIN ATOMIC CHARGES
----------------------
   0 C :    0.010277
   1 C :    0.103637
   2 C :    0.010277
   3 C :    0.103637
   4 S :    0.811222
   5 O :   -0.195664
   6 H :   -0.236399
   7 H :   -0.185294
   8 H :   -0.236399
   9 H :   -0.185294

  Mayer bond orders larger than 0.100000
B(  0-C ,  1-C ) :   1.4998 B(  0-C ,  2-C ) :   0.1326 B(  0-C ,  4-S ) :   1.0453
B(  0-C ,  8-H ) :   0.7692 B(  1-C ,  3-C ) :   1.1700 B(  1-C ,  9-H ) :   0.8215
B(  2-C ,  3-C ) :   1.4998 B(  2-C ,  4-S ) :   1.0453 B(  2-C ,  6-H ) :   0.7692
B(  3-C ,  7-H ) :   0.8215 B(  4-S ,  5-O ) :   1.2559

MP2 TOTAL ENERGY:     -627.260854481 Eh
FINAL SINGLE POINT ENERGY      -627.260854480979

DIPOLE MOMENT
-------------
                                X             Y             Z
Electronic contribution:      0.48523       3.18650      -0.00000
Nuclear contribution   :      0.18127      -5.09178       0.00000
                        -----------------------------------------
Total Dipole Moment    :      0.66650      -1.90528      -0.00000
                        -----------------------------------------
Magnitude (a.u.)       :      2.01849
Magnitude (Debye)      :      5.13059

Rotational constants in cm-1:     0.225965     0.096945     0.073371
Rotational constants in MHz :  6774.251065  2906.350411  2199.612318

                             ****ORCA TERMINATED NORMALLY****
TOTAL RUN TIME: 0 days 0 hours 1 minutes 3 seconds 680 msec
