                         Program Version 4.2.1 -  RELEASE  -
|  1> %pal
|  2>  nprocs 32
|  3> end
|  4> !RI-MP2 aug-cc-pVTZ aug-cc-pVTZ/C TightSCF
|  5> %maxcore 4500
|  6> *xyzfile 0 1  02_1R2.xyz
|  7>
|  8>
|  9>                          ****END OF INPUT****

CARTESIAN COORDINATES (ANGSTROEM)
---------------------------------
  C      2.454424    0.762907   -0.000007
  C      1.628566    1.806850    0.000022
  C      0.161250    1.639067    0.000032
  O     -0.562815    2.632330    0.000058
  C     -0.381034    0.281308    0.000009
  C      0.479689   -0.834175   -0.000021
  C      1.956177   -0.633521   -0.000028
  O      2.735682   -1.561316   -0.000050
  C     -0.028007   -2.115246   -0.000043
  C     -1.412185   -2.302299   -0.000036
  C     -2.273588   -1.228234   -0.000007
  C     -1.770506    0.078170    0.000016
  O     -2.642922    1.086311    0.000043
  H      0.656700   -2.952456   -0.000066
  H     -1.816039   -3.307441   -0.000053
  H     -3.347824   -1.360447   -0.000001
  H     -2.133772    1.926966    0.000055
  H      1.980480    2.831572    0.000038
  H      3.532184    0.874243   -0.000015

 Total Charge           Charge          ....    0
 Multiplicity           Mult            ....    1
 Number of Electrons    NEL             ....   90
 Basis Dimension        Dim             ....  736

ORBITAL ENERGIES
----------------

  NO   OCC          E(Eh)            E(eV)
   0   2.0000     -20.593099      -560.3667
   1   2.0000     -20.579365      -559.9930
   2   2.0000     -20.574173      -559.8517
   3   2.0000     -11.369401      -309.3771
   4   2.0000     -11.359949      -309.1199
   5   2.0000     -11.336647      -308.4858
   6   2.0000     -11.284856      -307.0765
   7   2.0000     -11.282640      -307.0162
   8   2.0000     -11.277040      -306.8639
   9   2.0000     -11.270832      -306.6949
  10   2.0000     -11.264397      -306.5198
  11   2.0000     -11.254307      -306.2453
  12   2.0000     -11.253592      -306.2258
  13   2.0000      -1.437329       -39.1117
  14   2.0000      -1.416259       -38.5384
  15   2.0000      -1.407688       -38.3051
  16   2.0000      -1.192802       -32.4578
  17   2.0000      -1.135443       -30.8970
  18   2.0000      -1.059326       -28.8257
  19   2.0000      -1.044240       -28.4152
  20   2.0000      -0.956194       -26.0193
  21   2.0000      -0.892572       -24.2881
  22   2.0000      -0.882737       -24.0205
  23   2.0000      -0.817807       -22.2537
  24   2.0000      -0.748397       -20.3649
  25   2.0000      -0.745759       -20.2931
  26   2.0000      -0.733682       -19.9645
  27   2.0000      -0.702518       -19.1165
  28   2.0000      -0.668969       -18.2036
  29   2.0000      -0.655536       -17.8380
  30   2.0000      -0.647678       -17.6242
  31   2.0000      -0.627525       -17.0758
  32   2.0000      -0.615477       -16.7480
  33   2.0000      -0.609952       -16.5976
  34   2.0000      -0.583395       -15.8750
  35   2.0000      -0.580234       -15.7890
  36   2.0000      -0.562882       -15.3168
  37   2.0000      -0.559860       -15.2346
  38   2.0000      -0.540273       -14.7016
  39   2.0000      -0.497942       -13.5497
  40   2.0000      -0.465192       -12.6585
  41   2.0000      -0.439711       -11.9651
  42   2.0000      -0.421661       -11.4740
  43   2.0000      -0.375061       -10.2059
  44   2.0000      -0.335568        -9.1313
  45   0.0000       0.001461         0.0398
  46   0.0000       0.025962         0.7065
  47   0.0000       0.027235         0.7411
  48   0.0000       0.037424         1.0184
  49   0.0000       0.043841         1.1930

MULLIKEN ATOMIC CHARGES
-----------------------
   0 C :   -0.786206
   1 C :   -0.878245
   2 C :    0.675343
   3 O :   -1.130941
   4 C :    1.105940
   5 C :    1.798198
   6 C :    0.915142
   7 O :   -1.172133
   8 C :   -1.310615
   9 C :   -0.293907
  10 C :   -0.881865
  11 C :    0.270903
  12 O :   -0.993859
  13 H :    0.178826
  14 H :    0.583956
  15 H :    0.596712
  16 H :    0.167326
  17 H :    0.586746
  18 H :    0.568680
Sum of atomic charges:   -0.0000000

LOEWDIN ATOMIC CHARGES
----------------------
   0 C :    0.245036
   1 C :    0.249036
   2 C :   -0.482363
   3 O :    0.563000
   4 C :   -0.083714
   5 C :   -0.122785
   6 C :   -0.526177
   7 O :    0.492256
   8 C :    0.222854
   9 C :    0.221822
  10 C :    0.243899
  11 C :   -0.345474
  12 O :    0.875467
  13 H :   -0.184257
  14 H :   -0.168666
  15 H :   -0.173555
  16 H :   -0.676464
  17 H :   -0.175056
  18 H :   -0.174858

  Mayer bond orders larger than 0.100000
B(  0-C ,  1-C ) :   1.6952 B(  0-C ,  4-C ) :  -0.3813 B(  0-C ,  5-C ) :   0.4133
B(  0-C ,  6-C ) :   0.8220 B(  0-C ,  7-O ) :   0.1714 B(  0-C , 18-H ) :   0.4329
B(  1-C ,  2-C ) :   0.9155 B(  1-C ,  3-O ) :   0.1406 B(  1-C ,  4-C ) :   0.3373
B(  1-C ,  5-C ) :  -0.2873 B(  1-C , 17-H ) :   0.4480 B(  2-C ,  3-O ) :   0.6196
B(  2-C ,  4-C ) :   0.3047 B(  2-C ,  5-C ) :  -0.4385 B(  2-C ,  6-C ) :   0.2246
B(  2-C , 11-C ) :   0.9613 B(  3-O , 11-C ) :   0.1077 B(  3-O , 16-H ) :   0.1552
B(  4-C ,  5-C ) :   0.8650 B(  4-C ,  6-C ) :  -0.2619 B(  4-C , 10-C ) :   0.2743
B(  4-C , 11-C ) :   0.4566 B(  4-C , 12-O ) :  -0.2384 B(  5-C ,  6-C ) :   0.7199
B(  5-C ,  7-O ) :  -0.1843 B(  5-C ,  8-C ) :   0.1058 B(  5-C , 10-C ) :  -0.3280
B(  5-C , 11-C ) :  -0.8629 B(  5-C , 18-H ) :   0.1323 B(  6-C ,  7-O ) :   0.4150
B(  6-C ,  8-C ) :   0.4136 B(  7-O ,  8-C ) :   0.1306 B(  7-O , 13-H ) :   0.1582
B(  8-C ,  9-C ) :   0.9909 B(  8-C , 11-C ) :   0.2542 B(  8-C , 13-H ) :   1.1918
B(  8-C , 14-H ) :  -0.1586 B(  9-C , 10-C ) :   1.1448 B(  9-C , 11-C ) :  -0.1009
B(  9-C , 13-H ) :  -0.1126 B(  9-C , 14-H ) :   0.6015 B( 10-C , 11-C ) :   1.1724
B( 10-C , 12-O ) :   0.2246 B( 10-C , 15-H ) :   0.4911 B( 11-C , 12-O ) :   0.4122
B( 11-C , 14-H ) :   0.1012 B( 11-C , 15-H ) :  -0.1437 B( 11-C , 16-H ) :   0.1232
B( 12-O , 16-H ) :   0.9162

MP2 TOTAL ENERGY:     -609.254028591 Eh
FINAL SINGLE POINT ENERGY      -609.254028590982

DIPOLE MOMENT
-------------
                                X             Y             Z
Electronic contribution:      1.21860       1.72110       0.00003
Nuclear contribution   :     -1.10224      -1.89603      -0.00004
                        -----------------------------------------
Total Dipole Moment    :      0.11636      -0.17493      -0.00001
                        -----------------------------------------
Magnitude (a.u.)       :      0.21010
Magnitude (Debye)      :      0.53402

Rotational constants in cm-1:     0.039222     0.030494     0.017156
Rotational constants in MHz :  1175.843896   914.200008   514.322449

                             ****ORCA TERMINATED NORMALLY****
TOTAL RUN TIME: 0 days 0 hours 8 minutes 49 seconds 96 msec
