                         Program Version 4.2.1 -  RELEASE  -
|  1> %pal
|  2>  nprocs 32
|  3> end
|  4> !RI-MP2 aug-cc-pVTZ aug-cc-pVTZ/C TightSCF
|  5> %maxcore 4500
|  6> *xyzfile 0 1  10_76P.xyz
|  7>
|  8>
|  9>                          ****END OF INPUT****

CARTESIAN COORDINATES (ANGSTROEM)
---------------------------------
  C     -0.435590   -1.031723    0.516464
  C     -1.389660   -1.439594   -0.307846
  C      0.663443   -0.109898    0.082591
  C      2.020346   -0.415611    0.721613
  C      3.114908    0.577523    0.258419
  C      2.551625   -1.817752    0.325248
  C     -2.234305    1.473381    0.356290
  C     -1.083031    1.635535   -0.279489
  H     -2.197514    1.297081    1.431247
  C     -3.597058    1.355606   -0.246999
  C      0.239726    1.365119    0.376605
  C      1.338729    2.301706   -0.049206
  C      2.612748    1.936529   -0.119103
  C      3.869653   -0.173368   -0.848215
  C      3.940235   -1.595438   -0.296626
  H      1.878040   -2.265882   -0.409214
  H      2.583543   -2.503207    1.173514
  H      4.185786   -2.341933   -1.054029
  H      4.716078   -1.647649    0.473492
  H      4.847682    0.261863   -1.064350
  H      3.285948   -0.150958   -1.774359
  C     -2.707047   -2.046038    0.055168
  H     -1.268578   -1.220650   -1.368606
  C     -4.322057    0.054921    0.156614
  H     -3.538561    1.429586   -1.337405
  H     -4.220507    2.191068    0.091260
  C     -3.906499   -1.264272   -0.519632
  H     -5.383537    0.202410   -0.062529
  H     -4.259293   -0.062458    1.244882
  H     -2.800696   -2.130578    1.142400
  H     -2.763947   -3.064850   -0.344782
  H     -3.732455   -1.083154   -1.586837
  H     -4.772260   -1.931144   -0.471789
  H     -0.539627   -1.201165    1.588078
  H     -1.074297    1.778051   -1.359290
  H      1.051733    3.316529   -0.307628
  H      3.357951    2.657275   -0.445276
  H      0.097624    1.455674    1.461621
  H      0.770064   -0.190628   -1.005988
  H      1.897142   -0.342132    1.806779
  H      3.822684    0.707097    1.087436

 Total Charge           Charge          ....    0
 Multiplicity           Mult            ....    1
 Number of Electrons    NEL             ....  126
 Basis Dimension        Dim             .... 1334

ORBITAL ENERGIES
----------------

  NO   OCC          E(Eh)            E(eV)
   0   2.0000     -11.227216      -305.5081
   1   2.0000     -11.222899      -305.3906
   2   2.0000     -11.221719      -305.3585
   3   2.0000     -11.221450      -305.3512
   4   2.0000     -11.221102      -305.3417
   5   2.0000     -11.220838      -305.3345
   6   2.0000     -11.220782      -305.3330
   7   2.0000     -11.217770      -305.2511
   8   2.0000     -11.217391      -305.2407
   9   2.0000     -11.215542      -305.1904
  10   2.0000     -11.215356      -305.1854
  11   2.0000     -11.214941      -305.1741
  12   2.0000     -11.212167      -305.0986
  13   2.0000     -11.211338      -305.0760
  14   2.0000     -11.210843      -305.0625
  15   2.0000     -11.209650      -305.0301
  16   2.0000     -11.208334      -304.9943
  17   2.0000      -1.153757       -31.3953
  18   2.0000      -1.108918       -30.1752
  19   2.0000      -1.081285       -29.4232
  20   2.0000      -1.068663       -29.0798
  21   2.0000      -1.042711       -28.3736
  22   2.0000      -0.995929       -27.1006
  23   2.0000      -0.976646       -26.5759
  24   2.0000      -0.944077       -25.6897
  25   2.0000      -0.934257       -25.4224
  26   2.0000      -0.863256       -23.4904
  27   2.0000      -0.836690       -22.7675
  28   2.0000      -0.787056       -21.4169
  29   2.0000      -0.774316       -21.0702
  30   2.0000      -0.772632       -21.0244
  31   2.0000      -0.755860       -20.5680
  32   2.0000      -0.738538       -20.0966
  33   2.0000      -0.698133       -18.9972
  34   2.0000      -0.665227       -18.1017
  35   2.0000      -0.640726       -17.4351
  36   2.0000      -0.624732       -16.9998
  37   2.0000      -0.622155       -16.9297
  38   2.0000      -0.616866       -16.7858
  39   2.0000      -0.603014       -16.4089
  40   2.0000      -0.595489       -16.2041
  41   2.0000      -0.580081       -15.7848
  42   2.0000      -0.565135       -15.3781
  43   2.0000      -0.561324       -15.2744
  44   2.0000      -0.558989       -15.2109
  45   2.0000      -0.530782       -14.4433
  46   2.0000      -0.520555       -14.1650
  47   2.0000      -0.516348       -14.0505
  48   2.0000      -0.500650       -13.6234
  49   2.0000      -0.486668       -13.2429
  50   2.0000      -0.479436       -13.0461
  51   2.0000      -0.477700       -12.9989
  52   2.0000      -0.472864       -12.8673
  53   2.0000      -0.471788       -12.8380
  54   2.0000      -0.464033       -12.6270
  55   2.0000      -0.461344       -12.5538
  56   2.0000      -0.457642       -12.4531
  57   2.0000      -0.445273       -12.1165
  58   2.0000      -0.434534       -11.8243
  59   2.0000      -0.422867       -11.5068
  60   2.0000      -0.357982        -9.7412
  61   2.0000      -0.334568        -9.1041
  62   2.0000      -0.319050        -8.6818
  63   0.0000       0.026841         0.7304
  64   0.0000       0.029390         0.7997
  65   0.0000       0.030999         0.8435
  66   0.0000       0.032240         0.8773
  67   0.0000       0.039369         1.0713

MULLIKEN ATOMIC CHARGES
-----------------------
   0 C :   -0.445831
   1 C :   -0.455746
   2 C :    1.800301
   3 C :   -0.262650
   4 C :    0.472264
   5 C :   -0.669015
   6 C :   -0.338547
   7 C :   -0.327978
   8 H :   -0.318901
   9 C :   -0.174121
  10 C :    0.560017
  11 C :   -0.790444
  12 C :   -1.028457
  13 C :   -0.536162
  14 C :   -0.765990
  15 H :    0.201496
  16 H :    0.280311
  17 H :    0.400896
  18 H :    0.069578
  19 H :    0.354236
  20 H :    0.176483
  21 C :   -0.311178
  22 H :   -0.364694
  23 C :   -0.453810
  24 H :    0.135954
  25 H :    0.325055
  26 C :   -0.439675
  27 H :    0.255207
  28 H :    0.154473
  29 H :    0.151982
  30 H :    0.338391
  31 H :    0.158079
  32 H :    0.265668
  33 H :   -0.111477
  34 H :   -0.199145
  35 H :    0.455705
  36 H :    0.284537
  37 H :    0.331641
  38 H :    0.381384
  39 H :    0.172827
  40 H :    0.267338
Sum of atomic charges:   -0.0000000

LOEWDIN ATOMIC CHARGES
----------------------
   0 C :    0.221786
   1 C :    0.224595
   2 C :   -0.019704
   3 C :    0.047933
   4 C :   -0.003717
   5 C :    0.335949
   6 C :    0.218391
   7 C :    0.217106
   8 H :   -0.161660
   9 C :    0.276165
  10 C :   -0.031408
  11 C :    0.259355
  12 C :    0.261537
  13 C :    0.304761
  14 C :    0.311182
  15 H :   -0.151338
  16 H :   -0.134644
  17 H :   -0.140370
  18 H :   -0.141707
  19 H :   -0.132148
  20 H :   -0.133049
  21 C :    0.277675
  22 H :   -0.158507
  23 C :    0.299550
  24 H :   -0.150619
  25 H :   -0.149530
  26 C :    0.299793
  27 H :   -0.152501
  28 H :   -0.146601
  29 H :   -0.150380
  30 H :   -0.149346
  31 H :   -0.146546
  32 H :   -0.152483
  33 H :   -0.145579
  34 H :   -0.152238
  35 H :   -0.174150
  36 H :   -0.169544
  37 H :   -0.135107
  38 H :   -0.131692
  39 H :   -0.117730
  40 H :   -0.123477

  Mayer bond orders larger than 0.100000
B(  0-C ,  1-C ) :   1.3751 B(  0-C ,  2-C ) :   0.3965 B(  0-C , 10-C ) :   0.1927
B(  0-C , 22-H ) :  -0.1350 B(  0-C , 33-H ) :   1.4260 B(  1-C ,  2-C ) :  -0.3298
B(  1-C , 11-C ) :  -0.1110 B(  1-C , 21-C ) :   0.5165 B(  1-C , 22-H ) :   1.9717
B(  1-C , 30-H ) :  -0.2033 B(  2-C ,  3-C ) :   0.7396 B(  2-C ,  7-C ) :   0.1649
B(  2-C , 10-C ) :   1.0196 B(  2-C , 12-C ) :  -0.1499 B(  2-C , 22-H ) :  -0.6686
B(  2-C , 33-H ) :  -0.1969 B(  2-C , 38-H ) :   0.6396 B(  2-C , 39-H ) :  -0.1671
B(  3-C ,  4-C ) :   0.9455 B(  3-C ,  5-C ) :   0.7213 B(  3-C , 10-C ) :   0.1264
B(  3-C , 11-C ) :   0.1547 B(  3-C , 12-C ) :   0.3148 B(  3-C , 39-H ) :   0.8383
B(  4-C , 11-C ) :   0.1569 B(  4-C , 12-C ) :   0.2858 B(  4-C , 13-C ) :   0.8776
B(  4-C , 36-H ) :  -0.1238 B(  4-C , 40-H ) :   1.0385 B(  5-C , 14-C ) :   0.9472
B(  5-C , 15-H ) :   1.0892 B(  5-C , 16-H ) :   0.9605 B(  6-C ,  7-C ) :   1.4391
B(  6-C ,  8-H ) :   1.8238 B(  6-C ,  9-C ) :   0.4638 B(  6-C , 10-C ) :  -0.1166
B(  6-C , 25-H ) :  -0.1802 B(  6-C , 35-H ) :  -0.1740 B(  6-C , 37-H ) :  -0.1034
B(  7-C ,  8-H ) :  -0.2173 B(  7-C , 10-C ) :   0.7521 B(  7-C , 11-C ) :  -0.2722
B(  7-C , 34-H ) :   1.4577 B(  7-C , 35-H ) :  -0.2051 B(  7-C , 37-H ) :  -0.1069
B(  8-H , 10-C ) :  -0.1401 B(  8-H , 22-H ) :   0.1688 B(  8-H , 34-H ) :   0.3449
B(  9-C , 23-C ) :   0.9096 B(  9-C , 24-H ) :   1.0662 B(  9-C , 25-H ) :   0.9578
B( 10-C , 11-C ) :   0.3640 B( 10-C , 12-C ) :   0.1002 B( 10-C , 35-H ) :   0.1718
B( 10-C , 37-H ) :   1.0353 B( 11-C , 12-C ) :   1.9365 B( 11-C , 34-H ) :  -0.1213
B( 11-C , 35-H ) :   0.5846 B( 11-C , 36-H ) :  -0.1155 B( 11-C , 37-H ) :  -0.4036
B( 11-C , 39-H ) :   0.1401 B( 12-C , 36-H ) :   1.0885 B( 12-C , 38-H ) :  -0.1048
B( 12-C , 40-H ) :  -0.2933 B( 13-C , 14-C ) :   1.0078 B( 13-C , 19-H ) :   0.8862
B( 13-C , 20-H ) :   1.0654 B( 14-C , 15-H ) :   0.1039 B( 14-C , 17-H ) :   0.8123
B( 14-C , 18-H ) :   1.2123 B( 21-C , 26-C ) :   0.9223 B( 21-C , 29-H ) :   1.0535
B( 21-C , 30-H ) :   0.9431 B( 22-H , 33-H ) :   0.3156 B( 23-C , 26-C ) :   0.8766
B( 23-C , 27-H ) :   0.9667 B( 23-C , 28-H ) :   1.0730 B( 26-C , 31-H ) :   1.0707
B( 26-C , 32-H ) :   0.9533 B( 34-H , 36-H ) :  -0.1092 B( 35-H , 36-H ) :   0.1384
B( 35-H , 37-H ) :   0.1583 B( 36-H , 37-H ) :  -0.1215 B( 38-H , 39-H ) :   0.1111

MP2 TOTAL ENERGY:     -660.771921338 Eh
FINAL SINGLE POINT ENERGY      -660.771921338387

DIPOLE MOMENT
-------------
                                X             Y             Z
Electronic contribution:      4.00318       4.80322       1.16565
Nuclear contribution   :     -4.20370      -5.01476      -1.13084
                        -----------------------------------------
Total Dipole Moment    :     -0.20052      -0.21154       0.03481
                        -----------------------------------------
Magnitude (a.u.)       :      0.29355
Magnitude (Debye)      :      0.74613

Rotational constants in cm-1:     0.031681     0.009432     0.007680
Rotational constants in MHz :   949.779967   282.750363   230.236695

                             ****ORCA TERMINATED NORMALLY****
TOTAL RUN TIME: 0 days 0 hours 48 minutes 44 seconds 188 msec
