                         Program Version 4.2.1 -  RELEASE  -
|  1> %pal
|  2>  nprocs 32
|  3> end
|  4> !RI-MP2 aug-cc-pVTZ aug-cc-pVTZ/C TightSCF
|  5> %maxcore 4500
|  6> *xyzfile 0 2  04_3TS.xyz
|  7>
|  8>
|  9>                          ****END OF INPUT****

CARTESIAN COORDINATES (ANGSTROEM)
---------------------------------
  C      2.316335   -1.008600    0.918821
  S      1.998380   -0.392977   -0.754658
  H      1.047008    0.785462   -0.317350
  S     -0.087162    1.691052    0.278630
  C     -1.476974    0.698971   -0.342192
  C     -1.706753   -0.614725    0.390686
  C     -2.927841   -1.356484   -0.142916
  H     -1.335716    0.533526   -1.411781
  H     -2.346278    1.355420   -0.237609
  H     -1.821033   -0.413091    1.458853
  H     -0.818280   -1.241312    0.278590
  H     -2.815888   -1.589016   -1.204935
  H     -3.836692   -0.760251   -0.026394
  H     -3.078201   -2.298086    0.388420
  H      2.763149   -0.238507    1.544286
  H      3.026366   -1.830602    0.815602
  H      1.407481   -1.387719    1.382378

 Total Charge           Charge          ....    0
 Multiplicity           Mult            ....    2
 Number of Electrons    NEL             ....   67
 Basis Dimension        Dim             ....  537

ORBITAL ENERGIES
----------------
                 SPIN UP ORBITALS
  NO   OCC          E(Eh)            E(eV)
   0   1.0000     -91.967876     -2502.5731
   1   1.0000     -91.964068     -2502.4695
   2   1.0000     -11.262442      -306.4666
   3   1.0000     -11.260642      -306.4176
   4   1.0000     -11.229691      -305.5754
   5   1.0000     -11.220469      -305.3245
   6   1.0000      -8.968199      -244.0371
   7   1.0000      -8.964563      -243.9382
   8   1.0000      -6.659532      -181.2151
   9   1.0000      -6.655783      -181.1131
  10   1.0000      -6.646247      -180.8536
  11   1.0000      -6.645066      -180.8214
  12   1.0000      -6.642605      -180.7545
  13   1.0000      -6.641509      -180.7246
  14   1.0000      -1.093007       -29.7422
  15   1.0000      -1.049710       -28.5640
  16   1.0000      -0.999915       -27.2091
  17   1.0000      -0.889360       -24.2007
  18   1.0000      -0.859773       -23.3956
  19   1.0000      -0.805060       -21.9068
  20   1.0000      -0.658970       -17.9315
  21   1.0000      -0.621503       -16.9120
  22   1.0000      -0.597025       -16.2459
  23   1.0000      -0.589942       -16.0531
  24   1.0000      -0.573354       -15.6018
  25   1.0000      -0.559143       -15.2151
  26   1.0000      -0.534845       -14.5539
  27   1.0000      -0.499565       -13.5938
  28   1.0000      -0.488391       -13.2898
  29   1.0000      -0.483422       -13.1546
  30   1.0000      -0.458475       -12.4757
  31   1.0000      -0.371862       -10.1189
  32   1.0000      -0.370567       -10.0836
  33   1.0000      -0.363096        -9.8804
  34   0.0000       0.027640         0.7521
  35   0.0000       0.033963         0.9242
  36   0.0000       0.040022         1.0890
  37   0.0000       0.040086         1.0908
  38   0.0000       0.051107         1.3907

                 SPIN DOWN ORBITALS
  NO   OCC          E(Eh)            E(eV)
   0   1.0000     -91.961619     -2502.4029
   1   1.0000     -91.957932     -2502.3025
   2   1.0000     -11.262924      -306.4798
   3   1.0000     -11.261147      -306.4314
   4   1.0000     -11.229624      -305.5736
   5   1.0000     -11.220499      -305.3253
   6   1.0000      -8.961481      -243.8543
   7   1.0000      -8.957998      -243.7595
   8   1.0000      -6.643265      -180.7724
   9   1.0000      -6.641475      -180.7237
  10   1.0000      -6.639664      -180.6744
  11   1.0000      -6.637999      -180.6291
  12   1.0000      -6.631063      -180.4404
  13   1.0000      -6.627762      -180.3506
  14   1.0000      -1.085169       -29.5290
  15   1.0000      -1.025761       -27.9124
  16   1.0000      -0.980788       -26.6886
  17   1.0000      -0.867552       -23.6073
  18   1.0000      -0.828756       -22.5516
  19   1.0000      -0.788729       -21.4624
  20   1.0000      -0.649831       -17.6828
  21   1.0000      -0.600494       -16.3403
  22   1.0000      -0.593647       -16.1540
  23   1.0000      -0.586706       -15.9651
  24   1.0000      -0.564148       -15.3513
  25   1.0000      -0.554714       -15.0945
  26   1.0000      -0.514305       -13.9949
  27   1.0000      -0.498337       -13.5604
  28   1.0000      -0.484817       -13.1925
  29   1.0000      -0.469538       -12.7768
  30   1.0000      -0.437275       -11.8989
  31   1.0000      -0.359347        -9.7783
  32   1.0000      -0.352065        -9.5802
  33   0.0000       0.000169         0.0046
  34   0.0000       0.027711         0.7541
  35   0.0000       0.034394         0.9359
  36   0.0000       0.040152         1.0926
  37   0.0000       0.040911         1.1132

MULLIKEN ATOMIC CHARGES AND SPIN POPULATIONS
--------------------------------------------
   0 C :   -0.753746   -0.052436
   1 S :   -0.361416    0.722066
   2 H :    0.377591   -0.388705
   3 S :   -0.473503    0.729681
   4 C :   -0.342664   -0.063793
   5 C :   -0.494483    0.004199
   6 C :   -0.918533   -0.000706
   7 H :    0.292841    0.011488
   8 H :    0.288400    0.015846
   9 H :    0.290104   -0.002402
  10 H :    0.375063   -0.000260
  11 H :    0.286320    0.000125
  12 H :    0.279012    0.000201
  13 H :    0.268583   -0.000251
  14 H :    0.286119    0.005989
  15 H :    0.281205    0.011675
  16 H :    0.319107    0.007283
Sum of atomic charges         :    0.0000000

LOEWDIN ATOMIC CHARGES AND SPIN POPULATIONS
-------------------------------------------
   0 C :    0.152645    0.062039
   1 S :    1.141969    0.394728
   2 H :   -0.975885    0.061495
   3 S :    1.193563    0.386071
   4 C :   -0.146334    0.061081
   5 C :    0.160055    0.000736
   6 C :    0.572521    0.000020
   7 H :   -0.221951    0.001396
   8 H :   -0.230433    0.015777
   9 H :   -0.164639   -0.000132
  10 H :   -0.195414   -0.000598
  11 H :   -0.168920    0.000018
  12 H :   -0.170467    0.000106
  13 H :   -0.171260   -0.000052
  14 H :   -0.251216    0.000769
  15 H :   -0.262824    0.015535
  16 H :   -0.261409    0.001012

  Mayer bond orders larger than 0.100000
B(  0-C ,  1-S ) :   0.9830 B(  0-C , 14-H ) :   0.9094 B(  0-C , 15-H ) :   0.9393
B(  0-C , 16-H ) :   0.8907 B(  1-S ,  2-H ) :   0.2802 B(  1-S ,  3-S ) :   0.1316
B(  2-H ,  3-S ) :   0.3364 B(  3-S ,  4-C ) :   0.9842 B(  4-C ,  5-C ) :   0.9628
B(  4-C ,  7-H ) :   0.8975 B(  4-C ,  8-H ) :   0.9284 B(  5-C ,  6-C ) :   0.8669
B(  5-C ,  9-H ) :   0.9367 B(  5-C , 10-H ) :   0.8645 B(  6-C , 11-H ) :   0.9405
B(  6-C , 12-H ) :   0.9578 B(  6-C , 13-H ) :   0.9691

MP2 TOTAL ENERGY:     -954.058235378 Eh
FINAL SINGLE POINT ENERGY      -954.058235378189

DIPOLE MOMENT
-------------
                                X             Y             Z
Electronic contribution:      7.62712       6.65167      -2.37342
Nuclear contribution   :     -8.03167      -7.27329       2.74092
                        -----------------------------------------
Total Dipole Moment    :     -0.40455      -0.62163       0.36750
                        -----------------------------------------
Magnitude (a.u.)       :      0.82773
Magnitude (Debye)      :      2.10392

Rotational constants in cm-1:     0.082555     0.036224     0.029070
Rotational constants in MHz :  2474.925153  1085.962449   871.489067

                             ****ORCA TERMINATED NORMALLY****
TOTAL RUN TIME: 0 days 0 hours 4 minutes 49 seconds 284 msec
