                         Program Version 4.2.1 -  RELEASE  -
|  1> %pal
|  2>  nprocs 32
|  3> end
|  4> !RI-MP2 aug-cc-pVTZ aug-cc-pVTZ/C TightSCF
|  5> %maxcore 4500
|  6> *xyzfile 0 1  04_67P2.xyz
|  7>
|  8>
|  9>                          ****END OF INPUT****

CARTESIAN COORDINATES (ANGSTROEM)
---------------------------------
  C      1.172451    1.433806    0.000059
  C      1.212094    0.043054    0.000019
  C      0.001340   -0.648880   -0.000019
  C     -1.228675    0.009179   -0.000020
  C     -1.223708    1.397577    0.000020
  C     -0.034418    2.113567    0.000060
  H      2.106021    1.985226    0.000089
  H     -2.171784    1.923639    0.000020
  H     -0.049822    3.196228    0.000091
  O     -0.043015   -2.016931   -0.000056
  H      0.846910   -2.378088   -0.000059
  C     -2.500034   -0.788429   -0.000062
  H     -3.368840   -0.129857   -0.000087
  H     -2.556173   -1.438444   -0.876173
  H     -2.556228   -1.438449    0.876042
  C      2.516186   -0.706979    0.000021
  H      2.622413   -1.343487   -0.885239
  H      3.357788   -0.015217    0.000013
  H      2.622416   -1.343477    0.885287

 Total Charge           Charge          ....    0
 Multiplicity           Mult            ....    1
 Number of Electrons    NEL             ....   66
 Basis Dimension        Dim             ....  644

ORBITAL ENERGIES
----------------

  NO   OCC          E(Eh)            E(eV)
   0   2.0000     -20.586129      -560.1771
   1   2.0000     -11.289377      -307.1996
   2   2.0000     -11.236450      -305.7593
   3   2.0000     -11.235776      -305.7410
   4   2.0000     -11.230408      -305.5949
   5   2.0000     -11.228657      -305.5473
   6   2.0000     -11.226134      -305.4786
   7   2.0000     -11.220637      -305.3290
   8   2.0000     -11.214798      -305.1702
   9   2.0000      -1.403043       -38.1788
  10   2.0000      -1.151981       -31.3470
  11   2.0000      -1.063500       -28.9393
  12   2.0000      -1.020474       -27.7685
  13   2.0000      -0.944810       -25.7096
  14   2.0000      -0.926113       -25.2008
  15   2.0000      -0.820282       -22.3210
  16   2.0000      -0.797448       -21.6997
  17   2.0000      -0.727272       -19.7901
  18   2.0000      -0.674235       -18.3469
  19   2.0000      -0.637881       -17.3576
  20   2.0000      -0.611303       -16.6344
  21   2.0000      -0.592297       -16.1172
  22   2.0000      -0.573316       -15.6007
  23   2.0000      -0.572754       -15.5854
  24   2.0000      -0.564157       -15.3515
  25   2.0000      -0.556847       -15.1526
  26   2.0000      -0.544790       -14.8245
  27   2.0000      -0.528706       -14.3868
  28   2.0000      -0.494632       -13.4596
  29   2.0000      -0.479722       -13.0539
  30   2.0000      -0.470739       -12.8095
  31   2.0000      -0.324933        -8.8419
  32   2.0000      -0.305684        -8.3181
  33   0.0000       0.026791         0.7290
  34   0.0000       0.032744         0.8910
  35   0.0000       0.034060         0.9268
  36   0.0000       0.043813         1.1922
  37   0.0000       0.045281         1.2322

MULLIKEN ATOMIC CHARGES
-----------------------
   0 C :   -0.571775
   1 C :    0.791102
   2 C :    0.103887
   3 C :    0.795319
   4 C :   -0.427560
   5 C :   -0.436299
   6 H :   -0.107760
   7 H :   -0.073479
   8 H :    0.848565
   9 O :   -0.884400
  10 H :    0.162453
  11 C :   -0.857902
  12 H :    0.262609
  13 H :    0.260131
  14 H :    0.260135
  15 C :   -0.891733
  16 H :    0.262422
  17 H :    0.241847
  18 H :    0.262437
Sum of atomic charges:    0.0000000

LOEWDIN ATOMIC CHARGES
----------------------
   0 C :    0.200481
   1 C :   -0.101815
   2 C :   -0.332911
   3 C :   -0.114717
   4 C :    0.204283
   5 C :    0.193571
   6 H :   -0.179913
   7 H :   -0.178714
   8 H :   -0.188080
   9 O :    0.871379
  10 H :   -0.512802
  11 C :    0.573401
  12 H :   -0.179441
  13 H :   -0.167185
  14 H :   -0.167183
  15 C :    0.575345
  16 H :   -0.160847
  17 H :   -0.174007
  18 H :   -0.160845

  Mayer bond orders larger than 0.100000
B(  0-C ,  1-C ) :   0.7484 B(  0-C ,  2-C ) :  -0.2835 B(  0-C ,  4-C ) :  -0.3153
B(  0-C ,  5-C ) :   1.0210 B(  0-C ,  6-H ) :   1.7754 B(  0-C ,  7-H ) :   0.1434
B(  1-C ,  2-C ) :   1.3967 B(  1-C ,  3-C ) :   0.1632 B(  1-C ,  4-C ) :   0.2084
B(  1-C ,  5-C ) :   0.3280 B(  1-C ,  6-H ) :  -0.3053 B(  1-C ,  7-H ) :  -0.1029
B(  1-C ,  9-O ) :  -0.2266 B(  1-C , 15-C ) :   0.2920 B(  1-C , 16-H ) :  -0.1158
B(  1-C , 18-H ) :  -0.1158 B(  2-C ,  3-C ) :   1.3501 B(  2-C ,  4-C ) :  -0.5273
B(  2-C ,  5-C ) :   0.1381 B(  2-C ,  6-H ) :   0.2203 B(  2-C ,  7-H ) :   0.1505
B(  2-C ,  9-O ) :   0.6433 B(  2-C , 11-C ) :   0.2713 B(  2-C , 15-C ) :   0.3549
B(  3-C ,  4-C ) :   0.8145 B(  3-C ,  5-C ) :   0.3027 B(  3-C ,  6-H ) :  -0.1345
B(  3-C ,  7-H ) :  -0.2348 B(  3-C , 11-C ) :   0.3516 B(  4-C ,  5-C ) :   0.9423
B(  4-C ,  6-H ) :   0.1440 B(  4-C ,  7-H ) :   1.7287 B(  4-C , 17-H ) :  -0.1095
B(  5-C ,  6-H ) :  -0.1486 B(  5-C ,  7-H ) :  -0.1538 B(  6-H ,  7-H ) :   0.2072
B(  6-H ,  8-H ) :  -0.1947 B(  7-H ,  8-H ) :  -0.1874 B(  9-O , 10-H ) :   1.0102
B( 11-C , 12-H ) :   1.0070 B( 11-C , 13-H ) :   1.0098 B( 11-C , 14-H ) :   1.0098
B( 15-C , 16-H ) :   0.9952 B( 15-C , 17-H ) :   1.0730 B( 15-C , 18-H ) :   0.9952

MP2 TOTAL ENERGY:     -385.338203728 Eh
FINAL SINGLE POINT ENERGY      -385.338203727901

DIPOLE MOMENT
-------------
                                X             Y             Z
Electronic contribution:     -0.29502       0.94803       0.00002
Nuclear contribution   :      0.86448      -1.02854      -0.00002
                        -----------------------------------------
Total Dipole Moment    :      0.56945      -0.08051       0.00000
                        -----------------------------------------
Magnitude (a.u.)       :      0.57512
Magnitude (Debye)      :      1.46183

Rotational constants in cm-1:     0.076606     0.059278     0.033838
Rotational constants in MHz :  2296.604478  1777.117000  1014.447333

                             ****ORCA TERMINATED NORMALLY****
TOTAL RUN TIME: 0 days 0 hours 4 minutes 30 seconds 346 msec
