                         Program Version 4.2.1 -  RELEASE  -
|  1> %pal
|  2>  nprocs 32
|  3> end
|  4> !RI-MP2 aug-cc-pVTZ aug-cc-pVTZ/C TightSCF
|  5> %maxcore 4500
|  6> *xyzfile 0 1  04_74R1.xyz
|  7>
|  8>
|  9>                          ****END OF INPUT****

CARTESIAN COORDINATES (ANGSTROEM)
---------------------------------
  C     -3.031331   -1.407851    0.080786
  H     -2.815834   -1.762521    1.100105
  H     -2.666039   -2.156851   -0.624129
  N     -2.453489   -0.111626   -0.199454
  C     -1.065520    0.017460   -0.109704
  C     -0.449701    1.280585   -0.073333
  C     -0.224414   -1.096909   -0.068755
  C      0.923549    1.409673   -0.026705
  H     -1.046141    2.181009   -0.084723
  C      1.160730   -0.966642   -0.022829
  H     -0.636102   -2.095345   -0.075157
  C      1.746499    0.288973   -0.004403
  H      1.382976    2.389941   -0.001804
  H      1.762214   -1.864608    0.004188
  H     -4.111583   -1.348806   -0.041755
  C     -3.266923    1.036042    0.142729
  O      3.091578    0.524232    0.042974
  C      3.953655   -0.590119    0.064414
  H      4.965485   -0.191440    0.095723
  H      3.836321   -1.205088   -0.834196
  H      3.784112   -1.211598    0.950153
  H     -4.316881    0.772784    0.025574
  H     -3.067444    1.871641   -0.530131
  H     -3.108546    1.381146    1.175340

 Total Charge           Charge          ....    0
 Multiplicity           Mult            ....    1
 Number of Electrons    NEL             ....   82
 Basis Dimension        Dim             ....  805

ORBITAL ENERGIES
----------------

  NO   OCC          E(Eh)            E(eV)
   0   2.0000     -20.573306      -559.8281
   1   2.0000     -15.562004      -423.4637
   2   2.0000     -11.279271      -306.9246
   3   2.0000     -11.276589      -306.8516
   4   2.0000     -11.264805      -306.5309
   5   2.0000     -11.251796      -306.1769
   6   2.0000     -11.251665      -306.1734
   7   2.0000     -11.225671      -305.4660
   8   2.0000     -11.223580      -305.4091
   9   2.0000     -11.222037      -305.3671
  10   2.0000     -11.221903      -305.3635
  11   2.0000      -1.400033       -38.0968
  12   2.0000      -1.252110       -34.0716
  13   2.0000      -1.133136       -30.8342
  14   2.0000      -1.017994       -27.7010
  15   2.0000      -1.009275       -27.4638
  16   2.0000      -0.965645       -26.2765
  17   2.0000      -0.939760       -25.5722
  18   2.0000      -0.874803       -23.8046
  19   2.0000      -0.826412       -22.4878
  20   2.0000      -0.778766       -21.1913
  21   2.0000      -0.718576       -19.5535
  22   2.0000      -0.676118       -18.3981
  23   2.0000      -0.670293       -18.2396
  24   2.0000      -0.648189       -17.6381
  25   2.0000      -0.636022       -17.3070
  26   2.0000      -0.623315       -16.9613
  27   2.0000      -0.606951       -16.5160
  28   2.0000      -0.586261       -15.9530
  29   2.0000      -0.567525       -15.4431
  30   2.0000      -0.559924       -15.2363
  31   2.0000      -0.551045       -14.9947
  32   2.0000      -0.529594       -14.4110
  33   2.0000      -0.527400       -14.3513
  34   2.0000      -0.518717       -14.1150
  35   2.0000      -0.504710       -13.7338
  36   2.0000      -0.470795       -12.8110
  37   2.0000      -0.469060       -12.7638
  38   2.0000      -0.391340       -10.6489
  39   2.0000      -0.336636        -9.1603
  40   2.0000      -0.267960        -7.2916
  41   0.0000       0.027793         0.7563
  42   0.0000       0.031002         0.8436
  43   0.0000       0.034338         0.9344
  44   0.0000       0.041778         1.1368
  45   0.0000       0.043676         1.1885

MULLIKEN ATOMIC CHARGES
-----------------------
   0 C :   -1.141344
   1 H :    0.324643
   2 H :    0.339603
   3 N :   -0.265023
   4 C :    1.484322
   5 C :   -0.134894
   6 C :   -0.651414
   7 C :   -0.981572
   8 H :    0.208185
   9 C :   -0.705778
  10 H :    0.069922
  11 C :    1.150831
  12 H :    0.473016
  13 H :    0.260232
  14 H :    0.366108
  15 C :   -1.146932
  16 O :   -0.853875
  17 C :   -0.909567
  18 H :    0.378315
  19 H :    0.359380
  20 H :    0.349909
  21 H :    0.358985
  22 H :    0.344176
  23 H :    0.322772
Sum of atomic charges:    0.0000000

LOEWDIN ATOMIC CHARGES
----------------------
   0 C :    0.459675
   1 H :   -0.142505
   2 H :   -0.173179
   3 N :    0.242615
   4 C :   -0.216924
   5 C :    0.220441
   6 C :    0.220567
   7 C :    0.211362
   8 H :   -0.206610
   9 C :    0.204402
  10 H :   -0.208334
  11 C :   -0.390850
  12 H :   -0.175547
  13 H :   -0.201825
  14 H :   -0.174361
  15 C :    0.462586
  16 O :    0.566010
  17 C :    0.323744
  18 H :   -0.181583
  19 H :   -0.174136
  20 H :   -0.174347
  21 H :   -0.174605
  22 H :   -0.174566
  23 H :   -0.142031

  Mayer bond orders larger than 0.100000
B(  0-C ,  1-H ) :   0.9226 B(  0-C ,  2-H ) :   0.9804 B(  0-C ,  3-N ) :   1.0689
B(  0-C ,  6-C ) :  -0.1241 B(  0-C , 14-H ) :   0.9042 B(  3-N ,  4-C ) :   0.6534
B(  3-N ,  5-C ) :  -0.4024 B(  3-N ,  6-C ) :  -0.3199 B(  3-N , 15-C ) :   1.0954
B(  4-C ,  5-C ) :   0.7954 B(  4-C ,  6-C ) :   0.6258 B(  4-C ,  7-C ) :  -0.1300
B(  4-C , 11-C ) :   0.1540 B(  5-C ,  7-C ) :   1.0938 B(  5-C ,  8-H ) :   1.1545
B(  5-C , 11-C ) :  -0.1230 B(  5-C , 15-C ) :  -0.1845 B(  6-C ,  9-C ) :   1.0040
B(  6-C , 10-H ) :   1.4092 B(  7-C ,  9-C ) :   0.2766 B(  7-C , 11-C ) :   0.6621
B(  7-C , 12-H ) :   0.6885 B(  7-C , 16-O ) :   0.2762 B(  9-C , 10-H ) :  -0.1772
B(  9-C , 11-C ) :   1.2710 B(  9-C , 13-H ) :   0.9764 B(  9-C , 16-O ) :  -0.2935
B( 11-C , 13-H ) :   0.1093 B( 11-C , 16-O ) :   0.2778 B( 13-H , 17-C ) :  -0.1111
B( 15-C , 21-H ) :   0.9063 B( 15-C , 22-H ) :   0.9726 B( 15-C , 23-H ) :   0.9243
B( 16-O , 17-C ) :   1.0104 B( 17-C , 18-H ) :   0.9159 B( 17-C , 19-H ) :   0.8912
B( 17-C , 20-H ) :   0.8944

MP2 TOTAL ENERGY:     -479.782189523 Eh
FINAL SINGLE POINT ENERGY      -479.782189523061

DIPOLE MOMENT
-------------
                                X             Y             Z
Electronic contribution:      5.71348       2.79470      -1.03017
Nuclear contribution   :     -6.11401      -3.29183       1.18010
                        -----------------------------------------
Total Dipole Moment    :     -0.40053      -0.49713       0.14993
                        -----------------------------------------
Magnitude (a.u.)       :      0.65578
Magnitude (Debye)      :      1.66685

Rotational constants in cm-1:     0.106113     0.019152     0.016418
Rotational constants in MHz :  3181.187256   574.175590   492.213351

                             ****ORCA TERMINATED NORMALLY****
TOTAL RUN TIME: 0 days 0 hours 8 minutes 28 seconds 392 msec
