                         Program Version 4.2.1 -  RELEASE  -
|  1> %pal
|  2>  nprocs 32
|  3> end
|  4> !RI-MP2 aug-cc-pVTZ aug-cc-pVTZ/C TightSCF
|  5> %maxcore 4500
|  6> *xyzfile 0 1  10_51TS.xyz
|  7>
|  8>
|  9>                          ****END OF INPUT****

CARTESIAN COORDINATES (ANGSTROEM)
---------------------------------
  C     -0.315361    1.364487    1.169897
  N      0.309387    0.071914    0.914649
  C     -0.299825   -1.141864    1.430195
  C     -0.926658   -2.067205    0.359006
  C     -1.797461   -1.262471   -0.550493
  C     -2.935000    0.493068   -0.054793
  C     -2.507890    1.927227   -0.122012
  C     -0.973774    2.060322   -0.044937
  C     -3.123161   -1.502802   -0.985888
  C     -3.710466   -0.250585   -0.978417
  H     -2.864863    0.061747    0.934010
  H     -1.240752   -0.537438   -1.125853
  C      1.564556    0.029572    0.328645
  C      2.178616    1.193256   -0.168015
  C      3.441201    1.148686   -0.736475
  C      4.140910   -0.043949   -0.842545
  C      3.543402   -1.200318   -0.362780
  C      2.282400   -1.173564    0.209145
  H     -1.058674    1.219441    1.955271
  H      0.440569    2.030589    1.596302
  H      0.430469   -1.707389    2.017694
  H     -1.083854   -0.840574    2.124399
  H     -1.487498   -2.853308    0.871256
  H     -0.128144   -2.546978   -0.215684
  H     -2.857311    2.392379   -1.047341
  H     -2.945562    2.489282    0.712552
  H     -0.530269    1.662595   -0.959601
  H     -0.724723    3.125507   -0.018571
  H     -3.576602   -2.472767   -1.163510
  H     -4.508159    0.138888   -1.603281
  H      1.669655    2.144318   -0.121518
  H      3.879340    2.068646   -1.106228
  H      5.125078   -0.072628   -1.291955
  H      4.064695   -2.148203   -0.431965
  H      1.861961   -2.100658    0.568287

 Total Charge           Charge          ....    0
 Multiplicity           Mult            ....    1
 Number of Electrons    NEL             ....  116
 Basis Dimension        Dim             .... 1173

ORBITAL ENERGIES
----------------

  NO   OCC          E(Eh)            E(eV)
   0   2.0000     -15.566461      -423.5849
   1   2.0000     -11.277443      -306.8748
   2   2.0000     -11.266286      -306.5712
   3   2.0000     -11.262764      -306.4754
   4   2.0000     -11.242945      -305.9361
   5   2.0000     -11.242246      -305.9171
   6   2.0000     -11.229988      -305.5835
   7   2.0000     -11.229905      -305.5813
   8   2.0000     -11.228006      -305.5296
   9   2.0000     -11.227225      -305.5083
  10   2.0000     -11.226423      -305.4865
  11   2.0000     -11.218798      -305.2790
  12   2.0000     -11.217527      -305.2444
  13   2.0000     -11.217334      -305.2392
  14   2.0000     -11.217130      -305.2336
  15   2.0000     -11.212343      -305.1034
  16   2.0000      -1.261239       -34.3201
  17   2.0000      -1.139172       -30.9984
  18   2.0000      -1.127572       -30.6828
  19   2.0000      -1.077835       -29.3294
  20   2.0000      -1.034003       -28.1367
  21   2.0000      -1.011392       -27.5214
  22   2.0000      -0.992372       -27.0038
  23   2.0000      -0.969936       -26.3933
  24   2.0000      -0.889571       -24.2064
  25   2.0000      -0.869808       -23.6687
  26   2.0000      -0.830088       -22.5878
  27   2.0000      -0.817929       -22.2570
  28   2.0000      -0.789360       -21.4796
  29   2.0000      -0.776811       -21.1381
  30   2.0000      -0.722522       -19.6608
  31   2.0000      -0.702712       -19.1218
  32   2.0000      -0.664912       -18.0932
  33   2.0000      -0.658070       -17.9070
  34   2.0000      -0.638717       -17.3804
  35   2.0000      -0.633228       -17.2310
  36   2.0000      -0.627118       -17.0647
  37   2.0000      -0.618443       -16.8287
  38   2.0000      -0.597081       -16.2474
  39   2.0000      -0.591163       -16.0864
  40   2.0000      -0.575785       -15.6679
  41   2.0000      -0.572250       -15.5717
  42   2.0000      -0.563208       -15.3257
  43   2.0000      -0.537706       -14.6317
  44   2.0000      -0.529085       -14.3971
  45   2.0000      -0.519501       -14.1363
  46   2.0000      -0.513825       -13.9819
  47   2.0000      -0.502258       -13.6671
  48   2.0000      -0.498674       -13.5696
  49   2.0000      -0.487961       -13.2781
  50   2.0000      -0.480815       -13.0836
  51   2.0000      -0.478392       -13.0177
  52   2.0000      -0.467407       -12.7188
  53   2.0000      -0.404111       -10.9964
  54   2.0000      -0.335051        -9.1172
  55   2.0000      -0.330337        -8.9889
  56   2.0000      -0.303864        -8.2686
  57   2.0000      -0.278816        -7.5870
  58   0.0000       0.025915         0.7052
  59   0.0000       0.029056         0.7907
  60   0.0000       0.031043         0.8447
  61   0.0000       0.032876         0.8946
  62   0.0000       0.040353         1.0981

MULLIKEN ATOMIC CHARGES
-----------------------
   0 C :   -0.558508
   1 N :    0.117026
   2 C :   -0.642915
   3 C :   -0.314789
   4 C :   -0.056572
   5 C :    0.189617
   6 C :   -0.543342
   7 C :   -0.287877
   8 C :   -0.910308
   9 C :   -1.058205
  10 H :    0.407797
  11 H :    0.372156
  12 C :    1.228527
  13 C :   -0.174105
  14 C :   -1.094614
  15 C :   -0.374390
  16 C :   -1.026499
  17 C :   -0.067024
  18 H :    0.082084
  19 H :    0.233321
  20 H :    0.281688
  21 H :    0.071178
  22 H :    0.321834
  23 H :    0.218540
  24 H :    0.196404
  25 H :    0.106056
  26 H :    0.157655
  27 H :    0.591306
  28 H :    0.565171
  29 H :    0.451171
  30 H :    0.151254
  31 H :    0.352041
  32 H :    0.619926
  33 H :    0.356545
  34 H :    0.037849
Sum of atomic charges:   -0.0000000

LOEWDIN ATOMIC CHARGES
----------------------
   0 C :    0.211560
   1 N :    0.300779
   2 C :    0.204323
   3 C :    0.323595
   4 C :    0.178493
   5 C :    0.173468
   6 C :    0.303460
   7 C :    0.313927
   8 C :    0.205285
   9 C :    0.201647
  10 H :   -0.198455
  11 H :   -0.197239
  12 C :   -0.194495
  13 C :    0.226321
  14 C :    0.191341
  15 C :    0.184464
  16 C :    0.191011
  17 C :    0.227543
  18 H :   -0.155710
  19 H :   -0.151086
  20 H :   -0.146182
  21 H :   -0.157722
  22 H :   -0.140270
  23 H :   -0.160583
  24 H :   -0.145413
  25 H :   -0.144034
  26 H :   -0.159754
  27 H :   -0.139544
  28 H :   -0.180064
  29 H :   -0.179051
  30 H :   -0.215709
  31 H :   -0.178290
  32 H :   -0.193772
  33 H :   -0.178256
  34 H :   -0.221588

  Mayer bond orders larger than 0.100000
B(  0-C ,  1-N ) :   0.9927 B(  0-C ,  2-C ) :  -0.1863 B(  0-C ,  7-C ) :   0.8060
B(  0-C , 17-C ) :   0.1417 B(  0-C , 18-H ) :   1.2113 B(  0-C , 19-H ) :   1.0162
B(  0-C , 27-H ) :  -0.1067 B(  1-N ,  2-C ) :   1.1213 B(  1-N ,  4-C ) :  -0.1442
B(  1-N , 12-C ) :   0.6087 B(  1-N , 13-C ) :  -0.7392 B(  1-N , 17-C ) :  -0.5286
B(  2-C ,  3-C ) :   0.9065 B(  2-C ,  4-C ) :   0.1610 B(  2-C , 12-C ) :  -0.1652
B(  2-C , 13-C ) :   0.1243 B(  2-C , 20-H ) :   1.0506 B(  2-C , 21-H ) :   1.1185
B(  3-C ,  4-C ) :   0.7733 B(  3-C ,  8-C ) :  -0.1502 B(  3-C , 22-H ) :   0.9315
B(  3-C , 23-H ) :   1.0791 B(  4-C ,  5-C ) :   0.5405 B(  4-C ,  8-C ) :   1.0161
B(  4-C ,  9-C ) :   0.1083 B(  4-C , 11-H ) :   0.7841 B(  5-C ,  6-C ) :   0.7893
B(  5-C ,  7-C ) :   0.1345 B(  5-C ,  9-C ) :   0.7748 B(  5-C , 10-H ) :   0.8292
B(  6-C ,  7-C ) :   0.8539 B(  6-C ,  9-C ) :  -0.1176 B(  6-C , 24-H ) :   1.0809
B(  6-C , 25-H ) :   1.1870 B(  6-C , 26-H ) :   0.1409 B(  6-C , 27-H ) :  -0.1624
B(  7-C , 26-H ) :   1.0722 B(  7-C , 27-H ) :   0.6967 B(  8-C ,  9-C ) :   1.0941
B(  8-C , 28-H ) :   0.7153 B(  9-C , 29-H ) :   0.9194 B( 12-C , 13-C ) :   0.8024
B( 12-C , 15-C ) :  -0.1525 B( 12-C , 17-C ) :   1.0315 B( 12-C , 30-H ) :  -0.3729
B( 12-C , 31-H ) :   0.1431 B( 12-C , 33-H ) :   0.1564 B( 12-C , 34-H ) :  -0.4287
B( 13-C , 14-C ) :   1.0643 B( 13-C , 15-C ) :   0.1711 B( 13-C , 17-C ) :  -0.4736
B( 13-C , 30-H ) :   1.2718 B( 14-C , 15-C ) :   1.1069 B( 14-C , 16-C ) :   0.2626
B( 14-C , 31-H ) :   0.9046 B( 14-C , 32-H ) :  -0.1307 B( 15-C , 16-C ) :   1.0648
B( 15-C , 17-C ) :   0.1091 B( 15-C , 32-H ) :   0.5345 B( 16-C , 17-C ) :   0.9501
B( 16-C , 32-H ) :  -0.1331 B( 16-C , 33-H ) :   0.8651 B( 17-C , 32-H ) :   0.1125
B( 17-C , 34-H ) :   1.5014

MP2 TOTAL ENERGY:     -636.331575587 Eh
FINAL SINGLE POINT ENERGY      -636.331575586760

DIPOLE MOMENT
-------------
                                X             Y             Z
Electronic contribution:      5.39003      -1.92204      -1.28420
Nuclear contribution   :     -5.65038       2.09751       1.73574
                        -----------------------------------------
Total Dipole Moment    :     -0.26035       0.17547       0.45155
                        -----------------------------------------
Magnitude (a.u.)       :      0.54997
Magnitude (Debye)      :      1.39791

Rotational constants in cm-1:     0.033512     0.011771     0.010040
Rotational constants in MHz :  1004.650300   352.893793   300.984151

                             ****ORCA TERMINATED NORMALLY****
TOTAL RUN TIME: 0 days 0 hours 35 minutes 20 seconds 378 msec
