                         Program Version 4.2.1 -  RELEASE  -
|  1> %pal
|  2>  nprocs 32
|  3> end
|  4> !RI-MP2 aug-cc-pVTZ aug-cc-pVTZ/C TightSCF
|  5> %maxcore 4500
|  6> *xyzfile 0 1  03_26R1.xyz
|  7>
|  8>
|  9>                          ****END OF INPUT****

CARTESIAN COORDINATES (ANGSTROEM)
---------------------------------
  N     -0.275339    0.300524   -0.295080
  S      1.048835   -0.425341    0.514729
  O      2.241216    0.345947   -0.206469
  C      2.460231    0.096947   -1.608843
  C     -1.642729   -0.358722   -0.204475
  Cl    -0.293724    2.001405    0.125286
  O      1.130730   -0.055583    1.897535
  O      1.054364   -1.808576    0.108751
  H      3.364640    0.647649   -1.850466
  H      1.615266    0.473940   -2.184553
  H      2.601490   -0.969154   -1.780991
  C     -1.592421   -1.673894   -0.988430
  C     -2.633813    0.563650   -0.916352
  C     -2.063932   -0.585355    1.244746
  H     -1.210198   -1.502440   -1.995805
  H     -2.611542   -2.055687   -1.068718
  H     -0.976802   -2.426766   -0.507870
  H     -2.269505    0.836726   -1.907781
  H     -2.834722    1.472598   -0.353514
  H     -3.574908    0.025357   -1.033019
  H     -1.420656   -1.312682    1.741518
  H     -3.086085   -0.967281    1.270170
  H     -2.032140    0.345576    1.812656

 Total Charge           Charge          ....    0
 Multiplicity           Mult            ....    1
 Number of Electrons    NEL             ....  106
 Basis Dimension        Dim             ....  790

ORBITAL ENERGIES
----------------

  NO   OCC          E(Eh)            E(eV)
   0   2.0000    -104.877802     -2853.8701
   1   2.0000     -92.247858     -2510.1918
   2   2.0000     -20.630573      -561.3864
   3   2.0000     -20.570643      -559.7556
   4   2.0000     -20.566263      -559.6365
   5   2.0000     -15.663455      -426.2243
   6   2.0000     -11.306791      -307.6734
   7   2.0000     -11.305928      -307.6500
   8   2.0000     -11.231540      -305.6258
   9   2.0000     -11.226406      -305.4860
  10   2.0000     -11.223362      -305.4032
  11   2.0000     -10.599080      -288.4156
  12   2.0000      -9.208066      -250.5642
  13   2.0000      -8.065990      -219.4867
  14   2.0000      -8.063516      -219.4194
  15   2.0000      -8.063286      -219.4132
  16   2.0000      -6.893853      -187.5913
  17   2.0000      -6.893187      -187.5732
  18   2.0000      -6.892523      -187.5551
  19   2.0000      -1.522345       -41.4251
  20   2.0000      -1.401826       -38.1456
  21   2.0000      -1.368662       -37.2432
  22   2.0000      -1.282394       -34.8957
  23   2.0000      -1.114094       -30.3160
  24   2.0000      -1.043185       -28.3865
  25   2.0000      -0.988996       -26.9119
  26   2.0000      -0.957071       -26.0432
  27   2.0000      -0.949153       -25.8278
  28   2.0000      -0.860835       -23.4245
  29   2.0000      -0.780626       -21.2419
  30   2.0000      -0.738292       -20.0900
  31   2.0000      -0.706671       -19.2295
  32   2.0000      -0.698920       -19.0186
  33   2.0000      -0.665949       -18.1214
  34   2.0000      -0.657621       -17.8948
  35   2.0000      -0.641365       -17.4524
  36   2.0000      -0.626606       -17.0508
  37   2.0000      -0.610978       -16.6256
  38   2.0000      -0.586809       -15.9679
  39   2.0000      -0.569983       -15.5100
  40   2.0000      -0.563155       -15.3242
  41   2.0000      -0.544673       -14.8213
  42   2.0000      -0.540141       -14.6980
  43   2.0000      -0.534952       -14.5568
  44   2.0000      -0.529368       -14.4048
  45   2.0000      -0.523816       -14.2538
  46   2.0000      -0.510558       -13.8930
  47   2.0000      -0.503987       -13.7142
  48   2.0000      -0.496698       -13.5158
  49   2.0000      -0.485516       -13.2116
  50   2.0000      -0.482833       -13.1386
  51   2.0000      -0.457525       -12.4499
  52   2.0000      -0.412589       -11.2271
  53   0.0000       0.025201         0.6858
  54   0.0000       0.030967         0.8427
  55   0.0000       0.035647         0.9700
  56   0.0000       0.038454         1.0464
  57   0.0000       0.048556         1.3213

MULLIKEN ATOMIC CHARGES
-----------------------
   0 N :   -0.079606
   1 S :    2.350437
   2 O :   -0.728756
   3 C :   -0.855529
   4 C :    1.927762
   5 Cl:   -0.381940
   6 O :   -1.039449
   7 O :   -1.004469
   8 H :    0.358466
   9 H :    0.381815
  10 H :    0.375686
  11 C :   -1.293572
  12 C :   -1.263544
  13 C :   -1.128997
  14 H :    0.243313
  15 H :    0.199189
  16 H :    0.337854
  17 H :    0.282382
  18 H :    0.322759
  19 H :    0.217264
  20 H :    0.312863
  21 H :    0.209687
  22 H :    0.256386
Sum of atomic charges:   -0.0000000

LOEWDIN ATOMIC CHARGES
----------------------
   0 N :   -0.365388
   1 S :   -0.167134
   2 O :    0.314684
   3 C :    0.308118
   4 C :   -0.599996
   5 Cl:    0.889313
   6 O :    0.051631
   7 O :    0.112877
   8 H :   -0.186622
   9 H :   -0.198158
  10 H :   -0.197293
  11 C :    0.559845
  12 C :    0.517049
  13 C :    0.555744
  14 H :   -0.153859
  15 H :   -0.160328
  16 H :   -0.237792
  17 H :   -0.161173
  18 H :   -0.214585
  19 H :   -0.162106
  20 H :   -0.175399
  21 H :   -0.153556
  22 H :   -0.175869

  Mayer bond orders larger than 0.100000
B(  0-N ,  1-S ) :   0.9606 B(  0-N ,  4-C ) :   0.1026 B(  0-N ,  5-Cl) :   0.5482
B(  0-N , 11-C ) :   0.1172 B(  1-S ,  2-O ) :   0.7502 B(  1-S ,  6-O ) :   1.1510
B(  1-S ,  7-O ) :   1.2209 B(  2-O ,  3-C ) :   0.8411 B(  3-C ,  8-H ) :   0.9252
B(  3-C ,  9-H ) :   0.8356 B(  3-C , 10-H ) :   0.8656 B(  4-C , 11-C ) :   0.3920
B(  4-C , 12-C ) :   0.2555 B(  4-C , 13-C ) :   0.5111 B(  4-C , 19-H ) :  -0.1212
B(  4-C , 21-H ) :  -0.1066 B( 11-C , 13-C ) :   0.1269 B( 11-C , 14-H ) :   1.0464
B( 11-C , 15-H ) :   1.1022 B( 11-C , 16-H ) :   0.9614 B( 12-C , 17-H ) :   1.0268
B( 12-C , 18-H ) :   1.0039 B( 12-C , 19-H ) :   1.1008 B( 13-C , 20-H ) :   0.9573
B( 13-C , 21-H ) :   1.0714 B( 13-C , 22-H ) :   0.9986

MP2 TOTAL ENERGY:    -1334.735491402 Eh
FINAL SINGLE POINT ENERGY     -1334.735491401621

DIPOLE MOMENT
-------------
                                X             Y             Z
Electronic contribution:     11.05055       8.43706       6.46076
Nuclear contribution   :    -11.82517      -8.19778      -7.92368
                        -----------------------------------------
Total Dipole Moment    :     -0.77462       0.23928      -1.46292
                        -----------------------------------------
Magnitude (a.u.)       :      1.67255
Magnitude (Debye)      :      4.25128

Rotational constants in cm-1:     0.038698     0.025158     0.022013
Rotational constants in MHz :  1160.126546   754.231163   659.947311

                             ****ORCA TERMINATED NORMALLY****
TOTAL RUN TIME: 0 days 0 hours 9 minutes 39 seconds 245 msec
