                         Program Version 4.2.1 -  RELEASE  -
|  1> %pal
|  2>  nprocs 32
|  3> end
|  4> !RI-MP2 aug-cc-pVTZ aug-cc-pVTZ/C TightSCF
|  5> %maxcore 4500
|  6> *xyzfile 0 2  04_35R2.xyz
|  7>
|  8>
|  9>                          ****END OF INPUT****

CARTESIAN COORDINATES (ANGSTROEM)
---------------------------------
  S      0.115430   -0.144779   -0.402711
  C     -1.545496    0.299314    0.199779
  H     -1.527512    0.309213    1.288057
  H     -1.827820    1.271562   -0.203271
  H     -2.222837   -0.471212   -0.163993
  C      0.992373    1.219507    0.219766
  O      0.544831   -1.391318    0.312431
  H      0.721206    2.208081   -0.128743
  H      1.970177    1.016434    0.634603

 Total Charge           Charge          ....    0
 Multiplicity           Mult            ....    2
 Number of Electrons    NEL             ....   41
 Basis Dimension        Dim             ....  303

ORBITAL ENERGIES
----------------
                 SPIN UP ORBITALS
  NO   OCC          E(Eh)            E(eV)
   0   1.0000     -92.077758     -2505.5632
   1   1.0000     -20.508762      -558.0718
   2   1.0000     -11.283261      -307.0331
   3   1.0000     -11.270600      -306.6886
   4   1.0000      -9.064247      -246.6507
   5   1.0000      -6.746034      -183.5689
   6   1.0000      -6.745584      -183.5567
   7   1.0000      -6.744576      -183.5292
   8   1.0000      -1.338343       -36.4182
   9   1.0000      -1.077716       -29.3261
  10   1.0000      -0.985487       -26.8165
  11   1.0000      -0.817668       -22.2499
  12   1.0000      -0.652158       -17.7461
  13   1.0000      -0.640293       -17.4233
  14   1.0000      -0.625425       -17.0187
  15   1.0000      -0.580453       -15.7949
  16   1.0000      -0.572264       -15.5721
  17   1.0000      -0.531868       -14.4729
  18   1.0000      -0.443761       -12.0753
  19   1.0000      -0.431853       -11.7513
  20   1.0000      -0.350573        -9.5396
  21   0.0000       0.023853         0.6491
  22   0.0000       0.036067         0.9814
  23   0.0000       0.042398         1.1537
  24   0.0000       0.048907         1.3308
  25   0.0000       0.058645         1.5958

                 SPIN DOWN ORBITALS
  NO   OCC          E(Eh)            E(eV)
   0   1.0000     -92.078216     -2505.5756
   1   1.0000     -20.509227      -558.0844
   2   1.0000     -11.267984      -306.6174
   3   1.0000     -11.260149      -306.4042
   4   1.0000      -9.064675      -246.6624
   5   1.0000      -6.747563      -183.6105
   6   1.0000      -6.746659      -183.5859
   7   1.0000      -6.744494      -183.5270
   8   1.0000      -1.337254       -36.3885
   9   1.0000      -1.054670       -28.6990
  10   1.0000      -0.942992       -25.6601
  11   1.0000      -0.791830       -21.5468
  12   1.0000      -0.641156       -17.4467
  13   1.0000      -0.631946       -17.1961
  14   1.0000      -0.617968       -16.8158
  15   1.0000      -0.571187       -15.5428
  16   1.0000      -0.564390       -15.3578
  17   1.0000      -0.523781       -14.2528
  18   1.0000      -0.428933       -11.6718
  19   1.0000      -0.373837       -10.1726
  20   0.0000       0.022890         0.6229
  21   0.0000       0.033415         0.9093
  22   0.0000       0.040103         1.0913
  23   0.0000       0.047322         1.2877
  24   0.0000       0.058674         1.5966

MULLIKEN ATOMIC CHARGES AND SPIN POPULATIONS
--------------------------------------------
   0 S :    0.937286   -0.098316
   1 C :   -0.812693    0.072147
   2 H :    0.298645   -0.004395
   3 H :    0.328179   -0.005165
   4 H :    0.287802    0.005415
   5 C :   -0.950366    1.109602
   6 O :   -0.927923   -0.001113
   7 H :    0.467836   -0.030710
   8 H :    0.371233   -0.047465
Sum of atomic charges         :    0.0000000

LOEWDIN ATOMIC CHARGES AND SPIN POPULATIONS
-------------------------------------------
   0 S :    0.738022    0.128322
   1 C :    0.393571    0.039921
   2 H :   -0.224286    0.009820
   3 H :   -0.232992    0.004211
   4 H :   -0.234374    0.005633
   5 C :    0.325442    0.576037
   6 O :   -0.188745   -0.005092
   7 H :   -0.288739    0.119178
   8 H :   -0.287898    0.121970

  Mayer bond orders larger than 0.100000
B(  0-S ,  1-C ) :   0.9046 B(  0-S ,  5-C ) :   1.0201 B(  0-S ,  6-O ) :   1.2705
B(  1-C ,  2-H ) :   0.8835 B(  1-C ,  3-H ) :   0.8747 B(  1-C ,  4-H ) :   0.9370
B(  5-C ,  7-H ) :   0.7363 B(  5-C ,  8-H ) :   0.8516

MP2 TOTAL ENERGY:     -551.777238248 Eh
FINAL SINGLE POINT ENERGY      -551.777238247838

DIPOLE MOMENT
-------------
                                X             Y             Z
Electronic contribution:      2.20865      -2.64426      -1.64812
Nuclear contribution   :     -2.87728       4.30990       1.44176
                        -----------------------------------------
Total Dipole Moment    :     -0.66862       1.66563      -0.20636
                        -----------------------------------------
Magnitude (a.u.)       :      1.80665
Magnitude (Debye)      :      4.59213

Rotational constants in cm-1:     0.250236     0.235731     0.141683
Rotational constants in MHz :  7501.874184  7067.025868  4247.534788

                             ****ORCA TERMINATED NORMALLY****
TOTAL RUN TIME: 0 days 0 hours 0 minutes 46 seconds 220 msec
