                         Program Version 4.2.1 -  RELEASE  -
|  1> %pal
|  2>  nprocs 32
|  3> end
|  4> !RI-MP2 aug-cc-pVTZ aug-cc-pVTZ/C TightSCF
|  5> %maxcore 4500
|  6> *xyzfile 0 1  03_10P2.xyz
|  7>
|  8>
|  9>                          ****END OF INPUT****

CARTESIAN COORDINATES (ANGSTROEM)
---------------------------------
  F     -1.871725   -0.652518    0.000002
  S     -0.997302    0.736788   -0.000001
  C      0.638626   -0.043836    0.000000
  F      1.512847    0.969162    0.000001
  F      0.853054   -0.798633   -1.072499
  F      0.853055   -0.798632    1.072499

 Total Charge           Charge          ....    0
 Multiplicity           Mult            ....    1
 Number of Electrons    NEL             ....   58
 Basis Dimension        Dim             ....  280

ORBITAL ENERGIES
----------------

  NO   OCC          E(Eh)            E(eV)
   0   2.0000     -92.084263     -2505.7402
   1   2.0000     -26.376416      -717.7388
   2   2.0000     -26.368605      -717.5262
   3   2.0000     -26.368581      -717.5256
   4   2.0000     -26.345583      -716.8997
   5   2.0000     -11.559649      -314.5540
   6   2.0000      -9.077531      -247.0122
   7   2.0000      -6.758438      -183.9064
   8   2.0000      -6.756690      -183.8589
   9   2.0000      -6.755018      -183.8134
  10   2.0000      -1.765157       -48.0324
  11   2.0000      -1.671595       -45.4864
  12   2.0000      -1.665515       -45.3210
  13   2.0000      -1.634234       -44.4698
  14   2.0000      -1.079917       -29.3860
  15   2.0000      -0.955417       -25.9982
  16   2.0000      -0.858543       -23.3621
  17   2.0000      -0.855717       -23.2852
  18   2.0000      -0.826053       -22.4780
  19   2.0000      -0.743240       -20.2246
  20   2.0000      -0.740504       -20.1501
  21   2.0000      -0.715029       -19.4569
  22   2.0000      -0.712984       -19.4013
  23   2.0000      -0.693888       -18.8817
  24   2.0000      -0.692292       -18.8382
  25   2.0000      -0.678155       -18.4535
  26   2.0000      -0.673322       -18.3220
  27   2.0000      -0.537518       -14.6266
  28   2.0000      -0.428891       -11.6707
  29   0.0000       0.044653         1.2151
  30   0.0000       0.053331         1.4512
  31   0.0000       0.070551         1.9198
  32   0.0000       0.082134         2.2350
  33   0.0000       0.095998         2.6122

MULLIKEN ATOMIC CHARGES
-----------------------
   0 F :   -0.524039
   1 S :    0.388993
   2 C :    1.161828
   3 F :   -0.336889
   4 F :   -0.344947
   5 F :   -0.344947
Sum of atomic charges:    0.0000000

LOEWDIN ATOMIC CHARGES
----------------------
   0 F :   -0.120144
   1 S :    0.755247
   2 C :   -1.955875
   3 F :    0.431486
   4 F :    0.444643
   5 F :    0.444643

  Mayer bond orders larger than 0.100000
B(  0-F ,  1-S ) :   0.6540 B(  1-S ,  2-C ) :   0.9803 B(  2-C ,  3-F ) :   0.8214
B(  2-C ,  4-F ) :   0.8328 B(  2-C ,  5-F ) :   0.8328

MP2 TOTAL ENERGY:     -834.664149778 Eh
FINAL SINGLE POINT ENERGY      -834.664149778408

DIPOLE MOMENT
-------------
                                X             Y             Z
Electronic contribution:      1.10290      -0.61167       0.00000
Nuclear contribution   :     -1.17920       1.12681      -0.00000
                        -----------------------------------------
Total Dipole Moment    :     -0.07630       0.51514      -0.00000
                        -----------------------------------------
Magnitude (a.u.)       :      0.52076
Magnitude (Debye)      :      1.32366

Rotational constants in cm-1:     0.151500     0.077265     0.069648
Rotational constants in MHz :  4541.858518  2316.342698  2087.988344

                             ****ORCA TERMINATED NORMALLY****
TOTAL RUN TIME: 0 days 0 hours 0 minutes 24 seconds 80 msec
