                         Program Version 4.2.1 -  RELEASE  -
|  1> %pal
|  2>  nprocs 32
|  3> end
|  4> !RI-MP2 aug-cc-pVTZ aug-cc-pVTZ/C TightSCF
|  5> %maxcore 4500
|  6> *xyzfile 0 1  04_57P2.xyz
|  7>
|  8>
|  9>                          ****END OF INPUT****

CARTESIAN COORDINATES (ANGSTROEM)
---------------------------------
  O     -0.968361   -1.746238   -0.160858
  O     -1.217838   -0.409329    0.269620
  C     -0.198969    0.439921   -0.277470
  C      1.109495    0.203917    0.416628
  C     -0.724031    1.848742   -0.076246
  H     -0.107864    0.207249   -1.342426
  H     -1.685011    1.970257   -0.576522
  H     -0.015426    2.569075   -0.487327
  H     -0.855477    2.061388    0.986629
  C      2.181222   -0.305949   -0.170895
  H      1.136507    0.475295    1.470133
  H      2.167308   -0.587141   -1.218721
  H      3.109391   -0.456926    0.367238
  H     -0.466134   -2.114453    0.578790

 Total Charge           Charge          ....    0
 Multiplicity           Mult            ....    1
 Number of Electrons    NEL             ....   48
 Basis Dimension        Dim             ....  460

ORBITAL ENERGIES
----------------

  NO   OCC          E(Eh)            E(eV)
   0   2.0000     -20.618736      -561.0643
   1   2.0000     -20.617410      -561.0283
   2   2.0000     -11.291694      -307.2626
   3   2.0000     -11.239887      -305.8529
   4   2.0000     -11.236842      -305.7700
   5   2.0000     -11.224250      -305.4274
   6   2.0000      -1.478272       -40.2258
   7   2.0000      -1.225914       -33.3588
   8   2.0000      -1.074830       -29.2476
   9   2.0000      -0.995439       -27.0873
  10   2.0000      -0.860679       -23.4203
  11   2.0000      -0.779281       -21.2053
  12   2.0000      -0.724685       -19.7197
  13   2.0000      -0.668304       -18.1855
  14   2.0000      -0.636574       -17.3220
  15   2.0000      -0.632231       -17.2039
  16   2.0000      -0.611360       -16.6360
  17   2.0000      -0.551311       -15.0019
  18   2.0000      -0.541471       -14.7342
  19   2.0000      -0.518475       -14.1084
  20   2.0000      -0.505776       -13.7629
  21   2.0000      -0.476928       -12.9779
  22   2.0000      -0.450673       -12.2634
  23   2.0000      -0.384750       -10.4696
  24   0.0000       0.028194         0.7672
  25   0.0000       0.035668         0.9706
  26   0.0000       0.037203         1.0123
  27   0.0000       0.043456         1.1825
  28   0.0000       0.054435         1.4813

MULLIKEN ATOMIC CHARGES
-----------------------
   0 O :   -0.376598
   1 O :   -0.500836
   2 C :    0.653329
   3 C :   -0.292663
   4 C :   -0.996702
   5 H :    0.380568
   6 H :    0.264230
   7 H :    0.337981
   8 H :    0.279279
   9 C :   -1.094755
  10 H :    0.316328
  11 H :    0.223463
  12 H :    0.549999
  13 H :    0.256375
Sum of atomic charges:   -0.0000000

LOEWDIN ATOMIC CHARGES
----------------------
   0 O :    0.575935
   1 O :    0.349472
   2 C :   -0.363755
   3 C :    0.161041
   4 C :    0.570730
   5 H :   -0.164044
   6 H :   -0.168193
   7 H :   -0.165673
   8 H :   -0.168786
   9 C :    0.529437
  10 H :   -0.180182
  11 H :   -0.212173
  12 H :   -0.219845
  13 H :   -0.543963

  Mayer bond orders larger than 0.100000
B(  0-O ,  1-O ) :   0.8422 B(  0-O , 13-H ) :   0.9499 B(  1-O ,  2-C ) :   0.5791
B(  1-O ,  3-C ) :   0.1073 B(  1-O ,  4-C ) :   0.1124 B(  2-C ,  3-C ) :   0.7741
B(  2-C ,  4-C ) :   0.7960 B(  2-C ,  5-H ) :   0.9392 B(  3-C ,  4-C ) :   0.1120
B(  3-C ,  9-C ) :   1.3702 B(  3-C , 10-H ) :   0.9905 B(  4-C ,  6-H ) :   0.9826
B(  4-C ,  7-H ) :   0.9254 B(  4-C ,  8-H ) :   0.9619 B(  9-C , 11-H ) :   1.1949
B(  9-C , 12-H ) :   0.5576

MP2 TOTAL ENERGY:     -307.018475515 Eh
FINAL SINGLE POINT ENERGY      -307.018475514954

DIPOLE MOMENT
-------------
                                X             Y             Z
Electronic contribution:     -2.50333      -3.90193       0.42586
Nuclear contribution   :      3.32411       4.18555      -0.22560
                        -----------------------------------------
Total Dipole Moment    :      0.82078       0.28362       0.20026
                        -----------------------------------------
Magnitude (a.u.)       :      0.89119
Magnitude (Debye)      :      2.26523

Rotational constants in cm-1:     0.132407     0.111545     0.066527
Rotational constants in MHz :  3969.456215  3344.047704  1994.420640

                             ****ORCA TERMINATED NORMALLY****
TOTAL RUN TIME: 0 days 0 hours 1 minutes 15 seconds 112 msec
