                         Program Version 4.2.1 -  RELEASE  -
|  1> %pal
|  2>  nprocs 32
|  3> end
|  4> !RI-MP2 aug-cc-pVTZ aug-cc-pVTZ/C TightSCF
|  5> %maxcore 4500
|  6> *xyzfile 0 1  08_15P1.xyz
|  7>
|  8>
|  9>                          ****END OF INPUT****

CARTESIAN COORDINATES (ANGSTROEM)
---------------------------------
  C     -2.730225    1.049490    0.124214
  C     -1.628169    0.763860    1.150078
  C     -1.046233   -0.652085    1.020853
  O     -2.005727   -1.633171    0.856375
  C     -2.890825   -1.414366   -0.245878
  C     -3.678896   -0.128561   -0.044450
  H     -3.558648   -2.272406   -0.270980
  O     -2.193545    1.315124   -1.163651
  H     -3.292988    1.924550    0.467029
  H     -1.617831    2.083741   -1.088161
  O     -4.570392    0.088764   -1.114935
  H     -4.281892   -0.227004    0.861752
  H     -4.067232    0.529540   -1.810990
  O     -0.155436   -0.665743   -0.119399
  C      1.108150   -1.047294    0.052463
  O      1.584842   -1.403977    1.102828
  C      1.901393   -0.936524   -1.224301
  C      3.281238   -0.330475   -0.950178
  H      1.348737   -0.326906   -1.935708
  H      2.018741   -1.937175   -1.647657
  C      3.126489    1.026870   -0.247046
  O      2.163087    1.732544   -0.392696
  O      4.156357    1.354322    0.517098
  H      4.729434    0.556364    0.539473
  N      4.218585   -1.144983   -0.184300
  H      3.748513   -0.101746   -1.912581
  H      3.731096   -1.634045    0.561557
  H      4.708918   -1.815696   -0.760703
  N     -0.638891    1.824505    1.099343
  H     -0.227875    2.028524    1.999085
  H      0.112751    1.651083    0.440159
  H     -2.325613   -1.371009   -1.180230
  H     -2.108549    0.786759    2.132495
  H     -0.466444   -0.919620    1.900664

 Total Charge           Charge          ....    0
 Multiplicity           Mult            ....    1
 Number of Electrons    NEL             ....  140
 Basis Dimension        Dim             .... 1196

ORBITAL ENERGIES
----------------

  NO   OCC          E(Eh)            E(eV)
   0   2.0000     -20.613881      -560.9322
   1   2.0000     -20.610906      -560.8513
   2   2.0000     -20.576581      -559.9172
   3   2.0000     -20.563695      -559.5666
   4   2.0000     -20.561723      -559.5129
   5   2.0000     -20.553684      -559.2942
   6   2.0000     -20.553450      -559.2878
   7   2.0000     -15.583695      -424.0539
   8   2.0000     -15.544149      -422.9778
   9   2.0000     -11.400899      -310.2342
  10   2.0000     -11.392147      -309.9961
  11   2.0000     -11.348720      -308.8144
  12   2.0000     -11.310803      -307.7826
  13   2.0000     -11.283316      -307.0346
  14   2.0000     -11.279968      -306.9435
  15   2.0000     -11.274754      -306.8017
  16   2.0000     -11.270853      -306.6955
  17   2.0000     -11.266817      -306.5857
  18   2.0000      -1.488622       -40.5075
  19   2.0000      -1.473197       -40.0877
  20   2.0000      -1.413547       -38.4646
  21   2.0000      -1.384622       -37.6775
  22   2.0000      -1.376319       -37.4515
  23   2.0000      -1.367982       -37.2247
  24   2.0000      -1.351356       -36.7723
  25   2.0000      -1.231943       -33.5229
  26   2.0000      -1.193401       -32.4741
  27   2.0000      -1.075084       -29.2545
  28   2.0000      -1.044485       -28.4219
  29   2.0000      -1.018494       -27.7146
  30   2.0000      -0.950517       -25.8649
  31   2.0000      -0.898251       -24.4426
  32   2.0000      -0.867274       -23.5997
  33   2.0000      -0.832379       -22.6502
  34   2.0000      -0.819759       -22.3068
  35   2.0000      -0.773232       -21.0407
  36   2.0000      -0.770238       -20.9592
  37   2.0000      -0.732895       -19.9431
  38   2.0000      -0.722913       -19.6715
  39   2.0000      -0.712685       -19.3931
  40   2.0000      -0.700274       -19.0554
  41   2.0000      -0.695734       -18.9319
  42   2.0000      -0.681055       -18.5325
  43   2.0000      -0.679620       -18.4934
  44   2.0000      -0.669401       -18.2153
  45   2.0000      -0.649137       -17.6639
  46   2.0000      -0.642620       -17.4866
  47   2.0000      -0.629467       -17.1287
  48   2.0000      -0.627397       -17.0723
  49   2.0000      -0.611207       -16.6318
  50   2.0000      -0.603179       -16.4133
  51   2.0000      -0.596097       -16.2206
  52   2.0000      -0.591878       -16.1058
  53   2.0000      -0.578081       -15.7304
  54   2.0000      -0.572944       -15.5906
  55   2.0000      -0.552613       -15.0374
  56   2.0000      -0.547864       -14.9081
  57   2.0000      -0.542685       -14.7672
  58   2.0000      -0.523879       -14.2555
  59   2.0000      -0.511117       -13.9082
  60   2.0000      -0.493922       -13.4403
  61   2.0000      -0.488080       -13.2813
  62   2.0000      -0.486500       -13.2384
  63   2.0000      -0.480244       -13.0681
  64   2.0000      -0.465494       -12.6667
  65   2.0000      -0.459693       -12.5089
  66   2.0000      -0.453455       -12.3391
  67   2.0000      -0.433600       -11.7988
  68   2.0000      -0.422733       -11.5031
  69   2.0000      -0.387839       -10.5536
  70   0.0000       0.015973         0.4347
  71   0.0000       0.030578         0.8321
  72   0.0000       0.032008         0.8710
  73   0.0000       0.033024         0.8986
  74   0.0000       0.042679         1.1614

MULLIKEN ATOMIC CHARGES
-----------------------
   0 C :    0.262957
   1 C :    0.456051
   2 C :    0.554185
   3 O :   -0.995142
   4 C :   -0.513333
   5 C :    0.432923
   6 H :    0.347955
   7 O :   -0.804961
   8 H :    0.318154
   9 H :    0.158240
  10 O :   -0.879771
  11 H :    0.340277
  12 H :    0.199975
  13 O :   -0.349566
  14 C :    0.834523
  15 O :   -1.162548
  16 C :   -0.303392
  17 C :    0.484645
  18 H :    0.154494
  19 H :    0.365120
  20 C :    0.679022
  21 O :   -0.838631
  22 O :   -0.654946
  23 H :    0.221976
  24 N :   -0.665328
  25 H :    0.466921
  26 H :    0.167346
  27 H :    0.027764
  28 N :   -0.880276
  29 H :   -0.016740
  30 H :    0.344498
  31 H :    0.323770
  32 H :    0.358528
  33 H :    0.565309
Sum of atomic charges:   -0.0000000

LOEWDIN ATOMIC CHARGES
----------------------
   0 C :   -0.223690
   1 C :   -0.095937
   2 C :   -0.443650
   3 O :    0.608325
   4 C :    0.078012
   5 C :   -0.263480
   6 H :   -0.149937
   7 O :    0.862384
   8 H :   -0.121959
   9 H :   -0.483998
  10 O :    0.845849
  11 H :   -0.133544
  12 H :   -0.535536
  13 O :    0.629365
  14 C :   -0.797951
  15 O :    0.517082
  16 C :    0.299211
  17 C :   -0.117685
  18 H :   -0.157792
  19 H :   -0.134672
  20 C :   -0.774556
  21 O :    0.492783
  22 O :    0.860404
  23 H :   -0.567752
  24 N :    0.870223
  25 H :   -0.124008
  26 H :   -0.348942
  27 H :   -0.282878
  28 N :    0.878857
  29 H :   -0.294849
  30 H :   -0.420649
  31 H :   -0.158981
  32 H :   -0.126164
  33 H :   -0.183882

  Mayer bond orders larger than 0.100000
B(  0-C ,  1-C ) :   0.9567 B(  0-C ,  2-C ) :   0.1804 B(  0-C ,  5-C ) :   0.9713
B(  0-C ,  7-O ) :   0.4016 B(  0-C ,  8-H ) :   0.8884 B(  0-C , 10-O ) :   0.1989
B(  1-C ,  2-C ) :   1.0208 B(  1-C ,  3-O ) :   0.1235 B(  1-C , 28-N ) :   0.2747
B(  1-C , 32-H ) :   0.8457 B(  2-C ,  3-O ) :   0.2147 B(  2-C , 13-O ) :   0.6926
B(  2-C , 33-H ) :   0.7735 B(  3-O ,  4-C ) :   0.9983 B(  4-C ,  5-C ) :   0.9314
B(  4-C ,  6-H ) :   0.8946 B(  4-C , 10-O ) :   0.1497 B(  4-C , 31-H ) :   0.9628
B(  5-C ,  7-O ) :   0.1557 B(  5-C , 10-O ) :   0.1128 B(  5-C , 11-H ) :   0.9670
B(  7-O ,  9-H ) :   0.9747 B( 10-O , 12-H ) :   1.0043 B( 13-O , 14-C ) :   1.0279
B( 13-O , 33-H ) :  -0.1030 B( 14-C , 15-O ) :   0.9686 B( 14-C , 16-C ) :   0.6487
B( 16-C , 17-C ) :   1.0761 B( 16-C , 18-H ) :   1.0336 B( 16-C , 19-H ) :   0.8448
B( 17-C , 20-C ) :   0.7391 B( 17-C , 22-O ) :   0.1583 B( 17-C , 24-N ) :   0.4165
B( 17-C , 25-H ) :   0.8697 B( 20-C , 21-O ) :   1.3973 B( 20-C , 22-O ) :   0.5915
B( 20-C , 24-N ) :   0.1455 B( 21-O , 30-H ) :  -0.1059 B( 22-O , 23-H ) :   0.8745
B( 23-H , 24-N ) :   0.1506 B( 24-N , 26-H ) :   0.9310 B( 24-N , 27-H ) :   1.1104
B( 28-N , 29-H ) :   1.0743 B( 28-N , 30-H ) :   0.7965 B( 28-N , 32-H ) :  -0.1054

MP2 TOTAL ENERGY:     -987.096238366 Eh
FINAL SINGLE POINT ENERGY      -987.096238365521

DIPOLE MOMENT
-------------
                                X             Y             Z
Electronic contribution:      3.01900       0.05908       1.12598
Nuclear contribution   :     -1.53634      -1.02356      -1.69597
                        -----------------------------------------
Total Dipole Moment    :      1.48265      -0.96448      -0.56999
                        -----------------------------------------
Magnitude (a.u.)       :      1.85833
Magnitude (Debye)      :      4.72349

Rotational constants in cm-1:     0.030132     0.007797     0.007177
Rotational constants in MHz :   903.340400   233.752664   215.165235

                             ****ORCA TERMINATED NORMALLY****
TOTAL RUN TIME: 0 days 0 hours 33 minutes 26 seconds 415 msec
