                         Program Version 4.2.1 -  RELEASE  -
|  1> %pal
|  2>  nprocs 32
|  3> end
|  4> !RI-MP2 aug-cc-pVTZ aug-cc-pVTZ/C TightSCF
|  5> %maxcore 4500
|  6> *xyzfile 0 2  04_89R2.xyz
|  7>
|  8>
|  9>                          ****END OF INPUT****

CARTESIAN COORDINATES (ANGSTROEM)
---------------------------------
  N      0.163773   -0.661448   -0.539311
  C      1.210596    0.178054   -0.262438
  C      2.288424   -0.653894   -0.001681
  N      1.925955   -1.978464   -0.119560
  C      0.664354   -1.940734   -0.446170
  C      3.496960   -0.019241    0.323526
  N      3.532366    1.318017    0.356081
  C      2.420626    1.998644    0.082528
  N      1.222922    1.517896   -0.233401
  N      4.616507   -0.709708    0.601700
  H      5.458443   -0.207751    0.826167
  H      4.608169   -1.715053    0.580704
  H      2.507312    3.079086    0.124924
  H      0.028659   -2.792600   -0.624819
  C     -1.170165   -0.242254   -0.963844
  C     -1.732675    0.878109   -0.077860
  C     -3.206356    0.518882   -0.044996
  C     -3.145245   -1.009196    0.024850
  O     -2.055994   -1.329553   -0.874660
  H     -1.110550    0.094500   -2.002657
  C     -2.912198   -1.545026    1.385942
  H     -4.034654   -1.463397   -0.426040
  H     -2.462067   -2.522475    1.494555
  H     -3.318693   -1.033159    2.246337
  O     -1.529115    2.170777   -0.567844
  H     -1.330734    0.768405    0.936453
  H     -0.568847    2.334317   -0.507196
  O     -3.912394    1.062789    1.040689
  H     -3.660212    0.820326   -0.996508
  H     -3.853400    2.021580    0.984905

 Total Charge           Charge          ....    0
 Multiplicity           Mult            ....    2
 Number of Electrons    NEL             ....  131
 Basis Dimension        Dim             .... 1104

ORBITAL ENERGIES
----------------
                 SPIN UP ORBITALS
  NO   OCC          E(Eh)            E(eV)
   0   1.0000     -20.585752      -560.1668
   1   1.0000     -20.574723      -559.8667
   2   1.0000     -20.558318      -559.4203
   3   1.0000     -15.630194      -425.3192
   4   1.0000     -15.591161      -424.2571
   5   1.0000     -15.569541      -423.6687
   6   1.0000     -15.565831      -423.5678
   7   1.0000     -15.556895      -423.3246
   8   1.0000     -11.344506      -308.6997
   9   1.0000     -11.344082      -308.6882
  10   1.0000     -11.320506      -308.0466
  11   1.0000     -11.319876      -308.0295
  12   1.0000     -11.318218      -307.9844
  13   1.0000     -11.301881      -307.5398
  14   1.0000     -11.295468      -307.3653
  15   1.0000     -11.291456      -307.2562
  16   1.0000     -11.254457      -306.2493
  17   1.0000     -11.240768      -305.8769
  18   1.0000      -1.428803       -38.8797
  19   1.0000      -1.386500       -37.7286
  20   1.0000      -1.373029       -37.3620
  21   1.0000      -1.365489       -37.1568
  22   1.0000      -1.312121       -35.7046
  23   1.0000      -1.258824       -34.2543
  24   1.0000      -1.201832       -32.7035
  25   1.0000      -1.165563       -31.7166
  26   1.0000      -1.074124       -29.2284
  27   1.0000      -1.044028       -28.4095
  28   1.0000      -1.035381       -28.1742
  29   1.0000      -0.950101       -25.8536
  30   1.0000      -0.902214       -24.5505
  31   1.0000      -0.886620       -24.1261
  32   1.0000      -0.856694       -23.3118
  33   1.0000      -0.820379       -22.3237
  34   1.0000      -0.793830       -21.6012
  35   1.0000      -0.770752       -20.9732
  36   1.0000      -0.752927       -20.4882
  37   1.0000      -0.740490       -20.1498
  38   1.0000      -0.713467       -19.4144
  39   1.0000      -0.698203       -18.9991
  40   1.0000      -0.688394       -18.7322
  41   1.0000      -0.672066       -18.2878
  42   1.0000      -0.661102       -17.9895
  43   1.0000      -0.650705       -17.7066
  44   1.0000      -0.642864       -17.4932
  45   1.0000      -0.630943       -17.1688
  46   1.0000      -0.620450       -16.8833
  47   1.0000      -0.609760       -16.5924
  48   1.0000      -0.592286       -16.1169
  49   1.0000      -0.585044       -15.9199
  50   1.0000      -0.577626       -15.7180
  51   1.0000      -0.556174       -15.1343
  52   1.0000      -0.548554       -14.9269
  53   1.0000      -0.539000       -14.6669
  54   1.0000      -0.510486       -13.8910
  55   1.0000      -0.505759       -13.7624
  56   1.0000      -0.494270       -13.4498
  57   1.0000      -0.468324       -12.7437
  58   1.0000      -0.458051       -12.4642
  59   1.0000      -0.456986       -12.4352
  60   1.0000      -0.445074       -12.1111
  61   1.0000      -0.420557       -11.4439
  62   1.0000      -0.411224       -11.1900
  63   1.0000      -0.380115       -10.3435
  64   1.0000      -0.369849       -10.0641
  65   1.0000      -0.316076        -8.6009
  66   0.0000       0.026093         0.7100
  67   0.0000       0.029358         0.7989
  68   0.0000       0.032688         0.8895
  69   0.0000       0.035992         0.9794
  70   0.0000       0.040217         1.0944

                 SPIN DOWN ORBITALS
  NO   OCC          E(Eh)            E(eV)
   0   1.0000     -20.584689      -560.1379
   1   1.0000     -20.574755      -559.8676
   2   1.0000     -20.558292      -559.4196
   3   1.0000     -15.630158      -425.3182
   4   1.0000     -15.591162      -424.2571
   5   1.0000     -15.569531      -423.6685
   6   1.0000     -15.565853      -423.5684
   7   1.0000     -15.556885      -423.3244
   8   1.0000     -11.344512      -308.6999
   9   1.0000     -11.344110      -308.6889
  10   1.0000     -11.320515      -308.0469
  11   1.0000     -11.319885      -308.0297
  12   1.0000     -11.318200      -307.9839
  13   1.0000     -11.305084      -307.6270
  14   1.0000     -11.294756      -307.3459
  15   1.0000     -11.291376      -307.2540
  16   1.0000     -11.254443      -306.2490
  17   1.0000     -11.217455      -305.2425
  18   1.0000      -1.426692       -38.8223
  19   1.0000      -1.386271       -37.7223
  20   1.0000      -1.372453       -37.3463
  21   1.0000      -1.365407       -37.1546
  22   1.0000      -1.312060       -35.7030
  23   1.0000      -1.258822       -34.2543
  24   1.0000      -1.201641       -32.6983
  25   1.0000      -1.165478       -31.7143
  26   1.0000      -1.062228       -28.9047
  27   1.0000      -1.043698       -28.4005
  28   1.0000      -1.024511       -27.8784
  29   1.0000      -0.916265       -24.9328
  30   1.0000      -0.901071       -24.5194
  31   1.0000      -0.886027       -24.1100
  32   1.0000      -0.845313       -23.0021
  33   1.0000      -0.813809       -22.1449
  34   1.0000      -0.783607       -21.3230
  35   1.0000      -0.769612       -20.9422
  36   1.0000      -0.750056       -20.4100
  37   1.0000      -0.739471       -20.1220
  38   1.0000      -0.711465       -19.3599
  39   1.0000      -0.697388       -18.9769
  40   1.0000      -0.687383       -18.7047
  41   1.0000      -0.669111       -18.2074
  42   1.0000      -0.659878       -17.9562
  43   1.0000      -0.646903       -17.6031
  44   1.0000      -0.639690       -17.4069
  45   1.0000      -0.629272       -17.1234
  46   1.0000      -0.619488       -16.8571
  47   1.0000      -0.608351       -16.5541
  48   1.0000      -0.589683       -16.0461
  49   1.0000      -0.575961       -15.6727
  50   1.0000      -0.573120       -15.5954
  51   1.0000      -0.552394       -15.0314
  52   1.0000      -0.543582       -14.7916
  53   1.0000      -0.537513       -14.6265
  54   1.0000      -0.510475       -13.8907
  55   1.0000      -0.504468       -13.7273
  56   1.0000      -0.490617       -13.3504
  57   1.0000      -0.464703       -12.6452
  58   1.0000      -0.455738       -12.4013
  59   1.0000      -0.453380       -12.3371
  60   1.0000      -0.444244       -12.0885
  61   1.0000      -0.420239       -11.4353
  62   1.0000      -0.410812       -11.1788
  63   1.0000      -0.376876       -10.2553
  64   1.0000      -0.316042        -8.5999
  65   0.0000       0.026187         0.7126
  66   0.0000       0.029490         0.8025
  67   0.0000       0.032705         0.8900
  68   0.0000       0.036221         0.9856
  69   0.0000       0.040280         1.0961

MULLIKEN ATOMIC CHARGES AND SPIN POPULATIONS
--------------------------------------------
   0 N :    0.517169   -0.013659
   1 C :   -0.311497    0.001643
   2 C :    2.062360   -0.004279
   3 N :   -1.107455   -0.001695
   4 C :   -0.427653    0.000617
   5 C :   -0.171994   -0.000102
   6 N :   -0.386381    0.000280
   7 C :   -0.761867   -0.000034
   8 N :   -0.750739    0.000645
   9 N :   -0.514373   -0.000057
  10 H :    0.072375    0.000005
  11 H :    0.103451    0.000005
  12 H :    0.632247    0.000067
  13 H :    0.708221   -0.000137
  14 C :    0.181298    0.027065
  15 C :    0.910470   -0.025509
  16 C :    0.351381    0.035865
  17 C :    0.397643   -0.234938
  18 O :   -0.880788    0.019357
  19 H :    0.315716    0.002132
  20 C :   -1.193478    1.265587
  21 H :    0.450250    0.089522
  22 H :    0.319573   -0.098026
  23 H :    0.439296   -0.053603
  24 O :   -1.050078    0.000461
  25 H :    0.285023   -0.006760
  26 H :    0.242781   -0.000151
  27 O :   -0.813956   -0.001060
  28 H :    0.220959   -0.004267
  29 H :    0.160045    0.001027
Sum of atomic charges         :   -0.0000000

LOEWDIN ATOMIC CHARGES AND SPIN POPULATIONS
-------------------------------------------
   0 N :    0.289859    0.001870
   1 C :   -0.419124    0.000268
   2 C :   -0.302955    0.000213
   3 N :    0.400773   -0.000230
   4 C :   -0.033628    0.001350
   5 C :   -0.409634   -0.000021
   6 N :    0.397208    0.000133
   7 C :   -0.145124   -0.000141
   8 N :    0.430617    0.000121
   9 N :    0.875670   -0.000046
  10 H :   -0.283207   -0.000003
  11 H :   -0.282854   -0.000003
  12 H :   -0.193389   -0.000040
  13 H :   -0.166472    0.000190
  14 C :   -0.300063    0.003725
  15 C :   -0.260658    0.009260
  16 C :   -0.257989    0.010749
  17 C :   -0.265784    0.124963
  18 O :    0.613322    0.013327
  19 H :   -0.117158    0.000248
  20 C :    0.619779    0.557375
  21 H :   -0.138974    0.029756
  22 H :   -0.213186    0.117972
  23 H :   -0.223286    0.118563
  24 O :    0.859321    0.000990
  25 H :   -0.126899    0.007905
  26 H :   -0.613263    0.000076
  27 O :    0.851391    0.000744
  28 H :   -0.120006    0.000454
  29 H :   -0.464287    0.000233

  Mayer bond orders larger than 0.100000
B(  0-N ,  1-C ) :   0.9617 B(  0-N ,  2-C ) :  -0.1901 B(  0-N ,  3-N ) :  -0.1551
B(  0-N ,  4-C ) :   1.1253 B(  0-N ,  8-N ) :  -0.3259 B(  0-N , 14-C ) :   0.7592
B(  1-C ,  2-C ) :   0.9477 B(  1-C ,  3-N ) :   0.5478 B(  1-C ,  4-C ) :  -0.5617
B(  1-C ,  5-C ) :   1.4600 B(  1-C ,  7-C ) :  -0.6286 B(  1-C ,  8-N ) :   0.8262
B(  1-C , 14-C ) :  -0.1557 B(  2-C ,  3-N ) :  -0.1306 B(  2-C ,  5-C ) :  -1.3409
B(  2-C ,  8-N ) :  -0.5261 B(  2-C ,  9-N ) :  -0.2581 B(  3-N ,  4-C ) :   1.2345
B(  3-N , 13-H ) :  -0.1265 B(  4-C , 13-H ) :   0.3290 B(  5-C ,  6-N ) :   0.2289
B(  5-C ,  7-C ) :  -0.3230 B(  5-C ,  8-N ) :   0.3357 B(  5-C ,  9-N ) :   1.0853
B(  6-N ,  7-C ) :   1.1327 B(  6-N ,  9-N ) :  -0.2187 B(  7-C ,  8-N ) :   1.7848
B(  7-C , 12-H ) :   0.4343 B(  8-N , 14-C ) :   0.1474 B(  8-N , 15-C ) :  -0.1338
B(  8-N , 24-O ) :  -0.1019 B(  9-N , 10-H ) :   1.1628 B(  9-N , 11-H ) :   1.1095
B( 14-C , 15-C ) :   0.8750 B( 14-C , 18-O ) :   0.6774 B( 14-C , 19-H ) :   0.9770
B( 14-C , 24-O ) :   0.2141 B( 15-C , 16-C ) :   0.8222 B( 15-C , 25-H ) :   0.9691
B( 16-C , 17-C ) :   0.9927 B( 16-C , 18-O ) :   0.1014 B( 16-C , 24-O ) :   0.1588
B( 16-C , 27-O ) :   0.2938 B( 16-C , 28-H ) :   1.0603 B( 17-C , 18-O ) :   0.6584
B( 17-C , 20-C ) :   0.6896 B( 17-C , 21-H ) :   0.8089 B( 17-C , 27-O ) :   0.1121
B( 20-C , 22-H ) :   0.9610 B( 20-C , 23-H ) :   0.7924 B( 24-O , 26-H ) :   0.9045
B( 27-O , 29-H ) :   1.0403

MP2 TOTAL ENERGY:     -886.125312324 Eh
FINAL SINGLE POINT ENERGY      -886.125312323566

DIPOLE MOMENT
-------------
                                X             Y             Z
Electronic contribution:      7.79188       0.27584      -2.53256
Nuclear contribution   :     -7.65646      -0.57931       2.58661
                        -----------------------------------------
Total Dipole Moment    :      0.13542      -0.30347       0.05405
                        -----------------------------------------
Magnitude (a.u.)       :      0.33668
Magnitude (Debye)      :      0.85577

Rotational constants in cm-1:     0.031116     0.009259     0.007806
Rotational constants in MHz :   932.834911   277.563315   234.032857

                             ****ORCA TERMINATED NORMALLY****
TOTAL RUN TIME: 0 days 0 hours 37 minutes 39 seconds 399 msec
