                         Program Version 4.2.1 -  RELEASE  -
|  1> %pal
|  2>  nprocs 32
|  3> end
|  4> !RI-MP2 aug-cc-pVTZ aug-cc-pVTZ/C TightSCF
|  5> %maxcore 4500
|  6> *xyzfile 0 1  02_43P.xyz
|  7>
|  8>
|  9>                          ****END OF INPUT****

CARTESIAN COORDINATES (ANGSTROEM)
---------------------------------
  C      0.517417   -1.137942    0.020451
  C      0.422160   -0.644457    1.440712
  C      0.877001    1.211003    0.106076
  C      0.618282    0.669283    1.486490
  S      1.943324   -0.130401   -0.657067
  C     -2.525035    0.579103    0.369694
  C     -0.624640   -0.501441   -0.813979
  C     -0.375673    1.031207   -0.783796
  C     -1.675951    1.689361   -0.257156
  H     -2.402094    0.534857    1.455096
  H     -2.211419    2.141300   -1.093606
  H     -1.458912    2.492163    0.448401
  H     -3.593335    0.661784    0.169147
  O      3.183509   -0.354850    0.140365
  C     -1.991431   -0.730285   -0.176810
  O     -2.540488   -1.796715   -0.112860
  H      0.579563    1.288519    2.371819
  H      0.187099   -1.288856    2.276106
  H      0.647056   -2.205988   -0.124397
  H     -0.635920   -0.917131   -1.822412
  H      1.345293    2.189952    0.043675
  H     -0.147464    1.407346   -1.780890

 Total Charge           Charge          ....    0
 Multiplicity           Mult            ....    1
 Number of Electrons    NEL             ....   96
 Basis Dimension        Dim             ....  786

ORBITAL ENERGIES
----------------

  NO   OCC          E(Eh)            E(eV)
   0   2.0000     -92.073394     -2505.4444
   1   2.0000     -20.560701      -559.4851
   2   2.0000     -20.514796      -558.2360
   3   2.0000     -11.342239      -308.6380
   4   2.0000     -11.288038      -307.1631
   5   2.0000     -11.284626      -307.0703
   6   2.0000     -11.268612      -306.6345
   7   2.0000     -11.266491      -306.5768
   8   2.0000     -11.256282      -306.2990
   9   2.0000     -11.254497      -306.2504
  10   2.0000     -11.253659      -306.2276
  11   2.0000     -11.248129      -306.0772
  12   2.0000      -9.059753      -246.5284
  13   2.0000      -6.740903      -183.4293
  14   2.0000      -6.740777      -183.4259
  15   2.0000      -6.739648      -183.3952
  16   2.0000      -1.406910       -38.2840
  17   2.0000      -1.343982       -36.5716
  18   2.0000      -1.211260       -32.9601
  19   2.0000      -1.114021       -30.3141
  20   2.0000      -1.040580       -28.3156
  21   2.0000      -1.027307       -27.9545
  22   2.0000      -0.950189       -25.8560
  23   2.0000      -0.926988       -25.2246
  24   2.0000      -0.819657       -22.3040
  25   2.0000      -0.805886       -21.9293
  26   2.0000      -0.765567       -20.8321
  27   2.0000      -0.732371       -19.9288
  28   2.0000      -0.721850       -19.6426
  29   2.0000      -0.681699       -18.5500
  30   2.0000      -0.670703       -18.2507
  31   2.0000      -0.625943       -17.0328
  32   2.0000      -0.611866       -16.6497
  33   2.0000      -0.604348       -16.4451
  34   2.0000      -0.592143       -16.1130
  35   2.0000      -0.584171       -15.8961
  36   2.0000      -0.564829       -15.3698
  37   2.0000      -0.557060       -15.1584
  38   2.0000      -0.549103       -14.9418
  39   2.0000      -0.534392       -14.5415
  40   2.0000      -0.511749       -13.9254
  41   2.0000      -0.499285       -13.5862
  42   2.0000      -0.494174       -13.4472
  43   2.0000      -0.478410       -13.0182
  44   2.0000      -0.425289       -11.5727
  45   2.0000      -0.403153       -10.9703
  46   2.0000      -0.393470       -10.7069
  47   2.0000      -0.355203        -9.6656
  48   0.0000       0.018997         0.5169
  49   0.0000       0.027354         0.7444
  50   0.0000       0.031217         0.8495
  51   0.0000       0.033148         0.9020
  52   0.0000       0.043856         1.1934

MULLIKEN ATOMIC CHARGES
-----------------------
   0 C :   -0.090349
   1 C :   -0.626170
   2 C :   -0.110283
   3 C :   -0.687827
   4 S :    0.462207
   5 C :   -0.403188
   6 C :   -0.262730
   7 C :   -0.002146
   8 C :   -0.656896
   9 H :    0.250377
  10 H :    0.149032
  11 H :    0.299980
  12 H :    0.342055
  13 O :   -1.000575
  14 C :    0.797026
  15 O :   -1.076134
  16 H :    0.475671
  17 H :    0.488351
  18 H :    0.439084
  19 H :    0.362230
  20 H :    0.426099
  21 H :    0.424186
Sum of atomic charges:   -0.0000000

LOEWDIN ATOMIC CHARGES
----------------------
   0 C :   -0.123508
   1 C :    0.186043
   2 C :   -0.127027
   3 C :    0.183775
   4 S :    0.948983
   5 C :    0.322968
   6 C :   -0.035416
   7 C :   -0.034522
   8 C :    0.333324
   9 H :   -0.146207
  10 H :   -0.141443
  11 H :   -0.138167
  12 H :   -0.141696
  13 O :   -0.175573
  14 C :   -0.489119
  15 O :    0.486355
  16 H :   -0.156642
  17 H :   -0.153312
  18 H :   -0.164950
  19 H :   -0.129204
  20 H :   -0.166752
  21 H :   -0.137911

  Mayer bond orders larger than 0.100000
B(  0-C ,  1-C ) :   1.0325 B(  0-C ,  4-S ) :   0.9383 B(  0-C ,  6-C ) :   1.0384
B(  0-C , 18-H ) :   0.8390 B(  1-C ,  3-C ) :   1.6619 B(  1-C ,  6-C ) :   0.1253
B(  1-C ,  7-C ) :   0.1498 B(  1-C , 17-H ) :   0.7785 B(  1-C , 18-H ) :  -0.1115
B(  2-C ,  3-C ) :   0.9880 B(  2-C ,  4-S ) :   1.0820 B(  2-C ,  7-C ) :   0.9723
B(  2-C , 13-O ) :   0.1106 B(  2-C , 20-H ) :   0.8439 B(  3-C ,  4-S ) :   0.1169
B(  3-C ,  7-C ) :   0.2685 B(  3-C , 16-H ) :   0.7807 B(  3-C , 20-H ) :  -0.1212
B(  4-S ,  7-C ) :  -0.1845 B(  4-S , 13-O ) :   1.1642 B(  5-C ,  8-C ) :   1.0812
B(  5-C ,  9-H ) :   0.9814 B(  5-C , 12-H ) :   0.8622 B(  5-C , 14-C ) :   0.7631
B(  6-C ,  7-C ) :   1.0997 B(  6-C , 14-C ) :   0.9319 B(  6-C , 15-O ) :   0.1339
B(  6-C , 19-H ) :   0.8262 B(  7-C ,  8-C ) :   0.8233 B(  7-C , 21-H ) :   0.8118
B(  8-C , 10-H ) :   1.0656 B(  8-C , 11-H ) :   0.9612 B(  8-C , 14-C ) :   0.1288
B( 14-C , 15-O ) :   0.6324

MP2 TOTAL ENERGY:     -896.154006248 Eh
FINAL SINGLE POINT ENERGY      -896.154006247921

DIPOLE MOMENT
-------------
                                X             Y             Z
Electronic contribution:      6.38597      -4.71700      -2.12014
Nuclear contribution   :     -7.65748       6.20719       1.94272
                        -----------------------------------------
Total Dipole Moment    :     -1.27152       1.49019      -0.17742
                        -----------------------------------------
Magnitude (a.u.)       :      1.96695
Magnitude (Debye)      :      4.99960

Rotational constants in cm-1:     0.058035     0.023946     0.021496
Rotational constants in MHz :  1739.858202   717.890194   644.441509

                             ****ORCA TERMINATED NORMALLY****
TOTAL RUN TIME: 0 days 0 hours 11 minutes 50 seconds 12 msec
