                         Program Version 4.2.1 -  RELEASE  -
|  1> %pal
|  2>  nprocs 32
|  3> end
|  4> !RI-MP2 aug-cc-pVTZ aug-cc-pVTZ/C TightSCF
|  5> %maxcore 4500
|  6> *xyzfile 0 1  02_32P.xyz
|  7>
|  8>
|  9>                          ****END OF INPUT****

CARTESIAN COORDINATES (ANGSTROEM)
---------------------------------
  C      1.433790   -0.013726   -0.117256
  N      1.145066   -0.823724    1.076949
  N     -0.035288   -1.159503    1.189375
  C     -0.915349   -0.699417    0.101689
  N     -0.267402   -1.126797   -1.184703
  N      0.903113   -0.783563   -1.295119
  C      0.558687    1.239136   -0.059729
  C     -0.873019    0.844360    0.046931
  C     -0.223578    1.593360    1.177623
  H     -0.508078    2.633115    1.275330
  H     -0.004034    1.098476    2.112019
  C     -2.274879   -1.332794    0.235176
  H     -2.896682   -1.094500   -0.626751
  H     -2.167804   -2.415756    0.295891
  H     -2.765747   -0.980709    1.143426
  C      2.912094    0.219446   -0.267841
  H      3.290427    0.778861    0.588353
  H      3.437369   -0.734207   -0.323662
  H      3.111952    0.781073   -1.180984
  C     -1.940665    1.503179   -0.789415
  H     -1.974185    1.078044   -1.794767
  H     -2.927474    1.392465   -0.335879
  H     -1.735040    2.570954   -0.880868
  H      0.858387    2.026030   -0.740682

 Total Charge           Charge          ....    0
 Multiplicity           Mult            ....    1
 Number of Electrons    NEL             ....   88
 Basis Dimension        Dim             ....  828

ORBITAL ENERGIES
----------------

  NO   OCC          E(Eh)            E(eV)
   0   2.0000     -15.634127      -425.4262
   1   2.0000     -15.633295      -425.4036
   2   2.0000     -15.632670      -425.3866
   3   2.0000     -15.631643      -425.3586
   4   2.0000     -11.311588      -307.8039
   5   2.0000     -11.311560      -307.8032
   6   2.0000     -11.265475      -306.5491
   7   2.0000     -11.256189      -306.2965
   8   2.0000     -11.247859      -306.0698
   9   2.0000     -11.236481      -305.7602
  10   2.0000     -11.228685      -305.5481
  11   2.0000     -11.228474      -305.5423
  12   2.0000      -1.434335       -39.0302
  13   2.0000      -1.349420       -36.7196
  14   2.0000      -1.191533       -32.4233
  15   2.0000      -1.144797       -31.1515
  16   2.0000      -1.042237       -28.3607
  17   2.0000      -0.987039       -26.8587
  18   2.0000      -0.930820       -25.3289
  19   2.0000      -0.909108       -24.7381
  20   2.0000      -0.906061       -24.6552
  21   2.0000      -0.840295       -22.8656
  22   2.0000      -0.800590       -21.7852
  23   2.0000      -0.737258       -20.0618
  24   2.0000      -0.717087       -19.5129
  25   2.0000      -0.679561       -18.4918
  26   2.0000      -0.641202       -17.4480
  27   2.0000      -0.619014       -16.8442
  28   2.0000      -0.597979       -16.2718
  29   2.0000      -0.580962       -15.8088
  30   2.0000      -0.578555       -15.7433
  31   2.0000      -0.568977       -15.4826
  32   2.0000      -0.563341       -15.3293
  33   2.0000      -0.557821       -15.1791
  34   2.0000      -0.548491       -14.9252
  35   2.0000      -0.541002       -14.7214
  36   2.0000      -0.528001       -14.3676
  37   2.0000      -0.518104       -14.0983
  38   2.0000      -0.490286       -13.3414
  39   2.0000      -0.477575       -12.9955
  40   2.0000      -0.459746       -12.5103
  41   2.0000      -0.419291       -11.4095
  42   2.0000      -0.414524       -11.2798
  43   2.0000      -0.351004        -9.5513
  44   0.0000       0.023730         0.6457
  45   0.0000       0.029163         0.7936
  46   0.0000       0.034191         0.9304
  47   0.0000       0.035422         0.9639
  48   0.0000       0.044731         1.2172

MULLIKEN ATOMIC CHARGES
-----------------------
   0 C :    1.538699
   1 N :   -0.583229
   2 N :   -0.664570
   3 C :    1.766075
   4 N :   -0.397735
   5 N :   -0.663121
   6 C :   -0.723051
   7 C :    0.927126
   8 C :   -1.355140
   9 H :    0.279993
  10 H :    0.354305
  11 C :   -1.314797
  12 H :    0.279611
  13 H :    0.263192
  14 H :    0.278644
  15 C :   -1.353481
  16 H :    0.267671
  17 H :    0.305042
  18 H :    0.260638
  19 C :   -0.887723
  20 H :    0.289093
  21 H :    0.238437
  22 H :    0.276476
  23 H :    0.617844
Sum of atomic charges:   -0.0000000

LOEWDIN ATOMIC CHARGES
----------------------
   0 C :   -0.609805
   1 N :    0.269586
   2 N :    0.269905
   3 C :   -0.597160
   4 N :    0.264234
   5 N :    0.268401
   6 C :    0.058021
   7 C :   -0.283266
   8 C :    0.423976
   9 H :   -0.140560
  10 H :   -0.171596
  11 C :    0.580779
  12 H :   -0.168146
  13 H :   -0.159213
  14 H :   -0.151257
  15 C :    0.584373
  16 H :   -0.156873
  17 H :   -0.161200
  18 H :   -0.162009
  19 C :    0.616946
  20 H :   -0.150539
  21 H :   -0.156808
  22 H :   -0.157606
  23 H :   -0.110181

  Mayer bond orders larger than 0.100000
B(  0-C ,  1-N ) :   0.2878 B(  0-C ,  2-N ) :   0.1792 B(  0-C ,  3-C ) :  -0.1975
B(  0-C ,  4-N ) :   0.2192 B(  0-C ,  5-N ) :   0.3499 B(  0-C ,  6-C ) :   1.3207
B(  0-C ,  8-C ) :   0.1203 B(  0-C , 15-C ) :  -0.2870 B(  0-C , 16-H ) :  -0.1961
B(  0-C , 17-H ) :  -0.1800 B(  0-C , 18-H ) :  -0.1556 B(  1-N ,  3-C ) :   0.2555
B(  1-N ,  6-C ) :   0.1580 B(  1-N , 15-C ) :   0.1371 B(  2-N ,  3-C ) :   0.3127
B(  2-N ,  5-N ) :   0.1035 B(  2-N ,  7-C ) :   0.1955 B(  2-N , 11-C ) :   0.1089
B(  3-C ,  4-N ) :   0.1927 B(  3-C ,  5-N ) :   0.2271 B(  3-C ,  7-C ) :   0.9639
B(  3-C ,  8-C ) :  -0.1787 B(  3-C , 11-C ) :  -0.3804 B(  3-C , 12-H ) :  -0.1770
B(  3-C , 13-H ) :  -0.1987 B(  3-C , 14-H ) :  -0.1826 B(  3-C , 19-C ) :   0.1454
B(  4-N ,  7-C ) :   0.3542 B(  4-N , 11-C ) :   0.2068 B(  5-N ,  6-C ) :   0.2028
B(  5-N ,  7-C ) :  -0.1007 B(  5-N , 15-C ) :   0.1798 B(  6-C ,  7-C ) :  -0.4540
B(  6-C ,  8-C ) :   1.4464 B(  6-C , 23-H ) :   0.3222 B(  7-C ,  8-C ) :   0.1516
B(  7-C ,  9-H ) :  -0.1290 B(  7-C , 11-C ) :   0.1470 B(  7-C , 19-C ) :   0.2392
B(  7-C , 22-H ) :  -0.1114 B(  7-C , 23-H ) :   0.1260 B(  8-C ,  9-H ) :   0.9616
B(  8-C , 10-H ) :   0.9301 B(  8-C , 19-C ) :  -0.2121 B(  8-C , 23-H ) :  -0.1549
B( 11-C , 12-H ) :   1.0771 B( 11-C , 13-H ) :   1.0869 B( 11-C , 14-H ) :   1.0895
B( 15-C , 16-H ) :   1.1031 B( 15-C , 17-H ) :   1.0472 B( 15-C , 18-H ) :   1.1082
B( 19-C , 20-H ) :   1.0372 B( 19-C , 21-H ) :   1.0764 B( 19-C , 22-H ) :   1.0255

MP2 TOTAL ENERGY:     -529.953396022 Eh
FINAL SINGLE POINT ENERGY      -529.953396021535

DIPOLE MOMENT
-------------
                                X             Y             Z
Electronic contribution:      3.84523      -5.83207       0.51068
Nuclear contribution   :     -4.29819       7.15683      -0.47286
                        -----------------------------------------
Total Dipole Moment    :     -0.45296       1.32475       0.03782
                        -----------------------------------------
Magnitude (a.u.)       :      1.40056
Magnitude (Debye)      :      3.55994

Rotational constants in cm-1:     0.052932     0.035263     0.030257
Rotational constants in MHz :  1586.853900  1057.162905   907.071585

                             ****ORCA TERMINATED NORMALLY****
TOTAL RUN TIME: 0 days 0 hours 12 minutes 57 seconds 461 msec
