                         Program Version 4.2.1 -  RELEASE  -
|  1> %pal
|  2>  nprocs 32
|  3> end
|  4> !RI-MP2 aug-cc-pVTZ aug-cc-pVTZ/C TightSCF
|  5> %maxcore 4500
|  6> *xyzfile 0 2  04_18R.xyz
|  7>
|  8>
|  9>                          ****END OF INPUT****

CARTESIAN COORDINATES (ANGSTROEM)
---------------------------------
  C      0.179417    1.279402   -0.493731
  H      0.401427    0.663040   -1.367983
  C      2.058703    0.093792    0.810005
  H      2.902500    0.271567    1.484325
  H     -0.116435    2.266777   -0.856255
  H      1.356090   -0.538695    1.356637
  C      1.414235    1.413751    0.393782
  H      1.153532    1.969293    1.302613
  H      2.156590    2.016674   -0.134563
  C     -1.022592    0.690822    0.200661
  C     -3.008340   -0.276436   -0.151444
  C     -2.041918   -1.380321    0.278576
  H     -3.582581    0.108107    0.700277
  H     -3.690932   -0.570359   -0.946250
  H     -2.365744   -1.898979    1.183102
  H     -1.871991   -2.110063   -0.516003
  S      2.696937   -0.917489   -0.537011
  O     -2.139174    0.724106   -0.649247
  O     -0.825128   -0.681337    0.527702
  H     -1.256075    1.234259    1.131546

 Total Charge           Charge          ....    0
 Multiplicity           Mult            ....    2
 Number of Electrons    NEL             ....   79
 Basis Dimension        Dim             ....  671

ORBITAL ENERGIES
----------------
                 SPIN UP ORBITALS
  NO   OCC          E(Eh)            E(eV)
   0   1.0000     -91.958831     -2502.3270
   1   1.0000     -20.571657      -559.7833
   2   1.0000     -20.564944      -559.6006
   3   1.0000     -11.334362      -308.4237
   4   1.0000     -11.287911      -307.1597
   5   1.0000     -11.285349      -307.0900
   6   1.0000     -11.252824      -306.2049
   7   1.0000     -11.231320      -305.6197
   8   1.0000     -11.222361      -305.3760
   9   1.0000      -8.959472      -243.7996
  10   1.0000      -6.655039      -181.0928
  11   1.0000      -6.636655      -180.5926
  12   1.0000      -6.635169      -180.5521
  13   1.0000      -1.447064       -39.3766
  14   1.0000      -1.337563       -36.3969
  15   1.0000      -1.101109       -29.9627
  16   1.0000      -1.048000       -28.5175
  17   1.0000      -0.988709       -26.9041
  18   1.0000      -0.906024       -24.6542
  19   1.0000      -0.861051       -23.4304
  20   1.0000      -0.832683       -22.6584
  21   1.0000      -0.784043       -21.3349
  22   1.0000      -0.720214       -19.5980
  23   1.0000      -0.691252       -18.8099
  24   1.0000      -0.647689       -17.6245
  25   1.0000      -0.638990       -17.3878
  26   1.0000      -0.617982       -16.8162
  27   1.0000      -0.607459       -16.5298
  28   1.0000      -0.581299       -15.8179
  29   1.0000      -0.570732       -15.5304
  30   1.0000      -0.523736       -14.2516
  31   1.0000      -0.518701       -14.1146
  32   1.0000      -0.504808       -13.7365
  33   1.0000      -0.496166       -13.5014
  34   1.0000      -0.493127       -13.4187
  35   1.0000      -0.457007       -12.4358
  36   1.0000      -0.448893       -12.2150
  37   1.0000      -0.425153       -11.5690
  38   1.0000      -0.414539       -11.2802
  39   1.0000      -0.358695        -9.7606
  40   0.0000       0.027136         0.7384
  41   0.0000       0.032392         0.8814
  42   0.0000       0.037066         1.0086
  43   0.0000       0.038404         1.0450
  44   0.0000       0.047368         1.2890

                 SPIN DOWN ORBITALS
  NO   OCC          E(Eh)            E(eV)
   0   1.0000     -91.949704     -2502.0787
   1   1.0000     -20.571658      -559.7833
   2   1.0000     -20.564910      -559.5996
   3   1.0000     -11.334369      -308.4238
   4   1.0000     -11.287911      -307.1597
   5   1.0000     -11.285352      -307.0900
   6   1.0000     -11.253847      -306.2327
   7   1.0000     -11.231304      -305.6193
   8   1.0000     -11.222326      -305.3750
   9   1.0000      -8.949527      -243.5290
  10   1.0000      -6.631603      -180.4551
  11   1.0000      -6.629961      -180.4104
  12   1.0000      -6.614337      -179.9853
  13   1.0000      -1.447030       -39.3757
  14   1.0000      -1.337505       -36.3954
  15   1.0000      -1.096662       -29.8417
  16   1.0000      -1.039089       -28.2751
  17   1.0000      -0.972697       -26.4684
  18   1.0000      -0.879360       -23.9286
  19   1.0000      -0.860949       -23.4276
  20   1.0000      -0.818404       -22.2699
  21   1.0000      -0.757507       -20.6128
  22   1.0000      -0.720091       -19.5947
  23   1.0000      -0.689395       -18.7594
  24   1.0000      -0.646528       -17.5929
  25   1.0000      -0.636188       -17.3116
  26   1.0000      -0.610906       -16.6236
  27   1.0000      -0.605400       -16.4738
  28   1.0000      -0.578443       -15.7402
  29   1.0000      -0.565438       -15.3863
  30   1.0000      -0.520278       -14.1575
  31   1.0000      -0.518468       -14.1082
  32   1.0000      -0.503857       -13.7106
  33   1.0000      -0.492554       -13.4031
  34   1.0000      -0.486469       -13.2375
  35   1.0000      -0.448606       -12.2072
  36   1.0000      -0.447557       -12.1787
  37   1.0000      -0.424308       -11.5460
  38   1.0000      -0.339653        -9.2424
  39   0.0000       0.027131         0.7383
  40   0.0000       0.027959         0.7608
  41   0.0000       0.035385         0.9629
  42   0.0000       0.037140         1.0106
  43   0.0000       0.038578         1.0498

MULLIKEN ATOMIC CHARGES AND SPIN POPULATIONS
--------------------------------------------
   0 C :   -0.575917    0.004604
   1 H :    0.275954   -0.003304
   2 C :   -0.411348   -0.123234
   3 H :    0.281710    0.044820
   4 H :    0.200256   -0.000252
   5 H :    0.319054    0.006180
   6 C :   -0.454350   -0.000717
   7 H :    0.201216    0.001340
   8 H :    0.300895   -0.009284
   9 C :    0.696951   -0.003747
  10 C :   -0.415326   -0.000667
  11 C :   -0.478445   -0.001337
  12 H :    0.293579    0.000050
  13 H :    0.411270   -0.000064
  14 H :    0.309151   -0.000029
  15 H :    0.296647    0.000270
  16 S :   -0.308911    1.094363
  17 O :   -0.807117    0.000013
  18 O :   -0.570668   -0.009203
  19 H :    0.435397    0.000199
Sum of atomic charges         :   -0.0000000

LOEWDIN ATOMIC CHARGES AND SPIN POPULATIONS
-------------------------------------------
   0 C :    0.259302    0.003920
   1 H :   -0.172432    0.004136
   2 C :   -0.237629    0.146567
   3 H :   -0.237903    0.018343
   4 H :   -0.143493    0.000233
   5 H :   -0.280244    0.015804
   6 C :    0.189937    0.003177
   7 H :   -0.150607   -0.000462
   8 H :   -0.161523    0.000669
   9 C :   -0.531340    0.000706
  10 C :    0.055704    0.000014
  11 C :    0.068889    0.000505
  12 H :   -0.150564    0.000001
  13 H :   -0.155232   -0.000001
  14 H :   -0.157761    0.000023
  15 H :   -0.157478    0.000120
  16 S :    0.919601    0.803935
  17 O :    0.585985   -0.000017
  18 O :    0.586171    0.002309
  19 H :   -0.129384    0.000018

  Mayer bond orders larger than 0.100000
B(  0-C ,  1-H ) :   0.9604 B(  0-C ,  4-H ) :   0.9908 B(  0-C ,  6-C ) :   0.9191
B(  0-C ,  9-C ) :   0.8876 B(  2-C ,  3-H ) :   0.9386 B(  2-C ,  5-H ) :   0.9451
B(  2-C ,  6-C ) :   0.9025 B(  2-C , 16-S ) :   0.9449 B(  6-C ,  7-H ) :   0.9633
B(  6-C ,  8-H ) :   0.9538 B(  9-C , 17-O ) :   0.6629 B(  9-C , 18-O ) :   0.7562
B(  9-C , 19-H ) :   0.8692 B( 10-C , 11-C ) :   1.0378 B( 10-C , 12-H ) :   0.9362
B( 10-C , 13-H ) :   0.8595 B( 10-C , 17-O ) :   0.9247 B( 11-C , 14-H ) :   0.9288
B( 11-C , 15-H ) :   0.9252 B( 11-C , 17-O ) :   0.1589 B( 11-C , 18-O ) :   0.8673

MP2 TOTAL ENERGY:     -782.651827479 Eh
FINAL SINGLE POINT ENERGY      -782.651827479485

DIPOLE MOMENT
-------------
                                X             Y             Z
Electronic contribution:      4.24925      -3.24184      -2.69998
Nuclear contribution   :     -5.08316       3.46762       3.37842
                        -----------------------------------------
Total Dipole Moment    :     -0.83391       0.22577       0.67844
                        -----------------------------------------
Magnitude (a.u.)       :      1.09848
Magnitude (Debye)      :      2.79211

Rotational constants in cm-1:     0.090129     0.025321     0.022245
Rotational constants in MHz :  2701.992836   759.091496   666.881334

                             ****ORCA TERMINATED NORMALLY****
TOTAL RUN TIME: 0 days 0 hours 15 minutes 53 seconds 57 msec
