                         Program Version 4.2.1 -  RELEASE  -
|  1> %pal
|  2>  nprocs 32
|  3> end
|  4> !RI-MP2 aug-cc-pVTZ aug-cc-pVTZ/C TightSCF
|  5> %maxcore 4500
|  6> *xyzfile 0 1  10_3P.xyz
|  7>
|  8>
|  9>                          ****END OF INPUT****

CARTESIAN COORDINATES (ANGSTROEM)
---------------------------------
  C     -0.862506    2.681434   -0.378439
  N      0.013085    1.543042   -0.630881
  C      0.688017    1.040691    0.559869
  O     -0.779881    0.439102   -1.077464
  C     -1.116501   -0.413235    0.036031
  C     -2.626662   -0.401106    0.203108
  C     -0.376014    0.155733    1.240392
  C      1.951677    0.272230    0.227884
  H     -1.596819    2.507202    0.415384
  H     -0.231116    3.534238   -0.124410
  H     -1.393311    2.909785   -1.301058
  C      2.291755   -0.052860   -1.079182
  C      3.449430   -0.774664   -1.341844
  C      4.280483   -1.172862   -0.305084
  C      3.948931   -0.844845    1.003328
  C      2.790732   -0.128990    1.264813
  H      1.644488    0.267514   -1.884228
  H      3.703138   -1.024141   -2.365366
  H      5.184049   -1.732919   -0.513743
  H      4.595098   -1.143670    1.820133
  H      2.540038    0.126748    2.289648
  O     -3.176551   -1.523068   -0.266487
  O     -3.258841    0.505925    0.675908
  C     -4.605948   -1.591389   -0.206728
  H     -4.870660   -2.560016   -0.621217
  H     -4.945811   -1.506465    0.825113
  H     -5.045096   -0.786748   -0.795661
  H     -0.788333   -1.418779   -0.226265
  H      0.060803   -0.623603    1.861187
  H     -1.051102    0.758631    1.846838
  H      0.944855    1.894444    1.189272

 Total Charge           Charge          ....    0
 Multiplicity           Mult            ....    1
 Number of Electrons    NEL             ....  118
 Basis Dimension        Dim             .... 1081

ORBITAL ENERGIES
----------------

  NO   OCC          E(Eh)            E(eV)
   0   2.0000     -20.612682      -560.8996
   1   2.0000     -20.590302      -560.2906
   2   2.0000     -20.550319      -559.2026
   3   2.0000     -15.610357      -424.7794
   4   2.0000     -11.382057      -309.7215
   5   2.0000     -11.300482      -307.5018
   6   2.0000     -11.289802      -307.2111
   7   2.0000     -11.274489      -306.7944
   8   2.0000     -11.243180      -305.9425
   9   2.0000     -11.239446      -305.8409
  10   2.0000     -11.238187      -305.8066
  11   2.0000     -11.233457      -305.6779
  12   2.0000     -11.231852      -305.6342
  13   2.0000     -11.230550      -305.5988
  14   2.0000     -11.229165      -305.5611
  15   2.0000     -11.224155      -305.4248
  16   2.0000      -1.474377       -40.1198
  17   2.0000      -1.425887       -38.8003
  18   2.0000      -1.369011       -37.2527
  19   2.0000      -1.175430       -31.9851
  20   2.0000      -1.146755       -31.2048
  21   2.0000      -1.085615       -29.5411
  22   2.0000      -1.025170       -27.8963
  23   2.0000      -1.013981       -27.5918
  24   2.0000      -0.991766       -26.9873
  25   2.0000      -0.943473       -25.6732
  26   2.0000      -0.865079       -23.5400
  27   2.0000      -0.850056       -23.1312
  28   2.0000      -0.822768       -22.3886
  29   2.0000      -0.789413       -21.4810
  30   2.0000      -0.776337       -21.1252
  31   2.0000      -0.731653       -19.9093
  32   2.0000      -0.715980       -19.4828
  33   2.0000      -0.692982       -18.8570
  34   2.0000      -0.678895       -18.4737
  35   2.0000      -0.669778       -18.2256
  36   2.0000      -0.657473       -17.8908
  37   2.0000      -0.642315       -17.4783
  38   2.0000      -0.624864       -17.0034
  39   2.0000      -0.607750       -16.5377
  40   2.0000      -0.601894       -16.3784
  41   2.0000      -0.588447       -16.0125
  42   2.0000      -0.582046       -15.8383
  43   2.0000      -0.571445       -15.5498
  44   2.0000      -0.551654       -15.0113
  45   2.0000      -0.547896       -14.9090
  46   2.0000      -0.538373       -14.6499
  47   2.0000      -0.531290       -14.4571
  48   2.0000      -0.527735       -14.3604
  49   2.0000      -0.504973       -13.7410
  50   2.0000      -0.493086       -13.4176
  51   2.0000      -0.488705       -13.2983
  52   2.0000      -0.480920       -13.0865
  53   2.0000      -0.477893       -13.0041
  54   2.0000      -0.468766       -12.7558
  55   2.0000      -0.437636       -11.9087
  56   2.0000      -0.380725       -10.3600
  57   2.0000      -0.335393        -9.1265
  58   2.0000      -0.328781        -8.9466
  59   0.0000       0.025143         0.6842
  60   0.0000       0.029309         0.7975
  61   0.0000       0.032458         0.8832
  62   0.0000       0.035455         0.9648
  63   0.0000       0.042192         1.1481

MULLIKEN ATOMIC CHARGES
-----------------------
   0 C :   -1.034006
   1 N :   -0.255085
   2 C :    0.643437
   3 O :   -0.781230
   4 C :    0.896784
   5 C :    0.550743
   6 C :   -0.598671
   7 C :    1.662914
   8 H :    0.390764
   9 H :    0.326430
  10 H :    0.334889
  11 C :   -0.601744
  12 C :   -0.910981
  13 C :   -0.007783
  14 C :   -0.745986
  15 C :   -1.116526
  16 H :   -0.156176
  17 H :    0.528704
  18 H :    0.430194
  19 H :    0.620348
  20 H :   -0.217997
  21 O :   -0.422629
  22 O :   -0.910805
  23 C :   -0.851462
  24 H :    0.345133
  25 H :    0.389808
  26 H :    0.384045
  27 H :    0.167895
  28 H :    0.344081
  29 H :    0.102651
  30 H :    0.492262
Sum of atomic charges:   -0.0000000

LOEWDIN ATOMIC CHARGES
----------------------
   0 C :    0.465231
   1 N :    0.071721
   2 C :   -0.138252
   3 O :    0.509875
   4 C :   -0.233735
   5 C :   -0.808027
   6 C :    0.322338
   7 C :   -0.091731
   8 H :   -0.184526
   9 H :   -0.164618
  10 H :   -0.164922
  11 C :    0.225884
  12 C :    0.204717
  13 C :    0.191709
  14 C :    0.196785
  15 C :    0.210294
  16 H :   -0.198666
  17 H :   -0.181539
  18 H :   -0.185142
  19 H :   -0.183143
  20 H :   -0.169228
  21 O :    0.574191
  22 O :    0.488103
  23 C :    0.364897
  24 H :   -0.184492
  25 H :   -0.180009
  26 H :   -0.177448
  27 H :   -0.150809
  28 H :   -0.138841
  29 H :   -0.163307
  30 H :   -0.127308

  Mayer bond orders larger than 0.100000
B(  0-C ,  1-N ) :   0.8136 B(  0-C ,  8-H ) :   0.8846 B(  0-C ,  9-H ) :   0.9391
B(  0-C , 10-H ) :   0.9488 B(  1-N ,  2-C ) :   0.8143 B(  1-N ,  3-O ) :   0.5342
B(  1-N , 11-C ) :  -0.1506 B(  1-N , 16-H ) :  -0.1156 B(  1-N , 30-H ) :  -0.1380
B(  2-C ,  6-C ) :   1.0082 B(  2-C ,  7-C ) :   0.1698 B(  2-C , 11-C ) :   0.1820
B(  2-C , 13-C ) :   0.1069 B(  2-C , 16-H ) :  -0.2809 B(  2-C , 20-H ) :  -0.3293
B(  2-C , 30-H ) :   0.9998 B(  3-O ,  4-C ) :   0.6622 B(  4-C ,  5-C ) :   0.2700
B(  4-C ,  6-C ) :   0.9328 B(  4-C , 27-H ) :   1.0251 B(  4-C , 29-H ) :   0.1111
B(  5-C , 21-O ) :   0.8914 B(  5-C , 22-O ) :   1.2758 B(  5-C , 27-H ) :  -0.1085
B(  6-C , 28-H ) :   0.8369 B(  6-C , 29-H ) :   1.1614 B(  7-C , 11-C ) :   0.3291
B(  7-C , 13-C ) :   0.1408 B(  7-C , 14-C ) :   0.1222 B(  7-C , 15-C ) :   0.5604
B(  7-C , 16-H ) :  -0.4573 B(  7-C , 19-H ) :   0.1001 B(  7-C , 20-H ) :  -0.4456
B(  7-C , 30-H ) :  -0.3185 B( 11-C , 12-C ) :   1.0663 B( 11-C , 13-C ) :  -0.3320
B( 11-C , 15-C ) :  -0.7969 B( 11-C , 16-H ) :   2.2847 B( 11-C , 17-H ) :  -0.1160
B( 11-C , 18-H ) :   0.1557 B( 11-C , 20-H ) :   0.3149 B( 12-C , 13-C ) :   1.0621
B( 12-C , 14-C ) :   0.3306 B( 12-C , 15-C ) :   0.1023 B( 12-C , 17-H ) :   0.6488
B( 12-C , 18-H ) :  -0.2306 B( 13-C , 14-C ) :   1.1235 B( 13-C , 15-C ) :  -0.2509
B( 13-C , 16-H ) :  -0.1348 B( 13-C , 18-H ) :   0.8343 B( 14-C , 15-C ) :   1.5438
B( 14-C , 16-H ) :  -0.1241 B( 14-C , 18-H ) :  -0.2520 B( 14-C , 19-H ) :   0.5019
B( 15-C , 16-H ) :   0.3195 B( 15-C , 18-H ) :   0.1426 B( 15-C , 20-H ) :   2.0593
B( 15-C , 30-H ) :  -0.1733 B( 16-H , 19-H ) :  -0.1708 B( 16-H , 20-H ) :   0.4253
B( 19-H , 20-H ) :  -0.1038 B( 21-O , 23-C ) :   0.8833 B( 23-C , 24-H ) :   0.9166
B( 23-C , 25-H ) :   0.8644 B( 23-C , 26-H ) :   0.8660

MP2 TOTAL ENERGY:     -745.294861178 Eh
FINAL SINGLE POINT ENERGY      -745.294861178097

DIPOLE MOMENT
-------------
                                X             Y             Z
Electronic contribution:      1.23369      -1.68321      -1.76808
Nuclear contribution   :     -1.36564       1.20410       2.40526
                        -----------------------------------------
Total Dipole Moment    :     -0.13195      -0.47910       0.63718
                        -----------------------------------------
Magnitude (a.u.)       :      0.80806
Magnitude (Debye)      :      2.05392

Rotational constants in cm-1:     0.037416     0.009514     0.008827
Rotational constants in MHz :  1121.690445   285.217649   264.621004

                             ****ORCA TERMINATED NORMALLY****
TOTAL RUN TIME: 0 days 0 hours 24 minutes 24 seconds 609 msec
