                         Program Version 4.2.1 -  RELEASE  -
|  1> %pal
|  2>  nprocs 32
|  3> end
|  4> !RI-MP2 aug-cc-pVTZ aug-cc-pVTZ/C TightSCF
|  5> %maxcore 4500
|  6> *xyzfile 0 1  04_79P2.xyz
|  7>
|  8>
|  9>                          ****END OF INPUT****

CARTESIAN COORDINATES (ANGSTROEM)
---------------------------------
  C      0.000000    0.586123   -0.000034
  C      1.269130   -0.259249    0.000112
  H      1.310444   -0.904520    0.881944
  H      2.167126    0.362404    0.000170
  H      1.310603   -0.904588   -0.881663
  C     -1.269130   -0.259249   -0.000082
  H     -1.310439   -0.904630   -0.881834
  H     -2.167126    0.362404   -0.000222
  H     -1.310608   -0.904478    0.881773
  H     -0.000067    1.243880    0.874709
  H      0.000067    1.243779   -0.874854

 Total Charge           Charge          ....    0
 Multiplicity           Mult            ....    1
 Number of Electrons    NEL             ....   26
 Basis Dimension        Dim             ....  322

ORBITAL ENERGIES
----------------

  NO   OCC          E(Eh)            E(eV)
   0   2.0000     -11.216794      -305.2245
   1   2.0000     -11.209142      -305.0163
   2   2.0000     -11.209106      -305.0153
   3   2.0000      -1.052759       -28.6470
   4   2.0000      -0.924620       -25.1602
   5   2.0000      -0.799182       -21.7468
   6   2.0000      -0.623190       -16.9579
   7   2.0000      -0.597103       -16.2480
   8   2.0000      -0.549494       -14.9525
   9   2.0000      -0.529766       -14.4157
  10   2.0000      -0.475525       -12.9397
  11   2.0000      -0.475024       -12.9260
  12   2.0000      -0.466928       -12.7058
  13   0.0000       0.032219         0.8767
  14   0.0000       0.039722         1.0809
  15   0.0000       0.041073         1.1176
  16   0.0000       0.042092         1.1454
  17   0.0000       0.062909         1.7118

MULLIKEN ATOMIC CHARGES
-----------------------
   0 C :   -0.390447
   1 C :   -0.911594
   2 H :    0.284156
   3 H :    0.285712
   4 H :    0.284154
   5 C :   -0.911594
   6 H :    0.284156
   7 H :    0.285712
   8 H :    0.284154
   9 H :    0.252796
  10 H :    0.252795
Sum of atomic charges:    0.0000000

LOEWDIN ATOMIC CHARGES
----------------------
   0 C :    0.226576
   1 C :    0.562962
   2 H :   -0.172704
   3 H :   -0.174739
   4 H :   -0.172704
   5 C :    0.562962
   6 H :   -0.172704
   7 H :   -0.174739
   8 H :   -0.172704
   9 H :   -0.156103
  10 H :   -0.156102

  Mayer bond orders larger than 0.100000
B(  0-C ,  1-C ) :   0.8619 B(  0-C ,  5-C ) :   0.8619 B(  0-C ,  9-H ) :   0.9510
B(  0-C , 10-H ) :   0.9510 B(  1-C ,  2-H ) :   0.9331 B(  1-C ,  3-H ) :   0.9515
B(  1-C ,  4-H ) :   0.9331 B(  5-C ,  6-H ) :   0.9331 B(  5-C ,  7-H ) :   0.9515
B(  5-C ,  8-H ) :   0.9331

MP2 TOTAL ENERGY:     -118.860070304 Eh
FINAL SINGLE POINT ENERGY      -118.860070304148

DIPOLE MOMENT
-------------
                                X             Y             Z
Electronic contribution:      0.00000       0.48253      -0.00003
Nuclear contribution   :      0.00000      -0.44930       0.00003
                        -----------------------------------------
Total Dipole Moment    :      0.00000       0.03323      -0.00000
                        -----------------------------------------
Magnitude (a.u.)       :      0.03323
Magnitude (Debye)      :      0.08447

Rotational constants in cm-1:     0.985953     0.282076     0.249725
Rotational constants in MHz : 29558.121245  8456.422449  7486.573444

                             ****ORCA TERMINATED NORMALLY****
TOTAL RUN TIME: 0 days 0 hours 0 minutes 24 seconds 676 msec
