                         Program Version 4.2.1 -  RELEASE  -
|  1> %pal
|  2>  nprocs 32
|  3> end
|  4> !RI-MP2 aug-cc-pVTZ aug-cc-pVTZ/C TightSCF
|  5> %maxcore 4500
|  6> *xyzfile 0 1  10_5P.xyz
|  7>
|  8>
|  9>                          ****END OF INPUT****

CARTESIAN COORDINATES (ANGSTROEM)
---------------------------------
  C      2.224800   -1.907895    0.311798
  C     -1.536593   -0.633312    0.977255
  C     -0.400851   -0.015036    0.652414
  C      2.546564   -0.569932    0.129681
  O      0.705753    0.003017    1.483018
  C      1.120291    1.384867   -0.213581
  N      1.793145    0.492959    0.717770
  H      1.363046   -2.181795    0.902243
  O     -0.127324    0.709548   -0.453726
  C      3.022021   -2.887018   -0.266943
  C      4.131218   -2.543988   -1.024040
  H      4.746272   -3.313407   -1.473372
  C      4.453010   -1.202820   -1.191673
  H      5.326040   -0.920522   -1.767472
  C      3.673014   -0.217736   -0.610104
  H      3.945861    0.825854   -0.710968
  H      2.764441   -3.929469   -0.123978
  C     -2.759005   -0.549360    0.153647
  C     -4.000696   -0.821990    0.739119
  C     -2.744469   -0.228713   -1.210353
  C     -5.175502   -0.759262    0.004773
  H     -4.055660   -1.081094    1.788016
  C     -3.919656   -0.168235   -1.941961
  H     -1.805011   -0.033731   -1.704844
  C     -5.143978   -0.429322   -1.341612
  H     -6.120569   -0.970715    0.491211
  H     -3.875545    0.078816   -2.996377
  H     -6.060058   -0.381798   -1.917700
  C     -1.577690   -1.411527    2.267894
  H     -2.024883   -2.395829    2.110049
  H     -2.171703   -0.899767    3.030711
  H     -0.579035   -1.549844    2.677836
  C      0.895092    2.777464    0.354381
  H      0.391758    2.652846    1.318474
  C     -0.003143    3.588109   -0.575554
  H     -0.180929    4.581344   -0.159506
  H     -0.966772    3.101103   -0.724600
  H      0.467376    3.719500   -1.555148
  C      2.238905    3.462435    0.584517
  H      2.773476    3.600291   -0.361100
  H      2.870611    2.879681    1.255489
  H      2.091626    4.450613    1.023572
  H      1.660217    1.416320   -1.159215

 Total Charge           Charge          ....    0
 Multiplicity           Mult            ....    1
 Number of Electrons    NEL             ....  158
 Basis Dimension        Dim             .... 1495

ORBITAL ENERGIES
----------------

  NO   OCC          E(Eh)            E(eV)
   0   2.0000     -20.630826      -561.3933
   1   2.0000     -20.606146      -560.7217
   2   2.0000     -15.644857      -425.7182
   3   2.0000     -11.353672      -308.9491
   4   2.0000     -11.338930      -308.5480
   5   2.0000     -11.285050      -307.0818
   6   2.0000     -11.245115      -305.9951
   7   2.0000     -11.242931      -305.9357
   8   2.0000     -11.241456      -305.8956
   9   2.0000     -11.241193      -305.8884
  10   2.0000     -11.239004      -305.8288
  11   2.0000     -11.236916      -305.7720
  12   2.0000     -11.235011      -305.7202
  13   2.0000     -11.224616      -305.4373
  14   2.0000     -11.224370      -305.4306
  15   2.0000     -11.223594      -305.4095
  16   2.0000     -11.222883      -305.3902
  17   2.0000     -11.220980      -305.3384
  18   2.0000     -11.220730      -305.3316
  19   2.0000     -11.219825      -305.3070
  20   2.0000     -11.217666      -305.2482
  21   2.0000     -11.217598      -305.2464
  22   2.0000      -1.520366       -41.3713
  23   2.0000      -1.394956       -37.9587
  24   2.0000      -1.222265       -33.2595
  25   2.0000      -1.157324       -31.4924
  26   2.0000      -1.146674       -31.2026
  27   2.0000      -1.092290       -29.7227
  28   2.0000      -1.076905       -29.3041
  29   2.0000      -1.027731       -27.9660
  30   2.0000      -1.014162       -27.5967
  31   2.0000      -1.006253       -27.3815
  32   2.0000      -0.986347       -26.8399
  33   2.0000      -0.943881       -25.6843
  34   2.0000      -0.930742       -25.3268
  35   2.0000      -0.909712       -24.7545
  36   2.0000      -0.845656       -23.0115
  37   2.0000      -0.832034       -22.6408
  38   2.0000      -0.825264       -22.4566
  39   2.0000      -0.817198       -22.2371
  40   2.0000      -0.809895       -22.0384
  41   2.0000      -0.783271       -21.3139
  42   2.0000      -0.741454       -20.1760
  43   2.0000      -0.705893       -19.2083
  44   2.0000      -0.697230       -18.9726
  45   2.0000      -0.685699       -18.6588
  46   2.0000      -0.675316       -18.3763
  47   2.0000      -0.656617       -17.8675
  48   2.0000      -0.645525       -17.5656
  49   2.0000      -0.622803       -16.9473
  50   2.0000      -0.620459       -16.8835
  51   2.0000      -0.615402       -16.7459
  52   2.0000      -0.606049       -16.4914
  53   2.0000      -0.598400       -16.2833
  54   2.0000      -0.592208       -16.1148
  55   2.0000      -0.588085       -16.0026
  56   2.0000      -0.577271       -15.7083
  57   2.0000      -0.568984       -15.4828
  58   2.0000      -0.562223       -15.2989
  59   2.0000      -0.554335       -15.0842
  60   2.0000      -0.545919       -14.8552
  61   2.0000      -0.542108       -14.7515
  62   2.0000      -0.537878       -14.6364
  63   2.0000      -0.533142       -14.5075
  64   2.0000      -0.523535       -14.2461
  65   2.0000      -0.521563       -14.1925
  66   2.0000      -0.503854       -13.7106
  67   2.0000      -0.499112       -13.5815
  68   2.0000      -0.490150       -13.3376
  69   2.0000      -0.487200       -13.2574
  70   2.0000      -0.484054       -13.1718
  71   2.0000      -0.479116       -13.0374
  72   2.0000      -0.475815       -12.9476
  73   2.0000      -0.439135       -11.9495
  74   2.0000      -0.372777       -10.1438
  75   2.0000      -0.348458        -9.4820
  76   2.0000      -0.328702        -8.9444
  77   2.0000      -0.326040        -8.8720
  78   2.0000      -0.281452        -7.6587
  79   0.0000       0.023982         0.6526
  80   0.0000       0.028976         0.7885
  81   0.0000       0.029551         0.8041
  82   0.0000       0.032221         0.8768
  83   0.0000       0.036445         0.9917

MULLIKEN ATOMIC CHARGES
-----------------------
   0 C :   -0.664831
   1 C :    0.619463
   2 C :    1.303269
   3 C :    1.428490
   4 O :   -1.030873
   5 C :    0.594120
   6 N :   -0.418457
   7 H :    0.709514
   8 O :   -0.907513
   9 C :   -0.824998
  10 C :   -0.431018
  11 H :    0.704695
  12 C :   -1.042655
  13 H :    0.187206
  14 C :   -0.621928
  15 H :    0.712925
  16 H :    0.267481
  17 C :    1.807286
  18 C :   -0.976305
  19 C :   -0.682416
  20 C :   -0.937243
  21 H :    0.045234
  22 C :   -1.099777
  23 H :    0.152598
  24 C :   -0.124512
  25 H :    0.411754
  26 H :    0.310990
  27 H :    0.565477
  28 C :   -1.164625
  29 H :    0.272849
  30 H :    0.297271
  31 H :    0.278880
  32 C :    0.191772
  33 H :    0.271081
  34 C :   -1.267583
  35 H :    0.222303
  36 H :    0.451131
  37 H :    0.236367
  38 C :   -1.215282
  39 H :    0.222966
  40 H :    0.366709
  41 H :    0.232129
  42 H :    0.546056
Sum of atomic charges:   -0.0000000

LOEWDIN ATOMIC CHARGES
----------------------
   0 C :    0.226669
   1 C :   -0.104238
   2 C :   -0.599340
   3 C :   -0.235889
   4 O :    0.537217
   5 C :   -0.337727
   6 N :    0.112925
   7 H :   -0.202053
   8 O :    0.645437
   9 C :    0.203677
  10 C :    0.195413
  11 H :   -0.185572
  12 C :    0.199347
  13 H :   -0.178815
  14 C :    0.212375
  15 H :   -0.174088
  16 H :   -0.177354
  17 C :   -0.112424
  18 C :    0.210251
  19 C :    0.217703
  20 C :    0.195933
  21 H :   -0.199009
  22 C :    0.196228
  23 H :   -0.229223
  24 C :    0.188193
  25 H :   -0.182770
  26 H :   -0.182932
  27 H :   -0.187162
  28 C :    0.546172
  29 H :   -0.163341
  30 H :   -0.164760
  31 H :   -0.196271
  32 C :   -0.040008
  33 H :   -0.126189
  34 C :    0.597389
  35 H :   -0.159229
  36 H :   -0.167407
  37 H :   -0.155298
  38 C :    0.592014
  39 H :   -0.157009
  40 H :   -0.166786
  41 H :   -0.158628
  42 H :   -0.133421

  Mayer bond orders larger than 0.100000
B(  0-C ,  1-C ) :  -0.1104 B(  0-C ,  2-C ) :   0.1956 B(  0-C ,  3-C ) :   0.4082
B(  0-C ,  6-N ) :  -0.3292 B(  0-C ,  7-H ) :   0.5261 B(  0-C ,  9-C ) :   1.1721
B(  0-C , 10-C ) :   0.2260 B(  0-C , 16-H ) :  -0.1403 B(  1-C ,  2-C ) :   1.3843
B(  1-C ,  4-O ) :  -0.2075 B(  1-C ,  5-C ) :  -0.1187 B(  1-C ,  6-N ) :   0.1239
B(  1-C , 17-C ) :   0.5955 B(  1-C , 18-C ) :   0.8290 B(  1-C , 20-C ) :   0.1044
B(  1-C , 21-H ) :  -0.8472 B(  1-C , 22-C ) :   0.1598 B(  1-C , 23-H ) :  -0.9716
B(  1-C , 24-C ) :   0.1959 B(  1-C , 25-H ) :   0.3906 B(  1-C , 26-H ) :   0.7363
B(  1-C , 27-H ) :  -0.5243 B(  1-C , 28-C ) :   0.4326 B(  1-C , 30-H ) :  -0.1594
B(  2-C ,  4-O ) :   0.1435 B(  2-C ,  5-C ) :   0.2748 B(  2-C ,  8-O ) :   0.6125
B(  2-C , 17-C ) :  -0.2186 B(  2-C , 18-C ) :  -0.2737 B(  2-C , 19-C ) :   0.3214
B(  2-C , 21-H ) :   0.5781 B(  2-C , 22-C ) :  -0.1643 B(  2-C , 23-H ) :   0.8810
B(  2-C , 25-H ) :  -0.2808 B(  2-C , 26-H ) :  -0.8727 B(  2-C , 27-H ) :   0.6566
B(  2-C , 32-C ) :  -0.2161 B(  3-C ,  4-O ) :   0.1557 B(  3-C ,  5-C ) :   0.3273
B(  3-C ,  6-N ) :   0.8213 B(  3-C ,  9-C ) :  -0.1116 B(  3-C , 10-C ) :  -0.1831
B(  3-C , 12-C ) :  -0.3759 B(  3-C , 13-H ) :   0.1219 B(  3-C , 14-C ) :   0.3219
B(  3-C , 16-H ) :   0.1719 B(  4-O ,  5-C ) :   0.1355 B(  4-O ,  6-N ) :   0.6463
B(  4-O ,  7-H ) :  -0.1522 B(  5-C ,  6-N ) :   0.6620 B(  5-C ,  8-O ) :   0.6189
B(  5-C , 14-C ) :   0.2191 B(  5-C , 17-C ) :   0.1122 B(  5-C , 32-C ) :   0.9557
B(  5-C , 42-H ) :   0.6557 B(  6-N ,  9-C ) :   0.1130 B(  6-N , 14-C ) :  -0.1065
B(  6-N , 32-C ) :   0.1783 B(  7-H ,  9-C ) :  -0.1919 B(  8-O , 19-C ) :  -0.2016
B(  8-O , 25-H ) :   0.1021 B(  9-C , 10-C ) :   1.1646 B(  9-C , 12-C ) :  -0.1782
B(  9-C , 16-H ) :   1.1863 B( 10-C , 11-H ) :   0.3987 B( 10-C , 12-C ) :   1.2932
B( 10-C , 13-H ) :  -0.1518 B( 10-C , 14-C ) :   0.2823 B( 10-C , 16-H ) :  -0.1661
B( 12-C , 13-H ) :   1.3221 B( 12-C , 14-C ) :   1.1114 B( 12-C , 15-H ) :  -0.1968
B( 14-C , 15-H ) :   0.3653 B( 17-C , 19-C ) :   0.7348 B( 17-C , 20-C ) :  -0.1155
B( 17-C , 23-H ) :   0.1212 B( 17-C , 25-H ) :  -0.2699 B( 17-C , 26-H ) :  -0.1601
B( 17-C , 27-H ) :   0.2180 B( 17-C , 28-C ) :   0.1516 B( 18-C , 19-C ) :  -0.5568
B( 18-C , 20-C ) :   1.1503 B( 18-C , 21-H ) :   1.7208 B( 18-C , 22-C ) :   0.1294
B( 18-C , 23-H ) :   0.1327 B( 18-C , 24-C ) :  -0.1737 B( 19-C , 22-C ) :   1.1345
B( 19-C , 23-H ) :   1.4174 B( 19-C , 24-C ) :  -0.1563 B( 19-C , 26-H ) :   0.1335
B( 19-C , 27-H ) :  -0.1150 B( 20-C , 22-C ) :   0.1845 B( 20-C , 24-C ) :   1.0987
B( 20-C , 25-H ) :   0.7920 B( 20-C , 27-H ) :  -0.1584 B( 21-H , 23-H ) :   0.1350
B( 22-C , 23-H ) :  -0.1543 B( 22-C , 24-C ) :   1.1178 B( 22-C , 26-H ) :   1.0015
B( 22-C , 27-H ) :  -0.1896 B( 23-H , 28-C ) :  -0.1369 B( 24-C , 27-H ) :   0.6622
B( 28-C , 29-H ) :   1.0704 B( 28-C , 30-H ) :   1.0090 B( 28-C , 31-H ) :   1.0069
B( 32-C , 33-H ) :   0.8984 B( 32-C , 34-C ) :   0.7298 B( 32-C , 38-C ) :   0.5160
B( 34-C , 35-H ) :   1.0940 B( 34-C , 36-H ) :   0.7824 B( 34-C , 37-H ) :   1.0525
B( 34-C , 38-C ) :   0.1589 B( 38-C , 39-H ) :   1.0649 B( 38-C , 40-H ) :   0.9181
B( 38-C , 41-H ) :   1.0784

MP2 TOTAL ENERGY:     -939.945467253 Eh
FINAL SINGLE POINT ENERGY      -939.945467253458

DIPOLE MOMENT
-------------
                                X             Y             Z
Electronic contribution:      0.13774      -9.32986      -0.28461
Nuclear contribution   :      0.58286       9.70680      -0.03641
                        -----------------------------------------
Total Dipole Moment    :      0.72060       0.37693      -0.32102
                        -----------------------------------------
Magnitude (a.u.)       :      0.87430
Magnitude (Debye)      :      2.22229

Rotational constants in cm-1:     0.014330     0.006050     0.005065
Rotational constants in MHz :   429.601348   181.360598   151.844740

                             ****ORCA TERMINATED NORMALLY****
TOTAL RUN TIME: 0 days 1 hours 4 minutes 53 seconds 636 msec
