                         Program Version 4.2.1 -  RELEASE  -
|  1> %pal
|  2>  nprocs 32
|  3> end
|  4> !RI-MP2 aug-cc-pVTZ aug-cc-pVTZ/C TightSCF
|  5> %maxcore 4500
|  6> *xyzfile 0 1  06_17R.xyz
|  7>
|  8>
|  9>                          ****END OF INPUT****

CARTESIAN COORDINATES (ANGSTROEM)
---------------------------------
  C     -1.527963   -2.295721   -0.562245
  H     -2.259279   -2.677975    0.145096
  H     -0.871262   -0.893044    0.953330
  C      0.733656   -2.543045   -0.725713
  O      1.797867   -3.068374   -0.864529
  C      2.005034    0.543294   -1.187258
  O      2.990989    1.418505   -0.869191
  O      1.777798   -0.226679    1.043826
  H      3.271272   -1.256130    3.653891
  H      2.209482    0.162555    3.576102
  H      3.840447   -1.803660   -0.003910
  H      4.974338   -1.516639    1.336919
  C      1.890324    3.595247   -0.922784
  H      1.350175    2.442127    0.753103
  H      1.740145    4.523997   -1.467870
  H     -1.588266    0.169838   -1.813029
  C     -2.944148    0.465138   -0.170456
  C     -4.389713    1.101525    1.659955
  C     -5.345456    0.277725   -0.380755
  H     -3.952944   -0.240724   -1.926480
  H     -6.500326    0.877837    1.326629
  H     -2.251036    1.228742    1.711852
  H     -1.980740   -2.220782   -1.554255
  C     -0.893641   -0.972928   -0.139505
  N      0.466283   -1.184168   -0.640310
  O     -0.434582   -3.219642   -0.631665
  C      1.486185   -0.281330   -0.289046
  H      1.674770    0.509788   -2.219838
  B      3.007472   -0.529233    1.603722
  C      3.101067   -0.298914    3.148581
  H      3.970428    0.320453    3.391621
  C      4.183154   -1.071134    0.731463
  H      4.622747   -0.240193    0.168937
  C      2.906914    2.673042   -1.526335
  C      1.209953    3.355621    0.187282
  H      0.496234    4.075738    0.567522
  C     -1.557283    0.266845   -0.724853
  H     -0.933531    1.134594   -0.497457
  C     -3.119897    0.954509    1.122753
  C     -5.507744    0.761422    0.909019
  C     -4.071584    0.131146   -0.914538
  H     -6.212066    0.015973   -0.975947
  H     -4.508098    1.486433    2.665752
  H      3.904285    3.112598   -1.457345
  H      2.692173    2.518698   -2.591991

 Total Charge           Charge          ....    0
 Multiplicity           Mult            ....    1
 Number of Electrons    NEL             ....  168
 Basis Dimension        Dim             .... 1564

ORBITAL ENERGIES
----------------

  NO   OCC          E(Eh)            E(eV)
   0   2.0000     -20.605175      -560.6953
   1   2.0000     -20.592075      -560.3389
   2   2.0000     -20.577611      -559.9453
   3   2.0000     -20.529504      -558.6362
   4   2.0000     -15.599859      -424.4937
   5   2.0000     -11.400249      -310.2165
   6   2.0000     -11.322094      -308.0898
   7   2.0000     -11.303506      -307.5840
   8   2.0000     -11.302833      -307.5657
   9   2.0000     -11.292436      -307.2828
  10   2.0000     -11.289833      -307.2120
  11   2.0000     -11.253308      -306.2181
  12   2.0000     -11.245818      -306.0143
  13   2.0000     -11.245276      -305.9995
  14   2.0000     -11.245269      -305.9993
  15   2.0000     -11.245084      -305.9943
  16   2.0000     -11.242915      -305.9353
  17   2.0000     -11.242209      -305.9161
  18   2.0000     -11.241483      -305.8963
  19   2.0000     -11.231392      -305.6217
  20   2.0000     -11.182770      -304.2987
  21   2.0000     -11.169759      -303.9446
  22   2.0000      -7.606206      -206.9754
  23   2.0000      -1.476787       -40.1854
  24   2.0000      -1.427779       -38.8518
  25   2.0000      -1.398939       -38.0671
  26   2.0000      -1.369603       -37.2688
  27   2.0000      -1.263109       -34.3709
  28   2.0000      -1.172149       -31.8958
  29   2.0000      -1.094204       -29.7748
  30   2.0000      -1.081559       -29.4307
  31   2.0000      -1.038499       -28.2590
  32   2.0000      -1.027573       -27.9617
  33   2.0000      -1.016620       -27.6636
  34   2.0000      -0.957124       -26.0447
  35   2.0000      -0.952520       -25.9194
  36   2.0000      -0.940608       -25.5952
  37   2.0000      -0.914307       -24.8795
  38   2.0000      -0.864267       -23.5179
  39   2.0000      -0.856342       -23.3023
  40   2.0000      -0.839698       -22.8494
  41   2.0000      -0.807165       -21.9641
  42   2.0000      -0.788862       -21.4660
  43   2.0000      -0.775685       -21.1075
  44   2.0000      -0.741427       -20.1753
  45   2.0000      -0.727564       -19.7980
  46   2.0000      -0.719647       -19.5826
  47   2.0000      -0.704328       -19.1657
  48   2.0000      -0.688414       -18.7327
  49   2.0000      -0.673305       -18.3216
  50   2.0000      -0.664337       -18.0775
  51   2.0000      -0.649822       -17.6826
  52   2.0000      -0.646440       -17.5905
  53   2.0000      -0.639704       -17.4072
  54   2.0000      -0.624412       -16.9911
  55   2.0000      -0.613919       -16.7056
  56   2.0000      -0.604051       -16.4371
  57   2.0000      -0.602684       -16.3999
  58   2.0000      -0.596128       -16.2215
  59   2.0000      -0.589594       -16.0437
  60   2.0000      -0.579266       -15.7626
  61   2.0000      -0.577738       -15.7211
  62   2.0000      -0.569979       -15.5099
  63   2.0000      -0.564012       -15.3475
  64   2.0000      -0.548417       -14.9232
  65   2.0000      -0.546992       -14.8844
  66   2.0000      -0.523579       -14.2473
  67   2.0000      -0.521951       -14.2030
  68   2.0000      -0.518178       -14.1003
  69   2.0000      -0.514081       -13.9888
  70   2.0000      -0.506692       -13.7878
  71   2.0000      -0.503902       -13.7119
  72   2.0000      -0.500184       -13.6107
  73   2.0000      -0.497710       -13.5434
  74   2.0000      -0.493801       -13.4370
  75   2.0000      -0.491256       -13.3678
  76   2.0000      -0.459889       -12.5142
  77   2.0000      -0.455567       -12.3966
  78   2.0000      -0.436790       -11.8857
  79   2.0000      -0.410639       -11.1741
  80   2.0000      -0.380221       -10.3463
  81   2.0000      -0.349650        -9.5145
  82   2.0000      -0.347207        -9.4480
  83   2.0000      -0.337802        -9.1920
  84   0.0000       0.019972         0.5435
  85   0.0000       0.024434         0.6649
  86   0.0000       0.026699         0.7265
  87   0.0000       0.033252         0.9048
  88   0.0000       0.035213         0.9582

MULLIKEN ATOMIC CHARGES
-----------------------
   0 C :   -0.289588
   1 H :    0.355467
   2 H :    0.299839
   3 C :    0.439251
   4 O :   -0.968268
   5 C :   -0.926208
   6 O :   -0.614707
   7 O :   -0.366475
   8 H :    0.249460
   9 H :    0.378252
  10 H :    0.542876
  11 H :    0.077675
  12 C :   -0.499653
  13 H :    0.361549
  14 H :    0.217236
  15 H :    0.014087
  16 C :    1.956738
  17 C :   -1.063728
  18 C :   -0.657710
  19 H :   -0.383089
  20 H :    0.391133
  21 H :    0.066753
  22 H :    0.283246
  23 C :    0.149668
  24 N :    0.215498
  25 O :   -0.580384
  26 C :    2.039982
  27 H :    0.263235
  28 B :   -0.143857
  29 C :   -1.135512
  30 H :    0.239928
  31 C :   -1.147735
  32 H :    0.433896
  33 C :   -0.104382
  34 C :   -1.064697
  35 H :    0.430416
  36 C :   -0.540776
  37 H :    0.913701
  38 C :   -0.853794
  39 C :    0.058376
  40 C :   -1.028675
  41 H :    0.669306
  42 H :    0.541895
  43 H :    0.412222
  44 H :    0.367551
Sum of atomic charges:   -0.0000000

LOEWDIN ATOMIC CHARGES
----------------------
   0 C :    0.114946
   1 H :   -0.134627
   2 H :   -0.116282
   3 C :   -0.925743
   4 O :    0.461748
   5 C :   -0.042073
   6 O :    0.583427
   7 O :    0.654509
   8 H :   -0.185456
   9 H :   -0.193905
  10 H :   -0.210567
  11 H :   -0.184089
  12 C :    0.196539
  13 H :   -0.234568
  14 H :   -0.186177
  15 H :   -0.138620
  16 C :   -0.109057
  17 C :    0.203590
  18 C :    0.201457
  19 H :   -0.173757
  20 H :   -0.183114
  21 H :   -0.167679
  22 H :   -0.141269
  23 C :   -0.097443
  24 N :    0.257885
  25 O :    0.606543
  26 C :   -0.512283
  27 H :   -0.166029
  28 B :   -0.608527
  29 C :    0.682552
  30 H :   -0.186260
  31 C :    0.687790
  32 H :   -0.194605
  33 C :    0.023999
  34 C :    0.524903
  35 H :   -0.215773
  36 C :    0.298836
  37 H :   -0.149681
  38 C :    0.220862
  39 C :    0.196077
  40 C :    0.218092
  41 H :   -0.180240
  42 H :   -0.179886
  43 H :   -0.154927
  44 H :   -0.161117

  Mayer bond orders larger than 0.100000
B(  0-C ,  1-H ) :   0.9841 B(  0-C , 22-H ) :   1.0300 B(  0-C , 23-C ) :   0.7716
B(  0-C , 25-O ) :   0.5270 B(  2-H , 23-C ) :   0.8509 B(  3-C ,  4-O ) :   1.6068
B(  3-C ,  5-C ) :  -0.1124 B(  3-C , 24-N ) :   0.5785 B(  3-C , 25-O ) :   0.9580
B(  3-C , 26-C ) :   0.1615 B(  4-O , 24-N ) :  -0.3204 B(  4-O , 25-O ) :  -0.2432
B(  5-C ,  6-O ) :   0.8015 B(  5-C ,  7-O ) :   0.4510 B(  5-C , 24-N ) :   0.2122
B(  5-C , 27-H ) :   1.4475 B(  5-C , 36-C ) :   0.1038 B(  6-O , 33-C ) :   1.1401
B(  7-O , 28-B ) :   0.9651 B(  7-O , 31-C ) :  -0.1232 B(  8-H , 29-C ) :   0.9760
B(  9-H , 29-C ) :   0.8128 B( 10-H , 31-C ) :   0.6807 B( 11-H , 31-C ) :   1.2024
B( 12-C , 14-H ) :   1.1433 B( 12-C , 33-C ) :   0.6011 B( 12-C , 34-C ) :   1.3991
B( 13-H , 34-C ) :   0.9043 B( 15-H , 36-C ) :   1.3011 B( 15-H , 40-C ) :  -0.1070
B( 16-C , 18-C ) :   0.2151 B( 16-C , 19-H ) :  -0.6459 B( 16-C , 20-H ) :  -0.1446
B( 16-C , 21-H ) :  -0.3234 B( 16-C , 36-C ) :   0.3107 B( 16-C , 37-H ) :  -0.1836
B( 16-C , 38-C ) :   0.3699 B( 16-C , 39-C ) :   0.1158 B( 16-C , 40-C ) :   0.2196
B( 16-C , 41-H ) :   0.1465 B( 17-C , 18-C ) :   0.3929 B( 17-C , 20-H ) :  -0.2330
B( 17-C , 38-C ) :   1.4271 B( 17-C , 39-C ) :   1.0787 B( 17-C , 40-C ) :   0.1595
B( 17-C , 42-H ) :   0.5240 B( 18-C , 19-H ) :  -0.1833 B( 18-C , 20-H ) :  -0.3067
B( 18-C , 39-C ) :   1.0521 B( 18-C , 40-C ) :   1.3564 B( 18-C , 41-H ) :   0.4971
B( 19-H , 20-H ) :   0.1302 B( 19-H , 21-H ) :   0.3485 B( 19-H , 36-C ) :  -0.2571
B( 19-H , 37-H ) :  -0.1030 B( 19-H , 38-C ) :   0.2761 B( 19-H , 39-C ) :  -0.1095
B( 19-H , 40-C ) :   2.4977 B( 19-H , 41-H ) :  -0.1709 B( 19-H , 42-H ) :  -0.1541
B( 20-H , 39-C ) :   0.9024 B( 20-H , 40-C ) :   0.3360 B( 21-H , 23-C ) :   0.1303
B( 21-H , 36-C ) :  -0.1839 B( 21-H , 37-H ) :  -0.1328 B( 21-H , 38-C ) :   1.5339
B( 21-H , 39-C ) :  -0.1090 B( 21-H , 40-C ) :   0.2741 B( 23-C , 24-N ) :   0.7591
B( 23-C , 25-O ) :   0.2230 B( 23-C , 36-C ) :   0.8601 B( 23-C , 38-C ) :   0.1063
B( 23-C , 40-C ) :   0.1378 B( 24-N , 25-O ) :  -0.1265 B( 24-N , 26-C ) :   1.0228
B( 26-C , 27-H ) :  -0.3809 B( 26-C , 28-B ) :  -0.1159 B( 28-B , 29-C ) :   0.8001
B( 28-B , 31-C ) :   1.1313 B( 29-C , 30-H ) :   1.0011 B( 31-C , 32-H ) :   0.7788
B( 33-C , 43-H ) :   0.8913 B( 33-C , 44-H ) :   0.9125 B( 34-C , 35-H ) :   0.7921
B( 36-C , 37-H ) :   0.6167 B( 36-C , 38-C ) :   0.5172 B( 36-C , 39-C ) :   0.1187
B( 36-C , 40-C ) :   0.1651 B( 37-H , 38-C ) :  -0.2850 B( 38-C , 39-C ) :  -0.3332
B( 38-C , 40-C ) :  -0.8316 B( 39-C , 40-C ) :  -0.3788 B( 39-C , 41-H ) :   0.1485
B( 39-C , 42-H ) :   0.1078 B( 40-C , 41-H ) :  -0.2640

MP2 TOTAL ENERGY:    -1039.611459207 Eh
FINAL SINGLE POINT ENERGY     -1039.611459207471

DIPOLE MOMENT
-------------
                                X             Y             Z
Electronic contribution:     -2.76263     -10.22082      -4.73226
Nuclear contribution   :      1.36639      12.08242       4.43054
                        -----------------------------------------
Total Dipole Moment    :     -1.39624       1.86161      -0.30173
                        -----------------------------------------
Magnitude (a.u.)       :      2.34651
Magnitude (Debye)      :      5.96434

Rotational constants in cm-1:     0.011442     0.005556     0.004622
Rotational constants in MHz :   343.017351   166.551323   138.576357

                             ****ORCA TERMINATED NORMALLY****
TOTAL RUN TIME: 0 days 1 hours 14 minutes 11 seconds 659 msec
