                         Program Version 4.2.1 -  RELEASE  -
|  1> %pal
|  2>  nprocs 32
|  3> end
|  4> !RI-MP2 aug-cc-pVTZ aug-cc-pVTZ/C TightSCF
|  5> %maxcore 4500
|  6> *xyzfile 0 1  04_82R1.xyz
|  7>
|  8>
|  9>                          ****END OF INPUT****

CARTESIAN COORDINATES (ANGSTROEM)
---------------------------------
  O     -1.503362   -0.982751   -1.026767
  C     -1.922564   -0.225321   -0.194273
  O     -3.061930   -0.452429    0.483637
  C     -1.285670    1.077895    0.204435
  C      0.097593    1.240301   -0.396003
  C      1.085899    0.274635    0.206288
  H      0.475230    2.250191   -0.215599
  H      0.084948    1.092703   -1.475859
  C      3.221530   -0.670549   -0.021676
  H      3.541023   -0.367080    0.975126
  H      4.044505   -0.597037   -0.727234
  H      2.840303   -1.690385    0.019804
  O      0.910953   -0.351992    1.217828
  H     -3.416835   -1.298603    0.177026
  O      2.210969    0.215553   -0.514012
  H     -1.949543    1.881315   -0.125124
  H     -1.253402    1.120091    1.293755

 Total Charge           Charge          ....    0
 Multiplicity           Mult            ....    1
 Number of Electrons    NEL             ....   70
 Basis Dimension        Dim             ....  598

ORBITAL ENERGIES
----------------

  NO   OCC          E(Eh)            E(eV)
   0   2.0000     -20.613947      -560.9340
   1   2.0000     -20.605023      -560.6912
   2   2.0000     -20.550938      -559.2195
   3   2.0000     -20.545024      -559.0585
   4   2.0000     -11.387353      -309.8656
   5   2.0000     -11.379519      -309.6525
   6   2.0000     -11.284970      -307.0797
   7   2.0000     -11.254978      -306.2635
   8   2.0000     -11.252790      -306.2040
   9   2.0000      -1.471289       -40.0358
  10   2.0000      -1.466476       -39.9048
  11   2.0000      -1.367237       -37.2044
  12   2.0000      -1.363443       -37.1012
  13   2.0000      -1.095949       -29.8223
  14   2.0000      -0.997219       -27.1357
  15   2.0000      -0.930366       -25.3166
  16   2.0000      -0.818090       -22.2614
  17   2.0000      -0.769561       -20.9408
  18   2.0000      -0.715990       -19.4831
  19   2.0000      -0.710471       -19.3329
  20   2.0000      -0.701895       -19.0995
  21   2.0000      -0.676063       -18.3966
  22   2.0000      -0.672629       -18.3032
  23   2.0000      -0.650918       -17.7124
  24   2.0000      -0.610474       -16.6118
  25   2.0000      -0.599503       -16.3133
  26   2.0000      -0.565575       -15.3901
  27   2.0000      -0.547763       -14.9054
  28   2.0000      -0.539613       -14.6836
  29   2.0000      -0.525618       -14.3028
  30   2.0000      -0.520538       -14.1646
  31   2.0000      -0.487483       -13.2651
  32   2.0000      -0.464262       -12.6332
  33   2.0000      -0.458318       -12.4715
  34   2.0000      -0.450758       -12.2657
  35   0.0000       0.026550         0.7225
  36   0.0000       0.032397         0.8816
  37   0.0000       0.035883         0.9764
  38   0.0000       0.042270         1.1502
  39   0.0000       0.050918         1.3855

MULLIKEN ATOMIC CHARGES
-----------------------
   0 O :   -0.790392
   1 C :    0.566975
   2 O :   -0.469837
   3 C :   -0.108256
   4 C :   -0.146682
   5 C :    0.644653
   6 H :    0.310913
   7 H :    0.206207
   8 C :   -0.817823
   9 H :    0.363527
  10 H :    0.360404
  11 H :    0.372617
  12 O :   -0.831136
  13 H :    0.243804
  14 O :   -0.423567
  15 H :    0.310660
  16 H :    0.207934
Sum of atomic charges:   -0.0000000

LOEWDIN ATOMIC CHARGES
----------------------
   0 O :    0.472961
   1 C :   -0.799970
   2 O :    0.841294
   3 C :    0.256133
   4 C :    0.259372
   5 C :   -0.830924
   6 H :   -0.141695
   7 H :   -0.158282
   8 C :    0.360169
   9 H :   -0.180119
  10 H :   -0.185615
  11 H :   -0.178507
  12 O :    0.482950
  13 H :   -0.468504
  14 O :    0.572321
  15 H :   -0.143365
  16 H :   -0.158218

  Mayer bond orders larger than 0.100000
B(  0-O ,  1-C ) :   1.4671 B(  1-C ,  2-O ) :   0.9222 B(  1-C ,  3-C ) :   0.5399
B(  2-O , 13-H ) :   0.9635 B(  3-C ,  4-C ) :   1.0292 B(  3-C , 15-H ) :   0.9376
B(  3-C , 16-H ) :   0.9575 B(  4-C ,  5-C ) :   0.5362 B(  4-C ,  6-H ) :   0.9105
B(  4-C ,  7-H ) :   0.9622 B(  5-C , 12-O ) :   1.4522 B(  5-C , 14-O ) :   0.9355
B(  8-C ,  9-H ) :   0.8758 B(  8-C , 10-H ) :   0.9027 B(  8-C , 11-H ) :   0.8731
B(  8-C , 14-O ) :   0.8684

MP2 TOTAL ENERGY:     -495.468459707 Eh
FINAL SINGLE POINT ENERGY      -495.468459707366

DIPOLE MOMENT
-------------
                                X             Y             Z
Electronic contribution:     -4.24349      -1.63562      -0.06438
Nuclear contribution   :      4.32211       2.35478      -0.07520
                        -----------------------------------------
Total Dipole Moment    :      0.07862       0.71916      -0.13958
                        -----------------------------------------
Magnitude (a.u.)       :      0.73678
Magnitude (Debye)      :      1.87276

Rotational constants in cm-1:     0.125593     0.028436     0.027527
Rotational constants in MHz :  3765.195303   852.491575   825.253089

                             ****ORCA TERMINATED NORMALLY****
TOTAL RUN TIME: 0 days 0 hours 3 minutes 12 seconds 98 msec
