                         Program Version 4.2.1 -  RELEASE  -
|  1> %pal
|  2>  nprocs 32
|  3> end
|  4> !RI-MP2 aug-cc-pVTZ aug-cc-pVTZ/C TightSCF
|  5> %maxcore 4500
|  6> *xyzfile 0 1  05_36R1.xyz
|  7>
|  8>
|  9>                          ****END OF INPUT****

CARTESIAN COORDINATES (ANGSTROEM)
---------------------------------
  O     -3.474576   -0.166464    0.312714
  C     -2.351196   -0.511795    0.030119
  O     -2.012130   -1.813305   -0.083993
  C     -3.063001   -2.752796    0.146947
  C     -1.196309    0.349630   -0.246576
  C      1.196311    0.349630   -0.246576
  C      1.208545    1.686174   -0.114950
  N      0.000001    2.351799   -0.383769
  C     -1.208543    1.686174   -0.114950
  C      2.338362    2.570190    0.287150
  C      2.351197   -0.511797    0.030118
  O      2.012127   -1.813306   -0.083992
  C      3.062996   -2.752800    0.146949
  C     -2.338361    2.570189    0.287151
  O      3.474577   -0.166468    0.312714
  H      3.450855   -2.648307    1.159978
  H      3.874954   -2.596272   -0.562677
  H      2.615230   -3.733131    0.007107
  H      0.000001    3.335525   -0.161169
  H      0.000001   -1.265791   -0.590753
  H      2.101591    3.082070    1.225350
  H      2.489474    3.336963   -0.479511
  H      3.256792    2.007694    0.411702
  H     -2.101590    3.082069    1.225351
  H     -3.256790    2.007692    0.411702
  H     -2.489473    3.336962   -0.479510
  H     -3.874958   -2.596266   -0.562678
  H     -3.450860   -2.648303    1.159976
  H     -2.615237   -3.733129    0.007105
  N      0.000001   -0.264402   -0.711060

 Total Charge           Charge          ....    0
 Multiplicity           Mult            ....    1
 Number of Electrons    NEL             ....  120
 Basis Dimension        Dim             .... 1058

ORBITAL ENERGIES
----------------

  NO   OCC          E(Eh)            E(eV)
   0   2.0000     -20.603909      -560.6609
   1   2.0000     -20.603909      -560.6609
   2   2.0000     -20.535853      -558.8090
   3   2.0000     -20.535853      -558.8090
   4   2.0000     -15.596479      -424.4018
   5   2.0000     -15.559824      -423.4043
   6   2.0000     -11.382033      -309.7209
   7   2.0000     -11.382032      -309.7208
   8   2.0000     -11.296334      -307.3889
   9   2.0000     -11.296321      -307.3885
  10   2.0000     -11.285042      -307.0816
  11   2.0000     -11.285042      -307.0816
  12   2.0000     -11.262243      -306.4612
  13   2.0000     -11.262233      -306.4609
  14   2.0000     -11.231837      -305.6338
  15   2.0000     -11.231836      -305.6338
  16   2.0000      -1.463700       -39.8293
  17   2.0000      -1.462671       -39.8013
  18   2.0000      -1.357051       -36.9272
  19   2.0000      -1.356752       -36.9191
  20   2.0000      -1.301434       -35.4138
  21   2.0000      -1.215905       -33.0865
  22   2.0000      -1.106487       -30.1090
  23   2.0000      -1.012596       -27.5541
  24   2.0000      -1.009642       -27.4738
  25   2.0000      -0.983708       -26.7681
  26   2.0000      -0.947323       -25.7780
  27   2.0000      -0.941228       -25.6121
  28   2.0000      -0.844282       -22.9741
  29   2.0000      -0.836349       -22.7582
  30   2.0000      -0.771239       -20.9865
  31   2.0000      -0.754608       -20.5339
  32   2.0000      -0.708491       -19.2790
  33   2.0000      -0.691138       -18.8068
  34   2.0000      -0.689736       -18.7687
  35   2.0000      -0.677157       -18.4264
  36   2.0000      -0.673219       -18.3192
  37   2.0000      -0.669651       -18.2221
  38   2.0000      -0.658004       -17.9052
  39   2.0000      -0.651908       -17.7393
  40   2.0000      -0.625042       -17.0083
  41   2.0000      -0.596100       -16.2207
  42   2.0000      -0.589487       -16.0408
  43   2.0000      -0.586173       -15.9506
  44   2.0000      -0.573996       -15.6192
  45   2.0000      -0.561086       -15.2679
  46   2.0000      -0.554435       -15.0869
  47   2.0000      -0.550672       -14.9846
  48   2.0000      -0.549145       -14.9430
  49   2.0000      -0.542588       -14.7646
  50   2.0000      -0.529945       -14.4205
  51   2.0000      -0.528278       -14.3752
  52   2.0000      -0.527264       -14.3476
  53   2.0000      -0.475487       -12.9387
  54   2.0000      -0.464842       -12.6490
  55   2.0000      -0.464809       -12.6481
  56   2.0000      -0.449167       -12.2225
  57   2.0000      -0.442079       -12.0296
  58   2.0000      -0.368638       -10.0312
  59   2.0000      -0.267233        -7.2718
  60   0.0000       0.024608         0.6696
  61   0.0000       0.027437         0.7466
  62   0.0000       0.033932         0.9233
  63   0.0000       0.039198         1.0666
  64   0.0000       0.040647         1.1061

MULLIKEN ATOMIC CHARGES
-----------------------
   0 O :   -1.091491
   1 C :    0.493381
   2 O :   -0.298271
   3 C :   -0.914197
   4 C :    1.080947
   5 C :    1.080908
   6 C :    0.107147
   7 N :   -0.508560
   8 C :    0.107151
   9 C :   -0.959558
  10 C :    0.493382
  11 O :   -0.298272
  12 C :   -0.914180
  13 C :   -0.959566
  14 O :   -1.091504
  15 H :    0.388429
  16 H :    0.387654
  17 H :    0.342973
  18 H :   -0.009320
  19 H :    0.148063
  20 H :    0.237656
  21 H :    0.289603
  22 H :    0.361660
  23 H :    0.237654
  24 H :    0.361664
  25 H :    0.289600
  26 H :    0.387654
  27 H :    0.388431
  28 H :    0.342974
  29 N :   -0.482014
Sum of atomic charges:   -0.0000000

LOEWDIN ATOMIC CHARGES
----------------------
   0 O :    0.488745
   1 C :   -0.799468
   2 O :    0.583443
   3 C :    0.361484
   4 C :   -0.188042
   5 C :   -0.188042
   6 C :   -0.173230
   7 N :    0.587886
   8 C :   -0.173229
   9 C :    0.607276
  10 C :   -0.799469
  11 O :    0.583443
  12 C :    0.361485
  13 C :    0.607277
  14 O :    0.488745
  15 H :   -0.179271
  16 H :   -0.179350
  17 H :   -0.184379
  18 H :   -0.288057
  19 H :   -0.417764
  20 H :   -0.153976
  21 H :   -0.154786
  22 H :   -0.239444
  23 H :   -0.153976
  24 H :   -0.239445
  25 H :   -0.154786
  26 H :   -0.179351
  27 H :   -0.179271
  28 H :   -0.184378
  29 N :    0.539928

  Mayer bond orders larger than 0.100000
B(  0-O ,  1-C ) :   1.3078 B(  0-O ,  8-C ) :  -0.1494 B(  1-C ,  2-O ) :   0.9858
B(  1-C ,  3-C ) :  -0.1360 B(  1-C ,  4-C ) :   0.4764 B(  1-C ,  8-C ) :   0.3926
B(  1-C , 13-C ) :   0.1028 B(  1-C , 29-N ) :  -0.2023 B(  2-O ,  3-C ) :   0.9135
B(  2-O ,  4-C ) :  -0.1161 B(  3-C , 26-H ) :   0.8696 B(  3-C , 27-H ) :   0.8678
B(  3-C , 28-H ) :   0.9257 B(  4-C ,  5-C ) :   0.1002 B(  4-C ,  7-N ) :  -0.1350
B(  4-C ,  8-C ) :   0.9612 B(  4-C , 13-C ) :  -0.1260 B(  4-C , 29-N ) :   0.6869
B(  5-C ,  6-C ) :   0.9612 B(  5-C ,  7-N ) :  -0.1351 B(  5-C ,  9-C ) :  -0.1259
B(  5-C , 10-C ) :   0.4762 B(  5-C , 11-O ) :  -0.1160 B(  5-C , 29-N ) :   0.6869
B(  6-C ,  7-N ) :   0.6814 B(  6-C ,  8-C ) :   0.1775 B(  6-C ,  9-C ) :   0.5569
B(  6-C , 10-C ) :   0.3927 B(  6-C , 14-O ) :  -0.1494 B(  6-C , 20-H ) :  -0.1276
B(  6-C , 21-H ) :  -0.1446 B(  6-C , 22-H ) :   0.1023 B(  7-N ,  8-C ) :   0.6813
B(  7-N , 18-H ) :   1.2515 B(  7-N , 29-N ) :  -0.2529 B(  8-C , 13-C ) :   0.5570
B(  8-C , 23-H ) :  -0.1276 B(  8-C , 24-H ) :   0.1024 B(  8-C , 25-H ) :  -0.1446
B(  9-C , 10-C ) :   0.1028 B(  9-C , 20-H ) :   1.0810 B(  9-C , 21-H ) :   1.0391
B(  9-C , 22-H ) :   0.8714 B( 10-C , 11-O ) :   0.9858 B( 10-C , 12-C ) :  -0.1359
B( 10-C , 14-O ) :   1.3078 B( 10-C , 29-N ) :  -0.2023 B( 11-O , 12-C ) :   0.9135
B( 12-C , 15-H ) :   0.8678 B( 12-C , 16-H ) :   0.8696 B( 12-C , 17-H ) :   0.9257
B( 13-C , 23-H ) :   1.0810 B( 13-C , 24-H ) :   0.8714 B( 13-C , 25-H ) :   1.0391
B( 19-H , 29-N ) :   1.1858

MP2 TOTAL ENERGY:     -798.489582046 Eh
FINAL SINGLE POINT ENERGY      -798.489582045570

DIPOLE MOMENT
-------------
                                X             Y             Z
Electronic contribution:      0.00001      -0.89636      -2.43415
Nuclear contribution   :     -0.00001       0.91411       2.76218
                        -----------------------------------------
Total Dipole Moment    :      0.00000       0.01775       0.32802
                        -----------------------------------------
Magnitude (a.u.)       :      0.32850
Magnitude (Debye)      :      0.83499

Rotational constants in cm-1:     0.022612     0.013932     0.008840
Rotational constants in MHz :   677.905026   417.669399   265.030606

                             ****ORCA TERMINATED NORMALLY****
TOTAL RUN TIME: 0 days 0 hours 20 minutes 31 seconds 717 msec
