                         Program Version 4.2.1 -  RELEASE  -
|  1> %pal
|  2>  nprocs 32
|  3> end
|  4> !RI-MP2 aug-cc-pVTZ aug-cc-pVTZ/C TightSCF
|  5> %maxcore 4500
|  6> *xyzfile 1 1  05_12R2.xyz
|  7>
|  8>
|  9>                          ****END OF INPUT****

CARTESIAN COORDINATES (ANGSTROEM)
---------------------------------
  C     -1.203806   -1.350609    0.041136
  C     -1.203834    1.350597    0.041139
  C      0.321855    1.248548    0.111662
  C      0.848064    0.000014    0.818895
  C      0.321881   -1.248529    0.111659
  H      0.735590    1.268298   -0.896935
  H      0.672584    2.145581    0.625296
  H      0.517249    0.000009    1.859510
  H      0.735615   -1.268268   -0.896938
  H      0.672627   -2.145556    0.625291
  N     -1.770438   -0.000011   -0.400905
  O     -2.723748   -0.000020   -1.092918
  C     -1.636817   -2.383949   -0.989381
  H     -1.150328   -3.324567   -0.730834
  H     -2.713458   -2.544152   -0.989455
  H     -1.316419   -2.105286   -1.993965
  C     -1.851813   -1.656949    1.403313
  H     -2.937585   -1.564873    1.358630
  H     -1.613824   -2.695837    1.632884
  H     -1.470842   -1.039993    2.212378
  C     -1.636865    2.383930   -0.989377
  H     -2.713510    2.544112   -0.989450
  H     -1.150395    3.324557   -0.730828
  H     -1.316461    2.105275   -1.993961
  C     -1.851847    1.656922    1.403316
  H     -1.613880    2.695815    1.632889
  H     -2.937617    1.564823    1.358632
  H     -1.470864    1.039972    2.212380
  N      2.301120    0.000032    0.872224
  C      3.092968    0.000036   -0.245363
  C      4.577751   -0.000027   -0.006290
  H      5.006177   -0.878796   -0.489074
  H      5.006413    0.878084   -0.490044
  H      4.852186    0.000499    1.048339
  O      2.609093    0.000048   -1.362609
  H      2.743992    0.000035    1.775992

 Total Charge           Charge          ....    1
 Multiplicity           Mult            ....    1
 Number of Electrons    NEL             ....  116
 Basis Dimension        Dim             .... 1173

ORBITAL ENERGIES
----------------

  NO   OCC          E(Eh)            E(eV)
   0   2.0000     -20.864580      -567.7541
   1   2.0000     -20.630230      -561.3771
   2   2.0000     -15.968872      -434.5351
   3   2.0000     -15.709473      -427.4765
   4   2.0000     -11.466770      -312.0267
   5   2.0000     -11.466751      -312.0262
   6   2.0000     -11.465154      -311.9827
   7   2.0000     -11.422079      -310.8106
   8   2.0000     -11.385511      -309.8155
   9   2.0000     -11.385507      -309.8154
  10   2.0000     -11.377398      -309.5947
  11   2.0000     -11.377382      -309.5943
  12   2.0000     -11.370092      -309.3959
  13   2.0000     -11.370092      -309.3959
  14   2.0000     -11.334833      -308.4365
  15   2.0000      -1.782537       -48.5053
  16   2.0000      -1.501647       -40.8619
  17   2.0000      -1.373973       -37.3877
  18   2.0000      -1.347178       -36.6586
  19   2.0000      -1.285669       -34.9848
  20   2.0000      -1.198203       -32.6047
  21   2.0000      -1.157075       -31.4856
  22   2.0000      -1.112374       -30.2692
  23   2.0000      -1.103209       -30.0198
  24   2.0000      -1.100748       -29.9529
  25   2.0000      -1.094786       -29.7906
  26   2.0000      -1.020550       -27.7706
  27   2.0000      -1.000005       -27.2115
  28   2.0000      -0.953987       -25.9593
  29   2.0000      -0.904644       -24.6166
  30   2.0000      -0.867983       -23.6190
  31   2.0000      -0.865114       -23.5410
  32   2.0000      -0.848603       -23.0917
  33   2.0000      -0.828508       -22.5448
  34   2.0000      -0.777254       -21.1501
  35   2.0000      -0.775331       -21.0978
  36   2.0000      -0.770435       -20.9646
  37   2.0000      -0.753221       -20.4962
  38   2.0000      -0.742700       -20.2099
  39   2.0000      -0.740431       -20.1482
  40   2.0000      -0.728582       -19.8257
  41   2.0000      -0.721773       -19.6404
  42   2.0000      -0.714162       -19.4333
  43   2.0000      -0.700629       -19.0651
  44   2.0000      -0.694156       -18.8889
  45   2.0000      -0.689739       -18.7688
  46   2.0000      -0.681996       -18.5581
  47   2.0000      -0.675175       -18.3724
  48   2.0000      -0.667314       -18.1585
  49   2.0000      -0.660946       -17.9853
  50   2.0000      -0.655222       -17.8295
  51   2.0000      -0.641151       -17.4466
  52   2.0000      -0.640671       -17.4335
  53   2.0000      -0.629858       -17.1393
  54   2.0000      -0.620927       -16.8963
  55   2.0000      -0.605805       -16.4848
  56   2.0000      -0.534371       -14.5410
  57   2.0000      -0.518555       -14.1106
  58   0.0000      -0.126326        -3.4375
  59   0.0000      -0.070116        -1.9080
  60   0.0000      -0.058276        -1.5858
  61   0.0000      -0.056024        -1.5245
  62   0.0000      -0.051578        -1.4035

MULLIKEN ATOMIC CHARGES
-----------------------
   0 C :    1.664074
   1 C :    1.663662
   2 C :   -0.684524
   3 C :    0.800075
   4 C :   -0.684763
   5 H :    0.364365
   6 H :    0.386091
   7 H :    0.344605
   8 H :    0.364288
   9 H :    0.386080
  10 N :    0.662206
  11 O :   -0.825264
  12 C :   -1.512979
  13 H :    0.202751
  14 H :    0.256245
  15 H :    0.271635
  16 C :   -1.198385
  17 H :    0.227613
  18 H :    0.151766
  19 H :    0.336587
  20 C :   -1.513097
  21 H :    0.256217
  22 H :    0.202780
  23 H :    0.271590
  24 C :   -1.198122
  25 H :    0.151827
  26 H :    0.227655
  27 H :    0.336552
  28 N :   -0.610459
  29 C :    0.763213
  30 C :   -0.935332
  31 H :    0.328149
  32 H :    0.328166
  33 H :    0.282049
  34 O :   -1.018133
  35 H :   -0.049182
Sum of atomic charges:    1.0000000

LOEWDIN ATOMIC CHARGES
----------------------
   0 C :   -0.331690
   1 C :   -0.331691
   2 C :    0.341586
   3 C :   -0.065511
   4 C :    0.341587
   5 H :   -0.171603
   6 H :   -0.108017
   7 H :   -0.134134
   8 H :   -0.171600
   9 H :   -0.108017
  10 N :    0.041963
  11 O :    0.647512
  12 C :    0.608702
  13 H :   -0.136490
  14 H :   -0.152575
  15 H :   -0.141963
  16 C :    0.641951
  17 H :   -0.135357
  18 H :   -0.131720
  19 H :   -0.180640
  20 C :    0.608702
  21 H :   -0.152574
  22 H :   -0.136491
  23 H :   -0.141963
  24 C :    0.641951
  25 H :   -0.131719
  26 H :   -0.135357
  27 H :   -0.180640
  28 N :    0.603368
  29 C :   -0.644443
  30 C :    0.620635
  31 H :   -0.161139
  32 H :   -0.161155
  33 H :   -0.175854
  34 O :    0.496086
  35 H :   -0.271701

  Mayer bond orders larger than 0.100000
B(  0-C ,  4-C ) :   0.6414 B(  0-C , 10-N ) :   0.8348 B(  0-C , 11-O ) :  -0.2977
B(  0-C , 13-H ) :  -0.1312 B(  0-C , 15-H ) :  -0.1679 B(  0-C , 16-C ) :   0.3184
B(  0-C , 17-H ) :  -0.1045 B(  0-C , 18-H ) :  -0.1279 B(  1-C ,  2-C ) :   0.6418
B(  1-C , 10-N ) :   0.8348 B(  1-C , 11-O ) :  -0.2977 B(  1-C , 22-H ) :  -0.1312
B(  1-C , 23-H ) :  -0.1679 B(  1-C , 24-C ) :   0.3189 B(  1-C , 25-H ) :  -0.1278
B(  1-C , 26-H ) :  -0.1044 B(  2-C ,  3-C ) :   0.9060 B(  2-C ,  4-C ) :   0.1567
B(  2-C ,  5-H ) :   1.0003 B(  2-C ,  6-H ) :   0.8171 B(  2-C , 10-N ) :   0.1134
B(  2-C , 28-N ) :   0.1151 B(  3-C ,  4-C ) :   0.9059 B(  3-C ,  7-H ) :   0.7333
B(  3-C , 29-C ) :  -0.3645 B(  3-C , 34-O ) :   0.1220 B(  4-C ,  8-H ) :   1.0003
B(  4-C ,  9-H ) :   0.8170 B(  4-C , 10-N ) :   0.1134 B(  4-C , 28-N ) :   0.1153
B(  7-H , 28-N ) :  -0.2065 B( 10-N , 11-O ) :   1.2133 B( 11-O , 12-C ) :   0.1039
B( 11-O , 20-C ) :   0.1040 B( 12-C , 13-H ) :   1.1968 B( 12-C , 14-H ) :   1.0658
B( 12-C , 15-H ) :   1.1275 B( 12-C , 16-C ) :   0.1299 B( 16-C , 17-H ) :   1.0712
B( 16-C , 18-H ) :   1.1866 B( 16-C , 19-H ) :   0.9968 B( 20-C , 21-H ) :   1.0658
B( 20-C , 22-H ) :   1.1968 B( 20-C , 23-H ) :   1.1276 B( 20-C , 24-C ) :   0.1299
B( 24-C , 25-H ) :   1.1865 B( 24-C , 26-H ) :   1.0711 B( 24-C , 27-H ) :   0.9968
B( 28-N , 29-C ) :   1.2920 B( 28-N , 30-C ) :   0.1136 B( 28-N , 35-H ) :   1.1930
B( 29-C , 30-C ) :   0.4429 B( 29-C , 34-O ) :   1.4656 B( 29-C , 35-H ) :  -0.1392
B( 30-C , 31-H ) :   0.9870 B( 30-C , 32-H ) :   0.9871 B( 30-C , 33-H ) :   0.9875
B( 30-C , 34-O ) :  -0.1166

MP2 TOTAL ENERGY:     -690.165842330 Eh
FINAL SINGLE POINT ENERGY      -690.165842329718

DIPOLE MOMENT
-------------
                                X             Y             Z
Electronic contribution:      0.32072       0.00021      -4.57745
Nuclear contribution   :     -1.50552      -0.00028       6.28892
                        -----------------------------------------
Total Dipole Moment    :     -1.18481      -0.00006       1.71147
                        -----------------------------------------
Magnitude (a.u.)       :      2.08156
Magnitude (Debye)      :      5.29092

Rotational constants in cm-1:     0.030873     0.013826     0.012033
Rotational constants in MHz :   925.548228   414.493291   360.742842

                             ****ORCA TERMINATED NORMALLY****
TOTAL RUN TIME: 0 days 0 hours 39 minutes 38 seconds 59 msec
