                         Program Version 4.2.1 -  RELEASE  -
|  1> %pal
|  2>  nprocs 32
|  3> end
|  4> !RI-MP2 aug-cc-pVTZ aug-cc-pVTZ/C TightSCF
|  5> %maxcore 4500
|  6> *xyzfile 0 1  10_23TS.xyz
|  7>
|  8>
|  9>                          ****END OF INPUT****

CARTESIAN COORDINATES (ANGSTROEM)
---------------------------------
  C     -0.739782   -1.413294   -0.705898
  C     -1.368171   -2.586070   -0.306037
  C     -1.315728   -0.045964    1.073107
  N     -2.321904   -0.879175    1.489311
  N     -2.646400   -1.963287    1.289714
  C     -1.700277    1.262049    0.519619
  C     -0.750121    2.210745    0.132768
  C     -3.052702    1.546631    0.305190
  C     -1.148142    3.396207   -0.465892
  H      0.300664    2.026103    0.295920
  C     -3.441811    2.733365   -0.291814
  H     -3.808751    0.840886    0.626423
  C     -2.491016    3.664645   -0.686430
  H     -0.395097    4.117322   -0.759758
  H     -4.495680    2.932958   -0.443178
  H     -2.794953    4.593541   -1.152621
  C     -0.107378   -0.334473    1.859636
  C      1.481922   -0.422610    0.106860
  C      0.716014   -1.147551   -0.705696
  H      1.232765   -1.552762   -1.570214
  C     -1.510025   -0.830599   -1.887912
  H     -1.610607    0.254630   -1.846953
  H     -0.947924   -1.060615   -2.801905
  C     -2.506685   -2.932690   -1.236356
  H     -2.152566   -3.636900   -1.999133
  H     -3.354255   -3.400303   -0.731791
  C     -2.848529   -1.577485   -1.872046
  H     -3.564587   -1.042395   -1.243931
  H     -3.293437   -1.669726   -2.863119
  O      1.052166    0.135553    1.297066
  O     -0.070387   -0.959166    2.876980
  C      2.910316   -0.126834   -0.119780
  C      3.418429    0.007543   -1.411551
  C      3.771405    0.026017    0.966254
  C      4.765703    0.260534   -1.613728
  H      2.751346   -0.064671   -2.261333
  C      5.118565    0.281257    0.760763
  H      3.376913   -0.063251    1.969490
  C      5.620946    0.395440   -0.528011
  H      5.146720    0.366620   -2.622198
  H      5.778903    0.390114    1.612517
  H      6.673267    0.597660   -0.686521
  H     -0.856417   -3.344230    0.274488

 Total Charge           Charge          ....    0
 Multiplicity           Mult            ....    1
 Number of Electrons    NEL             ....  174
 Basis Dimension        Dim             .... 1564

ORBITAL ENERGIES
----------------

  NO   OCC          E(Eh)            E(eV)
   0   2.0000     -20.614346      -560.9449
   1   2.0000     -20.560107      -559.4690
   2   2.0000     -15.689018      -426.9199
   3   2.0000     -15.681598      -426.7180
   4   2.0000     -11.400643      -310.2273
   5   2.0000     -11.320386      -308.0434
   6   2.0000     -11.312932      -307.8405
   7   2.0000     -11.271049      -306.7008
   8   2.0000     -11.260587      -306.4162
   9   2.0000     -11.254137      -306.2406
  10   2.0000     -11.246902      -306.0438
  11   2.0000     -11.245640      -306.0094
  12   2.0000     -11.245152      -305.9961
  13   2.0000     -11.244654      -305.9826
  14   2.0000     -11.242860      -305.9338
  15   2.0000     -11.242510      -305.9242
  16   2.0000     -11.241848      -305.9062
  17   2.0000     -11.241659      -305.9011
  18   2.0000     -11.241045      -305.8844
  19   2.0000     -11.241032      -305.8840
  20   2.0000     -11.240530      -305.8704
  21   2.0000     -11.239172      -305.8334
  22   2.0000     -11.228624      -305.5464
  23   2.0000     -11.227352      -305.5118
  24   2.0000     -11.224548      -305.4355
  25   2.0000      -1.482874       -40.3511
  26   2.0000      -1.450511       -39.4704
  27   2.0000      -1.387668       -37.7604
  28   2.0000      -1.182727       -32.1836
  29   2.0000      -1.170812       -31.8594
  30   2.0000      -1.151356       -31.3300
  31   2.0000      -1.119860       -30.4729
  32   2.0000      -1.085737       -29.5444
  33   2.0000      -1.031121       -28.0582
  34   2.0000      -1.028617       -27.9901
  35   2.0000      -1.023511       -27.8512
  36   2.0000      -1.016259       -27.6538
  37   2.0000      -0.971972       -26.4487
  38   2.0000      -0.961717       -26.1696
  39   2.0000      -0.913373       -24.8541
  40   2.0000      -0.860760       -23.4225
  41   2.0000      -0.847347       -23.0575
  42   2.0000      -0.837059       -22.7775
  43   2.0000      -0.829816       -22.5804
  44   2.0000      -0.804460       -21.8905
  45   2.0000      -0.794750       -21.6262
  46   2.0000      -0.755337       -20.5538
  47   2.0000      -0.744491       -20.2586
  48   2.0000      -0.728228       -19.8161
  49   2.0000      -0.710543       -19.3349
  50   2.0000      -0.705746       -19.2043
  51   2.0000      -0.686008       -18.6672
  52   2.0000      -0.677936       -18.4476
  53   2.0000      -0.673907       -18.3379
  54   2.0000      -0.655065       -17.8252
  55   2.0000      -0.645988       -17.5782
  56   2.0000      -0.639386       -17.3986
  57   2.0000      -0.634274       -17.2595
  58   2.0000      -0.628885       -17.1128
  59   2.0000      -0.622602       -16.9419
  60   2.0000      -0.611739       -16.6463
  61   2.0000      -0.605034       -16.4638
  62   2.0000      -0.597172       -16.2499
  63   2.0000      -0.594697       -16.1825
  64   2.0000      -0.579514       -15.7694
  65   2.0000      -0.558371       -15.1940
  66   2.0000      -0.556758       -15.1501
  67   2.0000      -0.543023       -14.7764
  68   2.0000      -0.527762       -14.3611
  69   2.0000      -0.523805       -14.2534
  70   2.0000      -0.518595       -14.1117
  71   2.0000      -0.516735       -14.0611
  72   2.0000      -0.511807       -13.9270
  73   2.0000      -0.504032       -13.7154
  74   2.0000      -0.501162       -13.6373
  75   2.0000      -0.499145       -13.5824
  76   2.0000      -0.496427       -13.5085
  77   2.0000      -0.485512       -13.2114
  78   2.0000      -0.481958       -13.1147
  79   2.0000      -0.467010       -12.7080
  80   2.0000      -0.400567       -10.9000
  81   2.0000      -0.392467       -10.6796
  82   2.0000      -0.351653        -9.5690
  83   2.0000      -0.346236        -9.4216
  84   2.0000      -0.335309        -9.1242
  85   2.0000      -0.311558        -8.4779
  86   2.0000      -0.295080        -8.0295
  87   0.0000       0.021285         0.5792
  88   0.0000       0.025539         0.6950
  89   0.0000       0.028790         0.7834
  90   0.0000       0.032026         0.8715
  91   0.0000       0.036417         0.9909

MULLIKEN ATOMIC CHARGES
-----------------------
   0 C :    2.321219
   1 C :   -1.078751
   2 C :    1.833147
   3 N :    0.048005
   4 N :   -0.996086
   5 C :    1.182787
   6 C :   -0.588913
   7 C :   -0.669375
   8 C :   -0.932984
   9 H :    0.366451
  10 C :   -0.750265
  11 H :    0.234088
  12 C :   -0.241004
  13 H :    0.397425
  14 H :    0.390988
  15 H :    0.591890
  16 C :    0.493448
  17 C :    1.457622
  18 C :   -1.383732
  19 H :   -0.820394
  20 C :   -0.950169
  21 H :    0.366128
  22 H :    0.243935
  23 C :   -0.552686
  24 H :    0.241040
  25 H :    0.352993
  26 C :   -0.556686
  27 H :    0.196172
  28 H :    0.381266
  29 O :   -0.934223
  30 O :   -1.208100
  31 C :    2.200246
  32 C :   -0.570669
  33 C :   -0.975075
  34 C :   -0.862717
  35 H :   -0.182854
  36 C :   -0.946664
  37 H :    0.029568
  38 C :   -0.018370
  39 H :    0.529508
  40 H :    0.504596
  41 H :    0.463685
  42 H :    0.393511
Sum of atomic charges:    0.0000000

LOEWDIN ATOMIC CHARGES
----------------------
   0 C :   -0.141729
   1 C :    0.117666
   2 C :   -0.274674
   3 N :    0.057740
   4 N :    0.418215
   5 C :   -0.138827
   6 C :    0.225958
   7 C :    0.203607
   8 C :    0.212944
   9 H :   -0.216624
  10 C :    0.208878
  11 H :   -0.188932
  12 C :    0.203017
  13 H :   -0.175721
  14 H :   -0.176220
  15 H :   -0.181450
  16 C :   -0.811078
  17 C :   -0.333134
  18 C :    0.243717
  19 H :   -0.188877
  20 C :    0.300293
  21 H :   -0.164845
  22 H :   -0.130999
  23 C :    0.266240
  24 H :   -0.140471
  25 H :   -0.157603
  26 C :    0.303923
  27 H :   -0.157585
  28 H :   -0.136383
  29 O :    0.601080
  30 O :    0.486352
  31 C :   -0.121879
  32 C :    0.214629
  33 C :    0.222271
  34 C :    0.205038
  35 H :   -0.181279
  36 C :    0.206932
  37 H :   -0.182530
  38 C :    0.199078
  39 H :   -0.181329
  40 H :   -0.180208
  41 H :   -0.181162
  42 H :   -0.154038

  Mayer bond orders larger than 0.100000
B(  0-C ,  1-C ) :   0.9022 B(  0-C ,  2-C ) :   0.5373 B(  0-C ,  3-N ) :   0.2428
B(  0-C ,  6-C ) :  -0.1833 B(  0-C , 11-H ) :  -0.1174 B(  0-C , 17-C ) :   0.3877
B(  0-C , 19-H ) :  -0.5513 B(  0-C , 20-C ) :   0.5435 B(  0-C , 21-H ) :  -0.1053
B(  0-C , 23-C ) :  -0.4449 B(  0-C , 24-H ) :  -0.1027 B(  0-C , 26-C ) :  -0.1347
B(  0-C , 29-O ) :  -0.3490 B(  0-C , 31-C ) :  -0.2751 B(  1-C ,  2-C ) :   0.2505
B(  1-C ,  3-N ) :   0.1081 B(  1-C ,  4-N ) :   0.2102 B(  1-C , 18-C ) :  -0.2716
B(  1-C , 19-H ) :  -0.1553 B(  1-C , 20-C ) :   0.3174 B(  1-C , 23-C ) :   1.1364
B(  1-C , 26-C ) :   0.1148 B(  1-C , 42-H ) :   0.8312 B(  2-C ,  3-N ) :   0.2256
B(  2-C ,  4-N ) :  -0.4666 B(  2-C ,  5-C ) :   0.7862 B(  2-C ,  7-C ) :   0.3157
B(  2-C , 10-C ) :   0.1688 B(  2-C , 16-C ) :  -0.1038 B(  2-C , 17-C ) :  -0.1765
B(  2-C , 29-O ) :  -0.1195 B(  2-C , 30-O ) :  -0.2081 B(  3-N ,  4-N ) :   1.0386
B(  3-N , 16-C ) :   0.2256 B(  4-N ,  5-C ) :   0.1030 B(  4-N , 16-C ) :   0.1870
B(  5-C ,  6-C ) :   0.4393 B(  5-C ,  7-C ) :   0.4949 B(  5-C ,  8-C ) :   0.1627
B(  5-C , 15-H ) :   0.1487 B(  5-C , 17-C ) :   0.1377 B(  5-C , 21-H ) :   0.1008
B(  5-C , 30-O ) :   0.1150 B(  6-C ,  7-C ) :  -0.2572 B(  6-C ,  8-C ) :   1.2081
B(  6-C ,  9-H ) :   0.8581 B(  6-C , 15-H ) :  -0.1156 B(  6-C , 18-C ) :   0.1039
B(  7-C ,  9-H ) :   0.1517 B(  7-C , 10-C ) :   1.1864 B(  7-C , 11-H ) :   1.2012
B(  8-C ,  9-H ) :  -0.2015 B(  8-C , 12-C ) :   1.1477 B(  8-C , 13-H ) :   0.8826
B(  8-C , 15-H ) :  -0.1197 B( 10-C , 11-H ) :  -0.1124 B( 10-C , 12-C ) :   1.0831
B( 10-C , 14-H ) :   0.9067 B( 12-C , 15-H ) :   0.5785 B( 16-C , 17-C ) :   0.3100
B( 16-C , 29-O ) :   1.2254 B( 16-C , 30-O ) :   0.4741 B( 17-C , 18-C ) :   1.2554
B( 17-C , 19-H ) :  -1.0502 B( 17-C , 20-C ) :   0.1150 B( 17-C , 29-O ) :   0.3116
B( 17-C , 30-O ) :   0.1801 B( 17-C , 31-C ) :  -0.1168 B( 17-C , 32-C ) :   0.2662
B( 17-C , 33-C ) :   0.4814 B( 17-C , 36-C ) :   0.2827 B( 17-C , 37-H ) :  -0.3164
B( 17-C , 40-H ) :   0.1447 B( 18-C , 19-H ) :   2.8532 B( 18-C , 20-C ) :  -0.3290
B( 18-C , 22-H ) :  -0.1245 B( 18-C , 29-O ) :   0.1143 B( 18-C , 31-C ) :   0.6919
B( 18-C , 32-C ) :  -0.1962 B( 18-C , 35-H ) :  -0.1448 B( 18-C , 37-H ) :   0.1303
B( 19-H , 29-O ) :   0.2609 B( 19-H , 31-C ) :   0.2995 B( 19-H , 32-C ) :  -0.1381
B( 20-C , 21-H ) :   0.9681 B( 20-C , 22-H ) :   0.9652 B( 20-C , 23-C ) :   0.2575
B( 20-C , 26-C ) :   1.0703 B( 23-C , 24-H ) :   0.9759 B( 23-C , 25-H ) :   0.9189
B( 23-C , 26-C ) :   0.9561 B( 26-C , 27-H ) :   1.1114 B( 26-C , 28-H ) :   0.8383
B( 29-O , 30-O ) :  -0.1539 B( 29-O , 31-C ) :  -0.1452 B( 31-C , 32-C ) :   0.3553
B( 31-C , 33-C ) :  -0.4275 B( 31-C , 35-H ) :  -0.5125 B( 31-C , 36-C ) :  -0.1873
B( 31-C , 37-H ) :  -0.3456 B( 32-C , 33-C ) :  -0.6957 B( 32-C , 34-C ) :   1.3448
B( 32-C , 35-H ) :   2.0714 B( 32-C , 37-H ) :   0.1805 B( 32-C , 38-C ) :  -0.2608
B( 33-C , 34-C ) :   0.2274 B( 33-C , 35-H ) :   0.2521 B( 33-C , 36-C ) :   1.2770
B( 33-C , 37-H ) :   1.7317 B( 33-C , 38-C ) :  -0.1571 B( 33-C , 40-H ) :  -0.1282
B( 33-C , 41-H ) :   0.1766 B( 34-C , 36-C ) :   0.2619 B( 34-C , 38-C ) :   1.1545
B( 34-C , 39-H ) :   0.6422 B( 34-C , 41-H ) :  -0.2400 B( 35-H , 37-H ) :   0.1951
B( 35-H , 38-C ) :  -0.1226 B( 36-C , 37-H ) :  -0.1124 B( 36-C , 38-C ) :   1.1561
B( 36-C , 40-H ) :   0.6821 B( 36-C , 41-H ) :  -0.2358 B( 38-C , 41-H ) :   0.7953

MP2 TOTAL ENERGY:    -1068.851248847 Eh
FINAL SINGLE POINT ENERGY     -1068.851248846539

DIPOLE MOMENT
-------------
                                X             Y             Z
Electronic contribution:      2.05725       0.33118      14.22862
Nuclear contribution   :     -2.00528       0.25253     -15.94593
                        -----------------------------------------
Total Dipole Moment    :      0.05198       0.58371      -1.71731
                        -----------------------------------------
Magnitude (a.u.)       :      1.81454
Magnitude (Debye)      :      4.61221

Rotational constants in cm-1:     0.011494     0.005660     0.004966
Rotational constants in MHz :   344.592092   169.673446   148.862213

                             ****ORCA TERMINATED NORMALLY****
TOTAL RUN TIME: 0 days 1 hours 45 minutes 40 seconds 513 msec
