                         Program Version 4.2.1 -  RELEASE  -
|  1> %pal
|  2>  nprocs 32
|  3> end
|  4> !RI-MP2 aug-cc-pVTZ aug-cc-pVTZ/C TightSCF
|  5> %maxcore 4500
|  6> *xyzfile 0 1  07_4R1.xyz
|  7>
|  8>
|  9>                          ****END OF INPUT****

CARTESIAN COORDINATES (ANGSTROEM)
---------------------------------
  C     -0.001119    0.941797    0.196925
  C     -1.212366    0.128355    0.049226
  C     -2.203545   -0.530409   -0.073518
  O      1.129230    0.394968   -0.438797
  C      1.570184   -0.816660    0.135794
  H     -3.083619   -1.116160   -0.184632
  H     -0.163424    1.920049   -0.257266
  H      2.465452   -1.115294   -0.406258
  H      1.818668   -0.681565    1.196397
  H      0.812801   -1.602074    0.044875
  H      0.197363    1.096801    1.266702

 Total Charge           Charge          ....    0
 Multiplicity           Mult            ....    1
 Number of Electrons    NEL             ....   38
 Basis Dimension        Dim             ....  368

ORBITAL ENERGIES
----------------

  NO   OCC          E(Eh)            E(eV)
   0   2.0000     -20.568186      -559.6888
   1   2.0000     -11.307812      -307.7012
   2   2.0000     -11.272256      -306.7337
   3   2.0000     -11.237036      -305.7753
   4   2.0000     -11.229832      -305.5793
   5   2.0000      -1.388400       -37.7803
   6   2.0000      -1.057091       -28.7649
   7   2.0000      -0.977520       -26.5997
   8   2.0000      -0.894639       -24.3444
   9   2.0000      -0.733758       -19.9666
  10   2.0000      -0.679727       -18.4963
  11   2.0000      -0.671688       -18.2776
  12   2.0000      -0.663828       -18.0637
  13   2.0000      -0.583781       -15.8855
  14   2.0000      -0.550193       -14.9715
  15   2.0000      -0.499028       -13.5792
  16   2.0000      -0.443268       -12.0619
  17   2.0000      -0.404185       -10.9984
  18   2.0000      -0.394249       -10.7281
  19   0.0000       0.029260         0.7962
  20   0.0000       0.033760         0.9187
  21   0.0000       0.040742         1.1087
  22   0.0000       0.045051         1.2259
  23   0.0000       0.059182         1.6104

MULLIKEN ATOMIC CHARGES
-----------------------
   0 C :   -0.175754
   1 C :    0.885036
   2 C :   -1.580439
   3 O :   -0.539354
   4 C :   -0.828662
   5 H :    0.487857
   6 H :    0.402780
   7 H :    0.336814
   8 H :    0.330285
   9 H :    0.377357
  10 H :    0.304081
Sum of atomic charges:    0.0000000

LOEWDIN ATOMIC CHARGES
----------------------
   0 C :   -0.060845
   1 C :    0.007356
   2 C :    0.394308
   3 O :    0.538633
   4 C :    0.312118
   5 H :   -0.297322
   6 H :   -0.174974
   7 H :   -0.184879
   8 H :   -0.175934
   9 H :   -0.188784
  10 H :   -0.169677

  Mayer bond orders larger than 0.100000
B(  0-C ,  1-C ) :   1.0298 B(  0-C ,  3-O ) :   0.8815 B(  0-C ,  6-H ) :   0.8646
B(  0-C , 10-H ) :   0.9351 B(  1-C ,  2-C ) :   0.7704 B(  1-C ,  5-H ) :  -0.1116
B(  2-C ,  5-H ) :   0.9342 B(  3-O ,  4-C ) :   0.9276 B(  4-C ,  7-H ) :   0.9430
B(  4-C ,  8-H ) :   0.8839 B(  4-C ,  9-H ) :   0.8446

MP2 TOTAL ENERGY:     -230.723220704 Eh
FINAL SINGLE POINT ENERGY      -230.723220703528

DIPOLE MOMENT
-------------
                                X             Y             Z
Electronic contribution:     -2.21237       1.30483      -1.23683
Nuclear contribution   :      2.10263      -1.51917       1.68299
                        -----------------------------------------
Total Dipole Moment    :     -0.10974      -0.21435       0.44616
                        -----------------------------------------
Magnitude (a.u.)       :      0.50700
Magnitude (Debye)      :      1.28869

Rotational constants in cm-1:     0.398668     0.110265     0.093162
Rotational constants in MHz : 11951.775844  3305.668046  2792.913669

                             ****ORCA TERMINATED NORMALLY****
TOTAL RUN TIME: 0 days 0 hours 0 minutes 43 seconds 39 msec
