                         Program Version 4.2.1 -  RELEASE  -
|  1> %pal
|  2>  nprocs 32
|  3> end
|  4> !RI-MP2 aug-cc-pVTZ aug-cc-pVTZ/C TightSCF
|  5> %maxcore 4500
|  6> *xyzfile 0 1  09_11TS.xyz
|  7>
|  8>
|  9>                          ****END OF INPUT****

CARTESIAN COORDINATES (ANGSTROEM)
---------------------------------
  C      2.125135   -1.201140   -0.341756
  C      3.494051   -1.078406   -0.504822
  C      4.147442    0.108811   -0.195138
  C      3.400263    1.176367    0.287996
  C      2.030891    1.066754    0.459071
  C      1.359790   -0.131266    0.155183
  H      1.629528   -2.130260   -0.595756
  H      4.059069   -1.923097   -0.882963
  H      5.217985    0.200384   -0.328732
  H      3.890938    2.110823    0.536611
  H      1.462509    1.908601    0.836001
  C     -0.046535   -0.242487    0.309781
  C     -1.031175   -0.505460    1.050668
  H     -1.300891   -0.832118    2.044045
  H     -2.499376   -1.116678   -1.167100
  P     -2.718841   -0.236339   -0.095830
  C     -2.521448    1.407239   -0.846308
  H     -2.906663    2.163456   -0.160402
  H     -1.456481    1.570534   -1.007331
  H     -3.050408    1.480584   -1.796247
  C     -4.544770   -0.377997    0.168234
  H     -4.786757   -1.377865    0.529154
  H     -4.856428    0.344439    0.923963
  H     -5.102273   -0.188207   -0.751251

 Total Charge           Charge          ....    0
 Multiplicity           Mult            ....    1
 Number of Electrons    NEL             ....   88
 Basis Dimension        Dim             ....  809

ORBITAL ENERGIES
----------------

  NO   OCC          E(Eh)            E(eV)
   0   2.0000     -79.996033     -2176.8027
   1   2.0000     -11.257481      -306.3316
   2   2.0000     -11.241880      -305.9071
   3   2.0000     -11.241059      -305.8848
   4   2.0000     -11.236025      -305.7478
   5   2.0000     -11.211674      -305.0852
   6   2.0000     -11.211439      -305.0788
   7   2.0000     -11.200617      -304.7843
   8   2.0000     -11.200082      -304.7697
   9   2.0000     -11.196014      -304.6590
  10   2.0000     -11.181859      -304.2738
  11   2.0000      -7.534430      -205.0223
  12   2.0000      -5.429154      -147.7348
  13   2.0000      -5.428617      -147.7202
  14   2.0000      -5.427937      -147.7017
  15   2.0000      -1.131553       -30.7911
  16   2.0000      -1.053855       -28.6769
  17   2.0000      -1.028100       -27.9760
  18   2.0000      -0.988988       -26.9117
  19   2.0000      -0.974385       -26.5144
  20   2.0000      -0.963035       -26.2055
  21   2.0000      -0.828305       -22.5393
  22   2.0000      -0.799016       -21.7423
  23   2.0000      -0.784945       -21.3594
  24   2.0000      -0.716387       -19.4939
  25   2.0000      -0.670272       -18.2390
  26   2.0000      -0.628026       -17.0895
  27   2.0000      -0.624015       -16.9803
  28   2.0000      -0.613839       -16.7034
  29   2.0000      -0.600473       -16.3397
  30   2.0000      -0.588300       -16.0084
  31   2.0000      -0.582315       -15.8456
  32   2.0000      -0.573777       -15.6133
  33   2.0000      -0.559318       -15.2198
  34   2.0000      -0.524020       -14.2593
  35   2.0000      -0.508227       -13.8296
  36   2.0000      -0.495179       -13.4745
  37   2.0000      -0.484165       -13.1748
  38   2.0000      -0.467649       -12.7254
  39   2.0000      -0.462987       -12.5985
  40   2.0000      -0.368825       -10.0362
  41   2.0000      -0.348012        -9.4699
  42   2.0000      -0.316080        -8.6010
  43   2.0000      -0.221669        -6.0319
  44   0.0000       0.017183         0.4676
  45   0.0000       0.030075         0.8184
  46   0.0000       0.031076         0.8456
  47   0.0000       0.035590         0.9684
  48   0.0000       0.042367         1.1529

MULLIKEN ATOMIC CHARGES
-----------------------
   0 C :   -1.186463
   1 C :   -0.413358
   2 C :   -0.041589
   3 C :   -0.608854
   4 C :   -1.089945
   5 C :    1.582162
   6 H :   -0.200022
   7 H :    0.486292
   8 H :    0.384589
   9 H :    0.505951
  10 H :   -0.217838
  11 C :    0.724521
  12 C :   -0.832765
  13 H :    0.301436
  14 H :    0.015967
  15 P :    1.064521
  16 C :   -0.947374
  17 H :    0.293003
  18 H :    0.416542
  19 H :    0.256440
  20 C :   -1.344108
  21 H :    0.266520
  22 H :    0.280273
  23 H :    0.304100
Sum of atomic charges:   -0.0000000

LOEWDIN ATOMIC CHARGES
----------------------
   0 C :    0.185767
   1 C :    0.169426
   2 C :    0.171154
   3 C :    0.169079
   4 C :    0.184218
   5 C :   -0.229769
   6 H :   -0.188586
   7 H :   -0.185448
   8 H :   -0.199657
   9 H :   -0.185704
  10 H :   -0.189242
  11 C :   -0.023667
  12 C :    0.095831
  13 H :   -0.284824
  14 H :   -0.197995
  15 P :    1.103785
  16 C :    0.475082
  17 H :   -0.213657
  18 H :   -0.243297
  19 H :   -0.215258
  20 C :    0.484749
  21 H :   -0.232294
  22 H :   -0.228943
  23 H :   -0.220750

  Mayer bond orders larger than 0.100000
B(  0-C ,  1-C ) :   1.1562 B(  0-C ,  2-C ) :  -0.3116 B(  0-C ,  3-C ) :   0.1408
B(  0-C ,  4-C ) :  -0.1756 B(  0-C ,  5-C ) :   0.5446 B(  0-C ,  6-H ) :   2.0101
B(  0-C ,  8-H ) :   0.1017 B(  0-C , 10-H ) :   0.4339 B(  0-C , 11-C ) :   0.1252
B(  0-C , 12-C ) :  -0.1233 B(  1-C ,  2-C ) :   1.0242 B(  1-C ,  3-C ) :   0.1218
B(  1-C ,  4-C ) :   0.1226 B(  1-C ,  5-C ) :   0.3296 B(  1-C ,  6-H ) :  -0.2007
B(  1-C ,  7-H ) :   0.7962 B(  1-C ,  8-H ) :  -0.2265 B(  1-C , 12-C ) :  -0.1387
B(  2-C ,  3-C ) :   1.0693 B(  2-C ,  4-C ) :  -0.3005 B(  2-C ,  8-H ) :   0.9332
B(  2-C , 11-C ) :   0.1861 B(  2-C , 12-C ) :   0.1923 B(  3-C ,  4-C ) :   1.3215
B(  3-C ,  5-C ) :   0.3157 B(  3-C ,  8-H ) :  -0.2258 B(  3-C ,  9-H ) :   0.7141
B(  3-C , 10-H ) :  -0.1291 B(  3-C , 12-C ) :  -0.1992 B(  4-C ,  5-C ) :   0.5934
B(  4-C ,  6-H ) :   0.4559 B(  4-C , 10-H ) :   2.0863 B(  4-C , 12-C ) :  -0.1328
B(  5-C ,  6-H ) :  -0.2404 B(  5-C , 10-H ) :  -0.2747 B(  5-C , 11-C ) :   0.6003
B(  5-C , 12-C ) :   0.5193 B(  5-C , 15-P ) :   0.1462 B(  6-H , 10-H ) :   0.3383
B(  6-H , 11-C ) :  -0.4296 B(  6-H , 12-C ) :  -0.1869 B(  7-H , 11-C ) :   0.1161
B(  8-H , 12-C ) :   0.1359 B(  9-H , 11-C ) :   0.2021 B( 10-H , 11-C ) :  -0.4574
B( 10-H , 12-C ) :  -0.1590 B( 11-C , 12-C ) :   1.7115 B( 12-C , 13-H ) :   1.0422
B( 12-C , 15-P ) :   0.9198 B( 14-H , 15-P ) :   0.9740 B( 15-P , 16-C ) :   1.0044
B( 15-P , 20-C ) :   0.6019 B( 16-C , 17-H ) :   0.9142 B( 16-C , 18-H ) :   0.8080
B( 16-C , 19-H ) :   0.9617 B( 20-C , 21-H ) :   0.9994 B( 20-C , 22-H ) :   0.9566
B( 20-C , 23-H ) :   0.8942

MP2 TOTAL ENERGY:     -728.813744456 Eh
FINAL SINGLE POINT ENERGY      -728.813744455741

DIPOLE MOMENT
-------------
                                X             Y             Z
Electronic contribution:      4.56476      -2.33393       1.64948
Nuclear contribution   :     -7.15677       2.45174      -1.74014
                        -----------------------------------------
Total Dipole Moment    :     -2.59201       0.11781      -0.09066
                        -----------------------------------------
Magnitude (a.u.)       :      2.59627
Magnitude (Debye)      :      6.59918

Rotational constants in cm-1:     0.099724     0.012080     0.011451
Rotational constants in MHz :  2989.640426   362.146699   343.292793

                             ****ORCA TERMINATED NORMALLY****
TOTAL RUN TIME: 0 days 0 hours 9 minutes 13 seconds 859 msec
