                         Program Version 4.2.1 -  RELEASE  -
|  1> %pal
|  2>  nprocs 32
|  3> end
|  4> !RI-MP2 aug-cc-pVTZ aug-cc-pVTZ/C TightSCF
|  5> %maxcore 4500
|  6> *xyzfile 0 1  09_12P.xyz
|  7>
|  8>
|  9>                          ****END OF INPUT****

CARTESIAN COORDINATES (ANGSTROEM)
---------------------------------
  C     -0.130998   -1.832230   -0.336168
  C      0.990238   -1.085813   -0.845927
  H      0.009853   -2.167562    0.689975
  H      1.060735   -0.828566   -1.894854
  H     -0.431079   -2.659142   -0.979103
  S      1.690127    0.048209    0.193063
  O      1.427588    1.446350   -0.238849
  O      1.311694   -0.290458    1.579958
  C      3.454961   -0.154658    0.082005
  C      4.239444    0.798143   -0.385226
  H      3.787887   -1.124638    0.429091
  H      5.312022    0.658156   -0.448716
  H      3.815687    1.741064   -0.709680
  C     -2.741483   -1.441233    0.078435
  C     -1.514732    0.331877   -0.286613
  C     -3.554357   -0.359449    0.183055
  H     -2.956623   -2.489885    0.192405
  H     -4.606221   -0.277714    0.397124
  N     -1.481151   -0.985919   -0.218873
  N     -2.764284    0.747189   -0.048330
  C     -3.193082    2.137824   -0.013339
  H     -3.618849    2.369559    0.962117
  H     -2.324803    2.771245   -0.180061
  H     -3.931072    2.323653   -0.793116
  H     -0.655739    0.969678   -0.469975

 Total Charge           Charge          ....    0
 Multiplicity           Mult            ....    1
 Number of Electrons    NEL             ....  106
 Basis Dimension        Dim             ....  878

ORBITAL ENERGIES
----------------

  NO   OCC          E(Eh)            E(eV)
   0   2.0000     -92.124207     -2506.8271
   1   2.0000     -20.488585      -557.5227
   2   2.0000     -20.488097      -557.5095
   3   2.0000     -15.672689      -426.4755
   4   2.0000     -15.643764      -425.6885
   5   2.0000     -11.347749      -308.7879
   6   2.0000     -11.311436      -307.7998
   7   2.0000     -11.306456      -307.6643
   8   2.0000     -11.302312      -307.5515
   9   2.0000     -11.279662      -306.9352
  10   2.0000     -11.232712      -305.6576
  11   2.0000     -11.224399      -305.4314
  12   2.0000     -11.158164      -303.6291
  13   2.0000      -9.093025      -247.4338
  14   2.0000      -6.777825      -184.4340
  15   2.0000      -6.777467      -184.4242
  16   2.0000      -6.776948      -184.4101
  17   2.0000      -1.415095       -38.5067
  18   2.0000      -1.381532       -37.5934
  19   2.0000      -1.269620       -34.5481
  20   2.0000      -1.262605       -34.3572
  21   2.0000      -1.085462       -29.5369
  22   2.0000      -1.051520       -28.6133
  23   2.0000      -1.035178       -28.1686
  24   2.0000      -1.005097       -27.3501
  25   2.0000      -0.914789       -24.8927
  26   2.0000      -0.866224       -23.5711
  27   2.0000      -0.846982       -23.0475
  28   2.0000      -0.801425       -21.8079
  29   2.0000      -0.764443       -20.8016
  30   2.0000      -0.716216       -19.4892
  31   2.0000      -0.699272       -19.0282
  32   2.0000      -0.666345       -18.1322
  33   2.0000      -0.661748       -18.0071
  34   2.0000      -0.649205       -17.6658
  35   2.0000      -0.638719       -17.3804
  36   2.0000      -0.634534       -17.2666
  37   2.0000      -0.618649       -16.8343
  38   2.0000      -0.610983       -16.6257
  39   2.0000      -0.599610       -16.3162
  40   2.0000      -0.590583       -16.0706
  41   2.0000      -0.577950       -15.7268
  42   2.0000      -0.554265       -15.0823
  43   2.0000      -0.527113       -14.3435
  44   2.0000      -0.517723       -14.0880
  45   2.0000      -0.451506       -12.2861
  46   2.0000      -0.443850       -12.0778
  47   2.0000      -0.442126       -12.0309
  48   2.0000      -0.417701       -11.3662
  49   2.0000      -0.398904       -10.8547
  50   2.0000      -0.377782       -10.2800
  51   2.0000      -0.374443       -10.1891
  52   2.0000      -0.275362        -7.4930
  53   0.0000       0.012683         0.3451
  54   0.0000       0.024905         0.6777
  55   0.0000       0.030926         0.8415
  56   0.0000       0.036051         0.9810
  57   0.0000       0.041934         1.1411

MULLIKEN ATOMIC CHARGES
-----------------------
   0 C :   -0.083479
   1 C :   -1.234470
   2 H :    0.310925
   3 H :    0.240106
   4 H :    0.321421
   5 S :    2.632007
   6 O :   -1.128727
   7 O :   -1.139692
   8 C :   -0.546877
   9 C :   -1.111050
  10 H :    0.376156
  11 H :    0.475467
  12 H :    0.354831
  13 C :   -0.671520
  14 C :   -0.626613
  15 C :   -0.540732
  16 H :    0.573241
  17 H :    0.635777
  18 N :    0.347443
  19 N :   -0.227426
  20 C :   -1.107840
  21 H :    0.323663
  22 H :    0.410973
  23 H :    0.318967
  24 H :    1.097447
Sum of atomic charges:   -0.0000000

LOEWDIN ATOMIC CHARGES
----------------------
   0 C :    0.130877
   1 C :   -0.010935
   2 H :   -0.195800
   3 H :   -0.279512
   4 H :   -0.166874
   5 S :    0.146993
   6 O :    0.036916
   7 O :    0.022012
   8 C :    0.053624
   9 C :    0.464529
  10 H :   -0.234870
  11 H :   -0.224670
  12 H :   -0.251431
  13 C :    0.159925
  14 C :    0.083884
  15 C :    0.172348
  16 H :   -0.155657
  17 H :   -0.158355
  18 N :    0.293534
  19 N :    0.227932
  20 C :    0.564977
  21 H :   -0.148303
  22 H :   -0.152740
  23 H :   -0.149599
  24 H :   -0.228806

  Mayer bond orders larger than 0.100000
B(  0-C ,  1-C ) :   0.9440 B(  0-C ,  2-H ) :   0.9147 B(  0-C ,  4-H ) :   0.9336
B(  0-C ,  5-S ) :   0.1235 B(  0-C , 13-C ) :  -0.1322 B(  0-C , 18-N ) :   0.6399
B(  1-C ,  3-H ) :   0.9585 B(  1-C ,  5-S ) :   1.1943 B(  1-C ,  6-O ) :   0.1145
B(  1-C ,  7-O ) :   0.1537 B(  1-C , 18-N ) :  -0.1288 B(  5-S ,  6-O ) :   0.9253
B(  5-S ,  7-O ) :   0.8864 B(  5-S ,  8-C ) :   0.6968 B(  7-O ,  8-C ) :   0.1379
B(  8-C ,  9-C ) :   1.3825 B(  8-C , 10-H ) :   0.9130 B(  9-C , 11-H ) :   0.7377
B(  9-C , 12-H ) :   0.9263 B( 13-C , 14-C ) :  -0.1395 B( 13-C , 15-C ) :   1.3810
B( 13-C , 16-H ) :   0.7959 B( 13-C , 18-N ) :   1.0697 B( 13-C , 19-N ) :  -0.1812
B( 14-C , 15-C ) :  -0.1922 B( 14-C , 18-N ) :   1.1089 B( 14-C , 19-N ) :   1.1721
B( 15-C , 17-H ) :   0.6206 B( 15-C , 18-N ) :  -0.2727 B( 15-C , 19-N ) :   1.3491
B( 18-N , 19-N ) :  -0.3061 B( 19-N , 20-C ) :   1.0996 B( 19-N , 24-H ) :  -0.1867
B( 20-C , 21-H ) :   0.9405 B( 20-C , 22-H ) :   0.8394 B( 20-C , 23-H ) :   0.9426

MP2 TOTAL ENERGY:     -968.579023499 Eh
FINAL SINGLE POINT ENERGY      -968.579023498602

DIPOLE MOMENT
-------------
                                X             Y             Z
Electronic contribution:      1.23183      -1.28305       2.00868
Nuclear contribution   :     -4.54514       1.29351      -2.77473
                        -----------------------------------------
Total Dipole Moment    :     -3.31331       0.01047      -0.76604
                        -----------------------------------------
Magnitude (a.u.)       :      3.40073
Magnitude (Debye)      :      8.64396

Rotational constants in cm-1:     0.054605     0.013590     0.011860
Rotational constants in MHz :  1637.010669   407.409959   355.566705

                             ****ORCA TERMINATED NORMALLY****
TOTAL RUN TIME: 0 days 0 hours 12 minutes 21 seconds 468 msec
