                         Program Version 4.2.1 -  RELEASE  -
|  1> %pal
|  2>  nprocs 32
|  3> end
|  4> !RI-MP2 aug-cc-pVTZ aug-cc-pVTZ/C TightSCF
|  5> %maxcore 4500
|  6> *xyzfile 0 1  02_41R1.xyz
|  7>
|  8>
|  9>                          ****END OF INPUT****

CARTESIAN COORDINATES (ANGSTROEM)
---------------------------------
  C     -0.586851    0.482373    0.008587
  C     -2.031675    0.040354    0.029500
  C      0.386380   -0.455972   -0.096901
  C      1.811071   -0.265894    0.126618
  O      2.506954   -1.335870   -0.320412
  O      2.354719    0.661894    0.684079
  O     -2.944358    0.826465    0.094266
  O     -2.196618   -1.275252   -0.016265
  C     -3.552884   -1.736141    0.002904
  C      3.911360   -1.304970   -0.074359
  H     -4.045330   -1.416728    0.920634
  H     -3.491338   -2.819456   -0.044743
  H     -4.097631   -1.341474   -0.854143
  H      4.301097   -2.235853   -0.478613
  H      4.112789   -1.238048    0.995155
  H      4.370893   -0.450996   -0.572836
  N     -0.500313    1.826366    0.082448
  H     -1.402776    2.274149    0.153324
  C      0.605991    2.634224   -0.390996
  H      0.235399    3.644056   -0.562654
  H      1.428972    2.654544    0.319712
  H      0.988592    2.234848   -1.335446
  H      0.075596   -1.471348   -0.282989

 Total Charge           Charge          ....    0
 Multiplicity           Mult            ....    1
 Number of Electrons    NEL             ....   92
 Basis Dimension        Dim             ....  805

ORBITAL ENERGIES
----------------

  NO   OCC          E(Eh)            E(eV)
   0   2.0000     -20.622635      -561.1704
   1   2.0000     -20.592559      -560.3520
   2   2.0000     -20.566358      -559.6390
   3   2.0000     -20.529399      -558.6333
   4   2.0000     -15.585531      -424.1039
   5   2.0000     -11.402140      -310.2680
   6   2.0000     -11.371774      -309.4417
   7   2.0000     -11.317681      -307.9697
   8   2.0000     -11.298814      -307.4563
   9   2.0000     -11.276806      -306.8575
  10   2.0000     -11.252845      -306.2055
  11   2.0000     -11.226619      -305.4918
  12   2.0000      -1.488817       -40.5128
  13   2.0000      -1.451206       -39.4893
  14   2.0000      -1.385099       -37.6905
  15   2.0000      -1.347361       -36.6636
  16   2.0000      -1.262387       -34.3513
  17   2.0000      -1.075507       -29.2660
  18   2.0000      -1.004921       -27.3453
  19   2.0000      -0.972963       -26.4757
  20   2.0000      -0.940298       -25.5868
  21   2.0000      -0.859457       -23.3870
  22   2.0000      -0.795253       -21.6399
  23   2.0000      -0.765753       -20.8372
  24   2.0000      -0.752378       -20.4732
  25   2.0000      -0.715618       -19.4729
  26   2.0000      -0.693330       -18.8665
  27   2.0000      -0.680809       -18.5257
  28   2.0000      -0.675291       -18.3756
  29   2.0000      -0.663442       -18.0532
  30   2.0000      -0.642808       -17.4917
  31   2.0000      -0.616617       -16.7790
  32   2.0000      -0.600827       -16.3493
  33   2.0000      -0.585742       -15.9389
  34   2.0000      -0.576779       -15.6950
  35   2.0000      -0.568506       -15.4698
  36   2.0000      -0.555677       -15.1207
  37   2.0000      -0.542787       -14.7700
  38   2.0000      -0.531972       -14.4757
  39   2.0000      -0.521218       -14.1831
  40   2.0000      -0.484308       -13.1787
  41   2.0000      -0.481816       -13.1109
  42   2.0000      -0.466347       -12.6900
  43   2.0000      -0.451714       -12.2918
  44   2.0000      -0.438852       -11.9418
  45   2.0000      -0.326839        -8.8937
  46   0.0000       0.026135         0.7112
  47   0.0000       0.032230         0.8770
  48   0.0000       0.035045         0.9536
  49   0.0000       0.042859         1.1663
  50   0.0000       0.045914         1.2494

MULLIKEN ATOMIC CHARGES
-----------------------
   0 C :    1.516437
   1 C :    0.710329
   2 C :   -0.460958
   3 C :    0.508846
   4 O :   -0.415159
   5 O :   -0.849641
   6 O :   -0.932581
   7 O :   -0.382613
   8 C :   -0.838344
   9 C :   -0.835193
  10 H :    0.374712
  11 H :    0.350558
  12 H :    0.379386
  13 H :    0.349934
  14 H :    0.382221
  15 H :    0.363932
  16 N :   -0.498961
  17 H :    0.156357
  18 C :   -1.006588
  19 H :    0.337677
  20 H :    0.455334
  21 H :    0.316818
  22 H :    0.017499
Sum of atomic charges:   -0.0000000

LOEWDIN ATOMIC CHARGES
----------------------
   0 C :   -0.208836
   1 C :   -0.794137
   2 C :    0.204135
   3 C :   -0.850335
   4 O :    0.557385
   5 O :    0.483821
   6 O :    0.507255
   7 O :    0.579241
   8 C :    0.377091
   9 C :    0.341714
  10 H :   -0.176081
  11 H :   -0.180451
  12 H :   -0.176281
  13 H :   -0.188084
  14 H :   -0.182326
  15 H :   -0.182092
  16 N :    0.545933
  17 H :   -0.355227
  18 C :    0.499886
  19 H :   -0.162187
  20 H :   -0.230321
  21 H :   -0.159619
  22 H :   -0.250482

  Mayer bond orders larger than 0.100000
B(  0-C ,  1-C ) :   0.3748 B(  0-C ,  2-C ) :   0.7036 B(  0-C ,  3-C ) :   0.1542
B(  0-C ,  7-O ) :   0.1439 B(  0-C , 16-N ) :   0.7272 B(  0-C , 18-C ) :  -0.1171
B(  0-C , 22-H ) :  -0.4730 B(  1-C ,  2-C ) :   0.2754 B(  1-C ,  6-O ) :   1.1375
B(  1-C ,  7-O ) :   0.9520 B(  2-C ,  3-C ) :   0.4059 B(  2-C ,  4-O ) :  -0.1855
B(  2-C ,  7-O ) :  -0.1301 B(  2-C , 22-H ) :   1.6999 B(  3-C ,  4-O ) :   1.0938
B(  3-C ,  5-O ) :   1.4769 B(  4-O ,  9-C ) :   0.8685 B(  7-O ,  8-C ) :   0.8703
B(  8-C , 10-H ) :   0.8736 B(  8-C , 11-H ) :   0.9071 B(  8-C , 12-H ) :   0.8685
B(  9-C , 13-H ) :   0.9006 B(  9-C , 14-H ) :   0.8720 B(  9-C , 15-H ) :   0.8777
B( 16-N , 17-H ) :   0.9756 B( 16-N , 18-C ) :   1.0018 B( 16-N , 22-H ) :   0.1337
B( 18-C , 19-H ) :   0.9336 B( 18-C , 20-H ) :   0.8161 B( 18-C , 21-H ) :   0.9088

MP2 TOTAL ENERGY:     -627.942762400 Eh
FINAL SINGLE POINT ENERGY      -627.942762400445

DIPOLE MOMENT
-------------
                                X             Y             Z
Electronic contribution:     -2.90469      -0.37952       1.27184
Nuclear contribution   :      2.46343      -0.17290      -1.73129
                        -----------------------------------------
Total Dipole Moment    :     -0.44126      -0.55242      -0.45945
                        -----------------------------------------
Magnitude (a.u.)       :      0.84319
Magnitude (Debye)      :      2.14323

Rotational constants in cm-1:     0.050487     0.017448     0.013315
Rotational constants in MHz :  1513.573866   523.074224   399.177475

                             ****ORCA TERMINATED NORMALLY****
TOTAL RUN TIME: 0 days 0 hours 8 minutes 31 seconds 374 msec
