                         Program Version 4.2.1 -  RELEASE  -
|  1> %pal
|  2>  nprocs 32
|  3> end
|  4> !RI-MP2 aug-cc-pVTZ aug-cc-pVTZ/C TightSCF
|  5> %maxcore 4500
|  6> *xyzfile 1 1  10_26TS.xyz
|  7>
|  8>
|  9>                          ****END OF INPUT****

CARTESIAN COORDINATES (ANGSTROEM)
---------------------------------
  C     -1.416855   -2.887951   -0.685524
  C     -0.818048   -1.920952    0.350022
  C     -2.882714   -1.153226    0.118947
  C     -2.862878   -2.340045   -0.859377
  H     -0.841815   -2.889728   -1.609929
  H     -1.413789   -3.902250   -0.285949
  H     -3.080480   -2.026439   -1.881201
  H     -3.616257   -3.075754   -0.577731
  C     -2.009815   -1.653992    1.272087
  H     -1.820354   -0.907665    2.042112
  H     -2.396719   -2.564333    1.725694
  H      0.127831   -2.216387    0.784489
  H     -3.857012   -0.735590    0.358949
  N     -1.993449   -0.085525   -0.407493
  N     -0.713786   -0.614703   -0.342601
  C      0.300603    0.262623   -0.438086
  C      1.699176   -0.146099   -0.198958
  C      2.130106   -0.670702    1.020828
  C      2.624670    0.044113   -1.223683
  C      3.456340   -1.024538    1.198233
  H      1.437923   -0.777049    1.847454
  C      3.951766   -0.317508   -1.046700
  H      2.303696    0.468819   -2.167925
  C      4.367591   -0.854549    0.162368
  H      3.784810   -1.423674    2.149463
  H      4.661098   -0.173845   -1.851676
  H      5.404877   -1.130365    0.304627
  H      0.177128    0.964504   -1.255551
  H     -2.230384    0.237114   -1.343260
  C     -1.546924    1.827548    0.863138
  H     -2.197898    1.356082    1.584877
  C     -0.164977    1.761803    0.903652
  H      0.342843    1.322378    1.753067
  C      0.407926    2.983155    0.197655
  H      0.641160    3.752271    0.938684
  H      1.333796    2.778649   -0.344550
  C     -2.017206    2.974712    0.019115
  H     -2.383248    3.756346    0.695837
  C     -0.745462    3.434074   -0.716583
  H     -0.735455    4.505383   -0.909466
  H     -0.676952    2.942269   -1.691009
  H     -2.853953    2.730076   -0.639148

 Total Charge           Charge          ....    1
 Multiplicity           Mult            ....    1
 Number of Electrons    NEL             ....  138
 Basis Dimension        Dim             .... 1403

ORBITAL ENERGIES
----------------

  NO   OCC          E(Eh)            E(eV)
   0   2.0000     -15.768477      -429.0821
   1   2.0000     -15.757565      -428.7852
   2   2.0000     -11.463736      -311.9441
   3   2.0000     -11.410020      -310.4824
   4   2.0000     -11.409270      -310.4620
   5   2.0000     -11.406089      -310.3755
   6   2.0000     -11.373834      -309.4978
   7   2.0000     -11.362621      -309.1926
   8   2.0000     -11.362202      -309.1812
   9   2.0000     -11.361605      -309.1650
  10   2.0000     -11.356111      -309.0155
  11   2.0000     -11.352659      -308.9215
  12   2.0000     -11.352133      -308.9073
  13   2.0000     -11.351736      -308.8964
  14   2.0000     -11.350320      -308.8579
  15   2.0000     -11.350039      -308.8503
  16   2.0000     -11.348297      -308.8029
  17   2.0000     -11.343885      -308.6828
  18   2.0000     -11.342970      -308.6579
  19   2.0000      -1.516776       -41.2736
  20   2.0000      -1.310585       -35.6628
  21   2.0000      -1.274229       -34.6735
  22   2.0000      -1.268003       -34.5041
  23   2.0000      -1.248295       -33.9678
  24   2.0000      -1.165625       -31.7183
  25   2.0000      -1.140303       -31.0292
  26   2.0000      -1.112680       -30.2776
  27   2.0000      -1.103330       -30.0231
  28   2.0000      -1.095035       -29.7974
  29   2.0000      -1.080385       -29.3988
  30   2.0000      -1.005570       -27.3630
  31   2.0000      -0.966488       -26.2995
  32   2.0000      -0.953527       -25.9468
  33   2.0000      -0.923582       -25.1319
  34   2.0000      -0.916355       -24.9353
  35   2.0000      -0.904997       -24.6262
  36   2.0000      -0.881687       -23.9919
  37   2.0000      -0.858667       -23.3655
  38   2.0000      -0.836596       -22.7649
  39   2.0000      -0.817000       -22.2317
  40   2.0000      -0.805088       -21.9075
  41   2.0000      -0.797032       -21.6884
  42   2.0000      -0.783264       -21.3137
  43   2.0000      -0.763276       -20.7698
  44   2.0000      -0.754996       -20.5445
  45   2.0000      -0.739462       -20.1218
  46   2.0000      -0.721540       -19.6341
  47   2.0000      -0.710559       -19.3353
  48   2.0000      -0.700644       -19.0655
  49   2.0000      -0.692598       -18.8466
  50   2.0000      -0.681260       -18.5380
  51   2.0000      -0.669428       -18.2161
  52   2.0000      -0.663745       -18.0614
  53   2.0000      -0.655635       -17.8407
  54   2.0000      -0.641670       -17.4607
  55   2.0000      -0.635824       -17.3016
  56   2.0000      -0.632028       -17.1984
  57   2.0000      -0.623685       -16.9713
  58   2.0000      -0.622472       -16.9383
  59   2.0000      -0.616717       -16.7817
  60   2.0000      -0.612891       -16.6776
  61   2.0000      -0.607848       -16.5404
  62   2.0000      -0.602563       -16.3966
  63   2.0000      -0.599358       -16.3094
  64   2.0000      -0.591438       -16.0938
  65   2.0000      -0.519722       -14.1424
  66   2.0000      -0.461873       -12.5682
  67   2.0000      -0.457225       -12.4417
  68   2.0000      -0.450070       -12.2470
  69   0.0000      -0.071541        -1.9467
  70   0.0000      -0.063015        -1.7147
  71   0.0000      -0.056300        -1.5320
  72   0.0000      -0.050675        -1.3789
  73   0.0000      -0.047297        -1.2870

MULLIKEN ATOMIC CHARGES
-----------------------
   0 C :   -0.906936
   1 C :   -0.406860
   2 C :   -0.340245
   3 C :   -0.614389
   4 H :    0.312906
   5 H :    0.236974
   6 H :    0.264670
   7 H :    0.278312
   8 C :   -0.673479
   9 H :    0.123172
  10 H :    0.385274
  11 H :    0.603070
  12 H :    0.567098
  13 N :   -0.240232
  14 N :    0.207192
  15 C :    1.113616
  16 C :    2.288097
  17 C :   -0.694457
  18 C :   -1.059899
  19 C :   -1.227305
  20 H :   -0.115871
  21 C :   -0.706685
  22 H :   -0.399519
  23 C :    0.049612
  24 H :    0.375151
  25 H :    0.652544
  26 H :    0.638121
  27 H :    0.358591
  28 H :   -0.254228
  29 C :   -0.542893
  30 H :    0.622711
  31 C :   -0.178802
  32 H :    0.420860
  33 C :   -0.610095
  34 H :    0.317503
  35 H :    0.271384
  36 C :   -0.671610
  37 H :    0.178734
  38 C :   -0.518260
  39 H :    0.412100
  40 H :    0.140030
  41 H :    0.344046
Sum of atomic charges:    1.0000000

LOEWDIN ATOMIC CHARGES
----------------------
   0 C :    0.370778
   1 C :   -0.010526
   2 C :   -0.026626
   3 C :    0.367046
   4 H :   -0.131539
   5 H :   -0.128034
   6 H :   -0.134811
   7 H :   -0.130006
   8 C :    0.364177
   9 H :   -0.132257
  10 H :   -0.112200
  11 H :   -0.138947
  12 H :   -0.098349
  13 N :    0.523332
  14 N :    0.228572
  15 C :    0.083776
  16 C :   -0.096855
  17 C :    0.215011
  18 C :    0.237937
  19 C :    0.236978
  20 H :   -0.171112
  21 C :    0.233886
  22 H :   -0.160509
  23 C :    0.232065
  24 H :   -0.168513
  25 H :   -0.168736
  26 H :   -0.164988
  27 H :   -0.176722
  28 H :   -0.228337
  29 C :    0.252107
  30 H :   -0.141643
  31 C :    0.172285
  32 H :   -0.161646
  33 C :    0.309798
  34 H :   -0.127467
  35 H :   -0.142140
  36 C :    0.332431
  37 H :   -0.124604
  38 C :    0.327031
  39 H :   -0.129518
  40 H :   -0.145886
  41 H :   -0.135237

  Mayer bond orders larger than 0.100000
B(  0-C ,  1-C ) :   0.9515 B(  0-C ,  3-C ) :   1.2035 B(  0-C ,  4-H ) :   0.9530
B(  0-C ,  5-H ) :   1.0342 B(  0-C ,  8-C ) :   0.1222 B(  0-C , 11-H ) :  -0.1193
B(  0-C , 14-N ) :  -0.2081 B(  0-C , 15-C ) :  -0.1114 B(  1-C ,  2-C ) :  -0.1344
B(  1-C ,  8-C ) :   0.9255 B(  1-C , 11-H ) :   0.5693 B(  1-C , 14-N ) :   1.2051
B(  1-C , 15-C ) :  -0.1139 B(  1-C , 16-C ) :  -0.1588 B(  2-C ,  3-C ) :   0.9620
B(  2-C ,  8-C ) :   1.0668 B(  2-C , 12-H ) :   0.6285 B(  2-C , 13-N ) :   1.2861
B(  2-C , 14-N ) :  -0.2652 B(  3-C ,  6-H ) :   0.9582 B(  3-C ,  7-H ) :   0.9539
B(  8-C ,  9-H ) :   1.1259 B(  8-C , 10-H ) :   0.8721 B(  8-C , 14-N ) :  -0.2001
B( 13-N , 14-N ) :   0.4808 B( 13-N , 28-H ) :   1.0195 B( 13-N , 31-C ) :   0.1434
B( 14-N , 15-C ) :   1.1594 B( 14-N , 16-C ) :  -0.1238 B( 14-N , 20-H ) :   0.1159
B( 14-N , 22-H ) :   0.1373 B( 14-N , 27-H ) :   0.1966 B( 15-C , 16-C ) :   0.1956
B( 15-C , 17-C ) :  -0.3007 B( 15-C , 18-C ) :   0.3893 B( 15-C , 19-C ) :   0.1562
B( 15-C , 20-H ) :  -0.6625 B( 15-C , 21-C ) :   0.3503 B( 15-C , 22-H ) :  -0.7005
B( 15-C , 23-C ) :   0.1597 B( 15-C , 26-H ) :   0.2836 B( 15-C , 27-H ) :   0.7776
B( 15-C , 28-H ) :   0.1122 B( 15-C , 31-C ) :   0.3203 B( 16-C , 17-C ) :   0.9060
B( 16-C , 18-C ) :  -0.1049 B( 16-C , 19-C ) :  -0.2750 B( 16-C , 22-H ) :  -0.7001
B( 16-C , 23-C ) :   0.1685 B( 16-C , 24-H ) :  -0.1261 B( 16-C , 27-H ) :  -0.1012
B( 17-C , 18-C ) :  -0.7177 B( 17-C , 19-C ) :   1.5927 B( 17-C , 20-H ) :   1.8502
B( 17-C , 22-H ) :   0.4342 B( 17-C , 23-C ) :  -0.1570 B( 17-C , 26-H ) :  -0.1212
B( 18-C , 19-C ) :   0.2672 B( 18-C , 20-H ) :   0.1325 B( 18-C , 21-C ) :   1.3525
B( 18-C , 22-H ) :   2.6571 B( 18-C , 23-C ) :  -0.2487 B( 18-C , 25-H ) :  -0.1032
B( 18-C , 26-H ) :   0.1128 B( 19-C , 21-C ) :   0.2840 B( 19-C , 23-C ) :   1.1111
B( 19-C , 24-H ) :   0.8698 B( 19-C , 26-H ) :  -0.2863 B( 20-H , 22-H ) :   0.3290
B( 20-H , 23-C ) :  -0.1856 B( 21-C , 22-H ) :  -0.1111 B( 21-C , 23-C ) :   1.0752
B( 21-C , 25-H ) :   0.4477 B( 21-C , 26-H ) :  -0.2672 B( 22-H , 23-C ) :  -0.1251
B( 22-H , 27-H ) :  -0.1120 B( 23-C , 24-H ) :   0.1007 B( 23-C , 26-H ) :   0.5318
B( 29-C , 30-H ) :   0.5371 B( 29-C , 31-C ) :   1.5096 B( 29-C , 32-H ) :  -0.1301
B( 29-C , 36-C ) :   0.8589 B( 31-C , 32-H ) :   0.8347 B( 31-C , 33-C ) :   0.7874
B( 33-C , 34-H ) :   0.9163 B( 33-C , 35-H ) :   0.9963 B( 33-C , 36-C ) :   0.1218
B( 33-C , 38-C ) :   0.9725 B( 36-C , 37-H ) :   1.0441 B( 36-C , 38-C ) :   0.9827
B( 36-C , 41-H ) :   0.8918 B( 38-C , 39-H ) :   0.8142 B( 38-C , 40-H ) :   1.1270

MP2 TOTAL ENERGY:     -769.259099227 Eh
FINAL SINGLE POINT ENERGY      -769.259099226684

DIPOLE MOMENT
-------------
                                X             Y             Z
Electronic contribution:      6.94229      -3.08712       0.35104
Nuclear contribution   :     -8.08046       3.05298      -0.38490
                        -----------------------------------------
Total Dipole Moment    :     -1.13817      -0.03415      -0.03386
                        -----------------------------------------
Magnitude (a.u.)       :      1.13919
Magnitude (Debye)      :      2.89558

Rotational constants in cm-1:     0.016329     0.011345     0.007771
Rotational constants in MHz :   489.523288   340.125148   232.978755

                             ****ORCA TERMINATED NORMALLY****
TOTAL RUN TIME: 0 days 1 hours 17 minutes 1 seconds 813 msec
