                         Program Version 4.2.1 -  RELEASE  -
|  1> %pal
|  2>  nprocs 32
|  3> end
|  4> !RI-MP2 aug-cc-pVTZ aug-cc-pVTZ/C TightSCF
|  5> %maxcore 4500
|  6> *xyzfile -1 1  09_23R.xyz
|  7>
|  8>
|  9>                          ****END OF INPUT****

CARTESIAN COORDINATES (ANGSTROEM)
---------------------------------
  C     -3.069069   -0.268812    1.508698
  C     -2.389259   -0.128914    0.140921
  H     -2.334265   -0.381078    2.311353
  H     -3.734752   -1.139683    1.534584
  H     -3.665460    0.621383    1.729786
  C     -3.466550   -0.104715   -0.945521
  H     -3.996497   -1.064214   -1.003612
  H     -3.009745    0.127686   -1.908200
  H     -4.201899    0.678623   -0.735640
  C     -1.573452    1.185239    0.112550
  C     -0.790398    1.441945   -1.167056
  H     -0.961849    1.153759    1.038888
  H     -2.293758    1.998796    0.312320
  C      0.463570    2.300905   -0.989357
  C      1.547321    1.634718   -0.144294
  H      0.211794    3.275520   -0.544197
  H      0.893886    2.515694   -1.975753
  C      1.588391    1.970216    1.321539
  H      1.500286    3.052109    1.462928
  H      2.512044    1.635129    1.802974
  H      0.745493    1.520665    1.854945
  C      2.341299    0.693809   -0.668862
  C      3.148950   -0.328843    0.089227
  C      2.275024   -1.335471    0.895078
  H      3.850038    0.138520    0.792380
  H      3.768516   -0.886559   -0.620169
  C      1.012838   -1.723430    0.167206
  H      1.997285   -0.878215    1.847462
  H      2.884178   -2.219955    1.128464
  C     -0.175352   -1.327938    0.619506
  C      1.210979   -2.428420   -1.145930
  H      1.929062   -3.248946   -1.036659
  H      1.614098   -1.742412   -1.897464
  H      0.282633   -2.842358   -1.537193
  C     -1.492122   -1.375244   -0.100498
  H     -2.068751   -2.262974    0.199004
  H     -1.315189   -1.466768   -1.172230
  H     -0.454166    0.484783   -1.583453
  H      2.239405    0.515855   -1.737525
  H     -0.185406   -0.815630    1.577771

 Total Charge           Charge          ....   -1
 Multiplicity           Mult            ....    1
 Number of Electrons    NEL             ....  116
 Basis Dimension        Dim             .... 1265

ORBITAL ENERGIES
----------------

  NO   OCC          E(Eh)            E(eV)
   0   2.0000     -11.106142      -302.2135
   1   2.0000     -11.104375      -302.1654
   2   2.0000     -11.102832      -302.1234
   3   2.0000     -11.099813      -302.0413
   4   2.0000     -11.088092      -301.7223
   5   2.0000     -11.087726      -301.7124
   6   2.0000     -11.087058      -301.6942
   7   2.0000     -11.084890      -301.6352
   8   2.0000     -11.084312      -301.6195
   9   2.0000     -11.081208      -301.5350
  10   2.0000     -11.067215      -301.1542
  11   2.0000     -11.060553      -300.9729
  12   2.0000     -11.043229      -300.5015
  13   2.0000     -11.039964      -300.4127
  14   2.0000     -10.957900      -298.1796
  15   2.0000      -0.994513       -27.0621
  16   2.0000      -0.964273       -26.2392
  17   2.0000      -0.944086       -25.6899
  18   2.0000      -0.883808       -24.0496
  19   2.0000      -0.839179       -22.8352
  20   2.0000      -0.818864       -22.2824
  21   2.0000      -0.806520       -21.9465
  22   2.0000      -0.795489       -21.6464
  23   2.0000      -0.770527       -20.9671
  24   2.0000      -0.741891       -20.1879
  25   2.0000      -0.696723       -18.9588
  26   2.0000      -0.607523       -16.5315
  27   2.0000      -0.593067       -16.1382
  28   2.0000      -0.563207       -15.3256
  29   2.0000      -0.547865       -14.9082
  30   2.0000      -0.519081       -14.1249
  31   2.0000      -0.498162       -13.5557
  32   2.0000      -0.483351       -13.1527
  33   2.0000      -0.476262       -12.9597
  34   2.0000      -0.463522       -12.6131
  35   2.0000      -0.458847       -12.4859
  36   2.0000      -0.442575       -12.0431
  37   2.0000      -0.440153       -11.9772
  38   2.0000      -0.424760       -11.5583
  39   2.0000      -0.420954       -11.4547
  40   2.0000      -0.414059       -11.2671
  41   2.0000      -0.411472       -11.1967
  42   2.0000      -0.394689       -10.7400
  43   2.0000      -0.390358       -10.6222
  44   2.0000      -0.381128       -10.3710
  45   2.0000      -0.367103        -9.9894
  46   2.0000      -0.358976        -9.7682
  47   2.0000      -0.348365        -9.4795
  48   2.0000      -0.338173        -9.2022
  49   2.0000      -0.335659        -9.1337
  50   2.0000      -0.325091        -8.8462
  51   2.0000      -0.310339        -8.4448
  52   2.0000      -0.299210        -8.1419
  53   2.0000      -0.270202        -7.3526
  54   2.0000      -0.254112        -6.9147
  55   2.0000      -0.206937        -5.6311
  56   2.0000      -0.180111        -4.9011
  57   2.0000      -0.039114        -1.0643
  58   0.0000       0.096271         2.6197
  59   0.0000       0.102175         2.7803
  60   0.0000       0.102894         2.7999
  61   0.0000       0.110362         3.0031
  62   0.0000       0.111686         3.0391

MULLIKEN ATOMIC CHARGES
-----------------------
   0 C :   -1.833446
   1 C :    2.733618
   2 H :    0.266936
   3 H :    0.196680
   4 H :    0.146819
   5 C :   -1.786456
   6 H :    0.130866
   7 H :    0.206638
   8 H :    0.202332
   9 C :   -0.451313
  10 C :   -1.802714
  11 H :    0.441013
  12 H :    0.388567
  13 C :   -0.341088
  14 C :    0.622483
  15 H :    0.091414
  16 H :    0.340541
  17 C :   -1.105660
  18 H :    0.340654
  19 H :    0.123738
  20 H :    0.219132
  21 C :   -0.686477
  22 C :   -0.131100
  23 C :   -0.572540
  24 H :    0.383969
  25 H :    0.180809
  26 C :    1.348009
  27 H :   -0.041565
  28 H :    0.464674
  29 C :   -0.649173
  30 C :   -1.357767
  31 H :    0.169703
  32 H :    0.293820
  33 H :    0.209694
  34 C :   -0.395168
  35 H :    0.522250
  36 H :    0.074363
  37 H :    0.207714
  38 H :    0.226369
  39 H :   -0.378338
Sum of atomic charges:   -1.0000000

LOEWDIN ATOMIC CHARGES
----------------------
   0 C :    0.562934
   1 C :   -0.343264
   2 H :   -0.168586
   3 H :   -0.165283
   4 H :   -0.163596
   5 C :    0.559531
   6 H :   -0.165204
   7 H :   -0.184605
   8 H :   -0.160797
   9 C :    0.165481
  10 C :    0.190608
  11 H :   -0.224239
  12 H :   -0.162086
  13 C :    0.152643
  14 C :   -0.097630
  15 H :   -0.182054
  16 H :   -0.190400
  17 C :    0.570219
  18 H :   -0.165856
  19 H :   -0.186904
  20 H :   -0.197138
  21 C :    0.206399
  22 C :    0.252595
  23 C :    0.269836
  24 H :   -0.166578
  25 H :   -0.164702
  26 C :   -0.091055
  27 H :   -0.173286
  28 H :   -0.148535
  29 C :    0.249730
  30 C :    0.576609
  31 H :   -0.166123
  32 H :   -0.171263
  33 H :   -0.182805
  34 C :    0.276643
  35 H :   -0.140355
  36 H :   -0.184367
  37 H :   -0.298298
  38 H :   -0.192677
  39 H :   -0.195542

  Mayer bond orders larger than 0.100000
B(  0-C ,  1-C ) :  -0.4103 B(  0-C ,  2-H ) :   1.1487 B(  0-C ,  3-H ) :   1.1660
B(  0-C ,  4-H ) :   1.3228 B(  0-C ,  5-C ) :   0.2153 B(  0-C , 11-H ) :  -0.1040
B(  1-C ,  2-H ) :  -0.2094 B(  1-C ,  3-H ) :  -0.1906 B(  1-C ,  4-H ) :  -0.2877
B(  1-C ,  5-C ) :  -0.4669 B(  1-C ,  6-H ) :  -0.2806 B(  1-C ,  7-H ) :  -0.1576
B(  1-C ,  8-H ) :  -0.2188 B(  1-C ,  9-C ) :   0.7534 B(  1-C , 11-H ) :  -0.1022
B(  1-C , 34-C ) :   0.6590 B(  5-C ,  6-H ) :   1.2940 B(  5-C ,  7-H ) :   1.0928
B(  5-C ,  8-H ) :   1.2094 B(  5-C , 10-C ) :   0.1625 B(  7-H , 10-C ) :   0.2112
B(  9-C , 10-C ) :  -0.1603 B(  9-C , 11-H ) :   0.9268 B(  9-C , 12-H ) :   0.9223
B(  9-C , 26-C ) :   0.1226 B(  9-C , 34-C ) :   0.1976 B( 10-C , 11-H ) :   0.1206
B( 10-C , 12-H ) :  -0.2283 B( 10-C , 13-C ) :   0.2554 B( 10-C , 14-C ) :   0.4135
B( 10-C , 16-H ) :  -0.2087 B( 10-C , 21-C ) :   0.1274 B( 10-C , 34-C ) :  -0.1801
B( 10-C , 36-H ) :  -0.1743 B( 10-C , 37-H ) :   1.0215 B( 13-C , 14-C ) :   0.9030
B( 13-C , 15-H ) :   1.1279 B( 13-C , 16-H ) :   1.0369 B( 13-C , 38-H ) :  -0.1001
B( 14-C , 17-C ) :   0.4715 B( 14-C , 18-H ) :  -0.2291 B( 14-C , 21-C ) :   1.1832
B( 14-C , 37-H ) :   0.1003 B( 14-C , 38-H ) :  -0.1539 B( 17-C , 18-H ) :   0.9490
B( 17-C , 19-H ) :   1.1160 B( 17-C , 20-H ) :   1.1859 B( 17-C , 38-H ) :   0.1023
B( 21-C , 22-C ) :   0.7847 B( 21-C , 23-C ) :   0.1032 B( 21-C , 24-H ) :  -0.1011
B( 21-C , 26-C ) :  -0.1192 B( 21-C , 38-H ) :   1.0161 B( 22-C , 23-C ) :   0.9054
B( 22-C , 24-H ) :   0.9126 B( 22-C , 25-H ) :   0.9983 B( 23-C , 26-C ) :   0.5834
B( 23-C , 27-H ) :   1.3016 B( 23-C , 28-H ) :   0.8411 B( 23-C , 39-H ) :  -0.1177
B( 26-C , 28-H ) :  -0.1748 B( 26-C , 29-C ) :   1.4080 B( 26-C , 30-C ) :   0.7253
B( 26-C , 31-H ) :  -0.1129 B( 26-C , 34-C ) :   0.3042 B( 26-C , 35-H ) :   0.2129
B( 26-C , 37-H ) :  -0.1251 B( 26-C , 39-H ) :  -0.5197 B( 29-C , 30-C ) :  -0.2953
B( 29-C , 34-C ) :   0.3332 B( 29-C , 35-H ) :  -0.4053 B( 29-C , 36-H ) :   0.1989
B( 29-C , 39-H ) :   2.3560 B( 30-C , 31-H ) :   1.1817 B( 30-C , 32-H ) :   1.0693
B( 30-C , 33-H ) :   1.0889 B( 30-C , 34-C ) :  -0.1754 B( 30-C , 35-H ) :  -0.1287
B( 34-C , 35-H ) :   0.9023 B( 34-C , 36-H ) :   1.3163 B( 34-C , 39-H ) :  -0.1424
B( 35-H , 39-H ) :  -0.1181

MP2 TOTAL ENERGY:     -585.274107164 Eh
FINAL SINGLE POINT ENERGY      -585.274107164307

DIPOLE MOMENT
-------------
                                X             Y             Z
Electronic contribution:      5.12688      -0.71675      -0.24748
Nuclear contribution   :     -3.98904      -1.29385       1.93589
                        -----------------------------------------
Total Dipole Moment    :      1.13784      -2.01060       1.68841
                        -----------------------------------------
Magnitude (a.u.)       :      2.86146
Magnitude (Debye)      :      7.27324

Rotational constants in cm-1:     0.027278     0.015950     0.012743
Rotational constants in MHz :   817.776594   478.165331   382.038462

                             ****ORCA TERMINATED NORMALLY****
TOTAL RUN TIME: 0 days 0 hours 51 minutes 0 seconds 23 msec
