                         Program Version 4.2.1 -  RELEASE  -
|  1> %pal
|  2>  nprocs 32
|  3> end
|  4> !RI-MP2 aug-cc-pVTZ aug-cc-pVTZ/C TightSCF
|  5> %maxcore 4500
|  6> *xyzfile 0 1  10_35R.xyz
|  7>
|  8>
|  9>                          ****END OF INPUT****

CARTESIAN COORDINATES (ANGSTROEM)
---------------------------------
  C      0.636850    2.024164    0.385433
  H      0.290265    2.681676    1.202133
  C      1.687984    1.074888    0.921817
  C      0.199714   -0.896730    0.491913
  H     -0.009775   -1.483906   -0.404276
  H      0.144653   -1.575337    1.348693
  C     -0.877918    0.191884    0.631835
  H     -0.908206    0.526646    1.685824
  N     -0.473045    1.306391   -0.219397
  C      2.605469   -0.997446   -0.123067
  C      2.582181    1.464780    1.825205
  C      3.969530   -0.541231   -0.331377
  C      4.946434   -1.324664   -0.789950
  C      1.589314   -0.303993    0.404952
  C      6.351847   -0.882096   -1.039161
  H      7.061117   -1.460716   -0.439421
  H      6.632215   -1.029392   -2.086658
  H      6.484915    0.173989   -0.797664
  C     -1.550282    2.196941   -0.598114
  H     -2.042408    2.639301    0.287827
  H     -1.122706    3.021138   -1.173987
  C     -2.250535   -0.351404    0.297408
  C     -3.047284    0.219705   -0.693095
  C     -2.566354    1.439985   -1.431327
  H     -2.098666    1.146016   -2.375927
  H     -3.414316    2.085407   -1.673545
  H      1.085475    2.663140   -0.381659
  C     -4.296036   -0.334944   -0.968510
  H     -4.913351    0.117277   -1.737610
  C     -2.732333   -1.451594    1.006717
  H     -2.126213   -1.886303    1.793444
  C     -4.759541   -1.438254   -0.273865
  H     -5.733401   -1.854913   -0.500947
  C     -3.972910   -1.996800    0.726347
  H     -4.328395   -2.851916    1.288434
  H      3.322873    0.780126    2.217317
  H      2.589100    2.479821    2.207987
  H      2.392801   -2.006740   -0.470428
  H      4.186834    0.499124   -0.110253
  H      4.721724   -2.368316   -1.002489

 Total Charge           Charge          ....    0
 Multiplicity           Mult            ....    1
 Number of Electrons    NEL             ....  136
 Basis Dimension        Dim             .... 1357

ORBITAL ENERGIES
----------------

  NO   OCC          E(Eh)            E(eV)
   0   2.0000     -15.548158      -423.0869
   1   2.0000     -11.262009      -306.4548
   2   2.0000     -11.255259      -306.2712
   3   2.0000     -11.250477      -306.1410
   4   2.0000     -11.240238      -305.8624
   5   2.0000     -11.235648      -305.7375
   6   2.0000     -11.234393      -305.7034
   7   2.0000     -11.233295      -305.6735
   8   2.0000     -11.229548      -305.5715
   9   2.0000     -11.228821      -305.5518
  10   2.0000     -11.227870      -305.5259
  11   2.0000     -11.227126      -305.5056
  12   2.0000     -11.225062      -305.4495
  13   2.0000     -11.224788      -305.4420
  14   2.0000     -11.223630      -305.4105
  15   2.0000     -11.221343      -305.3483
  16   2.0000     -11.218811      -305.2794
  17   2.0000     -11.218138      -305.2611
  18   2.0000     -11.217476      -305.2430
  19   2.0000      -1.255214       -34.1561
  20   2.0000      -1.157432       -31.4953
  21   2.0000      -1.122722       -30.5508
  22   2.0000      -1.076952       -29.3054
  23   2.0000      -1.062519       -28.9126
  24   2.0000      -1.053520       -28.6677
  25   2.0000      -1.015849       -27.6427
  26   2.0000      -0.996555       -27.1176
  27   2.0000      -0.963948       -26.2304
  28   2.0000      -0.928833       -25.2748
  29   2.0000      -0.899279       -24.4706
  30   2.0000      -0.857876       -23.3440
  31   2.0000      -0.834501       -22.7079
  32   2.0000      -0.812281       -22.1033
  33   2.0000      -0.806333       -21.9414
  34   2.0000      -0.756007       -20.5720
  35   2.0000      -0.748048       -20.3554
  36   2.0000      -0.693716       -18.8770
  37   2.0000      -0.693190       -18.8627
  38   2.0000      -0.667351       -18.1595
  39   2.0000      -0.657586       -17.8938
  40   2.0000      -0.644439       -17.5361
  41   2.0000      -0.629756       -17.1365
  42   2.0000      -0.621724       -16.9180
  43   2.0000      -0.607242       -16.5239
  44   2.0000      -0.597484       -16.2584
  45   2.0000      -0.593843       -16.1593
  46   2.0000      -0.582422       -15.8485
  47   2.0000      -0.565227       -15.3806
  48   2.0000      -0.563870       -15.3437
  49   2.0000      -0.555004       -15.1024
  50   2.0000      -0.554630       -15.0922
  51   2.0000      -0.542483       -14.7617
  52   2.0000      -0.530117       -14.4252
  53   2.0000      -0.524105       -14.2616
  54   2.0000      -0.523480       -14.2446
  55   2.0000      -0.517931       -14.0936
  56   2.0000      -0.507157       -13.8005
  57   2.0000      -0.491102       -13.3636
  58   2.0000      -0.477451       -12.9921
  59   2.0000      -0.466762       -12.7012
  60   2.0000      -0.458604       -12.4792
  61   2.0000      -0.451701       -12.2914
  62   2.0000      -0.421249       -11.4628
  63   2.0000      -0.372746       -10.1429
  64   2.0000      -0.356545        -9.7021
  65   2.0000      -0.328286        -8.9331
  66   2.0000      -0.320702        -8.7267
  67   2.0000      -0.287508        -7.8235
  68   0.0000       0.026523         0.7217
  69   0.0000       0.028568         0.7774
  70   0.0000       0.029690         0.8079
  71   0.0000       0.032627         0.8878
  72   0.0000       0.037642         1.0243

MULLIKEN ATOMIC CHARGES
-----------------------
   0 C :   -0.599011
   1 H :    0.191210
   2 C :    1.034433
   3 C :   -0.719973
   4 H :    0.186513
   5 H :    0.142042
   6 C :    0.113042
   7 H :    0.244181
   8 N :   -0.361256
   9 C :   -0.894263
  10 C :   -2.025082
  11 C :    0.381820
  12 C :   -0.762102
  13 C :    1.583848
  14 C :   -0.818918
  15 H :    0.246151
  16 H :    0.258369
  17 H :    0.301875
  18 C :   -0.634267
  19 H :    0.263685
  20 H :    0.322303
  21 C :    1.389995
  22 C :    1.005528
  23 C :   -0.583186
  24 H :    0.229190
  25 H :    0.219658
  26 H :    0.391579
  27 C :   -1.037206
  28 H :    0.010351
  29 C :   -1.274933
  30 H :   -0.009327
  31 C :   -0.264200
  32 H :    0.641149
  33 C :   -0.530503
  34 H :    0.474907
  35 H :    0.382290
  36 H :    0.214356
  37 H :   -0.225971
  38 H :    0.193607
  39 H :    0.318113
Sum of atomic charges:    0.0000000

LOEWDIN ATOMIC CHARGES
----------------------
   0 C :    0.161804
   1 H :   -0.129540
   2 C :   -0.113120
   3 C :    0.307329
   4 H :   -0.135767
   5 H :   -0.138452
   6 C :   -0.114152
   7 H :   -0.108517
   8 N :    0.309142
   9 C :    0.220073
  10 C :    0.556737
  11 C :    0.185146
  12 C :    0.206601
  13 C :   -0.072831
  14 C :    0.549079
  15 H :   -0.177652
  16 H :   -0.177399
  17 H :   -0.182564
  18 C :    0.165658
  19 H :   -0.114987
  20 H :   -0.135202
  21 C :   -0.049813
  22 C :   -0.068355
  23 C :    0.301382
  24 H :   -0.130832
  25 H :   -0.143371
  26 H :   -0.130826
  27 C :    0.223099
  28 H :   -0.173145
  29 C :    0.225123
  30 H :   -0.174223
  31 C :    0.198940
  32 H :   -0.183283
  33 C :    0.203355
  34 H :   -0.182898
  35 H :   -0.206563
  36 H :   -0.202229
  37 H :   -0.178880
  38 H :   -0.204646
  39 H :   -0.184220

  Mayer bond orders larger than 0.100000
B(  0-C ,  1-H ) :   1.1642 B(  0-C ,  2-C ) :   0.8430 B(  0-C ,  3-C ) :   0.1406
B(  0-C ,  8-N ) :   0.8981 B(  0-C , 10-C ) :  -0.1756 B(  0-C , 26-H ) :   0.8949
B(  2-C , 10-C ) :   0.6894 B(  2-C , 11-C ) :  -0.1233 B(  2-C , 13-C ) :   0.8141
B(  2-C , 35-H ) :  -0.1311 B(  3-C ,  4-H ) :   1.1974 B(  3-C ,  5-H ) :   1.1070
B(  3-C ,  6-C ) :   0.7702 B(  3-C ,  8-N ) :   0.1942 B(  3-C ,  9-C ) :   0.2003
B(  3-C , 13-C ) :   0.2868 B(  3-C , 21-C ) :   0.1283 B(  4-H , 13-C ) :  -0.1164
B(  4-H , 29-C ) :  -0.1013 B(  6-C ,  7-H ) :   0.9400 B(  6-C ,  8-N ) :   0.6002
B(  6-C , 13-C ) :   0.1166 B(  6-C , 18-C ) :   0.1009 B(  6-C , 21-C ) :   0.7979
B(  6-C , 22-C ) :   0.3089 B(  6-C , 29-C ) :   0.6081 B(  7-H , 13-C ) :   0.1644
B(  8-N , 18-C ) :   0.8742 B(  8-N , 21-C ) :  -0.1358 B(  9-C , 10-C ) :   0.2019
B(  9-C , 11-C ) :   0.1226 B(  9-C , 12-C ) :   0.2240 B(  9-C , 13-C ) :   0.7364
B(  9-C , 37-H ) :   1.9553 B( 10-C , 13-C ) :  -0.5660 B( 10-C , 35-H ) :   1.0667
B( 10-C , 36-H ) :   1.1671 B( 11-C , 12-C ) :   0.3920 B( 11-C , 13-C ) :   0.2108
B( 11-C , 37-H ) :  -0.1211 B( 11-C , 38-H ) :   1.2498 B( 11-C , 39-H ) :  -0.1326
B( 12-C , 13-C ) :   0.1162 B( 12-C , 14-C ) :   0.6621 B( 12-C , 39-H ) :   1.0315
B( 13-C , 21-C ) :  -0.1966 B( 13-C , 37-H ) :  -0.4194 B( 14-C , 15-H ) :   1.0305
B( 14-C , 16-H ) :   1.0086 B( 14-C , 17-H ) :   0.9319 B( 18-C , 19-H ) :   1.0069
B( 18-C , 20-H ) :   0.9201 B( 18-C , 22-C ) :   0.1152 B( 18-C , 23-C ) :   1.0762
B( 21-C , 22-C ) :   0.7583 B( 21-C , 23-C ) :   0.2087 B( 21-C , 27-C ) :   0.3925
B( 21-C , 29-C ) :  -0.1467 B( 21-C , 30-H ) :  -0.1238 B( 21-C , 31-C ) :  -0.1652
B( 21-C , 32-H ) :   0.1057 B( 21-C , 34-H ) :  -0.1121 B( 22-C , 23-C ) :   0.1091
B( 22-C , 24-H ) :  -0.1279 B( 22-C , 27-C ) :   0.4964 B( 22-C , 29-C ) :  -0.3346
B( 22-C , 31-C ) :   0.3076 B( 22-C , 34-H ) :   0.1095 B( 23-C , 24-H ) :   1.0807
B( 23-C , 25-H ) :   1.0747 B( 23-C , 27-C ) :   0.2138 B( 27-C , 28-H ) :   1.6176
B( 27-C , 29-C ) :   0.1276 B( 27-C , 31-C ) :   0.9179 B( 27-C , 33-C ) :  -0.1251
B( 28-H , 31-C ) :  -0.1291 B( 29-C , 30-H ) :   1.6534 B( 29-C , 31-C ) :   0.1448
B( 29-C , 33-C ) :   1.3267 B( 31-C , 32-H ) :   0.4766 B( 31-C , 33-C ) :   1.0382
B( 33-C , 34-H ) :   0.7549 B( 37-H , 39-H ) :  -0.1094

MP2 TOTAL ENERGY:     -751.674173718 Eh
FINAL SINGLE POINT ENERGY      -751.674173718213

DIPOLE MOMENT
-------------
                                X             Y             Z
Electronic contribution:    -12.48117      -2.09211       1.18833
Nuclear contribution   :     12.40826       2.34086      -1.14258
                        -----------------------------------------
Total Dipole Moment    :     -0.07291       0.24875       0.04574
                        -----------------------------------------
Magnitude (a.u.)       :      0.26322
Magnitude (Debye)      :      0.66905

Rotational constants in cm-1:     0.027081     0.006104     0.005618
Rotational constants in MHz :   811.879579   182.996613   168.419453

                             ****ORCA TERMINATED NORMALLY****
TOTAL RUN TIME: 0 days 0 hours 45 minutes 53 seconds 631 msec
