                         Program Version 4.2.1 -  RELEASE  -
|  1> %pal
|  2>  nprocs 32
|  3> end
|  4> !RI-MP2 aug-cc-pVTZ aug-cc-pVTZ/C TightSCF
|  5> %maxcore 4500
|  6> *xyzfile 0 2  01_36P.xyz
|  7>
|  8>
|  9>                          ****END OF INPUT****

CARTESIAN COORDINATES (ANGSTROEM)
---------------------------------
  C      0.906243    0.057226   -0.171446
  C      1.392244   -0.786800   -1.365421
  C      2.934893   -0.659482   -1.365427
  H      0.943316   -0.462662   -2.306496
  H      1.094690   -1.825036   -1.206782
  C      3.294027    0.112872   -0.082823
  H      3.299740   -0.144603   -2.255595
  H      3.394247   -1.649227   -1.364750
  C      2.076857   -0.038486    0.836049
  H      3.441235    1.174877   -0.306060
  H      4.211375   -0.244931    0.386930
  C      2.002027    0.937753    1.947770
  H      1.439385    0.714200    2.844484
  H      2.421508    1.931589    1.837612
  C     -0.397525   -0.463854    0.406045
  O     -0.394403   -1.397423    1.195804
  N     -1.560380    0.117325    0.003323
  C     -1.676277    2.573408   -0.380309
  C     -1.660025    1.177566   -0.991417
  H     -0.746869    2.773378    0.156236
  H     -2.499862    2.678964    0.328609
  H     -1.797570    3.332804   -1.156259
  H     -0.848194    1.082973   -1.711148
  H     -2.579650    1.006889   -1.556776
  C     -3.373391   -1.560833   -0.225931
  C     -2.809804   -0.388007    0.565111
  H     -4.318445   -1.896422    0.207023
  H     -2.671243   -2.394804   -0.205809
  H     -3.558694   -1.286057   -1.267418
  H     -2.615136   -0.691625    1.592355
  H     -3.521908    0.440426    0.588470
  H      0.814849    1.102987   -0.470236
  H      2.039496   -1.053784    1.242715

 Total Charge           Charge          ....    0
 Multiplicity           Mult            ....    2
 Number of Electrons    NEL             ....  101
 Basis Dimension        Dim             .... 1058

ORBITAL ENERGIES
----------------
                 SPIN UP ORBITALS
  NO   OCC          E(Eh)            E(eV)
   0   1.0000     -20.501811      -557.8826
   1   1.0000     -15.576676      -423.8629
   2   1.0000     -11.333636      -308.4039
   3   1.0000     -11.271509      -306.7133
   4   1.0000     -11.254084      -306.2392
   5   1.0000     -11.233022      -305.6661
   6   1.0000     -11.225985      -305.4746
   7   1.0000     -11.224568      -305.4360
   8   1.0000     -11.223358      -305.4031
   9   1.0000     -11.220270      -305.3191
  10   1.0000     -11.218766      -305.2782
  11   1.0000     -11.216099      -305.2056
  12   1.0000     -11.211291      -305.0747
  13   1.0000      -1.371479       -37.3198
  14   1.0000      -1.242103       -33.7994
  15   1.0000      -1.137815       -30.9615
  16   1.0000      -1.041336       -28.3362
  17   1.0000      -1.015116       -27.6227
  18   1.0000      -1.011660       -27.5287
  19   1.0000      -0.976084       -26.5606
  20   1.0000      -0.898117       -24.4390
  21   1.0000      -0.874501       -23.7964
  22   1.0000      -0.862911       -23.4810
  23   1.0000      -0.790568       -21.5124
  24   1.0000      -0.770057       -20.9543
  25   1.0000      -0.720613       -19.6089
  26   1.0000      -0.703342       -19.1389
  27   1.0000      -0.666801       -18.1446
  28   1.0000      -0.636915       -17.3313
  29   1.0000      -0.630984       -17.1700
  30   1.0000      -0.608396       -16.5553
  31   1.0000      -0.602992       -16.4083
  32   1.0000      -0.601607       -16.3706
  33   1.0000      -0.592498       -16.1227
  34   1.0000      -0.572965       -15.5912
  35   1.0000      -0.555540       -15.1170
  36   1.0000      -0.550294       -14.9743
  37   1.0000      -0.533598       -14.5199
  38   1.0000      -0.528198       -14.3730
  39   1.0000      -0.518139       -14.0993
  40   1.0000      -0.505949       -13.7676
  41   1.0000      -0.495291       -13.4776
  42   1.0000      -0.490850       -13.3567
  43   1.0000      -0.484083       -13.1726
  44   1.0000      -0.479937       -13.0597
  45   1.0000      -0.472101       -12.8465
  46   1.0000      -0.459914       -12.5149
  47   1.0000      -0.453318       -12.3354
  48   1.0000      -0.406181       -11.0528
  49   1.0000      -0.365040        -9.9332
  50   1.0000      -0.341347        -9.2885
  51   0.0000       0.023676         0.6442
  52   0.0000       0.031025         0.8442
  53   0.0000       0.032095         0.8734
  54   0.0000       0.035270         0.9597
  55   0.0000       0.044105         1.2002

                 SPIN DOWN ORBITALS
  NO   OCC          E(Eh)            E(eV)
   0   1.0000     -20.501854      -557.8838
   1   1.0000     -15.576652      -423.8622
   2   1.0000     -11.333775      -308.4077
   3   1.0000     -11.271508      -306.7133
   4   1.0000     -11.254084      -306.2392
   5   1.0000     -11.230290      -305.5917
   6   1.0000     -11.225970      -305.4742
   7   1.0000     -11.224509      -305.4344
   8   1.0000     -11.223514      -305.4073
   9   1.0000     -11.218789      -305.2788
  10   1.0000     -11.215415      -305.1870
  11   1.0000     -11.211291      -305.0747
  12   1.0000     -11.200163      -304.7719
  13   1.0000      -1.371475       -37.3197
  14   1.0000      -1.242077       -33.7986
  15   1.0000      -1.132250       -30.8101
  16   1.0000      -1.041248       -28.3338
  17   1.0000      -1.011798       -27.5324
  18   1.0000      -0.989931       -26.9374
  19   1.0000      -0.973865       -26.5002
  20   1.0000      -0.877636       -23.8817
  21   1.0000      -0.872430       -23.7400
  22   1.0000      -0.839693       -22.8492
  23   1.0000      -0.787323       -21.4241
  24   1.0000      -0.758714       -20.6457
  25   1.0000      -0.718338       -19.5470
  26   1.0000      -0.702048       -19.1037
  27   1.0000      -0.665817       -18.1178
  28   1.0000      -0.633974       -17.2513
  29   1.0000      -0.629158       -17.1203
  30   1.0000      -0.607484       -16.5305
  31   1.0000      -0.602613       -16.3979
  32   1.0000      -0.595691       -16.2096
  33   1.0000      -0.591090       -16.0844
  34   1.0000      -0.571249       -15.5445
  35   1.0000      -0.550720       -14.9859
  36   1.0000      -0.546247       -14.8641
  37   1.0000      -0.532444       -14.4885
  38   1.0000      -0.527622       -14.3573
  39   1.0000      -0.516711       -14.0604
  40   1.0000      -0.504260       -13.7216
  41   1.0000      -0.493300       -13.4234
  42   1.0000      -0.486283       -13.2324
  43   1.0000      -0.478550       -13.0220
  44   1.0000      -0.472309       -12.8522
  45   1.0000      -0.460247       -12.5240
  46   1.0000      -0.457728       -12.4554
  47   1.0000      -0.451669       -12.2905
  48   1.0000      -0.405353       -11.0302
  49   1.0000      -0.365060        -9.9338
  50   0.0000       0.023728         0.6457
  51   0.0000       0.031008         0.8438
  52   0.0000       0.032295         0.8788
  53   0.0000       0.035136         0.9561
  54   0.0000       0.043962         1.1963

MULLIKEN ATOMIC CHARGES AND SPIN POPULATIONS
--------------------------------------------
   0 C :    1.550236    0.057091
   1 C :   -0.821267    0.005510
   2 C :   -0.662045   -0.003332
   3 H :    0.311557    0.004409
   4 H :    0.183178    0.000584
   5 C :   -0.687868    0.051318
   6 H :    0.301509    0.000847
   7 H :    0.204934   -0.000411
   8 C :    0.318226   -0.241526
   9 H :    0.083589    0.000814
  10 H :    0.368675   -0.005664
  11 C :   -1.400487    1.287721
  12 H :    0.352171   -0.066272
  13 H :    0.298207   -0.091028
  14 C :   -0.040526   -0.006138
  15 O :   -1.217504   -0.000443
  16 N :    0.795162   -0.009447
  17 C :   -0.950364   -0.000959
  18 C :   -0.689370    0.003871
  19 H :    0.379445   -0.003553
  20 H :    0.223400    0.000126
  21 H :    0.295654    0.000293
  22 H :    0.266253    0.001516
  23 H :    0.293801   -0.000443
  24 C :   -0.896654   -0.000021
  25 C :   -0.803942   -0.001354
  26 H :    0.321020   -0.000037
  27 H :    0.298821    0.000003
  28 H :    0.231320    0.000046
  29 H :    0.269462   -0.000530
  30 H :    0.224140    0.000245
  31 H :    0.346384    0.006065
  32 H :    0.252883    0.010700
Sum of atomic charges         :   -0.0000000

LOEWDIN ATOMIC CHARGES AND SPIN POPULATIONS
-------------------------------------------
   0 C :   -0.005090    0.038370
   1 C :    0.336742    0.006088
   2 C :    0.335883    0.001391
   3 H :   -0.140754    0.001547
   4 H :   -0.140761    0.000638
   5 C :    0.307219    0.012329
   6 H :   -0.147906    0.000374
   7 H :   -0.146549   -0.000035
   8 C :   -0.069080    0.116958
   9 H :   -0.145280    0.000080
  10 H :   -0.135349    0.001963
  11 C :    0.627081    0.556920
  12 H :   -0.210021    0.119353
  13 H :   -0.212384    0.120659
  14 C :   -0.632193    0.005776
  15 O :    0.492936   -0.000370
  16 N :    0.283917    0.000797
  17 C :    0.610759    0.000906
  18 C :    0.175718    0.000460
  19 H :   -0.168543    0.001082
  20 H :   -0.166568    0.000090
  21 H :   -0.163370    0.000087
  22 H :   -0.169439    0.000046
  23 H :   -0.141136    0.000007
  24 C :    0.599395   -0.000000
  25 C :    0.164500    0.000175
  26 H :   -0.167519   -0.000002
  27 H :   -0.168816    0.000001
  28 H :   -0.171066    0.000001
  29 H :   -0.165773    0.000036
  30 H :   -0.148831    0.000035
  31 H :   -0.168169    0.006625
  32 H :   -0.149558    0.007612

  Mayer bond orders larger than 0.100000
B(  0-C ,  1-C ) :   0.5015 B(  0-C ,  5-C ) :  -0.1583 B(  0-C ,  8-C ) :   0.6651
B(  0-C , 11-C ) :   0.3867 B(  0-C , 14-C ) :  -0.4396 B(  0-C , 15-O ) :  -0.4133
B(  0-C , 16-N ) :  -0.2261 B(  0-C , 22-H ) :  -0.1056 B(  0-C , 31-H ) :   1.0429
B(  1-C ,  2-C ) :   1.0788 B(  1-C ,  3-H ) :   0.8712 B(  1-C ,  4-H ) :   1.0966
B(  1-C ,  5-C ) :   0.1379 B(  1-C ,  8-C ) :   0.2317 B(  1-C , 14-C ) :   0.1350
B(  1-C , 15-O ) :   0.1225 B(  2-C ,  5-C ) :   1.0432 B(  2-C ,  6-H ) :   0.9159
B(  2-C ,  7-H ) :   1.0354 B(  5-C ,  8-C ) :   0.9092 B(  5-C ,  9-H ) :   1.1905
B(  5-C , 10-H ) :   0.8557 B(  8-C , 11-C ) :   0.2070 B(  8-C , 31-H ) :  -0.1127
B(  8-C , 32-H ) :   0.9945 B( 11-C , 12-H ) :   0.8943 B( 11-C , 13-H ) :   0.9968
B( 11-C , 14-C ) :  -0.1460 B( 14-C , 15-O ) :   0.9275 B( 14-C , 16-N ) :   1.1446
B( 14-C , 18-C ) :  -0.1094 B( 15-O , 16-N ) :  -0.1862 B( 16-N , 17-C ) :  -0.1253
B( 16-N , 18-C ) :   0.7753 B( 16-N , 24-C ) :  -0.1909 B( 16-N , 25-C ) :   0.7763
B( 17-C , 18-C ) :   0.8912 B( 17-C , 19-H ) :   0.9040 B( 17-C , 20-H ) :   1.0245
B( 17-C , 21-H ) :   0.9415 B( 18-C , 22-H ) :   1.0250 B( 18-C , 23-H ) :   0.9740
B( 24-C , 25-C ) :   0.9264 B( 24-C , 26-H ) :   0.9230 B( 24-C , 27-H ) :   0.9573
B( 24-C , 28-H ) :   0.9932 B( 25-C , 29-H ) :   0.9999 B( 25-C , 30-H ) :   1.0060

MP2 TOTAL ENERGY:     -560.004970868 Eh
FINAL SINGLE POINT ENERGY      -560.004970868388

DIPOLE MOMENT
-------------
                                X             Y             Z
Electronic contribution:      1.83441      -3.70673       3.76491
Nuclear contribution   :     -2.15725       4.75402      -4.79089
                        -----------------------------------------
Total Dipole Moment    :     -0.32284       1.04729      -1.02598
                        -----------------------------------------
Magnitude (a.u.)       :      1.50122
Magnitude (Debye)      :      3.81581

Rotational constants in cm-1:     0.040139     0.016409     0.015520
Rotational constants in MHz :  1203.346554   491.928483   465.276699

                             ****ORCA TERMINATED NORMALLY****
TOTAL RUN TIME: 0 days 0 hours 33 minutes 59 seconds 746 msec
