                         Program Version 4.2.1 -  RELEASE  -
|  1> %pal
|  2>  nprocs 32
|  3> end
|  4> !RI-MP2 aug-cc-pVTZ aug-cc-pVTZ/C TightSCF
|  5> %maxcore 4500
|  6> *xyzfile 0 1  03_39R1.xyz
|  7>
|  8>
|  9>                          ****END OF INPUT****

CARTESIAN COORDINATES (ANGSTROEM)
---------------------------------
  Cl    -2.942743   -0.637394   -1.173169
  C     -2.109930    0.134928    0.326376
  C     -0.678016   -0.266898    0.301291
  C      0.345174    0.563255    0.044190
  N      1.660215    0.224422   -0.013951
  H      0.160622    1.613931   -0.150875
  H     -0.490788   -1.319531    0.478628
  C     -2.826432   -0.456694    1.532607
  C      2.145471   -1.119694    0.246189
  H      1.736463   -1.509889    1.184978
  C      3.668119   -0.956820    0.303935
  H      1.830155   -1.799082   -0.554942
  H      3.986093   -0.803851    1.338244
  C      3.932465    0.311905   -0.512960
  H      4.195081   -1.830674   -0.078753
  C      2.736095    1.191769   -0.164360
  H      3.921413    0.082867   -1.581423
  H      4.886345    0.783409   -0.275752
  H      2.498673    1.917430   -0.945604
  H      2.917152    1.744329    0.768675
  H     -2.680828   -1.536147    1.578728
  H     -3.896967   -0.252177    1.493402
  H     -2.413315   -0.013554    2.442520
  C     -2.367802    1.628369    0.215864
  H     -1.949059    2.042712   -0.700647
  H     -1.926627    2.142427    1.073576
  H     -3.440152    1.821808    0.211983

 Total Charge           Charge          ....    0
 Multiplicity           Mult            ....    1
 Number of Electrons    NEL             ....   94
 Basis Dimension        Dim             ....  878

ORBITAL ENERGIES
----------------

  NO   OCC          E(Eh)            E(eV)
   0   2.0000    -104.790267     -2851.4881
   1   2.0000     -15.567743      -423.6198
   2   2.0000     -11.299795      -307.4831
   3   2.0000     -11.271357      -306.7092
   4   2.0000     -11.266068      -306.5653
   5   2.0000     -11.260278      -306.4078
   6   2.0000     -11.233260      -305.6726
   7   2.0000     -11.232612      -305.6549
   8   2.0000     -11.220879      -305.3356
   9   2.0000     -11.217791      -305.2516
  10   2.0000     -11.204010      -304.8766
  11   2.0000     -10.514767      -286.1213
  12   2.0000      -7.981332      -217.1831
  13   2.0000      -7.979825      -217.1421
  14   2.0000      -7.979813      -217.1418
  15   2.0000      -1.271743       -34.6059
  16   2.0000      -1.140308       -31.0294
  17   2.0000      -1.084410       -29.5083
  18   2.0000      -1.013099       -27.5678
  19   2.0000      -1.000749       -27.2318
  20   2.0000      -0.975650       -26.5488
  21   2.0000      -0.944246       -25.6942
  22   2.0000      -0.866861       -23.5885
  23   2.0000      -0.815702       -22.1964
  24   2.0000      -0.782415       -21.2906
  25   2.0000      -0.726091       -19.7579
  26   2.0000      -0.699077       -19.0228
  27   2.0000      -0.680051       -18.5051
  28   2.0000      -0.641202       -17.4480
  29   2.0000      -0.608833       -16.5672
  30   2.0000      -0.600800       -16.3486
  31   2.0000      -0.594439       -16.1755
  32   2.0000      -0.581015       -15.8102
  33   2.0000      -0.563295       -15.3280
  34   2.0000      -0.555371       -15.1124
  35   2.0000      -0.539138       -14.6707
  36   2.0000      -0.523455       -14.2439
  37   2.0000      -0.507682       -13.8147
  38   2.0000      -0.496698       -13.5158
  39   2.0000      -0.494255       -13.4494
  40   2.0000      -0.485190       -13.2027
  41   2.0000      -0.479581       -13.0501
  42   2.0000      -0.472414       -12.8550
  43   2.0000      -0.435759       -11.8576
  44   2.0000      -0.412844       -11.2341
  45   2.0000      -0.408817       -11.1245
  46   2.0000      -0.291003        -7.9186
  47   0.0000       0.024035         0.6540
  48   0.0000       0.031061         0.8452
  49   0.0000       0.032322         0.8795
  50   0.0000       0.036146         0.9836
  51   0.0000       0.043623         1.1870

MULLIKEN ATOMIC CHARGES
-----------------------
   0 Cl:   -0.591679
   1 C :    0.933842
   2 C :    0.145933
   3 C :   -0.522990
   4 N :    0.205596
   5 H :    0.194953
   6 H :    0.161396
   7 C :   -1.154544
   8 C :   -0.609277
   9 H :    0.300621
  10 C :   -0.516415
  11 H :    0.257874
  12 H :    0.174965
  13 C :   -0.511484
  14 H :    0.333439
  15 C :   -0.605999
  16 H :    0.195171
  17 H :    0.334341
  18 H :    0.319665
  19 H :    0.255114
  20 H :    0.280198
  21 H :    0.261204
  22 H :    0.310411
  23 C :   -0.988736
  24 H :    0.279971
  25 H :    0.267750
  26 H :    0.288682
Sum of atomic charges:    0.0000000

LOEWDIN ATOMIC CHARGES
----------------------
   0 Cl:    0.876631
   1 C :   -0.841687
   2 C :    0.131324
   3 C :    0.112407
   4 N :    0.256179
   5 H :   -0.179350
   6 H :   -0.206761
   7 C :    0.484362
   8 C :    0.196898
   9 H :   -0.139152
  10 C :    0.317121
  11 H :   -0.127726
  12 H :   -0.141470
  13 C :    0.308200
  14 H :   -0.140453
  15 C :    0.199601
  16 H :   -0.138262
  17 H :   -0.139735
  18 H :   -0.136782
  19 H :   -0.128560
  20 H :   -0.178997
  21 H :   -0.180272
  22 H :   -0.159942
  23 C :    0.475374
  24 H :   -0.183044
  25 H :   -0.158393
  26 H :   -0.177508

  Mayer bond orders larger than 0.100000
B(  0-Cl,  1-C ) :   0.5228 B(  1-C ,  2-C ) :   0.9081 B(  1-C ,  6-H ) :  -0.1232
B(  1-C ,  7-C ) :   0.7191 B(  1-C , 23-C ) :   0.5646 B(  2-C ,  3-C ) :   0.7410
B(  2-C ,  4-N ) :  -0.3532 B(  2-C ,  5-H ) :  -0.1401 B(  2-C ,  6-H ) :   1.2401
B(  2-C ,  7-C ) :  -0.1007 B(  2-C , 15-C ) :   0.1117 B(  2-C , 23-C ) :   0.1571
B(  3-C ,  4-N ) :   0.9498 B(  3-C ,  5-H ) :   1.3218 B(  3-C , 15-C ) :  -0.2702
B(  3-C , 23-C ) :  -0.1094 B(  4-N ,  5-H ) :  -0.1525 B(  4-N ,  8-C ) :   0.6166
B(  4-N , 15-C ) :   0.6977 B(  7-C , 20-H ) :   1.0147 B(  7-C , 21-H ) :   1.0324
B(  7-C , 22-H ) :   0.9204 B(  8-C ,  9-H ) :   0.9772 B(  8-C , 10-C ) :   0.9660
B(  8-C , 11-H ) :   0.9987 B( 10-C , 12-H ) :   1.0549 B( 10-C , 13-C ) :   0.9385
B( 10-C , 14-H ) :   0.8982 B( 13-C , 15-C ) :   1.0143 B( 13-C , 16-H ) :   1.0250
B( 13-C , 17-H ) :   0.9123 B( 15-C , 18-H ) :   0.9242 B( 15-C , 19-H ) :   0.9970
B( 23-C , 24-H ) :   1.0214 B( 23-C , 25-H ) :   0.9605 B( 23-C , 26-H ) :   0.9899

MP2 TOTAL ENERGY:     -866.181202336 Eh
FINAL SINGLE POINT ENERGY      -866.181202336239

DIPOLE MOMENT
-------------
                                X             Y             Z
Electronic contribution:    -12.26172      -3.49385      -7.34220
Nuclear contribution   :     13.77661       4.06285       8.09177
                        -----------------------------------------
Total Dipole Moment    :      1.51489       0.56900       0.74957
                        -----------------------------------------
Magnitude (a.u.)       :      1.78340
Magnitude (Debye)      :      4.53304

Rotational constants in cm-1:     0.070491     0.012887     0.012583
Rotational constants in MHz :  2113.274915   386.347775   377.236457

                             ****ORCA TERMINATED NORMALLY****
TOTAL RUN TIME: 0 days 0 hours 11 minutes 28 seconds 18 msec
