                         Program Version 4.2.1 -  RELEASE  -
|  1> %pal
|  2>  nprocs 32
|  3> end
|  4> !RI-MP2 aug-cc-pVTZ aug-cc-pVTZ/C TightSCF
|  5> %maxcore 4500
|  6> *xyzfile -1 1  08_6TS.xyz
|  7>
|  8>
|  9>                          ****END OF INPUT****

CARTESIAN COORDINATES (ANGSTROEM)
---------------------------------
  N      3.808981   -1.865750    0.290445
  C      2.566743   -2.322048    0.289240
  N      1.574543   -1.413524    0.110909
  C      2.242660   -0.245029   -0.016671
  C      3.631863   -0.517705    0.095074
  C      4.487218    0.561161   -0.005632
  N      4.006219    1.792761   -0.199506
  N      1.754430    0.987888   -0.216846
  C      2.681999    1.935615   -0.294295
  H      2.321135    2.946667   -0.455646
  H      5.565488    0.451553    0.067473
  H      2.337960   -3.371815    0.423736
  C     -0.528172   -1.365296    0.114636
  C     -1.873893    2.038984   -0.498658
  C     -2.561712    1.463938    0.737983
  C     -3.315403    0.098271    0.627128
  O     -2.521352   -0.948804    1.048042
  H     -3.300157    2.234301    1.010756
  O     -1.637706    1.323086    1.797947
  O     -0.863820    1.245204   -1.109758
  C     -3.911060   -0.196412   -0.753994
  H     -4.180571    0.190478    1.314937
  O     -4.395431   -1.525982   -0.737658
  H     -3.158632   -0.084871   -1.543765
  H     -4.747423    0.474037   -0.982222
  O     -0.824398   -1.328957   -1.142305
  H     -3.786034   -1.950823   -0.105308
  H      0.010662    1.323933   -0.655916
  H     -2.628186    2.231672   -1.267092
  H     -1.694292    0.356022    1.978042
  H     -1.437099    3.002587   -0.214490
  H     -0.597492   -2.312974    0.619211
  H     -0.386422   -0.462218    0.671510
  H     -0.907939   -0.363410   -1.375243

 Total Charge           Charge          ....   -1
 Multiplicity           Mult            ....    1
 Number of Electrons    NEL             ....  144
 Basis Dimension        Dim             .... 1219

ORBITAL ENERGIES
----------------

  NO   OCC          E(Eh)            E(eV)
   0   2.0000     -20.488819      -557.5291
   1   2.0000     -20.453963      -556.5806
   2   2.0000     -20.420220      -555.6624
   3   2.0000     -20.415876      -555.5442
   4   2.0000     -20.328547      -553.1679
   5   2.0000     -15.462888      -420.7666
   6   2.0000     -15.452809      -420.4923
   7   2.0000     -15.438993      -420.1163
   8   2.0000     -15.429967      -419.8707
   9   2.0000     -11.262051      -306.4560
  10   2.0000     -11.200037      -304.7685
  11   2.0000     -11.187195      -304.4191
  12   2.0000     -11.185059      -304.3609
  13   2.0000     -11.178182      -304.1738
  14   2.0000     -11.171466      -303.9910
  15   2.0000     -11.153999      -303.5157
  16   2.0000     -11.140431      -303.1465
  17   2.0000     -11.138613      -303.0971
  18   2.0000     -11.130539      -302.8774
  19   2.0000      -1.332796       -36.2672
  20   2.0000      -1.261009       -34.3138
  21   2.0000      -1.234979       -33.6055
  22   2.0000      -1.228423       -33.4271
  23   2.0000      -1.224081       -33.3089
  24   2.0000      -1.174022       -31.9468
  25   2.0000      -1.117545       -30.4100
  26   2.0000      -1.088880       -29.6299
  27   2.0000      -1.021254       -27.7897
  28   2.0000      -0.922774       -25.1100
  29   2.0000      -0.903309       -24.5803
  30   2.0000      -0.832259       -22.6469
  31   2.0000      -0.810962       -22.0674
  32   2.0000      -0.781173       -21.2568
  33   2.0000      -0.753081       -20.4924
  34   2.0000      -0.738803       -20.1038
  35   2.0000      -0.689533       -18.7632
  36   2.0000      -0.666389       -18.1334
  37   2.0000      -0.645926       -17.5766
  38   2.0000      -0.615538       -16.7496
  39   2.0000      -0.593583       -16.1522
  40   2.0000      -0.584440       -15.9034
  41   2.0000      -0.568750       -15.4765
  42   2.0000      -0.566505       -15.4154
  43   2.0000      -0.553592       -15.0640
  44   2.0000      -0.539399       -14.6778
  45   2.0000      -0.531813       -14.4714
  46   2.0000      -0.504296       -13.7226
  47   2.0000      -0.500221       -13.6117
  48   2.0000      -0.498701       -13.5704
  49   2.0000      -0.481455       -13.1010
  50   2.0000      -0.476851       -12.9758
  51   2.0000      -0.465202       -12.6588
  52   2.0000      -0.459543       -12.5048
  53   2.0000      -0.448153       -12.1949
  54   2.0000      -0.442745       -12.0477
  55   2.0000      -0.417829       -11.3697
  56   2.0000      -0.415361       -11.3026
  57   2.0000      -0.410744       -11.1769
  58   2.0000      -0.392365       -10.6768
  59   2.0000      -0.380891       -10.3646
  60   2.0000      -0.356771        -9.7082
  61   2.0000      -0.343061        -9.3352
  62   2.0000      -0.340997        -9.2790
  63   2.0000      -0.338314        -9.2060
  64   2.0000      -0.317834        -8.6487
  65   2.0000      -0.314889        -8.5686
  66   2.0000      -0.306974        -8.3532
  67   2.0000      -0.294088        -8.0026
  68   2.0000      -0.250904        -6.8275
  69   2.0000      -0.240065        -6.5325
  70   2.0000      -0.228075        -6.2062
  71   2.0000      -0.204302        -5.5593
  72   0.0000       0.099195         2.6992
  73   0.0000       0.101937         2.7738
  74   0.0000       0.104493         2.8434
  75   0.0000       0.109139         2.9698
  76   0.0000       0.113655         3.0927

MULLIKEN ATOMIC CHARGES
-----------------------
   0 N :   -1.040867
   1 C :   -0.851646
   2 N :   -0.344390
   3 C :   -0.271836
   4 C :    1.546904
   5 C :   -0.678653
   6 N :   -0.647960
   7 N :   -0.141659
   8 C :   -0.668376
   9 H :    0.547381
  10 H :    0.717394
  11 H :    0.643183
  12 C :    0.431421
  13 C :   -0.399343
  14 C :    0.440534
  15 C :    0.434085
  16 O :   -1.226199
  17 H :    0.347062
  18 O :   -1.014973
  19 O :   -0.761164
  20 C :   -0.166551
  21 H :    0.266461
  22 O :   -0.858588
  23 H :    0.153967
  24 H :    0.280994
  25 O :   -0.893938
  26 H :    0.244736
  27 H :    0.558430
  28 H :    0.233474
  29 H :    0.303318
  30 H :    0.273379
  31 H :    0.614412
  32 H :    0.452775
  33 H :    0.476231
Sum of atomic charges:   -1.0000000

LOEWDIN ATOMIC CHARGES
----------------------
   0 N :    0.347956
   1 C :   -0.179976
   2 N :    0.353111
   3 C :   -0.500089
   4 C :   -0.369418
   5 C :    0.015664
   6 N :    0.333556
   7 N :    0.421872
   8 C :   -0.170574
   9 H :   -0.208716
  10 H :   -0.189093
  11 H :   -0.195739
  12 C :    0.129897
  13 C :    0.080123
  14 C :   -0.260017
  15 C :   -0.432435
  16 O :    0.435142
  17 H :   -0.155831
  18 O :    0.823033
  19 O :    0.903637
  20 C :   -0.009027
  21 H :   -0.162541
  22 O :    0.796311
  23 H :   -0.196239
  24 H :   -0.163107
  25 O :    0.897138
  26 H :   -0.614047
  27 H :   -0.622168
  28 H :   -0.170486
  29 H :   -0.677747
  30 H :   -0.155827
  31 H :   -0.161265
  32 H :   -0.269863
  33 H :   -0.673235

  Mayer bond orders larger than 0.100000
B(  0-N ,  1-C ) :   1.5731 B(  0-N ,  2-N ) :  -0.2503 B(  0-N ,  3-C ) :   0.5601
B(  0-N ,  4-C ) :  -0.2176 B(  0-N ,  5-C ) :  -0.1993 B(  1-C ,  2-N ) :   1.5177
B(  1-C ,  3-C ) :  -0.4806 B(  1-C ,  4-C ) :  -0.4008 B(  1-C , 11-H ) :   0.4543
B(  2-N ,  3-C ) :   0.9141 B(  2-N ,  4-C ) :  -0.1828 B(  2-N ,  7-N ) :  -0.2508
B(  3-C ,  4-C ) :   0.9915 B(  3-C ,  5-C ) :   0.8819 B(  3-C ,  6-N ) :   0.1722
B(  3-C ,  7-N ) :   1.0102 B(  3-C ,  8-C ) :  -0.5915 B(  3-C , 32-H ) :  -0.1274
B(  4-C ,  5-C ) :   0.1158 B(  4-C ,  6-N ) :  -0.2118 B(  4-C ,  7-N ) :  -0.1798
B(  5-C ,  6-N ) :   1.0228 B(  5-C ,  8-C ) :  -0.2919 B(  5-C , 10-H ) :   0.2342
B(  6-N ,  8-C ) :   1.0716 B(  7-N ,  8-C ) :   1.5927 B(  8-C ,  9-H ) :   0.5772
B( 12-C , 25-O ) :   0.7983 B( 12-C , 31-H ) :   0.6818 B( 12-C , 32-H ) :   0.7675
B( 13-C , 14-C ) :   0.7958 B( 13-C , 18-O ) :   0.1233 B( 13-C , 19-O ) :   0.8731
B( 13-C , 28-H ) :   1.0538 B( 13-C , 30-H ) :   0.9482 B( 14-C , 15-C ) :   0.9325
B( 14-C , 17-H ) :   0.9306 B( 14-C , 18-O ) :   0.3596 B( 15-C , 16-O ) :   0.6786
B( 15-C , 18-O ) :   0.1364 B( 15-C , 20-C ) :   0.8547 B( 15-C , 21-H ) :   0.9058
B( 15-C , 22-O ) :   0.1063 B( 16-O , 20-C ) :   0.1377 B( 16-O , 29-H ) :   0.1111
B( 18-O , 29-H ) :   0.7555 B( 19-O , 25-O ) :  -0.1252 B( 19-O , 27-H ) :   0.5675
B( 20-C , 22-O ) :   0.4566 B( 20-C , 23-H ) :   1.0268 B( 20-C , 24-H ) :   1.0389
B( 22-O , 26-H ) :   0.8665 B( 25-O , 31-H ) :  -0.1137 B( 25-O , 32-H ) :   0.1349
B( 25-O , 33-H ) :   0.4958

MP2 TOTAL ENERGY:     -983.573370914 Eh
FINAL SINGLE POINT ENERGY      -983.573370914085

DIPOLE MOMENT
-------------
                                X             Y             Z
Electronic contribution:     16.85646      -3.69976       0.07418
Nuclear contribution   :    -16.51968       4.59672      -0.51125
                        -----------------------------------------
Total Dipole Moment    :      0.33678       0.89695      -0.43707
                        -----------------------------------------
Magnitude (a.u.)       :      1.05308
Magnitude (Debye)      :      2.67672

Rotational constants in cm-1:     0.024244     0.007208     0.006210
Rotational constants in MHz :   726.817551   216.082325   186.175109

                             ****ORCA TERMINATED NORMALLY****
TOTAL RUN TIME: 0 days 0 hours 34 minutes 41 seconds 999 msec
