                         Program Version 4.2.1 -  RELEASE  -
|  1> %pal
|  2>  nprocs 32
|  3> end
|  4> !RI-MP2 aug-cc-pVTZ aug-cc-pVTZ/C TightSCF
|  5> %maxcore 4500
|  6> *xyzfile -1 1  08_3P2.xyz
|  7>
|  8>
|  9>                          ****END OF INPUT****

CARTESIAN COORDINATES (ANGSTROEM)
---------------------------------
  C     -0.382612    1.307323   -0.009961
  N      0.987298    1.074714   -0.046862
  C      1.567819   -0.160687   -0.018371
  N      0.853283   -1.235369   -0.007620
  C     -0.496770   -1.107215   -0.034820
  C     -1.209131    0.104771    0.009562
  N     -2.539739    0.124683    0.049971
  O     -0.798649    2.473184   -0.000252
  N      2.989081   -0.174358   -0.018721
  H      3.289859   -1.100216   -0.297064
  H      3.365716    0.005781    0.908845
  H      1.567551    1.896357   -0.133702
  N     -1.258266   -2.284511   -0.098497
  H     -2.219717   -2.054432    0.141826
  H     -0.873118   -3.029537    0.466140
  H     -2.838538    1.095310    0.089612

 Total Charge           Charge          ....   -1
 Multiplicity           Mult            ....    1
 Number of Electrons    NEL             ....   74
 Basis Dimension        Dim             ....  598

ORBITAL ENERGIES
----------------

  NO   OCC          E(Eh)            E(eV)
   0   2.0000     -20.353577      -553.8490
   1   2.0000     -15.472576      -421.0302
   2   2.0000     -15.459221      -420.6668
   3   2.0000     -15.411323      -419.3634
   4   2.0000     -15.394140      -418.8958
   5   2.0000     -15.297782      -416.2738
   6   2.0000     -11.196921      -304.6837
   7   2.0000     -11.185180      -304.3642
   8   2.0000     -11.113413      -302.4113
   9   2.0000     -11.079752      -301.4954
  10   2.0000      -1.224845       -33.3297
  11   2.0000      -1.172162       -31.8961
  12   2.0000      -1.081728       -29.4353
  13   2.0000      -1.061638       -28.8886
  14   2.0000      -1.005901       -27.3720
  15   2.0000      -0.959771       -26.1167
  16   2.0000      -0.801050       -21.7977
  17   2.0000      -0.707315       -19.2470
  18   2.0000      -0.697950       -18.9922
  19   2.0000      -0.605039       -16.4639
  20   2.0000      -0.571606       -15.5542
  21   2.0000      -0.554974       -15.1016
  22   2.0000      -0.531493       -14.4627
  23   2.0000      -0.481813       -13.1108
  24   2.0000      -0.466832       -12.7032
  25   2.0000      -0.457684       -12.4542
  26   2.0000      -0.442037       -12.0285
  27   2.0000      -0.410309       -11.1651
  28   2.0000      -0.375795       -10.2259
  29   2.0000      -0.351606        -9.5677
  30   2.0000      -0.313925        -8.5423
  31   2.0000      -0.292975        -7.9723
  32   2.0000      -0.276698        -7.5293
  33   2.0000      -0.240695        -6.5496
  34   2.0000      -0.229426        -6.2430
  35   2.0000      -0.214620        -5.8401
  36   2.0000      -0.044418        -1.2087
  37   0.0000       0.099986         2.7208
  38   0.0000       0.119519         3.2523
  39   0.0000       0.124406         3.3852
  40   0.0000       0.130487         3.5507
  41   0.0000       0.144129         3.9219

MULLIKEN ATOMIC CHARGES
-----------------------
   0 C :    0.125768
   1 N :    0.186396
   2 C :    0.109847
   3 N :   -0.405595
   4 C :    0.525503
   5 C :    1.334112
   6 N :   -1.333728
   7 O :   -0.964704
   8 N :   -0.538498
   9 H :    0.176589
  10 H :    0.096319
  11 H :    0.114320
  12 N :   -0.665314
  13 H :    0.189082
  14 H :    0.027017
  15 H :    0.022888
Sum of atomic charges:   -1.0000000

LOEWDIN ATOMIC CHARGES
----------------------
   0 C :   -0.699512
   1 N :    0.529536
   2 C :   -0.565901
   3 N :    0.366871
   4 C :   -0.476654
   5 C :   -0.434469
   6 N :    0.528829
   7 O :    0.367491
   8 N :    0.820364
   9 H :   -0.344575
  10 H :   -0.323772
  11 H :   -0.281254
  12 N :    0.797897
  13 H :   -0.405561
  14 H :   -0.340773
  15 H :   -0.538517

  Mayer bond orders larger than 0.100000
B(  0-C ,  1-N ) :   0.8436 B(  0-C ,  2-C ) :  -0.3226 B(  0-C ,  4-C ) :   0.7669
B(  0-C ,  5-C ) :   0.2754 B(  0-C ,  7-O ) :   0.9661 B(  1-N ,  2-C ) :   1.0068
B(  1-N ,  7-O ) :  -0.1446 B(  1-N , 11-H ) :   1.0526 B(  2-C ,  3-N ) :   1.4406
B(  2-C ,  4-C ) :  -0.5046 B(  2-C ,  5-C ) :   0.1516 B(  2-C ,  8-N ) :   0.6826
B(  3-N ,  4-C ) :   0.3824 B(  3-N ,  8-N ) :  -0.1623 B(  4-C ,  5-C ) :   0.7713
B(  4-C ,  6-N ) :   0.1606 B(  4-C , 12-N ) :   0.3359 B(  5-C ,  6-N ) :   0.1193
B(  5-C , 12-N ) :   0.1690 B(  6-N , 12-N ) :  -0.1277 B(  6-N , 15-H ) :   1.1290
B(  8-N ,  9-H ) :   0.9477 B(  8-N , 10-H ) :   1.0288 B( 12-N , 13-H ) :   0.9265
B( 12-N , 14-H ) :   1.1595

MP2 TOTAL ENERGY:     -504.211561608 Eh
FINAL SINGLE POINT ENERGY      -504.211561607520

DIPOLE MOMENT
-------------
                                X             Y             Z
Electronic contribution:      1.10641       2.47294      -0.45987
Nuclear contribution   :      2.23586      -3.09409       1.14956
                        -----------------------------------------
Total Dipole Moment    :      3.34226      -0.62115       0.68969
                        -----------------------------------------
Magnitude (a.u.)       :      3.46875
Magnitude (Debye)      :      8.81686

Rotational constants in cm-1:     0.063462     0.046354     0.026907
Rotational constants in MHz :  1902.556712  1389.650946   806.649378

                             ****ORCA TERMINATED NORMALLY****
TOTAL RUN TIME: 0 days 0 hours 4 minutes 3 seconds 47 msec
