                         Program Version 4.2.1 -  RELEASE  -
|  1> %pal
|  2>  nprocs 32
|  3> end
|  4> !RI-MP2 aug-cc-pVTZ aug-cc-pVTZ/C TightSCF
|  5> %maxcore 4500
|  6> *xyzfile 0 1  10_45R.xyz
|  7>
|  8>
|  9>                          ****END OF INPUT****

CARTESIAN COORDINATES (ANGSTROEM)
---------------------------------
  C     -0.186364   -2.313925    0.550362
  H      0.219319   -3.039342    1.276711
  C     -1.135519   -1.374489    1.252034
  C      0.250298    0.604772    0.750372
  H      0.428642    1.231100   -0.121498
  H      0.364916    1.233402    1.637137
  C      1.336526   -0.490507    0.763081
  H      1.449037   -0.870772    1.794777
  N      0.876321   -1.568292   -0.107116
  C     -2.245297    0.588958    0.208580
  C     -1.819920   -1.738088    2.328713
  C     -3.472099   -0.225986    0.012499
  C     -3.554038   -1.237835   -0.842523
  C     -1.142597    0.006241    0.703024
  C     -4.772105   -2.077853   -1.059291
  H     -5.079988   -2.070534   -2.108936
  H     -4.577724   -3.121797   -0.793620
  H     -5.610415   -1.726560   -0.454757
  C      1.924940   -2.433052   -0.604296
  H      2.484326   -2.910635    0.221364
  H      1.458388   -3.234470   -1.182381
  C      2.675654    0.080638    0.348834
  C      3.397464   -0.438170   -0.724675
  C      2.871788   -1.631579   -1.476789
  H      2.333745   -1.302723   -2.371206
  H      3.704327   -2.257181   -1.808250
  H     -0.731834   -2.879849   -0.213158
  C      4.616200    0.142714   -1.071787
  H      5.175476   -0.268945   -1.905397
  C      3.202437    1.155233    1.065629
  H      2.655795    1.548634    1.915192
  C      5.123203    1.220848   -0.368133
  H      6.072701    1.658401   -0.652035
  C      4.412506    1.726731    0.713698
  H      4.803600    2.561194    1.283167
  C     -2.337866    2.041944   -0.302973
  C     -1.596226    3.051300    0.587473
  H     -0.514726    2.968896    0.522854
  H     -1.885383    2.930555    1.634300
  H     -1.860067    4.067100    0.282523
  C     -3.804958    2.503139   -0.348482
  H     -4.409681    1.880426   -1.007899
  H     -3.848781    3.528499   -0.722055
  H     -4.260018    2.492199    0.645401
  C     -1.789047    2.087647   -1.738274
  H     -2.351504    1.408890   -2.383295
  H     -0.739066    1.795558   -1.781386
  H     -1.878367    3.097635   -2.148625
  H     -1.731940   -2.736899    2.742585
  H     -2.501173   -1.053338    2.817888
  H     -2.671207   -1.496058   -1.423580
  H     -4.362513    0.052580    0.571539

 Total Charge           Charge          ....    0
 Multiplicity           Mult            ....    1
 Number of Electrons    NEL             ....  168
 Basis Dimension        Dim             .... 1725

ORBITAL ENERGIES
----------------

  NO   OCC          E(Eh)            E(eV)
   0   2.0000     -15.546031      -423.0290
   1   2.0000     -11.259765      -306.3938
   2   2.0000     -11.251270      -306.1626
   3   2.0000     -11.249357      -306.1106
   4   2.0000     -11.236147      -305.7511
   5   2.0000     -11.234972      -305.7191
   6   2.0000     -11.233746      -305.6858
   7   2.0000     -11.232357      -305.6480
   8   2.0000     -11.229126      -305.5601
   9   2.0000     -11.228339      -305.5386
  10   2.0000     -11.227456      -305.5146
  11   2.0000     -11.227211      -305.5079
  12   2.0000     -11.226752      -305.4955
  13   2.0000     -11.225175      -305.4525
  14   2.0000     -11.224325      -305.4294
  15   2.0000     -11.221243      -305.3456
  16   2.0000     -11.218359      -305.2671
  17   2.0000     -11.215923      -305.2008
  18   2.0000     -11.214947      -305.1742
  19   2.0000     -11.208601      -305.0015
  20   2.0000     -11.205528      -304.9179
  21   2.0000     -11.205249      -304.9103
  22   2.0000     -11.204523      -304.8906
  23   2.0000      -1.253409       -34.1070
  24   2.0000      -1.156848       -31.4794
  25   2.0000      -1.135893       -30.9092
  26   2.0000      -1.089693       -29.6521
  27   2.0000      -1.065506       -28.9939
  28   2.0000      -1.057530       -28.7769
  29   2.0000      -1.049977       -28.5713
  30   2.0000      -1.006326       -27.3835
  31   2.0000      -0.992850       -27.0168
  32   2.0000      -0.962359       -26.1871
  33   2.0000      -0.930451       -25.3189
  34   2.0000      -0.927001       -25.2250
  35   2.0000      -0.916647       -24.9432
  36   2.0000      -0.895274       -24.3617
  37   2.0000      -0.858218       -23.3533
  38   2.0000      -0.834444       -22.7064
  39   2.0000      -0.819447       -22.2983
  40   2.0000      -0.805451       -21.9174
  41   2.0000      -0.754517       -20.5315
  42   2.0000      -0.751476       -20.4487
  43   2.0000      -0.733345       -19.9553
  44   2.0000      -0.691762       -18.8238
  45   2.0000      -0.675412       -18.3789
  46   2.0000      -0.666563       -18.1381
  47   2.0000      -0.653523       -17.7833
  48   2.0000      -0.641862       -17.4659
  49   2.0000      -0.630987       -17.1700
  50   2.0000      -0.624985       -17.0067
  51   2.0000      -0.607163       -16.5218
  52   2.0000      -0.603132       -16.4120
  53   2.0000      -0.597723       -16.2649
  54   2.0000      -0.594660       -16.1815
  55   2.0000      -0.583147       -15.8682
  56   2.0000      -0.581018       -15.8103
  57   2.0000      -0.574780       -15.6406
  58   2.0000      -0.563012       -15.3203
  59   2.0000      -0.561288       -15.2734
  60   2.0000      -0.552326       -15.0296
  61   2.0000      -0.546906       -14.8821
  62   2.0000      -0.538462       -14.6523
  63   2.0000      -0.531468       -14.4620
  64   2.0000      -0.525995       -14.3130
  65   2.0000      -0.521690       -14.1959
  66   2.0000      -0.518843       -14.1184
  67   2.0000      -0.515497       -14.0274
  68   2.0000      -0.512645       -13.9498
  69   2.0000      -0.505085       -13.7441
  70   2.0000      -0.496267       -13.5041
  71   2.0000      -0.487877       -13.2758
  72   2.0000      -0.477668       -12.9980
  73   2.0000      -0.467003       -12.7078
  74   2.0000      -0.462589       -12.5877
  75   2.0000      -0.456730       -12.4283
  76   2.0000      -0.441937       -12.0257
  77   2.0000      -0.430000       -11.7009
  78   2.0000      -0.373854       -10.1731
  79   2.0000      -0.360448        -9.8083
  80   2.0000      -0.355694        -9.6789
  81   2.0000      -0.327902        -8.9227
  82   2.0000      -0.319827        -8.7029
  83   2.0000      -0.300899        -8.1879
  84   0.0000       0.024620         0.6699
  85   0.0000       0.028227         0.7681
  86   0.0000       0.028826         0.7844
  87   0.0000       0.031470         0.8564
  88   0.0000       0.036670         0.9978

MULLIKEN ATOMIC CHARGES
-----------------------
   0 C :   -0.685710
   1 H :    0.239125
   2 C :    0.625519
   3 C :   -1.074494
   4 H :    0.363642
   5 H :    0.050283
   6 C :   -0.137952
   7 H :    0.242067
   8 N :   -0.101317
   9 C :    1.977721
  10 C :   -2.108970
  11 C :   -0.243239
  12 C :   -0.585661
  13 C :    0.489385
  14 C :   -1.135726
  15 H :    0.237829
  16 H :    0.273623
  17 H :    0.270158
  18 C :   -0.737095
  19 H :    0.273676
  20 H :    0.307760
  21 C :    1.129639
  22 C :    0.939983
  23 C :   -0.530694
  24 H :    0.207431
  25 H :    0.225125
  26 H :    0.324627
  27 C :   -1.143893
  28 H :   -0.038429
  29 C :   -0.993661
  30 H :    0.121165
  31 C :   -0.203266
  32 H :    0.710692
  33 C :   -0.614238
  34 H :    0.401979
  35 C :    1.884045
  36 C :   -1.570351
  37 H :    0.494520
  38 H :    0.227119
  39 H :    0.076624
  40 C :   -1.520148
  41 H :    0.362933
  42 H :    0.162313
  43 H :    0.262588
  44 C :   -1.524702
  45 H :    0.310157
  46 H :    0.462272
  47 H :    0.113091
  48 H :    0.066620
  49 H :    0.459819
  50 H :    0.519636
  51 H :    0.136378
Sum of atomic charges:    0.0000000

LOEWDIN ATOMIC CHARGES
----------------------
   0 C :    0.162898
   1 H :   -0.128427
   2 C :   -0.134818
   3 C :    0.313670
   4 H :   -0.177010
   5 H :   -0.139094
   6 C :   -0.100726
   7 H :   -0.108520
   8 N :    0.314463
   9 C :   -0.040504
  10 C :    0.565885
  11 C :    0.167595
  12 C :    0.214623
  13 C :   -0.035854
  14 C :    0.563539
  15 H :   -0.176109
  16 H :   -0.174566
  17 H :   -0.179563
  18 C :    0.166115
  19 H :   -0.114999
  20 H :   -0.134058
  21 C :   -0.046116
  22 C :   -0.066947
  23 C :    0.301110
  24 H :   -0.131717
  25 H :   -0.143335
  26 H :   -0.132775
  27 C :    0.223053
  28 H :   -0.173085
  29 C :    0.227970
  30 H :   -0.172228
  31 C :    0.198948
  32 H :   -0.183292
  33 C :    0.203840
  34 H :   -0.182772
  35 C :   -0.319154
  36 C :    0.593419
  37 H :   -0.197124
  38 H :   -0.142765
  39 H :   -0.156669
  40 C :    0.567819
  41 H :   -0.169549
  42 H :   -0.158970
  43 H :   -0.147586
  44 C :    0.600350
  45 H :   -0.150610
  46 H :   -0.168624
  47 H :   -0.150523
  48 H :   -0.204804
  49 H :   -0.202574
  50 H :   -0.168825
  51 H :   -0.171005

  Mayer bond orders larger than 0.100000
B(  0-C ,  1-H ) :   1.1036 B(  0-C ,  2-C ) :   0.9141 B(  0-C ,  3-C ) :  -0.2271
B(  0-C ,  6-C ) :   0.1795 B(  0-C ,  8-N ) :   0.6461 B(  0-C , 10-C ) :  -0.1602
B(  0-C , 11-C ) :   0.1392 B(  0-C , 26-H ) :   0.9524 B(  2-C ,  3-C ) :   0.4480
B(  2-C ,  4-H ) :   0.1761 B(  2-C ,  8-N ) :   0.1904 B(  2-C ,  9-C ) :  -0.5508
B(  2-C , 10-C ) :   0.4471 B(  2-C , 11-C ) :   0.2638 B(  2-C , 13-C ) :   0.8569
B(  2-C , 26-H ) :   0.1528 B(  2-C , 35-C ) :  -0.2432 B(  2-C , 51-H ) :   0.1194
B(  3-C ,  4-H ) :   0.8761 B(  3-C ,  5-H ) :   1.1819 B(  3-C ,  6-C ) :   0.9052
B(  3-C ,  8-N ) :   0.6717 B(  3-C ,  9-C ) :  -0.9082 B(  3-C , 10-C ) :  -0.1335
B(  3-C , 11-C ) :  -0.1389 B(  3-C , 13-C ) :   1.7933 B(  3-C , 21-C ) :   0.5578
B(  3-C , 22-C ) :  -0.1285 B(  3-C , 29-C ) :  -0.1785 B(  3-C , 30-H ) :  -0.1097
B(  3-C , 35-C ) :   0.5616 B(  3-C , 36-C ) :  -0.1004 B(  3-C , 48-H ) :   0.1090
B(  3-C , 49-H ) :  -0.2576 B(  4-H , 11-C ) :  -0.1748 B(  4-H , 21-C ) :  -0.1325
B(  4-H , 29-C ) :  -0.1063 B(  5-H , 29-C ) :   0.1594 B(  6-C ,  7-H ) :   1.0877
B(  6-C ,  8-N ) :   0.2830 B(  6-C , 21-C ) :   0.6524 B(  6-C , 22-C ) :   0.5734
B(  6-C , 23-C ) :  -0.1263 B(  6-C , 27-C ) :  -0.1215 B(  6-C , 29-C ) :   0.6792
B(  7-H , 21-C ) :  -0.1872 B(  8-N ,  9-C ) :  -0.1197 B(  8-N , 13-C ) :  -0.3261
B(  8-N , 18-C ) :   0.6689 B(  8-N , 22-C ) :  -0.1654 B(  8-N , 23-C ) :  -0.1225
B(  9-C , 11-C ) :  -0.1561 B(  9-C , 12-C ) :  -0.4242 B(  9-C , 13-C ) :   1.2436
B(  9-C , 21-C ) :   0.1767 B(  9-C , 35-C ) :   1.2141 B(  9-C , 44-C ) :   0.1315
B(  9-C , 49-H ) :   0.1724 B(  9-C , 50-H ) :  -0.1041 B(  9-C , 51-H ) :  -0.1525
B( 10-C , 11-C ) :   0.4530 B( 10-C , 13-C ) :  -0.7896 B( 10-C , 35-C ) :   0.1505
B( 10-C , 48-H ) :   1.4208 B( 10-C , 49-H ) :   0.8115 B( 10-C , 51-H ) :   0.1921
B( 11-C , 12-C ) :   1.5381 B( 11-C , 13-C ) :   0.2461 B( 11-C , 35-C ) :   0.2266
B( 11-C , 50-H ) :   0.1200 B( 11-C , 51-H ) :   0.9833 B( 12-C , 13-C ) :   0.5297
B( 12-C , 14-C ) :   0.6090 B( 12-C , 50-H ) :   0.7895 B( 13-C , 14-C ) :   0.1061
B( 13-C , 21-C ) :  -0.1512 B( 13-C , 35-C ) :  -0.2373 B( 13-C , 44-C ) :  -0.2430
B( 13-C , 48-H ) :  -0.1007 B( 13-C , 51-H ) :  -0.1461 B( 14-C , 15-H ) :   1.0641
B( 14-C , 16-H ) :   1.0126 B( 14-C , 17-H ) :   0.9818 B( 18-C , 19-H ) :   1.0117
B( 18-C , 20-H ) :   0.9716 B( 18-C , 22-C ) :   0.1435 B( 18-C , 23-C ) :   1.1130
B( 21-C , 22-C ) :   0.5980 B( 21-C , 23-C ) :   0.2648 B( 21-C , 27-C ) :   0.4815
B( 21-C , 28-H ) :   0.1266 B( 21-C , 29-C ) :  -0.1321 B( 21-C , 31-C ) :  -0.1863
B( 21-C , 32-H ) :   0.1036 B( 21-C , 34-H ) :  -0.1111 B( 22-C , 23-C ) :   0.1189
B( 22-C , 24-H ) :  -0.1213 B( 22-C , 27-C ) :   0.5191 B( 22-C , 29-C ) :  -0.2229
B( 22-C , 31-C ) :   0.3689 B( 22-C , 32-H ) :  -0.1253 B( 22-C , 34-H ) :   0.1215
B( 23-C , 24-H ) :   1.1230 B( 23-C , 25-H ) :   1.0670 B( 23-C , 27-C ) :   0.1715
B( 23-C , 28-H ) :  -0.1110 B( 23-C , 29-C ) :  -0.1105 B( 27-C , 28-H ) :   1.7161
B( 27-C , 31-C ) :   0.9452 B( 27-C , 33-C ) :  -0.1783 B( 28-H , 31-C ) :  -0.1789
B( 29-C , 30-H ) :   1.3123 B( 29-C , 31-C ) :   0.1770 B( 29-C , 33-C ) :   1.3588
B( 29-C , 34-H ) :  -0.1066 B( 31-C , 32-H ) :   0.3685 B( 31-C , 33-C ) :   1.0625
B( 31-C , 34-H ) :  -0.1119 B( 33-C , 34-H ) :   0.8647 B( 35-C , 36-C ) :   0.1584
B( 35-C , 39-H ) :  -0.1584 B( 35-C , 40-C ) :  -0.1070 B( 35-C , 41-H ) :  -0.1015
B( 35-C , 42-H ) :  -0.1661 B( 35-C , 44-C ) :   0.3054 B( 35-C , 47-H ) :  -0.1872
B( 36-C , 37-H ) :   0.8799 B( 36-C , 38-H ) :   1.1427 B( 36-C , 39-H ) :   1.3321
B( 36-C , 40-C ) :   0.1558 B( 40-C , 41-H ) :   1.0079 B( 40-C , 42-H ) :   1.2522
B( 40-C , 43-H ) :   1.0965 B( 40-C , 44-C ) :   0.1628 B( 44-C , 45-H ) :   1.0359
B( 44-C , 46-H ) :   0.7944 B( 44-C , 47-H ) :   1.2805

MP2 TOTAL ENERGY:     -908.574129765 Eh
FINAL SINGLE POINT ENERGY      -908.574129764984

DIPOLE MOMENT
-------------
                                X             Y             Z
Electronic contribution:     18.36906      -3.81452       3.76422
Nuclear contribution   :    -18.32567       3.56762      -3.83083
                        -----------------------------------------
Total Dipole Moment    :      0.04339      -0.24690      -0.06661
                        -----------------------------------------
Magnitude (a.u.)       :      0.25938
Magnitude (Debye)      :      0.65930

Rotational constants in cm-1:     0.014290     0.005687     0.004799
Rotational constants in MHz :   428.402588   170.478988   143.880561

                             ****ORCA TERMINATED NORMALLY****
TOTAL RUN TIME: 0 days 1 hours 52 minutes 15 seconds 635 msec
