                         Program Version 4.2.1 -  RELEASE  -
|  1> %pal
|  2>  nprocs 32
|  3> end
|  4> !RI-MP2 aug-cc-pVTZ aug-cc-pVTZ/C TightSCF
|  5> %maxcore 4500
|  6> *xyzfile 0 1  02_6TS.xyz
|  7>
|  8>
|  9>                          ****END OF INPUT****

CARTESIAN COORDINATES (ANGSTROEM)
---------------------------------
  C     -1.561348   -1.556871    0.434775
  C     -2.976787   -0.967441    0.332992
  C     -2.752733    0.550016    0.256657
  C     -1.421427    0.663156   -0.456693
  C     -0.711911   -0.546268   -0.312137
  H     -1.234079   -1.611341    1.478660
  H     -1.475913   -2.561741    0.017377
  H     -3.618759   -1.264691    1.162804
  H     -3.447790   -1.311498   -0.591421
  H     -3.560052    1.073602   -0.256793
  H     -2.669056    0.979453    1.261917
  C      0.640301   -0.622037   -0.435668
  C     -0.826253    1.799378   -0.913857
  H      0.008091    1.753261   -1.594746
  H     -1.311854    2.762669   -0.819161
  C      1.734578   -1.205680   -0.876389
  H      1.724634   -1.910912   -1.701905
  C      3.036579   -0.802299   -0.239871
  H      3.672043   -0.293693   -0.972121
  H      3.596079   -1.672370    0.112623
  C      2.681616    0.130949    0.918558
  H      2.444684   -0.450954    1.811814
  H      3.480000    0.829796    1.165491
  C      1.451314    0.886011    0.525954
  N      0.946914    1.957848    0.502792

 Total Charge           Charge          ....    0
 Multiplicity           Mult            ....    1
 Number of Electrons    NEL             ....   86
 Basis Dimension        Dim             ....  851

ORBITAL ENERGIES
----------------

  NO   OCC          E(Eh)            E(eV)
   0   2.0000     -15.538913      -422.8353
   1   2.0000     -11.259452      -306.3853
   2   2.0000     -11.253717      -306.2292
   3   2.0000     -11.249265      -306.1081
   4   2.0000     -11.247740      -306.0666
   5   2.0000     -11.242770      -305.9313
   6   2.0000     -11.240822      -305.8783
   7   2.0000     -11.240217      -305.8619
   8   2.0000     -11.231817      -305.6333
   9   2.0000     -11.223779      -305.4146
  10   2.0000     -11.222149      -305.3702
  11   2.0000     -11.218691      -305.2761
  12   2.0000      -1.199576       -32.6421
  13   2.0000      -1.152610       -31.3641
  14   2.0000      -1.110246       -30.2113
  15   2.0000      -1.030514       -28.0417
  16   2.0000      -1.013919       -27.5901
  17   2.0000      -0.960255       -26.1299
  18   2.0000      -0.907225       -24.6869
  19   2.0000      -0.871705       -23.7203
  20   2.0000      -0.804731       -21.8979
  21   2.0000      -0.766772       -20.8649
  22   2.0000      -0.706076       -19.2133
  23   2.0000      -0.668594       -18.1934
  24   2.0000      -0.656910       -17.8754
  25   2.0000      -0.648347       -17.6424
  26   2.0000      -0.639055       -17.3896
  27   2.0000      -0.612956       -16.6794
  28   2.0000      -0.572372       -15.5750
  29   2.0000      -0.559746       -15.2315
  30   2.0000      -0.545765       -14.8510
  31   2.0000      -0.528346       -14.3770
  32   2.0000      -0.528167       -14.3722
  33   2.0000      -0.523155       -14.2358
  34   2.0000      -0.517414       -14.0795
  35   2.0000      -0.503429       -13.6990
  36   2.0000      -0.491331       -13.3698
  37   2.0000      -0.478418       -13.0184
  38   2.0000      -0.469068       -12.7640
  39   2.0000      -0.433044       -11.7837
  40   2.0000      -0.372587       -10.1386
  41   2.0000      -0.322900        -8.7865
  42   2.0000      -0.295713        -8.0468
  43   0.0000       0.025657         0.6982
  44   0.0000       0.031307         0.8519
  45   0.0000       0.033946         0.9237
  46   0.0000       0.036488         0.9929
  47   0.0000       0.044943         1.2230

MULLIKEN ATOMIC CHARGES
-----------------------
   0 C :   -0.875254
   1 C :   -0.566365
   2 C :   -0.728682
   3 C :    0.219810
   4 C :    1.029662
   5 H :    0.211701
   6 H :    0.255834
   7 H :    0.307754
   8 H :    0.219573
   9 H :    0.296146
  10 H :    0.194602
  11 C :    1.524615
  12 C :   -1.162035
  13 H :    0.283889
  14 H :    0.408586
  15 C :   -1.843748
  16 H :    0.259838
  17 C :   -0.383088
  18 H :    0.265160
  19 H :    0.316463
  20 C :   -0.347728
  21 H :    0.232501
  22 H :    0.354588
  23 C :    0.481676
  24 N :   -0.955497
Sum of atomic charges:   -0.0000000

LOEWDIN ATOMIC CHARGES
----------------------
   0 C :    0.313914
   1 C :    0.304388
   2 C :    0.296480
   3 C :   -0.139732
   4 C :   -0.108842
   5 H :   -0.134175
   6 H :   -0.139142
   7 H :   -0.142164
   8 H :   -0.143479
   9 H :   -0.144743
  10 H :   -0.135792
  11 C :    0.030415
  12 C :    0.468674
  13 H :   -0.219113
  14 H :   -0.169948
  15 C :    0.223371
  16 H :   -0.173761
  17 C :    0.256538
  18 H :   -0.145389
  19 H :   -0.147497
  20 C :    0.260128
  21 H :   -0.146392
  22 H :   -0.147836
  23 C :   -0.308677
  24 N :    0.392774

  Mayer bond orders larger than 0.100000
B(  0-C ,  1-C ) :   1.0369 B(  0-C ,  2-C ) :   0.1167 B(  0-C ,  3-C ) :   0.1108
B(  0-C ,  4-C ) :   0.8427 B(  0-C ,  5-H ) :   1.0033 B(  0-C ,  6-H ) :   0.9837
B(  0-C , 11-C ) :  -0.2370 B(  1-C ,  2-C ) :   1.0593 B(  1-C ,  7-H ) :   0.9468
B(  1-C ,  8-H ) :   0.9965 B(  2-C ,  3-C ) :   0.9537 B(  2-C ,  4-C ) :  -0.1982
B(  2-C ,  9-H ) :   0.9831 B(  2-C , 10-H ) :   1.0182 B(  2-C , 12-C ) :  -0.2169
B(  3-C ,  4-C ) :   0.8250 B(  3-C , 11-C ) :   0.1405 B(  3-C , 12-C ) :   1.0437
B(  3-C , 23-C ) :   0.1185 B(  3-C , 24-N ) :  -0.1956 B(  4-C , 11-C ) :   1.2607
B(  4-C , 12-C ) :   0.1490 B(  4-C , 15-C ) :   0.2552 B(  4-C , 16-H ) :  -0.1688
B(  4-C , 24-N ) :   0.1900 B( 11-C , 15-C ) :  -0.4200 B( 11-C , 20-C ) :  -0.2023
B( 11-C , 23-C ) :   0.3052 B( 12-C , 13-H ) :   1.0977 B( 12-C , 14-H ) :   0.8961
B( 12-C , 24-N ) :   0.3471 B( 13-H , 24-N ) :   0.1022 B( 15-C , 16-H ) :   1.1704
B( 15-C , 17-C ) :   0.8831 B( 15-C , 20-C ) :   0.3350 B( 17-C , 18-H ) :   0.9663
B( 17-C , 19-H ) :   0.9060 B( 17-C , 20-C ) :   1.0681 B( 20-C , 21-H ) :   0.9918
B( 20-C , 22-H ) :   0.8864 B( 20-C , 23-C ) :   0.7306 B( 23-C , 24-N ) :   1.6373

MP2 TOTAL ENERGY:     -480.630069039 Eh
FINAL SINGLE POINT ENERGY      -480.630069039425

DIPOLE MOMENT
-------------
                                X             Y             Z
Electronic contribution:      2.54638       2.65459      -1.18028
Nuclear contribution   :     -2.42062      -3.71949       1.09293
                        -----------------------------------------
Total Dipole Moment    :      0.12576      -1.06490      -0.08735
                        -----------------------------------------
Magnitude (a.u.)       :      1.07585
Magnitude (Debye)      :      2.73459

Rotational constants in cm-1:     0.059685     0.023933     0.019655
Rotational constants in MHz :  1789.324610   717.485731   589.249817

                             ****ORCA TERMINATED NORMALLY****
TOTAL RUN TIME: 0 days 0 hours 14 minutes 5 seconds 977 msec
