                         Program Version 4.2.1 -  RELEASE  -
|  1> %pal
|  2>  nprocs 32
|  3> end
|  4> !RI-MP2 aug-cc-pVTZ aug-cc-pVTZ/C TightSCF
|  5> %maxcore 4500
|  6> *xyzfile 0 1  10_71R.xyz
|  7>
|  8>
|  9>                          ****END OF INPUT****

CARTESIAN COORDINATES (ANGSTROEM)
---------------------------------
  C      5.531255    0.560168    1.988364
  C      5.125053   -0.554207    1.032454
  C      3.750817   -0.326989    0.419226
  C      3.263395   -1.509867   -0.447106
  C      1.797404   -1.397537   -0.755749
  C      0.769275   -1.983793   -0.127513
  C     -0.590049   -1.641936   -0.562438
  C     -1.725759   -2.092154   -0.030702
  C     -3.614693    1.482497    0.947669
  C     -3.251873    2.401229    0.049456
  C     -1.869842    2.799880   -0.222773
  C     -0.786684    2.104079    0.152870
  C      0.569611    2.419205   -0.226395
  C      1.592272    1.615695    0.086907
  C      2.937611    1.854790   -0.472579
  C      4.070369   -1.655631   -1.739262
  C     -3.096293   -1.649912   -0.467591
  C     -4.019625   -1.448268    0.759533
  C     -5.221684   -0.494571    0.563077
  C     -4.985911    0.927658    1.145869
  C      0.911221   -2.931058    1.030120
  O      3.236396    2.856795   -1.067238
  O      3.866516    0.878581   -0.360120
  O     -3.038042   -0.527470   -1.343750
  O     -5.670679   -0.449600   -0.775240
  H      5.576631    1.517863    1.468601
  H      6.513773    0.364113    2.421078
  H      4.817922    0.654159    2.812193
  H      5.861398   -0.641730    0.230835
  H      5.104854   -1.513710    1.558182
  H      3.041276   -0.168576    1.234581
  H      3.431939   -2.398252    0.165826
  H      1.554722   -0.729080   -1.578877
  H      0.757294    3.296259   -0.838562
  H      1.402539    0.729618    0.672314
  H      3.976154   -0.761046   -2.356448
  H      3.705418   -2.508623   -2.313606
  H      5.130623   -1.813909   -1.538998
  H     -3.543701   -2.428794   -1.090177
  H     -3.427920   -1.108274    1.613525
  H     -4.391463   -2.440109    1.027826
  H     -6.067675   -0.902251    1.119118
  H     -5.188169    0.878902    2.221245
  H     -5.739958    1.578905    0.700097
  H      0.410230   -3.878748    0.816464
  H      0.442862   -2.517802    1.928278
  H      1.949747   -3.149713    1.267481
  H     -2.644925    0.224516   -0.885489
  H     -4.900257   -0.279412   -1.337378
  H     -0.908421    1.188706    0.725517
  H     -1.728980    3.690526   -0.828253
  H     -2.841766    1.061874    1.586465
  H     -4.018279    2.864158   -0.565893
  H     -1.710224   -2.813652    0.780883
  H     -0.654398   -0.938032   -1.386662

 Total Charge           Charge          ....    0
 Multiplicity           Mult            ....    1
 Number of Electrons    NEL             ....  188
 Basis Dimension        Dim             .... 1840

ORBITAL ENERGIES
----------------

  NO   OCC          E(Eh)            E(eV)
   0   2.0000     -20.590055      -560.2839
   1   2.0000     -20.570539      -559.7528
   2   2.0000     -20.541654      -558.9668
   3   2.0000     -20.525182      -558.5186
   4   2.0000     -11.375129      -309.5330
   5   2.0000     -11.302071      -307.5450
   6   2.0000     -11.299980      -307.4881
   7   2.0000     -11.289373      -307.1995
   8   2.0000     -11.266408      -306.5746
   9   2.0000     -11.263920      -306.5069
  10   2.0000     -11.254050      -306.2383
  11   2.0000     -11.252653      -306.2003
  12   2.0000     -11.249558      -306.1160
  13   2.0000     -11.248666      -306.0917
  14   2.0000     -11.245562      -306.0073
  15   2.0000     -11.241651      -305.9009
  16   2.0000     -11.240610      -305.8726
  17   2.0000     -11.238798      -305.8233
  18   2.0000     -11.237065      -305.7761
  19   2.0000     -11.236614      -305.7638
  20   2.0000     -11.236470      -305.7599
  21   2.0000     -11.234265      -305.6999
  22   2.0000     -11.230652      -305.6016
  23   2.0000     -11.218783      -305.2786
  24   2.0000     -11.216824      -305.2253
  25   2.0000      -1.447383       -39.3853
  26   2.0000      -1.385615       -37.7045
  27   2.0000      -1.351156       -36.7668
  28   2.0000      -1.350516       -36.7494
  29   2.0000      -1.140430       -31.0327
  30   2.0000      -1.138109       -30.9695
  31   2.0000      -1.103482       -30.0273
  32   2.0000      -1.101608       -29.9763
  33   2.0000      -1.071129       -29.1469
  34   2.0000      -1.054348       -28.6903
  35   2.0000      -1.034312       -28.1451
  36   2.0000      -1.006871       -27.3984
  37   2.0000      -0.971666       -26.4404
  38   2.0000      -0.952060       -25.9069
  39   2.0000      -0.942771       -25.6541
  40   2.0000      -0.907726       -24.7005
  41   2.0000      -0.887599       -24.1528
  42   2.0000      -0.850214       -23.1355
  43   2.0000      -0.838051       -22.8045
  44   2.0000      -0.822311       -22.3762
  45   2.0000      -0.797524       -21.7017
  46   2.0000      -0.784205       -21.3393
  47   2.0000      -0.753383       -20.5006
  48   2.0000      -0.746626       -20.3167
  49   2.0000      -0.728399       -19.8208
  50   2.0000      -0.711835       -19.3700
  51   2.0000      -0.704762       -19.1775
  52   2.0000      -0.684650       -18.6303
  53   2.0000      -0.676224       -18.4010
  54   2.0000      -0.674169       -18.3451
  55   2.0000      -0.659044       -17.9335
  56   2.0000      -0.653039       -17.7701
  57   2.0000      -0.644115       -17.5273
  58   2.0000      -0.637030       -17.3345
  59   2.0000      -0.629822       -17.1383
  60   2.0000      -0.617983       -16.8162
  61   2.0000      -0.609810       -16.5938
  62   2.0000      -0.607266       -16.5245
  63   2.0000      -0.597638       -16.2626
  64   2.0000      -0.588484       -16.0135
  65   2.0000      -0.584727       -15.9112
  66   2.0000      -0.579352       -15.7650
  67   2.0000      -0.573256       -15.5991
  68   2.0000      -0.566017       -15.4021
  69   2.0000      -0.563691       -15.3388
  70   2.0000      -0.547961       -14.9108
  71   2.0000      -0.541746       -14.7417
  72   2.0000      -0.538991       -14.6667
  73   2.0000      -0.532136       -14.4801
  74   2.0000      -0.529351       -14.4044
  75   2.0000      -0.524889       -14.2830
  76   2.0000      -0.519045       -14.1239
  77   2.0000      -0.512084       -13.9345
  78   2.0000      -0.505822       -13.7641
  79   2.0000      -0.501919       -13.6579
  80   2.0000      -0.498391       -13.5619
  81   2.0000      -0.493791       -13.4367
  82   2.0000      -0.484526       -13.1846
  83   2.0000      -0.482536       -13.1305
  84   2.0000      -0.478647       -13.0247
  85   2.0000      -0.469201       -12.7676
  86   2.0000      -0.446442       -12.1483
  87   2.0000      -0.444903       -12.1064
  88   2.0000      -0.440160       -11.9774
  89   2.0000      -0.436230       -11.8704
  90   2.0000      -0.418591       -11.3905
  91   2.0000      -0.400127       -10.8880
  92   2.0000      -0.323176        -8.7941
  93   2.0000      -0.309245        -8.4150
  94   0.0000       0.017172         0.4673
  95   0.0000       0.024268         0.6604
  96   0.0000       0.027903         0.7593
  97   0.0000       0.029594         0.8053
  98   0.0000       0.033596         0.9142

MULLIKEN ATOMIC CHARGES
-----------------------
   0 C :   -1.077025
   1 C :   -0.871808
   2 C :    1.373222
   3 C :    0.300814
   4 C :   -1.072716
   5 C :    1.894377
   6 C :    0.153857
   7 C :   -0.639207
   8 C :   -0.148608
   9 C :   -0.238440
  10 C :   -0.686104
  11 C :    0.753749
  12 C :   -0.456016
  13 C :    0.347743
  14 C :    0.765382
  15 C :   -1.296485
  16 C :    1.181792
  17 C :   -0.545452
  18 C :    0.403716
  19 C :   -0.542865
  20 C :   -1.165321
  21 O :   -1.236742
  22 O :   -0.840498
  23 O :   -0.942394
  24 O :   -0.990259
  25 H :    0.308397
  26 H :    0.293136
  27 H :    0.255112
  28 H :    0.269738
  29 H :    0.205140
  30 H :    0.370571
  31 H :    0.241501
  32 H :   -0.383696
  33 H :   -0.180524
  34 H :    0.353929
  35 H :    0.323972
  36 H :    0.242656
  37 H :    0.260935
  38 H :    0.482176
  39 H :    0.184802
  40 H :    0.313005
  41 H :    0.304087
  42 H :    0.173319
  43 H :    0.250102
  44 H :    0.113695
  45 H :    0.120814
  46 H :    0.361317
  47 H :    0.429028
  48 H :    0.272670
  49 H :    0.008408
  50 H :    0.261537
  51 H :    0.256422
  52 H :    0.190390
  53 H :   -0.300222
  54 H :   -0.407124
Sum of atomic charges:    0.0000000

LOEWDIN ATOMIC CHARGES
----------------------
   0 C :    0.593811
   1 C :    0.276938
   2 C :   -0.213920
   3 C :   -0.012014
   4 C :    0.235773
   5 C :   -0.091275
   6 C :    0.212185
   7 C :    0.255296
   8 C :    0.209269
   9 C :    0.214686
  10 C :    0.224245
  11 C :    0.195849
  12 C :    0.214847
  13 C :    0.205196
  14 C :   -0.826760
  15 C :    0.606580
  16 C :   -0.221008
  17 C :    0.326442
  18 C :   -0.215002
  19 C :    0.300533
  20 C :    0.580754
  21 O :    0.443151
  22 O :    0.614395
  23 O :    0.898801
  24 O :    0.853867
  25 H :   -0.170154
  26 H :   -0.167145
  27 H :   -0.164852
  28 H :   -0.149566
  29 H :   -0.137257
  30 H :   -0.165732
  31 H :   -0.169974
  32 H :   -0.170220
  33 H :   -0.171657
  34 H :   -0.249046
  35 H :   -0.160953
  36 H :   -0.155426
  37 H :   -0.166800
  38 H :   -0.138322
  39 H :   -0.171082
  40 H :   -0.140175
  41 H :   -0.151082
  42 H :   -0.147207
  43 H :   -0.153061
  44 H :   -0.159386
  45 H :   -0.157629
  46 H :   -0.188926
  47 H :   -0.545882
  48 H :   -0.622528
  49 H :   -0.200870
  50 H :   -0.176761
  51 H :   -0.182419
  52 H :   -0.173382
  53 H :   -0.181047
  54 H :   -0.194098

  Mayer bond orders larger than 0.100000
B(  0-C ,  1-C ) :   0.7802 B(  0-C , 25-H ) :   0.9521 B(  0-C , 26-H ) :   1.0001
B(  0-C , 27-H ) :   1.0017 B(  1-C ,  2-C ) :   0.4145 B(  1-C , 28-H ) :   1.1036
B(  1-C , 29-H ) :   1.0660 B(  2-C ,  3-C ) :   1.0746 B(  2-C , 14-C ) :  -0.1153
B(  2-C , 22-O ) :  -0.3332 B(  2-C , 28-H ) :  -0.1279 B(  2-C , 30-H ) :   0.9138
B(  3-C ,  4-C ) :   0.6660 B(  3-C , 15-C ) :   0.4454 B(  3-C , 22-O ) :   0.3229
B(  3-C , 30-H ) :   0.1080 B(  3-C , 31-H ) :   0.9326 B(  3-C , 32-H ) :  -0.1113
B(  4-C ,  5-C ) :   1.2453 B(  4-C ,  6-C ) :   0.3404 B(  4-C ,  7-C ) :   0.1908
B(  4-C , 14-C ) :   0.1082 B(  4-C , 20-C ) :   0.1181 B(  4-C , 32-H ) :   2.6208
B(  4-C , 36-H ) :  -0.1096 B(  4-C , 46-H ) :   0.1389 B(  4-C , 54-H ) :  -0.2799
B(  5-C ,  6-C ) :   0.3354 B(  5-C ,  7-C ) :   0.3722 B(  5-C , 13-C ) :  -0.1045
B(  5-C , 20-C ) :   0.2368 B(  5-C , 32-H ) :  -0.6836 B(  5-C , 44-H ) :  -0.2386
B(  5-C , 45-H ) :  -0.2158 B(  5-C , 54-H ) :  -0.1065 B(  6-C ,  7-C ) :   1.1861
B(  6-C , 23-O ) :  -0.1581 B(  6-C , 32-H ) :  -0.3419 B(  6-C , 38-H ) :   0.1360
B(  6-C , 53-H ) :  -0.4217 B(  6-C , 54-H ) :   2.0659 B(  7-C , 16-C ) :   0.2535
B(  7-C , 20-C ) :  -0.2423 B(  7-C , 23-O ) :   0.1017 B(  7-C , 38-H ) :  -0.3981
B(  7-C , 53-H ) :   2.0927 B(  8-C ,  9-C ) :   1.5031 B(  8-C , 10-C ) :   0.1359
B(  8-C , 11-C ) :  -0.1148 B(  8-C , 19-C ) :   0.7231 B(  8-C , 42-H ) :  -0.1372
B(  8-C , 51-H ) :   1.1333 B(  9-C , 10-C ) :   0.7343 B(  9-C , 11-C ) :  -0.1448
B(  9-C , 34-H ) :   0.1393 B(  9-C , 52-H ) :   1.1047 B( 10-C , 11-C ) :   0.4620
B( 10-C , 13-C ) :   0.3067 B( 10-C , 14-C ) :   0.1208 B( 10-C , 33-H ) :  -0.2118
B( 10-C , 34-H ) :   0.1055 B( 10-C , 50-H ) :   1.0729 B( 10-C , 52-H ) :  -0.1557
B( 11-C , 13-C ) :   0.1108 B( 11-C , 33-H ) :  -0.2229 B( 11-C , 34-H ) :  -0.4231
B( 11-C , 49-H ) :   1.7656 B( 11-C , 50-H ) :  -0.1272 B( 11-C , 51-H ) :  -0.1370
B( 12-C , 13-C ) :   0.9296 B( 12-C , 33-H ) :   1.9935 B( 12-C , 49-H ) :   0.2618
B( 12-C , 50-H ) :  -0.1464 B( 13-C , 14-C ) :   0.2493 B( 13-C , 21-O ) :  -0.2220
B( 13-C , 22-O ) :  -0.1392 B( 13-C , 30-H ) :  -0.2323 B( 13-C , 32-H ) :  -0.1006
B( 13-C , 33-H ) :  -0.2753 B( 13-C , 34-H ) :   1.2258 B( 13-C , 49-H ) :  -0.2673
B( 14-C , 21-O ) :   0.6520 B( 14-C , 22-O ) :   1.2998 B( 15-C , 35-H ) :   1.0000
B( 15-C , 36-H ) :   1.0939 B( 15-C , 37-H ) :   1.0514 B( 16-C , 17-C ) :   0.8781
B( 16-C , 23-O ) :   0.3490 B( 16-C , 38-H ) :   0.9270 B( 16-C , 47-H ) :   0.1444
B( 16-C , 53-H ) :  -0.2713 B( 16-C , 54-H ) :  -0.2480 B( 17-C , 18-C ) :   0.9373
B( 17-C , 24-O ) :   0.1444 B( 17-C , 39-H ) :   1.0902 B( 17-C , 40-H ) :   0.8557
B( 18-C , 19-C ) :   0.9760 B( 18-C , 24-O ) :   0.1374 B( 18-C , 41-H ) :   1.0061
B( 19-C , 24-O ) :   0.2093 B( 19-C , 42-H ) :   1.1331 B( 19-C , 43-H ) :   0.9874
B( 20-C , 44-H ) :   1.3278 B( 20-C , 45-H ) :   1.2869 B( 20-C , 46-H ) :   0.8363
B( 20-C , 53-H ) :  -0.1755 B( 21-O , 22-O ) :  -0.1071 B( 21-O , 33-H ) :   0.1730
B( 23-O , 47-H ) :   0.6022 B( 24-O , 48-H ) :   0.8359 B( 32-H , 54-H ) :  -0.1257
B( 34-H , 49-H ) :  -0.1480 B( 38-H , 54-H ) :  -0.1200 B( 44-H , 45-H ) :   0.1228
B( 53-H , 54-H ) :   0.2434

MP2 TOTAL ENERGY:    -1116.962756173 Eh
FINAL SINGLE POINT ENERGY     -1116.962756173476

DIPOLE MOMENT
-------------
                                X             Y             Z
Electronic contribution:     -6.32465      11.79922      -8.03504
Nuclear contribution   :      5.99824     -13.14474       9.75694
                        -----------------------------------------
Total Dipole Moment    :     -0.32642      -1.34552       1.72190
                        -----------------------------------------
Magnitude (a.u.)       :      2.20951
Magnitude (Debye)      :      5.61613

Rotational constants in cm-1:     0.012557     0.003753     0.003210
Rotational constants in MHz :   376.459481   112.519173    96.246754

                             ****ORCA TERMINATED NORMALLY****
TOTAL RUN TIME: 0 days 2 hours 14 minutes 47 seconds 7 msec
