                         Program Version 4.2.1 -  RELEASE  -
|  1> %pal
|  2>  nprocs 32
|  3> end
|  4> !RI-MP2 aug-cc-pVTZ aug-cc-pVTZ/C TightSCF
|  5> %maxcore 4500
|  6> *xyzfile 1 1  05_14P1.xyz
|  7>
|  8>
|  9>                          ****END OF INPUT****

CARTESIAN COORDINATES (ANGSTROEM)
---------------------------------
  C     -2.829718   -0.669194   -0.000011
  C     -1.622558   -0.000005    0.000006
  C     -2.829711    0.669197    0.000005
  C     -0.212886   -0.000003    0.000004
  C      0.483426   -1.220956   -0.000003
  C      0.483421    1.220953    0.000008
  C      1.861877   -1.214142   -0.000007
  H     -0.062520   -2.156461   -0.000005
  C      1.861871    1.214145    0.000003
  H     -0.062529    2.156456    0.000013
  C      2.545113    0.000003   -0.000004
  H      2.411137   -2.146261   -0.000013
  H      2.411127    2.146267    0.000006
  H      3.628431    0.000005   -0.000007
  H     -3.385319    1.594353    0.000004
  H     -3.385333   -1.594346   -0.000002

 Total Charge           Charge          ....    1
 Multiplicity           Mult            ....    1
 Number of Electrons    NEL             ....   60
 Basis Dimension        Dim             ....  575

ORBITAL ENERGIES
----------------

  NO   OCC          E(Eh)            E(eV)
   0   2.0000     -11.515551      -313.3541
   1   2.0000     -11.504646      -313.0573
   2   2.0000     -11.503043      -313.0137
   3   2.0000     -11.417562      -310.6876
   4   2.0000     -11.411053      -310.5105
   5   2.0000     -11.410936      -310.5073
   6   2.0000     -11.401530      -310.2514
   7   2.0000     -11.382938      -309.7455
   8   2.0000     -11.382889      -309.7441
   9   2.0000      -1.459189       -39.7066
  10   2.0000      -1.323824       -36.0231
  11   2.0000      -1.206307       -32.8253
  12   2.0000      -1.182374       -32.1740
  13   2.0000      -1.047240       -28.4968
  14   2.0000      -1.020805       -27.7775
  15   2.0000      -0.984278       -26.7836
  16   2.0000      -0.965713       -26.2784
  17   2.0000      -0.905604       -24.6427
  18   2.0000      -0.837431       -22.7877
  19   2.0000      -0.802431       -21.8352
  20   2.0000      -0.777789       -21.1647
  21   2.0000      -0.751583       -20.4516
  22   2.0000      -0.739168       -20.1138
  23   2.0000      -0.733192       -19.9512
  24   2.0000      -0.711410       -19.3585
  25   2.0000      -0.666036       -18.1238
  26   2.0000      -0.654950       -17.8221
  27   2.0000      -0.649659       -17.6781
  28   2.0000      -0.504983       -13.7413
  29   2.0000      -0.496581       -13.5127
  30   0.0000      -0.115310        -3.1377
  31   0.0000      -0.085548        -2.3279
  32   0.0000      -0.080787        -2.1983
  33   0.0000      -0.068485        -1.8636
  34   0.0000      -0.059927        -1.6307

MULLIKEN ATOMIC CHARGES
-----------------------
   0 C :   -0.698808
   1 C :    1.755861
   2 C :   -0.698815
   3 C :    2.230695
   4 C :   -1.198675
   5 C :   -1.198678
   6 C :   -0.720335
   7 H :   -0.207056
   8 C :   -0.720345
   9 H :   -0.207056
  10 C :    0.102360
  11 H :    0.645149
  12 H :    0.645149
  13 H :    0.345444
  14 H :    0.462557
  15 H :    0.462553
Sum of atomic charges:    1.0000000

LOEWDIN ATOMIC CHARGES
----------------------
   0 C :    0.444431
   1 C :    0.003711
   2 C :    0.444430
   3 C :   -0.115043
   4 C :    0.241558
   5 C :    0.241557
   6 C :    0.250030
   7 H :   -0.153155
   8 C :    0.250030
   9 H :   -0.153155
  10 C :    0.258932
  11 H :   -0.165127
  12 H :   -0.165126
  13 H :   -0.151261
  14 H :   -0.115906
  15 H :   -0.115906

  Mayer bond orders larger than 0.100000
B(  0-C ,  1-C ) :   0.4868 B(  0-C ,  2-C ) :   1.2946 B(  0-C ,  3-C ) :   0.1458
B(  0-C ,  7-H ) :  -0.1325 B(  0-C ,  9-H ) :  -0.1822 B(  0-C , 11-H ) :   0.1403
B(  0-C , 12-H ) :   0.1439 B(  0-C , 13-H ) :  -0.1039 B(  0-C , 15-H ) :   1.0117
B(  1-C ,  2-C ) :   0.4867 B(  1-C ,  3-C ) :   0.2985 B(  1-C ,  4-C ) :   0.2388
B(  1-C ,  5-C ) :   0.2388 B(  1-C ,  7-H ) :  -0.5179 B(  1-C ,  9-H ) :  -0.5179
B(  1-C , 10-C ) :   0.2425 B(  1-C , 11-H ) :   0.4911 B(  1-C , 12-H ) :   0.4910
B(  1-C , 13-H ) :  -0.4006 B(  2-C ,  3-C ) :   0.1458 B(  2-C ,  7-H ) :  -0.1822
B(  2-C ,  9-H ) :  -0.1325 B(  2-C , 11-H ) :   0.1439 B(  2-C , 12-H ) :   0.1403
B(  2-C , 13-H ) :  -0.1039 B(  2-C , 14-H ) :   1.0117 B(  3-C ,  4-C ) :  -0.1776
B(  3-C ,  5-C ) :  -0.1777 B(  3-C ,  6-C ) :   0.2850 B(  3-C ,  7-H ) :  -0.3167
B(  3-C ,  8-C ) :   0.2849 B(  3-C ,  9-H ) :  -0.3167 B(  3-C , 10-C ) :   0.1020
B(  3-C , 11-H ) :  -0.3582 B(  3-C , 12-H ) :  -0.3582 B(  3-C , 13-H ) :   0.2672
B(  4-C ,  5-C ) :  -0.4765 B(  4-C ,  6-C ) :   1.4235 B(  4-C ,  7-H ) :   2.3343
B(  4-C ,  8-C ) :   0.1214 B(  4-C ,  9-H ) :   0.4430 B(  4-C , 10-C ) :  -0.4173
B(  4-C , 11-H ) :  -0.1885 B(  4-C , 12-H ) :  -0.1921 B(  4-C , 13-H ) :   0.2534
B(  5-C ,  6-C ) :   0.1214 B(  5-C ,  7-H ) :   0.4430 B(  5-C ,  8-C ) :   1.4235
B(  5-C ,  9-H ) :   2.3343 B(  5-C , 10-C ) :  -0.4173 B(  5-C , 11-H ) :  -0.1921
B(  5-C , 12-H ) :  -0.1885 B(  5-C , 13-H ) :   0.2534 B(  6-C ,  7-H ) :  -0.1074
B(  6-C ,  8-C ) :   0.2554 B(  6-C , 10-C ) :   1.0821 B(  6-C , 11-H ) :   0.4471
B(  6-C , 13-H ) :  -0.1654 B(  7-H ,  9-H ) :   0.3237 B(  7-H , 10-C ) :  -0.1017
B(  7-H , 12-H ) :  -0.1259 B(  7-H , 13-H ) :   0.1242 B(  8-C ,  9-H ) :  -0.1074
B(  8-C , 10-C ) :   1.0821 B(  8-C , 12-H ) :   0.4471 B(  8-C , 13-H ) :  -0.1654
B(  9-H , 10-C ) :  -0.1017 B(  9-H , 11-H ) :  -0.1260 B(  9-H , 13-H ) :   0.1242
B( 10-C , 11-H ) :   0.1253 B( 10-C , 12-H ) :   0.1253 B( 10-C , 13-H ) :   0.9715

MP2 TOTAL ENERGY:     -346.080559023 Eh
FINAL SINGLE POINT ENERGY      -346.080559022608

DIPOLE MOMENT
-------------
                                X             Y             Z
Electronic contribution:     -3.77411      -0.00001       0.00000
Nuclear contribution   :      1.54699       0.00001      -0.00000
                        -----------------------------------------
Total Dipole Moment    :     -2.22712       0.00000       0.00000
                        -----------------------------------------
Magnitude (a.u.)       :      2.22712
Magnitude (Debye)      :      5.66090

Rotational constants in cm-1:     0.159386     0.038375     0.030928
Rotational constants in MHz :  4778.278722  1150.447770   927.207573

                             ****ORCA TERMINATED NORMALLY****
TOTAL RUN TIME: 0 days 0 hours 3 minutes 8 seconds 739 msec
