                         Program Version 4.2.1 -  RELEASE  -
|  1> %pal
|  2>  nprocs 32
|  3> end
|  4> !RI-MP2 aug-cc-pVTZ aug-cc-pVTZ/C TightSCF
|  5> %maxcore 4500
|  6> *xyzfile 0 1  02_17TS.xyz
|  7>
|  8>
|  9>                          ****END OF INPUT****

CARTESIAN COORDINATES (ANGSTROEM)
---------------------------------
  C      2.015726   -1.055015    0.309805
  C      0.593081   -1.206975   -0.157600
  C     -0.342686    0.710203    0.734776
  C      2.631363    0.230356   -0.240560
  H      2.035543   -1.019315    1.403286
  C      1.993017    1.522939    0.256820
  H      3.688544    0.253628    0.029668
  H      2.576588    0.236171   -1.333164
  C      0.501924    1.669063   -0.054888
  H      2.120949    1.583228    1.349852
  C     -0.270233   -2.213947    0.214970
  C     -1.621969   -2.114852   -0.184157
  C     -1.712070    0.565171    0.626291
  C     -2.070401   -1.004489   -0.851618
  C      0.134017   -3.260454    1.218679
  H     -0.719799   -3.868705    1.519227
  H      0.558521   -2.803166    2.117069
  H      0.906875   -3.915736    0.814643
  H      0.180000    2.684690    0.187083
  H      0.341549    1.562102   -1.132870
  C     -3.484952   -0.585615   -1.053396
  H     -3.854535   -0.804641   -2.056782
  H     -4.162034   -1.040909   -0.327323
  C     -2.541876    1.456100   -0.253445
  O      2.833294   -2.190660    0.021436
  O      2.743795    2.565272   -0.342742
  O     -2.404407    2.643264   -0.345963
  O     -3.545126    0.848254   -0.937205
  C      2.913658   -2.570420   -1.335784
  H      3.378008   -1.796377   -1.955583
  H      3.538900   -3.461459   -1.368870
  H      1.928090   -2.813998   -1.747815
  C      2.650175    3.815549    0.299809
  H      2.923498    3.735200    1.359779
  H      1.647872    4.250481    0.225791
  H      3.354628    4.480644   -0.197549
  C     -2.442321    0.003866    1.827123
  H     -2.497668    0.756499    2.618211
  H     -1.900200   -0.858632    2.219135
  H     -3.461985   -0.309052    1.601578
  H      0.373050   -0.679260   -1.074427
  H      0.077879    0.407641    1.688628
  H     -1.392493   -0.495318   -1.527207
  H     -2.340945   -2.781629    0.282478

 Total Charge           Charge          ....    0
 Multiplicity           Mult            ....    1
 Number of Electrons    NEL             ....  152
 Basis Dimension        Dim             .... 1472

ORBITAL ENERGIES
----------------

  NO   OCC          E(Eh)            E(eV)
   0   2.0000     -20.599032      -560.5282
   1   2.0000     -20.556994      -559.3843
   2   2.0000     -20.556537      -559.3718
   3   2.0000     -20.539663      -558.9126
   4   2.0000     -11.379005      -309.6385
   5   2.0000     -11.306822      -307.6743
   6   2.0000     -11.289615      -307.2060
   7   2.0000     -11.286797      -307.1294
   8   2.0000     -11.269528      -306.6594
   9   2.0000     -11.268863      -306.6413
  10   2.0000     -11.261560      -306.4426
  11   2.0000     -11.257897      -306.3430
  12   2.0000     -11.256064      -306.2931
  13   2.0000     -11.247581      -306.0622
  14   2.0000     -11.239833      -305.8514
  15   2.0000     -11.236756      -305.7677
  16   2.0000     -11.236511      -305.7610
  17   2.0000     -11.230220      -305.5898
  18   2.0000     -11.226832      -305.4976
  19   2.0000     -11.222547      -305.3810
  20   2.0000      -1.456514       -39.6338
  21   2.0000      -1.378913       -37.5221
  22   2.0000      -1.374457       -37.4009
  23   2.0000      -1.362681       -37.0804
  24   2.0000      -1.149782       -31.2871
  25   2.0000      -1.106674       -30.1141
  26   2.0000      -1.087933       -29.6042
  27   2.0000      -1.048279       -28.5251
  28   2.0000      -1.014454       -27.6047
  29   2.0000      -0.979546       -26.6548
  30   2.0000      -0.960506       -26.1367
  31   2.0000      -0.934510       -25.4293
  32   2.0000      -0.919161       -25.0116
  33   2.0000      -0.913854       -24.8672
  34   2.0000      -0.868935       -23.6449
  35   2.0000      -0.838591       -22.8192
  36   2.0000      -0.809094       -22.0166
  37   2.0000      -0.792434       -21.5632
  38   2.0000      -0.743361       -20.2279
  39   2.0000      -0.731266       -19.8988
  40   2.0000      -0.691155       -18.8073
  41   2.0000      -0.690339       -18.7851
  42   2.0000      -0.679183       -18.4815
  43   2.0000      -0.672796       -18.3077
  44   2.0000      -0.659934       -17.9577
  45   2.0000      -0.651392       -17.7253
  46   2.0000      -0.645846       -17.5744
  47   2.0000      -0.638961       -17.3870
  48   2.0000      -0.622837       -16.9482
  49   2.0000      -0.618405       -16.8276
  50   2.0000      -0.615197       -16.7404
  51   2.0000      -0.599246       -16.3063
  52   2.0000      -0.593277       -16.1439
  53   2.0000      -0.588188       -16.0054
  54   2.0000      -0.581103       -15.8126
  55   2.0000      -0.573370       -15.6022
  56   2.0000      -0.565036       -15.3754
  57   2.0000      -0.558137       -15.1877
  58   2.0000      -0.544220       -14.8090
  59   2.0000      -0.539758       -14.6876
  60   2.0000      -0.534733       -14.5508
  61   2.0000      -0.529543       -14.4096
  62   2.0000      -0.522846       -14.2274
  63   2.0000      -0.511668       -13.9232
  64   2.0000      -0.504272       -13.7219
  65   2.0000      -0.502778       -13.6813
  66   2.0000      -0.484997       -13.1974
  67   2.0000      -0.471020       -12.8171
  68   2.0000      -0.463603       -12.6153
  69   2.0000      -0.456791       -12.4299
  70   2.0000      -0.450552       -12.2601
  71   2.0000      -0.436651       -11.8819
  72   2.0000      -0.427532       -11.6337
  73   2.0000      -0.416812       -11.3420
  74   2.0000      -0.315880        -8.5955
  75   2.0000      -0.309272        -8.4157
  76   0.0000       0.021913         0.5963
  77   0.0000       0.027125         0.7381
  78   0.0000       0.029526         0.8034
  79   0.0000       0.032124         0.8741
  80   0.0000       0.039012         1.0616

MULLIKEN ATOMIC CHARGES
-----------------------
   0 C :    0.457160
   1 C :    0.047361
   2 C :   -0.380515
   3 C :   -0.600684
   4 H :    0.389515
   5 C :    0.636159
   6 H :    0.379960
   7 H :    0.030072
   8 C :   -0.655859
   9 H :    0.198838
  10 C :    0.801981
  11 C :   -0.718183
  12 C :    1.048456
  13 C :    0.189778
  14 C :   -1.183714
  15 H :    0.171075
  16 H :    0.229972
  17 H :    0.274066
  18 H :    0.392501
  19 H :    0.078266
  20 C :   -0.377502
  21 H :    0.428520
  22 H :    0.202252
  23 C :    0.661055
  24 O :   -1.005690
  25 O :   -0.926793
  26 O :   -1.161050
  27 O :   -0.553131
  28 C :   -1.033410
  29 H :    0.341460
  30 H :    0.350983
  31 H :    0.400534
  32 C :   -1.086256
  33 H :    0.321445
  34 H :    0.374257
  35 H :    0.346367
  36 C :   -1.127233
  37 H :    0.210855
  38 H :    0.387666
  39 H :    0.282704
  40 H :    0.330320
  41 H :    0.458892
  42 H :    0.362641
  43 H :    0.024906
Sum of atomic charges:    0.0000000

LOEWDIN ATOMIC CHARGES
----------------------
   0 C :   -0.248133
   1 C :    0.178491
   2 C :    0.203387
   3 C :    0.304314
   4 H :   -0.146885
   5 C :   -0.255319
   6 H :   -0.130320
   7 H :   -0.147648
   8 C :    0.298377
   9 H :   -0.132137
  10 C :   -0.098998
  11 C :    0.224274
  12 C :   -0.163987
  13 C :    0.139853
  14 C :    0.594227
  15 H :   -0.172863
  16 H :   -0.158893
  17 H :   -0.165110
  18 H :   -0.169070
  19 H :   -0.127050
  20 C :    0.081763
  21 H :   -0.144358
  22 H :   -0.158706
  23 C :   -0.801124
  24 O :    0.584361
  25 O :    0.588988
  26 O :    0.470321
  27 O :    0.597047
  28 C :    0.327709
  29 H :   -0.179071
  30 H :   -0.179048
  31 H :   -0.178029
  32 C :    0.334147
  33 H :   -0.172072
  34 H :   -0.183218
  35 H :   -0.181529
  36 C :    0.586080
  37 H :   -0.144059
  38 H :   -0.162468
  39 H :   -0.176645
  40 H :   -0.224850
  41 H :   -0.157468
  42 H :   -0.188655
  43 H :   -0.165627

  Mayer bond orders larger than 0.100000
B(  0-C ,  1-C ) :   0.8729 B(  0-C ,  3-C ) :   1.1538 B(  0-C ,  4-H ) :   0.9355
B(  0-C , 11-C ) :  -0.1109 B(  0-C , 24-O ) :  -0.4804 B(  0-C , 28-C ) :  -0.2141
B(  1-C ,  3-C ) :  -0.2470 B(  1-C , 10-C ) :   2.0762 B(  1-C , 11-C ) :  -0.1342
B(  1-C , 12-C ) :   0.4646 B(  1-C , 14-C ) :   0.4811 B(  1-C , 24-O ) :   0.2615
B(  1-C , 40-H ) :   1.0728 B(  1-C , 41-H ) :  -0.2362 B(  1-C , 42-H ) :  -0.2633
B(  2-C ,  5-C ) :  -0.1716 B(  2-C ,  8-C ) :   0.8160 B(  2-C , 10-C ) :   0.3130
B(  2-C , 12-C ) :   1.6084 B(  2-C , 19-H ) :  -0.1105 B(  2-C , 23-C ) :   0.1862
B(  2-C , 26-O ) :   0.1891 B(  2-C , 36-C ) :   0.2386 B(  2-C , 38-H ) :   0.1020
B(  2-C , 40-H ) :   0.1126 B(  2-C , 41-H ) :   0.5594 B(  3-C ,  5-C ) :   0.8243
B(  3-C ,  6-H ) :   0.8577 B(  3-C ,  7-H ) :   1.1783 B(  3-C , 10-C ) :   0.1526
B(  3-C , 24-O ) :   0.3354 B(  3-C , 40-H ) :  -0.1121 B(  4-H , 24-O ) :  -0.2796
B(  5-C ,  6-H ) :  -0.1294 B(  5-C ,  8-C ) :   1.0515 B(  5-C ,  9-H ) :   1.2015
B(  5-C , 19-H ) :   0.1330 B(  5-C , 32-C ) :  -0.1954 B(  8-C , 12-C ) :   0.2356
B(  8-C , 18-H ) :   0.8236 B(  8-C , 19-H ) :   1.2156 B(  8-C , 23-C ) :  -0.2036
B(  8-C , 25-O ) :   0.3189 B(  9-H , 25-O ) :  -0.1896 B( 10-C , 11-C ) :   0.7588
B( 10-C , 12-C ) :  -0.3649 B( 10-C , 16-H ) :  -0.1540 B( 10-C , 17-H ) :  -0.1311
B( 10-C , 40-H ) :   0.1438 B( 10-C , 41-H ) :   0.1842 B( 11-C , 12-C ) :   0.4006
B( 11-C , 13-C ) :   1.1206 B( 11-C , 14-C ) :  -0.2494 B( 11-C , 41-H ) :  -0.1989
B( 11-C , 43-H ) :   1.2845 B( 12-C , 13-C ) :   0.2674 B( 12-C , 26-O ) :   0.2332
B( 12-C , 27-O ) :  -0.1346 B( 12-C , 36-C ) :   0.2774 B( 12-C , 37-H ) :  -0.1286
B( 12-C , 38-H ) :  -0.1065 B( 12-C , 42-H ) :  -0.1335 B( 13-C , 20-C ) :   0.7051
B( 13-C , 21-H ) :  -0.1668 B( 13-C , 42-H ) :   1.0519 B( 13-C , 43-H ) :  -0.1082
B( 14-C , 15-H ) :   1.1372 B( 14-C , 16-H ) :   1.1172 B( 14-C , 17-H ) :   1.0862
B( 14-C , 40-H ) :  -0.1380 B( 20-C , 21-H ) :   0.9001 B( 20-C , 22-H ) :   1.1992
B( 20-C , 27-O ) :   0.6253 B( 23-C , 26-O ) :   0.6614 B( 23-C , 27-O ) :   0.8671
B( 23-C , 36-C ) :  -0.2277 B( 24-O , 28-C ) :   1.2022 B( 25-O , 32-C ) :   1.2276
B( 26-O , 27-O ) :  -0.2052 B( 27-O , 42-H ) :   0.1116 B( 28-C , 29-H ) :   0.9043
B( 28-C , 30-H ) :   0.9662 B( 28-C , 31-H ) :   0.8346 B( 32-C , 33-H ) :   0.9161
B( 32-C , 34-H ) :   0.8578 B( 32-C , 35-H ) :   0.9837 B( 36-C , 37-H ) :   1.1343
B( 36-C , 38-H ) :   0.9398 B( 36-C , 39-H ) :   1.0247 B( 36-C , 43-H ) :  -0.1050
B( 41-H , 43-H ) :   0.1516

MP2 TOTAL ENERGY:     -923.208581769 Eh
FINAL SINGLE POINT ENERGY      -923.208581769344

DIPOLE MOMENT
-------------
                                X             Y             Z
Electronic contribution:     -9.43361       5.46499      -4.20162
Nuclear contribution   :      9.46415      -6.75777       4.75454
                        -----------------------------------------
Total Dipole Moment    :      0.03054      -1.29278       0.55292
                        -----------------------------------------
Magnitude (a.u.)       :      1.40639
Magnitude (Debye)      :      3.57475

Rotational constants in cm-1:     0.013289     0.010136     0.006588
Rotational constants in MHz :   398.386664   303.857354   197.512371

                             ****ORCA TERMINATED NORMALLY****
TOTAL RUN TIME: 0 days 1 hours 19 minutes 25 seconds 332 msec
