                         Program Version 4.2.1 -  RELEASE  -
|  1> %pal
|  2>  nprocs 32
|  3> end
|  4> !RI-MP2 aug-cc-pVTZ aug-cc-pVTZ/C TightSCF
|  5> %maxcore 4500
|  6> *xyzfile -1 1  07_2R.xyz
|  7>
|  8>
|  9>                          ****END OF INPUT****

CARTESIAN COORDINATES (ANGSTROEM)
---------------------------------
  O      2.344375    0.735017   -0.000012
  H      1.291203    1.729454   -0.000119
  O      2.257963   -1.509466    0.000175
  O      0.310045    2.091195   -0.000173
  C      1.739619   -0.391046    0.000074
  C      0.219389   -0.290680    0.000040
  C     -0.411568    0.970166   -0.000078
  C     -1.809689    1.039702   -0.000132
  H     -2.274664    2.018914   -0.000232
  C     -2.567082   -0.119332   -0.000054
  H     -3.650494   -0.047894   -0.000093
  C     -1.951794   -1.368804    0.000071
  C     -0.564901   -1.435799    0.000111
  H     -2.547456   -2.274741    0.000128
  H     -0.041498   -2.384952    0.000204

 Total Charge           Charge          ....   -1
 Multiplicity           Mult            ....    1
 Number of Electrons    NEL             ....   72
 Basis Dimension        Dim             ....  575

ORBITAL ENERGIES
----------------

  NO   OCC          E(Eh)            E(eV)
   0   2.0000     -20.406398      -555.2863
   1   2.0000     -20.342241      -553.5405
   2   2.0000     -20.332117      -553.2650
   3   2.0000     -11.179955      -304.2221
   4   2.0000     -11.162635      -303.7507
   5   2.0000     -11.118115      -302.5393
   6   2.0000     -11.103747      -302.1483
   7   2.0000     -11.095981      -301.9370
   8   2.0000     -11.094082      -301.8853
   9   2.0000     -11.082904      -301.5811
  10   2.0000      -1.246806       -33.9273
  11   2.0000      -1.212127       -32.9836
  12   2.0000      -1.118800       -30.4441
  13   2.0000      -1.012719       -27.5575
  14   2.0000      -0.890165       -24.2226
  15   2.0000      -0.865365       -23.5478
  16   2.0000      -0.718722       -19.5574
  17   2.0000      -0.682451       -18.5704
  18   2.0000      -0.615434       -16.7468
  19   2.0000      -0.561185       -15.2706
  20   2.0000      -0.545180       -14.8351
  21   2.0000      -0.510273       -13.8852
  22   2.0000      -0.474666       -12.9163
  23   2.0000      -0.460642       -12.5347
  24   2.0000      -0.443967       -12.0810
  25   2.0000      -0.442432       -12.0392
  26   2.0000      -0.414536       -11.2801
  27   2.0000      -0.399406       -10.8684
  28   2.0000      -0.394694       -10.7402
  29   2.0000      -0.356926        -9.7124
  30   2.0000      -0.342234        -9.3127
  31   2.0000      -0.256767        -6.9870
  32   2.0000      -0.246678        -6.7124
  33   2.0000      -0.244940        -6.6652
  34   2.0000      -0.208903        -5.6845
  35   2.0000      -0.170072        -4.6279
  36   0.0000       0.102992         2.8025
  37   0.0000       0.109958         2.9921
  38   0.0000       0.121302         3.3008
  39   0.0000       0.137096         3.7306
  40   0.0000       0.146325         3.9817

MULLIKEN ATOMIC CHARGES
-----------------------
   0 O :   -0.691686
   1 H :    0.218295
   2 O :   -0.902992
   3 O :   -0.987284
   4 C :    0.453049
   5 C :    1.310173
   6 C :    0.511667
   7 C :   -0.913872
   8 H :    0.548562
   9 C :   -0.302496
  10 H :    0.359212
  11 C :   -0.434099
  12 C :   -0.844897
  13 H :    0.562607
  14 H :    0.113760
Sum of atomic charges:   -1.0000000

LOEWDIN ATOMIC CHARGES
----------------------
   0 O :    0.478649
   1 H :   -0.843532
   2 O :    0.318416
   3 O :    0.784941
   4 C :   -1.032967
   5 C :   -0.128928
   6 C :   -0.413859
   7 C :    0.186342
   8 H :   -0.201504
   9 C :    0.141943
  10 H :   -0.195913
  11 C :    0.158285
  12 C :    0.160665
  13 H :   -0.211119
  14 H :   -0.201418

  Mayer bond orders larger than 0.100000
B(  0-O ,  1-H ) :   0.2876 B(  0-O ,  4-C ) :   1.2561 B(  1-H ,  3-O ) :   0.7862
B(  2-O ,  4-C ) :   1.3387 B(  3-O ,  5-C ) :  -0.1667 B(  3-O ,  6-C ) :   0.5752
B(  3-O ,  7-C ) :   0.1690 B(  4-C ,  5-C ) :   0.3084 B(  4-C ,  6-C ) :   0.2041
B(  5-C ,  6-C ) :   0.9290 B(  5-C , 12-C ) :   0.7471 B(  5-C , 14-H ) :  -0.1607
B(  6-C ,  7-C ) :   1.2421 B(  6-C ,  9-C ) :  -0.2489 B(  6-C , 10-H ) :   0.1683
B(  6-C , 11-C ) :   0.1216 B(  6-C , 12-C ) :  -0.1600 B(  6-C , 14-H ) :   0.1074
B(  7-C ,  8-H ) :   0.5084 B(  7-C ,  9-C ) :   1.2283 B(  7-C , 10-H ) :  -0.1273
B(  7-C , 12-C ) :   0.1261 B(  9-C , 10-H ) :   0.9349 B(  9-C , 11-C ) :   1.1422
B(  9-C , 12-C ) :  -0.2045 B( 10-H , 11-C ) :  -0.1899 B( 10-H , 12-C ) :   0.1422
B( 11-C , 12-C ) :   1.0830 B( 11-C , 13-H ) :   0.6588 B( 11-C , 14-H ) :  -0.1292
B( 12-C , 13-H ) :  -0.2106 B( 12-C , 14-H ) :   1.3969

MP2 TOTAL ENERGY:     -494.673421768 Eh
FINAL SINGLE POINT ENERGY      -494.673421767874

DIPOLE MOMENT
-------------
                                X             Y             Z
Electronic contribution:      4.13019       0.91521       0.00005
Nuclear contribution   :     -6.94896      -0.91265      -0.00011
                        -----------------------------------------
Total Dipole Moment    :     -2.81877       0.00256      -0.00006
                        -----------------------------------------
Magnitude (a.u.)       :      2.81877
Magnitude (Debye)      :      7.16475

Rotational constants in cm-1:     0.081188     0.041660     0.027532
Rotational constants in MHz :  2433.955771  1248.927838   825.395381

                             ****ORCA TERMINATED NORMALLY****
TOTAL RUN TIME: 0 days 0 hours 3 minutes 25 seconds 270 msec
