                         Program Version 4.2.1 -  RELEASE  -
|  1> %pal
|  2>  nprocs 32
|  3> end
|  4> !RI-MP2 aug-cc-pVTZ aug-cc-pVTZ/C TightSCF
|  5> %maxcore 4500
|  6> *xyzfile 0 1  10_85TS.xyz
|  7>
|  8>
|  9>                          ****END OF INPUT****

CARTESIAN COORDINATES (ANGSTROEM)
---------------------------------
  C      0.260416   -0.531762    0.445674
  C      1.458700    0.104545    0.179963
  C      2.598608   -0.622720   -0.500273
  C      2.403942   -2.151626   -0.511465
  C      0.966636   -2.449053   -0.960512
  C      0.209023   -2.043832    0.312876
  C      1.543971    1.510074    0.327651
  H      3.537645   -0.358264   -0.006407
  H      2.688079   -0.259565   -1.531380
  H      3.167306   -2.615417   -1.136897
  C      2.372197   -2.677197    0.911388
  H      0.668875   -1.878571   -1.842315
  H      0.837995   -3.513859   -1.159826
  C      1.132610   -2.616420    1.384610
  H     -0.814625   -2.407169    0.376903
  H      0.814195   -2.838359    2.394687
  H      3.254335   -2.964268    1.469267
  C      0.667651    2.143732    1.276035
  C      2.814871    2.156281    0.151051
  N     -0.063996    2.627030    2.017414
  N      3.827607    2.665709   -0.032698
  C      0.519860    2.281623   -1.422713
  H     -0.440114   -0.064635    1.126708
  C     -0.448400    1.332788   -1.527187
  H      0.267894    3.247747   -0.999921
  H      1.325563    2.290817   -2.150054
  C     -0.986138    0.260735   -1.227534
  C     -2.092300   -0.696492   -1.356583
  O     -2.803271   -0.824436   -0.118471
  H     -2.770636   -0.350759   -2.136673
  H     -1.740582   -1.697543   -1.595599
  C     -3.790834    0.080881    0.104287
  C     -4.333516   -0.053163    1.492801
  O     -4.143019    0.876483   -0.718791
  H     -3.635571    0.424665    2.184317
  H     -5.294728    0.450372    1.556468
  H     -4.424369   -1.101123    1.775381

 Total Charge           Charge          ....    0
 Multiplicity           Mult            ....    1
 Number of Electrons    NEL             ....  148
 Basis Dimension        Dim             .... 1334

ORBITAL ENERGIES
----------------

  NO   OCC          E(Eh)            E(eV)
   0   2.0000     -20.621569      -561.1414
   1   2.0000     -20.557504      -559.3981
   2   2.0000     -15.582466      -424.0205
   3   2.0000     -15.580225      -423.9595
   4   2.0000     -11.393392      -310.0300
   5   2.0000     -11.331484      -308.3454
   6   2.0000     -11.331361      -308.3420
   7   2.0000     -11.300162      -307.4930
   8   2.0000     -11.289775      -307.2104
   9   2.0000     -11.288573      -307.1777
  10   2.0000     -11.279628      -306.9343
  11   2.0000     -11.278193      -306.8952
  12   2.0000     -11.272513      -306.7407
  13   2.0000     -11.258108      -306.3487
  14   2.0000     -11.256618      -306.3082
  15   2.0000     -11.254782      -306.2582
  16   2.0000     -11.253371      -306.2198
  17   2.0000     -11.249625      -306.1179
  18   2.0000     -11.244017      -305.9653
  19   2.0000     -11.240919      -305.8810
  20   2.0000     -11.239401      -305.8396
  21   2.0000      -1.479613       -40.2623
  22   2.0000      -1.379243       -37.5311
  23   2.0000      -1.249673       -34.0053
  24   2.0000      -1.231791       -33.5187
  25   2.0000      -1.203792       -32.7568
  26   2.0000      -1.144374       -31.1400
  27   2.0000      -1.107731       -30.1429
  28   2.0000      -1.059669       -28.8350
  29   2.0000      -1.044681       -28.4272
  30   2.0000      -1.032207       -28.0878
  31   2.0000      -1.002048       -27.2671
  32   2.0000      -0.982682       -26.7401
  33   2.0000      -0.934166       -25.4200
  34   2.0000      -0.897038       -24.4097
  35   2.0000      -0.846428       -23.0325
  36   2.0000      -0.805164       -21.9096
  37   2.0000      -0.786738       -21.4082
  38   2.0000      -0.751815       -20.4579
  39   2.0000      -0.742480       -20.2039
  40   2.0000      -0.736157       -20.0318
  41   2.0000      -0.724211       -19.7068
  42   2.0000      -0.713465       -19.4144
  43   2.0000      -0.700842       -19.0709
  44   2.0000      -0.679646       -18.4941
  45   2.0000      -0.669402       -18.2154
  46   2.0000      -0.646875       -17.6024
  47   2.0000      -0.635660       -17.2972
  48   2.0000      -0.627571       -17.0771
  49   2.0000      -0.617999       -16.8166
  50   2.0000      -0.613623       -16.6975
  51   2.0000      -0.585395       -15.9294
  52   2.0000      -0.579742       -15.7756
  53   2.0000      -0.576773       -15.6948
  54   2.0000      -0.576409       -15.6849
  55   2.0000      -0.571641       -15.5551
  56   2.0000      -0.560349       -15.2479
  57   2.0000      -0.556425       -15.1411
  58   2.0000      -0.551553       -15.0085
  59   2.0000      -0.549855       -14.9623
  60   2.0000      -0.526447       -14.3254
  61   2.0000      -0.502657       -13.6780
  62   2.0000      -0.493173       -13.4199
  63   2.0000      -0.491561       -13.3760
  64   2.0000      -0.489444       -13.3185
  65   2.0000      -0.487508       -13.2658
  66   2.0000      -0.481255       -13.0956
  67   2.0000      -0.471309       -12.8250
  68   2.0000      -0.468492       -12.7483
  69   2.0000      -0.464506       -12.6399
  70   2.0000      -0.408711       -11.1216
  71   2.0000      -0.374978       -10.2037
  72   2.0000      -0.354254        -9.6397
  73   2.0000      -0.331755        -9.0275
  74   0.0000       0.017549         0.4775
  75   0.0000       0.024926         0.6783
  76   0.0000       0.027181         0.7396
  77   0.0000       0.032326         0.8796
  78   0.0000       0.036762         1.0003

MULLIKEN ATOMIC CHARGES
-----------------------
   0 C :   -0.858031
   1 C :    0.381030
   2 C :   -0.837400
   3 C :   -0.330576
   4 C :   -0.688162
   5 C :    0.295646
   6 C :    0.056026
   7 H :    0.243296
   8 H :    0.138285
   9 H :    0.431359
  10 C :   -0.744444
  11 H :    0.306165
  12 H :    0.342496
  13 C :   -1.190777
  14 H :    0.432789
  15 H :    0.406445
  16 H :    0.542339
  17 C :    1.488695
  18 C :    1.414631
  19 N :   -1.178940
  20 N :   -1.196720
  21 C :   -0.384731
  22 H :    0.190761
  23 C :   -0.978058
  24 H :    0.354607
  25 H :    0.351377
  26 C :    0.910483
  27 C :   -0.090053
  28 O :   -0.295025
  29 H :    0.494362
  30 H :    0.176822
  31 C :    0.420933
  32 C :   -0.672720
  33 O :   -0.868481
  34 H :    0.314715
  35 H :    0.337681
  36 H :    0.283174
Sum of atomic charges:    0.0000000

LOEWDIN ATOMIC CHARGES
----------------------
   0 C :    0.190987
   1 C :   -0.118245
   2 C :    0.320607
   3 C :    0.014620
   4 C :    0.312139
   5 C :   -0.008762
   6 C :   -0.286573
   7 H :   -0.140849
   8 H :   -0.121921
   9 H :   -0.118157
  10 C :    0.267054
  11 H :   -0.143236
  12 H :   -0.122856
  13 C :    0.277693
  14 H :   -0.149762
  15 H :   -0.157414
  16 H :   -0.159061
  17 C :   -0.275960
  18 C :   -0.263440
  19 N :    0.326471
  20 N :    0.312628
  21 C :    0.428780
  22 H :   -0.173485
  23 C :    0.090370
  24 H :   -0.185919
  25 H :   -0.175790
  26 C :    0.071234
  27 C :    0.016886
  28 O :    0.588975
  29 H :   -0.178322
  30 H :   -0.176900
  31 C :   -0.812720
  32 C :    0.591191
  33 O :    0.481469
  34 H :   -0.166351
  35 H :   -0.178289
  36 H :   -0.177091

  Mayer bond orders larger than 0.100000
B(  0-C ,  1-C ) :   1.1779 B(  0-C ,  2-C ) :   0.1267 B(  0-C ,  4-C ) :   0.2074
B(  0-C ,  5-C ) :   1.0750 B(  0-C , 13-C ) :   0.5420 B(  0-C , 19-N ) :   0.1187
B(  0-C , 21-C ) :   0.1851 B(  0-C , 22-H ) :   0.9068 B(  0-C , 23-C ) :   0.1548
B(  0-C , 26-C ) :   0.1743 B(  0-C , 28-O ) :  -0.1010 B(  1-C ,  2-C ) :   0.3923
B(  1-C ,  4-C ) :  -0.4329 B(  1-C ,  5-C ) :   0.1887 B(  1-C ,  6-C ) :   0.8298
B(  1-C ,  7-H ) :  -0.1131 B(  1-C , 13-C ) :  -0.3313 B(  1-C , 17-C ) :   1.1912
B(  1-C , 18-C ) :   0.3902 B(  1-C , 21-C ) :  -0.2005 B(  1-C , 22-H ) :  -0.1941
B(  1-C , 26-C ) :   0.3043 B(  2-C ,  3-C ) :   1.0850 B(  2-C ,  4-C ) :   0.1031
B(  2-C ,  6-C ) :  -0.1587 B(  2-C ,  7-H ) :   0.9594 B(  2-C ,  8-H ) :   1.1354
B(  3-C ,  4-C ) :   1.1232 B(  3-C ,  9-H ) :   0.8499 B(  3-C , 10-C ) :   0.9971
B(  3-C , 13-C ) :   0.1136 B(  4-C ,  5-C ) :   0.9685 B(  4-C , 11-H ) :   1.0017
B(  4-C , 12-H ) :   0.8829 B(  5-C ,  6-C ) :  -0.1155 B(  5-C , 13-C ) :   0.5853
B(  5-C , 14-H ) :   0.7714 B(  6-C , 18-C ) :   0.7578 B(  6-C , 19-N ) :   0.9615
B(  6-C , 20-N ) :   1.0867 B(  6-C , 21-C ) :   0.3692 B(  6-C , 22-H ) :  -0.1255
B(  6-C , 23-C ) :   0.1850 B(  6-C , 26-C ) :   0.1544 B(  9-H , 10-C ) :  -0.1912
B( 10-C , 13-C ) :   1.5167 B( 10-C , 16-H ) :   0.6497 B( 13-C , 14-H ) :  -0.4116
B( 13-C , 15-H ) :   0.9515 B( 17-C , 18-C ) :  -0.2554 B( 17-C , 19-N ) :   0.6136
B( 17-C , 22-H ) :   0.1180 B( 18-C , 20-N ) :   0.6448 B( 21-C , 23-C ) :   0.7576
B( 21-C , 24-H ) :   1.0293 B( 21-C , 25-H ) :   0.9389 B( 21-C , 26-C ) :   0.2017
B( 23-C , 26-C ) :   0.9889 B( 23-C , 27-C ) :  -0.4009 B( 23-C , 30-H ) :   0.1319
B( 25-H , 26-C ) :  -0.1207 B( 26-C , 27-C ) :   0.8918 B( 27-C , 28-O ) :   0.7367
B( 27-C , 29-H ) :   0.9169 B( 27-C , 30-H ) :   1.1202 B( 27-C , 33-O ) :   0.1247
B( 28-O , 30-H ) :   0.1112 B( 28-O , 31-C ) :   0.9741 B( 29-H , 31-C ) :  -0.1005
B( 29-H , 33-O ) :  -0.1360 B( 31-C , 32-C ) :   0.6866 B( 31-C , 33-O ) :   1.4669
B( 32-C , 33-O ) :  -0.1002 B( 32-C , 34-H ) :   0.9095 B( 32-C , 35-H ) :   0.9439
B( 32-C , 36-H ) :   0.9633

MP2 TOTAL ENERGY:     -915.482657750 Eh
FINAL SINGLE POINT ENERGY      -915.482657750380

DIPOLE MOMENT
-------------
                                X             Y             Z
Electronic contribution:      2.17212      11.06671       1.09402
Nuclear contribution   :     -2.62376     -13.48892      -1.66270
                        -----------------------------------------
Total Dipole Moment    :     -0.45164      -2.42221      -0.56868
                        -----------------------------------------
Magnitude (a.u.)       :      2.52873
Magnitude (Debye)      :      6.42751

Rotational constants in cm-1:     0.014419     0.008903     0.006851
Rotational constants in MHz :   432.258975   266.919830   205.373230

                             ****ORCA TERMINATED NORMALLY****
TOTAL RUN TIME: 0 days 1 hours 2 minutes 55 seconds 714 msec
