                         Program Version 4.2.1 -  RELEASE  -
|  1> %pal
|  2>  nprocs 32
|  3> end
|  4> !RI-MP2 aug-cc-pVTZ aug-cc-pVTZ/C TightSCF
|  5> %maxcore 4500
|  6> *xyzfile 0 1  02_31TS.xyz
|  7>
|  8>
|  9>                          ****END OF INPUT****

CARTESIAN COORDINATES (ANGSTROEM)
---------------------------------
  C      1.779759   -0.554911   -0.441837
  C      1.737467   -1.494515    0.604750
  C      2.769641   -2.422134    0.688756
  C      3.805542   -2.435789   -0.235502
  C      3.826483   -1.512204   -1.271318
  C      2.816241   -0.570269   -1.371238
  H      2.760437   -3.149753    1.492871
  H      4.596332   -3.170856   -0.147277
  H      4.627365   -1.526001   -2.000072
  H      2.814720    0.148379   -2.180247
  C      0.645228    0.327167   -0.504595
  C     -0.581779    0.298933   -0.396980
  C     -1.755076   -0.532910   -0.427685
  C     -2.833031   -0.198029   -1.254191
  C     -1.775657   -1.720244    0.322372
  C     -3.950228   -1.003441   -1.328933
  H     -2.768589    0.706505   -1.845611
  C     -2.932018   -2.500911    0.243811
  C     -4.004343   -2.159614   -0.559737
  H     -4.773785   -0.733423   -1.977983
  H     -2.976595   -3.416438    0.824220
  H     -4.877513   -2.799690   -0.594381
  C     -0.658252   -2.303816    1.183048
  H     -1.141871   -2.636343    2.105644
  H     -0.326737   -3.221692    0.686766
  C     -1.175764    2.288194    0.461055
  C      1.296064    2.378195    0.038177
  N      0.896390    2.268829    1.346218
  N     -0.358590    2.226186    1.560174
  N      0.497967    3.066274   -0.831339
  N     -0.761460    3.014672   -0.620533
  C      2.767762    2.434768   -0.204020
  H      3.281006    1.639844    0.332290
  H      3.143683    3.393632    0.159110
  H      2.982412    2.365459   -1.268184
  C     -2.641736    2.233823    0.740631
  H     -2.907369    1.316043    1.262139
  H     -3.213549    2.310238   -0.180043
  H     -2.900508    3.077610    1.383485
  C      0.603553   -1.519781    1.605283
  H      0.979638   -2.021970    2.499238
  H      0.341635   -0.508343    1.915316

 Total Charge           Charge          ....    0
 Multiplicity           Mult            ....    1
 Number of Electrons    NEL             ....  166
 Basis Dimension        Dim             .... 1518

ORBITAL ENERGIES
----------------

  NO   OCC          E(Eh)            E(eV)
   0   2.0000     -15.627177      -425.2371
   1   2.0000     -15.624638      -425.1680
   2   2.0000     -15.623942      -425.1491
   3   2.0000     -15.620571      -425.0573
   4   2.0000     -11.324764      -308.1625
   5   2.0000     -11.324545      -308.1565
   6   2.0000     -11.267164      -306.5951
   7   2.0000     -11.264688      -306.5277
   8   2.0000     -11.260211      -306.4059
   9   2.0000     -11.255459      -306.2766
  10   2.0000     -11.253265      -306.2169
  11   2.0000     -11.250254      -306.1350
  12   2.0000     -11.246584      -306.0351
  13   2.0000     -11.244778      -305.9860
  14   2.0000     -11.244772      -305.9858
  15   2.0000     -11.244696      -305.9837
  16   2.0000     -11.243940      -305.9632
  17   2.0000     -11.241154      -305.8873
  18   2.0000     -11.240004      -305.8561
  19   2.0000     -11.239735      -305.8487
  20   2.0000     -11.239064      -305.8305
  21   2.0000     -11.237282      -305.7820
  22   2.0000     -11.230151      -305.5879
  23   2.0000     -11.229751      -305.5771
  24   2.0000      -1.425320       -38.7849
  25   2.0000      -1.322622       -35.9904
  26   2.0000      -1.187268       -32.3072
  27   2.0000      -1.175210       -31.9791
  28   2.0000      -1.167425       -31.7672
  29   2.0000      -1.100548       -29.9474
  30   2.0000      -1.081678       -29.4339
  31   2.0000      -1.048923       -28.5426
  32   2.0000      -1.040096       -28.3024
  33   2.0000      -1.034766       -28.1574
  34   2.0000      -1.003971       -27.3194
  35   2.0000      -0.973683       -26.4953
  36   2.0000      -0.971033       -26.4232
  37   2.0000      -0.948946       -25.8221
  38   2.0000      -0.902262       -24.5518
  39   2.0000      -0.873275       -23.7630
  40   2.0000      -0.855346       -23.2751
  41   2.0000      -0.837117       -22.7791
  42   2.0000      -0.822441       -22.3798
  43   2.0000      -0.802864       -21.8470
  44   2.0000      -0.766703       -20.8631
  45   2.0000      -0.733931       -19.9713
  46   2.0000      -0.714094       -19.4315
  47   2.0000      -0.674613       -18.3572
  48   2.0000      -0.673038       -18.3143
  49   2.0000      -0.670186       -18.2367
  50   2.0000      -0.661753       -18.0072
  51   2.0000      -0.651818       -17.7369
  52   2.0000      -0.644406       -17.5352
  53   2.0000      -0.622213       -16.9313
  54   2.0000      -0.612864       -16.6769
  55   2.0000      -0.607246       -16.5240
  56   2.0000      -0.605506       -16.4766
  57   2.0000      -0.592912       -16.1340
  58   2.0000      -0.585723       -15.9383
  59   2.0000      -0.571687       -15.5564
  60   2.0000      -0.566686       -15.4203
  61   2.0000      -0.565182       -15.3794
  62   2.0000      -0.554313       -15.0836
  63   2.0000      -0.551322       -15.0022
  64   2.0000      -0.538491       -14.6531
  65   2.0000      -0.531151       -14.4534
  66   2.0000      -0.522676       -14.2227
  67   2.0000      -0.516961       -14.0672
  68   2.0000      -0.511191       -13.9102
  69   2.0000      -0.501618       -13.6497
  70   2.0000      -0.499546       -13.5933
  71   2.0000      -0.492719       -13.4076
  72   2.0000      -0.489887       -13.3305
  73   2.0000      -0.483779       -13.1643
  74   2.0000      -0.479462       -13.0468
  75   2.0000      -0.434479       -11.8228
  76   2.0000      -0.396051       -10.7771
  77   2.0000      -0.374603       -10.1935
  78   2.0000      -0.372108       -10.1256
  79   2.0000      -0.350501        -9.5376
  80   2.0000      -0.341632        -9.2963
  81   2.0000      -0.338536        -9.2120
  82   2.0000      -0.297137        -8.0855
  83   0.0000       0.021906         0.5961
  84   0.0000       0.025290         0.6882
  85   0.0000       0.029040         0.7902
  86   0.0000       0.035194         0.9577
  87   0.0000       0.036001         0.9796

MULLIKEN ATOMIC CHARGES
-----------------------
   0 C :    1.326673
   1 C :    0.922748
   2 C :   -1.045361
   3 C :   -0.115137
   4 C :   -0.654303
   5 C :   -1.425008
   6 H :    0.149867
   7 H :    0.597691
   8 H :    0.490787
   9 H :   -0.044377
  10 C :    0.036654
  11 C :   -1.038346
  12 C :    1.319644
  13 C :   -1.391571
  14 C :    1.229365
  15 C :   -0.511965
  16 H :   -0.162338
  17 C :   -1.074185
  18 C :   -0.261062
  19 H :    0.549565
  20 H :    0.121694
  21 H :    0.532768
  22 C :   -0.395875
  23 H :    0.140515
  24 H :    0.179072
  25 C :    1.766640
  26 C :    2.134010
  27 N :   -0.689026
  28 N :   -0.710767
  29 N :   -0.834343
  30 N :   -0.679696
  31 C :   -1.275590
  32 H :    0.387747
  33 H :    0.309063
  34 H :    0.221980
  35 C :   -1.119588
  36 H :    0.324509
  37 H :    0.299861
  38 H :    0.277719
  39 C :   -0.396098
  40 H :    0.213688
  41 H :    0.292376
Sum of atomic charges:   -0.0000000

LOEWDIN ATOMIC CHARGES
----------------------
   0 C :   -0.139881
   1 C :   -0.066827
   2 C :    0.232691
   3 C :    0.210720
   4 C :    0.210653
   5 C :    0.210813
   6 H :   -0.171395
   7 H :   -0.178948
   8 H :   -0.179734
   9 H :   -0.170557
  10 C :    0.049382
  11 C :    0.055950
  12 C :   -0.131720
  13 C :    0.196709
  14 C :   -0.041072
  15 C :    0.212307
  16 H :   -0.168368
  17 C :    0.217601
  18 C :    0.210393
  19 H :   -0.177823
  20 H :   -0.171051
  21 H :   -0.177845
  22 C :    0.333856
  23 H :   -0.153504
  24 H :   -0.138094
  25 C :   -0.556136
  26 C :   -0.562944
  27 N :    0.239830
  28 N :    0.236241
  29 N :    0.231758
  30 N :    0.233463
  31 C :    0.563250
  32 H :   -0.175831
  33 H :   -0.154846
  34 H :   -0.175467
  35 C :    0.563372
  36 H :   -0.169417
  37 H :   -0.184317
  38 H :   -0.156032
  39 C :    0.314835
  40 H :   -0.151880
  41 H :   -0.170137

  Mayer bond orders larger than 0.100000
B(  0-C ,  1-C ) :   0.6020 B(  0-C ,  2-C ) :   0.6943 B(  0-C ,  3-C ) :  -0.1000
B(  0-C ,  5-C ) :   0.2996 B(  0-C ,  6-H ) :   0.1011 B(  0-C ,  8-H ) :  -0.1230
B(  0-C , 10-C ) :   0.3795 B(  0-C , 11-C ) :  -0.2088 B(  0-C , 12-C ) :   0.1462
B(  0-C , 13-C ) :  -0.1168 B(  0-C , 14-C ) :   0.2274 B(  0-C , 20-H ) :  -0.1102
B(  0-C , 27-N ) :  -0.1213 B(  1-C ,  2-C ) :   0.6050 B(  1-C ,  3-C ) :   0.1182
B(  1-C ,  5-C ) :  -0.4036 B(  1-C ,  6-H ) :   0.2078 B(  1-C ,  7-H ) :  -0.2090
B(  1-C ,  9-H ) :   0.2812 B(  1-C , 10-C ) :   0.4136 B(  1-C , 11-C ) :  -0.2788
B(  1-C , 14-C ) :  -0.2228 B(  1-C , 22-C ) :   0.2284 B(  1-C , 39-C ) :   0.5010
B(  2-C ,  3-C ) :   1.0226 B(  2-C ,  5-C ) :   0.1004 B(  2-C ,  6-H ) :   1.2161
B(  2-C , 10-C ) :  -0.1135 B(  2-C , 39-C ) :   0.2116 B(  3-C ,  4-C ) :   1.0026
B(  3-C ,  7-H ) :   0.5974 B(  3-C , 10-C ) :   0.2014 B(  4-C ,  5-C ) :   1.6100
B(  4-C ,  7-H ) :  -0.1219 B(  4-C ,  8-H ) :   0.7350 B(  4-C , 10-C ) :   0.1749
B(  4-C , 39-C ) :   0.1146 B(  5-C ,  9-H ) :   1.7811 B(  5-C , 10-C ) :   0.2683
B(  5-C , 11-C ) :   0.1500 B(  6-H , 10-C ) :  -0.2011 B(  7-H , 10-C ) :   0.1486
B(  8-H , 10-C ) :  -0.1378 B(  9-H , 10-C ) :  -0.5335 B(  9-H , 11-C ) :   0.1516
B( 10-C , 11-C ) :   2.4035 B( 10-C , 12-C ) :  -0.6171 B( 10-C , 13-C ) :  -0.1777
B( 10-C , 15-C ) :  -0.2415 B( 10-C , 17-C ) :  -0.2957 B( 10-C , 18-C ) :   0.1630
B( 10-C , 20-H ) :  -0.1145 B( 10-C , 21-H ) :   0.1088 B( 10-C , 22-C ) :   0.1761
B( 10-C , 25-C ) :  -0.2700 B( 10-C , 26-C ) :   0.4185 B( 10-C , 27-N ) :   0.5354
B( 10-C , 28-N ) :  -0.3270 B( 10-C , 29-N ) :   0.3422 B( 10-C , 30-N ) :   0.2769
B( 11-C , 12-C ) :   1.1485 B( 11-C , 13-C ) :   0.4094 B( 11-C , 14-C ) :   0.3998
B( 11-C , 15-C ) :   0.3811 B( 11-C , 16-H ) :  -0.2331 B( 11-C , 17-C ) :   0.3372
B( 11-C , 20-H ) :   0.1013 B( 11-C , 22-C ) :  -0.2592 B( 11-C , 25-C ) :   0.7393
B( 11-C , 27-N ) :  -0.2160 B( 11-C , 28-N ) :   0.6035 B( 11-C , 29-N ) :  -0.1843
B( 12-C , 13-C ) :   0.5483 B( 12-C , 14-C ) :   0.9203 B( 12-C , 15-C ) :  -0.2325
B( 12-C , 17-C ) :   0.5335 B( 12-C , 18-C ) :  -0.1392 B( 12-C , 20-H ) :   0.1821
B( 12-C , 22-C ) :  -0.1302 B( 13-C , 14-C ) :  -0.4815 B( 13-C , 15-C ) :   1.5718
B( 13-C , 16-H ) :   1.9768 B( 13-C , 17-C ) :   0.1856 B( 14-C , 15-C ) :   0.1023
B( 14-C , 17-C ) :   0.8888 B( 14-C , 18-C ) :   0.2307 B( 14-C , 19-H ) :   0.1530
B( 14-C , 20-H ) :   0.1428 B( 14-C , 21-H ) :  -0.2833 B( 14-C , 22-C ) :   0.1915
B( 14-C , 23-H ) :  -0.1376 B( 14-C , 39-C ) :   0.1860 B( 15-C , 18-C ) :   1.0044
B( 15-C , 19-H ) :   0.6536 B( 15-C , 21-H ) :  -0.1601 B( 17-C , 18-C ) :   0.9913
B( 17-C , 20-H ) :   1.2606 B( 17-C , 22-C ) :  -0.1970 B( 18-C , 21-H ) :   0.6552
B( 22-C , 23-H ) :   1.1606 B( 22-C , 24-H ) :   1.1974 B( 22-C , 39-C ) :   0.8102
B( 25-C , 27-N ) :   0.1123 B( 25-C , 28-N ) :   0.4377 B( 25-C , 29-N ) :   0.2340
B( 25-C , 30-N ) :   0.2099 B( 25-C , 35-C ) :   0.1029 B( 26-C , 27-N ) :   0.4892
B( 26-C , 28-N ) :   0.1468 B( 26-C , 30-N ) :   0.1594 B( 26-C , 31-C ) :  -0.1225
B( 26-C , 33-H ) :  -0.1148 B( 26-C , 34-H ) :  -0.2055 B( 27-N , 28-N ) :  -0.5144
B( 27-N , 29-N ) :   0.2772 B( 27-N , 30-N ) :   0.1354 B( 27-N , 31-C ) :   0.1561
B( 28-N , 29-N ) :   0.1502 B( 28-N , 30-N ) :   0.2117 B( 29-N , 30-N ) :  -0.3106
B( 29-N , 31-C ) :   0.1966 B( 29-N , 34-H ) :   0.1013 B( 30-N , 35-C ) :   0.1779
B( 31-C , 32-H ) :   0.9628 B( 31-C , 33-H ) :   0.9898 B( 31-C , 34-H ) :   1.1913
B( 35-C , 36-H ) :   1.0277 B( 35-C , 37-H ) :   1.0733 B( 35-C , 38-H ) :   0.9893
B( 39-C , 40-H ) :   1.0080 B( 39-C , 41-H ) :   1.0172

MP2 TOTAL ENERGY:     -989.850838016 Eh
FINAL SINGLE POINT ENERGY      -989.850838015502

DIPOLE MOMENT
-------------
                                X             Y             Z
Electronic contribution:      0.31841       6.61016      -2.45969
Nuclear contribution   :     -0.35468      -8.09637       2.45509
                        -----------------------------------------
Total Dipole Moment    :     -0.03628      -1.48621      -0.00460
                        -----------------------------------------
Magnitude (a.u.)       :      1.48666
Magnitude (Debye)      :      3.77879

Rotational constants in cm-1:     0.011062     0.008499     0.005718
Rotational constants in MHz :   331.639759   254.797887   171.425636

                             ****ORCA TERMINATED NORMALLY****
TOTAL RUN TIME: 0 days 1 hours 28 minutes 20 seconds 920 msec
