                         Program Version 4.2.1 -  RELEASE  -
|  1> %pal
|  2>  nprocs 32
|  3> end
|  4> !RI-MP2 aug-cc-pVTZ aug-cc-pVTZ/C TightSCF
|  5> %maxcore 4500
|  6> *xyzfile 0 2  04_79R2.xyz
|  7>
|  8>
|  9>                          ****END OF INPUT****

CARTESIAN COORDINATES (ANGSTROEM)
---------------------------------
  C      0.000000    0.537540   -0.038277
  C      1.290441   -0.198575    0.002360
  H      1.457417   -0.673762    0.981442
  H      2.142700    0.455261   -0.188762
  H      1.311707   -1.009521   -0.735137
  C     -1.290441   -0.198575    0.002360
  H      0.000000    1.613700    0.086256
  H     -1.311706   -1.009523   -0.735135
  H     -2.142699    0.455260   -0.188764
  H     -1.457418   -0.673760    0.981443

 Total Charge           Charge          ....    0
 Multiplicity           Mult            ....    2
 Number of Electrons    NEL             ....   25
 Basis Dimension        Dim             ....  299

ORBITAL ENERGIES
----------------
                 SPIN UP ORBITALS
  NO   OCC          E(Eh)            E(eV)
   0   1.0000     -11.225139      -305.4516
   1   1.0000     -11.213428      -305.1329
   2   1.0000     -11.213391      -305.1319
   3   1.0000      -1.064020       -28.9534
   4   1.0000      -0.935404       -25.4536
   5   1.0000      -0.789515       -21.4838
   6   1.0000      -0.618310       -16.8251
   7   1.0000      -0.599918       -16.3246
   8   1.0000      -0.564060       -15.3489
   9   1.0000      -0.535610       -14.5747
  10   1.0000      -0.497577       -13.5398
  11   1.0000      -0.491911       -13.3856
  12   1.0000      -0.324151        -8.8206
  13   0.0000       0.031561         0.8588
  14   0.0000       0.039491         1.0746
  15   0.0000       0.040616         1.1052
  16   0.0000       0.045795         1.2461
  17   0.0000       0.062267         1.6944

                 SPIN DOWN ORBITALS
  NO   OCC          E(Eh)            E(eV)
   0   1.0000     -11.216666      -305.2210
   1   1.0000     -11.216663      -305.2209
   2   1.0000     -11.201151      -304.7988
   3   1.0000      -1.025650       -27.9093
   4   1.0000      -0.935128       -25.4461
   5   1.0000      -0.741034       -20.1646
   6   1.0000      -0.611060       -16.6278
   7   1.0000      -0.559387       -15.2217
   8   1.0000      -0.554717       -15.0946
   9   1.0000      -0.524217       -14.2647
  10   1.0000      -0.493182       -13.4202
  11   1.0000      -0.484333       -13.1794
  12   0.0000       0.031884         0.8676
  13   0.0000       0.039581         1.0770
  14   0.0000       0.040882         1.1125
  15   0.0000       0.045975         1.2510
  16   0.0000       0.062350         1.6966

MULLIKEN ATOMIC CHARGES AND SPIN POPULATIONS
--------------------------------------------
   0 C :   -0.555807    1.198037
   1 C :   -0.766052   -0.162323
   2 H :    0.280790    0.061855
   3 H :    0.266470    0.005461
   4 H :    0.279843    0.028627
   5 C :   -0.766052   -0.162323
   6 H :    0.433704   -0.065277
   7 H :    0.279843    0.028626
   8 H :    0.266470    0.005461
   9 H :    0.280790    0.061855
Sum of atomic charges         :    0.0000000

LOEWDIN ATOMIC CHARGES AND SPIN POPULATIONS
-------------------------------------------
   0 C :    0.241790    0.554312
   1 C :    0.526061    0.120262
   2 H :   -0.175012    0.028047
   3 H :   -0.188962    0.002183
   4 H :   -0.182255    0.014226
   5 C :    0.526061    0.120262
   6 H :   -0.201455    0.116252
   7 H :   -0.182255    0.014226
   8 H :   -0.188963    0.002183
   9 H :   -0.175011    0.028047

  Mayer bond orders larger than 0.100000
B(  0-C ,  1-C ) :   0.8485 B(  0-C ,  5-C ) :   0.8485 B(  0-C ,  6-H ) :   0.7608
B(  1-C ,  2-H ) :   0.9025 B(  1-C ,  3-H ) :   0.9845 B(  1-C ,  4-H ) :   0.9382
B(  5-C ,  7-H ) :   0.9382 B(  5-C ,  8-H ) :   0.9845 B(  5-C ,  9-H ) :   0.9025

MP2 TOTAL ENERGY:     -118.192001792 Eh
FINAL SINGLE POINT ENERGY      -118.192001791971

DIPOLE MOMENT
-------------
                                X             Y             Z
Electronic contribution:     -0.00000       0.89880      -0.16998
Nuclear contribution   :      0.00000      -0.91786       0.21939
                        -----------------------------------------
Total Dipole Moment    :     -0.00000      -0.01906       0.04942
                        -----------------------------------------
Magnitude (a.u.)       :      0.05296
Magnitude (Debye)      :      0.13462

Rotational constants in cm-1:     1.244888     0.280333     0.250021
Rotational constants in MHz : 37320.816446  8404.179953  7495.428033

                             ****ORCA TERMINATED NORMALLY****
TOTAL RUN TIME: 0 days 0 hours 0 minutes 29 seconds 835 msec
