                         Program Version 4.2.1 -  RELEASE  -
|  1> %pal
|  2>  nprocs 32
|  3> end
|  4> !RI-MP2 aug-cc-pVTZ aug-cc-pVTZ/C TightSCF
|  5> %maxcore 4500
|  6> *xyzfile 0 1  02_34R.xyz
|  7>
|  8>
|  9>                          ****END OF INPUT****

CARTESIAN COORDINATES (ANGSTROEM)
---------------------------------
  C      0.009672   -0.131161   -0.686832
  C     -2.373926   -0.595372   -0.170093
  C      1.212802   -0.640533   -1.000010
  C     -2.921248    0.731856    0.091767
  C     -4.393791    0.503301    0.409589
  C     -1.128507   -0.985416   -0.503201
  C     -3.467203   -1.572653   -0.009926
  C      2.475343    0.118708   -1.161182
  C      2.289133    1.615200   -1.422540
  H      1.835463    2.124201   -0.569563
  H      1.639901    1.785172   -2.285033
  H      3.034250   -0.330310   -1.992323
  H      3.246591    2.098480   -1.623594
  N     -2.286649    1.827052    0.057583
  C     -2.979272    3.064546    0.343125
  H     -4.043895    2.961520    0.580961
  H     -2.486001    3.560613    1.182562
  H     -2.882439    3.730717   -0.517648
  O     -3.444259   -2.762424   -0.131091
  O     -4.609175   -0.905158    0.322435
  H     -5.050992    0.999775   -0.306782
  H     -4.653140    0.831868    1.417674
  Si     3.584957   -0.197503    0.373499
  C      3.758827   -2.047586    0.632696
  C      5.271355    0.558080    0.045900
  C      2.792187    0.595831    1.874229
  H      4.461322   -2.257846    1.443193
  H      2.805224   -2.509550    0.897933
  H      4.135377   -2.545932   -0.264501
  H      5.728436    0.138889   -0.854081
  H      5.213217    1.641267   -0.081035
  H      5.948411    0.361688    0.881335
  H      2.744930    1.682971    1.779323
  H      1.774064    0.229139    2.022992
  H      3.364094    0.369240    2.777674
  H     -0.144825    0.931956   -0.559833
  H      1.289159   -1.720912   -1.111150
  H     -0.986756   -2.055421   -0.642056

 Total Charge           Charge          ....    0
 Multiplicity           Mult            ....    1
 Number of Electrons    NEL             ....  136
 Basis Dimension        Dim             .... 1269

ORBITAL ENERGIES
----------------

  NO   OCC          E(Eh)            E(eV)
   0   2.0000     -68.762763     -1871.1299
   1   2.0000     -20.599056      -560.5288
   2   2.0000     -20.529136      -558.6262
   3   2.0000     -15.558502      -423.3684
   4   2.0000     -11.369863      -309.3897
   5   2.0000     -11.305125      -307.6281
   6   2.0000     -11.296401      -307.3907
   7   2.0000     -11.276903      -306.8601
   8   2.0000     -11.265182      -306.5412
   9   2.0000     -11.255058      -306.2657
  10   2.0000     -11.238008      -305.8017
  11   2.0000     -11.230381      -305.5942
  12   2.0000     -11.228512      -305.5433
  13   2.0000     -11.226925      -305.5002
  14   2.0000     -11.206135      -304.9344
  15   2.0000     -11.206078      -304.9329
  16   2.0000     -11.202102      -304.8247
  17   2.0000      -6.110464      -166.2742
  18   2.0000      -4.216675      -114.7416
  19   2.0000      -4.216567      -114.7386
  20   2.0000      -4.216489      -114.7365
  21   2.0000      -1.456279       -39.6274
  22   2.0000      -1.360853       -37.0307
  23   2.0000      -1.243459       -33.8362
  24   2.0000      -1.130332       -30.7579
  25   2.0000      -1.086370       -29.5616
  26   2.0000      -1.023366       -27.8472
  27   2.0000      -0.992269       -27.0010
  28   2.0000      -0.971307       -26.4306
  29   2.0000      -0.945952       -25.7407
  30   2.0000      -0.933827       -25.4107
  31   2.0000      -0.931075       -25.3358
  32   2.0000      -0.917876       -24.9767
  33   2.0000      -0.860788       -23.4232
  34   2.0000      -0.774039       -21.0627
  35   2.0000      -0.757757       -20.6196
  36   2.0000      -0.738578       -20.0977
  37   2.0000      -0.698441       -19.0056
  38   2.0000      -0.687736       -18.7142
  39   2.0000      -0.656716       -17.8702
  40   2.0000      -0.652709       -17.7611
  41   2.0000      -0.645894       -17.5757
  42   2.0000      -0.615388       -16.7456
  43   2.0000      -0.609010       -16.5720
  44   2.0000      -0.598189       -16.2775
  45   2.0000      -0.595603       -16.2072
  46   2.0000      -0.592751       -16.1296
  47   2.0000      -0.572766       -15.5858
  48   2.0000      -0.570377       -15.5207
  49   2.0000      -0.566963       -15.4278
  50   2.0000      -0.565034       -15.3753
  51   2.0000      -0.561451       -15.2779
  52   2.0000      -0.550923       -14.9914
  53   2.0000      -0.545661       -14.8482
  54   2.0000      -0.543932       -14.8011
  55   2.0000      -0.539016       -14.6674
  56   2.0000      -0.525344       -14.2953
  57   2.0000      -0.511925       -13.9302
  58   2.0000      -0.499832       -13.6011
  59   2.0000      -0.492675       -13.4064
  60   2.0000      -0.454884       -12.3780
  61   2.0000      -0.444095       -12.0844
  62   2.0000      -0.439352       -11.9554
  63   2.0000      -0.437081       -11.8936
  64   2.0000      -0.436343       -11.8735
  65   2.0000      -0.398274       -10.8376
  66   2.0000      -0.396624       -10.7927
  67   2.0000      -0.312647        -8.5075
  68   0.0000       0.020106         0.5471
  69   0.0000       0.025121         0.6836
  70   0.0000       0.028960         0.7880
  71   0.0000       0.031158         0.8479
  72   0.0000       0.037352         1.0164

MULLIKEN ATOMIC CHARGES
-----------------------
   0 C :    0.706345
   1 C :    1.932378
   2 C :   -1.074440
   3 C :    0.502625
   4 C :   -0.113815
   5 C :   -1.400602
   6 C :    0.390073
   7 C :    0.551326
   8 C :   -1.132554
   9 H :    0.323563
  10 H :    0.237421
  11 H :    0.482799
  12 H :    0.220194
  13 N :   -0.816549
  14 C :   -0.961366
  15 H :    0.370805
  16 H :    0.328544
  17 H :    0.325494
  18 O :   -0.964002
  19 O :   -0.497744
  20 H :    0.321345
  21 H :    0.315751
  22 Si:    2.217805
  23 C :   -1.449407
  24 C :   -1.453556
  25 C :   -1.284491
  26 H :    0.169703
  27 H :    0.304292
  28 H :    0.235620
  29 H :    0.244100
  30 H :    0.253068
  31 H :    0.211270
  32 H :    0.230084
  33 H :    0.392827
  34 H :    0.174165
  35 H :    0.388804
  36 H :   -0.053654
  37 H :   -0.628221
Sum of atomic charges:   -0.0000000

LOEWDIN ATOMIC CHARGES
----------------------
   0 C :    0.226869
   1 C :   -0.113187
   2 C :    0.191959
   3 C :   -0.291156
   4 C :    0.073996
   5 C :    0.239096
   6 C :   -0.836376
   7 C :   -0.013126
   8 C :    0.537687
   9 H :   -0.174117
  10 H :   -0.154946
  11 H :   -0.182666
  12 H :   -0.168872
  13 N :    0.404122
  14 C :    0.405351
  15 H :   -0.199165
  16 H :   -0.179075
  17 H :   -0.178690
  18 O :    0.436622
  19 O :    0.587125
  20 H :   -0.147594
  21 H :   -0.148166
  22 Si:    0.516130
  23 C :    0.587505
  24 C :    0.588728
  25 C :    0.591578
  26 H :   -0.225748
  27 H :   -0.228792
  28 H :   -0.222870
  29 H :   -0.223662
  30 H :   -0.231181
  31 H :   -0.226535
  32 H :   -0.226653
  33 H :   -0.224435
  34 H :   -0.224675
  35 H :   -0.233189
  36 H :   -0.164341
  37 H :   -0.167548

  Mayer bond orders larger than 0.100000
B(  0-C ,  1-C ) :   0.2460 B(  0-C ,  2-C ) :   0.8406 B(  0-C ,  3-C ) :   0.1227
B(  0-C ,  5-C ) :  -0.2462 B(  0-C ,  7-C ) :   0.2303 B(  0-C ,  8-C ) :  -0.2080
B(  0-C , 13-N ) :   0.1222 B(  0-C , 22-Si) :  -0.1243 B(  0-C , 35-H ) :   1.2921
B(  0-C , 36-H ) :  -0.1186 B(  0-C , 37-H ) :  -0.6473 B(  1-C ,  2-C ) :   0.1884
B(  1-C ,  3-C ) :   0.2929 B(  1-C ,  6-C ) :   0.3832 B(  1-C ,  7-C ) :   0.1158
B(  1-C , 13-N ) :  -0.2297 B(  1-C , 19-O ) :  -0.2273 B(  1-C , 35-H ) :  -0.1337
B(  1-C , 37-H ) :  -1.3873 B(  2-C ,  6-C ) :   0.1176 B(  2-C ,  7-C ) :   0.5127
B(  2-C ,  8-C ) :   0.3145 B(  2-C , 11-H ) :  -0.3960 B(  2-C , 22-Si) :   0.2506
B(  2-C , 35-H ) :   0.1742 B(  2-C , 36-H ) :   1.6893 B(  2-C , 37-H ) :  -0.2092
B(  3-C ,  4-C ) :   0.7824 B(  3-C ,  5-C ) :   0.4285 B(  3-C ,  6-C ) :  -0.5714
B(  3-C , 13-N ) :   1.4890 B(  3-C , 35-H ) :   0.1014 B(  3-C , 37-H ) :   0.2067
B(  4-C , 13-N ) :  -0.1519 B(  4-C , 19-O ) :   0.6718 B(  4-C , 20-H ) :   0.9712
B(  4-C , 21-H ) :   0.9746 B(  5-C ,  6-C ) :   0.6655 B(  5-C ,  7-C ) :  -0.1799
B(  5-C , 13-N ) :   0.1726 B(  5-C , 18-O ) :   0.1179 B(  5-C , 37-H ) :   3.2636
B(  6-C , 18-O ) :   1.0552 B(  6-C , 19-O ) :   1.0817 B(  6-C , 35-H ) :  -0.1611
B(  7-C ,  8-C ) :   0.6434 B(  7-C , 11-H ) :   0.8871 B(  7-C , 22-Si) :   0.9100
B(  7-C , 23-C ) :   0.1018 B(  7-C , 25-C ) :   0.1343 B(  7-C , 36-H ) :  -0.1732
B(  8-C ,  9-H ) :   1.0024 B(  8-C , 10-H ) :   1.0497 B(  8-C , 12-H ) :   1.0505
B( 13-N , 14-C ) :   0.9704 B( 13-N , 35-H ) :  -0.2717 B( 14-C , 15-H ) :   0.8722
B( 14-C , 16-H ) :   0.9135 B( 14-C , 17-H ) :   0.9191 B( 18-O , 19-O ) :  -0.1487
B( 18-O , 37-H ) :   0.1513 B( 22-Si, 23-C ) :   0.2719 B( 22-Si, 24-C ) :   0.2755
B( 22-Si, 25-C ) :   0.4642 B( 23-C , 24-C ) :   0.1795 B( 23-C , 25-C ) :   0.1684
B( 23-C , 26-H ) :   1.0959 B( 23-C , 27-H ) :   0.9582 B( 23-C , 28-H ) :   1.0235
B( 24-C , 25-C ) :   0.1953 B( 24-C , 29-H ) :   1.0029 B( 24-C , 30-H ) :   1.0216
B( 24-C , 31-H ) :   1.0858 B( 25-C , 32-H ) :   1.0277 B( 25-C , 33-H ) :   0.8506
B( 25-C , 34-H ) :   1.0633

MP2 TOTAL ENERGY:    -1000.890269254 Eh
FINAL SINGLE POINT ENERGY     -1000.890269254136

DIPOLE MOMENT
-------------
                                X             Y             Z
Electronic contribution:    -25.53743     -10.56560      -2.17384
Nuclear contribution   :     27.03952      12.18399       2.19118
                        -----------------------------------------
Total Dipole Moment    :      1.50209       1.61839       0.01734
                        -----------------------------------------
Magnitude (a.u.)       :      2.20811
Magnitude (Debye)      :      5.61257

Rotational constants in cm-1:     0.024701     0.006003     0.005303
Rotational constants in MHz :   740.529372   179.964413   158.987844

                             ****ORCA TERMINATED NORMALLY****
TOTAL RUN TIME: 0 days 0 hours 37 minutes 43 seconds 252 msec
