                         Program Version 4.2.1 -  RELEASE  -
|  1> %pal
|  2>  nprocs 32
|  3> end
|  4> !RI-MP2 aug-cc-pVTZ aug-cc-pVTZ/C TightSCF
|  5> %maxcore 4500
|  6> *xyzfile 0 2  04_26R2.xyz
|  7>
|  8>
|  9>                          ****END OF INPUT****

CARTESIAN COORDINATES (ANGSTROEM)
---------------------------------
  O     -1.855519    0.000000    1.243890
  O     -0.556350    0.000000    1.333317
  C      0.099228    0.000000    0.044159
  Cl     1.804678   -0.000005    0.463997
  Cl    -0.352355   -1.452606   -0.846195
  Cl    -0.352347    1.452612   -0.846190

 Total Charge           Charge          ....    0
 Multiplicity           Mult            ....    2
 Number of Electrons    NEL             ....   73
 Basis Dimension        Dim             ....  288

ORBITAL ENERGIES
----------------
                 SPIN UP ORBITALS
  NO   OCC          E(Eh)            E(eV)
   0   1.0000    -104.885633     -2854.0832
   1   1.0000    -104.882836     -2854.0071
   2   1.0000    -104.882836     -2854.0071
   3   1.0000     -20.717911      -563.7630
   4   1.0000     -20.715819      -563.7061
   5   1.0000     -11.508311      -313.1571
   6   1.0000     -10.610041      -288.7139
   7   1.0000     -10.607308      -288.6395
   8   1.0000     -10.607298      -288.6393
   9   1.0000      -8.076813      -219.7813
  10   1.0000      -8.074571      -219.7202
  11   1.0000      -8.074533      -219.7192
  12   1.0000      -8.074244      -219.7114
  13   1.0000      -8.074244      -219.7114
  14   1.0000      -8.071829      -219.6456
  15   1.0000      -8.071828      -219.6456
  16   1.0000      -8.071798      -219.6448
  17   1.0000      -8.071797      -219.6448
  18   1.0000      -1.633624       -44.4532
  19   1.0000      -1.309132       -35.6233
  20   1.0000      -1.193783       -32.4845
  21   1.0000      -1.135945       -30.9106
  22   1.0000      -1.135914       -30.9098
  23   1.0000      -0.874193       -23.7880
  24   1.0000      -0.807035       -21.9605
  25   1.0000      -0.747721       -20.3465
  26   1.0000      -0.741878       -20.1875
  27   1.0000      -0.663090       -18.0436
  28   1.0000      -0.630360       -17.1530
  29   1.0000      -0.559463       -15.2238
  30   1.0000      -0.542917       -14.7735
  31   1.0000      -0.517597       -14.0845
  32   1.0000      -0.511119       -13.9082
  33   1.0000      -0.505822       -13.7641
  34   1.0000      -0.482710       -13.1352
  35   1.0000      -0.481436       -13.1005
  36   1.0000      -0.466713       -12.6999
  37   0.0000       0.049957         1.3594
  38   0.0000       0.066944         1.8216
  39   0.0000       0.067814         1.8453
  40   0.0000       0.083863         2.2820
  41   0.0000       0.092865         2.5270

                 SPIN DOWN ORBITALS
  NO   OCC          E(Eh)            E(eV)
   0   1.0000    -104.885695     -2854.0849
   1   1.0000    -104.882781     -2854.0056
   2   1.0000    -104.882781     -2854.0056
   3   1.0000     -20.708504      -563.5071
   4   1.0000     -20.677339      -562.6590
   5   1.0000     -11.509077      -313.1779
   6   1.0000     -10.610108      -288.7157
   7   1.0000     -10.607262      -288.6383
   8   1.0000     -10.607252      -288.6380
   9   1.0000      -8.076986      -219.7860
  10   1.0000      -8.074665      -219.7228
  11   1.0000      -8.074582      -219.7205
  12   1.0000      -8.073922      -219.7026
  13   1.0000      -8.073922      -219.7026
  14   1.0000      -8.071851      -219.6462
  15   1.0000      -8.071850      -219.6462
  16   1.0000      -8.071766      -219.6439
  17   1.0000      -8.071766      -219.6439
  18   1.0000      -1.576344       -42.8945
  19   1.0000      -1.274221       -34.6733
  20   1.0000      -1.146114       -31.1873
  21   1.0000      -1.135094       -30.8875
  22   1.0000      -1.119071       -30.4515
  23   1.0000      -0.859762       -23.3953
  24   1.0000      -0.738281       -20.0896
  25   1.0000      -0.722315       -19.6552
  26   1.0000      -0.696723       -18.9588
  27   1.0000      -0.624969       -17.0063
  28   1.0000      -0.584157       -15.8957
  29   1.0000      -0.537564       -14.6278
  30   1.0000      -0.516606       -14.0576
  31   1.0000      -0.510336       -13.8869
  32   1.0000      -0.493307       -13.4236
  33   1.0000      -0.481110       -13.0917
  34   1.0000      -0.479946       -13.0600
  35   1.0000      -0.466655       -12.6983
  36   0.0000       0.050009         1.3608
  37   0.0000       0.066516         1.8100
  38   0.0000       0.067198         1.8285
  39   0.0000       0.070395         1.9155
  40   0.0000       0.084389         2.2964

MULLIKEN ATOMIC CHARGES AND SPIN POPULATIONS
--------------------------------------------
   0 O :   -0.162903    0.961626
   1 O :   -0.168003    0.050640
   2 C :    0.772868   -0.023422
   3 Cl:   -0.158799   -0.003346
   4 Cl:   -0.141582    0.007251
   5 Cl:   -0.141582    0.007251
Sum of atomic charges         :    0.0000000

LOEWDIN ATOMIC CHARGES AND SPIN POPULATIONS
-------------------------------------------
   0 O :    0.156587    0.829291
   1 O :   -0.069221    0.181759
   2 C :   -2.549957   -0.011158
   3 Cl:    0.835369   -0.004743
   4 Cl:    0.813611    0.002426
   5 Cl:    0.813611    0.002426

  Mayer bond orders larger than 0.100000
B(  0-O ,  1-O ) :   0.8745 B(  1-O ,  2-C ) :   0.7916 B(  2-C ,  3-Cl) :   0.9114
B(  2-C ,  4-Cl) :   0.9199 B(  2-C ,  5-Cl) :   0.9199

MP2 TOTAL ENERGY:    -1567.250637865 Eh
FINAL SINGLE POINT ENERGY     -1567.250637864772

DIPOLE MOMENT
-------------
                                X             Y             Z
Electronic contribution:      1.66438      -0.00000      -1.88559
Nuclear contribution   :     -1.46949      -0.00000       1.63937
                        -----------------------------------------
Total Dipole Moment    :      0.19489      -0.00000      -0.24622
                        -----------------------------------------
Magnitude (a.u.)       :      0.31402
Magnitude (Debye)      :      0.79817

Rotational constants in cm-1:     0.064549     0.056950     0.050459
Rotational constants in MHz :  1935.139091  1707.311557  1512.734741

                             ****ORCA TERMINATED NORMALLY****
TOTAL RUN TIME: 0 days 0 hours 0 minutes 57 seconds 872 msec
