                         Program Version 4.2.1 -  RELEASE  -
|  1> %pal
|  2>  nprocs 32
|  3> end
|  4> !RI-MP2 aug-cc-pVTZ aug-cc-pVTZ/C TightSCF
|  5> %maxcore 4500
|  6> *xyzfile 1 1  10_29R.xyz
|  7>
|  8>
|  9>                          ****END OF INPUT****

CARTESIAN COORDINATES (ANGSTROEM)
---------------------------------
  C      0.058704    3.022718    1.238953
  C      1.413753    3.213274    0.543902
  C      0.233297    2.164531   -1.005776
  C     -0.766661    2.272518    0.154267
  H      0.166722    2.451610    2.159192
  H     -0.381504    3.988008    1.487258
  H     -1.128661    1.297183    0.472144
  H     -1.630095    2.848178   -0.178612
  C      1.011163    3.476209   -0.912901
  H      1.852911    3.542940   -1.603080
  H      0.364115    4.343433   -1.032090
  H      2.103287    3.905235    1.018712
  H     -0.156522    1.838432   -1.965243
  N      1.305576    1.224013   -0.549692
  N      2.035108    1.864103    0.466690
  C     -0.635770   -1.850624    0.496341
  C     -1.955024   -1.263910    0.221334
  C     -2.452360   -1.094365   -1.073976
  C     -2.723635   -0.802989    1.291719
  C     -3.680452   -0.490182   -1.287395
  H     -1.878575   -1.438331   -1.926693
  C     -3.955208   -0.200533    1.080054
  H     -2.353551   -0.928662    2.303432
  C     -4.436516   -0.039499   -0.211116
  H     -4.053714   -0.372157   -2.297433
  H     -4.541115    0.139626    1.924986
  H     -5.397680    0.429510   -0.380354
  C      1.504909    0.025300   -0.947140
  C      0.119072   -2.550641   -0.348842
  H      3.019934    1.886152    0.213171
  C      2.591170   -0.868724   -0.453828
  C      1.532303   -3.011547   -0.111306
  C      2.470205   -2.268208   -1.081755
  H      2.113458   -2.246705   -2.114039
  H      3.450479   -2.747266   -1.086759
  C      2.527799   -1.122565    1.089236
  C      2.121323   -2.604155    1.241432
  H      1.818369   -0.451276    1.568029
  H      3.497346   -0.924941    1.544591
  H      1.439467   -2.765430    2.075736
  H      3.004949   -3.213968    1.435203
  H      3.541398   -0.396873   -0.730197
  H      1.591642   -4.090651   -0.271289
  H      0.840175   -0.300024   -1.738050
  H     -0.273488   -2.789268   -1.335268
  H     -0.262565   -1.661232    1.498443

 Total Charge           Charge          ....    1
 Multiplicity           Mult            ....    1
 Number of Electrons    NEL             ....  152
 Basis Dimension        Dim             .... 1541

ORBITAL ENERGIES
----------------

  NO   OCC          E(Eh)            E(eV)
   0   2.0000     -15.831005      -430.7836
   1   2.0000     -15.752435      -428.6456
   2   2.0000     -11.479572      -312.3750
   3   2.0000     -11.429570      -311.0144
   4   2.0000     -11.408164      -310.4319
   5   2.0000     -11.387934      -309.8814
   6   2.0000     -11.369378      -309.3765
   7   2.0000     -11.356182      -309.0174
   8   2.0000     -11.352503      -308.9173
   9   2.0000     -11.351135      -308.8801
  10   2.0000     -11.350602      -308.8656
  11   2.0000     -11.347791      -308.7891
  12   2.0000     -11.345454      -308.7255
  13   2.0000     -11.344748      -308.7063
  14   2.0000     -11.342840      -308.6544
  15   2.0000     -11.334716      -308.4333
  16   2.0000     -11.332625      -308.3764
  17   2.0000     -11.332047      -308.3607
  18   2.0000     -11.331957      -308.3582
  19   2.0000     -11.329886      -308.3019
  20   2.0000     -11.328149      -308.2546
  21   2.0000      -1.541255       -41.9397
  22   2.0000      -1.333651       -36.2905
  23   2.0000      -1.274131       -34.6709
  24   2.0000      -1.263248       -34.3747
  25   2.0000      -1.258672       -34.2502
  26   2.0000      -1.187131       -32.3035
  27   2.0000      -1.148328       -31.2476
  28   2.0000      -1.117386       -30.4056
  29   2.0000      -1.115249       -30.3475
  30   2.0000      -1.108798       -30.1719
  31   2.0000      -1.090841       -29.6833
  32   2.0000      -1.070238       -29.1227
  33   2.0000      -1.000516       -27.2254
  34   2.0000      -0.970637       -26.4124
  35   2.0000      -0.961166       -26.1547
  36   2.0000      -0.930228       -25.3128
  37   2.0000      -0.926023       -25.1984
  38   2.0000      -0.906111       -24.6565
  39   2.0000      -0.902512       -24.5586
  40   2.0000      -0.874347       -23.7922
  41   2.0000      -0.845104       -22.9965
  42   2.0000      -0.828197       -22.5364
  43   2.0000      -0.809434       -22.0258
  44   2.0000      -0.800101       -21.7719
  45   2.0000      -0.790028       -21.4977
  46   2.0000      -0.787086       -21.4177
  47   2.0000      -0.761800       -20.7296
  48   2.0000      -0.755374       -20.5548
  49   2.0000      -0.745330       -20.2814
  50   2.0000      -0.734004       -19.9733
  51   2.0000      -0.721221       -19.6254
  52   2.0000      -0.704781       -19.1781
  53   2.0000      -0.697760       -18.9870
  54   2.0000      -0.689069       -18.7505
  55   2.0000      -0.682873       -18.5819
  56   2.0000      -0.672633       -18.3033
  57   2.0000      -0.658853       -17.9283
  58   2.0000      -0.653189       -17.7742
  59   2.0000      -0.640109       -17.4183
  60   2.0000      -0.633586       -17.2408
  61   2.0000      -0.630726       -17.1629
  62   2.0000      -0.618288       -16.8245
  63   2.0000      -0.613209       -16.6863
  64   2.0000      -0.611397       -16.6370
  65   2.0000      -0.607762       -16.5381
  66   2.0000      -0.605264       -16.4701
  67   2.0000      -0.598599       -16.2887
  68   2.0000      -0.592355       -16.1188
  69   2.0000      -0.590928       -16.0800
  70   2.0000      -0.580562       -15.7979
  71   2.0000      -0.572871       -15.5886
  72   2.0000      -0.531829       -14.4718
  73   2.0000      -0.503604       -13.7038
  74   2.0000      -0.438461       -11.9311
  75   2.0000      -0.406715       -11.0673
  76   0.0000      -0.070799        -1.9265
  77   0.0000      -0.058954        -1.6042
  78   0.0000      -0.052058        -1.4166
  79   0.0000      -0.049384        -1.3438
  80   0.0000      -0.042184        -1.1479

MULLIKEN ATOMIC CHARGES
-----------------------
   0 C :   -0.649412
   1 C :   -0.278809
   2 C :   -0.277492
   3 C :   -0.725888
   4 H :    0.306492
   5 H :    0.236834
   6 H :    0.638173
   7 H :    0.225171
   8 C :   -1.017810
   9 H :    0.334339
  10 H :    0.213242
  11 H :    0.561426
  12 H :    0.400199
  13 N :    0.676507
  14 N :   -0.807643
  15 C :   -0.070569
  16 C :    1.415208
  17 C :    0.138070
  18 C :   -0.590920
  19 C :   -0.890306
  20 H :    0.034051
  21 C :   -0.705677
  22 H :    0.148801
  23 C :   -0.134104
  24 H :    0.438499
  25 H :    0.473579
  26 H :    0.564343
  27 C :    0.006384
  28 C :   -0.354330
  29 H :   -0.098039
  30 C :    0.319134
  31 C :    0.022089
  32 C :   -0.824050
  33 H :    0.168101
  34 H :    0.228493
  35 C :   -0.514264
  36 C :   -0.736818
  37 H :    0.401885
  38 H :    0.350758
  39 H :    0.295408
  40 H :    0.131154
  41 H :    0.451163
  42 H :    0.506598
  43 H :    0.586513
  44 H :   -0.141390
  45 H :   -0.455091
Sum of atomic charges:    1.0000000

LOEWDIN ATOMIC CHARGES
----------------------
   0 C :    0.366198
   1 C :   -0.040250
   2 C :    0.008369
   3 C :    0.369269
   4 H :   -0.134068
   5 H :   -0.128705
   6 H :   -0.173702
   7 H :   -0.118761
   8 C :    0.371314
   9 H :   -0.119572
  10 H :   -0.114329
  11 H :   -0.099107
  12 H :   -0.097769
  13 N :    0.235438
  14 N :    0.581569
  15 C :    0.227551
  16 C :   -0.141674
  17 C :    0.209467
  18 C :    0.208065
  19 C :    0.211832
  20 H :   -0.186965
  21 C :    0.213881
  22 H :   -0.167710
  23 C :    0.211876
  24 H :   -0.174038
  25 H :   -0.172153
  26 H :   -0.174072
  27 C :    0.258577
  28 C :    0.251908
  29 H :   -0.257661
  30 C :    0.063748
  31 C :    0.012944
  32 C :    0.333900
  33 H :   -0.129476
  34 H :   -0.118086
  35 C :    0.356582
  36 C :    0.335226
  37 H :   -0.171401
  38 H :   -0.125651
  39 H :   -0.141543
  40 H :   -0.127328
  41 H :   -0.113819
  42 H :   -0.112886
  43 H :   -0.122499
  44 H :   -0.165713
  45 H :   -0.198776

  Mayer bond orders larger than 0.100000
B(  0-C ,  1-C ) :   1.0251 B(  0-C ,  3-C ) :   1.0892 B(  0-C ,  4-H ) :   0.9535
B(  0-C ,  5-H ) :   1.0165 B(  0-C ,  6-H ) :  -0.1015 B(  0-C ,  8-C ) :   0.1094
B(  1-C ,  2-C ) :  -0.1600 B(  1-C ,  8-C ) :   1.0886 B(  1-C , 11-H ) :   0.6801
B(  1-C , 13-N ) :  -0.2219 B(  1-C , 14-N ) :   1.1490 B(  2-C ,  3-C ) :   0.7739
B(  2-C ,  8-C ) :   1.2044 B(  2-C , 12-H ) :   0.7907 B(  2-C , 13-N ) :   0.8966
B(  2-C , 27-C ) :  -0.2518 B(  3-C ,  6-H ) :   0.4835 B(  3-C ,  7-H ) :   0.9999
B(  3-C , 13-N ) :  -0.1380 B(  8-C ,  9-H ) :   0.8744 B(  8-C , 10-H ) :   1.1292
B(  8-C , 13-N ) :  -0.3963 B(  8-C , 14-N ) :   0.1538 B(  9-H , 13-N ) :  -0.1039
B( 13-N , 27-C ) :   1.7976 B( 13-N , 30-C ) :  -0.2931 B( 14-N , 29-H ) :   1.1128
B( 14-N , 30-C ) :  -0.1221 B( 15-C , 17-C ) :   0.1258 B( 15-C , 18-C ) :   0.4365
B( 15-C , 28-C ) :   1.2586 B( 15-C , 31-C ) :  -0.1227 B( 15-C , 36-C ) :  -0.1297
B( 15-C , 39-H ) :  -0.1128 B( 15-C , 44-H ) :  -0.2849 B( 15-C , 45-H ) :   1.9792
B( 16-C , 17-C ) :   0.8284 B( 16-C , 18-C ) :   0.6331 B( 16-C , 19-C ) :   0.3310
B( 16-C , 20-H ) :  -0.1541 B( 16-C , 21-C ) :   0.1266 B( 16-C , 22-H ) :  -0.1050
B( 16-C , 45-H ) :  -0.4035 B( 17-C , 18-C ) :  -0.3723 B( 17-C , 19-C ) :   1.2423
B( 17-C , 20-H ) :   1.3899 B( 17-C , 28-C ) :  -0.2132 B( 18-C , 20-H ) :   0.1019
B( 18-C , 21-C ) :   1.1117 B( 18-C , 22-H ) :   1.3440 B( 18-C , 45-H ) :  -0.2142
B( 19-C , 20-H ) :  -0.1259 B( 19-C , 21-C ) :   0.1190 B( 19-C , 23-C ) :   1.1029
B( 19-C , 24-H ) :   0.8234 B( 19-C , 26-H ) :  -0.1237 B( 20-H , 28-C ) :  -0.1743
B( 21-C , 22-H ) :  -0.1238 B( 21-C , 23-C ) :   1.1443 B( 21-C , 25-H ) :   0.7920
B( 23-C , 26-H ) :   0.6360 B( 27-C , 28-C ) :   0.1497 B( 27-C , 30-C ) :   0.5569
B( 27-C , 32-C ) :  -0.1504 B( 27-C , 33-H ) :  -0.1088 B( 27-C , 41-H ) :  -0.4784
B( 27-C , 43-H ) :   0.3977 B( 28-C , 31-C ) :   0.6110 B( 28-C , 42-H ) :  -0.1819
B( 28-C , 44-H ) :   1.8692 B( 30-C , 32-C ) :   1.0547 B( 30-C , 35-C ) :   0.8349
B( 30-C , 41-H ) :   0.9417 B( 31-C , 32-C ) :   1.0551 B( 31-C , 36-C ) :   1.0536
B( 31-C , 42-H ) :   0.7812 B( 32-C , 33-H ) :   1.1181 B( 32-C , 34-H ) :   1.0038
B( 32-C , 35-C ) :   0.1009 B( 32-C , 36-C ) :   0.1881 B( 32-C , 43-H ) :  -0.1424
B( 35-C , 36-C ) :   1.0637 B( 35-C , 37-H ) :   0.8679 B( 35-C , 38-H ) :   0.8686
B( 36-C , 39-H ) :   0.9499 B( 36-C , 40-H ) :   1.1408 B( 36-C , 42-H ) :  -0.1320

MP2 TOTAL ENERGY:     -846.542527273 Eh
FINAL SINGLE POINT ENERGY      -846.542527273007

DIPOLE MOMENT
-------------
                                X             Y             Z
Electronic contribution:     -4.94078      -0.74374      -1.92950
Nuclear contribution   :      6.90878       2.41135       1.06322
                        -----------------------------------------
Total Dipole Moment    :      1.96800       1.66761      -0.86629
                        -----------------------------------------
Magnitude (a.u.)       :      2.72110
Magnitude (Debye)      :      6.91648

Rotational constants in cm-1:     0.012053     0.010109     0.006539
Rotational constants in MHz :   361.333408   303.062782   196.036043

                             ****ORCA TERMINATED NORMALLY****
TOTAL RUN TIME: 0 days 1 hours 15 minutes 6 seconds 506 msec
