                         Program Version 4.2.1 -  RELEASE  -
|  1> %pal
|  2>  nprocs 32
|  3> end
|  4> !RI-MP2 aug-cc-pVTZ aug-cc-pVTZ/C TightSCF
|  5> %maxcore 4500
|  6> *xyzfile 0 2  03_31P1.xyz
|  7>
|  8>
|  9>                          ****END OF INPUT****

CARTESIAN COORDINATES (ANGSTROEM)
---------------------------------
  C      3.200838    0.401652   -0.050926
  C      2.777169   -0.851885    0.633600
  C      2.192984    1.478916   -0.255847
  C      1.425170   -1.366906    0.120386
  C      0.393408   -0.241251    0.108821
  C      0.852220    0.926769   -0.759184
  C     -2.326383    0.277813    0.264722
  C     -3.773988    0.037907   -0.077811
  O     -1.953528    1.195607    0.947022
  H      2.681918   -0.665595    1.717302
  H      3.536882   -1.629991    0.529413
  H      2.567668    2.238422   -0.945870
  H      2.010156    2.001597    0.698563
  H      1.076610   -2.193007    0.744069
  H      1.548586   -1.756119   -0.895482
  H      0.215699    0.113021    1.127030
  H      0.097169    1.713845   -0.751095
  H      0.961269    0.579453   -1.791142
  H     -4.378570    0.201668    0.814162
  H     -3.948210   -0.962100   -0.473045
  H     -4.072391    0.771778   -0.829783
  S     -1.210812   -0.911155   -0.453980
  H      4.255919    0.622553   -0.159191

 Total Charge           Charge          ....    0
 Multiplicity           Mult            ....    2
 Number of Electrons    NEL             ....   85
 Basis Dimension        Dim             ....  763

ORBITAL ENERGIES
----------------
                 SPIN UP ORBITALS
  NO   OCC          E(Eh)            E(eV)
   0   1.0000     -91.962760     -2502.4339
   1   1.0000     -20.552422      -559.2598
   2   1.0000     -11.360470      -309.1341
   3   1.0000     -11.261402      -306.4383
   4   1.0000     -11.242620      -305.9272
   5   1.0000     -11.230618      -305.6007
   6   1.0000     -11.228015      -305.5298
   7   1.0000     -11.225797      -305.4695
   8   1.0000     -11.222827      -305.3886
   9   1.0000     -11.221565      -305.3543
  10   1.0000      -8.964616      -243.9396
  11   1.0000      -6.645735      -180.8396
  12   1.0000      -6.644620      -180.8093
  13   1.0000      -6.644048      -180.7937
  14   1.0000      -1.403452       -38.1899
  15   1.0000      -1.139519       -31.0079
  16   1.0000      -1.062531       -28.9129
  17   1.0000      -1.023872       -27.8610
  18   1.0000      -1.015859       -27.6429
  19   1.0000      -0.946705       -25.7611
  20   1.0000      -0.847711       -23.0674
  21   1.0000      -0.821315       -22.3491
  22   1.0000      -0.752744       -20.4832
  23   1.0000      -0.732037       -19.9197
  24   1.0000      -0.660400       -17.9704
  25   1.0000      -0.653026       -17.7698
  26   1.0000      -0.633044       -17.2260
  27   1.0000      -0.617074       -16.7914
  28   1.0000      -0.609805       -16.5936
  29   1.0000      -0.602021       -16.3818
  30   1.0000      -0.580395       -15.7934
  31   1.0000      -0.557087       -15.1591
  32   1.0000      -0.542564       -14.7639
  33   1.0000      -0.534071       -14.5328
  34   1.0000      -0.521096       -14.1798
  35   1.0000      -0.514812       -14.0087
  36   1.0000      -0.493093       -13.4177
  37   1.0000      -0.472710       -12.8631
  38   1.0000      -0.455736       -12.4012
  39   1.0000      -0.430350       -11.7104
  40   1.0000      -0.404925       -11.0186
  41   1.0000      -0.365937        -9.9576
  42   1.0000      -0.329605        -8.9690
  43   0.0000       0.028533         0.7764
  44   0.0000       0.029939         0.8147
  45   0.0000       0.034622         0.9421
  46   0.0000       0.039136         1.0650
  47   0.0000       0.045659         1.2425

                 SPIN DOWN ORBITALS
  NO   OCC          E(Eh)            E(eV)
   0   1.0000     -91.962738     -2502.4333
   1   1.0000     -20.552420      -559.2598
   2   1.0000     -11.360466      -309.1340
   3   1.0000     -11.261610      -306.4440
   4   1.0000     -11.242615      -305.9271
   5   1.0000     -11.229744      -305.5769
   6   1.0000     -11.228837      -305.5522
   7   1.0000     -11.224737      -305.4406
   8   1.0000     -11.221757      -305.3595
   9   1.0000     -11.204227      -304.8825
  10   1.0000      -8.964585      -243.9388
  11   1.0000      -6.645695      -180.8386
  12   1.0000      -6.644582      -180.8083
  13   1.0000      -6.644028      -180.7932
  14   1.0000      -1.403449       -38.1898
  15   1.0000      -1.130851       -30.7720
  16   1.0000      -1.052212       -28.6322
  17   1.0000      -1.014587       -27.6083
  18   1.0000      -1.011847       -27.5338
  19   1.0000      -0.933258       -25.3952
  20   1.0000      -0.846420       -23.0323
  21   1.0000      -0.803277       -21.8583
  22   1.0000      -0.731864       -19.9150
  23   1.0000      -0.728304       -19.8182
  24   1.0000      -0.657205       -17.8835
  25   1.0000      -0.648852       -17.6561
  26   1.0000      -0.631521       -17.1846
  27   1.0000      -0.616130       -16.7657
  28   1.0000      -0.604442       -16.4477
  29   1.0000      -0.590631       -16.0719
  30   1.0000      -0.567254       -15.4358
  31   1.0000      -0.550011       -14.9666
  32   1.0000      -0.540076       -14.6962
  33   1.0000      -0.528242       -14.3742
  34   1.0000      -0.516021       -14.0416
  35   1.0000      -0.513180       -13.9643
  36   1.0000      -0.486096       -13.2274
  37   1.0000      -0.467729       -12.7276
  38   1.0000      -0.451331       -12.2813
  39   1.0000      -0.427472       -11.6321
  40   1.0000      -0.404624       -11.0104
  41   1.0000      -0.365660        -9.9501
  42   0.0000       0.028333         0.7710
  43   0.0000       0.030043         0.8175
  44   0.0000       0.034700         0.9442
  45   0.0000       0.039296         1.0693
  46   0.0000       0.045419         1.2359

MULLIKEN ATOMIC CHARGES AND SPIN POPULATIONS
--------------------------------------------
   0 C :   -0.937160    1.292008
   1 C :   -0.224962   -0.207143
   2 C :   -0.253447   -0.209017
   3 C :   -0.820386    0.023963
   4 C :    0.550888   -0.009176
   5 C :   -0.684137    0.021519
   6 C :    0.662509    0.000921
   7 C :   -0.742472    0.000414
   8 O :   -0.872318   -0.000276
   9 H :    0.214005    0.081829
  10 H :    0.288193    0.004519
  11 H :    0.284169    0.005567
  12 H :    0.204086    0.085300
  13 H :    0.317462    0.002607
  14 H :    0.244615   -0.004536
  15 H :    0.321453    0.001468
  16 H :    0.314106    0.001769
  17 H :    0.255408   -0.005289
  18 H :    0.306402    0.000057
  19 H :    0.319953   -0.000011
  20 H :    0.303182    0.000045
  21 S :   -0.412965    0.003679
  22 H :    0.361416   -0.090217
Sum of atomic charges         :    0.0000000

LOEWDIN ATOMIC CHARGES AND SPIN POPULATIONS
-------------------------------------------
   0 C :    0.307974    0.547248
   1 C :    0.258137    0.113943
   2 C :    0.260816    0.113647
   3 C :    0.211828    0.015471
   4 C :   -0.360134    0.001012
   5 C :    0.223308    0.015556
   6 C :   -0.928048    0.000283
   7 C :    0.499693    0.000096
   8 O :    0.407911    0.000076
   9 H :   -0.140159    0.029597
  10 H :   -0.153611    0.004452
  11 H :   -0.153142    0.004361
  12 H :   -0.138366    0.029236
  13 H :   -0.155031    0.001766
  14 H :   -0.149544    0.003547
  15 H :   -0.212789    0.000875
  16 H :   -0.161843    0.001773
  17 H :   -0.150197    0.003507
  18 H :   -0.181983    0.000021
  19 H :   -0.209409    0.000033
  20 H :   -0.177357    0.000025
  21 S :    1.283069    0.001017
  22 H :   -0.181125    0.112457

  Mayer bond orders larger than 0.100000
B(  0-C ,  1-C ) :   0.6800 B(  0-C ,  2-C ) :   0.6984 B(  0-C ,  3-C ) :   0.1960
B(  0-C ,  5-C ) :   0.1602 B(  0-C , 22-H ) :   0.8268 B(  1-C ,  3-C ) :   0.9952
B(  1-C ,  9-H ) :   0.9922 B(  1-C , 10-H ) :   0.9351 B(  2-C ,  5-C ) :   0.9065
B(  2-C , 11-H ) :   0.9372 B(  2-C , 12-H ) :   0.9919 B(  3-C ,  4-C ) :   0.7133
B(  3-C ,  5-C ) :   0.1446 B(  3-C , 13-H ) :   0.9699 B(  3-C , 14-H ) :   1.0185
B(  4-C ,  5-C ) :   0.8180 B(  4-C , 15-H ) :   0.9009 B(  4-C , 21-S ) :   0.8345
B(  5-C , 16-H ) :   0.9642 B(  5-C , 17-H ) :   1.0007 B(  5-C , 21-S ) :   0.1103
B(  6-C ,  7-C ) :   0.5844 B(  6-C ,  8-O ) :   1.4100 B(  6-C , 21-S ) :   1.0727
B(  7-C ,  8-O ) :  -0.1061 B(  7-C , 18-H ) :   0.9652 B(  7-C , 19-H ) :   0.9576
B(  7-C , 20-H ) :   0.9406

MP2 TOTAL ENERGY:     -784.795988860 Eh
FINAL SINGLE POINT ENERGY      -784.795988859680

DIPOLE MOMENT
-------------
                                X             Y             Z
Electronic contribution:     -6.60067      -1.47526      -0.09241
Nuclear contribution   :      6.65876       1.09891      -0.18895
                        -----------------------------------------
Total Dipole Moment    :      0.05809      -0.37635      -0.28136
                        -----------------------------------------
Magnitude (a.u.)       :      0.47347
Magnitude (Debye)      :      1.20347

Rotational constants in cm-1:     0.087036     0.020950     0.018648
Rotational constants in MHz :  2609.259844   628.060835   559.047013

                             ****ORCA TERMINATED NORMALLY****
TOTAL RUN TIME: 0 days 0 hours 10 minutes 33 seconds 194 msec
