                         Program Version 4.2.1 -  RELEASE  -
|  1> %pal
|  2>  nprocs 32
|  3> end
|  4> !RI-MP2 aug-cc-pVTZ aug-cc-pVTZ/C TightSCF
|  5> %maxcore 4500
|  6> *xyzfile 1 2  04_62P1.xyz
|  7>
|  8>
|  9>                          ****END OF INPUT****

CARTESIAN COORDINATES (ANGSTROEM)
---------------------------------
  N     -0.471871    1.017263    0.411125
  C     -1.775423    0.915915    0.040397
  H     -0.069512    0.262871    0.957531
  C     -2.399515   -0.367112    0.007654
  H     -2.262923    1.811052   -0.320801
  O     -3.731997   -0.418337   -0.128949
  N     -1.745147   -1.484067    0.080339
  H     -2.414988   -2.252957    0.093735
  C      0.353896    2.076826    0.034617
  C      1.845213    1.769492    0.193238
  O     -0.073281    3.083943   -0.456739
  N      2.149246    0.515113   -0.495188
  H      2.120770    1.671852    1.243175
  H      2.409356    2.584134   -0.252031
  H      2.272342    0.549282   -1.496891
  H     -4.148473    0.446845   -0.039916
  C      1.882913   -0.657031    0.095599
  C      1.750746   -1.898540   -0.778663
  O      1.625279   -0.772522    1.284593
  N      0.676337   -2.696261   -0.127977
  H      2.679016   -2.470696   -0.791989
  H      1.451085   -1.668929   -1.799985
  H      0.934261   -2.837523    0.854013
  H      0.542762   -3.600351   -0.579919
  H     -0.280642   -2.141893   -0.093315

 Total Charge           Charge          ....    1
 Multiplicity           Mult            ....    2
 Number of Electrons    NEL             ....   99
 Basis Dimension        Dim             ....  874

ORBITAL ENERGIES
----------------
                 SPIN UP ORBITALS
  NO   OCC          E(Eh)            E(eV)
   0   1.0000     -20.739991      -564.3638
   1   1.0000     -20.696860      -563.1902
   2   1.0000     -20.673580      -562.5567
   3   1.0000     -15.832812      -430.8327
   4   1.0000     -15.760082      -428.8536
   5   1.0000     -15.738594      -428.2689
   6   1.0000     -15.706132      -427.3856
   7   1.0000     -11.531926      -313.7997
   8   1.0000     -11.498124      -312.8799
   9   1.0000     -11.493900      -312.7649
  10   1.0000     -11.475156      -312.2549
  11   1.0000     -11.430262      -311.0332
  12   1.0000     -11.423433      -310.8474
  13   1.0000      -1.574458       -42.8432
  14   1.0000      -1.573043       -42.8047
  15   1.0000      -1.542671       -41.9782
  16   1.0000      -1.457204       -39.6525
  17   1.0000      -1.416280       -38.5389
  18   1.0000      -1.403459       -38.1901
  19   1.0000      -1.351415       -36.7739
  20   1.0000      -1.194887       -32.5145
  21   1.0000      -1.154833       -31.4246
  22   1.0000      -1.108843       -30.1732
  23   1.0000      -0.979514       -26.6539
  24   1.0000      -0.967216       -26.3193
  25   1.0000      -0.949153       -25.8278
  26   1.0000      -0.943923       -25.6855
  27   1.0000      -0.922439       -25.1009
  28   1.0000      -0.902577       -24.5604
  29   1.0000      -0.867529       -23.6067
  30   1.0000      -0.851820       -23.1792
  31   1.0000      -0.833177       -22.6719
  32   1.0000      -0.821975       -22.3671
  33   1.0000      -0.800840       -21.7920
  34   1.0000      -0.794537       -21.6204
  35   1.0000      -0.770667       -20.9709
  36   1.0000      -0.757703       -20.6182
  37   1.0000      -0.753933       -20.5156
  38   1.0000      -0.743117       -20.2212
  39   1.0000      -0.722199       -19.6520
  40   1.0000      -0.709322       -19.3016
  41   1.0000      -0.707492       -19.2518
  42   1.0000      -0.686546       -18.6819
  43   1.0000      -0.635074       -17.2812
  44   1.0000      -0.632521       -17.2118
  45   1.0000      -0.613124       -16.6840
  46   1.0000      -0.598775       -16.2935
  47   1.0000      -0.597033       -16.2461
  48   1.0000      -0.551391       -15.0041
  49   1.0000      -0.460834       -12.5399
  50   0.0000      -0.090321        -2.4578
  51   0.0000      -0.072723        -1.9789
  52   0.0000      -0.063145        -1.7183
  53   0.0000      -0.057141        -1.5549
  54   0.0000      -0.047432        -1.2907

                 SPIN DOWN ORBITALS
  NO   OCC          E(Eh)            E(eV)
   0   1.0000     -20.740239      -564.3706
   1   1.0000     -20.696970      -563.1932
   2   1.0000     -20.670463      -562.4719
   3   1.0000     -15.833021      -430.8384
   4   1.0000     -15.759933      -428.8496
   5   1.0000     -15.735724      -428.1908
   6   1.0000     -15.694314      -427.0640
   7   1.0000     -11.531920      -313.7995
   8   1.0000     -11.504088      -313.0421
   9   1.0000     -11.494732      -312.7876
  10   1.0000     -11.475149      -312.2547
  11   1.0000     -11.423400      -310.8465
  12   1.0000     -11.411856      -310.5324
  13   1.0000      -1.574486       -42.8439
  14   1.0000      -1.573367       -42.8135
  15   1.0000      -1.536250       -41.8035
  16   1.0000      -1.457424       -39.6585
  17   1.0000      -1.411786       -38.4166
  18   1.0000      -1.389838       -37.8194
  19   1.0000      -1.330794       -36.2128
  20   1.0000      -1.190599       -32.3979
  21   1.0000      -1.132514       -30.8173
  22   1.0000      -1.088309       -29.6144
  23   1.0000      -0.977414       -26.5968
  24   1.0000      -0.964022       -26.2324
  25   1.0000      -0.948122       -25.7997
  26   1.0000      -0.935688       -25.4614
  27   1.0000      -0.921037       -25.0627
  28   1.0000      -0.901586       -24.5334
  29   1.0000      -0.866953       -23.5910
  30   1.0000      -0.846229       -23.0271
  31   1.0000      -0.829500       -22.5718
  32   1.0000      -0.819839       -22.3089
  33   1.0000      -0.796966       -21.6865
  34   1.0000      -0.788943       -21.4682
  35   1.0000      -0.762361       -20.7449
  36   1.0000      -0.752169       -20.4676
  37   1.0000      -0.747390       -20.3375
  38   1.0000      -0.735858       -20.0237
  39   1.0000      -0.718084       -19.5400
  40   1.0000      -0.706128       -19.2147
  41   1.0000      -0.699242       -19.0273
  42   1.0000      -0.674008       -18.3407
  43   1.0000      -0.622135       -16.9292
  44   1.0000      -0.611386       -16.6367
  45   1.0000      -0.597461       -16.2577
  46   1.0000      -0.579287       -15.7632
  47   1.0000      -0.548953       -14.9378
  48   1.0000      -0.533023       -14.5043
  49   0.0000      -0.090558        -2.4642
  50   0.0000      -0.079628        -2.1668
  51   0.0000      -0.072096        -1.9618
  52   0.0000      -0.062976        -1.7137
  53   0.0000      -0.056960        -1.5500

MULLIKEN ATOMIC CHARGES AND SPIN POPULATIONS
--------------------------------------------
   0 N :   -0.020743    0.065116
   1 C :   -0.434678    0.887775
   2 H :    0.618886    0.003513
   3 C :    0.400566   -0.211772
   4 H :    0.448167   -0.102268
   5 O :   -0.544340    0.000021
   6 N :   -0.366725    0.346678
   7 H :    0.170419   -0.018716
   8 C :    0.198787   -0.045497
   9 C :    0.023268    0.000174
  10 O :   -0.877347    0.079476
  11 N :   -0.353757    0.002149
  12 H :    0.343011   -0.000967
  13 H :    0.416907   -0.000775
  14 H :    0.060328   -0.001152
  15 H :    0.192483    0.000167
  16 C :    0.896958    0.003017
  17 C :   -0.403880   -0.000248
  18 O :   -1.020193   -0.001890
  19 N :    0.040025   -0.001802
  20 H :    0.410801   -0.000354
  21 H :    0.264036   -0.000554
  22 H :    0.080223    0.001137
  23 H :    0.024894    0.000765
  24 H :    0.431904   -0.003994
Sum of atomic charges         :    1.0000000

LOEWDIN ATOMIC CHARGES AND SPIN POPULATIONS
-------------------------------------------
   0 N :    0.523123    0.143144
   1 C :    0.191455    0.408963
   2 H :   -0.414635    0.008175
   3 C :   -0.514528    0.066449
   4 H :   -0.166800    0.081689
   5 O :    0.876139   -0.012284
   6 N :    0.731154    0.207073
   7 H :   -0.352708    0.029335
   8 C :   -0.591985    0.007580
   9 C :    0.260918    0.000335
  10 O :    0.494548    0.050714
  11 N :    0.582161    0.002893
  12 H :   -0.141981    0.000684
  13 H :   -0.139016   -0.000392
  14 H :   -0.250425    0.000158
  15 H :   -0.443173    0.002755
  16 C :   -0.613551    0.000218
  17 C :    0.354677   -0.000248
  18 O :    0.548660   -0.001700
  19 N :    1.039504   -0.002473
  20 H :   -0.108732   -0.000077
  21 H :   -0.121082    0.000042
  22 H :   -0.196253    0.000033
  23 H :   -0.139344   -0.000178
  24 H :   -0.408125    0.007112

  Mayer bond orders larger than 0.100000
B(  0-N ,  1-C ) :   1.0680 B(  0-N ,  2-H ) :   0.5814 B(  0-N ,  8-C ) :   1.2385
B(  1-C ,  2-H ) :  -0.1557 B(  1-C ,  3-C ) :   0.6819 B(  1-C ,  4-H ) :   0.8570
B(  1-C ,  5-O ) :  -0.1610 B(  1-C ,  8-C ) :  -0.3023 B(  2-H ,  8-C ) :  -0.1943
B(  3-C ,  5-O ) :   0.9543 B(  3-C ,  6-N ) :   1.4367 B(  5-O ,  6-N ) :  -0.1172
B(  5-O , 15-H ) :   0.9981 B(  6-N ,  7-H ) :   1.0058 B(  8-C ,  9-C ) :   0.4725
B(  8-C , 10-O ) :   1.1533 B(  9-C , 11-N ) :   0.9521 B(  9-C , 12-H ) :   0.9194
B(  9-C , 13-H ) :   0.8708 B( 11-N , 14-H ) :   1.0513 B( 11-N , 16-C ) :   0.9926
B( 16-C , 17-C ) :   0.8440 B( 16-C , 18-O ) :   1.1196 B( 17-C , 19-N ) :   0.9308
B( 17-C , 20-H ) :   0.8533 B( 17-C , 21-H ) :   0.9482 B( 19-N , 22-H ) :   1.0366
B( 19-N , 23-H ) :   1.1278 B( 19-N , 24-H ) :   0.7020

MP2 TOTAL ENERGY:     -679.147214914 Eh
FINAL SINGLE POINT ENERGY      -679.147214914235

DIPOLE MOMENT
-------------
                                X             Y             Z
Electronic contribution:     -2.28428       4.53943       1.11816
Nuclear contribution   :      3.19580      -7.61661      -2.21168
                        -----------------------------------------
Total Dipole Moment    :      0.91152      -3.07719      -1.09352
                        -----------------------------------------
Magnitude (a.u.)       :      3.39054
Magnitude (Debye)      :      8.61806

Rotational constants in cm-1:     0.029483     0.023436     0.014244
Rotational constants in MHz :   883.865486   702.606737   427.018384

                             ****ORCA TERMINATED NORMALLY****
TOTAL RUN TIME: 0 days 0 hours 26 minutes 42 seconds 701 msec
