                         Program Version 4.2.1 -  RELEASE  -
|  1> %pal
|  2>  nprocs 32
|  3> end
|  4> !RI-MP2 aug-cc-pVTZ aug-cc-pVTZ/C TightSCF
|  5> %maxcore 4500
|  6> *xyzfile -1 1  08_10P2.xyz
|  7>
|  8>
|  9>                          ****END OF INPUT****

CARTESIAN COORDINATES (ANGSTROEM)
---------------------------------
  S      2.010853   -0.473170   -0.146556
  C      0.922909    0.497514    0.971586
  C     -0.439311    0.846559    0.363098
  H      1.409986    1.441627    1.227812
  H      0.756138   -0.051547    1.902972
  N     -0.238361    1.646879   -0.847275
  C     -1.330940   -0.373359    0.085229
  H     -1.006563    1.445969    1.081023
  O     -2.527501   -0.332621    0.290152
  O     -0.756491   -1.441350   -0.437968
  H      0.259180   -1.305108   -0.477117
  H      0.510991    1.210203   -1.383252
  H     -1.078857    1.668917   -1.412560

 Total Charge           Charge          ....   -1
 Multiplicity           Mult            ....    1
 Number of Electrons    NEL             ....   64
 Basis Dimension        Dim             ....  464

ORBITAL ENERGIES
----------------

  NO   OCC          E(Eh)            E(eV)
   0   2.0000     -91.712666     -2495.6285
   1   2.0000     -20.433819      -556.0325
   2   2.0000     -20.389384      -554.8234
   3   2.0000     -15.411070      -419.3565
   4   2.0000     -11.223164      -305.3978
   5   2.0000     -11.128813      -302.8304
   6   2.0000     -11.098361      -302.0018
   7   2.0000      -8.714096      -237.1226
   8   2.0000      -6.395688      -174.0355
   9   2.0000      -6.394102      -173.9923
  10   2.0000      -6.393967      -173.9887
  11   2.0000      -1.296129       -35.2695
  12   2.0000      -1.197426       -32.5836
  13   2.0000      -1.055500       -28.7216
  14   2.0000      -0.873871       -23.7792
  15   2.0000      -0.763464       -20.7749
  16   2.0000      -0.651624       -17.7316
  17   2.0000      -0.645282       -17.5590
  18   2.0000      -0.552608       -15.0372
  19   2.0000      -0.540343       -14.7035
  20   2.0000      -0.503068       -13.6892
  21   2.0000      -0.478715       -13.0265
  22   2.0000      -0.434811       -11.8318
  23   2.0000      -0.416158       -11.3242
  24   2.0000      -0.403044       -10.9674
  25   2.0000      -0.383839       -10.4448
  26   2.0000      -0.318678        -8.6717
  27   2.0000      -0.314572        -8.5599
  28   2.0000      -0.273571        -7.4442
  29   2.0000      -0.253043        -6.8856
  30   2.0000      -0.151856        -4.1322
  31   2.0000      -0.143234        -3.8976
  32   0.0000       0.122447         3.3319
  33   0.0000       0.127246         3.4626
  34   0.0000       0.138133         3.7588
  35   0.0000       0.141059         3.8384
  36   0.0000       0.152437         4.1480

MULLIKEN ATOMIC CHARGES
-----------------------
   0 S :   -0.918787
   1 C :   -0.448688
   2 C :    0.475281
   3 H :    0.228468
   4 H :    0.227566
   5 N :   -0.666385
   6 C :    0.654579
   7 H :    0.308612
   8 O :   -0.863163
   9 O :   -0.598548
  10 H :    0.390913
  11 H :    0.174937
  12 H :    0.035216
Sum of atomic charges:   -1.0000000

LOEWDIN ATOMIC CHARGES
----------------------
   0 S :    0.701018
   1 C :   -0.271412
   2 C :   -0.266243
   3 H :   -0.253193
   4 H :   -0.249636
   5 N :    0.814169
   6 C :   -0.862266
   7 H :   -0.177187
   8 O :    0.378620
   9 O :    0.769009
  10 H :   -0.823587
  11 H :   -0.423541
  12 H :   -0.335751

  Mayer bond orders larger than 0.100000
B(  0-S ,  1-C ) :   0.9753 B(  0-S ,  2-C ) :   0.1725 B(  0-S , 10-H ) :   0.1669
B(  1-C ,  2-C ) :   0.9020 B(  1-C ,  3-H ) :   0.9895 B(  1-C ,  4-H ) :   0.9649
B(  2-C ,  5-N ) :   0.5918 B(  2-C ,  6-C ) :   0.6650 B(  2-C ,  7-H ) :   0.9237
B(  5-N , 11-H ) :   0.8922 B(  5-N , 12-H ) :   1.0389 B(  6-C ,  8-O ) :   1.3799
B(  6-C ,  9-O ) :   0.9708 B(  9-O , 10-H ) :   0.6716

MP2 TOTAL ENERGY:     -720.398940204 Eh
FINAL SINGLE POINT ENERGY      -720.398940203716

DIPOLE MOMENT
-------------
                                X             Y             Z
Electronic contribution:     -1.52306      -3.52416      -0.76484
Nuclear contribution   :      0.72447       4.33934       0.92186
                        -----------------------------------------
Total Dipole Moment    :     -0.79860       0.81518       0.15702
                        -----------------------------------------
Magnitude (a.u.)       :      1.15193
Magnitude (Debye)      :      2.92796

Rotational constants in cm-1:     0.118616     0.052779     0.043874
Rotational constants in MHz :  3556.014753  1582.267985  1315.310435

                             ****ORCA TERMINATED NORMALLY****
TOTAL RUN TIME: 0 days 0 hours 1 minutes 44 seconds 85 msec
