                         Program Version 4.2.1 -  RELEASE  -
|  1> %pal
|  2>  nprocs 32
|  3> end
|  4> !RI-MP2 aug-cc-pVTZ aug-cc-pVTZ/C TightSCF
|  5> %maxcore 4500
|  6> *xyzfile 0 1  08_5P1.xyz
|  7>
|  8>
|  9>                          ****END OF INPUT****

CARTESIAN COORDINATES (ANGSTROEM)
---------------------------------
  C      2.655027    0.922387   -0.003630
  O      3.802988    1.263568   -0.070156
  O      1.677333    1.784737    0.239029
  C      2.298483   -0.557463   -0.176864
  C      2.946502   -1.148540   -1.410642
  H      2.556143   -0.676933   -2.313973
  H      2.751131   -2.220087   -1.458379
  H      4.020986   -0.979853   -1.367280
  O      0.873643   -0.717084   -0.289291
  C      0.187140   -1.169866    0.774848
  O      0.689612   -1.582716    1.780857
  C     -1.299622   -1.082812    0.533088
  C     -1.687424    0.190686   -0.223899
  H     -1.784558   -1.126968    1.509948
  H     -1.616852   -1.961348   -0.031572
  N     -1.096714    1.354796    0.418462
  C     -3.199313    0.285962   -0.345730
  H     -1.286365    0.121370   -1.237360
  O     -3.870690    1.171174    0.105025
  O     -3.707189   -0.750355   -1.032286
  H     -4.667325   -0.636777   -1.081280
  H      0.760099    1.416445    0.267548
  H     -1.376763    2.204893   -0.061149
  H     -1.441647    1.449454    1.369979
  H      2.631816   -1.070477    0.725838

 Total Charge           Charge          ....    0
 Multiplicity           Mult            ....    1
 Number of Electrons    NEL             ....  108
 Basis Dimension        Dim             ....  897

ORBITAL ENERGIES
----------------

  NO   OCC          E(Eh)            E(eV)
   0   2.0000     -20.644393      -561.7625
   1   2.0000     -20.627742      -561.3094
   2   2.0000     -20.591776      -560.3307
   3   2.0000     -20.582460      -560.0772
   4   2.0000     -20.570346      -559.7476
   5   2.0000     -20.532730      -558.7240
   6   2.0000     -15.595456      -424.3739
   7   2.0000     -11.413923      -310.5886
   8   2.0000     -11.407519      -310.4144
   9   2.0000     -11.376476      -309.5697
  10   2.0000     -11.320137      -308.0366
  11   2.0000     -11.318904      -308.0030
  12   2.0000     -11.281850      -306.9948
  13   2.0000     -11.235393      -305.7306
  14   2.0000      -1.501847       -40.8673
  15   2.0000      -1.494077       -40.6559
  16   2.0000      -1.449185       -39.4343
  17   2.0000      -1.398617       -38.0583
  18   2.0000      -1.391491       -37.8644
  19   2.0000      -1.353939       -36.8425
  20   2.0000      -1.248020       -33.9604
  21   2.0000      -1.099175       -29.9101
  22   2.0000      -1.059806       -28.8388
  23   2.0000      -0.973046       -26.4779
  24   2.0000      -0.912141       -24.8206
  25   2.0000      -0.843859       -22.9626
  26   2.0000      -0.836785       -22.7701
  27   2.0000      -0.812468       -22.1084
  28   2.0000      -0.766118       -20.8471
  29   2.0000      -0.743378       -20.2283
  30   2.0000      -0.734690       -19.9919
  31   2.0000      -0.730971       -19.8907
  32   2.0000      -0.714719       -19.4485
  33   2.0000      -0.683852       -18.6086
  34   2.0000      -0.667336       -18.1591
  35   2.0000      -0.657842       -17.9008
  36   2.0000      -0.646632       -17.5957
  37   2.0000      -0.631451       -17.1827
  38   2.0000      -0.628328       -17.0977
  39   2.0000      -0.621382       -16.9087
  40   2.0000      -0.591630       -16.0991
  41   2.0000      -0.583502       -15.8779
  42   2.0000      -0.577772       -15.7220
  43   2.0000      -0.556199       -15.1349
  44   2.0000      -0.548153       -14.9160
  45   2.0000      -0.538341       -14.6490
  46   2.0000      -0.525567       -14.3014
  47   2.0000      -0.516426       -14.0527
  48   2.0000      -0.503334       -13.6964
  49   2.0000      -0.496699       -13.5159
  50   2.0000      -0.476662       -12.9706
  51   2.0000      -0.463179       -12.6037
  52   2.0000      -0.453551       -12.3418
  53   2.0000      -0.432970       -11.7817
  54   0.0000       0.016623         0.4523
  55   0.0000       0.029422         0.8006
  56   0.0000       0.031876         0.8674
  57   0.0000       0.033610         0.9146
  58   0.0000       0.044263         1.2044

MULLIKEN ATOMIC CHARGES
-----------------------
   0 C :    0.413865
   1 O :   -0.907647
   2 O :   -0.587112
   3 C :    0.454279
   4 C :   -0.969238
   5 H :    0.257426
   6 H :    0.258121
   7 H :    0.333551
   8 O :   -0.374881
   9 C :    0.735668
  10 O :   -1.095262
  11 C :   -0.353065
  12 C :    0.986347
  13 H :    0.324967
  14 H :    0.274316
  15 N :   -0.246617
  16 C :    0.268751
  17 H :    0.387999
  18 O :   -0.885123
  19 O :   -0.482785
  20 H :    0.259542
  21 H :    0.614704
  22 H :   -0.038455
  23 H :   -0.049590
  24 H :    0.420240
Sum of atomic charges:    0.0000000

LOEWDIN ATOMIC CHARGES
----------------------
   0 C :   -0.785675
   1 O :    0.445706
   2 O :    0.860230
   3 C :   -0.252378
   4 C :    0.592396
   5 H :   -0.159458
   6 H :   -0.162444
   7 H :   -0.173099
   8 O :    0.608945
   9 C :   -0.786253
  10 O :    0.496079
  11 C :    0.294441
  12 C :   -0.150299
  13 H :   -0.144127
  14 H :   -0.141987
  15 N :    0.874342
  16 C :   -0.771538
  17 H :   -0.140915
  18 O :    0.470968
  19 O :    0.849604
  20 H :   -0.453528
  21 H :   -0.659717
  22 H :   -0.265012
  23 H :   -0.265612
  24 H :   -0.180669

  Mayer bond orders larger than 0.100000
B(  0-C ,  1-O ) :   1.3564 B(  0-C ,  2-O ) :   1.0710 B(  0-C ,  3-C ) :   0.7753
B(  0-C ,  4-C ) :   0.1277 B(  0-C , 21-H ) :  -0.1138 B(  2-O , 21-H ) :   0.3966
B(  3-C ,  4-C ) :   0.8098 B(  3-C ,  8-O ) :   0.7082 B(  3-C , 24-H ) :   0.8369
B(  4-C ,  5-H ) :   0.9863 B(  4-C ,  6-H ) :   0.9840 B(  4-C ,  7-H ) :   0.9372
B(  8-O ,  9-C ) :   1.1243 B(  8-O , 10-O ) :   0.1701 B(  8-O , 12-C ) :  -0.1068
B(  9-C , 10-O ) :   0.9798 B(  9-C , 11-C ) :   0.7010 B( 10-O , 11-C ) :  -0.1198
B( 11-C , 12-C ) :   0.9574 B( 11-C , 13-H ) :   0.9303 B( 11-C , 14-H ) :   0.9988
B( 11-C , 17-H ) :   0.1127 B( 12-C , 15-N ) :   0.7049 B( 12-C , 16-C ) :   0.1242
B( 12-C , 17-H ) :   0.9572 B( 15-N , 16-C ) :   0.1332 B( 15-N , 22-H ) :   1.1456
B( 15-N , 23-H ) :   1.1577 B( 16-C , 17-H ) :  -0.1553 B( 16-C , 18-O ) :   1.3758
B( 16-C , 19-O ) :   1.0031 B( 19-O , 20-H ) :   0.9472

MP2 TOTAL ENERGY:     -778.274110883 Eh
FINAL SINGLE POINT ENERGY      -778.274110882940

DIPOLE MOMENT
-------------
                                X             Y             Z
Electronic contribution:     -2.78835       2.24874       2.62185
Nuclear contribution   :      0.52575      -3.41460      -3.62199
                        -----------------------------------------
Total Dipole Moment    :     -2.26260      -1.16586      -1.00014
                        -----------------------------------------
Magnitude (a.u.)       :      2.73475
Magnitude (Debye)      :      6.95118

Rotational constants in cm-1:     0.043039     0.012034     0.010945
Rotational constants in MHz :  1290.288676   360.775791   328.127341

                             ****ORCA TERMINATED NORMALLY****
TOTAL RUN TIME: 0 days 0 hours 11 minutes 45 seconds 970 msec
