                         Program Version 4.2.1 -  RELEASE  -
|  1> %pal
|  2>  nprocs 32
|  3> end
|  4> !RI-MP2 aug-cc-pVTZ aug-cc-pVTZ/C TightSCF
|  5> %maxcore 4500
|  6> *xyzfile 0 1  09_11R2.xyz
|  7>
|  8>
|  9>                          ****END OF INPUT****

CARTESIAN COORDINATES (ANGSTROEM)
---------------------------------
  C     -0.119038   -1.205316    0.000001
  C     -1.504434   -1.201780    0.000003
  C     -2.200372    0.000000    0.000004
  C     -1.504434    1.201779    0.000002
  C     -0.119039    1.205316    0.000000
  C      0.586964    0.000000   -0.000001
  H      0.428488   -2.139125    0.000000
  H     -2.043318   -2.141389    0.000004
  H     -3.283557    0.000000    0.000006
  H     -2.043319    2.141388    0.000003
  H      0.428487    2.139125   -0.000002
  C      2.017244    0.000001   -0.000003
  C      3.215600   -0.000001   -0.000006
  H      4.278282   -0.000001   -0.000008

 Total Charge           Charge          ....    0
 Multiplicity           Mult            ....    1
 Number of Electrons    NEL             ....   54
 Basis Dimension        Dim             ....  506

ORBITAL ENERGIES
----------------

  NO   OCC          E(Eh)            E(eV)
   0   2.0000     -11.264705      -306.5282
   1   2.0000     -11.246173      -306.0239
   2   2.0000     -11.246128      -306.0227
   3   2.0000     -11.244462      -305.9774
   4   2.0000     -11.241974      -305.9097
   5   2.0000     -11.241661      -305.9011
   6   2.0000     -11.237926      -305.7995
   7   2.0000     -11.227806      -305.5241
   8   2.0000      -1.171381       -31.8749
   9   2.0000      -1.068444       -29.0738
  10   2.0000      -1.027633       -27.9633
  11   2.0000      -0.999693       -27.2030
  12   2.0000      -0.855324       -23.2745
  13   2.0000      -0.838327       -22.8120
  14   2.0000      -0.748360       -20.3639
  15   2.0000      -0.704988       -19.1837
  16   2.0000      -0.665319       -18.1043
  17   2.0000      -0.640531       -17.4297
  18   2.0000      -0.611042       -16.6273
  19   2.0000      -0.597619       -16.2620
  20   2.0000      -0.528219       -14.3736
  21   2.0000      -0.519104       -14.1255
  22   2.0000      -0.507003       -13.7963
  23   2.0000      -0.431497       -11.7416
  24   2.0000      -0.399703       -10.8765
  25   2.0000      -0.347956        -9.4684
  26   2.0000      -0.322828        -8.7846
  27   0.0000       0.027774         0.7558
  28   0.0000       0.031125         0.8470
  29   0.0000       0.034563         0.9405
  30   0.0000       0.042914         1.1677
  31   0.0000       0.050079         1.3627

MULLIKEN ATOMIC CHARGES
-----------------------
   0 C :   -1.332335
   1 C :   -0.513481
   2 C :    0.035693
   3 C :   -0.513501
   4 C :   -1.332340
   5 C :    1.448637
   6 H :   -0.317881
   7 H :    0.560772
   8 H :    0.379465
   9 H :    0.560754
  10 H :   -0.317879
  11 C :    1.463274
  12 C :   -0.585126
  13 H :    0.463947
Sum of atomic charges:    0.0000000

LOEWDIN ATOMIC CHARGES
----------------------
   0 C :    0.201913
   1 C :    0.199783
   2 C :    0.197449
   3 C :    0.199782
   4 C :    0.201912
   5 C :   -0.214135
   6 H :   -0.173603
   7 H :   -0.181732
   8 H :   -0.181345
   9 H :   -0.181731
  10 H :   -0.173603
  11 C :   -0.008374
  12 C :    0.410518
  13 H :   -0.296832

  Mayer bond orders larger than 0.100000
B(  0-C ,  1-C ) :   1.3274 B(  0-C ,  2-C ) :  -0.4022 B(  0-C ,  3-C ) :   0.1995
B(  0-C ,  4-C ) :  -0.3303 B(  0-C ,  5-C ) :   0.4597 B(  0-C ,  6-H ) :   2.4270
B(  0-C ,  7-H ) :  -0.1697 B(  0-C ,  8-H ) :   0.1700 B(  0-C ,  9-H ) :  -0.1809
B(  0-C , 10-H ) :   0.5717 B(  0-C , 11-C ) :   0.2181 B(  0-C , 12-C ) :  -0.3322
B(  1-C ,  2-C ) :   1.0528 B(  1-C ,  3-C ) :   0.1115 B(  1-C ,  4-C ) :   0.1995
B(  1-C ,  5-C ) :   0.3860 B(  1-C ,  6-H ) :  -0.1734 B(  1-C ,  7-H ) :   0.6686
B(  1-C ,  8-H ) :  -0.2201 B(  1-C , 11-C ) :  -0.1215 B(  1-C , 12-C ) :  -0.2207
B(  2-C ,  3-C ) :   1.0529 B(  2-C ,  4-C ) :  -0.4022 B(  2-C ,  6-H ) :  -0.1193
B(  2-C ,  8-H ) :   0.9503 B(  2-C , 10-H ) :  -0.1193 B(  2-C , 11-C ) :   0.2993
B(  2-C , 12-C ) :   0.2460 B(  3-C ,  4-C ) :   1.3274 B(  3-C ,  5-C ) :   0.3860
B(  3-C ,  8-H ) :  -0.2201 B(  3-C ,  9-H ) :   0.6686 B(  3-C , 10-H ) :  -0.1734
B(  3-C , 11-C ) :  -0.1216 B(  3-C , 12-C ) :  -0.2207 B(  4-C ,  5-C ) :   0.4597
B(  4-C ,  6-H ) :   0.5717 B(  4-C ,  7-H ) :  -0.1809 B(  4-C ,  8-H ) :   0.1699
B(  4-C ,  9-H ) :  -0.1697 B(  4-C , 10-H ) :   2.4270 B(  4-C , 11-C ) :   0.2181
B(  4-C , 12-C ) :  -0.3322 B(  5-C ,  7-H ) :  -0.2668 B(  5-C ,  8-H ) :   0.1992
B(  5-C ,  9-H ) :  -0.2668 B(  5-C , 11-C ) :  -0.1534 B(  5-C , 12-C ) :   1.0588
B(  5-C , 13-H ) :   0.1236 B(  6-H ,  7-H ) :  -0.1056 B(  6-H ,  9-H ) :  -0.1123
B(  6-H , 10-H ) :   0.5520 B(  6-H , 11-C ) :  -0.4719 B(  6-H , 12-C ) :  -0.9206
B(  7-H , 10-H ) :  -0.1123 B(  7-H , 11-C ) :   0.2148 B(  7-H , 12-C ) :   0.4037
B(  8-H , 11-C ) :  -0.1973 B(  8-H , 12-C ) :  -0.1363 B(  9-H , 10-H ) :  -0.1056
B(  9-H , 11-C ) :   0.2148 B(  9-H , 12-C ) :   0.4036 B( 10-H , 11-C ) :  -0.4719
B( 10-H , 12-C ) :  -0.9206 B( 11-C , 12-C ) :   3.0928 B( 11-C , 13-H ) :  -0.1405
B( 12-C , 13-H ) :   1.0359

MP2 TOTAL ENERGY:     -307.738618805 Eh
FINAL SINGLE POINT ENERGY      -307.738618805219

DIPOLE MOMENT
-------------
                                X             Y             Z
Electronic contribution:      1.91988       0.00000      -0.00000
Nuclear contribution   :     -2.21918      -0.00000       0.00000
                        -----------------------------------------
Total Dipole Moment    :     -0.29930      -0.00000       0.00000
                        -----------------------------------------
Magnitude (a.u.)       :      0.29930
Magnitude (Debye)      :      0.76076

Rotational constants in cm-1:     0.191428     0.051375     0.040505
Rotational constants in MHz :  5738.867924  1540.186429  1214.295987

                             ****ORCA TERMINATED NORMALLY****
TOTAL RUN TIME: 0 days 0 hours 2 minutes 11 seconds 88 msec
