                         Program Version 4.2.1 -  RELEASE  -
|  1> %pal
|  2>  nprocs 32
|  3> end
|  4> !RI-MP2 aug-cc-pVTZ aug-cc-pVTZ/C TightSCF
|  5> %maxcore 4500
|  6> *xyzfile 0 1  02_40TS.xyz
|  7>
|  8>
|  9>                          ****END OF INPUT****

CARTESIAN COORDINATES (ANGSTROEM)
---------------------------------
  C      0.080678   -0.433051   -0.314444
  C      0.315333   -0.210657    1.100274
  C     -1.573670   -2.458912   -0.151011
  O     -2.045119   -1.869222   -1.245082
  C     -2.144360   -1.913152    0.993942
  C     -2.831004   -0.794902    0.582237
  C     -2.568408   -0.658541   -0.807726
  C     -0.960827    0.315059   -0.909126
  C     -1.342538    1.680537   -0.385936
  O     -0.272612    2.476911   -0.341786
  O     -2.460368    2.049469   -0.140438
  O     -0.416993    0.463616    1.800805
  O      1.411874   -0.820236    1.603130
  C      1.660193   -0.591247    2.991841
  C     -0.501332    3.792476    0.174486
  S      1.216649   -1.341810   -1.324517
  C      2.332938   -0.017518   -1.916790
  C      3.046857    0.727340   -0.800283
  O      3.810199   -0.119680    0.028534
  H     -0.975789   -3.344849   -0.296343
  H     -1.987602   -2.260240    2.002039
  H     -3.329820   -0.057778    1.187243
  H     -3.217517   -0.170756   -1.519160
  H      2.576354   -1.130607    3.218515
  H      0.834528   -0.968051    3.595231
  H      1.786620    0.473331    3.186759
  H      0.462492    4.292729    0.136226
  H     -0.860258    3.726479    1.201205
  H     -1.234972    4.320288   -0.433957
  H     -0.895199    0.341850   -1.994655
  H      1.768674    0.682744   -2.536576
  H      3.056851   -0.535596   -2.549036
  H      2.315928    1.300567   -0.217558
  H      3.744304    1.442282   -1.242882
  H      3.190029   -0.714899    0.469142

 Total Charge           Charge          ....    0
 Multiplicity           Mult            ....    1
 Number of Electrons    NEL             ....  152
 Basis Dimension        Dim             .... 1246

ORBITAL ENERGIES
----------------

  NO   OCC          E(Eh)            E(eV)
   0   2.0000     -91.944151     -2501.9275
   1   2.0000     -20.644198      -561.7572
   2   2.0000     -20.605629      -560.7077
   3   2.0000     -20.596325      -560.4545
   4   2.0000     -20.547099      -559.1150
   5   2.0000     -20.535443      -558.7978
   6   2.0000     -20.526043      -558.5420
   7   2.0000     -11.388269      -309.8906
   8   2.0000     -11.367315      -309.3204
   9   2.0000     -11.356201      -309.0179
  10   2.0000     -11.323238      -308.1210
  11   2.0000     -11.285583      -307.0963
  12   2.0000     -11.284528      -307.0676
  13   2.0000     -11.281153      -306.9758
  14   2.0000     -11.276338      -306.8448
  15   2.0000     -11.265296      -306.5443
  16   2.0000     -11.257935      -306.3440
  17   2.0000     -11.245399      -306.0029
  18   2.0000     -11.244529      -305.9792
  19   2.0000      -8.943583      -243.3673
  20   2.0000      -6.624960      -180.2743
  21   2.0000      -6.623859      -180.2444
  22   2.0000      -6.623213      -180.2268
  23   2.0000      -1.495735       -40.7010
  24   2.0000      -1.470288       -40.0086
  25   2.0000      -1.453013       -39.5385
  26   2.0000      -1.367329       -37.2069
  27   2.0000      -1.348872       -36.7047
  28   2.0000      -1.343078       -36.5470
  29   2.0000      -1.132247       -30.8100
  30   2.0000      -1.108602       -30.1666
  31   2.0000      -1.052021       -28.6270
  32   2.0000      -1.026704       -27.9380
  33   2.0000      -0.994967       -27.0744
  34   2.0000      -0.964990       -26.2587
  35   2.0000      -0.924168       -25.1479
  36   2.0000      -0.873641       -23.7730
  37   2.0000      -0.833368       -22.6771
  38   2.0000      -0.824531       -22.4366
  39   2.0000      -0.804878       -21.9018
  40   2.0000      -0.785109       -21.3639
  41   2.0000      -0.774048       -21.0629
  42   2.0000      -0.755225       -20.5507
  43   2.0000      -0.727982       -19.8094
  44   2.0000      -0.697956       -18.9924
  45   2.0000      -0.687409       -18.7054
  46   2.0000      -0.680252       -18.5106
  47   2.0000      -0.672224       -18.2921
  48   2.0000      -0.665011       -18.0959
  49   2.0000      -0.657099       -17.8806
  50   2.0000      -0.644281       -17.5318
  51   2.0000      -0.631553       -17.1854
  52   2.0000      -0.622572       -16.9411
  53   2.0000      -0.607276       -16.5248
  54   2.0000      -0.600639       -16.3442
  55   2.0000      -0.591476       -16.0949
  56   2.0000      -0.587792       -15.9946
  57   2.0000      -0.576653       -15.6915
  58   2.0000      -0.566406       -15.4127
  59   2.0000      -0.560000       -15.2384
  60   2.0000      -0.550690       -14.9850
  61   2.0000      -0.542842       -14.7715
  62   2.0000      -0.530245       -14.4287
  63   2.0000      -0.525896       -14.3103
  64   2.0000      -0.521448       -14.1893
  65   2.0000      -0.488207       -13.2848
  66   2.0000      -0.472534       -12.8583
  67   2.0000      -0.462753       -12.5921
  68   2.0000      -0.460373       -12.5274
  69   2.0000      -0.456870       -12.4321
  70   2.0000      -0.442882       -12.0514
  71   2.0000      -0.435687       -11.8557
  72   2.0000      -0.423012       -11.5107
  73   2.0000      -0.399217       -10.8632
  74   2.0000      -0.341985        -9.3059
  75   2.0000      -0.301379        -8.2009
  76   0.0000       0.023906         0.6505
  77   0.0000       0.027681         0.7532
  78   0.0000       0.031518         0.8577
  79   0.0000       0.034774         0.9462
  80   0.0000       0.039327         1.0701

MULLIKEN ATOMIC CHARGES
-----------------------
   0 C :    1.265632
   1 C :    1.285278
   2 C :   -0.141672
   3 O :   -0.872693
   4 C :   -0.529516
   5 C :   -1.009181
   6 C :    0.471190
   7 C :   -0.267602
   8 C :    0.937065
   9 O :   -0.261606
  10 O :   -1.190001
  11 O :   -1.232184
  12 O :   -0.504212
  13 C :   -1.134702
  14 C :   -1.058679
  15 S :   -0.756079
  16 C :   -0.654650
  17 C :   -0.213404
  18 O :   -0.801121
  19 H :    0.718077
  20 H :    0.595194
  21 H :    0.608070
  22 H :    0.646420
  23 H :    0.350002
  24 H :    0.396206
  25 H :    0.405611
  26 H :    0.330061
  27 H :    0.369924
  28 H :    0.399861
  29 H :    0.328187
  30 H :    0.209810
  31 H :    0.252917
  32 H :    0.357973
  33 H :    0.323036
  34 H :    0.376789
Sum of atomic charges:   -0.0000000

LOEWDIN ATOMIC CHARGES
----------------------
   0 C :   -0.574615
   1 C :   -0.962638
   2 C :   -0.031930
   3 O :    0.604033
   4 C :    0.209154
   5 C :    0.224384
   6 C :   -0.149747
   7 C :   -0.046841
   8 C :   -0.867891
   9 O :    0.580903
  10 O :    0.495256
  11 O :    0.489039
  12 O :    0.565741
  13 C :    0.357502
  14 C :    0.368318
  15 S :    1.243580
  16 C :   -0.026121
  17 C :   -0.043649
  18 O :    0.818127
  19 H :   -0.146242
  20 H :   -0.158959
  21 H :   -0.148103
  22 H :   -0.141406
  23 H :   -0.180695
  24 H :   -0.180091
  25 H :   -0.176127
  26 H :   -0.182102
  27 H :   -0.172366
  28 H :   -0.180632
  29 H :   -0.171117
  30 H :   -0.216680
  31 H :   -0.226456
  32 H :   -0.183081
  33 H :   -0.163778
  34 H :   -0.624769

  Mayer bond orders larger than 0.100000
B(  0-C ,  1-C ) :   0.8962 B(  0-C ,  2-C ) :   0.1728 B(  0-C ,  3-O ) :  -0.1122
B(  0-C ,  5-C ) :   0.1254 B(  0-C ,  7-C ) :   1.2656 B(  0-C ,  8-C ) :   0.2107
B(  0-C , 11-O ) :  -0.1000 B(  0-C , 12-O ) :  -0.1044 B(  0-C , 15-S ) :   0.3072
B(  0-C , 16-C ) :  -0.2022 B(  0-C , 17-C ) :  -0.1386 B(  1-C ,  7-C ) :   0.2189
B(  1-C , 11-O ) :   0.6033 B(  1-C , 12-O ) :   0.8390 B(  1-C , 13-C ) :  -0.2118
B(  1-C , 15-S ) :  -0.4759 B(  2-C ,  3-O ) :   1.0999 B(  2-C ,  4-C ) :   1.2131
B(  2-C ,  5-C ) :   0.1291 B(  2-C ,  7-C ) :   0.1427 B(  2-C , 19-H ) :   0.5070
B(  3-O ,  4-C ) :  -0.1621 B(  3-O ,  5-C ) :   0.1157 B(  3-O ,  6-C ) :   0.5538
B(  3-O ,  7-C ) :   0.1676 B(  4-C ,  5-C ) :   1.2444 B(  4-C , 20-H ) :   0.6757
B(  5-C ,  6-C ) :   1.1851 B(  5-C ,  7-C ) :   0.3297 B(  5-C , 21-H ) :   0.5773
B(  6-C ,  7-C ) :   0.6813 B(  6-C , 22-H ) :   0.6157 B(  7-C ,  8-C ) :   0.6795
B(  7-C ,  9-O ) :   0.1012 B(  7-C , 10-O ) :  -0.1660 B(  7-C , 15-S ) :   0.1751
B(  7-C , 29-H ) :   0.9749 B(  8-C ,  9-O ) :   0.9257 B(  8-C , 10-O ) :   1.0224
B(  8-C , 29-H ) :  -0.1743 B(  9-O , 14-C ) :   0.9526 B( 12-O , 13-C ) :   1.0903
B( 12-O , 15-S ) :  -0.1267 B( 13-C , 23-H ) :   0.9313 B( 13-C , 24-H ) :   0.8675
B( 13-C , 25-H ) :   0.8808 B( 14-C , 26-H ) :   0.9488 B( 14-C , 27-H ) :   0.8737
B( 14-C , 28-H ) :   0.8529 B( 15-S , 16-C ) :   1.0625 B( 15-S , 17-C ) :   0.1415
B( 16-C , 17-C ) :   0.9256 B( 16-C , 18-O ) :   0.1704 B( 16-C , 30-H ) :   0.9703
B( 16-C , 31-H ) :   0.9382 B( 17-C , 18-O ) :   0.4926 B( 17-C , 32-H ) :   0.9118
B( 17-C , 33-H ) :   0.9730 B( 18-O , 34-H ) :   0.7716

MP2 TOTAL ENERGY:    -1314.337559015 Eh
FINAL SINGLE POINT ENERGY     -1314.337559014807

DIPOLE MOMENT
-------------
                                X             Y             Z
Electronic contribution:     -8.03085      -7.56151      -4.08959
Nuclear contribution   :      7.12643       7.39948       4.23174
                        -----------------------------------------
Total Dipole Moment    :     -0.90441      -0.16202       0.14215
                        -----------------------------------------
Magnitude (a.u.)       :      0.92974
Magnitude (Debye)      :      2.36322

Rotational constants in cm-1:     0.014424     0.011100     0.009422
Rotational constants in MHz :   432.413444   332.763017   282.475831

                             ****ORCA TERMINATED NORMALLY****
TOTAL RUN TIME: 0 days 0 hours 47 minutes 20 seconds 449 msec
