                         Program Version 4.2.1 -  RELEASE  -
|  1> %pal
|  2>  nprocs 32
|  3> end
|  4> !RI-MP2 aug-cc-pVTZ aug-cc-pVTZ/C TightSCF
|  5> %maxcore 4500
|  6> *xyzfile 0 2  06_18R2.xyz
|  7>
|  8>
|  9>                          ****END OF INPUT****

CARTESIAN COORDINATES (ANGSTROEM)
---------------------------------
  C      0.870291   -1.557541    0.177319
  H      1.904093   -1.598267   -0.171521
  H      0.885652   -1.585441    1.272682
  H      0.363333   -2.459303   -0.171840
  C     -1.784060    0.025079    0.176983
  H     -2.336237   -0.849733   -0.172156
  H     -1.816126    0.025493    1.272339
  H     -2.311380    0.915121   -0.172092
  C      0.913721    1.532477    0.177242
  H      0.432231    2.448118   -0.171846
  H      0.929985    1.559908    1.272602
  H      1.948221    1.544191   -0.171710
  Si     0.000037   -0.000013   -0.426837

 Total Charge           Charge          ....    0
 Multiplicity           Mult            ....    2
 Number of Electrons    NEL             ....   41
 Basis Dimension        Dim             ....  395

ORBITAL ENERGIES
----------------
                 SPIN UP ORBITALS
  NO   OCC          E(Eh)            E(eV)
   0   1.0000     -68.761119     -1871.0852
   1   1.0000     -11.201348      -304.8042
   2   1.0000     -11.201347      -304.8042
   3   1.0000     -11.201336      -304.8039
   4   1.0000      -6.109396      -166.2451
   5   1.0000      -4.222134      -114.8901
   6   1.0000      -4.212321      -114.6231
   7   1.0000      -4.212321      -114.6231
   8   1.0000      -0.968388       -26.3512
   9   1.0000      -0.925197       -25.1759
  10   1.0000      -0.925196       -25.1759
  11   1.0000      -0.632540       -17.2123
  12   1.0000      -0.573009       -15.5924
  13   1.0000      -0.562060       -15.2944
  14   1.0000      -0.562059       -15.2944
  15   1.0000      -0.543581       -14.7916
  16   1.0000      -0.543580       -14.7916
  17   1.0000      -0.532222       -14.4825
  18   1.0000      -0.434273       -11.8172
  19   1.0000      -0.434272       -11.8171
  20   1.0000      -0.297208        -8.0874
  21   0.0000       0.029524         0.8034
  22   0.0000       0.037853         1.0300
  23   0.0000       0.037854         1.0301
  24   0.0000       0.042656         1.1607
  25   0.0000       0.057828         1.5736

                 SPIN DOWN ORBITALS
  NO   OCC          E(Eh)            E(eV)
   0   1.0000     -68.755456     -1870.9311
   1   1.0000     -11.200494      -304.7809
   2   1.0000     -11.200494      -304.7809
   3   1.0000     -11.200480      -304.7805
   4   1.0000      -6.101076      -166.0187
   5   1.0000      -4.208698      -114.5245
   6   1.0000      -4.208698      -114.5245
   7   1.0000      -4.200194      -114.2931
   8   1.0000      -0.959644       -26.1132
   9   1.0000      -0.921791       -25.0832
  10   1.0000      -0.921789       -25.0832
  11   1.0000      -0.598125       -16.2758
  12   1.0000      -0.560227       -15.2446
  13   1.0000      -0.560226       -15.2445
  14   1.0000      -0.559183       -15.2161
  15   1.0000      -0.538025       -14.6404
  16   1.0000      -0.538024       -14.6404
  17   1.0000      -0.531233       -14.4556
  18   1.0000      -0.426057       -11.5936
  19   1.0000      -0.426056       -11.5936
  20   0.0000       0.025190         0.6855
  21   0.0000       0.038160         1.0384
  22   0.0000       0.038160         1.0384
  23   0.0000       0.042863         1.1664
  24   0.0000       0.057894         1.5754

MULLIKEN ATOMIC CHARGES AND SPIN POPULATIONS
--------------------------------------------
   0 C :   -1.014533    0.011110
   1 H :    0.286691   -0.008972
   2 H :    0.280507    0.025534
   3 H :    0.286702   -0.008974
   4 C :   -1.014537    0.011112
   5 H :    0.286699   -0.008975
   6 H :    0.280509    0.025536
   7 H :    0.286695   -0.008973
   8 C :   -1.014528    0.011112
   9 H :    0.286696   -0.008974
  10 H :    0.280499    0.025532
  11 H :    0.286696   -0.008974
  12 Si:    0.481904    0.943907
Sum of atomic charges         :   -0.0000000

LOEWDIN ATOMIC CHARGES AND SPIN POPULATIONS
-------------------------------------------
   0 C :    0.496795    0.112685
   1 H :   -0.254140    0.006714
   2 H :   -0.241584    0.018539
   3 H :   -0.254141    0.006716
   4 C :    0.496794    0.112687
   5 H :   -0.254141    0.006716
   6 H :   -0.241584    0.018540
   7 H :   -0.254141    0.006715
   8 C :    0.496797    0.112685
   9 H :   -0.254140    0.006715
  10 H :   -0.241586    0.018540
  11 H :   -0.254141    0.006715
  12 Si:    0.759213    0.566033

  Mayer bond orders larger than 0.100000
B(  0-C ,  1-H ) :   0.9421 B(  0-C ,  2-H ) :   0.8828 B(  0-C ,  3-H ) :   0.9421
B(  0-C ,  4-C ) :   0.1023 B(  0-C ,  8-C ) :   0.1023 B(  0-C , 12-Si) :   1.0362
B(  2-H , 12-Si) :   0.1056 B(  4-C ,  5-H ) :   0.9421 B(  4-C ,  6-H ) :   0.8828
B(  4-C ,  7-H ) :   0.9421 B(  4-C ,  8-C ) :   0.1023 B(  4-C , 12-Si) :   1.0362
B(  6-H , 12-Si) :   0.1056 B(  8-C ,  9-H ) :   0.9421 B(  8-C , 10-H ) :   0.8828
B(  8-C , 11-H ) :   0.9421 B(  8-C , 12-Si) :   1.0362 B( 10-H , 12-Si) :   0.1056

MP2 TOTAL ENERGY:     -408.478012233 Eh
FINAL SINGLE POINT ENERGY      -408.478012232995

DIPOLE MOMENT
-------------
                                X             Y             Z
Electronic contribution:      0.00020      -0.00009      -2.71411
Nuclear contribution   :     -0.00024       0.00009       2.95877
                        -----------------------------------------
Total Dipole Moment    :     -0.00004       0.00000       0.24466
                        -----------------------------------------
Magnitude (a.u.)       :      0.24466
Magnitude (Debye)      :      0.62188

Rotational constants in cm-1:     0.182748     0.182744     0.104022
Rotational constants in MHz :  5478.632916  5478.521622  3118.492149

                             ****ORCA TERMINATED NORMALLY****
TOTAL RUN TIME: 0 days 0 hours 1 minutes 5 seconds 411 msec
