                         Program Version 4.2.1 -  RELEASE  -
|  1> %pal
|  2>  nprocs 32
|  3> end
|  4> !RI-MP2 aug-cc-pVTZ aug-cc-pVTZ/C TightSCF
|  5> %maxcore 4500
|  6> *xyzfile -1 1  09_24TS.xyz
|  7>
|  8>
|  9>                          ****END OF INPUT****

CARTESIAN COORDINATES (ANGSTROEM)
---------------------------------
  C     -2.851424    1.215091   -0.547034
  C     -3.693235   -0.012861   -0.168783
  C     -3.141136   -1.344137   -0.710859
  H     -4.712954    0.133249   -0.550266
  H     -3.784639   -0.076450    0.921683
  C     -1.783695   -1.659693   -0.143127
  H     -3.085932   -1.262273   -1.806676
  H     -3.857647   -2.149392   -0.493317
  C     -0.772776   -0.837563   -0.555322
  C     -1.770969   -2.384773    1.174049
  H     -2.309499   -1.850340    1.976674
  H     -0.754932   -2.554449    1.539408
  H     -2.254699   -3.368540    1.091991
  C      0.618205   -0.865397    0.024534
  C      1.627238   -0.120200   -0.854775
  H      0.961723   -1.901283    0.144053
  H      0.600479   -0.427946    1.026070
  C      2.963248    0.100735   -0.193288
  H      1.186197    0.844767   -1.117706
  H      1.766253   -0.678807   -1.785464
  C      4.027578   -0.626439   -0.535085
  C      5.418389   -0.561474    0.023224
  H      3.883499   -1.370246   -1.316817
  H      6.146036   -0.324976   -0.760912
  H      5.715896   -1.527001    0.446446
  H      5.525340    0.188444    0.806770
  C      2.972140    1.182075    0.852279
  H      2.784301    2.152935    0.383440
  H      3.908301    1.245120    1.406129
  H      2.160903    1.028416    1.567061
  C     -1.460753    1.331612    0.034225
  H     -3.446116    2.130201   -0.286883
  H     -2.777698    1.237061   -1.647850
  C     -1.463864    1.388392    1.533501
  H     -2.083542    2.232729    1.934340
  H     -0.453424    1.538372    1.934957
  H     -1.855416    0.473427    1.986686
  C     -0.787285    2.540078   -0.549804
  H     -1.373949    3.482706   -0.381207
  H     -0.660581    2.458511   -1.639141
  H      0.203778    2.717222   -0.114801
  H     -0.841659   -0.444140   -1.567076

 Total Charge           Charge          ....   -1
 Multiplicity           Mult            ....    1
 Number of Electrons    NEL             ....  118
 Basis Dimension        Dim             .... 1311

ORBITAL ENERGIES
----------------

  NO   OCC          E(Eh)            E(eV)
   0   2.0000     -11.134072      -302.9735
   1   2.0000     -11.128691      -302.8271
   2   2.0000     -11.117191      -302.5141
   3   2.0000     -11.116681      -302.5003
   4   2.0000     -11.097109      -301.9677
   5   2.0000     -11.085243      -301.6448
   6   2.0000     -11.084358      -301.6207
   7   2.0000     -11.073484      -301.3248
   8   2.0000     -11.067157      -301.1526
   9   2.0000     -11.064423      -301.0783
  10   2.0000     -11.052368      -300.7502
  11   2.0000     -11.052046      -300.7415
  12   2.0000     -11.048068      -300.6332
  13   2.0000     -11.026269      -300.0400
  14   2.0000     -10.993897      -299.1592
  15   2.0000      -1.002428       -27.2775
  16   2.0000      -0.954266       -25.9669
  17   2.0000      -0.916670       -24.9439
  18   2.0000      -0.894725       -24.3467
  19   2.0000      -0.874176       -23.7875
  20   2.0000      -0.841652       -22.9025
  21   2.0000      -0.807312       -21.9681
  22   2.0000      -0.769561       -20.9408
  23   2.0000      -0.760457       -20.6931
  24   2.0000      -0.756079       -20.5740
  25   2.0000      -0.698431       -19.0053
  26   2.0000      -0.644198       -17.5295
  27   2.0000      -0.604331       -16.4447
  28   2.0000      -0.567018       -15.4293
  29   2.0000      -0.546342       -14.8667
  30   2.0000      -0.533574       -14.5193
  31   2.0000      -0.505010       -13.7420
  32   2.0000      -0.486731       -13.2446
  33   2.0000      -0.472079       -12.8459
  34   2.0000      -0.470619       -12.8062
  35   2.0000      -0.460532       -12.5317
  36   2.0000      -0.456568       -12.4239
  37   2.0000      -0.440978       -11.9996
  38   2.0000      -0.437581       -11.9072
  39   2.0000      -0.426822       -11.6144
  40   2.0000      -0.417976       -11.3737
  41   2.0000      -0.409277       -11.1370
  42   2.0000      -0.399969       -10.8837
  43   2.0000      -0.393983       -10.7208
  44   2.0000      -0.386992       -10.5306
  45   2.0000      -0.381206       -10.3732
  46   2.0000      -0.373524       -10.1641
  47   2.0000      -0.363681        -9.8963
  48   2.0000      -0.349261        -9.5039
  49   2.0000      -0.346658        -9.4330
  50   2.0000      -0.339505        -9.2384
  51   2.0000      -0.325501        -8.8573
  52   2.0000      -0.316253        -8.6057
  53   2.0000      -0.298217        -8.1149
  54   2.0000      -0.282015        -7.6740
  55   2.0000      -0.270371        -7.3572
  56   2.0000      -0.233303        -6.3485
  57   2.0000      -0.182922        -4.9776
  58   2.0000      -0.026872        -0.7312
  59   0.0000       0.086945         2.3659
  60   0.0000       0.101170         2.7530
  61   0.0000       0.102855         2.7988
  62   0.0000       0.106767         2.9053
  63   0.0000       0.109669         2.9843

MULLIKEN ATOMIC CHARGES
-----------------------
   0 C :   -0.795474
   1 C :   -0.573925
   2 C :   -0.730164
   3 H :    0.330975
   4 H :   -0.010522
   5 C :   -0.028554
   6 H :    0.139152
   7 H :    0.271114
   8 C :   -0.068863
   9 C :   -1.000384
  10 H :    0.211005
  11 H :    0.269000
  12 H :    0.280093
  13 C :   -0.459738
  14 C :   -0.605936
  15 H :    0.328259
  16 H :    0.176182
  17 C :    1.372737
  18 H :    0.533643
  19 H :    0.015144
  20 C :   -0.835982
  21 C :   -0.975530
  22 H :    0.083059
  23 H :    0.215225
  24 H :    0.210113
  25 H :    0.378480
  26 C :   -1.032616
  27 H :    0.210366
  28 H :    0.208508
  29 H :    0.346150
  30 C :    1.913908
  31 H :    0.243629
  32 H :    0.128275
  33 C :   -1.692380
  34 H :   -0.031019
  35 H :    0.442783
  36 H :    0.396711
  37 C :   -1.995898
  38 H :   -0.030013
  39 H :    0.153083
  40 H :    0.438300
  41 H :    0.571105
Sum of atomic charges:   -1.0000000

LOEWDIN ATOMIC CHARGES
----------------------
   0 C :    0.186614
   1 C :    0.263393
   2 C :    0.226138
   3 H :   -0.155715
   4 H :   -0.164216
   5 C :   -0.113204
   6 H :   -0.158420
   7 H :   -0.159012
   8 C :    0.142753
   9 C :    0.513930
  10 H :   -0.180706
  11 H :   -0.196830
  12 H :   -0.183727
  13 C :    0.263355
  14 C :    0.270349
  15 H :   -0.145137
  16 H :   -0.174055
  17 C :   -0.080805
  18 H :   -0.178790
  19 H :   -0.147279
  20 C :    0.229040
  21 C :    0.544652
  22 H :   -0.194774
  23 H :   -0.180684
  24 H :   -0.179671
  25 H :   -0.209245
  26 C :    0.586200
  27 H :   -0.158481
  28 H :   -0.197287
  29 H :   -0.175120
  30 C :   -0.190118
  31 H :   -0.155314
  32 H :   -0.158598
  33 C :    0.471089
  34 H :   -0.169821
  35 H :   -0.192541
  36 H :   -0.207173
  37 C :    0.449490
  38 H :   -0.179074
  39 H :   -0.181532
  40 H :   -0.200848
  41 H :   -0.178824

  Mayer bond orders larger than 0.100000
B(  0-C ,  1-C ) :   0.9369 B(  0-C , 30-C ) :   0.3470 B(  0-C , 31-H ) :   0.9440
B(  0-C , 32-H ) :   1.2241 B(  0-C , 37-C ) :   0.1001 B(  1-C ,  2-C ) :   0.8606
B(  1-C ,  3-H ) :   0.9009 B(  1-C ,  4-H ) :   1.1711 B(  1-C ,  5-C ) :   0.1433
B(  2-C ,  4-H ) :   0.1241 B(  2-C ,  5-C ) :   1.1617 B(  2-C ,  6-H ) :   1.0780
B(  2-C ,  7-H ) :   0.9511 B(  2-C ,  8-C ) :  -0.1117 B(  5-C ,  8-C ) :   1.7246
B(  5-C ,  9-C ) :   0.3870 B(  5-C , 12-H ) :  -0.1319 B(  5-C , 13-C ) :  -0.2160
B(  5-C , 30-C ) :   0.3205 B(  8-C ,  9-C ) :   0.1509 B(  8-C , 13-C ) :   0.9387
B(  8-C , 30-C ) :   0.3865 B(  8-C , 41-H ) :   0.5668 B(  9-C , 10-H ) :   1.0768
B(  9-C , 11-H ) :   0.9950 B(  9-C , 12-H ) :   1.0211 B( 13-C , 14-C ) :   0.9427
B( 13-C , 15-H ) :   0.8743 B( 13-C , 16-H ) :   1.1679 B( 13-C , 17-C ) :   0.3807
B( 14-C , 16-H ) :   0.1011 B( 14-C , 17-C ) :   0.7904 B( 14-C , 18-H ) :   0.9754
B( 14-C , 19-H ) :   1.2201 B( 14-C , 22-H ) :  -0.1210 B( 14-C , 30-C ) :  -0.1802
B( 17-C , 18-H ) :  -0.1157 B( 17-C , 20-C ) :   0.4332 B( 17-C , 21-C ) :   0.1610
B( 17-C , 22-H ) :  -0.3415 B( 17-C , 26-C ) :   0.6752 B( 20-C , 21-C ) :   0.6033
B( 20-C , 22-H ) :   1.5052 B( 20-C , 23-H ) :  -0.1167 B( 20-C , 26-C ) :  -0.2410
B( 21-C , 22-H ) :  -0.1722 B( 21-C , 23-H ) :   1.1290 B( 21-C , 24-H ) :   1.1146
B( 21-C , 25-H ) :   0.8024 B( 22-H , 26-C ) :   0.1112 B( 26-C , 27-H ) :   1.0798
B( 26-C , 28-H ) :   1.0010 B( 26-C , 29-H ) :   0.9676 B( 30-C , 32-H ) :  -0.1530
B( 30-C , 33-C ) :   0.1936 B( 30-C , 34-H ) :  -0.1539 B( 30-C , 38-H ) :  -0.1903
B( 30-C , 39-H ) :  -0.1848 B( 30-C , 41-H ) :  -0.1955 B( 33-C , 34-H ) :   1.3103
B( 33-C , 35-H ) :   0.9158 B( 33-C , 36-H ) :   0.9475 B( 33-C , 37-C ) :   0.2245
B( 37-C , 38-H ) :   1.3927 B( 37-C , 39-H ) :   1.2517 B( 37-C , 40-H ) :   0.8618

MP2 TOTAL ENERGY:     -586.466888650 Eh
FINAL SINGLE POINT ENERGY      -586.466888650006

DIPOLE MOMENT
-------------
                                X             Y             Z
Electronic contribution:      2.04566      -4.95328      -3.95161
Nuclear contribution   :      0.62517       4.16127       3.91785
                        -----------------------------------------
Total Dipole Moment    :      2.67083      -0.79201      -0.03376
                        -----------------------------------------
Magnitude (a.u.)       :      2.78599
Magnitude (Debye)      :      7.08142

Rotational constants in cm-1:     0.032489     0.009914     0.008595
Rotational constants in MHz :   973.991253   297.203330   257.670632

                             ****ORCA TERMINATED NORMALLY****
TOTAL RUN TIME: 0 days 0 hours 52 minutes 45 seconds 624 msec
