                         Program Version 4.2.1 -  RELEASE  -
|  1> %pal
|  2>  nprocs 32
|  3> end
|  4> !RI-MP2 aug-cc-pVTZ aug-cc-pVTZ/C TightSCF
|  5> %maxcore 4500
|  6> *xyzfile -1 1  09_24P.xyz
|  7>
|  8>
|  9>                          ****END OF INPUT****

CARTESIAN COORDINATES (ANGSTROEM)
---------------------------------
  C     -3.358486    0.474248   -0.250913
  C     -3.544987   -1.034674   -0.134142
  C     -2.414379   -1.749082   -0.905314
  H     -4.539081   -1.309875   -0.521077
  H     -3.522053   -1.340288    0.918414
  C     -1.034779   -1.375901   -0.433490
  H     -2.550698   -1.482813   -1.971917
  H     -2.563504   -2.836682   -0.842172
  C     -0.864035    0.132869   -0.466281
  C     -0.629925   -2.104150    0.827156
  H     -1.226289   -1.933677    1.766979
  H      0.408875   -1.896538    1.117227
  H     -0.684220   -3.188710    0.660725
  C      0.539128    0.586952   -0.030668
  C      1.637658   -0.008796   -0.916164
  H      0.724780    0.274178    1.001966
  H      0.610649    1.679507   -0.041282
  C      3.031778    0.214246   -0.393492
  H      1.551677    0.433065   -1.918731
  H      1.414885   -1.071392   -1.028560
  C      3.769554   -0.812558    0.031426
  C      5.150927   -0.789907    0.616589
  H      3.315085   -1.798379   -0.035165
  H      5.585037    0.209784    0.649014
  H      5.831191   -1.428995    0.042930
  H      5.145836   -1.178888    1.640744
  C      3.489776    1.648311   -0.367397
  H      2.888750    2.227411    0.339474
  H      3.339433    2.105887   -1.350574
  H      4.538466    1.767208   -0.094580
  C     -1.991227    0.992304    0.239278
  H     -4.155000    1.016849    0.278934
  H     -3.456263    0.743071   -1.313225
  C     -1.924602    0.908878    1.767437
  H     -2.725242    1.511262    2.217042
  H     -0.973321    1.292723    2.145069
  H     -2.028503   -0.114651    2.122499
  C     -1.904809    2.471834   -0.160763
  H     -2.795122    3.015845    0.178778
  H     -1.843448    2.576179   -1.248820
  H     -1.033742    2.967598    0.275175
  H     -0.967737    0.432882   -1.528438

 Total Charge           Charge          ....   -1
 Multiplicity           Mult            ....    1
 Number of Electrons    NEL             ....  118
 Basis Dimension        Dim             .... 1311

ORBITAL ENERGIES
----------------

  NO   OCC          E(Eh)            E(eV)
   0   2.0000     -11.124179      -302.7043
   1   2.0000     -11.115800      -302.4763
   2   2.0000     -11.114769      -302.4482
   3   2.0000     -11.103068      -302.1298
   4   2.0000     -11.080715      -301.5216
   5   2.0000     -11.078387      -301.4582
   6   2.0000     -11.073147      -301.3157
   7   2.0000     -11.071467      -301.2699
   8   2.0000     -11.070710      -301.2493
   9   2.0000     -11.065262      -301.1011
  10   2.0000     -11.056897      -300.8735
  11   2.0000     -11.050347      -300.6952
  12   2.0000     -11.035532      -300.2921
  13   2.0000     -11.033497      -300.2367
  14   2.0000     -10.954971      -298.0999
  15   2.0000      -0.990301       -26.9475
  16   2.0000      -0.974117       -26.5071
  17   2.0000      -0.904252       -24.6059
  18   2.0000      -0.883727       -24.0474
  19   2.0000      -0.870000       -23.6739
  20   2.0000      -0.822980       -22.3944
  21   2.0000      -0.796589       -21.6763
  22   2.0000      -0.791639       -21.5416
  23   2.0000      -0.752567       -20.4784
  24   2.0000      -0.741871       -20.1873
  25   2.0000      -0.689452       -18.7609
  26   2.0000      -0.629429       -17.1276
  27   2.0000      -0.596650       -16.2357
  28   2.0000      -0.587245       -15.9797
  29   2.0000      -0.533790       -14.5252
  30   2.0000      -0.526450       -14.3254
  31   2.0000      -0.494890       -13.4666
  32   2.0000      -0.479042       -13.0354
  33   2.0000      -0.475847       -12.9485
  34   2.0000      -0.467022       -12.7083
  35   2.0000      -0.457970       -12.4620
  36   2.0000      -0.456239       -12.4149
  37   2.0000      -0.439071       -11.9477
  38   2.0000      -0.435981       -11.8636
  39   2.0000      -0.430812       -11.7230
  40   2.0000      -0.407713       -11.0944
  41   2.0000      -0.405019       -11.0211
  42   2.0000      -0.400194       -10.8898
  43   2.0000      -0.380144       -10.3442
  44   2.0000      -0.378903       -10.3105
  45   2.0000      -0.371911       -10.1202
  46   2.0000      -0.365511        -9.9461
  47   2.0000      -0.354037        -9.6338
  48   2.0000      -0.346681        -9.4337
  49   2.0000      -0.331389        -9.0175
  50   2.0000      -0.323308        -8.7977
  51   2.0000      -0.310448        -8.4477
  52   2.0000      -0.306058        -8.3283
  53   2.0000      -0.295768        -8.0483
  54   2.0000      -0.283741        -7.7210
  55   2.0000      -0.257164        -6.9978
  56   2.0000      -0.239078        -6.5056
  57   2.0000      -0.219033        -5.9602
  58   2.0000      -0.028746        -0.7822
  59   0.0000       0.091238         2.4827
  60   0.0000       0.097998         2.6667
  61   0.0000       0.104447         2.8421
  62   0.0000       0.107211         2.9174
  63   0.0000       0.111350         3.0300

MULLIKEN ATOMIC CHARGES
-----------------------
   0 C :   -1.066753
   1 C :   -0.569488
   2 C :   -0.824910
   3 H :    0.348011
   4 H :    0.043116
   5 C :   -0.516501
   6 H :    0.113490
   7 H :    0.350707
   8 C :    0.811025
   9 C :   -1.092963
  10 H :    0.182896
  11 H :    0.519573
  12 H :    0.114008
  13 C :   -1.046625
  14 C :   -0.639902
  15 H :    0.032446
  16 H :    0.549243
  17 C :    1.239736
  18 H :    0.334461
  19 H :   -0.010790
  20 C :   -0.687874
  21 C :   -1.091376
  22 H :    0.206904
  23 H :    0.380806
  24 H :    0.217014
  25 H :    0.191535
  26 C :   -1.023700
  27 H :    0.210503
  28 H :    0.192160
  29 H :    0.312278
  30 C :    2.624128
  31 H :    0.321905
  32 H :    0.134380
  33 C :   -1.728182
  34 H :    0.041199
  35 H :    0.251838
  36 H :    0.431502
  37 C :   -1.803659
  38 H :    0.076497
  39 H :    0.216677
  40 H :    0.301994
  41 H :    0.352694
Sum of atomic charges:   -1.0000000

LOEWDIN ATOMIC CHARGES
----------------------
   0 C :    0.266236
   1 C :    0.266912
   2 C :    0.173081
   3 H :   -0.153507
   4 H :   -0.161747
   5 C :   -0.082977
   6 H :   -0.164721
   7 H :   -0.169841
   8 C :   -0.035186
   9 C :    0.446804
  10 H :   -0.198758
  11 H :   -0.207727
  12 H :   -0.199609
  13 C :    0.266949
  14 C :    0.263896
  15 H :   -0.158715
  16 H :   -0.172529
  17 C :   -0.087487
  18 H :   -0.133098
  19 H :   -0.191662
  20 C :    0.233739
  21 C :    0.543866
  22 H :   -0.190092
  23 H :   -0.211046
  24 H :   -0.181626
  25 H :   -0.179431
  26 C :    0.574501
  27 H :   -0.169173
  28 H :   -0.164239
  29 H :   -0.203259
  30 C :   -0.290783
  31 H :   -0.145350
  32 H :   -0.141800
  33 C :    0.582595
  34 H :   -0.157562
  35 H :   -0.165360
  36 H :   -0.207960
  37 C :    0.562211
  38 H :   -0.165487
  39 H :   -0.158870
  40 H :   -0.178878
  41 H :   -0.152313

  Mayer bond orders larger than 0.100000
B(  0-C ,  1-C ) :   0.9468 B(  0-C ,  2-C ) :   0.1104 B(  0-C ,  4-H ) :   0.1075
B(  0-C , 30-C ) :   0.4008 B(  0-C , 31-H ) :   0.9112 B(  0-C , 32-H ) :   1.2189
B(  1-C ,  2-C ) :   0.8573 B(  1-C ,  3-H ) :   0.8626 B(  1-C ,  4-H ) :   1.1478
B(  1-C ,  5-C ) :   0.1057 B(  2-C ,  4-H ) :   0.1473 B(  2-C ,  5-C ) :   0.6641
B(  2-C ,  6-H ) :   1.1191 B(  2-C ,  7-H ) :   0.9264 B(  5-C ,  7-H ) :  -0.1391
B(  5-C ,  8-C ) :   0.6891 B(  5-C ,  9-C ) :   0.3025 B(  5-C , 11-H ) :  -0.1201
B(  5-C , 12-H ) :  -0.1763 B(  5-C , 13-C ) :  -0.4263 B(  5-C , 19-H ) :   0.2983
B(  5-C , 30-C ) :   0.2412 B(  8-C , 13-C ) :   0.6726 B(  8-C , 30-C ) :   1.0794
B(  8-C , 33-C ) :   0.1329 B(  8-C , 41-H ) :   0.7136 B(  9-C , 10-H ) :   1.0140
B(  9-C , 11-H ) :   0.7538 B(  9-C , 12-H ) :   1.2418 B(  9-C , 13-C ) :   0.1132
B( 13-C , 14-C ) :   1.2362 B( 13-C , 15-H ) :   1.3098 B( 13-C , 16-H ) :   0.5828
B( 13-C , 17-C ) :   0.2998 B( 13-C , 30-C ) :   0.1591 B( 14-C , 15-H ) :   0.1830
B( 14-C , 17-C ) :   0.5486 B( 14-C , 18-H ) :   0.9703 B( 14-C , 19-H ) :   1.2289
B( 14-C , 20-C ) :   0.2495 B( 17-C , 18-H ) :  -0.1283 B( 17-C , 20-C ) :   0.5341
B( 17-C , 21-C ) :   0.1427 B( 17-C , 22-H ) :  -0.2839 B( 17-C , 26-C ) :   0.6648
B( 20-C , 21-C ) :   0.5770 B( 20-C , 22-H ) :   1.3427 B( 20-C , 24-H ) :  -0.1329
B( 20-C , 26-C ) :  -0.1919 B( 21-C , 22-H ) :  -0.2113 B( 21-C , 23-H ) :   0.8120
B( 21-C , 24-H ) :   1.1457 B( 21-C , 25-H ) :   1.1310 B( 26-C , 27-H ) :   1.1021
B( 26-C , 28-H ) :   1.1095 B( 26-C , 29-H ) :   0.8799 B( 30-C , 32-H ) :  -0.1214
B( 30-C , 33-C ) :  -0.2170 B( 30-C , 34-H ) :  -0.2325 B( 30-C , 35-H ) :  -0.1443
B( 30-C , 37-C ) :  -0.3854 B( 30-C , 38-H ) :  -0.2548 B( 30-C , 39-H ) :  -0.1826
B( 30-C , 40-H ) :  -0.1449 B( 30-C , 41-H ) :  -0.1109 B( 33-C , 34-H ) :   1.4455
B( 33-C , 35-H ) :   1.1239 B( 33-C , 36-H ) :   0.8637 B( 33-C , 37-C ) :   0.1751
B( 37-C , 38-H ) :   1.3924 B( 37-C , 39-H ) :   1.1888 B( 37-C , 40-H ) :   1.0437

MP2 TOTAL ENERGY:     -586.500410963 Eh
FINAL SINGLE POINT ENERGY      -586.500410962579

DIPOLE MOMENT
-------------
                                X             Y             Z
Electronic contribution:      1.29117      -1.02962      -3.17315
Nuclear contribution   :      0.30774       2.83176       3.66656
                        -----------------------------------------
Total Dipole Moment    :      1.59891       1.80214       0.49341
                        -----------------------------------------
Magnitude (a.u.)       :      2.45921
Magnitude (Debye)      :      6.25080

Rotational constants in cm-1:     0.034833     0.010061     0.008800
Rotational constants in MHz :  1044.254949   301.609372   263.810425

                             ****ORCA TERMINATED NORMALLY****
TOTAL RUN TIME: 0 days 0 hours 57 minutes 8 seconds 48 msec
