                         Program Version 4.2.1 -  RELEASE  -
|  1> %pal
|  2>  nprocs 32
|  3> end
|  4> !RI-MP2 aug-cc-pVTZ aug-cc-pVTZ/C TightSCF
|  5> %maxcore 4500
|  6> *xyzfile 0 1  10_5R1.xyz
|  7>
|  8>
|  9>                          ****END OF INPUT****

CARTESIAN COORDINATES (ANGSTROEM)
---------------------------------
  C      1.494667    1.203247   -0.221412
  C      1.011019   -0.091996   -0.133707
  O     -0.652604   -1.476238   -0.969416
  C     -1.312229    0.418535    0.091262
  N     -0.395475   -0.387407   -0.352426
  H      0.833670    2.019024   -0.483128
  C      2.845921    1.435050   -0.003674
  C      3.697246    0.379105    0.288147
  H      4.751481    0.563497    0.454054
  C      3.198821   -0.916539    0.350689
  H      3.863280   -1.743890    0.566929
  C      1.852763   -1.159404    0.130480
  H      1.436809   -2.157155    0.145430
  H      3.234211    2.443171   -0.078651
  C     -2.754900    0.133107   -0.144083
  H     -2.833228   -0.246384   -1.168187
  C     -3.586736    1.404639    0.003392
  H     -4.639202    1.197712   -0.198856
  H     -3.258527    2.182811   -0.689473
  H     -3.517934    1.803759    1.019767
  C     -3.244576   -0.980089    0.792745
  H     -3.190983   -0.660977    1.837089
  H     -2.639406   -1.877324    0.664196
  H     -4.283988   -1.230432    0.568677
  H     -0.978999    1.274009    0.661429

 Total Charge           Charge          ....    0
 Multiplicity           Mult            ....    1
 Number of Electrons    NEL             ....   88
 Basis Dimension        Dim             ....  851

ORBITAL ENERGIES
----------------

  NO   OCC          E(Eh)            E(eV)
   0   2.0000     -20.500954      -557.8593
   1   2.0000     -15.714253      -427.6066
   2   2.0000     -11.288080      -307.1643
   3   2.0000     -11.287583      -307.1507
   4   2.0000     -11.253282      -306.2174
   5   2.0000     -11.248828      -306.0962
   6   2.0000     -11.246694      -306.0381
   7   2.0000     -11.245533      -306.0065
   8   2.0000     -11.243742      -305.9578
   9   2.0000     -11.242379      -305.9207
  10   2.0000     -11.225401      -305.4587
  11   2.0000     -11.214354      -305.1581
  12   2.0000      -1.439890       -39.1814
  13   2.0000      -1.185998       -32.2726
  14   2.0000      -1.149984       -31.2927
  15   2.0000      -1.085867       -29.5480
  16   2.0000      -1.034731       -28.1565
  17   2.0000      -1.025104       -27.8945
  18   2.0000      -0.938135       -25.5279
  19   2.0000      -0.900731       -24.5101
  20   2.0000      -0.847395       -23.0588
  21   2.0000      -0.821392       -22.3512
  22   2.0000      -0.765381       -20.8271
  23   2.0000      -0.750022       -20.4091
  24   2.0000      -0.690235       -18.7823
  25   2.0000      -0.667009       -18.1503
  26   2.0000      -0.642718       -17.4893
  27   2.0000      -0.632673       -17.2159
  28   2.0000      -0.620333       -16.8801
  29   2.0000      -0.605422       -16.4744
  30   2.0000      -0.599014       -16.3000
  31   2.0000      -0.584771       -15.9124
  32   2.0000      -0.557665       -15.1748
  33   2.0000      -0.542927       -14.7738
  34   2.0000      -0.531304       -14.4575
  35   2.0000      -0.516679       -14.0596
  36   2.0000      -0.510466       -13.8905
  37   2.0000      -0.497352       -13.5336
  38   2.0000      -0.488489       -13.2925
  39   2.0000      -0.480880       -13.0854
  40   2.0000      -0.415222       -11.2988
  41   2.0000      -0.363381        -9.8881
  42   2.0000      -0.351481        -9.5643
  43   2.0000      -0.321780        -8.7561
  44   0.0000       0.023475         0.6388
  45   0.0000       0.028971         0.7883
  46   0.0000       0.033069         0.8999
  47   0.0000       0.037660         1.0248
  48   0.0000       0.041373         1.1258

MULLIKEN ATOMIC CHARGES
-----------------------
   0 C :   -0.566351
   1 C :    0.921898
   2 O :   -0.881947
   3 C :   -1.047840
   4 N :    0.297091
   5 H :    0.557309
   6 C :   -0.800869
   7 C :   -0.290422
   8 H :    0.558119
   9 C :   -0.428985
  10 H :    0.329332
  11 C :   -0.733103
  12 H :    0.562538
  13 H :    0.319230
  14 C :    0.552718
  15 H :    0.400483
  16 C :   -1.074317
  17 H :    0.249937
  18 H :    0.265775
  19 H :    0.263743
  20 C :   -1.051373
  21 H :    0.266909
  22 H :    0.379277
  23 H :    0.266700
  24 H :    0.684149
Sum of atomic charges:   -0.0000000

LOEWDIN ATOMIC CHARGES
----------------------
   0 C :    0.218113
   1 C :   -0.206466
   2 O :    0.326471
   3 C :    0.168900
   4 N :   -0.251824
   5 H :   -0.179453
   6 C :    0.203342
   7 C :    0.200110
   8 H :   -0.181070
   9 C :    0.208307
  10 H :   -0.178773
  11 C :    0.224168
  12 H :   -0.184328
  13 H :   -0.180313
  14 C :   -0.065574
  15 H :   -0.147129
  16 C :    0.582341
  17 H :   -0.161183
  18 H :   -0.162594
  19 H :   -0.162592
  20 C :    0.591681
  21 H :   -0.160977
  22 H :   -0.178205
  23 H :   -0.160169
  24 H :   -0.162779

  Mayer bond orders larger than 0.100000
B(  0-C ,  1-C ) :   0.8150 B(  0-C ,  3-C ) :   0.1070 B(  0-C ,  4-N ) :  -0.3659
B(  0-C ,  5-H ) :   0.6725 B(  0-C ,  6-C ) :   1.2622 B(  0-C , 11-C ) :   0.2333
B(  0-C , 24-H ) :  -0.1384 B(  1-C ,  3-C ) :  -0.3041 B(  1-C ,  4-N ) :   0.9407
B(  1-C ,  5-H ) :  -0.1247 B(  1-C ,  6-C ) :  -0.1926 B(  1-C ,  9-C ) :  -0.2050
B(  1-C , 11-C ) :   0.7008 B(  1-C , 24-H ) :  -0.1338 B(  2-O ,  4-N ) :   0.9886
B(  3-C ,  4-N ) :   1.8613 B(  3-C , 14-C ) :   0.6910 B(  3-C , 15-H ) :  -0.1159
B(  3-C , 24-H ) :   0.5626 B(  4-N , 11-C ) :  -0.3839 B(  4-N , 14-C ) :  -0.1455
B(  6-C ,  7-C ) :   1.2242 B(  6-C ,  8-H ) :  -0.1001 B(  6-C ,  9-C ) :  -0.1141
B(  6-C , 13-H ) :   1.0552 B(  7-C ,  8-H ) :   0.6590 B(  7-C ,  9-C ) :   1.1532
B(  7-C , 10-H ) :  -0.1240 B(  7-C , 11-C ) :   0.1192 B(  9-C , 10-H ) :   1.0462
B(  9-C , 11-C ) :   1.2280 B( 11-C , 12-H ) :   0.6422 B( 14-C , 15-H ) :   0.8410
B( 14-C , 16-C ) :   0.7246 B( 14-C , 20-C ) :   0.7131 B( 16-C , 17-H ) :   1.0443
B( 16-C , 18-H ) :   0.9840 B( 16-C , 19-H ) :   0.9855 B( 16-C , 20-C ) :   0.1373
B( 20-C , 21-H ) :   0.9716 B( 20-C , 22-H ) :   0.8914 B( 20-C , 23-H ) :   0.9877

MP2 TOTAL ENERGY:     -517.770543897 Eh
FINAL SINGLE POINT ENERGY      -517.770543897000

DIPOLE MOMENT
-------------
                                X             Y             Z
Electronic contribution:     11.63107      -2.27224      -2.51457
Nuclear contribution   :    -11.37657       3.58678       3.32315
                        -----------------------------------------
Total Dipole Moment    :      0.25450       1.31454       0.80858
                        -----------------------------------------
Magnitude (a.u.)       :      1.56415
Magnitude (Debye)      :      3.97577

Rotational constants in cm-1:     0.078055     0.016163     0.014210
Rotational constants in MHz :  2340.017154   484.566807   426.013237

                             ****ORCA TERMINATED NORMALLY****
TOTAL RUN TIME: 0 days 0 hours 10 minutes 36 seconds 564 msec
