                         Program Version 4.2.1 -  RELEASE  -
|  1> %pal
|  2>  nprocs 32
|  3> end
|  4> !RI-MP2 aug-cc-pVTZ aug-cc-pVTZ/C TightSCF
|  5> %maxcore 4500
|  6> *xyzfile -1 1  09_19R.xyz
|  7>
|  8>
|  9>                          ****END OF INPUT****

CARTESIAN COORDINATES (ANGSTROEM)
---------------------------------
  C      5.110554   -0.583908    0.000028
  C      5.264985    0.794721    0.000020
  C      4.133800    1.605827   -0.000004
  C      2.867006    1.048702   -0.000019
  C      2.693881   -0.341162   -0.000009
  C      3.839296   -1.141343    0.000013
  H      3.721845   -2.219579    0.000019
  H      5.982017   -1.229269    0.000045
  H      6.255086    1.235988    0.000031
  H      4.241983    2.684666   -0.000013
  H      1.995837    1.691985   -0.000041
  C      1.371820   -0.976260   -0.000022
  C      0.200838   -0.339753    0.000005
  C     -1.083813   -1.102419   -0.000012
  C     -2.343191   -0.356096   -0.000002
  C     -2.452850    1.096940   -0.000006
  C     -3.811879    1.601602    0.000010
  C     -4.910689    0.794243    0.000025
  C     -4.779319   -0.611824    0.000026
  C     -3.514547   -1.141814    0.000012
  H     -3.368322   -2.215886    0.000012
  H     -5.902204    1.240882    0.000036
  H     -5.653949   -1.251764    0.000038
  H     -3.906845    2.682140    0.000008
  O     -1.495098    1.913787   -0.000033
  O     -1.046231   -2.336154   -0.000029
  H      0.095571    0.738189    0.000035
  H      1.354252   -2.063142   -0.000054

 Total Charge           Charge          ....   -1
 Multiplicity           Mult            ....    1
 Number of Electrons    NEL             ....  118
 Basis Dimension        Dim             .... 1035

ORBITAL ENERGIES
----------------

  NO   OCC          E(Eh)            E(eV)
   0   2.0000     -20.377206      -554.4920
   1   2.0000     -20.332427      -553.2735
   2   2.0000     -11.180513      -304.2372
   3   2.0000     -11.150968      -303.4333
   4   2.0000     -11.150428      -303.4186
   5   2.0000     -11.149597      -303.3959
   6   2.0000     -11.148661      -303.3705
   7   2.0000     -11.147211      -303.3310
   8   2.0000     -11.143471      -303.2293
   9   2.0000     -11.138641      -303.0978
  10   2.0000     -11.120033      -302.5915
  11   2.0000     -11.106822      -302.2320
  12   2.0000     -11.096929      -301.9628
  13   2.0000     -11.094963      -301.9093
  14   2.0000     -11.073119      -301.3149
  15   2.0000     -11.070874      -301.2538
  16   2.0000     -11.064844      -301.0897
  17   2.0000      -1.219841       -33.1936
  18   2.0000      -1.171380       -31.8749
  19   2.0000      -1.069925       -29.1141
  20   2.0000      -0.988759       -26.9055
  21   2.0000      -0.971740       -26.4424
  22   2.0000      -0.928620       -25.2690
  23   2.0000      -0.901823       -24.5398
  24   2.0000      -0.878467       -23.9043
  25   2.0000      -0.836084       -22.7510
  26   2.0000      -0.770718       -20.9723
  27   2.0000      -0.739885       -20.1333
  28   2.0000      -0.716939       -19.5089
  29   2.0000      -0.662746       -18.0342
  30   2.0000      -0.656287       -17.8585
  31   2.0000      -0.609814       -16.5939
  32   2.0000      -0.596508       -16.2318
  33   2.0000      -0.558946       -15.2097
  34   2.0000      -0.541050       -14.7227
  35   2.0000      -0.533355       -14.5133
  36   2.0000      -0.515369       -14.0239
  37   2.0000      -0.503101       -13.6901
  38   2.0000      -0.496340       -13.5061
  39   2.0000      -0.477022       -12.9804
  40   2.0000      -0.461315       -12.5530
  41   2.0000      -0.453243       -12.3334
  42   2.0000      -0.432161       -11.7597
  43   2.0000      -0.426449       -11.6043
  44   2.0000      -0.421101       -11.4588
  45   2.0000      -0.412185       -11.2161
  46   2.0000      -0.403585       -10.9821
  47   2.0000      -0.387248       -10.5376
  48   2.0000      -0.377668       -10.2769
  49   2.0000      -0.369635       -10.0583
  50   2.0000      -0.357338        -9.7237
  51   2.0000      -0.306742        -8.3469
  52   2.0000      -0.298256        -8.1160
  53   2.0000      -0.270596        -7.3633
  54   2.0000      -0.251788        -6.8515
  55   2.0000      -0.235664        -6.4127
  56   2.0000      -0.204376        -5.5614
  57   2.0000      -0.197798        -5.3824
  58   2.0000      -0.125450        -3.4137
  59   0.0000       0.083419         2.2699
  60   0.0000       0.093612         2.5473
  61   0.0000       0.103917         2.8277
  62   0.0000       0.105333         2.8662
  63   0.0000       0.113193         3.0802

MULLIKEN ATOMIC CHARGES
-----------------------
   0 C :   -0.765541
   1 C :   -0.017114
   2 C :   -0.911707
   3 C :   -0.659007
   4 C :    2.273111
   5 C :   -1.038125
   6 H :   -0.196253
   7 H :    0.642036
   8 H :    0.319066
   9 H :    0.594232
  10 H :   -0.162806
  11 C :   -0.207068
  12 C :   -0.580551
  13 C :    1.500114
  14 C :    1.333716
  15 C :    0.746017
  16 C :   -0.969791
  17 C :   -0.111620
  18 C :   -0.870608
  19 C :   -0.981497
  20 H :   -0.068101
  21 H :    0.345635
  22 H :    0.531579
  23 H :    0.546784
  24 O :   -1.355102
  25 O :   -1.375877
  26 H :    0.308486
  27 H :    0.129994
Sum of atomic charges:   -1.0000000

LOEWDIN ATOMIC CHARGES
----------------------
   0 C :    0.177657
   1 C :    0.173769
   2 C :    0.189851
   3 C :    0.225747
   4 C :   -0.123500
   5 C :    0.201510
   6 H :   -0.183363
   7 H :   -0.191252
   8 H :   -0.195009
   9 H :   -0.187067
  10 H :   -0.184015
  11 C :    0.214952
  12 C :    0.228054
  13 C :   -0.574873
  14 C :   -0.123197
  15 C :   -0.619776
  16 C :    0.162971
  17 C :    0.129185
  18 C :    0.145400
  19 C :    0.131775
  20 H :   -0.214663
  21 H :   -0.194859
  22 H :   -0.223349
  23 H :   -0.217951
  24 O :    0.381723
  25 O :    0.423555
  26 H :   -0.344565
  27 H :   -0.208705

  Mayer bond orders larger than 0.100000
B(  0-C ,  1-C ) :   0.9716 B(  0-C ,  2-C ) :   0.4437 B(  0-C ,  4-C ) :   0.2103
B(  0-C ,  5-C ) :   1.0934 B(  0-C ,  6-H ) :  -0.1758 B(  0-C ,  7-H ) :   0.4062
B(  0-C ,  8-H ) :  -0.2090 B(  0-C , 26-H ) :   0.1012 B(  1-C ,  2-C ) :   0.9779
B(  1-C ,  3-C ) :  -0.3746 B(  1-C ,  4-C ) :   0.1082 B(  1-C ,  5-C ) :  -0.3948
B(  1-C ,  6-H ) :  -0.1008 B(  1-C ,  7-H ) :   0.1479 B(  1-C ,  8-H ) :   0.9927
B(  1-C ,  9-H ) :   0.1537 B(  1-C , 10-H ) :  -0.1728 B(  1-C , 11-C ) :   0.2059
B(  1-C , 12-C ) :   0.1477 B(  2-C ,  3-C ) :   1.1712 B(  2-C ,  4-C ) :   0.2312
B(  2-C ,  5-C ) :   0.1042 B(  2-C ,  8-H ) :  -0.2357 B(  2-C ,  9-H ) :   0.4136
B(  2-C , 12-C ) :  -0.1030 B(  3-C ,  4-C ) :   0.4150 B(  3-C ,  5-C ) :  -0.6213
B(  3-C ,  6-H ) :   0.3797 B(  3-C , 10-H ) :   2.1674 B(  3-C , 11-C ) :   0.2989
B(  3-C , 13-C ) :  -0.1559 B(  3-C , 27-H ) :  -0.1703 B(  4-C ,  5-C ) :  -0.1976
B(  4-C ,  6-H ) :  -0.6945 B(  4-C , 10-H ) :  -0.5134 B(  4-C , 12-C ) :  -0.2482
B(  4-C , 13-C ) :   0.3736 B(  4-C , 14-C ) :  -0.1195 B(  4-C , 19-C ) :   0.1150
B(  5-C ,  6-H ) :   2.3394 B(  5-C ,  7-H ) :  -0.2806 B(  5-C ,  8-H ) :   0.3146
B(  5-C , 10-H ) :   0.2284 B(  5-C , 11-C ) :   0.2989 B(  5-C , 12-C ) :   0.1181
B(  6-H ,  9-H ) :  -0.1738 B(  6-H , 10-H ) :   0.4492 B(  6-H , 11-C ) :  -0.3846
B(  6-H , 12-C ) :  -0.1705 B(  6-H , 13-C ) :  -0.1164 B(  7-H , 10-H ) :  -0.2037
B(  7-H , 11-C ) :   0.1281 B(  7-H , 12-C ) :   0.1594 B(  8-H , 10-H ) :   0.1700
B(  9-H , 11-C ) :   0.1708 B(  9-H , 12-C ) :  -0.1033 B( 10-H , 11-C ) :  -0.1561
B( 10-H , 12-C ) :  -0.4297 B( 10-H , 13-C ) :  -0.1345 B( 10-H , 26-H ) :   0.2075
B( 11-C , 12-C ) :   0.7202 B( 11-C , 14-C ) :  -0.2217 B( 11-C , 20-H ) :   0.1355
B( 11-C , 26-H ) :  -0.1717 B( 11-C , 27-H ) :   1.1671 B( 12-C , 13-C ) :   0.4621
B( 12-C , 14-C ) :   0.3916 B( 12-C , 15-C ) :   0.3219 B( 12-C , 17-C ) :   0.1016
B( 12-C , 20-H ) :  -0.1351 B( 12-C , 22-H ) :   0.1421 B( 12-C , 25-O ) :   0.1852
B( 12-C , 26-H ) :   1.4903 B( 13-C , 14-C ) :   0.5442 B( 13-C , 17-C ) :   0.1651
B( 13-C , 19-C ) :   0.1841 B( 13-C , 20-H ) :  -0.3912 B( 13-C , 23-H ) :   0.2714
B( 13-C , 24-O ) :  -0.1272 B( 13-C , 25-O ) :   0.1408 B( 13-C , 26-H ) :  -0.1510
B( 14-C , 15-C ) :   0.9680 B( 14-C , 16-C ) :   0.2686 B( 14-C , 20-H ) :  -0.3247
B( 14-C , 26-H ) :   0.1518 B( 15-C , 16-C ) :   0.8234 B( 15-C , 17-C ) :  -0.2395
B( 15-C , 19-C ) :  -0.4880 B( 15-C , 20-H ) :   0.2359 B( 15-C , 21-H ) :   0.2861
B( 15-C , 22-H ) :  -0.1362 B( 15-C , 24-O ) :   0.8322 B( 16-C , 17-C ) :   1.1526
B( 16-C , 18-C ) :   0.3403 B( 16-C , 21-H ) :  -0.1428 B( 16-C , 23-H ) :   0.4273
B( 16-C , 24-O ) :   0.1979 B( 17-C , 18-C ) :   1.0130 B( 17-C , 19-C ) :  -0.3545
B( 17-C , 20-H ) :  -0.1028 B( 17-C , 21-H ) :   0.9252 B( 18-C , 19-C ) :   1.4213
B( 18-C , 21-H ) :  -0.2867 B( 18-C , 22-H ) :   0.6729 B( 19-C , 20-H ) :   1.7955
B( 19-C , 21-H ) :   0.1125 B( 19-C , 22-H ) :  -0.1445 B( 20-H , 25-O ) :   0.2269
B( 23-H , 24-O ) :  -0.1050 B( 24-O , 26-H ) :  -0.2212 B( 25-O , 27-H ) :   0.1587

MP2 TOTAL ENERGY:     -727.296333601 Eh
FINAL SINGLE POINT ENERGY      -727.296333600511

DIPOLE MOMENT
-------------
                                X             Y             Z
Electronic contribution:     -1.84988      -1.34183      -0.00007
Nuclear contribution   :      4.70000       1.26727       0.00011
                        -----------------------------------------
Total Dipole Moment    :      2.85012      -0.07456       0.00004
                        -----------------------------------------
Magnitude (a.u.)       :      2.85110
Magnitude (Debye)      :      7.24691

Rotational constants in cm-1:     0.046942     0.006642     0.005819
Rotational constants in MHz :  1407.293843   199.129956   174.446096

                             ****ORCA TERMINATED NORMALLY****
TOTAL RUN TIME: 0 days 0 hours 19 minutes 8 seconds 240 msec
