                         Program Version 4.2.1 -  RELEASE  -
|  1> %pal
|  2>  nprocs 32
|  3> end
|  4> !RI-MP2 aug-cc-pVTZ aug-cc-pVTZ/C TightSCF
|  5> %maxcore 4500
|  6> *xyzfile 1 1  05_27TS.xyz
|  7>
|  8>
|  9>                          ****END OF INPUT****

CARTESIAN COORDINATES (ANGSTROEM)
---------------------------------
  H     -1.744103   -0.643971    0.487935
  C      0.983965    0.460110    1.134171
  C      0.891837   -1.681281   -0.430870
  C      2.424670   -1.715041   -0.341559
  C      3.044438   -0.346273   -0.132328
  C      2.502188    0.255802    1.158670
  H      2.712570   -2.369685    0.488189
  H      2.799516   -2.169644   -1.260735
  H      2.798972    0.314406   -0.964878
  H      2.768369   -0.398482    1.994681
  H      2.968955    1.225642    1.331076
  N      0.361373   -0.817102    0.665479
  O     -0.790426   -1.104343    1.108422
  C      0.476347    0.747642    2.543657
  H      1.036332    1.593840    2.942208
  H     -0.580504    1.010579    2.549760
  H      0.629545   -0.107357    3.203039
  C      0.603451    1.625139    0.206790
  H     -0.476648    1.734871    0.139136
  H      1.012854    2.541583    0.633121
  H      1.011760    1.524549   -0.795408
  C      0.347201   -3.094419   -0.235601
  H     -0.723236   -3.146186   -0.423973
  H      0.846186   -3.757045   -0.943312
  H      0.543318   -3.457968    0.773622
  C      0.419654   -1.136080   -1.789641
  H      0.722260   -1.841082   -2.565648
  H     -0.666819   -1.053848   -1.817235
  H      0.854144   -0.168680   -2.030321
  N      4.489643   -0.434538   -0.115058
  C      5.244146    0.676357   -0.371264
  C      6.738029    0.499336   -0.316668
  H      7.046957   -0.517119   -0.071935
  H      7.155465    0.777226   -1.284793
  H      7.145018    1.187804    0.424324
  O      4.716827    1.740812   -0.633187
  H      4.938961   -1.292295    0.161968
  C     -2.867115    3.730832   -0.610440
  C     -2.697317    2.877395   -1.693965
  C     -2.732500    1.505798   -1.511292
  C     -2.947193    0.979718   -0.233811
  C     -3.112040    1.843720    0.855116
  C     -3.077299    3.212473    0.663228
  H     -2.840437    4.803189   -0.758325
  H     -2.542699    3.284465   -2.685074
  H     -2.616280    0.835286   -2.351887
  H     -3.275557    1.444353    1.848574
  H     -3.217185    3.879259    1.504424
  C     -2.963183   -0.469586   -0.017563
  O     -2.989616   -1.230930   -1.131220
  C     -3.764818   -1.151760    1.074035
  C     -3.605529   -2.519584   -0.866027
  C     -3.688886   -2.619971    0.650513
  H     -4.788806   -0.767190    1.037890
  H     -3.368920   -0.966637    2.071277
  H     -4.586662   -2.499320   -1.343361
  H     -2.992228   -3.281372   -1.343073
  H     -4.551896   -3.198249    0.974986
  H     -2.790875   -3.085704    1.057774

 Total Charge           Charge          ....    1
 Multiplicity           Mult            ....    1
 Number of Electrons    NEL             ....  196
 Basis Dimension        Dim             .... 1955

ORBITAL ENERGIES
----------------

  NO   OCC          E(Eh)            E(eV)
   0   2.0000     -20.814957      -566.4038
   1   2.0000     -20.728144      -564.0415
   2   2.0000     -20.598329      -560.5090
   3   2.0000     -15.813293      -430.3016
   4   2.0000     -15.674336      -426.5204
   5   2.0000     -11.478147      -312.3363
   6   2.0000     -11.431831      -311.0759
   7   2.0000     -11.412940      -310.5619
   8   2.0000     -11.412795      -310.5579
   9   2.0000     -11.404680      -310.3371
  10   2.0000     -11.372812      -309.4700
  11   2.0000     -11.372233      -309.4542
  12   2.0000     -11.372096      -309.4505
  13   2.0000     -11.364233      -309.2365
  14   2.0000     -11.360481      -309.1344
  15   2.0000     -11.357438      -309.0516
  16   2.0000     -11.356600      -309.0288
  17   2.0000     -11.350676      -308.8676
  18   2.0000     -11.348991      -308.8217
  19   2.0000     -11.347128      -308.7710
  20   2.0000     -11.338283      -308.5304
  21   2.0000     -11.336025      -308.4689
  22   2.0000     -11.332519      -308.3735
  23   2.0000     -11.330024      -308.3056
  24   2.0000     -11.326365      -308.2061
  25   2.0000     -11.310448      -307.7729
  26   2.0000      -1.649846       -44.8946
  27   2.0000      -1.564473       -42.5715
  28   2.0000      -1.468366       -39.9563
  29   2.0000      -1.335576       -36.3429
  30   2.0000      -1.303760       -35.4771
  31   2.0000      -1.287238       -35.0275
  32   2.0000      -1.230375       -33.4802
  33   2.0000      -1.213146       -33.0114
  34   2.0000      -1.188636       -32.3444
  35   2.0000      -1.160742       -31.5854
  36   2.0000      -1.140806       -31.0429
  37   2.0000      -1.117510       -30.4090
  38   2.0000      -1.106847       -30.1188
  39   2.0000      -1.075786       -29.2736
  40   2.0000      -1.067069       -29.0364
  41   2.0000      -1.054149       -28.6848
  42   2.0000      -1.050153       -28.5761
  43   2.0000      -0.986130       -26.8340
  44   2.0000      -0.974156       -26.5081
  45   2.0000      -0.957386       -26.0518
  46   2.0000      -0.949877       -25.8475
  47   2.0000      -0.939278       -25.5591
  48   2.0000      -0.921629       -25.0788
  49   2.0000      -0.892468       -24.2853
  50   2.0000      -0.883359       -24.0374
  51   2.0000      -0.850751       -23.1501
  52   2.0000      -0.834996       -22.7214
  53   2.0000      -0.812731       -22.1155
  54   2.0000      -0.810080       -22.0434
  55   2.0000      -0.801468       -21.8090
  56   2.0000      -0.792576       -21.5671
  57   2.0000      -0.774933       -21.0870
  58   2.0000      -0.769770       -20.9465
  59   2.0000      -0.759267       -20.6607
  60   2.0000      -0.745231       -20.2788
  61   2.0000      -0.735030       -20.0012
  62   2.0000      -0.731369       -19.9016
  63   2.0000      -0.723396       -19.6846
  64   2.0000      -0.718686       -19.5564
  65   2.0000      -0.713673       -19.4200
  66   2.0000      -0.711308       -19.3557
  67   2.0000      -0.707307       -19.2468
  68   2.0000      -0.698762       -19.0143
  69   2.0000      -0.695263       -18.9191
  70   2.0000      -0.688031       -18.7223
  71   2.0000      -0.683768       -18.6063
  72   2.0000      -0.673044       -18.3144
  73   2.0000      -0.665157       -18.0998
  74   2.0000      -0.659792       -17.9538
  75   2.0000      -0.657918       -17.9029
  76   2.0000      -0.653094       -17.7716
  77   2.0000      -0.649253       -17.6671
  78   2.0000      -0.642786       -17.4911
  79   2.0000      -0.638660       -17.3788
  80   2.0000      -0.634773       -17.2731
  81   2.0000      -0.627488       -17.0748
  82   2.0000      -0.625269       -17.0144
  83   2.0000      -0.623096       -16.9553
  84   2.0000      -0.617985       -16.8162
  85   2.0000      -0.609432       -16.5835
  86   2.0000      -0.609125       -16.5751
  87   2.0000      -0.601086       -16.3564
  88   2.0000      -0.599207       -16.3052
  89   2.0000      -0.593046       -16.1376
  90   2.0000      -0.587322       -15.9818
  91   2.0000      -0.576588       -15.6898
  92   2.0000      -0.569007       -15.4835
  93   2.0000      -0.506941       -13.7946
  94   2.0000      -0.496642       -13.5143
  95   2.0000      -0.481995       -13.1158
  96   2.0000      -0.460123       -12.5206
  97   2.0000      -0.427960       -11.6454
  98   0.0000      -0.141426        -3.8484
  99   0.0000      -0.056182        -1.5288
 100   0.0000      -0.048136        -1.3098
 101   0.0000      -0.046924        -1.2769
 102   0.0000      -0.043656        -1.1879

MULLIKEN ATOMIC CHARGES
-----------------------
   0 H :    0.479336
   1 C :    1.918161
   2 C :    2.142628
   3 C :   -1.420750
   4 C :    1.184674
   5 C :   -1.238209
   6 H :    0.196269
   7 H :    0.328813
   8 H :    0.576972
   9 H :    0.157919
  10 H :    0.397329
  11 N :    0.983491
  12 O :   -1.169237
  13 C :   -2.016112
  14 H :    0.096004
  15 H :    0.529410
  16 H :    0.169194
  17 C :   -1.780934
  18 H :    1.184113
  19 H :   -0.006212
  20 H :    0.330312
  21 C :   -2.149163
  22 H :    0.614326
  23 H :    0.038834
  24 H :    0.149872
  25 C :   -1.450702
  26 H :   -0.007614
  27 H :    0.594942
  28 H :    0.353216
  29 N :   -0.598571
  30 C :    0.715877
  31 C :   -0.900693
  32 H :    0.274295
  33 H :    0.325213
  34 H :    0.324859
  35 O :   -1.047878
  36 H :   -0.095354
  37 C :   -0.160851
  38 C :   -0.640557
  39 C :   -0.426584
  40 C :    0.778769
  41 C :   -0.511407
  42 C :   -0.857271
  43 H :    0.644540
  44 H :    0.453001
  45 H :    0.234837
  46 H :    0.239301
  47 H :    0.431362
  48 C :    2.058779
  49 O :   -1.075142
  50 C :   -0.952392
  51 C :   -0.555741
  52 C :   -0.618746
  53 H :    0.250854
  54 H :    0.350713
  55 H :    0.259007
  56 H :    0.346657
  57 H :    0.421974
  58 H :    0.144269
Sum of atomic charges:    1.0000000

LOEWDIN ATOMIC CHARGES
----------------------
   0 H :   -0.516269
   1 C :   -0.356754
   2 C :   -0.357562
   3 C :    0.335578
   4 C :   -0.102700
   5 C :    0.335774
   6 H :   -0.122765
   7 H :   -0.115077
   8 H :   -0.163301
   9 H :   -0.118965
  10 H :   -0.129600
  11 N :    0.122841
  12 O :    0.747300
  13 C :    0.605050
  14 H :   -0.140956
  15 H :   -0.165267
  16 H :   -0.146328
  17 C :    0.642883
  18 H :   -0.205490
  19 H :   -0.127171
  20 H :   -0.172053
  21 C :    0.605939
  22 H :   -0.184783
  23 H :   -0.139274
  24 H :   -0.142213
  25 C :    0.640245
  26 H :   -0.134849
  27 H :   -0.186872
  28 H :   -0.173588
  29 N :    0.592222
  30 C :   -0.661669
  31 C :    0.611922
  32 H :   -0.179101
  33 H :   -0.164925
  34 H :   -0.165451
  35 O :    0.470170
  36 H :   -0.273289
  37 C :    0.236133
  38 C :    0.235706
  39 C :    0.238438
  40 C :   -0.098991
  41 C :    0.225324
  42 C :    0.234259
  43 H :   -0.162036
  44 H :   -0.166701
  45 H :   -0.171636
  46 H :   -0.163433
  47 H :   -0.166646
  48 C :   -0.324732
  49 O :    0.659324
  50 C :    0.348405
  51 C :    0.156073
  52 C :    0.337068
  53 H :   -0.110481
  54 H :   -0.123961
  55 H :   -0.131496
  56 H :   -0.144205
  57 H :   -0.125727
  58 H :   -0.144336

  Mayer bond orders larger than 0.100000
B(  0-H , 11-N ) :   0.1460 B(  0-H , 12-O ) :  -0.4730 B(  0-H , 40-C ) :   0.1156
B(  0-H , 48-C ) :   0.8754 B(  0-H , 50-C ) :   0.1759 B(  0-H , 52-C ) :   0.1042
B(  1-C ,  9-H ) :  -0.1288 B(  1-C , 11-N ) :   1.0083 B(  1-C , 12-O ) :   0.1276
B(  1-C , 13-C ) :   0.2362 B(  1-C , 14-H ) :  -0.1909 B(  1-C , 16-H ) :  -0.1403
B(  1-C , 17-C ) :   0.4044 B(  2-C ,  4-C ) :   0.1140 B(  2-C , 11-N ) :   0.7462
B(  2-C , 13-C ) :  -0.1052 B(  2-C , 21-C ) :  -0.1110 B(  2-C , 23-H ) :  -0.2608
B(  2-C , 24-H ) :  -0.2274 B(  2-C , 25-C ) :   0.3239 B(  2-C , 26-H ) :  -0.1598
B(  2-C , 27-H ) :   0.1081 B(  3-C ,  4-C ) :   0.4922 B(  3-C ,  5-C ) :   0.2750
B(  3-C ,  6-H ) :   1.2864 B(  3-C ,  7-H ) :   0.8841 B(  3-C , 11-N ) :   0.1015
B(  3-C , 29-N ) :   0.2222 B(  4-C ,  5-C ) :   0.7538 B(  4-C ,  8-H ) :   0.8117
B(  4-C , 11-N ) :  -0.1689 B(  5-C ,  8-H ) :   0.2600 B(  5-C ,  9-H ) :   1.2398
B(  5-C , 10-H ) :   0.9285 B(  5-C , 11-N ) :   0.1015 B(  5-C , 29-N ) :   0.1648
B(  5-C , 35-O ) :   0.1141 B(  8-H , 29-N ) :  -0.4588 B(  8-H , 30-C ) :  -0.1572
B(  8-H , 35-O ) :  -0.2718 B( 11-N , 12-O ) :   0.5555 B( 11-N , 13-C ) :  -0.5912
B( 11-N , 16-H ) :  -0.2364 B( 11-N , 17-C ) :   0.2709 B( 11-N , 18-H ) :  -0.1470
B( 11-N , 21-C ) :  -0.5020 B( 11-N , 24-H ) :  -0.2290 B( 11-N , 25-C ) :   0.1441
B( 11-N , 40-C ) :   0.2243 B( 11-N , 48-C ) :  -0.1230 B( 12-O , 13-C ) :   0.2937
B( 12-O , 16-H ) :   0.1014 B( 12-O , 21-C ) :   0.2149 B( 12-O , 24-H ) :   0.1260
B( 12-O , 48-C ) :   0.1385 B( 13-C , 14-H ) :   1.4396 B( 13-C , 15-H ) :   0.7900
B( 13-C , 16-H ) :   1.3698 B( 13-C , 18-H ) :  -0.1079 B( 17-C , 19-H ) :   1.4334
B( 17-C , 20-H ) :   1.0901 B( 18-H , 19-H ) :  -0.1322 B( 18-H , 37-C ) :  -0.1363
B( 21-C , 22-H ) :   0.7261 B( 21-C , 23-H ) :   1.5438 B( 21-C , 24-H ) :   1.4187
B( 21-C , 25-C ) :   0.1255 B( 25-C , 26-H ) :   1.4063 B( 25-C , 27-H ) :   0.5767
B( 25-C , 28-H ) :   1.0358 B( 27-H , 49-O ) :   0.1246 B( 29-N , 30-C ) :   1.1696
B( 29-N , 36-H ) :   1.3063 B( 30-C , 31-C ) :   0.4255 B( 30-C , 35-O ) :   1.5025
B( 30-C , 36-H ) :  -0.1002 B( 31-C , 32-H ) :   1.0028 B( 31-C , 33-H ) :   0.9951
B( 31-C , 34-H ) :   0.9818 B( 31-C , 35-O ) :  -0.1438 B( 37-C , 38-C ) :   1.0768
B( 37-C , 39-C ) :   0.1265 B( 37-C , 41-C ) :   0.1923 B( 37-C , 42-C ) :   1.1007
B( 37-C , 43-H ) :   0.4975 B( 38-C , 39-C ) :   1.2606 B( 38-C , 40-C ) :   0.3912
B( 38-C , 43-H ) :  -0.1347 B( 38-C , 44-H ) :   0.8258 B( 38-C , 46-H ) :  -0.1014
B( 38-C , 48-C ) :   0.1097 B( 39-C , 40-C ) :   0.3446 B( 39-C , 45-H ) :   1.1822
B( 39-C , 48-C ) :   0.4786 B( 39-C , 49-O ) :  -0.1338 B( 40-C , 41-C ) :   0.6025
B( 40-C , 42-C ) :   0.2484 B( 40-C , 43-H ) :   0.1198 B( 40-C , 44-H ) :  -0.1160
B( 40-C , 47-H ) :  -0.1337 B( 40-C , 49-O ) :  -0.1749 B( 41-C , 42-C ) :   1.3222
B( 41-C , 45-H ) :   0.1172 B( 41-C , 46-H ) :   1.1912 B( 42-C , 46-H ) :  -0.1453
B( 42-C , 47-H ) :   0.8431 B( 45-H , 48-C ) :  -0.2036 B( 46-H , 48-C ) :  -0.1407
B( 48-C , 49-O ) :   0.2602 B( 48-C , 50-C ) :  -0.1110 B( 48-C , 51-C ) :  -0.3362
B( 48-C , 52-C ) :  -0.2607 B( 48-C , 54-H ) :  -0.1671 B( 49-O , 51-C ) :   1.0487
B( 49-O , 52-C ) :   0.1133 B( 50-C , 51-C ) :   0.2108 B( 50-C , 52-C ) :   1.2028
B( 50-C , 53-H ) :   1.0247 B( 50-C , 54-H ) :   0.9506 B( 51-C , 52-C ) :   0.9531
B( 51-C , 55-H ) :   0.9825 B( 51-C , 56-H ) :   0.9449 B( 51-C , 58-H ) :   0.1091
B( 52-C , 57-H ) :   0.7945 B( 52-C , 58-H ) :   1.0984

MP2 TOTAL ENERGY:    -1152.762383901 Eh
FINAL SINGLE POINT ENERGY     -1152.762383900984

DIPOLE MOMENT
-------------
                                X             Y             Z
Electronic contribution:     -6.98099       6.98263      -2.40693
Nuclear contribution   :      5.39514      -8.78267       3.04670
                        -----------------------------------------
Total Dipole Moment    :     -1.58584      -1.80004       0.63977
                        -----------------------------------------
Magnitude (a.u.)       :      2.48281
Magnitude (Debye)      :      6.31080

Rotational constants in cm-1:     0.010754     0.004291     0.003591
Rotational constants in MHz :   322.393726   128.648881   107.661697

                             ****ORCA TERMINATED NORMALLY****
TOTAL RUN TIME: 0 days 4 hours 7 minutes 1 seconds 568 msec
