                         Program Version 4.2.1 -  RELEASE  -
|  1> %pal
|  2>  nprocs 32
|  3> end
|  4> !RI-MP2 aug-cc-pVTZ aug-cc-pVTZ/C TightSCF
|  5> %maxcore 4500
|  6> *xyzfile 0 1  03_21P2.xyz
|  7>
|  8>
|  9>                          ****END OF INPUT****

CARTESIAN COORDINATES (ANGSTROEM)
---------------------------------
  O     -0.097066    1.505757    0.000204
  C      0.078182    0.340956    0.000041
  C     -0.953957   -0.749306   -0.000080
  C     -2.375359   -0.209267    0.000047
  H     -0.753699   -1.379257    0.870677
  H     -0.753759   -1.379002   -0.871036
  H     -2.562777    0.405737    0.880541
  H     -3.087380   -1.035379   -0.000053
  H     -2.562835    0.406001   -0.880251
  Cl     1.764928   -0.315203   -0.000091

 Total Charge           Charge          ....    0
 Multiplicity           Mult            ....    1
 Number of Electrons    NEL             ....   48
 Basis Dimension        Dim             ....  349

ORBITAL ENERGIES
----------------

  NO   OCC          E(Eh)            E(eV)
   0   2.0000    -104.844428     -2852.9619
   1   2.0000     -20.594108      -560.3942
   2   2.0000     -11.407005      -310.4004
   3   2.0000     -11.270297      -306.6804
   4   2.0000     -11.238675      -305.8199
   5   2.0000     -10.569097      -287.5998
   6   2.0000      -8.035711      -218.6628
   7   2.0000      -8.034061      -218.6179
   8   2.0000      -8.033929      -218.6143
   9   2.0000      -1.454086       -39.5677
  10   2.0000      -1.133021       -30.8311
  11   2.0000      -1.072805       -29.1925
  12   2.0000      -0.914493       -24.8846
  13   2.0000      -0.765088       -20.8191
  14   2.0000      -0.689253       -18.7555
  15   2.0000      -0.664397       -18.0792
  16   2.0000      -0.658788       -17.9265
  17   2.0000      -0.577913       -15.7258
  18   2.0000      -0.567296       -15.4369
  19   2.0000      -0.542338       -14.7578
  20   2.0000      -0.519033       -14.1236
  21   2.0000      -0.464812       -12.6482
  22   2.0000      -0.463632       -12.6161
  23   2.0000      -0.448262       -12.1978
  24   0.0000       0.025350         0.6898
  25   0.0000       0.039058         1.0628
  26   0.0000       0.040162         1.0929
  27   0.0000       0.046838         1.2745
  28   0.0000       0.062650         1.7048

MULLIKEN ATOMIC CHARGES
-----------------------
   0 O :   -0.584619
   1 C :    0.473463
   2 C :   -0.269158
   3 C :   -0.828580
   4 H :    0.313850
   5 H :    0.313848
   6 H :    0.282218
   7 H :    0.291740
   8 H :    0.282219
   9 Cl:   -0.274981
Sum of atomic charges:    0.0000000

LOEWDIN ATOMIC CHARGES
----------------------
   0 O :    0.407273
   1 C :   -1.103269
   2 C :    0.148498
   3 C :    0.566512
   4 H :   -0.174092
   5 H :   -0.174090
   6 H :   -0.169208
   7 H :   -0.169588
   8 H :   -0.169207
   9 Cl:    0.837171

  Mayer bond orders larger than 0.100000
B(  0-O ,  1-C ) :   1.6403 B(  1-C ,  2-C ) :   0.8119 B(  1-C ,  9-Cl) :   0.9034
B(  2-C ,  3-C ) :   0.8827 B(  2-C ,  4-H ) :   0.9265 B(  2-C ,  5-H ) :   0.9265
B(  3-C ,  6-H ) :   0.9287 B(  3-C ,  7-H ) :   0.9454 B(  3-C ,  8-H ) :   0.9287

MP2 TOTAL ENERGY:     -651.921922673 Eh
FINAL SINGLE POINT ENERGY      -651.921922672844

DIPOLE MOMENT
-------------
                                X             Y             Z
Electronic contribution:     11.09741       1.51430      -0.00011
Nuclear contribution   :    -11.93229      -2.44279       0.00001
                        -----------------------------------------
Total Dipole Moment    :     -0.83488      -0.92849      -0.00010
                        -----------------------------------------
Magnitude (a.u.)       :      1.24865
Magnitude (Debye)      :      3.17381

Rotational constants in cm-1:     0.297743     0.078422     0.063519
Rotational constants in MHz :  8926.123463  2351.028817  1904.246861

                             ****ORCA TERMINATED NORMALLY****
TOTAL RUN TIME: 0 days 0 hours 0 minutes 44 seconds 509 msec
