                         Program Version 4.2.1 -  RELEASE  -
|  1> %pal
|  2>  nprocs 32
|  3> end
|  4> !RI-MP2 aug-cc-pVTZ aug-cc-pVTZ/C TightSCF
|  5> %maxcore 4500
|  6> *xyzfile 1 1  05_20TS.xyz
|  7>
|  8>
|  9>                          ****END OF INPUT****

CARTESIAN COORDINATES (ANGSTROEM)
---------------------------------
  C     -3.259882    3.421510   -0.623206
  C     -3.454349    2.900640    0.652973
  C     -3.390794    1.535517    0.856677
  C     -3.142513    0.682763   -0.225663
  C     -2.946539    1.208405   -1.506891
  C     -3.008676    2.577063   -1.698998
  H     -3.310480    4.491762   -0.779937
  H     -3.658589    3.563260    1.484104
  H     -3.540607    1.124571    1.848573
  H     -2.770947    0.540121   -2.340015
  H     -2.869066    2.989548   -2.689982
  C     -3.049963   -0.747370    0.001857
  C     -3.802112   -1.659147    0.952571
  H     -1.800662   -0.844314    0.516859
  C     -3.736481   -2.644442   -0.224308
  H     -4.798581   -1.299792    1.205975
  H     -3.269182   -1.954390    1.855372
  H     -3.092330   -3.512453   -0.100432
  O     -3.078216   -1.620755   -1.043337
  C      0.837702    0.352105    1.195433
  C      0.842489   -1.718679   -0.462764
  C      2.375635   -1.665343   -0.397408
  C      2.914741   -0.269782   -0.145528
  C      2.365741    0.245852    1.179524
  H      2.715646   -2.332052    0.402447
  H      2.761136   -2.061890   -1.338732
  H      2.609383    0.405962   -0.945612
  H      2.692210   -0.422518    1.982260
  H      2.774520    1.235957    1.381556
  N      0.285040   -0.935484    0.677750
  O     -0.862519   -1.288495    1.102908
  C      0.347299    0.539321    2.628425
  H      0.865064    1.396919    3.058521
  H     -0.723183    0.736136    2.670966
  H      0.566867   -0.336864    3.239458
  C      0.362564    1.534410    0.334851
  H     -0.723997    1.572277    0.286494
  H      0.713460    2.454974    0.802551
  H      0.760914    1.513237   -0.676373
  C      0.381846   -3.168144   -0.324939
  H     -0.684824   -3.272867   -0.514372
  H      0.913026   -3.770821   -1.062236
  H      0.605279   -3.561283    0.667317
  C      0.317401   -1.145025   -1.790230
  H      0.662754   -1.787175   -2.602013
  H     -0.772227   -1.149952   -1.808224
  H      0.673559   -0.136443   -1.986179
  N      4.362633   -0.266507   -0.161313
  C      5.039729    0.898992   -0.388505
  C      6.542644    0.815586   -0.371661
  H      6.920394   -0.188761   -0.179066
  H      6.919765    1.161749   -1.334279
  H      6.922154    1.495504    0.391522
  O      4.440761    1.937260   -0.596610
  H      4.871100   -1.104612    0.069813
  H     -4.685375   -2.921326   -0.678334

 Total Charge           Charge          ....    1
 Multiplicity           Mult            ....    1
 Number of Electrons    NEL             ....  188
 Basis Dimension        Dim             .... 1863

ORBITAL ENERGIES
----------------

  NO   OCC          E(Eh)            E(eV)
   0   2.0000     -20.808195      -566.2198
   1   2.0000     -20.738491      -564.3230
   2   2.0000     -20.596852      -560.4688
   3   2.0000     -15.799682      -429.9312
   4   2.0000     -15.672495      -426.4703
   5   2.0000     -11.494914      -312.7925
   6   2.0000     -11.432785      -311.1019
   7   2.0000     -11.430360      -311.0359
   8   2.0000     -11.408053      -310.4289
   9   2.0000     -11.401119      -310.2402
  10   2.0000     -11.387999      -309.8832
  11   2.0000     -11.382538      -309.7346
  12   2.0000     -11.375548      -309.5444
  13   2.0000     -11.372517      -309.4619
  14   2.0000     -11.369663      -309.3843
  15   2.0000     -11.367308      -309.3202
  16   2.0000     -11.358997      -309.0940
  17   2.0000     -11.357559      -309.0549
  18   2.0000     -11.343601      -308.6751
  19   2.0000     -11.333712      -308.4060
  20   2.0000     -11.333645      -308.4042
  21   2.0000     -11.329605      -308.2942
  22   2.0000     -11.328031      -308.2514
  23   2.0000     -11.325963      -308.1951
  24   2.0000     -11.309276      -307.7410
  25   2.0000      -1.641381       -44.6643
  26   2.0000      -1.583090       -43.0781
  27   2.0000      -1.466810       -39.9139
  28   2.0000      -1.333239       -36.2793
  29   2.0000      -1.301545       -35.4168
  30   2.0000      -1.295846       -35.2618
  31   2.0000      -1.226484       -33.3743
  32   2.0000      -1.198554       -32.6143
  33   2.0000      -1.172707       -31.9110
  34   2.0000      -1.158615       -31.5275
  35   2.0000      -1.149432       -31.2776
  36   2.0000      -1.114616       -30.3302
  37   2.0000      -1.075863       -29.2757
  38   2.0000      -1.073774       -29.2189
  39   2.0000      -1.063342       -28.9350
  40   2.0000      -1.051666       -28.6173
  41   2.0000      -1.047686       -28.5090
  42   2.0000      -0.973079       -26.4788
  43   2.0000      -0.960963       -26.1491
  44   2.0000      -0.955864       -26.0104
  45   2.0000      -0.944655       -25.7054
  46   2.0000      -0.919282       -25.0149
  47   2.0000      -0.887267       -24.1438
  48   2.0000      -0.881355       -23.9829
  49   2.0000      -0.859336       -23.3837
  50   2.0000      -0.837324       -22.7847
  51   2.0000      -0.810099       -22.0439
  52   2.0000      -0.807239       -21.9661
  53   2.0000      -0.805273       -21.9126
  54   2.0000      -0.800222       -21.7751
  55   2.0000      -0.789622       -21.4867
  56   2.0000      -0.772397       -21.0180
  57   2.0000      -0.757477       -20.6120
  58   2.0000      -0.749422       -20.3928
  59   2.0000      -0.734427       -19.9848
  60   2.0000      -0.731854       -19.9148
  61   2.0000      -0.722040       -19.6477
  62   2.0000      -0.720301       -19.6004
  63   2.0000      -0.708563       -19.2810
  64   2.0000      -0.705722       -19.2037
  65   2.0000      -0.696387       -18.9497
  66   2.0000      -0.693664       -18.8756
  67   2.0000      -0.691363       -18.8129
  68   2.0000      -0.684386       -18.6231
  69   2.0000      -0.681257       -18.5379
  70   2.0000      -0.667950       -18.1758
  71   2.0000      -0.664714       -18.0878
  72   2.0000      -0.654925       -17.8214
  73   2.0000      -0.652121       -17.7451
  74   2.0000      -0.648318       -17.6416
  75   2.0000      -0.643123       -17.5003
  76   2.0000      -0.639197       -17.3934
  77   2.0000      -0.636453       -17.3188
  78   2.0000      -0.631762       -17.1911
  79   2.0000      -0.630753       -17.1637
  80   2.0000      -0.621952       -16.9242
  81   2.0000      -0.618374       -16.8268
  82   2.0000      -0.615538       -16.7496
  83   2.0000      -0.604359       -16.4455
  84   2.0000      -0.597621       -16.2621
  85   2.0000      -0.594705       -16.1828
  86   2.0000      -0.586398       -15.9567
  87   2.0000      -0.573478       -15.6051
  88   2.0000      -0.567036       -15.4298
  89   2.0000      -0.505965       -13.7680
  90   2.0000      -0.502302       -13.6683
  91   2.0000      -0.480117       -13.0647
  92   2.0000      -0.469118       -12.7653
  93   2.0000      -0.431249       -11.7349
  94   0.0000      -0.147733        -4.0200
  95   0.0000      -0.057916        -1.5760
  96   0.0000      -0.048386        -1.3166
  97   0.0000      -0.046736        -1.2718
  98   0.0000      -0.045343        -1.2338

MULLIKEN ATOMIC CHARGES
-----------------------
   0 C :   -0.064550
   1 C :   -0.691570
   2 C :   -0.671061
   3 C :    0.739718
   4 C :   -0.446829
   5 C :   -0.639965
   6 H :    0.616498
   7 H :    0.445796
   8 H :    0.193802
   9 H :    0.132821
  10 H :    0.513397
  11 C :    2.401577
  12 C :   -1.023858
  13 H :    0.199114
  14 C :   -0.740435
  15 H :    0.308015
  16 H :    0.363791
  17 H :    0.370619
  18 O :   -1.077988
  19 C :    2.031814
  20 C :    1.923752
  21 C :   -1.411520
  22 C :    1.148100
  23 C :   -1.199388
  24 H :    0.193672
  25 H :    0.346780
  26 H :    0.580005
  27 H :    0.173786
  28 H :    0.403515
  29 N :    0.689538
  30 O :   -1.030533
  31 C :   -1.977348
  32 H :    0.127372
  33 H :    0.484174
  34 H :    0.153787
  35 C :   -1.775593
  36 H :    1.141464
  37 H :    0.013506
  38 H :    0.303672
  39 C :   -1.969382
  40 H :    0.508528
  41 H :    0.104486
  42 H :    0.193824
  43 C :   -1.368427
  44 H :    0.028766
  45 H :    0.552144
  46 H :    0.350055
  47 N :   -0.601887
  48 C :    0.712833
  49 C :   -0.895035
  50 H :    0.274154
  51 H :    0.323469
  52 H :    0.324116
  53 O :   -1.047607
  54 H :   -0.091432
  55 H :    0.351950
Sum of atomic charges:    1.0000000

LOEWDIN ATOMIC CHARGES
----------------------
   0 C :    0.242405
   1 C :    0.237487
   2 C :    0.227459
   3 C :   -0.102876
   4 C :    0.242241
   5 C :    0.240960
   6 H :   -0.159226
   7 H :   -0.165778
   8 H :   -0.151576
   9 H :   -0.162540
  10 H :   -0.165430
  11 C :   -0.327542
  12 C :    0.401783
  13 H :   -0.537542
  14 C :    0.198995
  15 H :   -0.122301
  16 H :   -0.127610
  17 H :   -0.141180
  18 O :    0.646227
  19 C :   -0.362402
  20 C :   -0.363257
  21 C :    0.334683
  22 C :   -0.102990
  23 C :    0.334846
  24 H :   -0.122272
  25 H :   -0.116093
  26 H :   -0.163562
  27 H :   -0.119315
  28 H :   -0.130051
  29 N :    0.119973
  30 O :    0.751404
  31 C :    0.603255
  32 H :   -0.142492
  33 H :   -0.163304
  34 H :   -0.146600
  35 C :    0.639748
  36 H :   -0.202477
  37 H :   -0.129048
  38 H :   -0.171979
  39 C :    0.604770
  40 H :   -0.176615
  41 H :   -0.141424
  42 H :   -0.144271
  43 C :    0.636536
  44 H :   -0.135055
  45 H :   -0.188991
  46 H :   -0.174485
  47 N :    0.592108
  48 C :   -0.662101
  49 C :    0.611589
  50 H :   -0.179146
  51 H :   -0.165179
  52 H :   -0.165546
  53 O :    0.469416
  54 H :   -0.273132
  55 H :   -0.130499

  Mayer bond orders larger than 0.100000
B(  0-C ,  1-C ) :   1.0928 B(  0-C ,  2-C ) :   0.1299 B(  0-C ,  5-C ) :   1.0764
B(  0-C ,  6-H ) :   0.5643 B(  0-C , 11-C ) :   0.1038 B(  0-C , 36-H ) :  -0.1294
B(  1-C ,  2-C ) :   1.5010 B(  1-C ,  3-C ) :   0.1629 B(  1-C ,  7-H ) :   0.8620
B(  2-C ,  3-C ) :   0.6671 B(  2-C ,  8-H ) :   1.2363 B(  2-C ,  9-H ) :   0.1013
B(  3-C ,  4-C ) :   0.6553 B(  3-C ,  5-C ) :   0.2784 B(  3-C ,  7-H ) :  -0.1295
B(  3-C , 10-H ) :  -0.1162 B(  3-C , 12-C ) :  -0.2851 B(  3-C , 14-C ) :   0.1630
B(  3-C , 29-N ) :   0.2039 B(  4-C ,  5-C ) :   1.4064 B(  4-C ,  8-H ) :   0.1068
B(  4-C ,  9-H ) :   1.2906 B(  4-C , 13-H ) :  -0.1144 B(  4-C , 35-C ) :   0.1087
B(  5-C ,  6-H ) :  -0.1629 B(  5-C ,  8-H ) :  -0.1023 B(  5-C , 10-H ) :   0.7393
B(  8-H , 11-C ) :  -0.2143 B(  9-H , 11-C ) :  -0.1905 B( 11-C , 13-H ) :   0.8992
B( 11-C , 14-C ) :  -0.9461 B( 11-C , 17-H ) :  -0.1147 B( 12-C , 13-H ) :   0.1870
B( 12-C , 14-C ) :   1.5027 B( 12-C , 15-H ) :   0.9237 B( 12-C , 16-H ) :   0.9078
B( 12-C , 18-O ) :   0.1285 B( 13-H , 14-C ) :   0.1289 B( 13-H , 18-O ) :   0.1440
B( 13-H , 29-N ) :   0.1069 B( 13-H , 30-O ) :  -0.1055 B( 14-C , 17-H ) :   0.9268
B( 14-C , 18-O ) :   1.1116 B( 14-C , 55-H ) :   0.9186 B( 19-C , 27-H ) :  -0.1116
B( 19-C , 29-N ) :   0.9344 B( 19-C , 31-C ) :   0.1427 B( 19-C , 32-H ) :  -0.2008
B( 19-C , 34-H ) :  -0.1747 B( 19-C , 35-C ) :   0.4347 B( 20-C , 29-N ) :   0.8315
B( 20-C , 41-H ) :  -0.2071 B( 20-C , 42-H ) :  -0.1839 B( 20-C , 43-C ) :   0.4672
B( 20-C , 44-H ) :  -0.1104 B( 21-C , 22-C ) :   0.5004 B( 21-C , 23-C ) :   0.2911
B( 21-C , 24-H ) :   1.2917 B( 21-C , 25-H ) :   0.8483 B( 21-C , 29-N ) :   0.1116
B( 21-C , 47-N ) :   0.1994 B( 22-C , 23-C ) :   0.8078 B( 22-C , 26-H ) :   0.8095
B( 22-C , 29-N ) :  -0.1980 B( 22-C , 53-O ) :   0.1175 B( 23-C , 26-H ) :   0.2440
B( 23-C , 27-H ) :   1.2250 B( 23-C , 28-H ) :   0.9244 B( 23-C , 29-N ) :   0.1372
B( 23-C , 31-C ) :  -0.1023 B( 23-C , 47-N ) :   0.1553 B( 23-C , 53-O ) :   0.1054
B( 26-H , 47-N ) :  -0.4397 B( 26-H , 48-C ) :  -0.1545 B( 26-H , 53-O ) :  -0.2699
B( 29-N , 30-O ) :   0.1365 B( 29-N , 31-C ) :  -0.4034 B( 29-N , 34-H ) :  -0.1666
B( 29-N , 35-C ) :   0.2509 B( 29-N , 39-C ) :  -0.2586 B( 29-N , 42-H ) :  -0.1517
B( 29-N , 43-C ) :   0.1049 B( 30-O , 31-C ) :   0.2412 B( 30-O , 39-C ) :   0.1776
B( 31-C , 32-H ) :   1.3838 B( 31-C , 33-H ) :   0.8120 B( 31-C , 34-H ) :   1.3951
B( 31-C , 35-C ) :   0.1144 B( 35-C , 37-H ) :   1.4217 B( 35-C , 38-H ) :   1.1025
B( 36-H , 37-H ) :  -0.1159 B( 39-C , 40-H ) :   0.7789 B( 39-C , 41-H ) :   1.4135
B( 39-C , 42-H ) :   1.3385 B( 43-C , 44-H ) :   1.3340 B( 43-C , 45-H ) :   0.6355
B( 43-C , 46-H ) :   1.0353 B( 47-N , 48-C ) :   1.1873 B( 47-N , 54-H ) :   1.3029
B( 48-C , 49-C ) :   0.4323 B( 48-C , 53-O ) :   1.4841 B( 49-C , 50-H ) :   1.0007
B( 49-C , 51-H ) :   0.9960 B( 49-C , 52-H ) :   0.9814 B( 49-C , 53-O ) :  -0.1421

MP2 TOTAL ENERGY:    -1113.498197121 Eh
FINAL SINGLE POINT ENERGY     -1113.498197121391

DIPOLE MOMENT
-------------
                                X             Y             Z
Electronic contribution:    -10.48275       4.49026      -2.19960
Nuclear contribution   :      8.46056      -6.12697       2.88330
                        -----------------------------------------
Total Dipole Moment    :     -2.02220      -1.63671       0.68370
                        -----------------------------------------
Magnitude (a.u.)       :      2.68990
Magnitude (Debye)      :      6.83718

Rotational constants in cm-1:     0.011808     0.004505     0.003837
Rotational constants in MHz :   353.995914   135.062885   115.023437

                             ****ORCA TERMINATED NORMALLY****
TOTAL RUN TIME: 0 days 3 hours 29 minutes 29 seconds 168 msec
