                         Program Version 4.2.1 -  RELEASE  -
|  1> %pal
|  2>  nprocs 32
|  3> end
|  4> !RI-MP2 aug-cc-pVTZ aug-cc-pVTZ/C TightSCF
|  5> %maxcore 4500
|  6> *xyzfile 0 1  04_35R1.xyz
|  7>
|  8>
|  9>                          ****END OF INPUT****

CARTESIAN COORDINATES (ANGSTROEM)
---------------------------------
  C      2.289333   -0.251086    0.115024
  C      1.409196   -1.314215   -0.050151
  C      0.051016   -1.078743   -0.196125
  C     -0.446735    0.222675   -0.174030
  C      0.439309    1.279892   -0.001085
  C      1.801893    1.046995    0.138610
  H      3.350695   -0.436124    0.228269
  H      1.784911   -2.330360   -0.068267
  H     -0.638208   -1.905342   -0.322231
  H      0.060761    2.296151    0.027174
  H      2.480860    1.880481    0.273250
  C     -1.922875    0.475394   -0.353968
  O     -2.739135   -0.410011    0.396787
  H     -2.211134    0.313419   -1.394724
  H     -2.149984    1.519779   -0.110872
  H     -2.491636   -0.343376    1.323458

 Total Charge           Charge          ....    0
 Multiplicity           Mult            ....    1
 Number of Electrons    NEL             ....   58
 Basis Dimension        Dim             ....  552

ORBITAL ENERGIES
----------------

  NO   OCC          E(Eh)            E(eV)
   0   2.0000     -20.561263      -559.5004
   1   2.0000     -11.283441      -307.0380
   2   2.0000     -11.240686      -305.8746
   3   2.0000     -11.237763      -305.7951
   4   2.0000     -11.236909      -305.7718
   5   2.0000     -11.236220      -305.7531
   6   2.0000     -11.235035      -305.7208
   7   2.0000     -11.232870      -305.6619
   8   2.0000      -1.365105       -37.1464
   9   2.0000      -1.159944       -31.5637
  10   2.0000      -1.042163       -28.3587
  11   2.0000      -1.019328       -27.7373
  12   2.0000      -0.923425       -25.1277
  13   2.0000      -0.832312       -22.6484
  14   2.0000      -0.807244       -21.9662
  15   2.0000      -0.714002       -19.4290
  16   2.0000      -0.684139       -18.6164
  17   2.0000      -0.648146       -17.6370
  18   2.0000      -0.622151       -16.9296
  19   2.0000      -0.610710       -16.6183
  20   2.0000      -0.596633       -16.2352
  21   2.0000      -0.587419       -15.9845
  22   2.0000      -0.534144       -14.5348
  23   2.0000      -0.507997       -13.8233
  24   2.0000      -0.497904       -13.5487
  25   2.0000      -0.482379       -13.1262
  26   2.0000      -0.453621       -12.3437
  27   2.0000      -0.341537        -9.2937
  28   2.0000      -0.334859        -9.1120
  29   0.0000       0.027860         0.7581
  30   0.0000       0.032912         0.8956
  31   0.0000       0.035619         0.9692
  32   0.0000       0.044080         1.1995
  33   0.0000       0.047032         1.2798

MULLIKEN ATOMIC CHARGES
-----------------------
   0 C :   -0.285767
   1 C :   -0.641251
   2 C :   -0.897588
   3 C :    1.411229
   4 C :   -1.011643
   5 C :   -0.465934
   6 H :    0.419776
   7 H :    0.405049
   8 H :    0.370982
   9 H :    0.117194
  10 H :    0.510549
  11 C :   -0.115166
  12 O :   -0.620600
  13 H :    0.379263
  14 H :    0.253572
  15 H :    0.170335
Sum of atomic charges:   -0.0000000

LOEWDIN ATOMIC CHARGES
----------------------
   0 C :    0.190963
   1 C :    0.196629
   2 C :    0.209772
   3 C :   -0.120789
   4 C :    0.206281
   5 C :    0.194879
   6 H :   -0.184548
   7 H :   -0.182599
   8 H :   -0.175146
   9 H :   -0.179604
  10 H :   -0.183022
  11 C :    0.029962
  12 O :    0.810183
  13 H :   -0.157710
  14 H :   -0.166068
  15 H :   -0.489184

  Mayer bond orders larger than 0.100000
B(  0-C ,  1-C ) :   1.0777 B(  0-C ,  5-C ) :   1.0867 B(  0-C ,  6-H ) :   0.8733
B(  1-C ,  2-C ) :   1.1818 B(  1-C ,  6-H ) :  -0.1474 B(  1-C ,  7-H ) :   0.9350
B(  2-C ,  3-C ) :   0.5655 B(  2-C ,  4-C ) :   0.1547 B(  2-C ,  8-H ) :   0.9519
B(  2-C , 11-C ) :   0.1251 B(  3-C ,  4-C ) :   0.3662 B(  3-C ,  8-H ) :  -0.1053
B(  3-C ,  9-H ) :  -0.1472 B(  3-C , 11-C ) :   0.5863 B(  4-C ,  5-C ) :   1.1292
B(  4-C ,  6-H ) :   0.1658 B(  4-C ,  8-H ) :   0.1474 B(  4-C ,  9-H ) :   1.4553
B(  4-C , 10-H ) :  -0.1533 B(  5-C ,  6-H ) :  -0.1391 B(  5-C , 10-H ) :   0.7456
B( 11-C , 12-O ) :   0.8064 B( 11-C , 13-H ) :   0.8862 B( 11-C , 14-H ) :   1.0263
B( 12-O , 15-H ) :   1.0105

MP2 TOTAL ENERGY:     -346.095891454 Eh
FINAL SINGLE POINT ENERGY      -346.095891453764

DIPOLE MOMENT
-------------
                                X             Y             Z
Electronic contribution:      0.33687      -0.64924       0.25400
Nuclear contribution   :      0.14413       0.99537      -0.03796
                        -----------------------------------------
Total Dipole Moment    :      0.48100       0.34613       0.21603
                        -----------------------------------------
Magnitude (a.u.)       :      0.63074
Magnitude (Debye)      :      1.60321

Rotational constants in cm-1:     0.161672     0.049398     0.039474
Rotational constants in MHz :  4846.798173  1480.913379  1183.403991

                             ****ORCA TERMINATED NORMALLY****
TOTAL RUN TIME: 0 days 0 hours 2 minutes 39 seconds 840 msec
