                         Program Version 4.2.1 -  RELEASE  -
|  1> %pal
|  2>  nprocs 32
|  3> end
|  4> !RI-MP2 aug-cc-pVTZ aug-cc-pVTZ/C TightSCF
|  5> %maxcore 4500
|  6> *xyzfile 0 1  09_5R1.xyz
|  7>
|  8>
|  9>                          ****END OF INPUT****

CARTESIAN COORDINATES (ANGSTROEM)
---------------------------------
  C      0.985703   -0.397969    0.746634
  C     -0.000002   -0.000001    0.000002
  C     -0.985702    0.397970   -0.746635
  H     -1.530301    1.306763   -0.517404
  H     -1.290826   -0.167755   -1.619501
  H      2.003135   -0.082540    0.545693
  H      0.817999   -1.056463    1.591206

 Total Charge           Charge          ....    0
 Multiplicity           Mult            ....    1
 Number of Electrons    NEL             ....   22
 Basis Dimension        Dim             ....  230

ORBITAL ENERGIES
----------------

  NO   OCC          E(Eh)            E(eV)
   0   2.0000     -11.260659      -306.4181
   1   2.0000     -11.235862      -305.7434
   2   2.0000     -11.235749      -305.7403
   3   2.0000      -1.077236       -29.3131
   4   2.0000      -0.960561       -26.1382
   5   2.0000      -0.715370       -19.4662
   6   2.0000      -0.630292       -17.1511
   7   2.0000      -0.608919       -16.5695
   8   2.0000      -0.608919       -16.5695
   9   2.0000      -0.379682       -10.3317
  10   2.0000      -0.379682       -10.3317
  11   0.0000       0.030615         0.8331
  12   0.0000       0.038951         1.0599
  13   0.0000       0.045585         1.2404
  14   0.0000       0.045585         1.2404
  15   0.0000       0.079970         2.1761

MULLIKEN ATOMIC CHARGES
-----------------------
   0 C :   -1.131331
   1 C :    0.744362
   2 C :   -1.131330
   3 H :    0.379575
   4 H :    0.379575
   5 H :    0.379574
   6 H :    0.379576
Sum of atomic charges:    0.0000000

LOEWDIN ATOMIC CHARGES
----------------------
   0 C :    0.455931
   1 C :    0.072461
   2 C :    0.455932
   3 H :   -0.246081
   4 H :   -0.246081
   5 H :   -0.246081
   6 H :   -0.246081

  Mayer bond orders larger than 0.100000
B(  0-C ,  1-C ) :   1.5341 B(  0-C ,  2-C ) :  -0.2950 B(  0-C ,  5-H ) :   0.9084
B(  0-C ,  6-H ) :   0.9084 B(  1-C ,  2-C ) :   1.5341 B(  2-C ,  3-H ) :   0.9084
B(  2-C ,  4-H ) :   0.9084

MP2 TOTAL ENERGY:     -116.390378783 Eh
FINAL SINGLE POINT ENERGY      -116.390378782951

DIPOLE MOMENT
-------------
                                X             Y             Z
Electronic contribution:     -0.00001      -0.00000       0.00001
Nuclear contribution   :      0.00001       0.00000      -0.00001
                        -----------------------------------------
Total Dipole Moment    :      0.00000       0.00000      -0.00000
                        -----------------------------------------
Magnitude (a.u.)       :      0.00000
Magnitude (Debye)      :      0.00000

Rotational constants in cm-1:     4.852881     0.299927     0.299927
Rotational constants in MHz : 145485.718297  8991.575521  8991.575406

                             ****ORCA TERMINATED NORMALLY****
TOTAL RUN TIME: 0 days 0 hours 0 minutes 14 seconds 661 msec
