                         Program Version 4.2.1 -  RELEASE  -
|  1> %pal
|  2>  nprocs 32
|  3> end
|  4> !RI-MP2 aug-cc-pVTZ aug-cc-pVTZ/C TightSCF
|  5> %maxcore 4500
|  6> *xyzfile 0 2  04_73TS.xyz
|  7>
|  8>
|  9>                          ****END OF INPUT****

CARTESIAN COORDINATES (ANGSTROEM)
---------------------------------
  N      0.456163    1.462852    1.011592
  C      1.826428    1.205117    1.356838
  H     -0.266996    0.868230    1.406487
  C      2.409026    0.057524    0.530642
  H      2.416966    2.109606    1.205576
  H      1.884358    0.933250    2.412490
  O      1.710662   -0.775317   -0.013701
  N      3.760150    0.015992    0.487983
  H      4.322833    0.774281    0.846678
  C      4.442694   -1.002612   -0.263978
  C      5.921594   -0.737771   -0.234144
  H      4.250974   -1.999659    0.141642
  H      4.106887   -1.024771   -1.305101
  O      6.442107    0.197407    0.311665
  O      6.604520   -1.677736   -0.898968
  H      7.544215   -1.450835   -0.852933
  C      0.181872    2.017514   -0.196657
  C     -1.273594    1.881811   -0.634202
  O      1.021459    2.554413   -0.893864
  N     -1.575971    0.516034   -1.021610
  H     -1.429572    2.535320   -1.488897
  H     -1.949149    2.169169    0.172528
  H     -1.453418    0.250045   -1.984660
  C     -1.864610   -0.442885   -0.117160
  C     -2.219479   -1.771460   -0.627917
  O     -1.914026   -0.186161    1.095268
  N     -5.190048   -0.275817   -1.778509
  H     -2.191954   -1.934869   -1.699664
  H     -1.853531   -2.587526   -0.015116
  C     -5.198652   -0.307811   -0.516142
  C     -4.750211   -1.532061    0.225237
  O     -5.570156    0.722067    0.269299
  N     -4.612667   -1.329945    1.629595
  H     -3.586891   -1.775017   -0.300338
  H     -5.339255   -2.406169   -0.042127
  H     -3.705753   -0.923267    1.862962
  H     -4.764825   -2.167147    2.173246
  H     -5.518355    0.404524    1.189834
  H     -5.536874    0.619441   -2.118662

 Total Charge           Charge          ....    0
 Multiplicity           Mult            ....    2
 Number of Electrons    NEL             ....  161
 Basis Dimension        Dim             .... 1380

ORBITAL ENERGIES
----------------
                 SPIN UP ORBITALS
  NO   OCC          E(Eh)            E(eV)
   0   1.0000     -20.633166      -561.4570
   1   1.0000     -20.590085      -560.2847
   2   1.0000     -20.571431      -559.7771
   3   1.0000     -20.534096      -558.7612
   4   1.0000     -20.527900      -558.5926
   5   1.0000     -20.523168      -558.4638
   6   1.0000     -15.603868      -424.6028
   7   1.0000     -15.594910      -424.3591
   8   1.0000     -15.575852      -423.8405
   9   1.0000     -15.567354      -423.6092
  10   1.0000     -15.530284      -422.6005
  11   1.0000     -11.407100      -310.4030
  12   1.0000     -11.366933      -309.3100
  13   1.0000     -11.354738      -308.9781
  14   1.0000     -11.346202      -308.7459
  15   1.0000     -11.333829      -308.4092
  16   1.0000     -11.296321      -307.3885
  17   1.0000     -11.289750      -307.2097
  18   1.0000     -11.281553      -306.9867
  19   1.0000     -11.280831      -306.9670
  20   1.0000     -11.259455      -306.3853
  21   1.0000      -1.491917       -40.5971
  22   1.0000      -1.421425       -38.6789
  23   1.0000      -1.402054       -38.1518
  24   1.0000      -1.397289       -38.0222
  25   1.0000      -1.388267       -37.7767
  26   1.0000      -1.384263       -37.6677
  27   1.0000      -1.253174       -34.1006
  28   1.0000      -1.249414       -33.9983
  29   1.0000      -1.232817       -33.5467
  30   1.0000      -1.219391       -33.1813
  31   1.0000      -1.192158       -32.4403
  32   1.0000      -1.056797       -28.7569
  33   1.0000      -1.039935       -28.2981
  34   1.0000      -0.995698       -27.0943
  35   1.0000      -0.962986       -26.2042
  36   1.0000      -0.946298       -25.7501
  37   1.0000      -0.851425       -23.1685
  38   1.0000      -0.816490       -22.2178
  39   1.0000      -0.807438       -21.9715
  40   1.0000      -0.791097       -21.5268
  41   1.0000      -0.784387       -21.3442
  42   1.0000      -0.740172       -20.1411
  43   1.0000      -0.738309       -20.0904
  44   1.0000      -0.728848       -19.8330
  45   1.0000      -0.725584       -19.7441
  46   1.0000      -0.707191       -19.2436
  47   1.0000      -0.703701       -19.1487
  48   1.0000      -0.693759       -18.8781
  49   1.0000      -0.687908       -18.7189
  50   1.0000      -0.683442       -18.5974
  51   1.0000      -0.672830       -18.3086
  52   1.0000      -0.668993       -18.2042
  53   1.0000      -0.639565       -17.4034
  54   1.0000      -0.631837       -17.1932
  55   1.0000      -0.621311       -16.9067
  56   1.0000      -0.614980       -16.7345
  57   1.0000      -0.609641       -16.5892
  58   1.0000      -0.602393       -16.3920
  59   1.0000      -0.596367       -16.2280
  60   1.0000      -0.593401       -16.1473
  61   1.0000      -0.588710       -16.0196
  62   1.0000      -0.574484       -15.6325
  63   1.0000      -0.571826       -15.5602
  64   1.0000      -0.558110       -15.1869
  65   1.0000      -0.550939       -14.9918
  66   1.0000      -0.536580       -14.6011
  67   1.0000      -0.535572       -14.5736
  68   1.0000      -0.517563       -14.0836
  69   1.0000      -0.505834       -13.7644
  70   1.0000      -0.480305       -13.0698
  71   1.0000      -0.469556       -12.7773
  72   1.0000      -0.456039       -12.4095
  73   1.0000      -0.448311       -12.1992
  74   1.0000      -0.443031       -12.0555
  75   1.0000      -0.440304       -11.9813
  76   1.0000      -0.416309       -11.3283
  77   1.0000      -0.409691       -11.1482
  78   1.0000      -0.404683       -11.0120
  79   1.0000      -0.393918       -10.7191
  80   1.0000      -0.330585        -8.9957
  81   0.0000       0.022363         0.6085
  82   0.0000       0.025726         0.7000
  83   0.0000       0.031226         0.8497
  84   0.0000       0.034622         0.9421
  85   0.0000       0.035995         0.9795

                 SPIN DOWN ORBITALS
  NO   OCC          E(Eh)            E(eV)
   0   1.0000     -20.633166      -561.4570
   1   1.0000     -20.590512      -560.2963
   2   1.0000     -20.571431      -559.7771
   3   1.0000     -20.531823      -558.6993
   4   1.0000     -20.527899      -558.5925
   5   1.0000     -20.523200      -558.4647
   6   1.0000     -15.602590      -424.5681
   7   1.0000     -15.594911      -424.3591
   8   1.0000     -15.575835      -423.8400
   9   1.0000     -15.566592      -423.5885
  10   1.0000     -15.525598      -422.4730
  11   1.0000     -11.407100      -310.4030
  12   1.0000     -11.368962      -309.3652
  13   1.0000     -11.354737      -308.9781
  14   1.0000     -11.346125      -308.7438
  15   1.0000     -11.337255      -308.5024
  16   1.0000     -11.296321      -307.3885
  17   1.0000     -11.281664      -306.9897
  18   1.0000     -11.280835      -306.9671
  19   1.0000     -11.273586      -306.7699
  20   1.0000     -11.240919      -305.8809
  21   1.0000      -1.491917       -40.5971
  22   1.0000      -1.422351       -38.7041
  23   1.0000      -1.400312       -38.1044
  24   1.0000      -1.395229       -37.9661
  25   1.0000      -1.388175       -37.7742
  26   1.0000      -1.383941       -37.6590
  27   1.0000      -1.249896       -34.0114
  28   1.0000      -1.249391       -33.9976
  29   1.0000      -1.232384       -33.5349
  30   1.0000      -1.207632       -32.8613
  31   1.0000      -1.184835       -32.2410
  32   1.0000      -1.047728       -28.5101
  33   1.0000      -1.026435       -27.9307
  34   1.0000      -0.978920       -26.6378
  35   1.0000      -0.945076       -25.7168
  36   1.0000      -0.924224       -25.1494
  37   1.0000      -0.851054       -23.1584
  38   1.0000      -0.814237       -22.1565
  39   1.0000      -0.806230       -21.9386
  40   1.0000      -0.786281       -21.3958
  41   1.0000      -0.783926       -21.3317
  42   1.0000      -0.739450       -20.1215
  43   1.0000      -0.733783       -19.9673
  44   1.0000      -0.728019       -19.8104
  45   1.0000      -0.721084       -19.6217
  46   1.0000      -0.702312       -19.1109
  47   1.0000      -0.697653       -18.9841
  48   1.0000      -0.687909       -18.7189
  49   1.0000      -0.682891       -18.5824
  50   1.0000      -0.671915       -18.2837
  51   1.0000      -0.668326       -18.1861
  52   1.0000      -0.663117       -18.0443
  53   1.0000      -0.639245       -17.3947
  54   1.0000      -0.629699       -17.1350
  55   1.0000      -0.613117       -16.6838
  56   1.0000      -0.611984       -16.6529
  57   1.0000      -0.605928       -16.4882
  58   1.0000      -0.599394       -16.3103
  59   1.0000      -0.594849       -16.1867
  60   1.0000      -0.589175       -16.0323
  61   1.0000      -0.585279       -15.9263
  62   1.0000      -0.572238       -15.5714
  63   1.0000      -0.562104       -15.2956
  64   1.0000      -0.556105       -15.1324
  65   1.0000      -0.536040       -14.5864
  66   1.0000      -0.532812       -14.4986
  67   1.0000      -0.523222       -14.2376
  68   1.0000      -0.516988       -14.0680
  69   1.0000      -0.505827       -13.7643
  70   1.0000      -0.480295       -13.0695
  71   1.0000      -0.455778       -12.4024
  72   1.0000      -0.445612       -12.1257
  73   1.0000      -0.442797       -12.0491
  74   1.0000      -0.439877       -11.9697
  75   1.0000      -0.416479       -11.3330
  76   1.0000      -0.409215       -11.1353
  77   1.0000      -0.399683       -10.8759
  78   1.0000      -0.391357       -10.6494
  79   1.0000      -0.386139       -10.5074
  80   0.0000       0.022497         0.6122
  81   0.0000       0.025788         0.7017
  82   0.0000       0.031241         0.8501
  83   0.0000       0.034658         0.9431
  84   0.0000       0.035831         0.9750

MULLIKEN ATOMIC CHARGES AND SPIN POPULATIONS
--------------------------------------------
   0 N :   -0.238214    0.001801
   1 C :   -0.005051    0.000246
   2 H :    0.215601   -0.000638
   3 C :    0.219014   -0.000668
   4 H :    0.341541    0.000056
   5 H :    0.421262    0.000013
   6 O :   -0.921567    0.001488
   7 N :   -0.173934    0.000081
   8 H :    0.099788   -0.000002
   9 C :    0.158557    0.000145
  10 C :    0.454159   -0.000028
  11 H :    0.328249    0.000051
  12 H :    0.321461    0.000021
  13 O :   -0.771738    0.000004
  14 O :   -0.458136    0.000001
  15 H :    0.270761   -0.000000
  16 C :    0.384639    0.002301
  17 C :   -0.080604   -0.010221
  18 O :   -1.063381   -0.000632
  19 N :   -0.211876    0.027637
  20 H :    0.347838    0.000908
  21 H :    0.315579    0.000583
  22 H :   -0.007906   -0.001044
  23 C :    1.570030   -0.065172
  24 C :   -0.957378    0.901100
  25 O :   -1.237649    0.045470
  26 N :   -0.921347    0.152638
  27 H :    0.277075   -0.043171
  28 H :    0.312397   -0.027755
  29 C :    0.658130   -0.171587
  30 C :    0.250870    0.734183
  31 O :   -0.637394   -0.000490
  32 N :   -0.739577   -0.002642
  33 H :    0.251442   -0.541407
  34 H :    0.493787   -0.014148
  35 H :    0.337306    0.019877
  36 H :    0.052582   -0.002902
  37 H :    0.196071    0.002844
  38 H :    0.147614   -0.008941
Sum of atomic charges         :    0.0000000

LOEWDIN ATOMIC CHARGES AND SPIN POPULATIONS
-------------------------------------------
   0 N :    0.547671    0.000330
   1 C :    0.198841   -0.000008
   2 H :   -0.413316   -0.000103
   3 C :   -0.653016    0.000017
   4 H :   -0.159790    0.000009
   5 H :   -0.135378    0.000000
   6 O :    0.466172    0.000174
   7 N :    0.544312   -0.000004
   8 H :   -0.318426   -0.000000
   9 C :    0.174053    0.000000
  10 C :   -0.778117   -0.000000
  11 H :   -0.140026    0.000002
  12 H :   -0.139854    0.000001
  13 O :    0.477916    0.000000
  14 O :    0.845749   -0.000000
  15 H :   -0.459317   -0.000000
  16 C :   -0.655824    0.000576
  17 C :    0.228282    0.001843
  18 O :    0.460534   -0.000395
  19 N :    0.575808    0.019489
  20 H :   -0.149524    0.000280
  21 H :   -0.150351    0.000151
  22 H :   -0.262640    0.001483
  23 C :   -0.654076    0.046374
  24 C :    0.578506    0.315707
  25 O :    0.542330    0.034996
  26 N :    0.642549    0.076684
  27 H :   -0.157649    0.050651
  28 H :   -0.155491    0.046399
  29 C :   -0.577878   -0.006887
  30 C :    0.135386    0.234588
  31 O :    0.857512   -0.013201
  32 N :    0.860069    0.059095
  33 H :   -0.373401    0.079119
  34 H :   -0.127030    0.030282
  35 H :   -0.392906    0.005313
  36 H :   -0.288211    0.003431
  37 H :   -0.557715    0.001470
  38 H :   -0.435754    0.012133

  Mayer bond orders larger than 0.100000
B(  0-N ,  1-C ) :   0.9629 B(  0-N ,  2-H ) :   0.8340 B(  0-N , 16-C ) :   0.9313
B(  1-C ,  3-C ) :   0.4514 B(  1-C ,  4-H ) :   0.9096 B(  1-C ,  5-H ) :   0.8370
B(  2-H , 25-O ) :   0.1073 B(  3-C ,  4-H ) :   0.1004 B(  3-C ,  6-O ) :   1.4409
B(  3-C ,  7-N ) :   0.9334 B(  3-C ,  9-C ) :  -0.1990 B(  6-O ,  7-N ) :  -0.2651
B(  7-N ,  8-H ) :   1.0244 B(  7-N ,  9-C ) :   0.7778 B(  9-C , 10-C ) :   0.5400
B(  9-C , 11-H ) :   0.9081 B(  9-C , 12-H ) :   0.9040 B( 10-C , 13-O ) :   1.3540
B( 10-C , 14-O ) :   0.9853 B( 14-O , 15-H ) :   0.9570 B( 16-C , 17-C ) :   0.4930
B( 16-C , 18-O ) :   1.0378 B( 16-C , 19-N ) :   0.2258 B( 17-C , 19-N ) :   0.8678
B( 17-C , 20-H ) :   0.9212 B( 17-C , 21-H ) :   1.0026 B( 19-N , 22-H ) :   1.0793
B( 19-N , 23-C ) :   1.0453 B( 23-C , 24-C ) :   0.5333 B( 23-C , 25-O ) :   0.5627
B( 24-C , 27-H ) :   1.0306 B( 24-C , 28-H ) :   1.0317 B( 24-C , 30-C ) :   0.1155
B( 24-C , 33-H ) :   0.2401 B( 26-N , 29-C ) :   1.1118 B( 26-N , 38-H ) :   0.9615
B( 29-C , 30-C ) :   0.7167 B( 29-C , 31-O ) :   0.6226 B( 29-C , 32-N ) :   0.2260
B( 29-C , 33-H ) :   0.2882 B( 29-C , 34-H ) :  -0.1696 B( 29-C , 37-H ) :   0.1225
B( 30-C , 32-N ) :   0.5411 B( 30-C , 33-H ) :   0.3460 B( 30-C , 34-H ) :   0.8830
B( 31-O , 37-H ) :   0.9042 B( 32-N , 34-H ) :  -0.1004 B( 32-N , 35-H ) :   0.7022
B( 32-N , 36-H ) :   1.0812

MP2 TOTAL ENERGY:    -1115.132379690 Eh
FINAL SINGLE POINT ENERGY     -1115.132379689920

DIPOLE MOMENT
-------------
                                X             Y             Z
Electronic contribution:     13.42612       4.19016      -0.85141
Nuclear contribution   :    -12.90000      -5.55480       1.59374
                        -----------------------------------------
Total Dipole Moment    :      0.52612      -1.36465       0.74233
                        -----------------------------------------
Magnitude (a.u.)       :      1.64016
Magnitude (Debye)      :      4.16895

Rotational constants in cm-1:     0.023606     0.003447     0.003287
Rotational constants in MHz :   707.688350   103.327334    98.543890

                             ****ORCA TERMINATED NORMALLY****
TOTAL RUN TIME: 0 days 1 hours 23 minutes 13 seconds 250 msec
