                         Program Version 4.2.1 -  RELEASE  -
|  1> %pal
|  2>  nprocs 32
|  3> end
|  4> !RI-MP2 aug-cc-pVTZ aug-cc-pVTZ/C TightSCF
|  5> %maxcore 4500
|  6> *xyzfile 0 1  10_73P.xyz
|  7>
|  8>
|  9>                          ****END OF INPUT****

CARTESIAN COORDINATES (ANGSTROEM)
---------------------------------
  C     -3.359688   -1.579835   -0.509409
  C     -4.744073   -1.553826    0.133322
  C     -5.226808   -0.138362    0.412397
  C     -4.208077    0.644910    1.228615
  C     -2.803620    0.642538    0.615928
  C     -2.328458   -0.819619    0.348173
  H     -5.458446   -2.063323   -0.516699
  H     -4.711577   -2.099902    1.080597
  H     -3.023642   -2.617236   -0.585479
  H     -4.553810    1.675932    1.362110
  H     -4.165671    0.205515    2.232180
  H     -6.178426   -0.177948    0.953722
  O     -5.453012    0.478998   -0.865831
  H     -5.713815    1.395565   -0.740613
  O     -3.395621   -1.092778   -1.842447
  H     -4.055251   -0.388154   -1.886610
  C     -0.991817   -0.789864   -0.322774
  C     -1.847465    1.377961    1.510645
  H     -2.006507    1.249262    2.579588
  C      0.211860   -0.839453    0.244308
  C      0.452824   -1.127070    1.700353
  H      1.123081   -1.980909    1.831214
  H     -0.469036   -1.351708    2.231756
  H      0.915622   -0.275939    2.207817
  C      1.407901   -0.424881   -0.583125
  C      1.724905    1.083610   -0.268959
  C      2.665301   -1.317291   -0.429905
  C      3.721319   -0.583396    0.394987
  H      2.391633   -2.212271    0.133841
  H      3.286792   -0.300616    1.360661
  C     -0.800968    2.099647    1.119281
  H     -0.157505    2.522208    1.888176
  C      3.187690   -1.762014   -1.795796
  H      2.391328   -2.260740   -2.351234
  H      3.529085   -0.910831   -2.388904
  H      4.018468   -2.463023   -1.705984
  C      5.004238   -1.347495    0.655955
  H      4.734457   -2.329026    1.058495
  H      5.512549   -1.518942   -0.294993
  C      5.935544   -0.619233    1.617613
  H      5.459621   -0.470531    2.590837
  H      6.853275   -1.187296    1.779424
  H      6.207800    0.359977    1.222001
  O      4.100361    0.628082   -0.292387
  C      3.125080    1.450656   -0.720906
  O      3.400263    2.399292   -1.399801
  C      0.700643    1.992702   -0.874633
  C     -0.422702    2.384244   -0.281933
  H     -2.274196   -1.334662    1.313045
  H     -2.836665    1.143498   -0.355757
  H      1.102800   -0.455099   -1.630601
  H      1.724509    1.199405    0.819710
  H      0.889979    2.289243   -1.900177
  H     -1.125634    2.973104   -0.865902
  H     -1.048512   -0.567889   -1.383303

 Total Charge           Charge          ....    0
 Multiplicity           Mult            ....    1
 Number of Electrons    NEL             ....  188
 Basis Dimension        Dim             .... 1840

ORBITAL ENERGIES
----------------

  NO   OCC          E(Eh)            E(eV)
   0   2.0000     -20.590583      -560.2982
   1   2.0000     -20.578423      -559.9673
   2   2.0000     -20.538607      -558.8839
   3   2.0000     -20.529939      -558.6481
   4   2.0000     -11.367910      -309.3366
   5   2.0000     -11.296278      -307.3873
   6   2.0000     -11.295335      -307.3617
   7   2.0000     -11.278129      -306.8935
   8   2.0000     -11.253591      -306.2258
   9   2.0000     -11.245927      -306.0172
  10   2.0000     -11.240100      -305.8587
  11   2.0000     -11.239782      -305.8500
  12   2.0000     -11.237514      -305.7883
  13   2.0000     -11.234212      -305.6984
  14   2.0000     -11.234052      -305.6941
  15   2.0000     -11.231973      -305.6375
  16   2.0000     -11.230802      -305.6057
  17   2.0000     -11.230464      -305.5965
  18   2.0000     -11.229584      -305.5725
  19   2.0000     -11.229321      -305.5654
  20   2.0000     -11.228659      -305.5474
  21   2.0000     -11.226390      -305.4856
  22   2.0000     -11.218746      -305.2776
  23   2.0000     -11.215506      -305.1894
  24   2.0000     -11.213713      -305.1406
  25   2.0000      -1.452178       -39.5158
  26   2.0000      -1.385601       -37.7041
  27   2.0000      -1.356000       -36.8986
  28   2.0000      -1.348675       -36.6993
  29   2.0000      -1.154316       -31.4105
  30   2.0000      -1.131337       -30.7852
  31   2.0000      -1.099650       -29.9230
  32   2.0000      -1.085101       -29.5271
  33   2.0000      -1.066354       -29.0170
  34   2.0000      -1.040163       -28.3043
  35   2.0000      -1.012757       -27.5585
  36   2.0000      -1.009147       -27.4603
  37   2.0000      -0.974040       -26.5050
  38   2.0000      -0.943154       -25.6645
  39   2.0000      -0.937486       -25.5103
  40   2.0000      -0.896325       -24.3903
  41   2.0000      -0.869801       -23.6685
  42   2.0000      -0.852613       -23.2008
  43   2.0000      -0.827120       -22.5071
  44   2.0000      -0.820137       -22.3171
  45   2.0000      -0.799883       -21.7659
  46   2.0000      -0.770923       -20.9779
  47   2.0000      -0.738837       -20.1048
  48   2.0000      -0.733838       -19.9688
  49   2.0000      -0.723184       -19.6788
  50   2.0000      -0.710696       -19.3390
  51   2.0000      -0.702447       -19.1146
  52   2.0000      -0.680641       -18.5212
  53   2.0000      -0.672920       -18.3111
  54   2.0000      -0.656987       -17.8775
  55   2.0000      -0.656207       -17.8563
  56   2.0000      -0.644337       -17.5333
  57   2.0000      -0.633866       -17.2484
  58   2.0000      -0.625241       -17.0137
  59   2.0000      -0.617305       -16.7977
  60   2.0000      -0.611793       -16.6477
  61   2.0000      -0.604486       -16.4489
  62   2.0000      -0.601096       -16.3566
  63   2.0000      -0.592215       -16.1150
  64   2.0000      -0.587008       -15.9733
  65   2.0000      -0.581642       -15.8273
  66   2.0000      -0.574347       -15.6288
  67   2.0000      -0.571450       -15.5499
  68   2.0000      -0.567021       -15.4294
  69   2.0000      -0.550304       -14.9745
  70   2.0000      -0.545346       -14.8396
  71   2.0000      -0.539727       -14.6867
  72   2.0000      -0.536404       -14.5963
  73   2.0000      -0.531632       -14.4664
  74   2.0000      -0.528570       -14.3831
  75   2.0000      -0.517017       -14.0688
  76   2.0000      -0.512785       -13.9536
  77   2.0000      -0.505161       -13.7461
  78   2.0000      -0.498969       -13.5776
  79   2.0000      -0.497041       -13.5252
  80   2.0000      -0.496444       -13.5089
  81   2.0000      -0.489416       -13.3177
  82   2.0000      -0.483702       -13.1622
  83   2.0000      -0.476854       -12.9758
  84   2.0000      -0.466306       -12.6888
  85   2.0000      -0.460847       -12.5403
  86   2.0000      -0.459194       -12.4953
  87   2.0000      -0.439102       -11.9486
  88   2.0000      -0.433037       -11.7835
  89   2.0000      -0.428745       -11.6667
  90   2.0000      -0.413397       -11.2491
  91   2.0000      -0.381761       -10.3883
  92   2.0000      -0.336730        -9.1629
  93   2.0000      -0.333634        -9.0786
  94   0.0000       0.016693         0.4542
  95   0.0000       0.022007         0.5988
  96   0.0000       0.027538         0.7494
  97   0.0000       0.028595         0.7781
  98   0.0000       0.034259         0.9322

MULLIKEN ATOMIC CHARGES
-----------------------
   0 C :    0.236064
   1 C :   -0.905962
   2 C :    0.256833
   3 C :   -1.147055
   4 C :    1.341132
   5 C :    0.830918
   6 H :    0.293259
   7 H :    0.121401
   8 H :    0.490891
   9 H :    0.381860
  10 H :    0.133955
  11 H :    0.381803
  12 O :   -0.707852
  13 H :    0.075478
  14 O :   -1.063574
  15 H :    0.278719
  16 C :   -1.172255
  17 C :   -1.048043
  18 H :   -0.164957
  19 C :    1.438217
  20 C :   -1.219882
  21 H :    0.067229
  22 H :    0.370638
  23 H :    0.120431
  24 C :    0.056983
  25 C :    1.306290
  26 C :    0.053304
  27 C :    1.344933
  28 H :    0.213108
  29 H :    0.397008
  30 C :   -0.138903
  31 H :    0.648432
  32 C :   -1.253668
  33 H :    0.258900
  34 H :    0.268933
  35 H :    0.202229
  36 C :   -0.916540
  37 H :    0.245769
  38 H :    0.224424
  39 C :   -1.080841
  40 H :    0.236698
  41 H :    0.303258
  42 H :    0.306468
  43 O :   -0.735843
  44 C :    0.294471
  45 O :   -1.300919
  46 C :   -1.271146
  47 C :    0.025480
  48 H :    0.453425
  49 H :    0.165211
  50 H :   -0.074699
  51 H :    0.168586
  52 H :   -0.036303
  53 H :    0.673416
  54 H :   -0.427710
Sum of atomic charges:    0.0000000

LOEWDIN ATOMIC CHARGES
----------------------
   0 C :   -0.212728
   1 C :    0.320372
   2 C :   -0.204372
   3 C :    0.311630
   4 C :    0.002055
   5 C :    0.025726
   6 H :   -0.132151
   7 H :   -0.132232
   8 H :   -0.129114
   9 H :   -0.129347
  10 H :   -0.132018
  11 H :   -0.123773
  12 O :    0.877358
  13 H :   -0.454460
  14 O :    0.870123
  15 H :   -0.609776
  16 C :    0.262402
  17 C :    0.231438
  18 H :   -0.163265
  19 C :   -0.044991
  20 C :    0.601792
  21 H :   -0.163504
  22 H :   -0.180393
  23 H :   -0.162947
  24 C :    0.045738
  25 C :   -0.001184
  26 C :    0.024137
  27 C :   -0.221623
  28 H :   -0.148216
  29 H :   -0.139641
  30 C :    0.210799
  31 H :   -0.173662
  32 C :    0.616037
  33 H :   -0.152076
  34 H :   -0.149584
  35 H :   -0.164439
  36 C :    0.277742
  37 H :   -0.132143
  38 H :   -0.150711
  39 C :    0.594462
  40 H :   -0.166525
  41 H :   -0.167926
  42 H :   -0.169742
  43 O :    0.630799
  44 C :   -0.773118
  45 O :    0.466949
  46 C :    0.230186
  47 C :    0.221523
  48 H :   -0.148711
  49 H :   -0.141067
  50 H :   -0.156666
  51 H :   -0.170182
  52 H :   -0.172657
  53 H :   -0.175298
  54 H :   -0.171026

  Mayer bond orders larger than 0.100000
B(  0-C ,  1-C ) :   1.0851 B(  0-C ,  2-C ) :   0.1295 B(  0-C ,  4-C ) :   0.3179
B(  0-C ,  5-C ) :   0.7801 B(  0-C ,  8-H ) :   0.8800 B(  0-C , 16-C ) :  -0.3837
B(  0-C , 19-C ) :   0.2265 B(  0-C , 48-H ) :  -0.1997 B(  1-C ,  2-C ) :   0.8550
B(  1-C ,  3-C ) :   0.1683 B(  1-C ,  5-C ) :  -0.1486 B(  1-C ,  6-H ) :   0.9328
B(  1-C ,  7-H ) :   1.2514 B(  1-C ,  8-H ) :  -0.1187 B(  1-C , 12-O ) :   0.1577
B(  1-C , 14-O ) :   0.2507 B(  2-C ,  3-C ) :   1.0486 B(  2-C ,  4-C ) :  -0.1124
B(  2-C , 11-H ) :   0.9373 B(  2-C , 12-O ) :   0.4939 B(  3-C ,  4-C ) :   0.1612
B(  3-C ,  5-C ) :   0.1982 B(  3-C ,  9-H ) :   0.8857 B(  3-C , 10-H ) :   1.3359
B(  3-C , 12-O ) :   0.1004 B(  3-C , 16-C ) :   0.1291 B(  3-C , 19-C ) :  -0.1239
B(  3-C , 49-H ) :  -0.1050 B(  4-C ,  5-C ) :   1.0170 B(  4-C , 10-H ) :  -0.1768
B(  4-C , 12-O ) :  -0.2595 B(  4-C , 14-O ) :   0.1471 B(  4-C , 16-C ) :  -0.3597
B(  4-C , 18-H ) :  -0.3178 B(  4-C , 25-C ) :  -0.1198 B(  4-C , 30-C ) :   0.5475
B(  4-C , 46-C ) :   0.1450 B(  4-C , 49-H ) :   0.9336 B(  5-C , 14-O ) :   0.2426
B(  5-C , 16-C ) :   1.0388 B(  5-C , 18-H ) :   0.3096 B(  5-C , 20-C ) :  -0.2453
B(  5-C , 25-C ) :   0.1135 B(  5-C , 30-C ) :  -0.1920 B(  5-C , 46-C ) :  -0.1652
B(  5-C , 47-C ) :   0.1655 B(  5-C , 48-H ) :   0.5280 B(  5-C , 49-H ) :  -0.1280
B(  8-H , 14-O ) :  -0.2090 B(  8-H , 16-C ) :  -0.1183 B( 12-O , 13-H ) :   1.0451
B( 14-O , 15-H ) :   0.8672 B( 14-O , 54-H ) :  -0.1455 B( 16-C , 17-C ) :   0.4888
B( 16-C , 18-H ) :  -0.2601 B( 16-C , 19-C ) :   1.4709 B( 16-C , 20-C ) :  -0.6458
B( 16-C , 24-C ) :   0.2485 B( 16-C , 25-C ) :   0.1069 B( 16-C , 28-H ) :   0.1188
B( 16-C , 46-C ) :   0.3219 B( 16-C , 48-H ) :   0.1770 B( 16-C , 50-H ) :  -0.1154
B( 16-C , 52-H ) :   0.1204 B( 16-C , 54-H ) :   2.5631 B( 17-C , 18-H ) :   1.6769
B( 17-C , 30-C ) :   1.4682 B( 17-C , 46-C ) :   0.1065 B( 17-C , 48-H ) :  -0.1807
B( 18-H , 19-C ) :   0.2288 B( 18-H , 30-C ) :  -0.2527 B( 18-H , 48-H ) :  -0.1052
B( 19-C , 20-C ) :   0.8597 B( 19-C , 21-H ) :  -0.3510 B( 19-C , 22-H ) :   0.1771
B( 19-C , 23-H ) :  -0.2191 B( 19-C , 24-C ) :   1.2195 B( 19-C , 26-C ) :   0.1868
B( 19-C , 27-C ) :  -0.1258 B( 19-C , 28-H ) :  -0.1234 B( 19-C , 44-C ) :   0.1824
B( 19-C , 46-C ) :  -0.1037 B( 19-C , 48-H ) :  -0.2026 B( 19-C , 50-H ) :  -0.1365
B( 19-C , 53-H ) :  -0.1155 B( 19-C , 54-H ) :  -0.9578 B( 20-C , 21-H ) :   1.3773
B( 20-C , 22-H ) :   0.7949 B( 20-C , 23-H ) :   1.3922 B( 20-C , 24-C ) :   0.1966
B( 20-C , 28-H ) :  -0.1057 B( 21-H , 23-H ) :   0.1466 B( 24-C , 25-C ) :   0.8082
B( 24-C , 26-C ) :   0.6848 B( 24-C , 30-C ) :   0.2210 B( 24-C , 32-C ) :  -0.2432
B( 24-C , 43-O ) :  -0.3976 B( 24-C , 44-C ) :   0.8724 B( 24-C , 45-O ) :   0.1028
B( 24-C , 46-C ) :   0.2766 B( 24-C , 50-H ) :   1.0640 B( 25-C , 43-O ) :   0.2445
B( 25-C , 44-C ) :  -1.0628 B( 25-C , 46-C ) :  -0.1957 B( 25-C , 47-C ) :   0.3896
B( 25-C , 48-H ) :  -0.1003 B( 25-C , 51-H ) :   1.2787 B( 25-C , 52-H ) :  -0.2464
B( 25-C , 54-H ) :  -0.2421 B( 26-C , 27-C ) :   1.1381 B( 26-C , 28-H ) :   1.0110
B( 26-C , 30-C ) :  -0.1092 B( 26-C , 32-C ) :   0.4499 B( 26-C , 34-H ) :  -0.1001
B( 26-C , 43-O ) :   0.4495 B( 26-C , 44-C ) :  -0.3180 B( 26-C , 54-H ) :  -0.1306
B( 27-C , 29-H ) :   0.9468 B( 27-C , 36-C ) :   0.4540 B( 27-C , 43-O ) :  -0.3784
B( 28-H , 54-H ) :  -0.1180 B( 30-C , 31-H ) :   0.5754 B( 30-C , 47-C ) :   0.6088
B( 30-C , 48-H ) :   0.1985 B( 31-H , 47-C ) :  -0.1375 B( 32-C , 33-H ) :   1.0692
B( 32-C , 34-H ) :   1.0390 B( 32-C , 35-H ) :   1.1575 B( 36-C , 37-H ) :   1.0507
B( 36-C , 38-H ) :   1.0939 B( 36-C , 39-C ) :   0.8157 B( 36-C , 43-O ) :   0.1793
B( 39-C , 40-H ) :   1.0191 B( 39-C , 41-H ) :   0.9784 B( 39-C , 42-H ) :   0.9623
B( 43-O , 44-C ) :   1.0750 B( 43-O , 45-O ) :  -0.1862 B( 44-C , 45-O ) :   0.4464
B( 44-C , 46-C ) :  -0.2646 B( 44-C , 47-C ) :   0.1184 B( 44-C , 51-H ) :  -0.3739
B( 45-O , 46-C ) :   0.1193 B( 45-O , 51-H ) :  -0.1285 B( 45-O , 52-H ) :   0.2179
B( 46-C , 47-C ) :   1.6777 B( 46-C , 52-H ) :   1.4420 B( 46-C , 53-H ) :  -0.1549
B( 46-C , 54-H ) :   0.2619 B( 47-C , 48-H ) :  -0.1170 B( 47-C , 52-H ) :  -0.2880
B( 47-C , 53-H ) :   0.5620 B( 50-H , 51-H ) :   0.1147

MP2 TOTAL ENERGY:    -1117.029036780 Eh
FINAL SINGLE POINT ENERGY     -1117.029036779538

DIPOLE MOMENT
-------------
                                X             Y             Z
Electronic contribution:     -3.92221      11.08914      -8.19093
Nuclear contribution   :      2.38572     -12.14161      10.15977
                        -----------------------------------------
Total Dipole Moment    :     -1.53648      -1.05247       1.96884
                        -----------------------------------------
Magnitude (a.u.)       :      2.71013
Magnitude (Debye)      :      6.88860

Rotational constants in cm-1:     0.016575     0.003841     0.003638
Rotational constants in MHz :   496.919091   115.155187   109.059235

                             ****ORCA TERMINATED NORMALLY****
TOTAL RUN TIME: 0 days 2 hours 25 minutes 19 seconds 20 msec
