                         Program Version 4.2.1 -  RELEASE  -
|  1> %pal
|  2>  nprocs 32
|  3> end
|  4> !RI-MP2 aug-cc-pVTZ aug-cc-pVTZ/C TightSCF
|  5> %maxcore 4500
|  6> *xyzfile 0 1  04_51P2.xyz
|  7>
|  8>
|  9>                          ****END OF INPUT****

CARTESIAN COORDINATES (ANGSTROEM)
---------------------------------
  N      0.000000   -0.269244   -0.068612
  C     -1.218590    0.517573    0.021956
  C      1.218590    0.517573    0.021957
  C     -2.449377   -0.370448   -0.032906
  H      1.229071    1.214567   -0.822067
  H     -1.229071    1.214566   -0.822069
  H     -1.245434    1.135582    0.936209
  C      2.449377   -0.370448   -0.032907
  H      1.245434    1.135581    0.936211
  H     -2.459746   -0.953548   -0.955258
  H      2.459746   -0.953546   -0.955260
  H     -3.363038    0.225426    0.013828
  H     -2.466567   -1.069009    0.808679
  H      2.466567   -1.069011    0.808677
  H      3.363038    0.225426    0.013829
  H      0.000000   -0.986836    0.648912

 Total Charge           Charge          ....    0
 Multiplicity           Mult            ....    1
 Number of Electrons    NEL             ....   42
 Basis Dimension        Dim             ....  483

ORBITAL ENERGIES
----------------

  NO   OCC          E(Eh)            E(eV)
   0   2.0000     -15.535231      -422.7351
   1   2.0000     -11.243284      -305.9453
   2   2.0000     -11.243267      -305.9449
   3   2.0000     -11.210571      -305.0552
   4   2.0000     -11.210570      -305.0551
   5   2.0000      -1.204778       -32.7837
   6   2.0000      -1.027881       -27.9701
   7   2.0000      -0.962021       -26.1779
   8   2.0000      -0.829319       -22.5669
   9   2.0000      -0.819260       -22.2932
  10   2.0000      -0.659803       -17.9542
  11   2.0000      -0.627881       -17.0855
  12   2.0000      -0.597366       -16.2551
  13   2.0000      -0.589894       -16.0518
  14   2.0000      -0.552436       -15.0326
  15   2.0000      -0.519788       -14.1442
  16   2.0000      -0.507035       -13.7971
  17   2.0000      -0.489090       -13.3088
  18   2.0000      -0.481136       -13.0924
  19   2.0000      -0.474903       -12.9228
  20   2.0000      -0.363794        -9.8994
  21   0.0000       0.030442         0.8284
  22   0.0000       0.036066         0.9814
  23   0.0000       0.038168         1.0386
  24   0.0000       0.040984         1.1152
  25   0.0000       0.053354         1.4518

MULLIKEN ATOMIC CHARGES
-----------------------
   0 N :   -0.302851
   1 C :   -0.337344
   2 C :   -0.337344
   3 C :   -0.976128
   4 H :    0.304524
   5 H :    0.304524
   6 H :    0.281582
   7 C :   -0.976128
   8 H :    0.281582
   9 H :    0.276910
  10 H :    0.276910
  11 H :    0.320671
  12 H :    0.254551
  13 H :    0.254550
  14 H :    0.320671
  15 H :    0.053320
Sum of atomic charges:    0.0000000

LOEWDIN ATOMIC CHARGES
----------------------
   0 N :    0.546133
   1 C :    0.116098
   2 C :    0.116098
   3 C :    0.577283
   4 H :   -0.151414
   5 H :   -0.151414
   6 H :   -0.142466
   7 C :    0.577283
   8 H :   -0.142466
   9 H :   -0.170402
  10 H :   -0.170402
  11 H :   -0.173969
  12 H :   -0.172701
  13 H :   -0.172701
  14 H :   -0.173969
  15 H :   -0.310992

  Mayer bond orders larger than 0.100000
B(  0-N ,  1-C ) :   0.9039 B(  0-N ,  2-C ) :   0.9039 B(  0-N , 15-H ) :   0.9454
B(  1-C ,  3-C ) :   0.8651 B(  1-C ,  5-H ) :   0.9153 B(  1-C ,  6-H ) :   0.9207
B(  2-C ,  4-H ) :   0.9153 B(  2-C ,  7-C ) :   0.8651 B(  2-C ,  8-H ) :   0.9207
B(  3-C ,  9-H ) :   0.9549 B(  3-C , 11-H ) :   0.9334 B(  3-C , 12-H ) :   0.9678
B(  7-C , 10-H ) :   0.9549 B(  7-C , 13-H ) :   0.9678 B(  7-C , 14-H ) :   0.9334

MP2 TOTAL ENERGY:     -213.336663419 Eh
FINAL SINGLE POINT ENERGY      -213.336663418773

DIPOLE MOMENT
-------------
                                X             Y             Z
Electronic contribution:     -0.00000       0.01921      -0.31416
Nuclear contribution   :     -0.00000       0.12685       0.65926
                        -----------------------------------------
Total Dipole Moment    :     -0.00000       0.14606       0.34510
                        -----------------------------------------
Magnitude (a.u.)       :      0.37474
Magnitude (Debye)      :      0.95251

Rotational constants in cm-1:     0.594579     0.070233     0.066166
Rotational constants in MHz : 17825.015033  2105.518676  1983.595619

                             ****ORCA TERMINATED NORMALLY****
TOTAL RUN TIME: 0 days 0 hours 1 minutes 12 seconds 314 msec
