                         Program Version 4.2.1 -  RELEASE  -
|  1> %pal
|  2>  nprocs 32
|  3> end
|  4> !RI-MP2 aug-cc-pVTZ aug-cc-pVTZ/C TightSCF
|  5> %maxcore 4500
|  6> *xyzfile 0 1  10_52P.xyz
|  7>
|  8>
|  9>                          ****END OF INPUT****

CARTESIAN COORDINATES (ANGSTROEM)
---------------------------------
  C     -0.402947    1.143092   -1.501868
  N      0.092427   -0.094225   -0.919800
  C     -0.483833   -1.351772   -1.375148
  C     -1.372899   -2.079318   -0.348753
  C     -2.782407   -1.570608   -0.271146
  C     -1.804567    1.119266    1.514599
  C     -1.995983    2.031652    0.339575
  C     -0.743574    2.263357   -0.513634
  C     -3.229621   -0.699391    0.626700
  C     -2.371805   -0.071926    1.659960
  C      1.362996   -0.122204   -0.355974
  C      1.853403   -1.285949    0.261521
  C      3.120143   -1.322219    0.819069
  C      3.948741   -0.209360    0.790749
  C      3.479907    0.943654    0.180230
  C      2.215183    0.993894   -0.385024
  H      0.314306    1.529747   -2.240549
  H     -1.309247    0.896047   -2.055628
  H     -1.065014   -1.154914   -2.279031
  H      0.328923   -2.019757   -1.674121
  H     -1.397278   -3.139537   -0.621315
  H     -0.901544   -2.008869    0.632009
  H     -2.322689    3.004238    0.723426
  H     -2.803791    1.659745   -0.295595
  H     -0.896213    3.167814   -1.111525
  H      0.106240    2.468655    0.139963
  H      1.238311   -2.171644    0.320784
  H      3.459086   -2.238592    1.288515
  H      4.936375   -0.241391    1.232553
  H      4.108766    1.825337    0.132088
  H      1.904491    1.908815   -0.865682
  H     -2.188170   -0.637298    2.570380
  H     -1.158012    1.488835    2.306834
  H     -4.278837   -0.413954    0.601873
  H     -3.479117   -1.956698   -1.011514

 Total Charge           Charge          ....    0
 Multiplicity           Mult            ....    1
 Number of Electrons    NEL             ....  116
 Basis Dimension        Dim             .... 1173

ORBITAL ENERGIES
----------------

  NO   OCC          E(Eh)            E(eV)
   0   2.0000     -15.559941      -423.4075
   1   2.0000     -11.272526      -306.7410
   2   2.0000     -11.259165      -306.3775
   3   2.0000     -11.256586      -306.3073
   4   2.0000     -11.227847      -305.5253
   5   2.0000     -11.227748      -305.5226
   6   2.0000     -11.227165      -305.5067
   7   2.0000     -11.225408      -305.4589
   8   2.0000     -11.223442      -305.4054
   9   2.0000     -11.223366      -305.4033
  10   2.0000     -11.221955      -305.3649
  11   2.0000     -11.221369      -305.3490
  12   2.0000     -11.219816      -305.3067
  13   2.0000     -11.215743      -305.1959
  14   2.0000     -11.215651      -305.1934
  15   2.0000     -11.211841      -305.0897
  16   2.0000      -1.255419       -34.1617
  17   2.0000      -1.134957       -30.8837
  18   2.0000      -1.105427       -30.0802
  19   2.0000      -1.080480       -29.4013
  20   2.0000      -1.025111       -27.8947
  21   2.0000      -1.011456       -27.5231
  22   2.0000      -0.991505       -26.9802
  23   2.0000      -0.983203       -26.7543
  24   2.0000      -0.904995       -24.6262
  25   2.0000      -0.865858       -23.5612
  26   2.0000      -0.835848       -22.7446
  27   2.0000      -0.815348       -22.1867
  28   2.0000      -0.774325       -21.0705
  29   2.0000      -0.773327       -21.0433
  30   2.0000      -0.712079       -19.3766
  31   2.0000      -0.691464       -18.8157
  32   2.0000      -0.664003       -18.0684
  33   2.0000      -0.655033       -17.8244
  34   2.0000      -0.650450       -17.6996
  35   2.0000      -0.633810       -17.2468
  36   2.0000      -0.621962       -16.9244
  37   2.0000      -0.611064       -16.6279
  38   2.0000      -0.604208       -16.4413
  39   2.0000      -0.587311       -15.9816
  40   2.0000      -0.573192       -15.5973
  41   2.0000      -0.566705       -15.4208
  42   2.0000      -0.562614       -15.3095
  43   2.0000      -0.531821       -14.4716
  44   2.0000      -0.528123       -14.3709
  45   2.0000      -0.514736       -14.0067
  46   2.0000      -0.507512       -13.8101
  47   2.0000      -0.499040       -13.5796
  48   2.0000      -0.493630       -13.4324
  49   2.0000      -0.488075       -13.2812
  50   2.0000      -0.476150       -12.9567
  51   2.0000      -0.466892       -12.7048
  52   2.0000      -0.456416       -12.4197
  53   2.0000      -0.404963       -11.0196
  54   2.0000      -0.361399        -9.8342
  55   2.0000      -0.339817        -9.2469
  56   2.0000      -0.332049        -9.0355
  57   2.0000      -0.278231        -7.5711
  58   0.0000       0.026313         0.7160
  59   0.0000       0.029115         0.7923
  60   0.0000       0.030660         0.8343
  61   0.0000       0.033265         0.9052
  62   0.0000       0.040458         1.1009

MULLIKEN ATOMIC CHARGES
-----------------------
   0 C :   -0.527135
   1 N :    0.747162
   2 C :   -0.742656
   3 C :   -0.071751
   4 C :   -0.670409
   5 C :   -0.626416
   6 C :   -0.295804
   7 C :   -0.438556
   8 C :   -0.222223
   9 C :   -0.155109
  10 C :    1.294479
  11 C :   -0.422353
  12 C :   -0.968532
  13 C :   -0.422897
  14 C :   -0.997734
  15 C :   -0.303504
  16 H :    0.211437
  17 H :    0.258824
  18 H :    0.199580
  19 H :    0.248201
  20 H :    0.384849
  21 H :    0.164265
  22 H :    0.303609
  23 H :    0.081922
  24 H :    0.285020
  25 H :    0.270297
  26 H :   -0.032481
  27 H :    0.428041
  28 H :    0.595255
  29 H :    0.385696
  30 H :   -0.025219
  31 H :    0.490778
  32 H :    0.008435
  33 H :    0.548232
  34 H :    0.016697
Sum of atomic charges:   -0.0000000

LOEWDIN ATOMIC CHARGES
----------------------
   0 C :    0.196189
   1 N :    0.304768
   2 C :    0.201549
   3 C :    0.284338
   4 C :    0.225918
   5 C :    0.226313
   6 C :    0.276007
   7 C :    0.309031
   8 C :    0.186648
   9 C :    0.191577
  10 C :   -0.197736
  11 C :    0.226919
  12 C :    0.192150
  13 C :    0.184254
  14 C :    0.192397
  15 C :    0.224040
  16 H :   -0.138230
  17 H :   -0.153689
  18 H :   -0.146674
  19 H :   -0.154064
  20 H :   -0.143911
  21 H :   -0.178739
  22 H :   -0.145183
  23 H :   -0.164993
  24 H :   -0.137803
  25 H :   -0.169381
  26 H :   -0.212080
  27 H :   -0.178903
  28 H :   -0.193358
  29 H :   -0.178769
  30 H :   -0.217655
  31 H :   -0.181362
  32 H :   -0.170209
  33 H :   -0.181363
  34 H :   -0.177997

  Mayer bond orders larger than 0.100000
B(  0-C ,  1-N ) :   1.0376 B(  0-C ,  7-C ) :   0.7797 B(  0-C , 10-C ) :  -0.2082
B(  0-C , 15-C ) :  -0.1417 B(  0-C , 16-H ) :   1.1105 B(  0-C , 17-H ) :   1.0681
B(  1-N ,  2-C ) :   0.8111 B(  1-N ,  3-C ) :  -0.1198 B(  1-N , 10-C ) :   0.5342
B(  1-N , 11-C ) :  -0.5101 B(  1-N , 15-C ) :  -0.4500 B(  1-N , 26-H ) :  -0.1799
B(  2-C ,  3-C ) :   0.9063 B(  2-C ,  4-C ) :   0.1706 B(  2-C , 10-C ) :  -0.1954
B(  2-C , 18-H ) :   1.0685 B(  2-C , 19-H ) :   1.1090 B(  3-C ,  4-C ) :   0.4413
B(  3-C ,  8-C ) :   0.2102 B(  3-C , 20-H ) :   0.9135 B(  3-C , 21-H ) :   1.0500
B(  4-C ,  8-C ) :   1.7155 B(  4-C , 20-H ) :  -0.1984 B(  4-C , 21-H ) :   0.1307
B(  4-C , 34-H ) :   1.3790 B(  5-C ,  6-C ) :   0.7546 B(  5-C ,  9-C ) :   1.7934
B(  5-C , 22-H ) :  -0.1233 B(  5-C , 23-H ) :   0.1173 B(  5-C , 32-H ) :   1.3316
B(  6-C ,  7-C ) :   0.8992 B(  6-C , 22-H ) :   0.9878 B(  6-C , 23-H ) :   1.0652
B(  7-C , 24-H ) :   0.9626 B(  7-C , 25-H ) :   1.0622 B(  8-C ,  9-C ) :   0.7046
B(  8-C , 33-H ) :   0.6662 B(  9-C , 31-H ) :   0.7390 B( 10-C , 11-C ) :   0.9544
B( 10-C , 12-C ) :  -0.1402 B( 10-C , 13-C ) :  -0.1399 B( 10-C , 15-C ) :   0.8820
B( 10-C , 26-H ) :  -0.1816 B( 10-C , 30-H ) :  -0.2937 B( 11-C , 12-C ) :   1.2232
B( 11-C , 13-C ) :   0.1385 B( 11-C , 15-C ) :  -0.4742 B( 11-C , 26-H ) :   1.7043
B( 12-C , 13-C ) :   1.0916 B( 12-C , 14-C ) :   0.2641 B( 12-C , 27-H ) :   0.7773
B( 12-C , 28-H ) :  -0.1651 B( 13-C , 14-C ) :   1.0665 B( 13-C , 28-H ) :   0.5718
B( 14-C , 15-C ) :   0.9337 B( 14-C , 28-H ) :  -0.1572 B( 14-C , 29-H ) :   0.7989
B( 15-C , 29-H ) :  -0.1020 B( 15-C , 30-H ) :   1.7435

MP2 TOTAL ENERGY:     -636.387653788 Eh
FINAL SINGLE POINT ENERGY      -636.387653787605

DIPOLE MOMENT
-------------
                                X             Y             Z
Electronic contribution:      5.12722      -1.91034       1.82837
Nuclear contribution   :     -5.51766       2.00780      -2.25893
                        -----------------------------------------
Total Dipole Moment    :     -0.39044       0.09746      -0.43056
                        -----------------------------------------
Magnitude (a.u.)       :      0.58934
Magnitude (Debye)      :      1.49799

Rotational constants in cm-1:     0.028998     0.013106     0.011355
Rotational constants in MHz :   869.336612   392.911275   340.402866

                             ****ORCA TERMINATED NORMALLY****
TOTAL RUN TIME: 0 days 0 hours 33 minutes 30 seconds 516 msec
