                         Program Version 4.2.1 -  RELEASE  -
|  1> %pal
|  2>  nprocs 32
|  3> end
|  4> !RI-MP2 aug-cc-pVTZ aug-cc-pVTZ/C TightSCF
|  5> %maxcore 4500
|  6> *xyzfile 0 1  03_29R1.xyz
|  7>
|  8>
|  9>                          ****END OF INPUT****

CARTESIAN COORDINATES (ANGSTROEM)
---------------------------------
  C     -1.447175    0.014539    0.000005
  C     -2.016877   -0.604652   -1.264660
  C     -2.016868   -0.604583    1.264708
  C      0.069548    0.009376   -0.000001
  C      0.791163    1.196845   -0.000036
  C      2.180418    1.174780   -0.000040
  C      2.863362   -0.031612   -0.000009
  C      2.147716   -1.221838    0.000026
  C      0.761757   -1.200213    0.000030
  H      0.260186    2.138503   -0.000060
  H      2.729406    2.108912   -0.000068
  H      3.946461   -0.046842   -0.000012
  H      2.670342   -2.170867    0.000051
  H      0.218686   -2.138372    0.000058
  H     -3.105753   -0.535834    1.253980
  H     -1.635704   -0.080059    2.141341
  H     -1.732886   -1.655007    1.340980
  H     -3.105762   -0.535908   -1.253927
  H     -1.732890   -1.655079   -1.340880
  H     -1.635724   -0.080172   -2.141325
  F     -1.874959    1.361653   -0.000031

 Total Charge           Charge          ....    0
 Multiplicity           Mult            ....    1
 Number of Electrons    NEL             ....   74
 Basis Dimension        Dim             ....  713

ORBITAL ENERGIES
----------------

  NO   OCC          E(Eh)            E(eV)
   0   2.0000     -26.268291      -714.7965
   1   2.0000     -11.323441      -308.1265
   2   2.0000     -11.242847      -305.9334
   3   2.0000     -11.237442      -305.7863
   4   2.0000     -11.236150      -305.7512
   5   2.0000     -11.234846      -305.7157
   6   2.0000     -11.232880      -305.6622
   7   2.0000     -11.230274      -305.5913
   8   2.0000     -11.224268      -305.4279
   9   2.0000     -11.224255      -305.4275
  10   2.0000      -1.578948       -42.9654
  11   2.0000      -1.163955       -31.6728
  12   2.0000      -1.087925       -29.6039
  13   2.0000      -1.018601       -27.7175
  14   2.0000      -1.004992       -27.3472
  15   2.0000      -0.954881       -25.9836
  16   2.0000      -0.857778       -23.3413
  17   2.0000      -0.829881       -22.5822
  18   2.0000      -0.783622       -21.3234
  19   2.0000      -0.724272       -19.7085
  20   2.0000      -0.671971       -18.2853
  21   2.0000      -0.667041       -18.1511
  22   2.0000      -0.663440       -18.0531
  23   2.0000      -0.627765       -17.0823
  24   2.0000      -0.613319       -16.6893
  25   2.0000      -0.592941       -16.1348
  26   2.0000      -0.580682       -15.8011
  27   2.0000      -0.568225       -15.4622
  28   2.0000      -0.551226       -14.9996
  29   2.0000      -0.540968       -14.7205
  30   2.0000      -0.534756       -14.5515
  31   2.0000      -0.507807       -13.8181
  32   2.0000      -0.494252       -13.4493
  33   2.0000      -0.485048       -13.1988
  34   2.0000      -0.471204       -12.8221
  35   2.0000      -0.340024        -9.2525
  36   2.0000      -0.333831        -9.0840
  37   0.0000       0.026767         0.7284
  38   0.0000       0.031935         0.8690
  39   0.0000       0.035897         0.9768
  40   0.0000       0.039618         1.0781
  41   0.0000       0.045080         1.2267

MULLIKEN ATOMIC CHARGES
-----------------------
   0 C :    1.457408
   1 C :   -1.085677
   2 C :   -1.085675
   3 C :    1.474326
   4 C :   -1.095055
   5 C :   -0.411979
   6 C :   -0.244957
   7 C :   -0.856096
   8 C :   -0.713572
   9 H :   -0.098945
  10 H :    0.540572
  11 H :    0.464012
  12 H :    0.418173
  13 H :    0.207385
  14 H :    0.238963
  15 H :    0.328564
  16 H :    0.318906
  17 H :    0.238964
  18 H :    0.318906
  19 H :    0.328564
  20 F :   -0.742786
Sum of atomic charges:    0.0000000

LOEWDIN ATOMIC CHARGES
----------------------
   0 C :   -0.691656
   1 C :    0.587977
   2 C :    0.587978
   3 C :   -0.115789
   4 C :    0.217786
   5 C :    0.201621
   6 C :    0.194019
   7 C :    0.202377
   8 C :    0.207348
   9 H :   -0.199741
  10 H :   -0.181115
  11 H :   -0.184142
  12 H :   -0.181195
  13 H :   -0.179365
  14 H :   -0.160649
  15 H :   -0.154972
  16 H :   -0.165906
  17 H :   -0.160649
  18 H :   -0.165906
  19 H :   -0.154971
  20 F :    0.496948

  Mayer bond orders larger than 0.100000
B(  0-C ,  1-C ) :   0.6872 B(  0-C ,  2-C ) :   0.6872 B(  0-C ,  3-C ) :   0.9995
B(  0-C ,  8-C ) :   0.1366 B(  0-C ,  9-H ) :  -0.1496 B(  0-C , 20-F ) :  -0.1947
B(  1-C ,  2-C ) :   0.1322 B(  1-C , 17-H ) :   1.0324 B(  1-C , 18-H ) :   0.9404
B(  1-C , 19-H ) :   0.9568 B(  1-C , 20-F ) :   0.1401 B(  2-C , 14-H ) :   1.0324
B(  2-C , 15-H ) :   0.9568 B(  2-C , 16-H ) :   0.9404 B(  2-C , 20-F ) :   0.1401
B(  3-C ,  5-C ) :   0.3226 B(  3-C ,  8-C ) :   0.3757 B(  3-C ,  9-H ) :  -0.3475
B(  3-C , 13-H ) :  -0.1628 B(  3-C , 20-F ) :   0.2851 B(  4-C ,  5-C ) :   1.1454
B(  4-C ,  6-C ) :  -0.1218 B(  4-C ,  8-C ) :  -0.1128 B(  4-C ,  9-H ) :   1.9140
B(  4-C , 10-H ) :  -0.2078 B(  4-C , 11-H ) :   0.1564 B(  4-C , 13-H ) :   0.2665
B(  5-C ,  6-C ) :   1.1009 B(  5-C ,  7-C ) :   0.1221 B(  5-C ,  8-C ) :  -0.1547
B(  5-C ,  9-H ) :  -0.1579 B(  5-C , 10-H ) :   0.7569 B(  5-C , 11-H ) :  -0.1848
B(  5-C , 13-H ) :  -0.1205 B(  6-C ,  7-C ) :   1.1784 B(  6-C , 11-H ) :   0.8064
B(  7-C ,  8-C ) :   1.3911 B(  7-C , 11-H ) :  -0.1327 B(  7-C , 12-H ) :   0.8440
B(  7-C , 13-H ) :  -0.1513 B(  8-C ,  9-H ) :   0.1810 B(  8-C , 13-H ) :   1.1856
B(  9-H , 20-F ) :   0.1160

MP2 TOTAL ENERGY:     -448.573287593 Eh
FINAL SINGLE POINT ENERGY      -448.573287592869

DIPOLE MOMENT
-------------
                                X             Y             Z
Electronic contribution:      1.43806       5.30787      -0.00015
Nuclear contribution   :     -1.27924      -6.02986       0.00017
                        -----------------------------------------
Total Dipole Moment    :      0.15882      -0.72199       0.00002
                        -----------------------------------------
Magnitude (a.u.)       :      0.73926
Magnitude (Debye)      :      1.87904

Rotational constants in cm-1:     0.088073     0.031720     0.027459
Rotational constants in MHz :  2640.363015   950.956240   823.189906

                             ****ORCA TERMINATED NORMALLY****
TOTAL RUN TIME: 0 days 0 hours 5 minutes 27 seconds 11 msec
