                         Program Version 4.2.1 -  RELEASE  -
|  1> %pal
|  2>  nprocs 32
|  3> end
|  4> !RI-MP2 aug-cc-pVTZ aug-cc-pVTZ/C TightSCF
|  5> %maxcore 4500
|  6> *xyzfile 1 1  10_16R.xyz
|  7>
|  8>
|  9>                          ****END OF INPUT****

CARTESIAN COORDINATES (ANGSTROEM)
---------------------------------
  C      0.424806    2.645812   -0.595382
  C     -0.595380    2.929640    0.468640
  C     -1.490008    1.728334    0.795770
  C     -2.386098    1.289991   -0.361503
  C     -3.177736    0.022250   -0.065475
  C     -2.392639   -1.265775   -0.076895
  H     -2.121920    1.976748    1.653757
  H     -1.225710    3.769311    0.156883
  H     -0.084271    3.245151    1.380874
  H     -1.804253    1.150024   -1.276769
  H     -3.099734    2.086540   -0.583529
  H     -3.972126   -0.126305   -0.806060
  H     -3.680665    0.082153    0.904919
  H     -0.847408    0.902363    1.116813
  C     -3.034539   -2.545004    0.368283
  H     -2.386808   -3.404947    0.212569
  H     -3.963661   -2.683042   -0.188322
  H     -3.291676   -2.469311    1.426977
  C      1.728504    2.552767   -0.377071
  N     -1.198991   -1.274133   -0.462167
  N     -0.152947   -1.276489   -1.052584
  C      1.066656   -1.116052   -0.387082
  C      1.184586   -1.030761    1.004368
  C      2.179222   -1.040618   -1.223366
  C      2.436116   -0.853811    1.550377
  H      0.312076   -1.112412    1.640314
  C      3.429560   -0.857478   -0.660878
  H      2.040614   -1.118445   -2.293961
  C      3.554092   -0.762466    0.718476
  H      2.554761   -0.788842    2.624014
  H      4.304792   -0.791615   -1.293439
  H      4.533561   -0.622464    1.159022
  H      0.057402    2.524297   -1.611895
  H      2.148833    2.694904    0.613436
  H      2.426911    2.359266   -1.181915

 Total Charge           Charge          ....    1
 Multiplicity           Mult            ....    1
 Number of Electrons    NEL             ....  116
 Basis Dimension        Dim             .... 1173

ORBITAL ENERGIES
----------------

  NO   OCC          E(Eh)            E(eV)
   0   2.0000     -15.859456      -431.5577
   1   2.0000     -15.857519      -431.5050
   2   2.0000     -11.512571      -313.2730
   3   2.0000     -11.422094      -310.8110
   4   2.0000     -11.397878      -310.1520
   5   2.0000     -11.397863      -310.1516
   6   2.0000     -11.392255      -309.9990
   7   2.0000     -11.389762      -309.9312
   8   2.0000     -11.382950      -309.7458
   9   2.0000     -11.372523      -309.4621
  10   2.0000     -11.368170      -309.3436
  11   2.0000     -11.359459      -309.1066
  12   2.0000     -11.344352      -308.6955
  13   2.0000     -11.330531      -308.3194
  14   2.0000     -11.329335      -308.2869
  15   2.0000     -11.318051      -307.9798
  16   2.0000      -1.611184       -43.8426
  17   2.0000      -1.374072       -37.3904
  18   2.0000      -1.299869       -35.3712
  19   2.0000      -1.224147       -33.3107
  20   2.0000      -1.194542       -32.5051
  21   2.0000      -1.168830       -31.8055
  22   2.0000      -1.166950       -31.7543
  23   2.0000      -1.136529       -30.9265
  24   2.0000      -1.103555       -30.0293
  25   2.0000      -1.032554       -28.0972
  26   2.0000      -1.014191       -27.5975
  27   2.0000      -0.981957       -26.7204
  28   2.0000      -0.941182       -25.6109
  29   2.0000      -0.905759       -24.6470
  30   2.0000      -0.858895       -23.3717
  31   2.0000      -0.857529       -23.3346
  32   2.0000      -0.843658       -22.9571
  33   2.0000      -0.825592       -22.4655
  34   2.0000      -0.819165       -22.2906
  35   2.0000      -0.780365       -21.2348
  36   2.0000      -0.762134       -20.7387
  37   2.0000      -0.751880       -20.4597
  38   2.0000      -0.749441       -20.3933
  39   2.0000      -0.735379       -20.0107
  40   2.0000      -0.733822       -19.9683
  41   2.0000      -0.723883       -19.6979
  42   2.0000      -0.721382       -19.6298
  43   2.0000      -0.713906       -19.4264
  44   2.0000      -0.688638       -18.7388
  45   2.0000      -0.669974       -18.2309
  46   2.0000      -0.660798       -17.9812
  47   2.0000      -0.644281       -17.5318
  48   2.0000      -0.642117       -17.4729
  49   2.0000      -0.632760       -17.2183
  50   2.0000      -0.629671       -17.1342
  51   2.0000      -0.606361       -16.4999
  52   2.0000      -0.591406       -16.0930
  53   2.0000      -0.572615       -15.5817
  54   2.0000      -0.568045       -15.4573
  55   2.0000      -0.483389       -13.1537
  56   2.0000      -0.481612       -13.1053
  57   2.0000      -0.461461       -12.5570
  58   0.0000      -0.111488        -3.0337
  59   0.0000      -0.068409        -1.8615
  60   0.0000      -0.056589        -1.5399
  61   0.0000      -0.053026        -1.4429
  62   0.0000      -0.048740        -1.3263

MULLIKEN ATOMIC CHARGES
-----------------------
   0 C :    0.033809
   1 C :   -0.391904
   2 C :   -0.595468
   3 C :   -0.330636
   4 C :   -0.473798
   5 C :    0.757959
   6 H :    0.227193
   7 H :    0.268293
   8 H :    0.104382
   9 H :    0.255023
  10 H :    0.263499
  11 H :    0.343880
  12 H :    0.228498
  13 H :    0.484254
  14 C :   -1.052552
  15 H :    0.316827
  16 H :    0.339525
  17 H :    0.321433
  18 C :   -0.968274
  19 N :    0.761572
  20 N :   -1.675645
  21 C :    1.508585
  22 C :   -0.491382
  23 C :   -0.978498
  24 C :   -0.932983
  25 H :    0.741453
  26 C :   -0.470620
  27 H :    0.712787
  28 C :   -0.337544
  29 H :    0.219878
  30 H :    0.221914
  31 H :    0.686982
  32 H :    0.121978
  33 H :    0.315661
  34 H :    0.463919
Sum of atomic charges:    1.0000000

LOEWDIN ATOMIC CHARGES
----------------------
   0 C :    0.184449
   1 C :    0.275701
   2 C :    0.289374
   3 C :    0.297699
   4 C :    0.336355
   5 C :   -0.141951
   6 H :   -0.128999
   7 H :   -0.137380
   8 H :   -0.150053
   9 H :   -0.157022
  10 H :   -0.122549
  11 H :   -0.120958
  12 H :   -0.125181
  13 H :   -0.179811
  14 C :    0.656174
  15 H :   -0.152268
  16 H :   -0.142592
  17 H :   -0.143099
  18 C :    0.526683
  19 N :    0.300447
  20 N :    0.371093
  21 C :   -0.281412
  22 C :    0.217402
  23 C :    0.222476
  24 C :    0.237258
  25 H :   -0.170245
  26 C :    0.233813
  27 H :   -0.155405
  28 C :    0.244355
  29 H :   -0.165339
  30 H :   -0.164725
  31 H :   -0.155739
  32 H :   -0.181819
  33 H :   -0.203306
  34 H :   -0.213427

  Mayer bond orders larger than 0.100000
B(  0-C ,  1-C ) :   0.8465 B(  0-C ,  2-C ) :   0.1815 B(  0-C ,  8-H ) :   0.1015
B(  0-C , 18-C ) :   1.2330 B(  0-C , 32-H ) :   1.0772 B(  1-C ,  2-C ) :   0.9996
B(  1-C ,  7-H ) :   1.0205 B(  1-C ,  8-H ) :   1.0428 B(  1-C , 18-C ) :   0.1251
B(  2-C ,  3-C ) :   0.7546 B(  2-C ,  6-H ) :   1.0875 B(  2-C , 13-H ) :   0.7803
B(  3-C ,  4-C ) :   0.9868 B(  3-C ,  9-H ) :   1.0138 B(  3-C , 10-H ) :   0.9766
B(  4-C ,  5-C ) :   0.6360 B(  4-C , 11-H ) :   0.9252 B(  4-C , 12-H ) :   0.9811
B(  5-C , 12-H ) :   0.1063 B(  5-C , 14-C ) :   0.5632 B(  5-C , 19-N ) :   1.2376
B(  5-C , 20-N ) :  -0.6280 B(  5-C , 22-C ) :   0.1625 B( 14-C , 15-H ) :   0.9624
B( 14-C , 16-H ) :   0.9628 B( 14-C , 17-H ) :   0.9541 B( 14-C , 20-N ) :   0.1186
B( 18-C , 32-H ) :   0.1338 B( 18-C , 33-H ) :   1.0031 B( 18-C , 34-H ) :   0.7485
B( 19-N , 20-N ) :  -0.6924 B( 19-N , 21-C ) :   0.3075 B( 19-N , 22-C ) :   0.3566
B( 19-N , 23-C ) :   0.1097 B( 19-N , 25-H ) :  -0.2186 B( 20-N , 21-C ) :   0.3535
B( 20-N , 22-C ) :  -0.6597 B( 20-N , 23-C ) :   0.1777 B( 20-N , 24-C ) :   0.1290
B( 20-N , 25-H ) :   0.1487 B( 21-C , 22-C ) :   0.5798 B( 21-C , 23-C ) :   0.4707
B( 21-C , 24-C ) :  -0.3574 B( 21-C , 25-H ) :   0.1727 B( 21-C , 26-C ) :  -0.1341
B( 21-C , 27-H ) :   0.1242 B( 22-C , 23-C ) :   0.4356 B( 22-C , 24-C ) :   1.3037
B( 22-C , 25-H ) :   0.3309 B( 22-C , 27-H ) :  -0.1096 B( 22-C , 28-C ) :   0.3656
B( 23-C , 24-C ) :   0.1262 B( 23-C , 25-H ) :  -0.2003 B( 23-C , 26-C ) :   1.3105
B( 23-C , 27-H ) :   0.2474 B( 23-C , 28-C ) :   0.4219 B( 23-C , 29-H ) :   0.1535
B( 23-C , 31-H ) :  -0.1183 B( 24-C , 25-H ) :  -0.1061 B( 24-C , 26-C ) :  -0.2086
B( 24-C , 28-C ) :   1.2656 B( 24-C , 29-H ) :   1.2923 B( 25-H , 26-C ) :   0.1343
B( 26-C , 28-C ) :   1.1101 B( 26-C , 30-H ) :   1.2213 B( 28-C , 29-H ) :  -0.1163
B( 28-C , 30-H ) :  -0.1210 B( 28-C , 31-H ) :   0.4466

MP2 TOTAL ENERGY:     -652.746664282 Eh
FINAL SINGLE POINT ENERGY      -652.746664282382

DIPOLE MOMENT
-------------
                                X             Y             Z
Electronic contribution:      6.86604      -9.26883      -3.32633
Nuclear contribution   :     -8.27343       7.81542       3.71952
                        -----------------------------------------
Total Dipole Moment    :     -1.40740      -1.45342       0.39319
                        -----------------------------------------
Magnitude (a.u.)       :      2.06102
Magnitude (Debye)      :      5.23869

Rotational constants in cm-1:     0.022271     0.014083     0.010120
Rotational constants in MHz :   667.675119   422.203358   303.401837

                             ****ORCA TERMINATED NORMALLY****
TOTAL RUN TIME: 0 days 0 hours 35 minutes 47 seconds 230 msec
