                         Program Version 4.2.1 -  RELEASE  -
|  1> %pal
|  2>  nprocs 32
|  3> end
|  4> !RI-MP2 aug-cc-pVTZ aug-cc-pVTZ/C TightSCF
|  5> %maxcore 4500
|  6> *xyzfile 0 1  06_15R1.xyz
|  7>
|  8>
|  9>                          ****END OF INPUT****

CARTESIAN COORDINATES (ANGSTROEM)
---------------------------------
  C     -3.066100   -0.176651   -0.439092
  C     -2.031514   -0.203488    0.388683
  C     -0.770796    0.587069    0.221263
  C      0.470655   -0.297715    0.090895
  C      2.997510   -0.385270   -0.166221
  C      1.764039    0.500309   -0.032672
  H     -3.067394    0.455349   -1.321540
  H     -3.948853   -0.780529   -0.266679
  H     -2.071437   -0.854377    1.260498
  H     -0.857656    1.234962   -0.656495
  H     -0.642073    1.247030    1.087795
  H      0.536018   -0.961851    0.960653
  H      0.355814   -0.949126   -0.782113
  H      2.929241   -1.023204   -1.051368
  H      3.909833    0.208430   -0.253947
  H      3.108245   -1.038863    0.703158
  H      1.870949    1.150424    0.842515
  H      1.694546    1.166228   -0.899613

 Total Charge           Charge          ....    0
 Multiplicity           Mult            ....    1
 Number of Electrons    NEL             ....   48
 Basis Dimension        Dim             ....  552

ORBITAL ENERGIES
----------------

  NO   OCC          E(Eh)            E(eV)
   0   2.0000     -11.229256      -305.5636
   1   2.0000     -11.222413      -305.3774
   2   2.0000     -11.218138      -305.2611
   3   2.0000     -11.217516      -305.2441
   4   2.0000     -11.215890      -305.1999
   5   2.0000     -11.211230      -305.0731
   6   2.0000      -1.093607       -29.7586
   7   2.0000      -1.044454       -28.4210
   8   2.0000      -0.967700       -26.3325
   9   2.0000      -0.869076       -23.6488
  10   2.0000      -0.793708       -21.5979
  11   2.0000      -0.754410       -20.5285
  12   2.0000      -0.653550       -17.7840
  13   2.0000      -0.623408       -16.9638
  14   2.0000      -0.595285       -16.1985
  15   2.0000      -0.584006       -15.8916
  16   2.0000      -0.555543       -15.1171
  17   2.0000      -0.534241       -14.5374
  18   2.0000      -0.505798       -13.7635
  19   2.0000      -0.488836       -13.3019
  20   2.0000      -0.474779       -12.9194
  21   2.0000      -0.464789       -12.6475
  22   2.0000      -0.458617       -12.4796
  23   2.0000      -0.358513        -9.7556
  24   0.0000       0.030776         0.8375
  25   0.0000       0.033878         0.9219
  26   0.0000       0.036320         0.9883
  27   0.0000       0.039138         1.0650
  28   0.0000       0.048577         1.3218

MULLIKEN ATOMIC CHARGES
-----------------------
   0 C :   -1.048873
   1 C :   -0.246409
   2 C :   -0.105212
   3 C :   -0.365466
   4 C :   -0.981987
   5 C :   -0.466502
   6 H :    0.219363
   7 H :    0.506682
   8 H :    0.205317
   9 H :    0.176306
  10 H :    0.261042
  11 H :    0.249213
  12 H :    0.288045
  13 H :    0.264088
  14 H :    0.267395
  15 H :    0.270991
  16 H :    0.254186
  17 H :    0.251822
Sum of atomic charges:   -0.0000000

LOEWDIN ATOMIC CHARGES
----------------------
   0 C :    0.521307
   1 C :    0.175640
   2 C :    0.238941
   3 C :    0.257731
   4 C :    0.575613
   5 C :    0.249861
   6 H :   -0.221143
   7 H :   -0.229329
   8 H :   -0.181262
   9 H :   -0.154898
  10 H :   -0.145795
  11 H :   -0.142232
  12 H :   -0.139748
  13 H :   -0.169891
  14 H :   -0.172718
  15 H :   -0.170091
  16 H :   -0.146503
  17 H :   -0.145485

  Mayer bond orders larger than 0.100000
B(  0-C ,  1-C ) :   1.3710 B(  0-C ,  6-H ) :   1.1417 B(  0-C ,  7-H ) :   0.6449
B(  1-C ,  2-C ) :   0.7308 B(  1-C ,  8-H ) :   1.1146 B(  2-C ,  3-C ) :   0.9902
B(  2-C ,  9-H ) :   0.9896 B(  2-C , 10-H ) :   0.9537 B(  3-C ,  5-C ) :   0.8812
B(  3-C , 11-H ) :   0.9466 B(  3-C , 12-H ) :   0.9387 B(  4-C ,  5-C ) :   0.9092
B(  4-C , 13-H ) :   0.9603 B(  4-C , 14-H ) :   0.9918 B(  4-C , 15-H ) :   0.9583
B(  5-C , 16-H ) :   0.9499 B(  5-C , 17-H ) :   0.9601

MP2 TOTAL ENERGY:     -235.308838041 Eh
FINAL SINGLE POINT ENERGY      -235.308838040534

DIPOLE MOMENT
-------------
                                X             Y             Z
Electronic contribution:     -3.91368       0.19710       0.44805
Nuclear contribution   :      4.08871      -0.15588      -0.40396
                        -----------------------------------------
Total Dipole Moment    :      0.17503       0.04122       0.04409
                        -----------------------------------------
Magnitude (a.u.)       :      0.18514
Magnitude (Debye)      :      0.47060

Rotational constants in cm-1:     0.452716     0.041768     0.041006
Rotational constants in MHz : 13572.091579  1252.182131  1229.340508

                             ****ORCA TERMINATED NORMALLY****
TOTAL RUN TIME: 0 days 0 hours 2 minutes 0 seconds 365 msec
