                         Program Version 4.2.1 -  RELEASE  -
|  1> %pal
|  2>  nprocs 32
|  3> end
|  4> !RI-MP2 aug-cc-pVTZ aug-cc-pVTZ/C TightSCF
|  5> %maxcore 4500
|  6> *xyzfile 0 1  07_3TS.xyz
|  7>
|  8>
|  9>                          ****END OF INPUT****

CARTESIAN COORDINATES (ANGSTROEM)
---------------------------------
  C     -0.298581    1.353158    0.000939
  C      0.851205    0.557217    0.001191
  C      0.593991   -0.819741   -0.000256
  N     -0.583125   -1.455956   -0.000113
  C     -1.624069   -0.637345   -0.004586
  N     -1.499633    0.703263   -0.000068
  N      2.210100    0.805333    0.002254
  C      2.756113   -0.367706    0.001656
  N      1.829784   -1.396073    0.000524
  N     -2.873907   -1.162049   -0.040499
  O     -0.584720    2.591363   -0.000460
  H      3.817362   -0.565303    0.002002
  H      2.012700   -2.386690   -0.003060
  H     -1.786641    1.966650   -0.005093
  H     -3.660424   -0.569681    0.160796
  H     -2.959715   -2.151010    0.120684

 Total Charge           Charge          ....    0
 Multiplicity           Mult            ....    1
 Number of Electrons    NEL             ....   78
 Basis Dimension        Dim             ....  621

ORBITAL ENERGIES
----------------

  NO   OCC          E(Eh)            E(eV)
   0   2.0000     -20.549464      -559.1794
   1   2.0000     -15.632389      -425.3789
   2   2.0000     -15.598843      -424.4661
   3   2.0000     -15.588328      -424.1800
   4   2.0000     -15.567013      -423.6000
   5   2.0000     -15.559560      -423.3972
   6   2.0000     -11.383501      -309.7608
   7   2.0000     -11.362675      -309.1941
   8   2.0000     -11.332797      -308.3811
   9   2.0000     -11.317112      -307.9543
  10   2.0000     -11.252227      -306.1887
  11   2.0000      -1.423194       -38.7271
  12   2.0000      -1.370746       -37.2999
  13   2.0000      -1.327299       -36.1176
  14   2.0000      -1.218768       -33.1644
  15   2.0000      -1.203029       -32.7361
  16   2.0000      -1.172614       -31.9085
  17   2.0000      -1.040099       -28.3025
  18   2.0000      -0.901883       -24.5415
  19   2.0000      -0.896865       -24.4049
  20   2.0000      -0.844590       -22.9825
  21   2.0000      -0.812043       -22.0968
  22   2.0000      -0.738275       -20.0895
  23   2.0000      -0.712280       -19.3821
  24   2.0000      -0.700060       -19.0496
  25   2.0000      -0.670057       -18.2332
  26   2.0000      -0.659659       -17.9502
  27   2.0000      -0.623308       -16.9611
  28   2.0000      -0.617183       -16.7944
  29   2.0000      -0.599535       -16.3142
  30   2.0000      -0.560311       -15.2468
  31   2.0000      -0.545354       -14.8398
  32   2.0000      -0.503805       -13.7092
  33   2.0000      -0.461594       -12.5606
  34   2.0000      -0.453507       -12.3405
  35   2.0000      -0.430860       -11.7243
  36   2.0000      -0.429369       -11.6837
  37   2.0000      -0.401334       -10.9209
  38   2.0000      -0.309185        -8.4134
  39   0.0000       0.019173         0.5217
  40   0.0000       0.023728         0.6457
  41   0.0000       0.038125         1.0374
  42   0.0000       0.045293         1.2325
  43   0.0000       0.055817         1.5189

MULLIKEN ATOMIC CHARGES
-----------------------
   0 C :    0.134891
   1 C :    1.194751
   2 C :    0.538227
   3 N :   -0.404142
   4 C :    0.081306
   5 N :   -0.186492
   6 N :   -0.729352
   7 C :   -0.720033
   8 N :    0.013643
   9 N :   -0.469692
  10 O :   -0.870632
  11 H :    0.657171
  12 H :    0.078398
  13 H :    0.450747
  14 H :    0.128265
  15 H :    0.102944
Sum of atomic charges:    0.0000000

LOEWDIN ATOMIC CHARGES
----------------------
   0 C :   -0.594172
   1 C :   -0.290270
   2 C :   -0.444277
   3 N :    0.421653
   4 C :   -0.559902
   5 N :    0.504904
   6 N :    0.388299
   7 C :   -0.052704
   8 N :    0.569236
   9 N :    0.864132
  10 O :    0.615093
  11 H :   -0.172155
  12 H :   -0.238197
  13 H :   -0.429131
  14 H :   -0.289197
  15 H :   -0.293311

  Mayer bond orders larger than 0.100000
B(  0-C ,  2-C ) :   0.6292 B(  0-C ,  3-N ) :   0.1459 B(  0-C ,  4-C ) :  -0.3475
B(  0-C ,  5-N ) :   1.0354 B(  0-C , 10-O ) :   0.6214 B(  0-C , 13-H ) :  -0.1624
B(  1-C ,  2-C ) :   1.4289 B(  1-C ,  5-N ) :  -0.2608 B(  1-C ,  7-C ) :  -0.1333
B(  1-C , 10-O ) :   0.2355 B(  2-C ,  3-N ) :   0.7282 B(  2-C ,  4-C ) :  -0.5474
B(  2-C ,  7-C ) :  -0.6501 B(  2-C ,  8-N ) :   0.8225 B(  3-N ,  4-C ) :   1.2388
B(  3-N ,  8-N ) :  -0.2482 B(  3-N ,  9-N ) :  -0.2634 B(  4-C ,  5-N ) :   1.0564
B(  4-C ,  9-N ) :   1.0947 B(  5-N ,  9-N ) :  -0.2079 B(  5-N , 13-H ) :   0.5078
B(  6-N ,  7-C ) :   1.8832 B(  7-C ,  8-N ) :   1.1334 B(  7-C , 11-H ) :   0.4668
B(  8-N , 12-H ) :   1.1479 B(  9-N , 14-H ) :   1.0774 B(  9-N , 15-H ) :   1.0967
B( 10-O , 13-H ) :   0.4079

MP2 TOTAL ENERGY:     -541.570042086 Eh
FINAL SINGLE POINT ENERGY      -541.570042085748

DIPOLE MOMENT
-------------
                                X             Y             Z
Electronic contribution:      1.90362       1.37967      -0.05513
Nuclear contribution   :     -2.51177      -3.56693       0.26665
                        -----------------------------------------
Total Dipole Moment    :     -0.60815      -2.18725       0.21152
                        -----------------------------------------
Magnitude (a.u.)       :      2.28006
Magnitude (Debye)      :      5.79545

Rotational constants in cm-1:     0.066223     0.037129     0.023795
Rotational constants in MHz :  1985.322173  1113.098050   713.344259

                             ****ORCA TERMINATED NORMALLY****
TOTAL RUN TIME: 0 days 0 hours 4 minutes 18 seconds 252 msec
