                         Program Version 4.2.1 -  RELEASE  -
|  1> %pal
|  2>  nprocs 32
|  3> end
|  4> !RI-MP2 aug-cc-pVTZ aug-cc-pVTZ/C TightSCF
|  5> %maxcore 4500
|  6> *xyzfile 0 2  04_21R.xyz
|  7>
|  8>
|  9>                          ****END OF INPUT****

CARTESIAN COORDINATES (ANGSTROEM)
---------------------------------
  C     -1.888885   -0.310783   -0.079125
  C     -1.230198    1.025750    0.202820
  C      0.179584    1.210541   -0.347019
  H     -1.226762    1.173691    1.289464
  H     -1.888047    1.807222   -0.191302
  C      1.209643    0.343284    0.288454
  H      0.458526    2.268903   -0.218722
  H      0.177965    1.055677   -1.434564
  C      2.586617    0.249707   -0.265703
  H      1.017186   -0.052581    1.281680
  N     -1.342322   -1.308366   -0.636464
  C     -3.323583   -0.414814    0.357931
  H     -3.417846   -0.199778    1.426131
  H     -3.700879   -1.415200    0.156601
  H     -3.940414    0.316607   -0.171873
  C      3.422617   -0.863289    0.359251
  H      3.106773    1.212587   -0.129545
  H      2.534873    0.112597   -1.353781
  H      4.429340   -0.888363   -0.061994
  H      2.961702   -1.838995    0.191145
  H      3.515799   -0.721136    1.438702
  H     -0.366742   -1.115044   -0.866342

 Total Charge           Charge          ....    0
 Multiplicity           Mult            ....    2
 Number of Electrons    NEL             ....   63
 Basis Dimension        Dim             ....  690

ORBITAL ENERGIES
----------------
                 SPIN UP ORBITALS
  NO   OCC          E(Eh)            E(eV)
   0   1.0000     -15.532694      -422.6661
   1   1.0000     -11.277630      -306.8799
   2   1.0000     -11.236776      -305.7682
   3   1.0000     -11.231618      -305.6279
   4   1.0000     -11.229848      -305.5797
   5   1.0000     -11.225065      -305.4495
   6   1.0000     -11.219091      -305.2870
   7   1.0000     -11.215224      -305.1818
   8   1.0000      -1.210835       -32.9485
   9   1.0000      -1.098132       -29.8817
  10   1.0000      -1.036467       -28.2037
  11   1.0000      -0.991830       -26.9891
  12   1.0000      -0.934146       -25.4194
  13   1.0000      -0.848982       -23.1020
  14   1.0000      -0.790316       -21.5056
  15   1.0000      -0.733441       -19.9580
  16   1.0000      -0.669768       -18.2253
  17   1.0000      -0.630193       -17.1484
  18   1.0000      -0.621403       -16.9092
  19   1.0000      -0.606594       -16.5063
  20   1.0000      -0.584035       -15.8924
  21   1.0000      -0.564347       -15.3567
  22   1.0000      -0.556554       -15.1446
  23   1.0000      -0.544464       -14.8156
  24   1.0000      -0.525778       -14.3071
  25   1.0000      -0.507083       -13.7984
  26   1.0000      -0.493709       -13.4345
  27   1.0000      -0.486340       -13.2340
  28   1.0000      -0.473001       -12.8710
  29   1.0000      -0.415990       -11.3197
  30   1.0000      -0.406697       -11.0668
  31   1.0000      -0.329291        -8.9605
  32   0.0000       0.027551         0.7497
  33   0.0000       0.030959         0.8424
  34   0.0000       0.033949         0.9238
  35   0.0000       0.037800         1.0286
  36   0.0000       0.047533         1.2934

                 SPIN DOWN ORBITALS
  NO   OCC          E(Eh)            E(eV)
   0   1.0000     -15.531744      -422.6402
   1   1.0000     -11.278006      -306.8901
   2   1.0000     -11.236410      -305.7583
   3   1.0000     -11.234708      -305.7119
   4   1.0000     -11.228271      -305.5368
   5   1.0000     -11.219009      -305.2848
   6   1.0000     -11.214810      -305.1705
   7   1.0000     -11.205953      -304.9295
   8   1.0000      -1.208913       -32.8962
   9   1.0000      -1.073485       -29.2110
  10   1.0000      -1.034808       -28.1586
  11   1.0000      -0.989407       -26.9231
  12   1.0000      -0.915125       -24.9018
  13   1.0000      -0.846711       -23.0402
  14   1.0000      -0.754700       -20.5364
  15   1.0000      -0.731540       -19.9062
  16   1.0000      -0.661057       -17.9883
  17   1.0000      -0.626577       -17.0500
  18   1.0000      -0.605534       -16.4774
  19   1.0000      -0.601278       -16.3616
  20   1.0000      -0.581071       -15.8118
  21   1.0000      -0.556545       -15.1444
  22   1.0000      -0.552245       -15.0273
  23   1.0000      -0.542591       -14.7646
  24   1.0000      -0.514685       -14.0053
  25   1.0000      -0.503674       -13.7057
  26   1.0000      -0.486050       -13.2261
  27   1.0000      -0.481191       -13.0939
  28   1.0000      -0.468341       -12.7442
  29   1.0000      -0.410426       -11.1682
  30   1.0000      -0.402932       -10.9643
  31   0.0000       0.027627         0.7518
  32   0.0000       0.030986         0.8432
  33   0.0000       0.034060         0.9268
  34   0.0000       0.037865         1.0303
  35   0.0000       0.047584         1.2948

MULLIKEN ATOMIC CHARGES AND SPIN POPULATIONS
--------------------------------------------
   0 C :    0.593685   -0.025525
   1 C :   -0.378536    0.025600
   2 C :   -0.385033   -0.256851
   3 H :    0.177393   -0.007159
   4 H :    0.294436   -0.004797
   5 C :   -0.259785    1.406964
   6 H :    0.365759    0.117120
   7 H :    0.107399    0.017927
   8 C :   -0.498332   -0.259607
   9 H :    0.389880   -0.146438
  10 N :   -0.928207    0.029761
  11 C :   -0.940847    0.004221
  12 H :    0.264983   -0.000805
  13 H :    0.294972    0.000126
  14 H :    0.284770   -0.000468
  15 C :   -0.945162    0.036529
  16 H :    0.242962    0.066518
  17 H :    0.223989    0.018814
  18 H :    0.280012   -0.003582
  19 H :    0.271237   -0.003354
  20 H :    0.257545   -0.001187
  21 H :    0.286880   -0.013807
Sum of atomic charges         :    0.0000000

LOEWDIN ATOMIC CHARGES AND SPIN POPULATIONS
-------------------------------------------
   0 C :   -0.299434   -0.001311
   1 C :    0.279428    0.003663
   2 C :    0.235606    0.109886
   3 H :   -0.142648   -0.000364
   4 H :   -0.145516   -0.000360
   5 C :    0.271129    0.539245
   6 H :   -0.137930    0.028690
   7 H :   -0.146981    0.011327
   8 C :    0.222859    0.113225
   9 H :   -0.168566    0.108306
  10 N :    0.693350    0.018374
  11 C :    0.569974   -0.000626
  12 H :   -0.168853   -0.000025
  13 H :   -0.182696    0.000115
  14 H :   -0.169196   -0.000213
  15 C :    0.568628    0.007131
  16 H :   -0.146498    0.028152
  17 H :   -0.154257    0.012174
  18 H :   -0.172522    0.000258
  19 H :   -0.169538    0.002134
  20 H :   -0.172294   -0.000019
  21 H :   -0.464047    0.020236

  Mayer bond orders larger than 0.100000
B(  0-C ,  1-C ) :   0.8213 B(  0-C ,  2-C ) :   0.1040 B(  0-C , 10-N ) :   1.0279
B(  0-C , 11-C ) :   0.7898 B(  1-C ,  2-C ) :   0.9980 B(  1-C ,  3-H ) :   0.9767
B(  1-C ,  4-H ) :   0.9671 B(  1-C ,  5-C ) :   0.1035 B(  2-C ,  5-C ) :   0.6780
B(  2-C ,  6-H ) :   0.8894 B(  2-C ,  7-H ) :   1.0202 B(  5-C ,  8-C ) :   0.7156
B(  5-C ,  9-H ) :   0.7906 B(  8-C , 15-C ) :   0.9305 B(  8-C , 16-H ) :   0.9411
B(  8-C , 17-H ) :   0.9965 B( 10-N , 21-H ) :   0.7331 B( 11-C , 12-H ) :   0.9909
B( 11-C , 13-H ) :   0.9408 B( 11-C , 14-H ) :   0.9893 B( 15-C , 18-H ) :   0.9853
B( 15-C , 19-H ) :   0.9508 B( 15-C , 20-H ) :   0.9693

MP2 TOTAL ENERGY:     -329.146140330 Eh
FINAL SINGLE POINT ENERGY      -329.146140329827

DIPOLE MOMENT
-------------
                                X             Y             Z
Electronic contribution:     -3.64279      -0.76434      -1.08279
Nuclear contribution   :      3.85298       1.80174       1.42563
                        -----------------------------------------
Total Dipole Moment    :      0.21018       1.03740       0.34284
                        -----------------------------------------
Magnitude (a.u.)       :      1.11262
Magnitude (Debye)      :      2.82805

Rotational constants in cm-1:     0.147854     0.028676     0.025849
Rotational constants in MHz :  4432.537673   859.675235   774.942148

                             ****ORCA TERMINATED NORMALLY****
TOTAL RUN TIME: 0 days 0 hours 8 minutes 35 seconds 661 msec
