                         Program Version 4.2.1 -  RELEASE  -
|  1> %pal
|  2>  nprocs 32
|  3> end
|  4> !RI-MP2 aug-cc-pVTZ aug-cc-pVTZ/C TightSCF
|  5> %maxcore 4500
|  6> *xyzfile 0 1  02_36R.xyz
|  7>
|  8>
|  9>                          ****END OF INPUT****

CARTESIAN COORDINATES (ANGSTROEM)
---------------------------------
  C     -0.234304   -0.149218    0.669519
  C      2.173314   -0.550409    0.031958
  C     -1.405148   -0.734324    0.969644
  C      2.598668    0.858057   -0.155477
  C      0.925351   -0.945334    0.377263
  C      4.069940    1.185184    0.023660
  C      2.154727    3.109625   -0.658072
  C      3.171416   -1.641337   -0.161734
  C     -2.693853   -0.042987    1.225299
  H     -3.229322   -0.602078    2.003145
  C     -2.556271    1.419365    1.657035
  H     -1.906933    1.510392    2.531547
  H     -2.126423    2.037997    0.866625
  H     -3.528015    1.843819    1.915543
  N      1.733138    1.736254   -0.476481
  Si    -3.795771   -0.212965   -0.335515
  C     -5.518626    0.405830    0.084025
  C     -3.053663    0.809776   -1.718855
  C     -3.879828   -2.019570   -0.835865
  H     -3.092086    1.878425   -1.495816
  H     -3.598149    0.649097   -2.652918
  H     -2.008283    0.542932   -1.889925
  H     -5.513383    1.462118    0.361998
  H     -5.953375   -0.157110    0.913985
  H     -6.186489    0.295977   -0.774418
  H      1.296691    3.708373   -0.962070
  H      2.925532    3.208018   -1.431886
  H      2.559646    3.544201    0.264070
  H     -4.223897   -2.649807   -0.011480
  H     -2.905293   -2.392210   -1.158940
  H     -4.576569   -2.156984   -1.666760
  C      4.617541   -1.225662   -0.309860
  C      4.911146    0.017136    0.518976
  O      2.857728   -2.813925   -0.190372
  H      4.457873    1.531982   -0.942008
  H      4.156761    2.039252    0.701040
  H      4.685786   -0.186769    1.570365
  H      5.971308    0.273070    0.468601
  H      5.237334   -2.078991   -0.035229
  H      4.800269   -1.018870   -1.371838
  H     -0.139202    0.924423    0.609195
  H     -1.439173   -1.822397    0.977878
  H      0.799933   -2.022523    0.459744

 Total Charge           Charge          ....    0
 Multiplicity           Mult            ....    1
 Number of Electrons    NEL             ....  144
 Basis Dimension        Dim             .... 1407

ORBITAL ENERGIES
----------------

  NO   OCC          E(Eh)            E(eV)
   0   2.0000     -68.754671     -1870.9097
   1   2.0000     -20.523992      -558.4862
   2   2.0000     -15.539026      -422.8384
   3   2.0000     -11.318111      -307.9815
   4   2.0000     -11.283019      -307.0265
   5   2.0000     -11.256322      -306.3001
   6   2.0000     -11.250867      -306.1516
   7   2.0000     -11.242541      -305.9251
   8   2.0000     -11.238495      -305.8150
   9   2.0000     -11.236189      -305.7523
  10   2.0000     -11.230292      -305.5918
  11   2.0000     -11.225015      -305.4482
  12   2.0000     -11.220547      -305.3266
  13   2.0000     -11.219502      -305.2982
  14   2.0000     -11.217769      -305.2510
  15   2.0000     -11.199805      -304.7622
  16   2.0000     -11.198755      -304.7336
  17   2.0000     -11.193881      -304.6010
  18   2.0000      -6.102380      -166.0542
  19   2.0000      -4.208570      -114.5210
  20   2.0000      -4.208498      -114.5191
  21   2.0000      -4.208408      -114.5166
  22   2.0000      -1.371133       -37.3104
  23   2.0000      -1.232192       -33.5296
  24   2.0000      -1.116953       -30.3938
  25   2.0000      -1.103166       -30.0187
  26   2.0000      -1.061206       -28.8769
  27   2.0000      -0.998445       -27.1691
  28   2.0000      -0.984199       -26.7814
  29   2.0000      -0.963936       -26.2300
  30   2.0000      -0.936576       -25.4855
  31   2.0000      -0.926087       -25.2001
  32   2.0000      -0.923271       -25.1235
  33   2.0000      -0.897596       -24.4248
  34   2.0000      -0.858129       -23.3509
  35   2.0000      -0.808102       -21.9896
  36   2.0000      -0.765477       -20.8297
  37   2.0000      -0.738520       -20.0962
  38   2.0000      -0.695743       -18.9321
  39   2.0000      -0.668595       -18.1934
  40   2.0000      -0.655469       -17.8362
  41   2.0000      -0.646259       -17.5856
  42   2.0000      -0.639320       -17.3968
  43   2.0000      -0.611988       -16.6530
  44   2.0000      -0.602106       -16.3841
  45   2.0000      -0.600171       -16.3315
  46   2.0000      -0.597233       -16.2515
  47   2.0000      -0.585492       -15.9320
  48   2.0000      -0.572093       -15.5674
  49   2.0000      -0.570983       -15.5372
  50   2.0000      -0.565421       -15.3859
  51   2.0000      -0.563835       -15.3427
  52   2.0000      -0.561820       -15.2879
  53   2.0000      -0.549507       -14.9528
  54   2.0000      -0.540055       -14.6956
  55   2.0000      -0.536407       -14.5964
  56   2.0000      -0.534192       -14.5361
  57   2.0000      -0.530212       -14.4278
  58   2.0000      -0.523383       -14.2420
  59   2.0000      -0.512692       -13.9511
  60   2.0000      -0.503207       -13.6930
  61   2.0000      -0.490585       -13.3495
  62   2.0000      -0.483718       -13.1626
  63   2.0000      -0.481027       -13.0894
  64   2.0000      -0.454338       -12.3632
  65   2.0000      -0.431960       -11.7542
  66   2.0000      -0.429343       -11.6830
  67   2.0000      -0.427296       -11.6273
  68   2.0000      -0.400692       -10.9034
  69   2.0000      -0.385159       -10.4807
  70   2.0000      -0.380273       -10.3477
  71   2.0000      -0.298717        -8.1285
  72   0.0000       0.022361         0.6085
  73   0.0000       0.025202         0.6858
  74   0.0000       0.031126         0.8470
  75   0.0000       0.031871         0.8672
  76   0.0000       0.037400         1.0177

MULLIKEN ATOMIC CHARGES
-----------------------
   0 C :    0.639756
   1 C :    1.876269
   2 C :   -1.101234
   3 C :    0.758561
   4 C :   -1.611334
   5 C :   -0.241384
   6 C :   -1.087584
   7 C :    0.679464
   8 C :    0.625426
   9 H :    0.503684
  10 C :   -1.150943
  11 H :    0.218821
  12 H :    0.333887
  13 H :    0.216423
  14 N :   -0.927186
  15 Si:    2.235286
  16 C :   -1.486154
  17 C :   -1.276984
  18 C :   -1.460692
  19 H :    0.227561
  20 H :    0.163525
  21 H :    0.406712
  22 H :    0.245684
  23 H :    0.244005
  24 H :    0.207594
  25 H :    0.385502
  26 H :    0.317584
  27 H :    0.330409
  28 H :    0.233546
  29 H :    0.314056
  30 H :    0.157751
  31 C :   -0.304276
  32 C :   -0.591247
  33 O :   -1.220013
  34 H :    0.270133
  35 H :    0.357521
  36 H :    0.206261
  37 H :    0.278994
  38 H :    0.337260
  39 H :    0.235300
  40 H :    0.221142
  41 H :   -0.241519
  42 H :   -0.527569
Sum of atomic charges:    0.0000000

LOEWDIN ATOMIC CHARGES
----------------------
   0 C :    0.225362
   1 C :   -0.067291
   2 C :    0.190311
   3 C :   -0.263592
   4 C :    0.224796
   5 C :    0.289249
   6 C :    0.396591
   7 C :   -0.528316
   8 C :   -0.015033
   9 H :   -0.184026
  10 C :    0.535804
  11 H :   -0.155884
  12 H :   -0.176523
  13 H :   -0.169236
  14 N :    0.406541
  15 Si:    0.515001
  16 C :    0.587442
  17 C :    0.591895
  18 C :    0.587030
  19 H :   -0.226970
  20 H :   -0.224985
  21 H :   -0.223438
  22 H :   -0.232068
  23 H :   -0.224744
  24 H :   -0.227409
  25 H :   -0.187190
  26 H :   -0.178800
  27 H :   -0.179638
  28 H :   -0.223306
  29 H :   -0.228407
  30 H :   -0.226554
  31 C :    0.290919
  32 C :    0.286168
  33 O :    0.476569
  34 H :   -0.140758
  35 H :   -0.150830
  36 H :   -0.134407
  37 H :   -0.135421
  38 H :   -0.150488
  39 H :   -0.134533
  40 H :   -0.244748
  41 H :   -0.166111
  42 H :   -0.202974

  Mayer bond orders larger than 0.100000
B(  0-C ,  2-C ) :   0.6064 B(  0-C ,  3-C ) :   0.1371 B(  0-C ,  4-C ) :   0.1032
B(  0-C ,  8-C ) :   0.3173 B(  0-C , 10-C ) :  -0.1894 B(  0-C , 14-N ) :   0.2097
B(  0-C , 40-H ) :   1.4757 B(  0-C , 41-H ) :  -0.3640 B(  0-C , 42-H ) :  -0.3768
B(  1-C ,  2-C ) :   0.2935 B(  1-C ,  3-C ) :   0.2628 B(  1-C ,  7-C ) :   0.9004
B(  1-C ,  8-C ) :   0.1743 B(  1-C , 14-N ) :  -0.1261 B(  1-C , 31-C ) :   0.1079
B(  1-C , 40-H ) :  -0.3480 B(  1-C , 42-H ) :  -1.0312 B(  2-C ,  4-C ) :   0.1922
B(  2-C ,  8-C ) :   0.3313 B(  2-C ,  9-H ) :  -0.4675 B(  2-C , 10-C ) :   0.2683
B(  2-C , 15-Si) :   0.2047 B(  2-C , 41-H ) :   2.0885 B(  2-C , 42-H ) :  -0.2772
B(  3-C ,  4-C ) :   0.3469 B(  3-C ,  5-C ) :   0.5251 B(  3-C ,  7-C ) :  -0.1906
B(  3-C , 14-N ) :   0.7413 B(  3-C , 32-C ) :   0.1137 B(  3-C , 34-H ) :  -0.1915
B(  3-C , 35-H ) :  -0.1719 B(  4-C ,  5-C ) :  -0.1252 B(  4-C ,  7-C ) :   0.5190
B(  4-C ,  8-C ) :  -0.2588 B(  4-C , 14-N ) :   0.1374 B(  4-C , 40-H ) :   0.1742
B(  4-C , 41-H ) :   0.1162 B(  4-C , 42-H ) :   2.7710 B(  5-C , 14-N ) :  -0.3200
B(  5-C , 32-C ) :   0.9393 B(  5-C , 34-H ) :   1.0703 B(  5-C , 35-H ) :   0.9342
B(  6-C , 14-N ) :   1.0254 B(  6-C , 25-H ) :   0.8967 B(  6-C , 26-H ) :   0.9034
B(  6-C , 27-H ) :   0.9360 B(  7-C , 31-C ) :   0.6805 B(  7-C , 32-C ) :   0.1608
B(  7-C , 33-O ) :   0.4658 B(  7-C , 40-H ) :  -0.1072 B(  8-C ,  9-H ) :   0.9104
B(  8-C , 10-C ) :   0.6645 B(  8-C , 15-Si) :   0.9320 B(  8-C , 17-C ) :   0.1372
B(  8-C , 41-H ) :  -0.3044 B(  9-H , 41-H ) :  -0.1258 B( 10-C , 11-H ) :   1.0672
B( 10-C , 12-H ) :   0.9872 B( 10-C , 13-H ) :   1.0579 B( 15-Si, 16-C ) :   0.2203
B( 15-Si, 17-C ) :   0.4553 B( 15-Si, 18-C ) :   0.2521 B( 16-C , 17-C ) :   0.1911
B( 16-C , 18-C ) :   0.1886 B( 16-C , 22-H ) :   1.0327 B( 16-C , 23-H ) :   1.0027
B( 16-C , 24-H ) :   1.0986 B( 17-C , 18-C ) :   0.1637 B( 17-C , 19-H ) :   1.0375
B( 17-C , 20-H ) :   1.0675 B( 17-C , 21-H ) :   0.8317 B( 18-C , 28-H ) :   1.0295
B( 18-C , 29-H ) :   0.9476 B( 18-C , 30-H ) :   1.1059 B( 31-C , 32-C ) :   0.9664
B( 31-C , 38-H ) :   0.8768 B( 31-C , 39-H ) :   1.0071 B( 32-C , 36-H ) :   1.0112
B( 32-C , 37-H ) :   0.9509 B( 33-O , 42-H ) :   0.2268

MP2 TOTAL ENERGY:    -1004.204271807 Eh
FINAL SINGLE POINT ENERGY     -1004.204271806909

DIPOLE MOMENT
-------------
                                X             Y             Z
Electronic contribution:     13.46501      -9.39967       1.08646
Nuclear contribution   :    -13.60112      10.61529      -0.75447
                        -----------------------------------------
Total Dipole Moment    :     -0.13611       1.21562       0.33199
                        -----------------------------------------
Magnitude (a.u.)       :      1.26747
Magnitude (Debye)      :      3.22165

Rotational constants in cm-1:     0.023016     0.005534     0.004916
Rotational constants in MHz :   690.000903   165.892977   147.368738

                             ****ORCA TERMINATED NORMALLY****
TOTAL RUN TIME: 0 days 0 hours 52 minutes 29 seconds 637 msec
