                         Program Version 4.2.1 -  RELEASE  -
|  1> %pal
|  2>  nprocs 32
|  3> end
|  4> !RI-MP2 aug-cc-pVTZ aug-cc-pVTZ/C TightSCF
|  5> %maxcore 4500
|  6> *xyzfile 0 1  05_38R1.xyz
|  7>
|  8>
|  9>                          ****END OF INPUT****

CARTESIAN COORDINATES (ANGSTROEM)
---------------------------------
  C     -0.452669   -1.652327    0.772017
  C     -1.438372   -0.582074    0.361216
  C     -2.565801   -0.897974   -0.386557
  C     -1.234871    0.739151    0.751236
  C     -3.484767    0.085215   -0.732652
  H     -2.726199   -1.922120   -0.706729
  C     -2.145254    1.723804    0.400515
  H     -0.347857    0.988942    1.321148
  C     -3.275661    1.398860   -0.340337
  H     -4.359591   -0.175151   -1.316496
  H     -1.975007    2.749206    0.706774
  O      0.892502   -1.241338    0.679228
  C      1.354026   -1.102497   -0.653441
  H      0.699549   -0.418022   -1.208735
  H      1.317645   -2.080205   -1.154030
  H     -3.987204    2.168676   -0.613631
  C      2.769127   -0.566609   -0.625073
  H      3.152940   -0.562396   -1.651358
  H      3.397103   -1.259103   -0.055222
  C      2.872339    0.834381   -0.030629
  H      2.226188    1.512467   -0.599221
  H      2.479380    0.814757    0.988602
  C      4.300293    1.366857   -0.026646
  H      4.706898    1.418373   -1.040548
  H      4.352211    2.369458    0.403095
  H      4.958468    0.720217    0.559880
  H     -0.605467   -1.916425    1.820818
  H     -0.619409   -2.558693    0.173935

 Total Charge           Charge          ....    0
 Multiplicity           Mult            ....    1
 Number of Electrons    NEL             ....   90
 Basis Dimension        Dim             ....  920

ORBITAL ENERGIES
----------------

  NO   OCC          E(Eh)            E(eV)
   0   2.0000     -20.554205      -559.3083
   1   2.0000     -11.279478      -306.9302
   2   2.0000     -11.267755      -306.6112
   3   2.0000     -11.237036      -305.7753
   4   2.0000     -11.234963      -305.7189
   5   2.0000     -11.234135      -305.6963
   6   2.0000     -11.232641      -305.6557
   7   2.0000     -11.231859      -305.6344
   8   2.0000     -11.228835      -305.5521
   9   2.0000     -11.214485      -305.1617
  10   2.0000     -11.211659      -305.0847
  11   2.0000     -11.207727      -304.9778
  12   2.0000      -1.376980       -37.4695
  13   2.0000      -1.157319       -31.4923
  14   2.0000      -1.072778       -29.1918
  15   2.0000      -1.038743       -28.2656
  16   2.0000      -1.016267       -27.6540
  17   2.0000      -0.981107       -26.6973
  18   2.0000      -0.912715       -24.8362
  19   2.0000      -0.854032       -23.2394
  20   2.0000      -0.828598       -22.5473
  21   2.0000      -0.801650       -21.8140
  22   2.0000      -0.782359       -21.2891
  23   2.0000      -0.704340       -19.1661
  24   2.0000      -0.674093       -18.3430
  25   2.0000      -0.651712       -17.7340
  26   2.0000      -0.644437       -17.5360
  27   2.0000      -0.626423       -17.0458
  28   2.0000      -0.618176       -16.8214
  29   2.0000      -0.603132       -16.4121
  30   2.0000      -0.585840       -15.9415
  31   2.0000      -0.576772       -15.6948
  32   2.0000      -0.564992       -15.3742
  33   2.0000      -0.529617       -14.4116
  34   2.0000      -0.526228       -14.3194
  35   2.0000      -0.507393       -13.8069
  36   2.0000      -0.498322       -13.5600
  37   2.0000      -0.495084       -13.4719
  38   2.0000      -0.479269       -13.0416
  39   2.0000      -0.470799       -12.8111
  40   2.0000      -0.463016       -12.5993
  41   2.0000      -0.454056       -12.3555
  42   2.0000      -0.420343       -11.4381
  43   2.0000      -0.338632        -9.2146
  44   2.0000      -0.331294        -9.0150
  45   0.0000       0.027381         0.7451
  46   0.0000       0.031139         0.8473
  47   0.0000       0.032758         0.8914
  48   0.0000       0.037148         1.0109
  49   0.0000       0.041708         1.1349

MULLIKEN ATOMIC CHARGES
-----------------------
   0 C :   -0.253983
   1 C :    1.464622
   2 C :   -1.099333
   3 C :   -0.817832
   4 C :   -0.503332
   5 H :   -0.091439
   6 C :   -0.761352
   7 H :    0.340659
   8 C :   -0.131051
   9 H :    0.601536
  10 H :    0.456647
  11 O :   -0.685422
  12 C :   -0.286746
  13 H :    0.342274
  14 H :    0.333941
  15 H :    0.424466
  16 C :   -0.514109
  17 H :    0.292783
  18 H :    0.205397
  19 C :   -0.336378
  20 H :    0.219483
  21 H :    0.274042
  22 C :   -0.996217
  23 H :    0.259081
  24 H :    0.279727
  25 H :    0.263990
  26 H :    0.412814
  27 H :    0.305734
Sum of atomic charges:    0.0000000

LOEWDIN ATOMIC CHARGES
----------------------
   0 C :    0.023054
   1 C :   -0.127293
   2 C :    0.211061
   3 C :    0.209458
   4 C :    0.196011
   5 H :   -0.176816
   6 C :    0.200208
   7 H :   -0.174009
   8 C :    0.191626
   9 H :   -0.182824
  10 H :   -0.181726
  11 O :    0.584770
  12 C :    0.019657
  13 H :   -0.150864
  14 H :   -0.141684
  15 H :   -0.185011
  16 C :    0.268236
  17 H :   -0.142180
  18 H :   -0.141144
  19 C :    0.247143
  20 H :   -0.144698
  21 H :   -0.155164
  22 C :    0.576284
  23 H :   -0.170624
  24 H :   -0.172788
  25 H :   -0.169530
  26 H :   -0.150450
  27 H :   -0.160705

  Mayer bond orders larger than 0.100000
B(  0-C ,  1-C ) :   0.4463 B(  0-C ,  2-C ) :   0.1754 B(  0-C ,  3-C ) :   0.2334
B(  0-C , 11-O ) :   0.9552 B(  0-C , 26-H ) :   0.8881 B(  0-C , 27-H ) :   1.0044
B(  1-C ,  2-C ) :   0.1392 B(  1-C ,  3-C ) :   0.7444 B(  1-C ,  4-C ) :   0.2278
B(  1-C ,  5-H ) :  -0.3368 B(  1-C ,  7-H ) :  -0.1726 B(  2-C ,  3-C ) :  -0.1871
B(  2-C ,  4-C ) :   1.1721 B(  2-C ,  5-H ) :   1.9473 B(  2-C ,  6-C ) :   0.1196
B(  2-C ,  7-H ) :   0.2659 B(  2-C ,  8-C ) :  -0.2736 B(  2-C ,  9-H ) :  -0.1899
B(  2-C , 15-H ) :   0.2528 B(  3-C ,  5-H ) :   0.1168 B(  3-C ,  6-C ) :   1.4122
B(  3-C ,  7-H ) :   1.0052 B(  3-C ,  8-C ) :  -0.1272 B(  4-C ,  5-H ) :  -0.1488
B(  4-C ,  6-C ) :   0.2318 B(  4-C ,  8-C ) :   1.0641 B(  4-C ,  9-H ) :   0.5773
B(  4-C , 15-H ) :  -0.1891 B(  6-C ,  8-C ) :   1.1219 B(  6-C , 10-H ) :   0.7857
B(  6-C , 15-H ) :  -0.1957 B(  8-C , 15-H ) :   0.8762 B( 11-O , 12-C ) :   0.9088
B( 12-C , 13-H ) :   0.9175 B( 12-C , 14-H ) :   0.8887 B( 12-C , 16-C ) :   0.9208
B( 16-C , 17-H ) :   0.9627 B( 16-C , 18-H ) :   1.0020 B( 16-C , 19-C ) :   0.8737
B( 19-C , 20-H ) :   0.9881 B( 19-C , 21-H ) :   0.9689 B( 19-C , 22-C ) :   0.7710
B( 22-C , 23-H ) :   0.9974 B( 22-C , 24-H ) :   0.9719 B( 22-C , 25-H ) :   0.9970

MP2 TOTAL ENERGY:     -502.986083186 Eh
FINAL SINGLE POINT ENERGY      -502.986083185632

DIPOLE MOMENT
-------------
                                X             Y             Z
Electronic contribution:    -13.28399      -1.94520       2.05149
Nuclear contribution   :     13.05273       1.88367      -2.42970
                        -----------------------------------------
Total Dipole Moment    :     -0.23126      -0.06153      -0.37821
                        -----------------------------------------
Magnitude (a.u.)       :      0.44756
Magnitude (Debye)      :      1.13761

Rotational constants in cm-1:     0.057698     0.015164     0.013150
Rotational constants in MHz :  1729.735453   454.602163   394.217789

                             ****ORCA TERMINATED NORMALLY****
TOTAL RUN TIME: 0 days 0 hours 12 minutes 53 seconds 199 msec
