                         Program Version 4.2.1 -  RELEASE  -
|  1> %pal
|  2>  nprocs 32
|  3> end
|  4> !RI-MP2 aug-cc-pVTZ aug-cc-pVTZ/C TightSCF
|  5> %maxcore 4500
|  6> *xyzfile 0 1  09_26R1.xyz
|  7>
|  8>
|  9>                          ****END OF INPUT****

CARTESIAN COORDINATES (ANGSTROEM)
---------------------------------
  C      2.618024    0.239804   -0.700101
  C      1.833182   -0.812192    0.056827
  C      0.566464   -1.201488   -0.686128
  O      3.013380    1.227813   -0.145451
  O      1.535740   -0.325159    1.346136
  H      2.473140   -1.704565    0.127071
  H      2.048192    0.493750    1.460028
  O     -0.232377   -0.042780   -0.885519
  H      0.026205   -1.970880   -0.131291
  H      0.821707   -1.600754   -1.669589
  P     -1.542102    0.285478    0.001569
  O     -2.617459   -0.829351   -0.416284
  H     -3.337580   -0.455123   -0.934813
  O     -1.165593   -0.229463    1.450798
  H     -0.210152   -0.166874    1.661098
  O     -1.986036    1.664202   -0.198844
  H      2.822752    0.043433   -1.766320

 Total Charge           Charge          ....    0
 Multiplicity           Mult            ....    1
 Number of Electrons    NEL             ....   88
 Basis Dimension        Dim             ....  625

ORBITAL ENERGIES
----------------

  NO   OCC          E(Eh)            E(eV)
   0   2.0000     -80.106664     -2179.8131
   1   2.0000     -20.610636      -560.8439
   2   2.0000     -20.606739      -560.7379
   3   2.0000     -20.603665      -560.6542
   4   2.0000     -20.602395      -560.6197
   5   2.0000     -20.591684      -560.3282
   6   2.0000     -20.508238      -558.0575
   7   2.0000     -11.371114      -309.4237
   8   2.0000     -11.337927      -308.5207
   9   2.0000     -11.333700      -308.4057
  10   2.0000      -7.622931      -207.4305
  11   2.0000      -5.521520      -150.2482
  12   2.0000      -5.521145      -150.2380
  13   2.0000      -5.519931      -150.2049
  14   2.0000      -1.466130       -39.8954
  15   2.0000      -1.452709       -39.5302
  16   2.0000      -1.411233       -38.4016
  17   2.0000      -1.394693       -37.9515
  18   2.0000      -1.379592       -37.5406
  19   2.0000      -1.297656       -35.3110
  20   2.0000      -1.082185       -29.4478
  21   2.0000      -0.943550       -25.6753
  22   2.0000      -0.860494       -23.4152
  23   2.0000      -0.830930       -22.6107
  24   2.0000      -0.781814       -21.2742
  25   2.0000      -0.748654       -20.3719
  26   2.0000      -0.729192       -19.8423
  27   2.0000      -0.723543       -19.6886
  28   2.0000      -0.708901       -19.2902
  29   2.0000      -0.674205       -18.3461
  30   2.0000      -0.650717       -17.7069
  31   2.0000      -0.639685       -17.4067
  32   2.0000      -0.622184       -16.9305
  33   2.0000      -0.592998       -16.1363
  34   2.0000      -0.582465       -15.8497
  35   2.0000      -0.573581       -15.6079
  36   2.0000      -0.561519       -15.2797
  37   2.0000      -0.548026       -14.9126
  38   2.0000      -0.537047       -14.6138
  39   2.0000      -0.530272       -14.4294
  40   2.0000      -0.487027       -13.2527
  41   2.0000      -0.469307       -12.7705
  42   2.0000      -0.465613       -12.6700
  43   2.0000      -0.463296       -12.6069
  44   0.0000       0.016157         0.4397
  45   0.0000       0.030505         0.8301
  46   0.0000       0.032073         0.8728
  47   0.0000       0.040066         1.0903
  48   0.0000       0.048521         1.3203

MULLIKEN ATOMIC CHARGES
-----------------------
   0 C :   -0.119626
   1 C :    0.425522
   2 C :   -0.117245
   3 O :   -0.815729
   4 O :   -0.616170
   5 H :    0.368820
   6 H :    0.205139
   7 O :   -0.622206
   8 H :    0.350737
   9 H :    0.338912
  10 P :    1.748096
  11 O :   -0.488750
  12 H :    0.165479
  13 O :   -0.624531
  14 H :    0.255300
  15 O :   -1.006519
  16 H :    0.552769
Sum of atomic charges:   -0.0000000

LOEWDIN ATOMIC CHARGES
----------------------
   0 C :   -0.158237
   1 C :   -0.260302
   2 C :   -0.017642
   3 O :    0.505125
   4 O :    0.885492
   5 H :   -0.133599
   6 H :   -0.526384
   7 O :    0.380227
   8 H :   -0.157402
   9 H :   -0.151597
  10 P :   -0.230190
  11 O :    0.631465
  12 H :   -0.549686
  13 O :    0.656433
  14 H :   -0.722899
  15 O :    0.003614
  16 H :   -0.154417

  Mayer bond orders larger than 0.100000
B(  0-C ,  1-C ) :   0.8324 B(  0-C ,  3-O ) :   1.4986 B(  0-C , 16-H ) :   0.6420
B(  1-C ,  2-C ) :   0.9168 B(  1-C ,  4-O ) :   0.5394 B(  1-C ,  5-H ) :   0.9251
B(  2-C ,  7-O ) :   0.6465 B(  2-C ,  8-H ) :   0.9301 B(  2-C ,  9-H ) :   0.8989
B(  4-O ,  6-H ) :   1.0258 B(  7-O , 10-P ) :   1.0526 B( 10-P , 11-O ) :   0.8245
B( 10-P , 13-O ) :   0.9435 B( 10-P , 15-O ) :   1.2519 B( 11-O , 12-H ) :   1.0056
B( 13-O , 14-H ) :   0.8822

MP2 TOTAL ENERGY:     -910.064257345 Eh
FINAL SINGLE POINT ENERGY      -910.064257344613

DIPOLE MOMENT
-------------
                                X             Y             Z
Electronic contribution:     -4.70067       3.38879       0.38437
Nuclear contribution   :      5.91861      -5.45190      -1.20235
                        -----------------------------------------
Total Dipole Moment    :      1.21795      -2.06311      -0.81797
                        -----------------------------------------
Magnitude (a.u.)       :      2.53158
Magnitude (Debye)      :      6.43476

Rotational constants in cm-1:     0.075760     0.023731     0.023107
Rotational constants in MHz :  2271.218144   711.433828   692.716188

                             ****ORCA TERMINATED NORMALLY****
TOTAL RUN TIME: 0 days 0 hours 3 minutes 58 seconds 573 msec
