                         Program Version 4.2.1 -  RELEASE  -
|  1> %pal
|  2>  nprocs 32
|  3> end
|  4> !RI-MP2 aug-cc-pVTZ aug-cc-pVTZ/C TightSCF
|  5> %maxcore 4500
|  6> *xyzfile 0 1  08_6P1.xyz
|  7>
|  8>
|  9>                          ****END OF INPUT****

CARTESIAN COORDINATES (ANGSTROEM)
---------------------------------
  N     -0.234602    2.128604    0.130893
  C      1.001041    1.764514   -0.034537
  N      1.169535    0.409726   -0.226652
  C     -0.086187   -0.129527   -0.150889
  C     -0.953492    0.947770    0.065323
  C     -2.295081    0.620773    0.176812
  N     -2.674922   -0.651309    0.082835
  N     -0.429190   -1.404808   -0.234285
  C     -1.742238   -1.587927   -0.111694
  H     -2.094874   -2.611234   -0.172604
  H     -3.063782    1.367946    0.343874
  H      1.850205    2.433381   -0.036647
  C      2.385818   -0.363764   -0.403328
  O      2.642988   -1.196639    0.684678
  H      1.984314   -1.901231    0.689147
  H      2.288148   -0.935679   -1.329511
  H      3.217173    0.333405   -0.491351

 Total Charge           Charge          ....    0
 Multiplicity           Mult            ....    1
 Number of Electrons    NEL             ....   78
 Basis Dimension        Dim             ....  644

ORBITAL ENERGIES
----------------

  NO   OCC          E(Eh)            E(eV)
   0   2.0000     -20.586645      -560.1911
   1   2.0000     -15.637273      -425.5118
   2   2.0000     -15.584716      -424.0817
   3   2.0000     -15.573813      -423.7850
   4   2.0000     -15.570781      -423.7025
   5   2.0000     -11.351794      -308.8980
   6   2.0000     -11.335045      -308.4423
   7   2.0000     -11.327551      -308.2383
   8   2.0000     -11.319236      -308.0121
   9   2.0000     -11.301724      -307.5356
  10   2.0000     -11.270441      -306.6843
  11   2.0000      -1.415202       -38.5096
  12   2.0000      -1.374539       -37.4031
  13   2.0000      -1.308343       -35.6018
  14   2.0000      -1.228305       -33.4239
  15   2.0000      -1.186983       -32.2995
  16   2.0000      -1.060663       -28.8621
  17   2.0000      -0.978536       -26.6273
  18   2.0000      -0.916275       -24.9331
  19   2.0000      -0.886305       -24.1176
  20   2.0000      -0.831655       -22.6305
  21   2.0000      -0.766954       -20.8699
  22   2.0000      -0.735468       -20.0131
  23   2.0000      -0.727028       -19.7834
  24   2.0000      -0.697876       -18.9902
  25   2.0000      -0.652178       -17.7467
  26   2.0000      -0.648765       -17.6538
  27   2.0000      -0.634861       -17.2755
  28   2.0000      -0.614056       -16.7093
  29   2.0000      -0.597610       -16.2618
  30   2.0000      -0.557400       -15.1676
  31   2.0000      -0.539952       -14.6928
  32   2.0000      -0.520119       -14.1531
  33   2.0000      -0.492259       -13.3951
  34   2.0000      -0.467576       -12.7234
  35   2.0000      -0.459503       -12.5037
  36   2.0000      -0.417477       -11.3601
  37   2.0000      -0.388982       -10.5847
  38   2.0000      -0.340818        -9.2741
  39   0.0000       0.023542         0.6406
  40   0.0000       0.030730         0.8362
  41   0.0000       0.036548         0.9945
  42   0.0000       0.042343         1.1522
  43   0.0000       0.046926         1.2769

MULLIKEN ATOMIC CHARGES
-----------------------
   0 N :   -0.848854
   1 C :   -0.667731
   2 N :    0.246212
   3 C :    0.322606
   4 C :    1.314586
   5 C :   -0.810392
   6 N :   -0.457181
   7 N :   -0.598839
   8 C :   -0.705276
   9 H :    0.613121
  10 H :    0.721342
  11 H :    0.674685
  12 C :   -0.152543
  13 O :   -0.642020
  14 H :    0.228446
  15 H :    0.333890
  16 H :    0.427949
Sum of atomic charges:    0.0000000

LOEWDIN ATOMIC CHARGES
----------------------
   0 N :    0.400416
   1 C :   -0.040426
   2 N :    0.261320
   3 C :   -0.458342
   4 C :   -0.312362
   5 C :    0.055077
   6 N :    0.362670
   7 N :    0.413248
   8 C :   -0.162952
   9 H :   -0.203068
  10 H :   -0.171455
  11 H :   -0.156846
  12 C :   -0.026620
  13 O :    0.833121
  14 H :   -0.497502
  15 H :   -0.141160
  16 H :   -0.155118

  Mayer bond orders larger than 0.100000
B(  0-N ,  1-C ) :   1.6801 B(  0-N ,  2-N ) :  -0.1149 B(  0-N ,  3-C ) :   0.1774
B(  0-N ,  4-C ) :   0.1974 B(  0-N ,  5-C ) :  -0.1815 B(  1-C ,  2-N ) :   1.1692
B(  1-C ,  3-C ) :  -0.5520 B(  1-C ,  4-C ) :  -0.1753 B(  1-C , 11-H ) :   0.4267
B(  2-N ,  3-C ) :   0.7128 B(  2-N ,  7-N ) :  -0.2500 B(  2-N , 12-C ) :   0.8812
B(  2-N , 13-O ) :   0.1153 B(  3-C ,  4-C ) :   1.3530 B(  3-C ,  5-C ) :   0.7154
B(  3-C ,  7-N ) :   0.8973 B(  3-C ,  8-C ) :  -0.3774 B(  3-C , 12-C ) :  -0.1188
B(  4-C ,  6-N ) :  -0.2269 B(  4-C ,  7-N ) :  -0.2720 B(  4-C ,  8-C ) :  -0.1232
B(  5-C ,  6-N ) :   1.0505 B(  5-C ,  7-N ) :   0.1698 B(  5-C ,  8-C ) :  -0.2367
B(  5-C , 10-H ) :   0.2083 B(  6-N ,  8-C ) :   1.2499 B(  7-N ,  8-C ) :   1.6129
B(  8-C ,  9-H ) :   0.5115 B( 12-C , 13-O ) :   0.7617 B( 12-C , 15-H ) :   0.9405
B( 12-C , 16-H ) :   0.8624 B( 13-O , 14-H ) :   0.9457

MP2 TOTAL ENERGY:     -525.546802577 Eh
FINAL SINGLE POINT ENERGY      -525.546802576931

DIPOLE MOMENT
-------------
                                X             Y             Z
Electronic contribution:     -3.15909       1.26448       0.42067
Nuclear contribution   :      4.10773      -1.29711      -0.96373
                        -----------------------------------------
Total Dipole Moment    :      0.94864      -0.03264      -0.54306
                        -----------------------------------------
Magnitude (a.u.)       :      1.09357
Magnitude (Debye)      :      2.77963

Rotational constants in cm-1:     0.069859     0.035317     0.024462
Rotational constants in MHz :  2094.333993  1058.782152   733.366856

                             ****ORCA TERMINATED NORMALLY****
TOTAL RUN TIME: 0 days 0 hours 4 minutes 51 seconds 554 msec
