                         Program Version 4.2.1 -  RELEASE  -
|  1> %pal
|  2>  nprocs 32
|  3> end
|  4> !RI-MP2 aug-cc-pVTZ aug-cc-pVTZ/C TightSCF
|  5> %maxcore 4500
|  6> *xyzfile 1 2  04_6TS.xyz
|  7>
|  8>
|  9>                          ****END OF INPUT****

CARTESIAN COORDINATES (ANGSTROEM)
---------------------------------
  N      0.530440    1.578635    0.320374
  C      0.938365    0.229824    0.742608
  H      0.731307    2.296272    1.018638
  H     -0.501208    1.586211    0.090667
  C      2.160602   -0.157714   -0.051077
  H      0.943083    0.091314    1.819554
  H     -0.049374   -0.562103    0.287143
  O      2.452897    0.539212   -1.008242
  N      2.804039   -1.270742    0.317193
  H      2.574228   -1.784657    1.152571
  C     -1.121393   -1.139482   -0.314612
  C     -2.229528   -0.170252   -0.118743
  H     -0.774496   -1.188770   -1.345581
  H     -1.257997   -2.111507    0.149686
  O     -2.058311    1.037310   -0.083584
  O     -3.409516   -0.729401    0.020970
  H      3.615108   -1.555245   -0.214050
  H     -4.091823   -0.045681    0.127649
  H      1.100986    1.767680   -0.531456

 Total Charge           Charge          ....    1
 Multiplicity           Mult            ....    2
 Number of Electrons    NEL             ....   71
 Basis Dimension        Dim             ....  644

ORBITAL ENERGIES
----------------
                 SPIN UP ORBITALS
  NO   OCC          E(Eh)            E(eV)
   0   1.0000     -20.772979      -565.2615
   1   1.0000     -20.720084      -563.8221
   2   1.0000     -20.696435      -563.1786
   3   1.0000     -15.839716      -431.0206
   4   1.0000     -15.748900      -428.5493
   5   1.0000     -11.561528      -314.6052
   6   1.0000     -11.528988      -313.7197
   7   1.0000     -11.489237      -312.6380
   8   1.0000     -11.432121      -311.0838
   9   1.0000      -1.639338       -44.6086
  10   1.0000      -1.569904       -42.7193
  11   1.0000      -1.534931       -41.7676
  12   1.0000      -1.467801       -39.9409
  13   1.0000      -1.385595       -37.7040
  14   1.0000      -1.216309       -33.0975
  15   1.0000      -1.168221       -31.7889
  16   1.0000      -1.008285       -27.4368
  17   1.0000      -0.975550       -26.5461
  18   1.0000      -0.952952       -25.9311
  19   1.0000      -0.940661       -25.5967
  20   1.0000      -0.896008       -24.3816
  21   1.0000      -0.875727       -23.8297
  22   1.0000      -0.856922       -23.3180
  23   1.0000      -0.831878       -22.6366
  24   1.0000      -0.824446       -22.4343
  25   1.0000      -0.811468       -22.0812
  26   1.0000      -0.790094       -21.4996
  27   1.0000      -0.753922       -20.5153
  28   1.0000      -0.745868       -20.2961
  29   1.0000      -0.737870       -20.0785
  30   1.0000      -0.725307       -19.7366
  31   1.0000      -0.656020       -17.8512
  32   1.0000      -0.636504       -17.3202
  33   1.0000      -0.618118       -16.8199
  34   1.0000      -0.589222       -16.0335
  35   1.0000      -0.543309       -14.7842
  36   0.0000      -0.089058        -2.4234
  37   0.0000      -0.074220        -2.0196
  38   0.0000      -0.063830        -1.7369
  39   0.0000      -0.060297        -1.6408
  40   0.0000      -0.043909        -1.1948

                 SPIN DOWN ORBITALS
  NO   OCC          E(Eh)            E(eV)
   0   1.0000     -20.772301      -565.2430
   1   1.0000     -20.718498      -563.7790
   2   1.0000     -20.693729      -563.1050
   3   1.0000     -15.841126      -431.0589
   4   1.0000     -15.748634      -428.5421
   5   1.0000     -11.563062      -314.6469
   6   1.0000     -11.530907      -313.7719
   7   1.0000     -11.470686      -312.1332
   8   1.0000     -11.413589      -310.5795
   9   1.0000      -1.637236       -44.5515
  10   1.0000      -1.564598       -42.5749
  11   1.0000      -1.531551       -41.6756
  12   1.0000      -1.463016       -39.8107
  13   1.0000      -1.383622       -37.6503
  14   1.0000      -1.170913       -31.8622
  15   1.0000      -1.132144       -30.8072
  16   1.0000      -0.992637       -27.0110
  17   1.0000      -0.969631       -26.3850
  18   1.0000      -0.949425       -25.8352
  19   1.0000      -0.930223       -25.3126
  20   1.0000      -0.893265       -24.3070
  21   1.0000      -0.868573       -23.6351
  22   1.0000      -0.847135       -23.0517
  23   1.0000      -0.828682       -22.5496
  24   1.0000      -0.813096       -22.1255
  25   1.0000      -0.804016       -21.8784
  26   1.0000      -0.766241       -20.8505
  27   1.0000      -0.745079       -20.2746
  28   1.0000      -0.736114       -20.0307
  29   1.0000      -0.731192       -19.8968
  30   1.0000      -0.683616       -18.6021
  31   1.0000      -0.646238       -17.5850
  32   1.0000      -0.630463       -17.1558
  33   1.0000      -0.609569       -16.5872
  34   1.0000      -0.575717       -15.6660
  35   0.0000      -0.119149        -3.2422
  36   0.0000      -0.088231        -2.4009
  37   0.0000      -0.073760        -2.0071
  38   0.0000      -0.062874        -1.7109
  39   0.0000      -0.059880        -1.6294

MULLIKEN ATOMIC CHARGES AND SPIN POPULATIONS
--------------------------------------------
   0 N :    0.064017   -0.077312
   1 C :   -0.071183    0.816490
   2 H :    0.078694    0.012629
   3 H :    0.202418    0.019056
   4 C :    0.665758   -0.083897
   5 H :    0.392407   -0.025328
   6 H :    0.374356   -0.473953
   7 O :   -0.820164    0.058963
   8 N :   -0.380351    0.005215
   9 H :    0.124884    0.000291
  10 C :   -0.363659    0.842808
  11 C :    0.483711   -0.080065
  12 H :    0.345958   -0.032266
  13 H :    0.339152   -0.019365
  14 O :   -0.637567    0.026408
  15 O :   -0.441718    0.004336
  16 H :    0.168519   -0.001741
  17 H :    0.259668    0.002429
  18 H :    0.215099    0.005303
Sum of atomic charges         :    1.0000000

LOEWDIN ATOMIC CHARGES AND SPIN POPULATIONS
-------------------------------------------
   0 N :    1.065304    0.029401
   1 C :    0.296999    0.281101
   2 H :   -0.125010    0.005759
   3 H :   -0.418947    0.001425
   4 C :   -0.611752    0.023269
   5 H :   -0.109017    0.036117
   6 H :   -0.358531    0.090609
   7 O :    0.526475    0.042248
   8 N :    0.886166    0.000725
   9 H :   -0.268967   -0.000598
  10 C :    0.607333    0.314373
  11 C :   -0.721463    0.047887
  12 H :   -0.135670    0.043887
  13 H :   -0.144047    0.050301
  14 O :    0.584640    0.021637
  15 O :    0.876231    0.010081
  16 H :   -0.254046    0.000385
  17 H :   -0.417949    0.001399
  18 H :   -0.277747   -0.000006

  Mayer bond orders larger than 0.100000
B(  0-N ,  1-C ) :   0.8237 B(  0-N ,  2-H ) :   1.0541 B(  0-N ,  3-H ) :   0.9824
B(  0-N , 18-H ) :   0.9337 B(  1-C ,  4-C ) :   0.7075 B(  1-C ,  5-H ) :   0.8911
B(  1-C ,  6-H ) :   0.2500 B(  4-C ,  6-H ) :   0.1209 B(  4-C ,  7-O ) :   1.2327
B(  4-C ,  8-N ) :   1.0100 B(  6-H , 10-C ) :   0.3114 B(  8-N ,  9-H ) :   1.0775
B(  8-N , 16-H ) :   1.0609 B( 10-C , 11-C ) :   0.6362 B( 10-C , 12-H ) :   0.8741
B( 10-C , 13-H ) :   0.9236 B( 11-C , 14-O ) :   1.4655 B( 11-C , 15-O ) :   0.9968
B( 15-O , 17-H ) :   0.9544

MP2 TOTAL ENERGY:     -492.521292443 Eh
FINAL SINGLE POINT ENERGY      -492.521292442762

DIPOLE MOMENT
-------------
                                X             Y             Z
Electronic contribution:     -2.00292       1.35980      -0.99776
Nuclear contribution   :      2.28018      -1.50340       2.56227
                        -----------------------------------------
Total Dipole Moment    :      0.27726      -0.14360       1.56451
                        -----------------------------------------
Magnitude (a.u.)       :      1.59536
Magnitude (Debye)      :      4.05508

Rotational constants in cm-1:     0.103541     0.024697     0.021750
Rotational constants in MHz :  3104.093581   740.399121   652.048435

                             ****ORCA TERMINATED NORMALLY****
TOTAL RUN TIME: 0 days 0 hours 6 minutes 41 seconds 850 msec
