                         Program Version 4.2.1 -  RELEASE  -
|  1> %pal
|  2>  nprocs 32
|  3> end
|  4> !RI-MP2 aug-cc-pVTZ aug-cc-pVTZ/C TightSCF
|  5> %maxcore 4500
|  6> *xyzfile 0 1  10_46R.xyz
|  7>
|  8>
|  9>                          ****END OF INPUT****

CARTESIAN COORDINATES (ANGSTROEM)
---------------------------------
  C      0.048625   -2.370899    0.052773
  H     -0.038888   -3.405916    0.386528
  H      0.353143   -2.386538   -1.012754
  C      1.109172   -1.660974    0.850113
  C     -0.196172    0.412419    0.727384
  H     -0.564521    0.316573    1.753486
  H     -0.195839    1.462053    0.472738
  C     -1.186528   -0.323264   -0.190541
  H     -0.792991   -0.250967   -1.225134
  N     -1.245341   -1.723891    0.206586
  C      2.318200    0.447988    0.283421
  C      1.835828   -2.295021    1.760471
  C      3.539687   -0.331110   -0.040871
  C      3.638852   -1.160017   -1.072074
  C      1.183108   -0.195207    0.607889
  C      4.856018   -1.957566   -1.414534
  H      5.189625   -1.758178   -2.437012
  H      5.681666   -1.735381   -0.735921
  H      4.646521   -3.030237   -1.353203
  C     -2.560928    0.325091   -0.190240
  C     -2.309638   -2.447315   -0.460739
  H     -2.200791   -3.509764   -0.234041
  H     -2.246783   -2.338708   -1.559331
  C     -3.644981   -1.936057    0.043829
  H     -3.760237   -2.230719    1.091223
  C     -3.724187   -0.436984   -0.074104
  H     -4.464753   -2.393951   -0.515917
  C     -4.964531    0.198050   -0.092236
  H     -5.862462   -0.404066   -0.000402
  C     -2.677274    1.704999   -0.360350
  H     -1.788113    2.309930   -0.488255
  C     -5.067974    1.570169   -0.235959
  H     -6.041358    2.045508   -0.248762
  C     -3.913312    2.327865   -0.380397
  H     -3.975234    3.401415   -0.511571
  C      2.459730    1.982838    0.148232
  C      1.746576    2.455210   -1.130300
  H      0.677653    2.246802   -1.120856
  H      2.171050    1.955708   -2.004292
  H      1.878878    3.532907   -1.261354
  C      3.936429    2.391505    0.003582
  H      4.404164    1.933174   -0.868054
  H      4.520750    2.121804    0.885993
  H      3.996863    3.476108   -0.111225
  C      1.937282    2.723258    1.390983
  H      0.875333    2.582438    1.574712
  H      2.114128    3.796817    1.282554
  H      2.471274    2.385259    2.282002
  H      2.588780   -1.777307    2.341718
  H      1.707610   -3.355831    1.943988
  H      2.769980   -1.296486   -1.712271
  H      4.418044   -0.175081    0.581303

 Total Charge           Charge          ....    0
 Multiplicity           Mult            ....    1
 Number of Electrons    NEL             ....  168
 Basis Dimension        Dim             .... 1725

ORBITAL ENERGIES
----------------

  NO   OCC          E(Eh)            E(eV)
   0   2.0000     -15.546573      -423.0437
   1   2.0000     -11.261840      -306.4502
   2   2.0000     -11.250686      -306.1467
   3   2.0000     -11.248556      -306.0888
   4   2.0000     -11.240982      -305.8827
   5   2.0000     -11.234996      -305.7198
   6   2.0000     -11.233661      -305.6835
   7   2.0000     -11.231521      -305.6252
   8   2.0000     -11.229846      -305.5796
   9   2.0000     -11.228641      -305.5469
  10   2.0000     -11.228234      -305.5358
  11   2.0000     -11.228023      -305.5301
  12   2.0000     -11.226739      -305.4951
  13   2.0000     -11.225758      -305.4684
  14   2.0000     -11.223195      -305.3987
  15   2.0000     -11.220791      -305.3332
  16   2.0000     -11.219505      -305.2983
  17   2.0000     -11.217520      -305.2442
  18   2.0000     -11.217030      -305.2309
  19   2.0000     -11.211795      -305.0885
  20   2.0000     -11.209001      -305.0124
  21   2.0000     -11.208467      -304.9979
  22   2.0000     -11.208082      -304.9874
  23   2.0000      -1.252767       -34.0895
  24   2.0000      -1.155837       -31.4519
  25   2.0000      -1.138680       -30.9851
  26   2.0000      -1.090938       -29.6859
  27   2.0000      -1.067839       -29.0574
  28   2.0000      -1.058641       -28.8071
  29   2.0000      -1.050016       -28.5724
  30   2.0000      -1.006794       -27.3963
  31   2.0000      -0.992729       -27.0135
  32   2.0000      -0.963315       -26.2131
  33   2.0000      -0.933262       -25.3954
  34   2.0000      -0.931086       -25.3361
  35   2.0000      -0.919096       -25.0099
  36   2.0000      -0.896705       -24.4006
  37   2.0000      -0.857479       -23.3332
  38   2.0000      -0.833901       -22.6916
  39   2.0000      -0.822361       -22.3776
  40   2.0000      -0.802523       -21.8378
  41   2.0000      -0.755346       -20.5540
  42   2.0000      -0.754034       -20.5183
  43   2.0000      -0.741852       -20.1868
  44   2.0000      -0.694512       -18.8986
  45   2.0000      -0.677465       -18.4348
  46   2.0000      -0.659258       -17.9393
  47   2.0000      -0.651696       -17.7336
  48   2.0000      -0.643142       -17.5008
  49   2.0000      -0.632873       -17.2214
  50   2.0000      -0.621227       -16.9044
  51   2.0000      -0.615666       -16.7531
  52   2.0000      -0.605560       -16.4781
  53   2.0000      -0.599081       -16.3018
  54   2.0000      -0.593892       -16.1606
  55   2.0000      -0.591735       -16.1019
  56   2.0000      -0.581986       -15.8366
  57   2.0000      -0.573951       -15.6180
  58   2.0000      -0.563484       -15.3332
  59   2.0000      -0.563208       -15.3257
  60   2.0000      -0.555896       -15.1267
  61   2.0000      -0.545269       -14.8375
  62   2.0000      -0.539975       -14.6935
  63   2.0000      -0.534222       -14.5369
  64   2.0000      -0.528094       -14.3702
  65   2.0000      -0.526635       -14.3305
  66   2.0000      -0.516401       -14.0520
  67   2.0000      -0.513080       -13.9616
  68   2.0000      -0.510860       -13.9012
  69   2.0000      -0.505964       -13.7680
  70   2.0000      -0.498549       -13.5662
  71   2.0000      -0.492839       -13.4108
  72   2.0000      -0.477601       -12.9962
  73   2.0000      -0.470883       -12.8134
  74   2.0000      -0.463622       -12.6158
  75   2.0000      -0.455786       -12.4026
  76   2.0000      -0.442447       -12.0396
  77   2.0000      -0.431936       -11.7536
  78   2.0000      -0.373470       -10.1626
  79   2.0000      -0.364353        -9.9145
  80   2.0000      -0.358738        -9.7618
  81   2.0000      -0.327511        -8.9120
  82   2.0000      -0.320377        -8.7179
  83   2.0000      -0.301490        -8.2040
  84   0.0000       0.024241         0.6596
  85   0.0000       0.028139         0.7657
  86   0.0000       0.028233         0.7683
  87   0.0000       0.032296         0.8788
  88   0.0000       0.036104         0.9824

MULLIKEN ATOMIC CHARGES
-----------------------
   0 C :   -0.605810
   1 H :    0.500735
   2 H :    0.158169
   3 C :    0.056013
   4 C :   -0.883762
   5 H :    0.176663
   6 H :   -0.028608
   7 C :    0.785783
   8 H :    0.226677
   9 N :   -0.548275
  10 C :    1.828251
  11 C :   -1.843978
  12 C :   -0.274507
  13 C :   -0.670808
  14 C :    0.889651
  15 C :   -1.126845
  16 H :    0.248209
  17 H :    0.274151
  18 H :    0.277089
  19 C :    1.143430
  20 C :   -0.823693
  21 H :    0.314407
  22 H :    0.196244
  23 C :   -0.638068
  24 H :    0.170784
  25 C :    1.321603
  26 H :    0.213335
  27 C :   -1.069591
  28 H :    0.098120
  29 C :   -0.985539
  30 H :    0.329988
  31 C :   -0.345465
  32 H :    0.605139
  33 C :   -1.065360
  34 H :    0.449165
  35 C :    2.109018
  36 C :   -1.724640
  37 H :    0.556599
  38 H :    0.252856
  39 H :    0.103527
  40 C :   -1.521159
  41 H :    0.326243
  42 H :    0.274663
  43 H :    0.149678
  44 C :   -1.695594
  45 H :    0.367128
  46 H :    0.114099
  47 H :    0.240591
  48 H :    0.446201
  49 H :    0.139468
  50 H :    0.457043
  51 H :    0.050978
Sum of atomic charges:    0.0000000

LOEWDIN ATOMIC CHARGES
----------------------
   0 C :    0.165137
   1 H :   -0.151194
   2 H :   -0.117467
   3 C :   -0.119958
   4 C :    0.318557
   5 H :   -0.104288
   6 H :   -0.260879
   7 C :   -0.099713
   8 H :   -0.104797
   9 N :    0.316307
  10 C :   -0.033956
  11 C :    0.566211
  12 C :    0.163776
  13 C :    0.213974
  14 C :   -0.032487
  15 C :    0.563946
  16 H :   -0.176108
  17 H :   -0.179330
  18 H :   -0.173857
  19 C :   -0.027863
  20 C :    0.168695
  21 H :   -0.139153
  22 H :   -0.113741
  23 C :    0.300526
  24 H :   -0.131575
  25 C :   -0.066538
  26 H :   -0.142934
  27 C :    0.222057
  28 H :   -0.172463
  29 C :    0.231486
  30 H :   -0.188387
  31 C :    0.199362
  32 H :   -0.182787
  33 C :    0.207388
  34 H :   -0.182269
  35 C :   -0.312956
  36 C :    0.605370
  37 H :   -0.186689
  38 H :   -0.144574
  39 H :   -0.149916
  40 C :    0.564922
  41 H :   -0.163676
  42 H :   -0.155819
  43 H :   -0.156858
  44 C :    0.603951
  45 H :   -0.191722
  46 H :   -0.152629
  47 H :   -0.144846
  48 H :   -0.201349
  49 H :   -0.206602
  50 H :   -0.170110
  51 H :   -0.172176

  Mayer bond orders larger than 0.100000
B(  0-C ,  1-H ) :   0.8266 B(  0-C ,  2-H ) :   1.0957 B(  0-C ,  3-C ) :   0.9486
B(  0-C ,  4-C ) :  -0.1233 B(  0-C ,  7-C ) :  -0.1683 B(  0-C ,  9-N ) :   0.8660
B(  0-C , 10-C ) :  -0.1153 B(  0-C , 12-C ) :   0.1153 B(  1-H ,  9-N ) :  -0.1741
B(  2-H ,  3-C ) :   0.1899 B(  2-H , 14-C ) :  -0.1274 B(  3-C ,  4-C ) :   0.2672
B(  3-C ,  7-C ) :   0.2260 B(  3-C ,  9-N ) :   0.2432 B(  3-C , 10-C ) :  -0.6355
B(  3-C , 11-C ) :   0.3084 B(  3-C , 12-C ) :   0.5567 B(  3-C , 13-C ) :   0.2747
B(  3-C , 14-C ) :   0.6571 B(  3-C , 35-C ) :  -0.2343 B(  3-C , 49-H ) :  -0.1233
B(  3-C , 50-H ) :  -0.1526 B(  3-C , 51-H ) :   0.1954 B(  4-C ,  5-H ) :   1.1503
B(  4-C ,  6-H ) :   1.2399 B(  4-C ,  7-C ) :   0.6465 B(  4-C ,  9-N ) :   0.5958
B(  4-C , 10-C ) :  -0.4232 B(  4-C , 11-C ) :  -0.1876 B(  4-C , 12-C ) :  -0.5114
B(  4-C , 14-C ) :   1.4945 B(  4-C , 19-C ) :   0.4779 B(  4-C , 25-C ) :  -0.2202
B(  4-C , 29-C ) :   0.2187 B(  4-C , 35-C ) :   0.3407 B(  4-C , 44-C ) :  -0.1447
B(  4-C , 48-H ) :  -0.1679 B(  4-C , 51-H ) :  -0.1481 B(  5-H ,  6-H ) :  -0.1101
B(  5-H , 10-C ) :  -0.1677 B(  6-H ,  7-C ) :   0.1469 B(  6-H , 10-C ) :   0.3265
B(  6-H , 14-C ) :  -0.1301 B(  6-H , 29-C ) :  -0.3121 B(  6-H , 35-C ) :   0.2432
B(  7-C ,  8-H ) :   0.9948 B(  7-C ,  9-N ) :   0.1232 B(  7-C , 10-C ) :  -0.2203
B(  7-C , 14-C ) :   0.1490 B(  7-C , 19-C ) :   0.9299 B(  7-C , 20-C ) :  -0.1139
B(  7-C , 23-C ) :  -0.1787 B(  7-C , 25-C ) :   0.3467 B(  7-C , 29-C ) :   0.5314
B(  7-C , 30-H ) :  -0.1727 B(  7-C , 33-C ) :   0.1238 B(  8-H ,  9-N ) :  -0.1391
B(  8-H , 10-C ) :  -0.1025 B(  9-N , 10-C ) :   0.1268 B(  9-N , 14-C ) :  -0.2238
B(  9-N , 19-C ) :  -0.2052 B(  9-N , 20-C ) :   1.0674 B(  9-N , 23-C ) :  -0.1276
B( 10-C , 11-C ) :  -0.1661 B( 10-C , 14-C ) :   1.9254 B( 10-C , 15-C ) :   0.1164
B( 10-C , 19-C ) :   0.1240 B( 10-C , 30-H ) :  -0.1323 B( 10-C , 35-C ) :   1.1874
B( 10-C , 38-H ) :  -0.1059 B( 10-C , 48-H ) :   0.2306 B( 10-C , 50-H ) :  -0.1203
B( 11-C , 12-C ) :   0.4879 B( 11-C , 14-C ) :  -0.2520 B( 11-C , 48-H ) :   0.7557
B( 11-C , 49-H ) :   1.2989 B( 11-C , 51-H ) :   0.1417 B( 12-C , 13-C ) :   1.1830
B( 12-C , 14-C ) :  -0.3107 B( 12-C , 35-C ) :   0.2192 B( 12-C , 51-H ) :   1.1889
B( 13-C , 15-C ) :   0.6843 B( 13-C , 50-H ) :   0.8840 B( 14-C , 35-C ) :   0.2657
B( 14-C , 36-C ) :  -0.2465 B( 14-C , 44-C ) :  -0.2112 B( 14-C , 48-H ) :  -0.1371
B( 14-C , 51-H ) :  -0.3515 B( 15-C , 16-H ) :   1.0515 B( 15-C , 17-H ) :   0.9815
B( 15-C , 18-H ) :   1.0084 B( 19-C , 23-C ) :   0.2897 B( 19-C , 25-C ) :   1.2131
B( 19-C , 27-C ) :   0.7127 B( 19-C , 29-C ) :  -0.2238 B( 19-C , 31-C ) :  -0.1391
B( 19-C , 33-C ) :  -0.3061 B( 20-C , 21-H ) :   0.9213 B( 20-C , 22-H ) :   1.0955
B( 20-C , 23-C ) :   1.0746 B( 20-C , 25-C ) :   0.1400 B( 20-C , 27-C ) :  -0.1080
B( 23-C , 24-H ) :   1.1735 B( 23-C , 26-H ) :   1.1274 B( 23-C , 29-C ) :  -0.1150
B( 24-H , 25-C ) :  -0.1206 B( 25-C , 27-C ) :   0.3728 B( 25-C , 29-C ) :  -0.7384
B( 25-C , 31-C ) :   0.2533 B( 27-C , 28-H ) :   1.4161 B( 27-C , 31-C ) :   0.8979
B( 28-H , 31-C ) :  -0.1302 B( 29-C , 30-H ) :   1.1785 B( 29-C , 31-C ) :   0.2032
B( 29-C , 33-C ) :   1.1633 B( 31-C , 32-H ) :   0.5298 B( 31-C , 33-C ) :   1.0205
B( 33-C , 34-H ) :   0.7058 B( 35-C , 36-C ) :   0.2489 B( 35-C , 39-H ) :  -0.1502
B( 35-C , 40-C ) :  -0.2657 B( 35-C , 41-H ) :  -0.1080 B( 35-C , 42-H ) :  -0.1461
B( 35-C , 43-H ) :  -0.2127 B( 35-C , 46-H ) :  -0.1944 B( 36-C , 37-H ) :   0.7234
B( 36-C , 38-H ) :   1.1339 B( 36-C , 39-H ) :   1.3084 B( 36-C , 40-C ) :   0.2209
B( 40-C , 41-H ) :   1.0474 B( 40-C , 42-H ) :   1.0998 B( 40-C , 43-H ) :   1.2749
B( 40-C , 44-C ) :   0.2457 B( 44-C , 45-H ) :   0.9771 B( 44-C , 46-H ) :   1.2863
B( 44-C , 47-H ) :   1.1486

MP2 TOTAL ENERGY:     -908.576508644 Eh
FINAL SINGLE POINT ENERGY      -908.576508644409

DIPOLE MOMENT
-------------
                                X             Y             Z
Electronic contribution:    -18.87869      -3.74924       2.52744
Nuclear contribution   :     19.01032       3.59890      -2.87614
                        -----------------------------------------
Total Dipole Moment    :      0.13163      -0.15034      -0.34870
                        -----------------------------------------
Magnitude (a.u.)       :      0.40190
Magnitude (Debye)      :      1.02154

Rotational constants in cm-1:     0.014463     0.005667     0.004488
Rotational constants in MHz :   433.582549   169.897694   134.540668

                             ****ORCA TERMINATED NORMALLY****
TOTAL RUN TIME: 0 days 2 hours 1 minutes 51 seconds 846 msec
