                         Program Version 4.2.1 -  RELEASE  -
|  1> %pal
|  2>  nprocs 32
|  3> end
|  4> !RI-MP2 aug-cc-pVTZ aug-cc-pVTZ/C TightSCF
|  5> %maxcore 4500
|  6> *xyzfile 0 2  01_30R.xyz
|  7>
|  8>
|  9>                          ****END OF INPUT****

CARTESIAN COORDINATES (ANGSTROEM)
---------------------------------
  C      1.352636   -0.180404    0.101325
  C      2.328037   -0.130698   -0.799735
  C      0.011811    0.540766   -0.059012
  C     -1.121271   -0.469934    0.025839
  C     -2.455845   -0.069842    0.560626
  H     -2.983995    0.615636   -0.122338
  H     -2.392111    0.439347    1.524131
  H     -3.099998   -0.943210    0.684554
  C     -1.079976   -1.664793   -0.868756
  H     -1.596485   -2.515616   -0.414242
  H     -0.059444   -1.968407   -1.106971
  H     -1.590806   -1.470960   -1.825209
  C     -0.096352    1.266342   -1.414050
  H      0.014057    0.576028   -2.251544
  H      0.664579    2.044651   -1.508104
  H     -1.074063    1.745551   -1.497638
  C     -0.093025    1.606933    1.047586
  H     -0.146204    1.162917    2.042300
  H     -0.982164    2.224482    0.909798
  H      0.779309    2.262682    1.012926
  C      1.529093   -0.969098    1.371638
  H      2.471873   -1.516292    1.364008
  H      0.712137   -1.682921    1.504324
  H      1.525775   -0.317530    2.248900
  H      2.243247    0.419794   -1.726548
  H      3.263651   -0.651782   -0.631114

 Total Charge           Charge          ....    0
 Multiplicity           Mult            ....    2
 Number of Electrons    NEL             ....   71
 Basis Dimension        Dim             ....  805

ORBITAL ENERGIES
----------------
                 SPIN UP ORBITALS
  NO   OCC          E(Eh)            E(eV)
   0   1.0000     -11.237264      -305.7815
   1   1.0000     -11.232906      -305.6629
   2   1.0000     -11.224660      -305.4385
   3   1.0000     -11.213564      -305.1366
   4   1.0000     -11.212097      -305.0967
   5   1.0000     -11.211475      -305.0798
   6   1.0000     -11.210486      -305.0528
   7   1.0000     -11.208245      -304.9918
   8   1.0000     -11.203509      -304.8630
   9   1.0000      -1.138378       -30.9768
  10   1.0000      -1.057414       -28.7737
  11   1.0000      -1.007728       -27.4217
  12   1.0000      -0.948367       -25.8064
  13   1.0000      -0.931320       -25.3425
  14   1.0000      -0.911007       -24.7898
  15   1.0000      -0.847351       -23.0576
  16   1.0000      -0.759102       -20.6562
  17   1.0000      -0.676559       -18.4101
  18   1.0000      -0.649792       -17.6817
  19   1.0000      -0.627804       -17.0834
  20   1.0000      -0.611602       -16.6425
  21   1.0000      -0.593748       -16.1567
  22   1.0000      -0.580687       -15.8013
  23   1.0000      -0.563444       -15.3321
  24   1.0000      -0.551014       -14.9939
  25   1.0000      -0.546002       -14.8575
  26   1.0000      -0.532828       -14.4990
  27   1.0000      -0.525431       -14.2977
  28   1.0000      -0.523123       -14.2349
  29   1.0000      -0.510278       -13.8854
  30   1.0000      -0.500115       -13.6088
  31   1.0000      -0.467185       -12.7128
  32   1.0000      -0.460091       -12.5197
  33   1.0000      -0.448098       -12.1934
  34   1.0000      -0.346836        -9.4379
  35   1.0000      -0.312137        -8.4937
  36   0.0000       0.028997         0.7890
  37   0.0000       0.033290         0.9059
  38   0.0000       0.034316         0.9338
  39   0.0000       0.035485         0.9656
  40   0.0000       0.046417         1.2631

                 SPIN DOWN ORBITALS
  NO   OCC          E(Eh)            E(eV)
   0   1.0000     -11.240174      -305.8607
   1   1.0000     -11.230702      -305.6029
   2   1.0000     -11.215204      -305.1812
   3   1.0000     -11.213564      -305.1366
   4   1.0000     -11.211285      -305.0746
   5   1.0000     -11.211028      -305.0676
   6   1.0000     -11.208668      -305.0034
   7   1.0000     -11.205019      -304.9041
   8   1.0000     -11.199609      -304.7568
   9   1.0000      -1.123352       -30.5679
  10   1.0000      -1.038701       -28.2645
  11   1.0000      -0.999182       -27.1891
  12   1.0000      -0.946663       -25.7600
  13   1.0000      -0.931578       -25.3495
  14   1.0000      -0.910014       -24.7627
  15   1.0000      -0.838382       -22.8135
  16   1.0000      -0.736327       -20.0365
  17   1.0000      -0.665183       -18.1006
  18   1.0000      -0.637314       -17.3422
  19   1.0000      -0.622496       -16.9390
  20   1.0000      -0.598496       -16.2859
  21   1.0000      -0.576692       -15.6926
  22   1.0000      -0.574313       -15.6279
  23   1.0000      -0.557225       -15.1629
  24   1.0000      -0.547646       -14.9022
  25   1.0000      -0.540767       -14.7150
  26   1.0000      -0.527657       -14.3583
  27   1.0000      -0.521454       -14.1895
  28   1.0000      -0.520070       -14.1518
  29   1.0000      -0.508785       -13.8447
  30   1.0000      -0.496162       -13.5013
  31   1.0000      -0.460500       -12.5308
  32   1.0000      -0.451094       -12.2749
  33   1.0000      -0.443704       -12.0738
  34   1.0000      -0.348079        -9.4717
  35   0.0000       0.029089         0.7916
  36   0.0000       0.033267         0.9052
  37   0.0000       0.034368         0.9352
  38   0.0000       0.035576         0.9681
  39   0.0000       0.046431         1.2634

MULLIKEN ATOMIC CHARGES AND SPIN POPULATIONS
--------------------------------------------
   0 C :    0.764448    0.109346
   1 C :   -1.428839   -0.087631
   2 C :    1.824198   -0.255734
   3 C :    0.548374    1.386347
   4 C :   -1.080217   -0.204286
   5 H :    0.259256    0.076240
   6 H :    0.252576    0.021519
   7 H :    0.251043    0.013701
   8 C :   -1.290405   -0.248561
   9 H :    0.213291    0.026351
  10 H :    0.363721    0.002064
  11 H :    0.219948    0.080272
  12 C :   -1.341446    0.074142
  13 H :    0.304358   -0.007061
  14 H :    0.174300    0.015194
  15 H :    0.257407   -0.005094
  16 C :   -1.244059    0.000567
  17 H :    0.306374   -0.003093
  18 H :    0.216595   -0.003692
  19 H :    0.222422   -0.004557
  20 C :   -1.074867   -0.005401
  21 H :    0.215768    0.001200
  22 H :    0.285512    0.004455
  23 H :    0.237640    0.003447
  24 H :    0.326629    0.000313
  25 H :    0.215974    0.009953
Sum of atomic charges         :   -0.0000000

LOEWDIN ATOMIC CHARGES AND SPIN POPULATIONS
-------------------------------------------
   0 C :   -0.127956    0.032859
   1 C :    0.557752   -0.023345
   2 C :   -0.331778    0.087351
   3 C :   -0.044067    0.543029
   4 C :    0.565682    0.107444
   5 H :   -0.152151    0.028045
   6 H :   -0.183960    0.009544
   7 H :   -0.173026    0.003636
   8 C :    0.561243    0.105464
   9 H :   -0.167765    0.010480
  10 H :   -0.180922    0.002274
  11 H :   -0.151460    0.027282
  12 C :    0.567581    0.028179
  13 H :   -0.161132    0.001777
  14 H :   -0.156398    0.007518
  15 H :   -0.154643    0.002546
  16 C :    0.574820    0.005445
  17 H :   -0.167269    0.001478
  18 H :   -0.160664    0.000575
  19 H :   -0.147026   -0.000161
  20 C :    0.578191    0.016981
  21 H :   -0.172114    0.001080
  22 H :   -0.163710    0.012379
  23 H :   -0.168653    0.001615
  24 H :   -0.228392   -0.006872
  25 H :   -0.212182   -0.006603

  Mayer bond orders larger than 0.100000
B(  0-C ,  1-C ) :   1.0326 B(  0-C ,  2-C ) :   0.8671 B(  0-C ,  3-C ) :   0.3390
B(  0-C , 12-C ) :   0.1495 B(  0-C , 20-C ) :   0.6153 B(  1-C ,  2-C ) :  -0.2493
B(  1-C , 20-C ) :  -0.2139 B(  1-C , 24-H ) :   1.0943 B(  1-C , 25-H ) :   0.9715
B(  2-C ,  3-C ) :   0.9581 B(  2-C ,  8-C ) :   0.1563 B(  2-C , 14-H ) :  -0.1623
B(  2-C , 15-H ) :  -0.1494 B(  2-C , 17-H ) :  -0.1169 B(  2-C , 18-H ) :  -0.1618
B(  2-C , 19-H ) :  -0.1644 B(  2-C , 20-C ) :   0.1983 B(  3-C ,  4-C ) :   0.4138
B(  3-C ,  8-C ) :   0.3762 B(  3-C , 16-C ) :   0.1362 B(  4-C ,  5-H ) :   1.0423
B(  4-C ,  6-H ) :   1.0796 B(  4-C ,  7-H ) :   1.0063 B(  8-C ,  9-H ) :   1.0958
B(  8-C , 10-H ) :   0.9330 B(  8-C , 11-H ) :   1.0792 B( 12-C , 13-H ) :   1.0525
B( 12-C , 14-H ) :   1.1869 B( 12-C , 15-H ) :   1.0794 B( 12-C , 16-C ) :   0.1316
B( 16-C , 17-H ) :   1.0279 B( 16-C , 18-H ) :   1.1198 B( 16-C , 19-H ) :   1.1538
B( 20-C , 21-H ) :   1.0345 B( 20-C , 22-H ) :   1.0239 B( 20-C , 23-H ) :   1.0563

MP2 TOTAL ENERGY:     -352.331445555 Eh
FINAL SINGLE POINT ENERGY      -352.331445555320

DIPOLE MOMENT
-------------
                                X             Y             Z
Electronic contribution:      2.21050      -0.42034      -0.14124
Nuclear contribution   :     -2.39636       0.45184       0.22065
                        -----------------------------------------
Total Dipole Moment    :     -0.18586       0.03151       0.07941
                        -----------------------------------------
Magnitude (a.u.)       :      0.20455
Magnitude (Debye)      :      0.51993

Rotational constants in cm-1:     0.065572     0.043117     0.040612
Rotational constants in MHz :  1965.807781  1292.628954  1217.511899

                             ****ORCA TERMINATED NORMALLY****
TOTAL RUN TIME: 0 days 0 hours 26 minutes 21 seconds 604 msec
