                         Program Version 4.2.1 -  RELEASE  -
|  1> %pal
|  2>  nprocs 32
|  3> end
|  4> !RI-MP2 aug-cc-pVTZ aug-cc-pVTZ/C TightSCF
|  5> %maxcore 4500
|  6> *xyzfile 0 1  03_5P2.xyz
|  7>
|  8>
|  9>                          ****END OF INPUT****

CARTESIAN COORDINATES (ANGSTROEM)
---------------------------------
  C     -0.002065    0.338508    0.017708
  C      0.042280    1.237885   -1.206828
  C      0.087301    1.127566    1.312503
  H      0.005614    0.653224   -2.125464
  H      0.964010    1.819980   -1.202156
  H     -0.806872    1.924197   -1.189474
  H      1.012210    1.706388    1.333325
  H      0.076128    0.467646    2.179713
  H     -0.762078    1.808948    1.381623
  S     -1.538480   -0.639883   -0.084503
  H     -1.376838   -1.293767    1.078219
  Cl     1.455200   -0.768956   -0.049650

 Total Charge           Charge          ....    0
 Multiplicity           Mult            ....    1
 Number of Electrons    NEL             ....   58
 Basis Dimension        Dim             ....  399

ORBITAL ENERGIES
----------------

  NO   OCC          E(Eh)            E(eV)
   0   2.0000    -104.823984     -2852.4056
   1   2.0000     -91.967093     -2502.5518
   2   2.0000     -11.344634      -308.7032
   3   2.0000     -11.241545      -305.8980
   4   2.0000     -11.240739      -305.8761
   5   2.0000     -10.548447      -287.0378
   6   2.0000      -8.968602      -244.0481
   7   2.0000      -8.015104      -218.1021
   8   2.0000      -8.013400      -218.0557
   9   2.0000      -8.013379      -218.0551
  10   2.0000      -6.649804      -180.9504
  11   2.0000      -6.648810      -180.9233
  12   2.0000      -6.647768      -180.8950
  13   2.0000      -1.167195       -31.7610
  14   2.0000      -1.037377       -28.2285
  15   2.0000      -0.966439       -26.2982
  16   2.0000      -0.964456       -26.2442
  17   2.0000      -0.763645       -20.7798
  18   2.0000      -0.643347       -17.5064
  19   2.0000      -0.628321       -17.0975
  20   2.0000      -0.612951       -16.6792
  21   2.0000      -0.571100       -15.5404
  22   2.0000      -0.530554       -14.4371
  23   2.0000      -0.520619       -14.1668
  24   2.0000      -0.516716       -14.0606
  25   2.0000      -0.477912       -13.0047
  26   2.0000      -0.438073       -11.9206
  27   2.0000      -0.430411       -11.7121
  28   2.0000      -0.370277       -10.0757
  29   0.0000       0.029095         0.7917
  30   0.0000       0.037886         1.0309
  31   0.0000       0.042825         1.1653
  32   0.0000       0.046854         1.2750
  33   0.0000       0.058288         1.5861

MULLIKEN ATOMIC CHARGES
-----------------------
   0 C :    0.887922
   1 C :   -1.013254
   2 C :   -1.035854
   3 H :    0.359030
   4 H :    0.314307
   5 H :    0.305918
   6 H :    0.296208
   7 H :    0.334440
   8 H :    0.324191
   9 S :   -0.398546
  10 H :    0.119923
  11 Cl:   -0.494285
Sum of atomic charges:   -0.0000000

LOEWDIN ATOMIC CHARGES
----------------------
   0 C :   -1.278686
   1 C :    0.391907
   2 C :    0.404136
   3 H :   -0.194097
   4 H :   -0.182757
   5 H :   -0.179976
   6 H :   -0.182960
   7 H :   -0.195478
   8 H :   -0.179058
   9 S :    1.275466
  10 H :   -0.563084
  11 Cl:    0.884588

  Mayer bond orders larger than 0.100000
B(  0-C ,  1-C ) :   0.7577 B(  0-C ,  2-C ) :   0.7543 B(  0-C ,  9-S ) :   0.7246
B(  0-C , 11-Cl) :   0.6805 B(  1-C ,  3-H ) :   0.9228 B(  1-C ,  4-H ) :   0.9446
B(  1-C ,  5-H ) :   0.9081 B(  2-C ,  6-H ) :   0.9273 B(  2-C ,  7-H ) :   0.9521
B(  2-C ,  8-H ) :   0.9050 B(  9-S , 10-H ) :   1.0770

MP2 TOTAL ENERGY:     -975.709657121 Eh
FINAL SINGLE POINT ENERGY      -975.709657121429

DIPOLE MOMENT
-------------
                                X             Y             Z
Electronic contribution:      2.65766      -7.36281      -1.19983
Nuclear contribution   :     -2.87802       8.08228       1.50628
                        -----------------------------------------
Total Dipole Moment    :     -0.22035       0.71947       0.30645
                        -----------------------------------------
Magnitude (a.u.)       :      0.81247
Magnitude (Debye)      :      2.06513

Rotational constants in cm-1:     0.120775     0.079579     0.070125
Rotational constants in MHz :  3620.755935  2385.708406  2102.300165

                             ****ORCA TERMINATED NORMALLY****
TOTAL RUN TIME: 0 days 0 hours 1 minutes 10 seconds 926 msec
