                         Program Version 4.2.1 -  RELEASE  -
|  1> %pal
|  2>  nprocs 32
|  3> end
|  4> !RI-MP2 aug-cc-pVTZ aug-cc-pVTZ/C TightSCF
|  5> %maxcore 4500
|  6> *xyzfile 0 1  02_46P.xyz
|  7>
|  8>
|  9>                          ****END OF INPUT****

CARTESIAN COORDINATES (ANGSTROEM)
---------------------------------
  C      1.262680    3.788556   -0.086695
  O      0.680117    2.490887   -0.065159
  H      0.466139    4.497817   -0.305394
  C     -0.146142   -0.830146   -0.525274
  C      1.049996   -0.123231    0.098783
  C     -1.499848   -0.201610   -0.288152
  C     -2.531029   -0.451062   -1.191476
  C     -1.775962    0.587389    0.823525
  C     -3.803736    0.061682   -0.988629
  C     -3.046817    1.104826    1.031728
  C      3.413869    0.175759    0.141059
  C     -4.067094    0.842248    0.128850
  C      2.345164   -0.730035   -0.458651
  C      2.397756   -2.208163   -0.242607
  C      1.275016   -2.905065   -0.095749
  C     -0.121702   -2.325884   -0.079045
  C     -0.756724   -2.569301    1.295297
  O      2.831304    1.491294    0.083963
  B      1.458283    1.396270    0.014424
  H     -2.330707   -1.054798   -2.070848
  H     -0.990717    0.814733    1.532343
  H     -4.589087   -0.143152   -1.706715
  H     -3.238866    1.720773    1.902410
  H      4.353255    0.190144   -0.411957
  H      3.620209   -0.077021    1.186319
  H     -5.058341    1.248378    0.290607
  H     -1.816101   -2.313217    1.295642
  H     -0.263787   -1.978060    2.070656
  H     -0.659493   -3.620647    1.575255
  H      2.037457    3.857086   -0.852248
  H      1.706260    4.026991    0.882085
  H      1.334965   -3.981142    0.045256
  H      3.357693   -2.716729   -0.254170
  H      0.014378   -0.831226   -1.609230
  H     -0.716055   -2.889832   -0.807474
  H      1.055482   -0.344362    1.179595
  H      2.361976   -0.540297   -1.542467

 Total Charge           Charge          ....    0
 Multiplicity           Mult            ....    1
 Number of Electrons    NEL             ....  130
 Basis Dimension        Dim             .... 1265

ORBITAL ENERGIES
----------------

  NO   OCC          E(Eh)            E(eV)
   0   2.0000     -20.556208      -559.3629
   1   2.0000     -20.555131      -559.3336
   2   2.0000     -11.280791      -306.9659
   3   2.0000     -11.271433      -306.7113
   4   2.0000     -11.233192      -305.6707
   5   2.0000     -11.232698      -305.6572
   6   2.0000     -11.232565      -305.6536
   7   2.0000     -11.229552      -305.5717
   8   2.0000     -11.227188      -305.5073
   9   2.0000     -11.226587      -305.4910
  10   2.0000     -11.225493      -305.4612
  11   2.0000     -11.225075      -305.4498
  12   2.0000     -11.223029      -305.3941
  13   2.0000     -11.222431      -305.3779
  14   2.0000     -11.220237      -305.3182
  15   2.0000     -11.208951      -305.0111
  16   2.0000     -11.202938      -304.8474
  17   2.0000      -7.621200      -207.3834
  18   2.0000      -1.385721       -37.7074
  19   2.0000      -1.352010       -36.7901
  20   2.0000      -1.159508       -31.5518
  21   2.0000      -1.131908       -30.8008
  22   2.0000      -1.057848       -28.7855
  23   2.0000      -1.036623       -28.2079
  24   2.0000      -1.007939       -27.4274
  25   2.0000      -0.985379       -26.8135
  26   2.0000      -0.955130       -25.9904
  27   2.0000      -0.933908       -25.4129
  28   2.0000      -0.893067       -24.3016
  29   2.0000      -0.841603       -22.9012
  30   2.0000      -0.826130       -22.4801
  31   2.0000      -0.803124       -21.8541
  32   2.0000      -0.783356       -21.3162
  33   2.0000      -0.718107       -19.5407
  34   2.0000      -0.714047       -19.4302
  35   2.0000      -0.693566       -18.8729
  36   2.0000      -0.674641       -18.3579
  37   2.0000      -0.660390       -17.9701
  38   2.0000      -0.641971       -17.4689
  39   2.0000      -0.631721       -17.1900
  40   2.0000      -0.627058       -17.0631
  41   2.0000      -0.619247       -16.8506
  42   2.0000      -0.613194       -16.6859
  43   2.0000      -0.602150       -16.3853
  44   2.0000      -0.590666       -16.0728
  45   2.0000      -0.579888       -15.7796
  46   2.0000      -0.576137       -15.6775
  47   2.0000      -0.565199       -15.3798
  48   2.0000      -0.549708       -14.9583
  49   2.0000      -0.534488       -14.5441
  50   2.0000      -0.514944       -14.0123
  51   2.0000      -0.508793       -13.8450
  52   2.0000      -0.500289       -13.6136
  53   2.0000      -0.491247       -13.3675
  54   2.0000      -0.490511       -13.3475
  55   2.0000      -0.486271       -13.2321
  56   2.0000      -0.477417       -12.9912
  57   2.0000      -0.470459       -12.8019
  58   2.0000      -0.454125       -12.3574
  59   2.0000      -0.448062       -12.1924
  60   2.0000      -0.441355       -12.0099
  61   2.0000      -0.411479       -11.1969
  62   2.0000      -0.349934        -9.5222
  63   2.0000      -0.329494        -8.9660
  64   2.0000      -0.319013        -8.6808
  65   0.0000       0.024350         0.6626
  66   0.0000       0.029586         0.8051
  67   0.0000       0.030958         0.8424
  68   0.0000       0.033277         0.9055
  69   0.0000       0.039569         1.0767

MULLIKEN ATOMIC CHARGES
-----------------------
   0 C :   -0.800545
   1 O :   -0.238285
   2 H :    0.335982
   3 C :    0.293344
   4 C :    0.304374
   5 C :    1.652711
   6 C :   -1.118259
   7 C :    0.171367
   8 C :   -0.765527
   9 C :   -1.158918
  10 C :   -0.455484
  11 C :   -0.109427
  12 C :    0.118367
  13 C :   -0.977317
  14 C :   -1.018058
  15 C :    0.564692
  16 C :   -1.067069
  17 O :   -0.716729
  18 B :    0.194031
  19 H :   -0.114167
  20 H :   -0.197640
  21 H :    0.587553
  22 H :    0.419135
  23 H :    0.339045
  24 H :    0.251711
  25 H :    0.563554
  26 H :    0.364404
  27 H :    0.268423
  28 H :    0.226488
  29 H :    0.399333
  30 H :    0.338603
  31 H :    0.114676
  32 H :    0.509818
  33 H :   -0.180569
  34 H :    0.254680
  35 H :    0.336094
  36 H :    0.309611
Sum of atomic charges:   -0.0000000

LOEWDIN ATOMIC CHARGES
----------------------
   0 C :    0.356082
   1 O :    0.626469
   2 H :   -0.178855
   3 C :    0.030294
   4 C :    0.108290
   5 C :   -0.092675
   6 C :    0.224988
   7 C :    0.221010
   8 C :    0.200419
   9 C :    0.210214
  10 C :    0.105980
  11 C :    0.192810
  12 C :   -0.038240
  13 C :    0.277557
  14 C :    0.258629
  15 C :    0.000962
  16 C :    0.597282
  17 O :    0.652031
  18 B :   -0.914330
  19 H :   -0.167640
  20 H :   -0.176203
  21 H :   -0.182443
  22 H :   -0.179693
  23 H :   -0.138656
  24 H :   -0.132596
  25 H :   -0.185655
  26 H :   -0.166125
  27 H :   -0.157533
  28 H :   -0.159260
  29 H :   -0.171668
  30 H :   -0.167072
  31 H :   -0.170238
  32 H :   -0.169986
  33 H :   -0.131483
  34 H :   -0.130603
  35 H :   -0.137578
  36 H :   -0.114483

  Mayer bond orders larger than 0.100000
B(  0-C ,  1-O ) :   0.8583 B(  0-C ,  2-H ) :   0.9340 B(  0-C , 29-H ) :   0.8319
B(  0-C , 30-H ) :   0.8806 B(  1-O ,  4-C ) :  -0.4800 B(  1-O , 18-B ) :   0.5766
B(  3-C ,  4-C ) :   0.9886 B(  3-C ,  5-C ) :   0.3888 B(  3-C ,  6-C ) :   0.4963
B(  3-C ,  7-C ) :   0.3079 B(  3-C ,  8-C ) :   0.1020 B(  3-C ,  9-C ) :   0.2338
B(  3-C , 13-C ) :  -0.1810 B(  3-C , 14-C ) :  -0.1073 B(  3-C , 15-C ) :   1.0349
B(  3-C , 19-H ) :  -0.1484 B(  3-C , 33-H ) :   1.2173 B(  3-C , 34-H ) :  -0.1291
B(  4-C ,  7-C ) :  -0.1100 B(  4-C , 12-C ) :   0.7690 B(  4-C , 13-C ) :   0.2607
B(  4-C , 15-C ) :   0.1028 B(  4-C , 18-B ) :   1.4606 B(  4-C , 20-H ) :  -0.2628
B(  4-C , 35-H ) :   0.8853 B(  5-C ,  6-C ) :   0.1473 B(  5-C ,  7-C ) :   1.2523
B(  5-C , 14-C ) :   0.1436 B(  5-C , 16-C ) :  -0.1745 B(  5-C , 19-H ) :  -0.2831
B(  5-C , 33-H ) :  -0.4218 B(  6-C ,  7-C ) :  -1.0350 B(  6-C ,  8-C ) :   1.4997
B(  6-C ,  9-C ) :   0.2617 B(  6-C , 19-H ) :   1.7154 B(  6-C , 20-H ) :   0.1080
B(  6-C , 25-H ) :   0.1115 B(  7-C ,  9-C ) :   0.9992 B(  7-C , 19-H ) :   0.1248
B(  7-C , 20-H ) :   1.6118 B(  8-C ,  9-C ) :   0.2378 B(  8-C , 11-C ) :   1.0930
B(  8-C , 21-H ) :   0.5356 B(  8-C , 25-H ) :  -0.1688 B(  9-C , 11-C ) :   1.1078
B(  9-C , 22-H ) :   0.8102 B(  9-C , 25-H ) :  -0.1861 B( 10-C , 12-C ) :   0.9077
B( 10-C , 17-O ) :   0.6678 B( 10-C , 23-H ) :   0.9691 B( 10-C , 24-H ) :   1.0433
B( 11-C , 20-H ) :  -0.1100 B( 11-C , 25-H ) :   0.6239 B( 12-C , 13-C ) :   0.4455
B( 12-C , 14-C ) :   0.1167 B( 12-C , 17-O ) :   0.1415 B( 12-C , 36-H ) :   0.9636
B( 13-C , 14-C ) :   1.7142 B( 13-C , 15-C ) :   0.1606 B( 13-C , 31-H ) :  -0.1358
B( 13-C , 32-H ) :   0.5941 B( 13-C , 36-H ) :  -0.2141 B( 14-C , 15-C ) :   0.2746
B( 14-C , 31-H ) :   1.3839 B( 14-C , 34-H ) :  -0.2468 B( 15-C , 16-C ) :   0.6698
B( 15-C , 34-H ) :   1.1145 B( 16-C , 26-H ) :   0.9309 B( 16-C , 27-H ) :   1.0150
B( 16-C , 28-H ) :   1.0748 B( 17-O , 18-B ) :   0.8499 B( 19-H , 20-H ) :   0.2397

MP2 TOTAL ENERGY:     -756.899950854 Eh
FINAL SINGLE POINT ENERGY      -756.899950853818

DIPOLE MOMENT
-------------
                                X             Y             Z
Electronic contribution:      0.81972       5.04810      -2.43678
Nuclear contribution   :     -0.47905      -5.24036       2.40831
                        -----------------------------------------
Total Dipole Moment    :      0.34067      -0.19226      -0.02847
                        -----------------------------------------
Magnitude (a.u.)       :      0.39221
Magnitude (Debye)      :      0.99693

Rotational constants in cm-1:     0.018685     0.012420     0.008270
Rotational constants in MHz :   560.166016   372.328667   247.939048

                             ****ORCA TERMINATED NORMALLY****
TOTAL RUN TIME: 0 days 0 hours 38 minutes 52 seconds 772 msec
