                         Program Version 4.2.1 -  RELEASE  -
|  1> %pal
|  2>  nprocs 32
|  3> end
|  4> !RI-MP2 aug-cc-pVTZ aug-cc-pVTZ/C TightSCF
|  5> %maxcore 4500
|  6> *xyzfile 0 1  10_32R2.xyz
|  7>
|  8>
|  9>                          ****END OF INPUT****

CARTESIAN COORDINATES (ANGSTROEM)
---------------------------------
  C      0.664719    0.663708   -0.000001
  C     -0.664720    0.663708    0.000000
  C     -1.580087   -0.521952    0.000000
  H     -2.232678   -0.504847    0.877747
  H     -2.232682   -0.504842   -0.877745
  H     -1.045277   -1.471022   -0.000003
  C      1.580087   -0.521952    0.000000
  H      2.232674   -0.504847    0.877751
  H      1.045279   -1.471023   -0.000006
  H      2.232686   -0.504840   -0.877742
  H      1.162623    1.630172    0.000000
  H     -1.162624    1.630172    0.000001

 Total Charge           Charge          ....    0
 Multiplicity           Mult            ....    1
 Number of Electrons    NEL             ....   32
 Basis Dimension        Dim             ....  368

ORBITAL ENERGIES
----------------

  NO   OCC          E(Eh)            E(eV)
   0   2.0000     -11.222528      -305.3805
   1   2.0000     -11.220791      -305.3332
   2   2.0000     -11.217388      -305.2407
   3   2.0000     -11.217380      -305.2404
   4   2.0000      -1.077608       -29.3232
   5   2.0000      -0.978215       -26.6186
   6   2.0000      -0.894165       -24.3315
   7   2.0000      -0.719298       -19.5731
   8   2.0000      -0.652597       -17.7581
   9   2.0000      -0.572328       -15.5738
  10   2.0000      -0.570729       -15.5303
  11   2.0000      -0.552871       -15.0444
  12   2.0000      -0.534197       -14.5362
  13   2.0000      -0.512621       -13.9491
  14   2.0000      -0.470839       -12.8122
  15   2.0000      -0.343238        -9.3400
  16   0.0000       0.031153         0.8477
  17   0.0000       0.037239         1.0133
  18   0.0000       0.039979         1.0879
  19   0.0000       0.045148         1.2285
  20   0.0000       0.053600         1.4585

MULLIKEN ATOMIC CHARGES
-----------------------
   0 C :   -0.377396
   1 C :   -0.377396
   2 C :   -0.775423
   3 H :    0.226891
   4 H :    0.226891
   5 H :    0.347752
   6 C :   -0.775424
   7 H :    0.226892
   8 H :    0.347752
   9 H :    0.226890
  10 H :    0.351285
  11 H :    0.351285
Sum of atomic charges:    0.0000000

LOEWDIN ATOMIC CHARGES
----------------------
   0 C :    0.195719
   1 C :    0.195719
   2 C :    0.551806
   3 H :   -0.175021
   4 H :   -0.175021
   5 H :   -0.200369
   6 C :    0.551806
   7 H :   -0.175021
   8 H :   -0.200369
   9 H :   -0.175021
  10 H :   -0.197114
  11 H :   -0.197114

  Mayer bond orders larger than 0.100000
B(  0-C ,  1-C ) :   1.4748 B(  0-C ,  6-C ) :   0.8518 B(  0-C , 10-H ) :   0.8997
B(  0-C , 11-H ) :  -0.1119 B(  1-C ,  2-C ) :   0.8518 B(  1-C , 10-H ) :  -0.1119
B(  1-C , 11-H ) :   0.8997 B(  2-C ,  3-H ) :   1.0352 B(  2-C ,  4-H ) :   1.0352
B(  2-C ,  5-H ) :   0.8231 B(  2-C , 11-H ) :  -0.1100 B(  6-C ,  7-H ) :   1.0352
B(  6-C ,  8-H ) :   0.8231 B(  6-C ,  9-H ) :   1.0352 B(  6-C , 10-H ) :  -0.1100

MP2 TOTAL ENERGY:     -156.860814629 Eh
FINAL SINGLE POINT ENERGY      -156.860814628616

DIPOLE MOMENT
-------------
                                X             Y             Z
Electronic contribution:     -0.00000       1.72099      -0.00000
Nuclear contribution   :      0.00000      -1.82205       0.00000
                        -----------------------------------------
Total Dipole Moment    :     -0.00000      -0.10107       0.00000
                        -----------------------------------------
Magnitude (a.u.)       :      0.10107
Magnitude (Debye)      :      0.25689

Rotational constants in cm-1:     0.545039     0.170758     0.136567
Rotational constants in MHz : 16339.844809  5119.199462  4094.169726

                             ****ORCA TERMINATED NORMALLY****
TOTAL RUN TIME: 0 days 0 hours 0 minutes 34 seconds 594 msec
