                         Program Version 4.2.1 -  RELEASE  -
|  1> %pal
|  2>  nprocs 32
|  3> end
|  4> !RI-MP2 aug-cc-pVTZ aug-cc-pVTZ/C TightSCF
|  5> %maxcore 4500
|  6> *xyzfile -1 1  08_14TS.xyz
|  7>
|  8>
|  9>                          ****END OF INPUT****

CARTESIAN COORDINATES (ANGSTROEM)
---------------------------------
  N      3.216906   -0.026118   -0.717933
  C      2.535054    1.161211   -0.360481
  C      1.531888    1.088407    0.608842
  N      1.241136   -0.147666    1.159984
  C      1.349874   -1.252344    0.247437
  C      2.736109   -1.244952   -0.387944
  N      3.409484   -2.312290   -0.691572
  C      2.950447   -3.547487   -0.311927
  C      1.123202   -2.549859    1.032315
  N      1.852919   -3.608952    0.562067
  C      2.862317    2.392121   -0.915731
  C      2.219960    3.560337   -0.522895
  C      1.221056    3.487279    0.455841
  C      0.890048    2.256831    1.004655
  O      3.475720   -4.587121   -0.650112
  O      0.325975   -2.658690    1.932324
  O      0.502037   -1.232045   -0.843967
  O     -1.126704   -1.125227   -0.027626
  C      4.452485    0.072435   -1.479051
  H      4.246917    0.406550   -2.499129
  H      4.906241   -0.912309   -1.511778
  H      5.124162    0.783450   -0.996214
  C      2.593365    4.875238   -1.153061
  H      3.392158    4.744083   -1.884901
  H      1.742916    5.332879   -1.667871
  H      2.939184    5.598695   -0.408124
  C      0.488148    4.723192    0.903445
  H      1.171485    5.467327    1.324477
  H     -0.033250    5.204193    0.070191
  H     -0.252044    4.476282    1.664458
  H      3.630118    2.452911   -1.675509
  H      0.097159    2.171897    1.739771
  C     -2.682366   -0.868390    1.163414
  C     -3.737084   -1.153423    0.280920
  C     -4.423803   -0.144360   -0.368993
  C     -4.084936    1.211507   -0.081388
  C     -3.118100    1.531391    0.815471
  C     -2.387742    0.511068    1.544288
  H      1.635513   -4.524005    0.931038
  H      0.392653   -0.178630    1.721309
  H     -3.986832   -2.187008    0.078758
  H     -4.630822    1.986433   -0.607033
  H     -2.875541    2.563524    1.039192
  C     -5.480485   -0.409136   -1.330756
  O     -6.129814    0.422916   -1.931527
  O     -5.725232   -1.733966   -1.535731
  H     -6.433107   -1.765075   -2.190919
  O     -1.530344    0.788151    2.398990
  H     -2.287198   -1.640490    1.808711
  H     -1.392551   -0.514056   -0.729466

 Total Charge           Charge          ....   -1
 Multiplicity           Mult            ....    1
 Number of Electrons    NEL             ....  224
 Basis Dimension        Dim             .... 1863

ORBITAL ENERGIES
----------------

  NO   OCC          E(Eh)            E(eV)
   0   2.0000     -20.557921      -559.4095
   1   2.0000     -20.514822      -558.2367
   2   2.0000     -20.442400      -556.2660
   3   2.0000     -20.440342      -556.2100
   4   2.0000     -20.437028      -556.1198
   5   2.0000     -20.424288      -555.7731
   6   2.0000     -20.394815      -554.9711
   7   2.0000     -15.526761      -422.5047
   8   2.0000     -15.504780      -421.9065
   9   2.0000     -15.461130      -420.7187
  10   2.0000     -15.446149      -420.3111
  11   2.0000     -11.285980      -307.1071
  12   2.0000     -11.283008      -307.0263
  13   2.0000     -11.264331      -306.5180
  14   2.0000     -11.256252      -306.2982
  15   2.0000     -11.237846      -305.7973
  16   2.0000     -11.202070      -304.8238
  17   2.0000     -11.183010      -304.3052
  18   2.0000     -11.178272      -304.1762
  19   2.0000     -11.176410      -304.1256
  20   2.0000     -11.164322      -303.7966
  21   2.0000     -11.153714      -303.5080
  22   2.0000     -11.148924      -303.3776
  23   2.0000     -11.145989      -303.2978
  24   2.0000     -11.145541      -303.2856
  25   2.0000     -11.143884      -303.2405
  26   2.0000     -11.141048      -303.1633
  27   2.0000     -11.130129      -302.8662
  28   2.0000     -11.128933      -302.8337
  29   2.0000     -11.123910      -302.6970
  30   2.0000     -11.118295      -302.5442
  31   2.0000      -1.365917       -37.1685
  32   2.0000      -1.321020       -35.9468
  33   2.0000      -1.295053       -35.2402
  34   2.0000      -1.278461       -34.7887
  35   2.0000      -1.256380       -34.1878
  36   2.0000      -1.242389       -33.8071
  37   2.0000      -1.234474       -33.5917
  38   2.0000      -1.185293       -32.2535
  39   2.0000      -1.159516       -31.5520
  40   2.0000      -1.125499       -30.6264
  41   2.0000      -1.099693       -29.9242
  42   2.0000      -1.057418       -28.7738
  43   2.0000      -1.046963       -28.4893
  44   2.0000      -0.958662       -26.0865
  45   2.0000      -0.946853       -25.7652
  46   2.0000      -0.926242       -25.2043
  47   2.0000      -0.908537       -24.7225
  48   2.0000      -0.903239       -24.5784
  49   2.0000      -0.872986       -23.7552
  50   2.0000      -0.858277       -23.3549
  51   2.0000      -0.814838       -22.1729
  52   2.0000      -0.781479       -21.2651
  53   2.0000      -0.771073       -20.9820
  54   2.0000      -0.746953       -20.3256
  55   2.0000      -0.736629       -20.0447
  56   2.0000      -0.736322       -20.0363
  57   2.0000      -0.692631       -18.8474
  58   2.0000      -0.688910       -18.7462
  59   2.0000      -0.668017       -18.1777
  60   2.0000      -0.639946       -17.4138
  61   2.0000      -0.623535       -16.9673
  62   2.0000      -0.611890       -16.6504
  63   2.0000      -0.606123       -16.4935
  64   2.0000      -0.592335       -16.1182
  65   2.0000      -0.589143       -16.0314
  66   2.0000      -0.569228       -15.4895
  67   2.0000      -0.565543       -15.3892
  68   2.0000      -0.558352       -15.1935
  69   2.0000      -0.548910       -14.9366
  70   2.0000      -0.542377       -14.7588
  71   2.0000      -0.541092       -14.7239
  72   2.0000      -0.536865       -14.6088
  73   2.0000      -0.532835       -14.4992
  74   2.0000      -0.527385       -14.3509
  75   2.0000      -0.524013       -14.2591
  76   2.0000      -0.521134       -14.1808
  77   2.0000      -0.514189       -13.9918
  78   2.0000      -0.512318       -13.9409
  79   2.0000      -0.508048       -13.8247
  80   2.0000      -0.488382       -13.2895
  81   2.0000      -0.485617       -13.2143
  82   2.0000      -0.481644       -13.1062
  83   2.0000      -0.473223       -12.8771
  84   2.0000      -0.472009       -12.8440
  85   2.0000      -0.464041       -12.6272
  86   2.0000      -0.461382       -12.5548
  87   2.0000      -0.453427       -12.3384
  88   2.0000      -0.451230       -12.2786
  89   2.0000      -0.445568       -12.1245
  90   2.0000      -0.440366       -11.9830
  91   2.0000      -0.435381       -11.8473
  92   2.0000      -0.417365       -11.3571
  93   2.0000      -0.410559       -11.1719
  94   2.0000      -0.400491       -10.8979
  95   2.0000      -0.398007       -10.8303
  96   2.0000      -0.392615       -10.6836
  97   2.0000      -0.388932       -10.5834
  98   2.0000      -0.376730       -10.2513
  99   2.0000      -0.357763        -9.7352
 100   2.0000      -0.355393        -9.6707
 101   2.0000      -0.348135        -9.4732
 102   2.0000      -0.337152        -9.1744
 103   2.0000      -0.324345        -8.8259
 104   2.0000      -0.319362        -8.6903
 105   2.0000      -0.313290        -8.5251
 106   2.0000      -0.300006        -8.1636
 107   2.0000      -0.291964        -7.9448
 108   2.0000      -0.239925        -6.5287
 109   2.0000      -0.227515        -6.1910
 110   2.0000      -0.185787        -5.0555
 111   2.0000      -0.165340        -4.4991
 112   0.0000       0.078715         2.1419
 113   0.0000       0.089228         2.4280
 114   0.0000       0.093263         2.5378
 115   0.0000       0.097216         2.6454
 116   0.0000       0.099755         2.7145

MULLIKEN ATOMIC CHARGES
-----------------------
   0 N :   -0.203396
   1 C :    0.616354
   2 C :    2.663985
   3 N :   -1.155376
   4 C :    2.677016
   5 C :    0.450909
   6 N :   -0.539499
   7 C :   -0.036509
   8 C :   -0.125281
   9 N :    0.139097
  10 C :   -0.223216
  11 C :    0.172512
  12 C :    0.798050
  13 C :   -1.763012
  14 O :   -0.908465
  15 O :   -0.962453
  16 O :   -1.190395
  17 O :   -0.198268
  18 C :   -1.406034
  19 H :    0.376330
  20 H :    0.333187
  21 H :    0.313798
  22 C :   -1.038318
  23 H :    0.234236
  24 H :    0.246500
  25 H :    0.222588
  26 C :   -1.161705
  27 H :    0.260993
  28 H :    0.227159
  29 H :    0.259519
  30 H :   -0.354140
  31 H :    0.269266
  32 C :    0.115181
  33 C :   -0.984651
  34 C :    1.718162
  35 C :   -1.054088
  36 C :   -0.517453
  37 C :    1.323065
  38 H :    0.103960
  39 H :    0.165132
  40 H :    0.049906
  41 H :    0.147489
  42 H :    0.511573
  43 C :    0.329255
  44 O :   -0.998058
  45 O :   -0.491282
  46 H :    0.239053
  47 O :   -1.486304
  48 H :    0.686463
  49 H :    0.147166
Sum of atomic charges:   -1.0000000

LOEWDIN ATOMIC CHARGES
----------------------
   0 N :    0.289711
   1 C :   -0.159327
   2 C :   -0.189554
   3 N :    0.583253
   4 C :   -0.807389
   5 C :   -0.369296
   6 N :    0.395180
   7 C :   -0.876583
   8 C :   -0.649255
   9 N :    0.540412
  10 C :    0.238612
  11 C :   -0.102048
  12 C :   -0.098104
  13 C :    0.265639
  14 O :    0.405514
  15 O :    0.480614
  16 O :    0.412566
  17 O :    0.816646
  18 C :    0.506823
  19 H :   -0.148585
  20 H :   -0.215935
  21 H :   -0.155596
  22 C :    0.564488
  23 H :   -0.181177
  24 H :   -0.168813
  25 H :   -0.170471
  26 C :    0.573105
  27 H :   -0.169226
  28 H :   -0.167951
  29 H :   -0.175879
  30 H :   -0.200525
  31 H :   -0.241683
  32 C :    0.034912
  33 C :    0.187551
  34 C :   -0.174394
  35 C :    0.172197
  36 C :    0.202782
  37 C :   -0.615174
  38 H :   -0.280913
  39 H :   -0.373494
  40 H :   -0.176214
  41 H :   -0.184567
  42 H :   -0.200924
  43 C :   -0.846890
  44 O :    0.423634
  45 O :    0.822001
  46 H :   -0.496979
  47 O :    0.448666
  48 H :   -0.203958
  49 H :   -0.563400

  Mayer bond orders larger than 0.100000
B(  0-N ,  1-C ) :  -0.3111 B(  0-N ,  2-C ) :  -0.2187 B(  0-N ,  4-C ) :   0.2064
B(  0-N ,  5-C ) :   0.8874 B(  0-N ,  6-N ) :  -0.1308 B(  0-N , 10-C ) :  -1.0892
B(  0-N , 11-C ) :   0.2009 B(  0-N , 12-C ) :  -0.1047 B(  0-N , 18-C ) :   1.3710
B(  0-N , 30-H ) :  -0.2427 B(  1-C ,  2-C ) :  -0.3687 B(  1-C ,  3-N ) :   0.9729
B(  1-C ,  4-C ) :   0.2544 B(  1-C ,  5-C ) :  -1.2659 B(  1-C ,  6-N ) :   0.2901
B(  1-C , 10-C ) :  -0.1012 B(  1-C , 11-C ) :   0.4788 B(  1-C , 12-C ) :  -0.1993
B(  1-C , 13-C ) :   0.1720 B(  1-C , 16-O ) :   0.1479 B(  1-C , 18-C ) :  -0.2844
B(  1-C , 22-C ) :  -0.2717 B(  1-C , 26-C ) :   0.1201 B(  1-C , 30-H ) :  -0.7023
B(  2-C ,  3-N ) :  -0.9174 B(  2-C ,  4-C ) :   0.2484 B(  2-C ,  8-C ) :  -0.1417
B(  2-C , 10-C ) :  -0.4779 B(  2-C , 11-C ) :   0.2834 B(  2-C , 12-C ) :   0.1684
B(  2-C , 13-C ) :  -0.1275 B(  2-C , 22-C ) :   0.1430 B(  2-C , 23-H ) :  -0.1252
B(  2-C , 24-H ) :   0.1032 B(  2-C , 26-C ) :  -0.2456 B(  2-C , 31-H ) :  -0.2143
B(  2-C , 39-H ) :  -0.2147 B(  2-C , 47-O ) :   0.1617 B(  3-N ,  4-C ) :   0.8367
B(  3-N ,  8-C ) :   0.4616 B(  3-N , 10-C ) :   0.1465 B(  3-N , 12-C ) :  -0.1467
B(  3-N , 13-C ) :  -0.4947 B(  3-N , 16-O ) :   0.2704 B(  3-N , 39-H ) :   0.9592
B(  4-C ,  6-N ) :  -0.2158 B(  4-C ,  7-C ) :  -0.3517 B(  4-C ,  8-C ) :  -0.6612
B(  4-C ,  9-N ) :  -0.2516 B(  4-C , 11-C ) :   0.1471 B(  4-C , 13-C ) :   0.1453
B(  4-C , 15-O ) :  -0.2458 B(  4-C , 16-O ) :   0.2042 B(  4-C , 17-O ) :  -0.2959
B(  5-C ,  6-N ) :  -0.2101 B(  5-C ,  7-C ) :  -0.4820 B(  5-C , 12-C ) :   0.1170
B(  5-C , 13-C ) :   0.1716 B(  5-C , 30-H ) :   0.1111 B(  6-N ,  7-C ) :   1.2838
B(  6-N , 14-O ) :  -0.3173 B(  6-N , 20-H ) :   0.1171 B(  7-C ,  8-C ) :  -0.3001
B(  7-C ,  9-N ) :   1.0769 B(  7-C , 14-O ) :   1.5307 B(  8-C ,  9-N ) :   0.7668
B(  8-C , 15-O ) :   1.2935 B(  9-N , 14-O ) :  -0.2038 B(  9-N , 15-O ) :  -0.2410
B(  9-N , 38-H ) :   1.0736 B( 10-C , 11-C ) :   0.9557 B( 10-C , 12-C ) :  -0.2072
B( 10-C , 13-C ) :  -0.1149 B( 10-C , 18-C ) :  -0.2583 B( 10-C , 22-C ) :  -0.4863
B( 10-C , 23-H ) :  -0.1839 B( 10-C , 24-H ) :  -0.1307 B( 10-C , 25-H ) :  -0.1526
B( 10-C , 26-C ) :   0.1769 B( 10-C , 30-H ) :   2.2032 B( 11-C , 12-C ) :   0.8400
B( 11-C , 24-H ) :  -0.2267 B( 11-C , 25-H ) :  -0.2541 B( 11-C , 26-C ) :   0.5887
B( 11-C , 28-H ) :   0.1131 B( 11-C , 29-H ) :   0.1621 B( 11-C , 30-H ) :  -0.2976
B( 12-C , 13-C ) :   0.2275 B( 12-C , 22-C ) :   0.8878 B( 12-C , 23-H ) :   0.2526
B( 12-C , 25-H ) :   0.1581 B( 12-C , 27-H ) :  -0.1861 B( 12-C , 28-H ) :  -0.1731
B( 12-C , 30-H ) :   0.2332 B( 12-C , 31-H ) :  -0.1015 B( 13-C , 22-C ) :   0.1534
B( 13-C , 26-C ) :  -0.3286 B( 13-C , 27-H ) :  -0.1138 B( 13-C , 28-H ) :  -0.1068
B( 13-C , 29-H ) :  -0.1402 B( 13-C , 30-H ) :   0.1929 B( 13-C , 31-H ) :   1.3136
B( 13-C , 47-O ) :  -0.1602 B( 16-O , 17-O ) :   0.4188 B( 17-O , 32-C ) :   0.1777
B( 17-O , 37-C ) :   0.1070 B( 17-O , 49-H ) :   1.0068 B( 18-C , 19-H ) :   0.9511
B( 18-C , 20-H ) :   0.8996 B( 18-C , 21-H ) :   0.9674 B( 22-C , 23-H ) :   1.0341
B( 22-C , 24-H ) :   1.0751 B( 22-C , 25-H ) :   1.1047 B( 26-C , 27-H ) :   1.0815
B( 26-C , 28-H ) :   1.1025 B( 26-C , 29-H ) :   1.0260 B( 32-C , 33-C ) :   1.2333
B( 32-C , 36-C ) :   0.1758 B( 32-C , 37-C ) :   1.1479 B( 32-C , 48-H ) :   0.5375
B( 33-C , 34-C ) :   0.5161 B( 33-C , 36-C ) :  -0.2306 B( 33-C , 40-H ) :   1.5240
B( 33-C , 43-C ) :   0.4558 B( 33-C , 45-O ) :  -0.1110 B( 33-C , 48-H ) :  -0.2306
B( 34-C , 35-C ) :   0.5328 B( 34-C , 36-C ) :   0.1158 B( 34-C , 40-H ) :  -0.2545
B( 34-C , 41-H ) :  -0.2012 B( 34-C , 43-C ) :  -0.2874 B( 34-C , 47-O ) :   0.1023
B( 35-C , 36-C ) :   1.4539 B( 35-C , 37-C ) :  -0.3616 B( 35-C , 40-H ) :   0.1334
B( 35-C , 41-H ) :   1.1679 B( 35-C , 43-C ) :   0.2163 B( 36-C , 37-C ) :   0.7867
B( 36-C , 41-H ) :  -0.1560 B( 36-C , 42-H ) :   0.6792 B( 36-C , 47-O ) :   0.2210
B( 37-C , 41-H ) :   0.1139 B( 37-C , 48-H ) :  -0.1313 B( 41-H , 44-O ) :   0.1421
B( 43-C , 44-O ) :   1.0822 B( 43-C , 45-O ) :   0.9412 B( 45-O , 46-H ) :   0.9535

MP2 TOTAL ENERGY:    -1516.550454039 Eh
FINAL SINGLE POINT ENERGY     -1516.550454039369

DIPOLE MOMENT
-------------
                                X             Y             Z
Electronic contribution:     -6.41402     -26.52557       3.04109
Nuclear contribution   :      7.13703      28.68344      -3.72523
                        -----------------------------------------
Total Dipole Moment    :      0.72301       2.15787      -0.68414
                        -----------------------------------------
Magnitude (a.u.)       :      2.37638
Magnitude (Debye)      :      6.04028

Rotational constants in cm-1:     0.005806     0.003689     0.002624
Rotational constants in MHz :   174.059292   110.579251    78.656332

                             ****ORCA TERMINATED NORMALLY****
TOTAL RUN TIME: 0 days 2 hours 26 minutes 34 seconds 119 msec
