                         Program Version 4.2.1 -  RELEASE  -
|  1> %pal
|  2>  nprocs 32
|  3> end
|  4> !RI-MP2 aug-cc-pVTZ aug-cc-pVTZ/C TightSCF
|  5> %maxcore 4500
|  6> *xyzfile -1 1  09_19TS.xyz
|  7>
|  8>
|  9>                          ****END OF INPUT****

CARTESIAN COORDINATES (ANGSTROEM)
---------------------------------
  C      4.162504   -0.774386    1.046443
  C      4.764352   -0.449931   -0.161829
  C      4.003066    0.127119   -1.172274
  C      2.656275    0.385997   -0.972056
  C      2.045235    0.078082    0.242762
  C      2.811556   -0.519851    1.239764
  H      2.337392   -0.784411    2.178385
  H      4.744852   -1.233252    1.837873
  H      5.817541   -0.653862   -0.319837
  H      4.462129    0.368527   -2.124676
  H      2.051438    0.815412   -1.760568
  C      0.609933    0.363545    0.461261
  C      0.065363    1.583699    0.065490
  C     -1.349529    1.720529    0.082363
  C     -2.113616    0.422294    0.140489
  C     -1.529086   -0.813508   -0.281200
  C     -2.407337   -1.901664   -0.496548
  C     -3.755587   -1.813335   -0.216742
  C     -4.310343   -0.622352    0.253609
  C     -3.480781    0.476440    0.398544
  H     -3.879527    1.442911    0.686801
  H     -4.386476   -2.685656   -0.362467
  H     -5.369694   -0.551802    0.472686
  H     -1.969709   -2.825768   -0.856786
  O     -0.246698   -0.997378   -0.474048
  O     -1.968485    2.783330   -0.085069
  H      0.219191   -0.098099    1.365291
  H      0.662299    2.342318   -0.424215

 Total Charge           Charge          ....   -1
 Multiplicity           Mult            ....    1
 Number of Electrons    NEL             ....  118
 Basis Dimension        Dim             .... 1035

ORBITAL ENERGIES
----------------

  NO   OCC          E(Eh)            E(eV)
   0   2.0000     -20.372169      -554.3549
   1   2.0000     -20.344604      -553.6048
   2   2.0000     -11.161171      -303.7109
   3   2.0000     -11.154027      -303.5165
   4   2.0000     -11.151171      -303.4388
   5   2.0000     -11.143194      -303.2217
   6   2.0000     -11.141396      -303.1728
   7   2.0000     -11.139474      -303.1205
   8   2.0000     -11.137041      -303.0543
   9   2.0000     -11.135652      -303.0165
  10   2.0000     -11.131013      -302.8903
  11   2.0000     -11.109622      -302.3082
  12   2.0000     -11.097796      -301.9864
  13   2.0000     -11.084217      -301.6169
  14   2.0000     -11.080681      -301.5207
  15   2.0000     -11.075241      -301.3726
  16   2.0000     -11.030995      -300.1686
  17   2.0000      -1.194073       -32.4924
  18   2.0000      -1.180789       -32.1309
  19   2.0000      -1.061937       -28.8968
  20   2.0000      -0.999416       -27.1955
  21   2.0000      -0.959555       -26.1108
  22   2.0000      -0.920605       -25.0509
  23   2.0000      -0.898968       -24.4622
  24   2.0000      -0.866561       -23.5803
  25   2.0000      -0.849417       -23.1138
  26   2.0000      -0.761118       -20.7111
  27   2.0000      -0.732792       -19.9403
  28   2.0000      -0.698482       -19.0067
  29   2.0000      -0.678739       -18.4694
  30   2.0000      -0.665534       -18.1101
  31   2.0000      -0.601163       -16.3585
  32   2.0000      -0.586110       -15.9489
  33   2.0000      -0.549806       -14.9610
  34   2.0000      -0.542131       -14.7521
  35   2.0000      -0.529472       -14.4077
  36   2.0000      -0.512751       -13.9527
  37   2.0000      -0.493128       -13.4187
  38   2.0000      -0.486387       -13.2353
  39   2.0000      -0.481490       -13.1020
  40   2.0000      -0.469027       -12.7629
  41   2.0000      -0.446434       -12.1481
  42   2.0000      -0.434430       -11.8214
  43   2.0000      -0.419128       -11.4051
  44   2.0000      -0.407770       -11.0960
  45   2.0000      -0.404339       -11.0026
  46   2.0000      -0.392930       -10.6922
  47   2.0000      -0.385711       -10.4957
  48   2.0000      -0.378219       -10.2919
  49   2.0000      -0.373019       -10.1504
  50   2.0000      -0.351466        -9.5639
  51   2.0000      -0.316631        -8.6160
  52   2.0000      -0.307071        -8.3558
  53   2.0000      -0.243300        -6.6205
  54   2.0000      -0.240202        -6.5362
  55   2.0000      -0.233442        -6.3523
  56   2.0000      -0.200521        -5.4565
  57   2.0000      -0.153429        -4.1750
  58   2.0000      -0.133240        -3.6257
  59   0.0000       0.087140         2.3712
  60   0.0000       0.096607         2.6288
  61   0.0000       0.103586         2.8187
  62   0.0000       0.106065         2.8862
  63   0.0000       0.112103         3.0505

MULLIKEN ATOMIC CHARGES
-----------------------
   0 C :   -0.607275
   1 C :   -0.004419
   2 C :   -0.957275
   3 C :   -0.578018
   4 C :    1.750897
   5 C :   -1.104659
   6 H :   -0.076617
   7 H :    0.524659
   8 H :    0.439107
   9 H :    0.418361
  10 H :    0.227401
  11 C :    0.379359
  12 C :   -0.859632
  13 C :    0.890063
  14 C :    1.210446
  15 C :    0.979169
  16 C :   -1.197878
  17 C :   -0.152357
  18 C :   -0.533561
  19 C :   -1.252245
  20 H :    0.051808
  21 H :    0.438629
  22 H :    0.494005
  23 H :    0.382593
  24 O :   -1.046915
  25 O :   -1.234583
  26 H :    0.168581
  27 H :    0.250355
Sum of atomic charges:   -1.0000000

LOEWDIN ATOMIC CHARGES
----------------------
   0 C :    0.182634
   1 C :    0.173530
   2 C :    0.190682
   3 C :    0.222032
   4 C :   -0.115133
   5 C :    0.219700
   6 H :   -0.174720
   7 H :   -0.192329
   8 H :   -0.194428
   9 H :   -0.190273
  10 H :   -0.170852
  11 C :   -0.080618
  12 C :    0.161336
  13 C :   -0.639830
  14 C :   -0.117143
  15 C :   -0.522857
  16 C :    0.174071
  17 C :    0.136993
  18 C :    0.154348
  19 C :    0.156008
  20 H :   -0.199058
  21 H :   -0.195745
  22 H :   -0.215125
  23 H :   -0.207988
  24 O :    0.491639
  25 O :    0.368856
  26 H :   -0.190463
  27 H :   -0.225268

  Mayer bond orders larger than 0.100000
B(  0-C ,  1-C ) :   1.0742 B(  0-C ,  2-C ) :   0.1713 B(  0-C ,  4-C ) :   0.1542
B(  0-C ,  5-C ) :   1.1965 B(  0-C ,  6-H ) :  -0.1420 B(  0-C ,  7-H ) :   0.6889
B(  0-C ,  8-H ) :  -0.2029 B(  0-C , 10-H ) :  -0.1119 B(  1-C ,  2-C ) :   1.0950
B(  1-C ,  3-C ) :  -0.1255 B(  1-C ,  5-C ) :  -0.2919 B(  1-C ,  8-H ) :   0.8314
B(  1-C , 11-C ) :   0.1195 B(  2-C ,  3-C ) :   1.4567 B(  2-C ,  5-C ) :   0.2185
B(  2-C ,  8-H ) :  -0.2026 B(  2-C ,  9-H ) :   0.8616 B(  3-C ,  4-C ) :   0.7650
B(  3-C ,  5-C ) :  -0.5075 B(  3-C ,  6-H ) :   0.1014 B(  3-C , 10-H ) :   1.2252
B(  3-C , 11-C ) :   0.3665 B(  4-C ,  5-C ) :  -0.2369 B(  4-C ,  6-H ) :  -0.2970
B(  4-C ,  7-H ) :   0.1173 B(  4-C ,  8-H ) :  -0.1112 B(  4-C , 10-H ) :  -0.2199
B(  4-C , 11-C ) :   0.3386 B(  4-C , 12-C ) :   0.1780 B(  5-C ,  6-H ) :   2.0267
B(  5-C ,  7-H ) :  -0.2691 B(  5-C ,  8-H ) :   0.2686 B(  5-C ,  9-H ) :  -0.1405
B(  5-C , 10-H ) :   0.3516 B(  5-C , 11-C ) :   0.3039 B(  8-H , 11-C ) :   0.1003
B( 10-H , 12-C ) :  -0.1036 B( 11-C , 12-C ) :   0.8740 B( 11-C , 24-O ) :   0.2003
B( 11-C , 26-H ) :   1.0835 B( 12-C , 13-C ) :   0.9750 B( 12-C , 14-C ) :   0.2306
B( 12-C , 15-C ) :  -0.1378 B( 12-C , 27-H ) :   1.0377 B( 13-C , 14-C ) :   0.5567
B( 13-C , 15-C ) :   0.2882 B( 13-C , 19-C ) :   0.2757 B( 13-C , 25-O ) :   0.5328
B( 14-C , 15-C ) :   0.9618 B( 14-C , 16-C ) :   0.1747 B( 14-C , 18-C ) :   0.1738
B( 14-C , 19-C ) :   0.2157 B( 14-C , 20-H ) :  -0.1927 B( 14-C , 22-H ) :  -0.1190
B( 15-C , 16-C ) :   0.5304 B( 15-C , 17-C ) :  -0.1152 B( 15-C , 19-C ) :  -0.2233
B( 15-C , 20-H ) :   0.1088 B( 15-C , 24-O ) :   0.8306 B( 16-C , 17-C ) :   1.1308
B( 16-C , 18-C ) :   0.1764 B( 16-C , 19-C ) :   0.1858 B( 16-C , 21-H ) :  -0.1304
B( 16-C , 23-H ) :   0.8290 B( 17-C , 18-C ) :   0.9993 B( 17-C , 19-C ) :  -0.2887
B( 17-C , 21-H ) :   0.7813 B( 18-C , 19-C ) :   1.2075 B( 18-C , 20-H ) :  -0.1066
B( 18-C , 21-H ) :  -0.2226 B( 18-C , 22-H ) :   0.8113 B( 19-C , 20-H ) :   1.5368
B( 20-H , 25-O ) :   0.1630

MP2 TOTAL ENERGY:     -727.271779500 Eh
FINAL SINGLE POINT ENERGY      -727.271779499940

DIPOLE MOMENT
-------------
                                X             Y             Z
Electronic contribution:     -2.23362       2.08346      -0.29875
Nuclear contribution   :      4.58120      -3.77511       0.67290
                        -----------------------------------------
Total Dipole Moment    :      2.34759      -1.69165       0.37415
                        -----------------------------------------
Magnitude (a.u.)       :      2.91768
Magnitude (Debye)      :      7.41614

Rotational constants in cm-1:     0.038063     0.008733     0.007713
Rotational constants in MHz :  1141.101729   261.800808   231.231104

                             ****ORCA TERMINATED NORMALLY****
TOTAL RUN TIME: 0 days 0 hours 21 minutes 35 seconds 660 msec
