                         Program Version 4.2.1 -  RELEASE  -
|  1> %pal
|  2>  nprocs 32
|  3> end
|  4> !RI-MP2 aug-cc-pVTZ aug-cc-pVTZ/C TightSCF
|  5> %maxcore 4500
|  6> *xyzfile 1 1  10_24R1.xyz
|  7>
|  8>
|  9>                          ****END OF INPUT****

CARTESIAN COORDINATES (ANGSTROEM)
---------------------------------
  C      2.846915   -0.663033    1.195654
  C      2.227336   -1.098769   -0.141879
  C      2.609828    1.053219   -0.475258
  C      3.121448    0.850329    0.957018
  H      2.178856   -0.853337    2.035000
  H      3.764145   -1.226632    1.365866
  H      2.592449    1.492462    1.658541
  H      4.184238    1.081699    1.018337
  C      2.994071   -0.262240   -1.162920
  H      2.621402   -0.358357   -2.183179
  H      4.063051   -0.466350   -1.137895
  H      2.107527   -2.164975   -0.311030
  H      2.892263    1.985279   -0.956164
  N      1.126725    0.959272   -0.409154
  N      0.897394   -0.416668   -0.216256
  C     -0.250998   -0.975076   -0.046955
  C     -1.562290   -0.383599   -0.012628
  C     -1.820392    0.994624    0.079717
  C     -2.638132   -1.286530   -0.033274
  C     -3.125794    1.441977    0.143956
  H     -1.007312    1.702027    0.138784
  C     -3.939154   -0.826669    0.011980
  H     -2.445429   -2.351802   -0.087541
  C     -4.182589    0.538557    0.100263
  H     -3.324681    2.502519    0.227968
  H     -4.763029   -1.527729   -0.012931
  H     -5.202018    0.901775    0.141722
  H      0.682160    1.240956   -1.281894
  H     -0.193948   -2.052503    0.068251

 Total Charge           Charge          ....    1
 Multiplicity           Mult            ....    1
 Number of Electrons    NEL             ....  100
 Basis Dimension        Dim             ....  989

ORBITAL ENERGIES
----------------

  NO   OCC          E(Eh)            E(eV)
   0   2.0000     -15.833500      -430.8514
   1   2.0000     -15.758866      -428.8205
   2   2.0000     -11.491228      -312.6922
   3   2.0000     -11.436602      -311.2058
   4   2.0000     -11.413093      -310.5660
   5   2.0000     -11.396946      -310.1267
   6   2.0000     -11.389831      -309.9331
   7   2.0000     -11.385634      -309.8189
   8   2.0000     -11.379799      -309.6601
   9   2.0000     -11.374156      -309.5065
  10   2.0000     -11.368274      -309.3465
  11   2.0000     -11.366241      -309.2911
  12   2.0000     -11.365954      -309.2833
  13   2.0000     -11.357641      -309.0571
  14   2.0000      -1.543626       -42.0042
  15   2.0000      -1.341614       -36.5072
  16   2.0000      -1.297886       -35.3173
  17   2.0000      -1.269036       -34.5322
  18   2.0000      -1.191643       -32.4263
  19   2.0000      -1.162011       -31.6199
  20   2.0000      -1.125773       -30.6339
  21   2.0000      -1.104439       -30.0533
  22   2.0000      -1.026470       -27.9317
  23   2.0000      -0.990011       -26.9396
  24   2.0000      -0.966154       -26.2904
  25   2.0000      -0.960742       -26.1431
  26   2.0000      -0.912744       -24.8370
  27   2.0000      -0.887902       -24.1610
  28   2.0000      -0.847568       -23.0635
  29   2.0000      -0.825924       -22.4745
  30   2.0000      -0.806809       -21.9544
  31   2.0000      -0.802415       -21.8348
  32   2.0000      -0.779278       -21.2052
  33   2.0000      -0.756073       -20.5738
  34   2.0000      -0.751842       -20.4587
  35   2.0000      -0.738160       -20.0863
  36   2.0000      -0.729050       -19.8385
  37   2.0000      -0.706245       -19.2179
  38   2.0000      -0.683516       -18.5994
  39   2.0000      -0.664768       -18.0893
  40   2.0000      -0.656060       -17.8523
  41   2.0000      -0.651109       -17.7176
  42   2.0000      -0.639644       -17.4056
  43   2.0000      -0.635431       -17.2909
  44   2.0000      -0.626594       -17.0505
  45   2.0000      -0.617701       -16.8085
  46   2.0000      -0.607536       -16.5319
  47   2.0000      -0.550476       -14.9792
  48   2.0000      -0.478023       -13.0077
  49   2.0000      -0.474661       -12.9162
  50   0.0000      -0.094977        -2.5844
  51   0.0000      -0.071376        -1.9422
  52   0.0000      -0.059914        -1.6303
  53   0.0000      -0.052719        -1.4345
  54   0.0000      -0.051574        -1.4034

MULLIKEN ATOMIC CHARGES
-----------------------
   0 C :   -0.612161
   1 C :   -0.313010
   2 C :   -0.135353
   3 C :   -0.594893
   4 H :    0.279701
   5 H :    0.308080
   6 H :    0.301588
   7 H :    0.285601
   8 C :   -0.839845
   9 H :    0.377019
  10 H :    0.257718
  11 H :    0.518264
  12 H :    0.544250
  13 N :   -0.451224
  14 N :    0.433982
  15 C :   -0.238608
  16 C :    2.454107
  17 C :   -0.344884
  18 C :   -0.928382
  19 C :   -1.202698
  20 H :    0.174947
  21 C :   -0.756918
  22 H :   -0.199680
  23 C :   -0.104834
  24 H :    0.538297
  25 H :    0.656199
  26 H :    0.430181
  27 H :   -0.008326
  28 H :    0.170880
Sum of atomic charges:    1.0000000

LOEWDIN ATOMIC CHARGES
----------------------
   0 C :    0.367458
   1 C :   -0.004407
   2 C :   -0.042933
   3 C :    0.361481
   4 H :   -0.131239
   5 H :   -0.126782
   6 H :   -0.134018
   7 H :   -0.128817
   8 C :    0.368716
   9 H :   -0.118933
  10 H :   -0.114011
  11 H :   -0.101010
  12 H :   -0.098545
  13 N :    0.568888
  14 N :    0.223934
  15 C :    0.238131
  16 C :   -0.081446
  17 C :    0.247370
  18 C :    0.232194
  19 C :    0.244217
  20 H :   -0.212324
  21 C :    0.243083
  22 H :   -0.162632
  23 C :    0.247500
  24 H :   -0.167347
  25 H :   -0.166683
  26 H :   -0.156097
  27 H :   -0.262655
  28 H :   -0.133094

  Mayer bond orders larger than 0.100000
B(  0-C ,  1-C ) :   0.8809 B(  0-C ,  3-C ) :   1.0896 B(  0-C ,  4-H ) :   0.9644
B(  0-C ,  5-H ) :   0.9106 B(  0-C ,  8-C ) :   0.1111 B(  1-C ,  2-C ) :  -0.1329
B(  1-C ,  8-C ) :   1.0442 B(  1-C , 11-H ) :   0.6914 B(  1-C , 14-N ) :   1.0556
B(  1-C , 15-C ) :  -0.2941 B(  2-C ,  3-C ) :   0.9316 B(  2-C ,  8-C ) :   1.0567
B(  2-C , 12-H ) :   0.6991 B(  2-C , 13-N ) :   0.9731 B(  3-C ,  6-H ) :   0.9454
B(  3-C ,  7-H ) :   0.9403 B(  8-C ,  9-H ) :   0.8086 B(  8-C , 10-H ) :   1.0687
B(  8-C , 14-N ) :  -0.2645 B( 13-N , 14-N ) :   0.3589 B( 13-N , 15-C ) :  -0.1099
B( 13-N , 16-C ) :   0.2310 B( 13-N , 17-C ) :  -0.2676 B( 13-N , 27-H ) :   1.0262
B( 14-N , 15-C ) :   1.6568 B( 14-N , 16-C ) :  -0.3571 B( 14-N , 22-H ) :  -0.1121
B( 14-N , 25-H ) :   0.1164 B( 14-N , 28-H ) :   0.1166 B( 15-C , 16-C ) :  -0.4953
B( 15-C , 17-C ) :   0.4803 B( 15-C , 18-C ) :   0.3799 B( 15-C , 21-C ) :   0.2701
B( 15-C , 22-H ) :  -0.4780 B( 15-C , 23-C ) :   0.1818 B( 15-C , 24-H ) :   0.1488
B( 15-C , 25-H ) :   0.3034 B( 15-C , 26-H ) :  -0.1407 B( 15-C , 28-H ) :   0.9919
B( 16-C , 17-C ) :   0.3162 B( 16-C , 19-C ) :  -0.2226 B( 16-C , 20-H ) :  -0.3569
B( 16-C , 22-H ) :  -0.4440 B( 16-C , 28-H ) :  -0.1692 B( 17-C , 18-C ) :  -0.7021
B( 17-C , 19-C ) :   1.2191 B( 17-C , 20-H ) :   1.5939 B( 17-C , 22-H ) :   0.2611
B( 17-C , 23-C ) :  -0.1681 B( 18-C , 19-C ) :   0.1939 B( 18-C , 20-H ) :   0.2400
B( 18-C , 21-C ) :   1.1741 B( 18-C , 22-H ) :   2.3385 B( 18-C , 23-C ) :  -0.2918
B( 18-C , 24-H ) :  -0.1058 B( 18-C , 25-H ) :  -0.2178 B( 18-C , 26-H ) :   0.2744
B( 19-C , 21-C ) :   0.3266 B( 19-C , 23-C ) :   1.0659 B( 19-C , 24-H ) :   0.4982
B( 19-C , 26-H ) :  -0.1665 B( 20-H , 21-C ) :  -0.1065 B( 20-H , 22-H ) :   0.2842
B( 20-H , 23-C ) :  -0.1405 B( 20-H , 25-H ) :  -0.1232 B( 21-C , 22-H ) :  -0.1534
B( 21-C , 23-C ) :   1.0778 B( 21-C , 25-H ) :   0.4365 B( 21-C , 26-H ) :  -0.1719
B( 23-C , 24-H ) :   0.1036 B( 23-C , 26-H ) :   0.8453

MP2 TOTAL ENERGY:     -574.366801591 Eh
FINAL SINGLE POINT ENERGY      -574.366801591408

DIPOLE MOMENT
-------------
                                X             Y             Z
Electronic contribution:     -7.70621      -0.47152      -1.13566
Nuclear contribution   :      8.26700      -0.09297       0.68895
                        -----------------------------------------
Total Dipole Moment    :      0.56079      -0.56449      -0.44671
                        -----------------------------------------
Magnitude (a.u.)       :      0.91251
Magnitude (Debye)      :      2.31943

Rotational constants in cm-1:     0.068066     0.012234     0.011342
Rotational constants in MHz :  2040.553297   366.774233   340.015551

                             ****ORCA TERMINATED NORMALLY****
TOTAL RUN TIME: 0 days 0 hours 20 minutes 54 seconds 5 msec
