                         Program Version 4.2.1 -  RELEASE  -
|  1> %pal
|  2>  nprocs 32
|  3> end
|  4> !RI-MP2 aug-cc-pVTZ aug-cc-pVTZ/C TightSCF
|  5> %maxcore 4500
|  6> *xyzfile 0 1  10_54R.xyz
|  7>
|  8>
|  9>                          ****END OF INPUT****

CARTESIAN COORDINATES (ANGSTROEM)
---------------------------------
  C      0.213402    1.501505    1.081704
  N     -0.322657    0.162228    0.886304
  C      0.494768   -1.006040    1.173579
  C      1.006156   -1.745294   -0.096702
  C      2.446495   -2.193301   -0.099215
  C      2.857756    0.844085   -0.056421
  C      2.313123    2.210639   -0.300750
  C      0.774518    2.199535   -0.183139
  C      3.465850   -1.457345   -0.548499
  C      3.282125   -0.047632   -0.944245
  C     -1.588680    0.007367    0.347302
  C     -2.183187   -1.261242    0.227095
  C     -3.461990   -1.407068   -0.282873
  C     -4.199452   -0.308796   -0.701750
  C     -3.620301    0.947197   -0.600733
  C     -2.341273    1.110683   -0.093776
  H     -0.577948    2.118587    1.512986
  H      0.983450    1.439652    1.852096
  H      1.338368   -0.672301    1.771238
  H     -0.066173   -1.696215    1.811411
  H      0.850845   -1.068566   -0.937042
  H      0.377983   -2.618013   -0.285603
  H      2.723139    2.912729    0.433160
  H      2.596504    2.575887   -1.291039
  H      0.419014    3.234038   -0.212376
  H      0.356100    1.700677   -1.059655
  H     -1.648757   -2.146143    0.538393
  H     -3.885603   -2.402429   -0.353019
  H     -5.197071   -0.430067   -1.103561
  H     -4.167187    1.823818   -0.928708
  H     -1.927944    2.107576   -0.054807
  H      3.428176    0.230902   -1.986617
  H      2.797979    0.504929    0.971825
  H      4.453255   -1.903682   -0.630367
  H      2.648609   -3.212730    0.218105

 Total Charge           Charge          ....    0
 Multiplicity           Mult            ....    1
 Number of Electrons    NEL             ....  116
 Basis Dimension        Dim             .... 1173

ORBITAL ENERGIES
----------------

  NO   OCC          E(Eh)            E(eV)
   0   2.0000     -15.562840      -423.4864
   1   2.0000     -11.274703      -306.8003
   2   2.0000     -11.261031      -306.4282
   3   2.0000     -11.260215      -306.4060
   4   2.0000     -11.230530      -305.5983
   5   2.0000     -11.230310      -305.5923
   6   2.0000     -11.228592      -305.5455
   7   2.0000     -11.228132      -305.5330
   8   2.0000     -11.227947      -305.5280
   9   2.0000     -11.227899      -305.5267
  10   2.0000     -11.226487      -305.4882
  11   2.0000     -11.226227      -305.4812
  12   2.0000     -11.222168      -305.3707
  13   2.0000     -11.215119      -305.1789
  14   2.0000     -11.214908      -305.1732
  15   2.0000     -11.210214      -305.0454
  16   2.0000      -1.257818       -34.2270
  17   2.0000      -1.134911       -30.8825
  18   2.0000      -1.112415       -30.2704
  19   2.0000      -1.081543       -29.4303
  20   2.0000      -1.022975       -27.8366
  21   2.0000      -1.012590       -27.5540
  22   2.0000      -0.991157       -26.9708
  23   2.0000      -0.985647       -26.8208
  24   2.0000      -0.902710       -24.5640
  25   2.0000      -0.871397       -23.7119
  26   2.0000      -0.841982       -22.9115
  27   2.0000      -0.815470       -22.1901
  28   2.0000      -0.779284       -21.2054
  29   2.0000      -0.766719       -20.8635
  30   2.0000      -0.721696       -19.6383
  31   2.0000      -0.710685       -19.3387
  32   2.0000      -0.658423       -17.9166
  33   2.0000      -0.657035       -17.8788
  34   2.0000      -0.651764       -17.7354
  35   2.0000      -0.631411       -17.1816
  36   2.0000      -0.624707       -16.9991
  37   2.0000      -0.605323       -16.4717
  38   2.0000      -0.603909       -16.4332
  39   2.0000      -0.590674       -16.0731
  40   2.0000      -0.581207       -15.8155
  41   2.0000      -0.564466       -15.3599
  42   2.0000      -0.559101       -15.2139
  43   2.0000      -0.540787       -14.7156
  44   2.0000      -0.525906       -14.3106
  45   2.0000      -0.518523       -14.1097
  46   2.0000      -0.506733       -13.7889
  47   2.0000      -0.498899       -13.5757
  48   2.0000      -0.496734       -13.5168
  49   2.0000      -0.485799       -13.2193
  50   2.0000      -0.483289       -13.1510
  51   2.0000      -0.471245       -12.8232
  52   2.0000      -0.456787       -12.4298
  53   2.0000      -0.406820       -11.0701
  54   2.0000      -0.373983       -10.1766
  55   2.0000      -0.337221        -9.1763
  56   2.0000      -0.332340        -9.0434
  57   2.0000      -0.274685        -7.4746
  58   0.0000       0.026088         0.7099
  59   0.0000       0.028948         0.7877
  60   0.0000       0.031397         0.8544
  61   0.0000       0.032408         0.8819
  62   0.0000       0.039900         1.0857

MULLIKEN ATOMIC CHARGES
-----------------------
   0 C :   -0.595789
   1 N :   -0.096323
   2 C :   -0.576996
   3 C :    0.191055
   4 C :   -0.919689
   5 C :   -0.114301
   6 C :   -0.444917
   7 C :   -0.292522
   8 C :   -0.349941
   9 C :   -0.248378
  10 C :    1.465211
  11 C :   -0.286025
  12 C :   -0.945331
  13 C :   -0.406172
  14 C :   -1.043033
  15 C :   -0.278291
  16 H :    0.190502
  17 H :    0.080314
  18 H :    0.094840
  19 H :    0.214096
  20 H :    0.167695
  21 H :    0.393544
  22 H :    0.151852
  23 H :    0.292254
  24 H :    0.501452
  25 H :    0.190755
  26 H :    0.151569
  27 H :    0.369136
  28 H :    0.575859
  29 H :    0.383579
  30 H :    0.154050
  31 H :   -0.042144
  32 H :    0.333263
  33 H :    0.578790
  34 H :    0.160036
Sum of atomic charges:    0.0000000

LOEWDIN ATOMIC CHARGES
----------------------
   0 C :    0.209992
   1 N :    0.302386
   2 C :    0.218497
   3 C :    0.295791
   4 C :    0.236267
   5 C :    0.204095
   6 C :    0.286800
   7 C :    0.321279
   8 C :    0.194735
   9 C :    0.203800
  10 C :   -0.197903
  11 C :    0.228432
  12 C :    0.190230
  13 C :    0.183389
  14 C :    0.189390
  15 C :    0.226088
  16 H :   -0.158251
  17 H :   -0.156235
  18 H :   -0.182055
  19 H :   -0.145819
  20 H :   -0.168788
  21 H :   -0.162739
  22 H :   -0.145036
  23 H :   -0.147595
  24 H :   -0.141462
  25 H :   -0.152043
  26 H :   -0.221404
  27 H :   -0.178596
  28 H :   -0.194467
  29 H :   -0.178919
  30 H :   -0.214190
  31 H :   -0.170022
  32 H :   -0.203050
  33 H :   -0.190036
  34 H :   -0.182563

  Mayer bond orders larger than 0.100000
B(  0-C ,  1-N ) :   1.0687 B(  0-C ,  2-C ) :  -0.2038 B(  0-C ,  7-C ) :   0.7561
B(  0-C , 10-C ) :  -0.2288 B(  0-C , 11-C ) :   0.1835 B(  0-C , 16-H ) :   1.0526
B(  0-C , 17-H ) :   1.2093 B(  1-N ,  2-C ) :   1.0756 B(  1-N , 10-C ) :   0.7203
B(  1-N , 11-C ) :  -0.5295 B(  1-N , 15-C ) :  -0.7509 B(  1-N , 17-H ) :  -0.1336
B(  2-C ,  3-C ) :   0.7244 B(  2-C ,  4-C ) :   0.1493 B(  2-C , 10-C ) :  -0.1544
B(  2-C , 15-C ) :   0.1311 B(  2-C , 18-H ) :   1.1012 B(  2-C , 19-H ) :   1.0831
B(  3-C ,  4-C ) :   0.2325 B(  3-C ,  8-C ) :   0.1055 B(  3-C ,  9-C ) :   0.1179
B(  3-C , 20-H ) :   1.0816 B(  3-C , 21-H ) :   0.9180 B(  3-C , 34-H ) :  -0.1532
B(  4-C ,  5-C ) :   0.1884 B(  4-C ,  8-C ) :   1.6867 B(  4-C ,  9-C ) :  -0.1829
B(  4-C , 21-H ) :  -0.2256 B(  4-C , 34-H ) :   1.2479 B(  5-C ,  6-C ) :   0.6980
B(  5-C ,  8-C ) :   0.1044 B(  5-C ,  9-C ) :   1.3657 B(  5-C , 31-H ) :  -0.1700
B(  5-C , 32-H ) :   0.9099 B(  6-C ,  7-C ) :   0.9532 B(  6-C , 22-H ) :   1.1445
B(  6-C , 23-H ) :   0.9740 B(  6-C , 24-H ) :  -0.1183 B(  6-C , 25-H ) :   0.1409
B(  7-C , 24-H ) :   0.7789 B(  7-C , 25-H ) :   1.0262 B(  8-C ,  9-C ) :   0.6449
B(  8-C , 31-H ) :  -0.1065 B(  8-C , 33-H ) :   0.5992 B(  8-C , 34-H ) :  -0.1430
B(  9-C , 31-H ) :   1.4575 B(  9-C , 32-H ) :   0.1943 B( 10-C , 11-C ) :   0.6985
B( 10-C , 13-C ) :  -0.1258 B( 10-C , 15-C ) :   0.5017 B( 10-C , 26-H ) :  -0.3287
B( 10-C , 30-H ) :  -0.3437 B( 11-C , 12-C ) :   0.9711 B( 11-C , 14-C ) :  -0.1001
B( 11-C , 15-C ) :  -0.2249 B( 11-C , 26-H ) :   1.3300 B( 11-C , 28-H ) :   0.1149
B( 12-C , 13-C ) :   1.0619 B( 12-C , 14-C ) :   0.3127 B( 12-C , 27-H ) :   0.8415
B( 12-C , 28-H ) :  -0.1343 B( 13-C , 14-C ) :   1.1108 B( 13-C , 15-C ) :   0.1449
B( 13-C , 28-H ) :   0.6143 B( 14-C , 15-C ) :   1.0412 B( 14-C , 28-H ) :  -0.1481
B( 14-C , 29-H ) :   0.8259 B( 15-C , 28-H ) :   0.1084 B( 15-C , 30-H ) :   1.2572
B( 31-H , 32-H ) :   0.1513

MP2 TOTAL ENERGY:     -636.379645579 Eh
FINAL SINGLE POINT ENERGY      -636.379645579279

DIPOLE MOMENT
-------------
                                X             Y             Z
Electronic contribution:     -5.14235      -2.34335      -0.11518
Nuclear contribution   :      5.61772       2.55271       0.27739
                        -----------------------------------------
Total Dipole Moment    :      0.47537       0.20935       0.16221
                        -----------------------------------------
Magnitude (a.u.)       :      0.54417
Magnitude (Debye)      :      1.38316

Rotational constants in cm-1:     0.031853     0.011824     0.009554
Rotational constants in MHz :   954.934568   354.481056   286.407052

                             ****ORCA TERMINATED NORMALLY****
TOTAL RUN TIME: 0 days 0 hours 35 minutes 6 seconds 665 msec
