                         Program Version 4.2.1 -  RELEASE  -
|  1> %pal
|  2>  nprocs 32
|  3> end
|  4> !RI-MP2 aug-cc-pVTZ aug-cc-pVTZ/C TightSCF
|  5> %maxcore 4500
|  6> *xyzfile 0 1  08_7R1.xyz
|  7>
|  8>
|  9>                          ****END OF INPUT****

CARTESIAN COORDINATES (ANGSTROEM)
---------------------------------
  C      3.481212   -1.162615    0.003102
  O      2.102188   -1.528328    0.005671
  H      4.024940   -2.103792   -0.001182
  H      3.727106   -0.581664    0.892173
  H      3.722144   -0.575284   -0.882989
  C      1.204710   -0.551364   -0.000197
  C     -0.160643   -0.867915   -0.002886
  N      1.593951    0.708344   -0.001209
  C      0.656622    1.681067   -0.007073
  C     -1.011662    0.234584   -0.001846
  N     -0.661262    1.520171   -0.000440
  N     -0.885364   -2.043270   -0.002419
  C     -2.123674   -1.654594   -0.001301
  N     -2.276892   -0.281727   -0.001946
  H     -2.984287   -2.307958   -0.002122
  C     -3.507433    0.479742    0.008207
  H     -3.607138    1.036535    0.940688
  H     -4.346104   -0.207535   -0.091281
  H     -3.518836    1.183931   -0.823493
  N      1.134736    2.958597   -0.049322
  H      2.106901    3.094429    0.166797
  H      0.486814    3.699728    0.155359

 Total Charge           Charge          ....    0
 Multiplicity           Mult            ....    1
 Number of Electrons    NEL             ....   94
 Basis Dimension        Dim             ....  805

ORBITAL ENERGIES
----------------

  NO   OCC          E(Eh)            E(eV)
   0   2.0000     -20.596473      -560.4585
   1   2.0000     -15.619548      -425.0295
   2   2.0000     -15.570893      -423.7055
   3   2.0000     -15.552952      -423.2173
   4   2.0000     -15.545038      -423.0020
   5   2.0000     -15.545005      -423.0011
   6   2.0000     -11.352692      -308.9225
   7   2.0000     -11.350760      -308.8699
   8   2.0000     -11.307160      -307.6835
   9   2.0000     -11.303644      -307.5878
  10   2.0000     -11.280516      -306.9585
  11   2.0000     -11.278758      -306.9106
  12   2.0000     -11.236203      -305.7526
  13   2.0000      -1.437983       -39.1295
  14   2.0000      -1.363452       -37.1014
  15   2.0000      -1.311530       -35.6885
  16   2.0000      -1.206582       -32.8328
  17   2.0000      -1.194058       -32.4920
  18   2.0000      -1.171513       -31.8785
  19   2.0000      -1.029849       -28.0236
  20   2.0000      -0.988206       -26.8905
  21   2.0000      -0.953401       -25.9433
  22   2.0000      -0.874090       -23.7852
  23   2.0000      -0.863183       -23.4884
  24   2.0000      -0.801452       -21.8086
  25   2.0000      -0.758348       -20.6357
  26   2.0000      -0.730322       -19.8731
  27   2.0000      -0.703573       -19.1452
  28   2.0000      -0.672653       -18.3038
  29   2.0000      -0.662302       -18.0222
  30   2.0000      -0.653047       -17.7703
  31   2.0000      -0.650552       -17.7024
  32   2.0000      -0.633546       -17.2397
  33   2.0000      -0.608116       -16.5477
  34   2.0000      -0.591495       -16.0954
  35   2.0000      -0.582319       -15.8457
  36   2.0000      -0.566170       -15.4063
  37   2.0000      -0.546618       -14.8742
  38   2.0000      -0.524072       -14.2607
  39   2.0000      -0.513407       -13.9705
  40   2.0000      -0.496670       -13.5151
  41   2.0000      -0.446390       -12.1469
  42   2.0000      -0.433515       -11.7966
  43   2.0000      -0.420909       -11.4535
  44   2.0000      -0.405137       -11.0243
  45   2.0000      -0.371362       -10.1053
  46   2.0000      -0.292375        -7.9559
  47   0.0000       0.024361         0.6629
  48   0.0000       0.028510         0.7758
  49   0.0000       0.035265         0.9596
  50   0.0000       0.042895         1.1672
  51   0.0000       0.043934         1.1955

MULLIKEN ATOMIC CHARGES
-----------------------
   0 C :   -0.916519
   1 O :   -0.501858
   2 H :    0.388159
   3 H :    0.363793
   4 H :    0.363691
   5 C :   -0.001072
   6 C :    1.737513
   7 N :   -0.266020
   8 C :   -0.209638
   9 C :    0.227650
  10 N :   -0.434988
  11 N :   -0.956591
  12 C :   -0.568012
  13 N :    0.366900
  14 H :    0.679642
  15 C :   -0.984925
  16 H :    0.342448
  17 H :    0.375141
  18 H :    0.350096
  19 N :   -0.555374
  20 H :    0.117532
  21 H :    0.082433
Sum of atomic charges:   -0.0000000

LOEWDIN ATOMIC CHARGES
----------------------
   0 C :    0.359741
   1 O :    0.594298
   2 H :   -0.183968
   3 H :   -0.180424
   4 H :   -0.180545
   5 C :   -0.572956
   6 C :   -0.308507
   7 N :    0.410730
   8 C :   -0.624021
   9 C :   -0.455661
  10 N :    0.430614
  11 N :    0.394850
  12 C :   -0.055649
  13 N :    0.244510
  14 H :   -0.167692
  15 C :    0.531225
  16 H :   -0.153226
  17 H :   -0.166456
  18 H :   -0.155456
  19 N :    0.845882
  20 H :   -0.304806
  21 H :   -0.302484

  Mayer bond orders larger than 0.100000
B(  0-C ,  1-O ) :   0.9491 B(  0-C ,  2-H ) :   0.8743 B(  0-C ,  3-H ) :   0.8984
B(  0-C ,  4-H ) :   0.8951 B(  1-O ,  5-C ) :   0.6807 B(  1-O ,  6-C ) :   0.1036
B(  5-C ,  6-C ) :  -0.7305 B(  5-C ,  7-N ) :   0.8355 B(  5-C ,  8-C ) :  -0.6132
B(  5-C ,  9-C ) :   1.1813 B(  5-C , 10-N ) :   0.1096 B(  5-C , 13-N ) :  -0.1441
B(  6-C ,  7-N ) :  -0.3307 B(  6-C ,  8-C ) :  -0.1052 B(  6-C ,  9-C ) :   1.2226
B(  6-C , 11-N ) :  -0.3767 B(  7-N ,  8-C ) :   1.1601 B(  7-N , 19-N ) :  -0.3056
B(  8-C ,  9-C ) :  -0.7052 B(  8-C , 10-N ) :   1.0654 B(  8-C , 19-N ) :   1.1770
B(  9-C , 10-N ) :   0.6730 B(  9-C , 11-N ) :   0.3473 B(  9-C , 12-C ) :  -0.8020
B(  9-C , 13-N ) :   0.7027 B(  9-C , 15-C ) :  -0.1501 B( 10-N , 13-N ) :  -0.2688
B( 10-N , 19-N ) :  -0.3040 B( 11-N , 12-C ) :   1.6423 B( 11-N , 13-N ) :  -0.1037
B( 12-C , 13-N ) :   1.1676 B( 12-C , 14-H ) :   0.4390 B( 13-N , 15-C ) :   0.8972
B( 15-C , 16-H ) :   0.9340 B( 15-C , 17-H ) :   0.8768 B( 15-C , 18-H ) :   0.9205
B( 19-N , 20-H ) :   1.0775 B( 19-N , 21-H ) :   1.1282

MP2 TOTAL ENERGY:     -620.055595710 Eh
FINAL SINGLE POINT ENERGY      -620.055595710186

DIPOLE MOMENT
-------------
                                X             Y             Z
Electronic contribution:     -0.15490      -2.21981      -0.10307
Nuclear contribution   :     -0.35641       3.18342       0.34849
                        -----------------------------------------
Total Dipole Moment    :     -0.51131       0.96361       0.24543
                        -----------------------------------------
Magnitude (a.u.)       :      1.11813
Magnitude (Debye)      :      2.84206

Rotational constants in cm-1:     0.042380     0.023990     0.015410
Rotational constants in MHz :  1270.506804   719.199024   461.971901

                             ****ORCA TERMINATED NORMALLY****
TOTAL RUN TIME: 0 days 0 hours 8 minutes 54 seconds 386 msec
