                         Program Version 4.2.1 -  RELEASE  -
|  1> %pal
|  2>  nprocs 32
|  3> end
|  4> !RI-MP2 aug-cc-pVTZ aug-cc-pVTZ/C TightSCF
|  5> %maxcore 4500
|  6> *xyzfile 1 1  08_12R1.xyz
|  7>
|  8>
|  9>                          ****END OF INPUT****

CARTESIAN COORDINATES (ANGSTROEM)
---------------------------------
  S      1.773104    0.183507   -0.455634
  C      2.888563    1.603461   -0.452918
  H      2.272999    2.490724   -0.313340
  H      3.369713    1.647962   -1.428834
  H      3.632096    1.517136    0.337723
  C      1.216423    0.164168    1.291627
  C      2.943483   -1.188589   -0.505042
  C     -0.294617    0.140671    1.357148
  H      1.601337    1.075177    1.746364
  H      1.662097   -0.704159    1.773956
  C     -0.941010   -1.158291    0.846465
  C     -2.223423   -0.656262    0.136020
  C     -2.179158    0.882126    0.271312
  O     -0.781998    1.176480    0.537158
  N     -2.681574    1.541257   -0.863702
  H     -2.752506    1.191084    1.151411
  O     -2.145007   -1.074630   -1.210148
  H     -3.123198   -1.054653    0.606907
  O     -0.059488   -1.807595   -0.049439
  H     -1.173004   -1.835494    1.670281
  H     -0.563478   -1.999235   -0.856979
  H     -3.002151   -0.978798   -1.636820
  H     -0.583227    0.306869    2.404421
  H     -2.835692    2.530332   -0.729008
  H     -2.131442    1.369449   -1.695206
  H      2.356332   -2.092309   -0.360496
  H      3.699440   -1.074471    0.269789
  H      3.402418   -1.192269   -1.492348

 Total Charge           Charge          ....    1
 Multiplicity           Mult            ....    1
 Number of Electrons    NEL             ....  104
 Basis Dimension        Dim             ....  924

ORBITAL ENERGIES
----------------

  NO   OCC          E(Eh)            E(eV)
   0   2.0000     -92.205160     -2509.0299
   1   2.0000     -20.697258      -563.2010
   2   2.0000     -20.692315      -563.0665
   3   2.0000     -20.691168      -563.0353
   4   2.0000     -15.663836      -426.2347
   5   2.0000     -11.435619      -311.1790
   6   2.0000     -11.431731      -311.0732
   7   2.0000     -11.430820      -311.0484
   8   2.0000     -11.422540      -310.8231
   9   2.0000     -11.420101      -310.7568
  10   2.0000     -11.419191      -310.7320
  11   2.0000     -11.416569      -310.6606
  12   2.0000      -9.201116      -250.3751
  13   2.0000      -6.881813      -187.2636
  14   2.0000      -6.881644      -187.2590
  15   2.0000      -6.880625      -187.2313
  16   2.0000      -1.542261       -41.9671
  17   2.0000      -1.509434       -41.0738
  18   2.0000      -1.486602       -40.4525
  19   2.0000      -1.315213       -35.7888
  20   2.0000      -1.298071       -35.3223
  21   2.0000      -1.188770       -32.3481
  22   2.0000      -1.152461       -31.3601
  23   2.0000      -1.131933       -30.8015
  24   2.0000      -1.059014       -28.8172
  25   2.0000      -0.993440       -27.0329
  26   2.0000      -0.950982       -25.8775
  27   2.0000      -0.932299       -25.3691
  28   2.0000      -0.865663       -23.5559
  29   2.0000      -0.858312       -23.3559
  30   2.0000      -0.825908       -22.4741
  31   2.0000      -0.810170       -22.0458
  32   2.0000      -0.806318       -21.9410
  33   2.0000      -0.787612       -21.4320
  34   2.0000      -0.777110       -21.1462
  35   2.0000      -0.769454       -20.9379
  36   2.0000      -0.750811       -20.4306
  37   2.0000      -0.744187       -20.2504
  38   2.0000      -0.720658       -19.6101
  39   2.0000      -0.717096       -19.5132
  40   2.0000      -0.710137       -19.3238
  41   2.0000      -0.685770       -18.6607
  42   2.0000      -0.680116       -18.5069
  43   2.0000      -0.676263       -18.4021
  44   2.0000      -0.669886       -18.2285
  45   2.0000      -0.645995       -17.5784
  46   2.0000      -0.616280       -16.7698
  47   2.0000      -0.605853       -16.4861
  48   2.0000      -0.598061       -16.2741
  49   2.0000      -0.568255       -15.4630
  50   2.0000      -0.555558       -15.1175
  51   2.0000      -0.526609       -14.3298
  52   0.0000      -0.070933        -1.9302
  53   0.0000      -0.061787        -1.6813
  54   0.0000      -0.055796        -1.5183
  55   0.0000      -0.055400        -1.5075
  56   0.0000      -0.041546        -1.1305

MULLIKEN ATOMIC CHARGES
-----------------------
   0 S :    0.827238
   1 C :   -1.152003
   2 H :    0.337293
   3 H :    0.294721
   4 H :    0.314284
   5 C :   -0.384959
   6 C :   -0.965188
   7 C :    0.273534
   8 H :    0.239446
   9 H :    0.254964
  10 C :   -0.038301
  11 C :    0.247644
  12 C :    0.715605
  13 O :   -0.882072
  14 N :   -0.863293
  15 H :    0.391273
  16 O :   -0.723688
  17 H :    0.425143
  18 O :   -0.614956
  19 H :    0.383356
  20 H :    0.148822
  21 H :    0.157543
  22 H :    0.459938
  23 H :    0.058769
  24 H :    0.105690
  25 H :    0.410781
  26 H :    0.294809
  27 H :    0.283605
Sum of atomic charges:    1.0000000

LOEWDIN ATOMIC CHARGES
----------------------
   0 S :    1.455074
   1 C :    0.440742
   2 H :   -0.200356
   3 H :   -0.200930
   4 H :   -0.196412
   5 C :    0.164372
   6 C :    0.444936
   7 C :   -0.319188
   8 H :   -0.183353
   9 H :   -0.171186
  10 C :   -0.189476
  11 C :   -0.158296
  12 C :   -0.333675
  13 O :    0.586726
  14 N :    0.861932
  15 H :   -0.124167
  16 O :    0.881202
  17 H :   -0.119277
  18 O :    0.836494
  19 H :   -0.125580
  20 H :   -0.577254
  21 H :   -0.434947
  22 H :   -0.116712
  23 H :   -0.291008
  24 H :   -0.308622
  25 H :   -0.228891
  26 H :   -0.194446
  27 H :   -0.197700

  Mayer bond orders larger than 0.100000
B(  0-S ,  1-C ) :   0.6967 B(  0-S ,  5-C ) :   0.8818 B(  0-S ,  6-C ) :   0.8554
B(  0-S ,  7-C ) :   0.1078 B(  1-C ,  2-H ) :   0.9007 B(  1-C ,  3-H ) :   0.9819
B(  1-C ,  4-H ) :   0.9152 B(  5-C ,  7-C ) :   0.9577 B(  5-C ,  8-H ) :   0.9491
B(  5-C ,  9-H ) :   0.9729 B(  6-C , 25-H ) :   0.8340 B(  6-C , 26-H ) :   0.9342
B(  6-C , 27-H ) :   0.9698 B(  7-C , 10-C ) :   0.9734 B(  7-C , 13-O ) :   0.6855
B(  7-C , 18-O ) :   0.1650 B(  7-C , 22-H ) :   0.8366 B( 10-C , 11-C ) :   1.1604
B( 10-C , 12-C ) :   0.1374 B( 10-C , 16-O ) :   0.1500 B( 10-C , 18-O ) :   0.4970
B( 10-C , 19-H ) :   0.9037 B( 11-C , 12-C ) :   0.9779 B( 11-C , 13-O ) :   0.1246
B( 11-C , 14-N ) :   0.1946 B( 11-C , 16-O ) :   0.3002 B( 11-C , 17-H ) :   0.8333
B( 11-C , 18-O ) :   0.1251 B( 12-C , 13-O ) :   0.7413 B( 12-C , 14-N ) :   0.1916
B( 12-C , 15-H ) :   0.8985 B( 12-C , 16-O ) :   0.1806 B( 14-N , 23-H ) :   1.0464
B( 14-N , 24-H ) :   1.0396 B( 16-O , 21-H ) :   1.0097 B( 18-O , 20-H ) :   1.1036

MP2 TOTAL ENERGY:     -953.290517784 Eh
FINAL SINGLE POINT ENERGY      -953.290517784474

DIPOLE MOMENT
-------------
                                X             Y             Z
Electronic contribution:     -3.83371      -0.84439      -1.23569
Nuclear contribution   :      5.80035       1.19154       1.46721
                        -----------------------------------------
Total Dipole Moment    :      1.96664       0.34715       0.23152
                        -----------------------------------------
Magnitude (a.u.)       :      2.01042
Magnitude (Debye)      :      5.11007

Rotational constants in cm-1:     0.044784     0.019302     0.017057
Rotational constants in MHz :  1342.597816   578.669242   511.355265

                             ****ORCA TERMINATED NORMALLY****
TOTAL RUN TIME: 0 days 0 hours 13 minutes 10 seconds 495 msec
