                         Program Version 4.2.1 -  RELEASE  -
|  1> %pal
|  2>  nprocs 32
|  3> end
|  4> !RI-MP2 aug-cc-pVTZ aug-cc-pVTZ/C TightSCF
|  5> %maxcore 4500
|  6> *xyzfile 0 1  02_44P.xyz
|  7>
|  8>
|  9>                          ****END OF INPUT****

CARTESIAN COORDINATES (ANGSTROEM)
---------------------------------
  C      0.522520   -1.180247   -0.115441
  C      0.342029   -0.875406    1.346777
  C      0.492735    1.169434    0.244409
  C      0.326211    0.437499    1.548550
  S      1.764240    0.119427   -0.646613
  C     -2.626651   -0.170793    0.359930
  C     -0.709891   -0.659029   -0.892810
  C     -0.710360    0.883716   -0.686846
  C     -2.104191    1.185152   -0.117970
  H     -2.434594   -0.321791    1.424266
  H     -2.744102    1.582158   -0.906873
  H     -2.076336    1.918747    0.688968
  H     -3.693045   -0.303705    0.174630
  O      3.026672   -0.003702    0.140232
  O     -1.937982   -1.159835   -0.402326
  H      0.205024   -1.640839    2.096983
  H      0.183964    0.935823    2.497286
  H     -0.639902   -0.942632   -1.943705
  H      0.837619   -2.186577   -0.375433
  H     -0.559850    1.400747   -1.634239
  H      0.789439    2.213582    0.301086

 Total Charge           Charge          ....    0
 Multiplicity           Mult            ....    1
 Number of Electrons    NEL             ....   90
 Basis Dimension        Dim             ....  740

ORBITAL ENERGIES
----------------

  NO   OCC          E(Eh)            E(eV)
   0   2.0000     -92.067475     -2505.2834
   1   2.0000     -20.567488      -559.6698
   2   2.0000     -20.509680      -558.0968
   3   2.0000     -11.303673      -307.5886
   4   2.0000     -11.283779      -307.0472
   5   2.0000     -11.279132      -306.9208
   6   2.0000     -11.273628      -306.7710
   7   2.0000     -11.259975      -306.3995
   8   2.0000     -11.248605      -306.0901
   9   2.0000     -11.246173      -306.0239
  10   2.0000     -11.244187      -305.9699
  11   2.0000      -9.053977      -246.3712
  12   2.0000      -6.735158      -183.2730
  13   2.0000      -6.735058      -183.2703
  14   2.0000      -6.733921      -183.2393
  15   2.0000      -1.395156       -37.9641
  16   2.0000      -1.337632       -36.3988
  17   2.0000      -1.186793       -32.2943
  18   2.0000      -1.075702       -29.2713
  19   2.0000      -1.033676       -28.1278
  20   2.0000      -0.988722       -26.9045
  21   2.0000      -0.948073       -25.7984
  22   2.0000      -0.827807       -22.5258
  23   2.0000      -0.816938       -22.2300
  24   2.0000      -0.800700       -21.7882
  25   2.0000      -0.731481       -19.9046
  26   2.0000      -0.727662       -19.8007
  27   2.0000      -0.690094       -18.7784
  28   2.0000      -0.675163       -18.3721
  29   2.0000      -0.623033       -16.9536
  30   2.0000      -0.611461       -16.6387
  31   2.0000      -0.594347       -16.1730
  32   2.0000      -0.582423       -15.8485
  33   2.0000      -0.573946       -15.6179
  34   2.0000      -0.555796       -15.1240
  35   2.0000      -0.543368       -14.7858
  36   2.0000      -0.529848       -14.4179
  37   2.0000      -0.515859       -14.0372
  38   2.0000      -0.497088       -13.5264
  39   2.0000      -0.479048       -13.0355
  40   2.0000      -0.476014       -12.9530
  41   2.0000      -0.437308       -11.8997
  42   2.0000      -0.397619       -10.8198
  43   2.0000      -0.394869       -10.7449
  44   2.0000      -0.345813        -9.4100
  45   0.0000       0.021573         0.5870
  46   0.0000       0.029544         0.8039
  47   0.0000       0.031080         0.8457
  48   0.0000       0.034167         0.9297
  49   0.0000       0.044184         1.2023

MULLIKEN ATOMIC CHARGES
-----------------------
   0 C :   -0.214616
   1 C :   -0.660490
   2 C :   -0.108057
   3 C :   -0.698948
   4 S :    0.480050
   5 C :   -0.370023
   6 C :    0.237468
   7 C :   -0.050866
   8 C :   -0.694217
   9 H :    0.323337
  10 H :    0.173595
  11 H :    0.317176
  12 H :    0.372680
  13 O :   -0.994436
  14 O :   -0.906128
  15 H :    0.507949
  16 H :    0.479868
  17 H :    0.382626
  18 H :    0.514779
  19 H :    0.488310
  20 H :    0.419942
Sum of atomic charges:   -0.0000000

LOEWDIN ATOMIC CHARGES
----------------------
   0 C :   -0.120442
   1 C :    0.179488
   2 C :   -0.132130
   3 C :    0.175837
   4 S :    0.940486
   5 C :    0.069734
   6 C :   -0.285613
   7 C :   -0.040234
   8 C :    0.326207
   9 H :   -0.164827
  10 H :   -0.142306
  11 H :   -0.137908
  12 H :   -0.152476
  13 O :   -0.179424
  14 O :    0.597553
  15 H :   -0.154853
  16 H :   -0.158026
  17 H :   -0.140964
  18 H :   -0.172623
  19 H :   -0.138633
  20 H :   -0.168845

  Mayer bond orders larger than 0.100000
B(  0-C ,  1-C ) :   1.0704 B(  0-C ,  4-S ) :   0.9601 B(  0-C ,  6-C ) :   1.0391
B(  0-C , 14-O ) :   0.1252 B(  0-C , 18-H ) :   0.7674 B(  1-C ,  3-C ) :   1.6542
B(  1-C ,  7-C ) :   0.1475 B(  1-C , 15-H ) :   0.7375 B(  1-C , 18-H ) :  -0.1181
B(  2-C ,  3-C ) :   1.0075 B(  2-C ,  4-S ) :   1.0760 B(  2-C ,  7-C ) :   0.9723
B(  2-C , 13-O ) :   0.1058 B(  2-C , 20-H ) :   0.8371 B(  3-C ,  7-C ) :   0.2171
B(  3-C , 16-H ) :   0.7715 B(  3-C , 20-H ) :  -0.1090 B(  4-S ,  7-C ) :  -0.1377
B(  4-S , 13-O ) :   1.1662 B(  5-C ,  8-C ) :   1.0064 B(  5-C ,  9-H ) :   0.9667
B(  5-C , 12-H ) :   0.8882 B(  5-C , 14-O ) :   0.8378 B(  6-C ,  7-C ) :   1.1396
B(  6-C , 14-O ) :   0.4700 B(  6-C , 17-H ) :   0.8830 B(  7-C ,  8-C ) :   0.8843
B(  7-C , 19-H ) :   0.7882 B(  8-C , 10-H ) :   1.0312 B(  8-C , 11-H ) :   0.9396
B(  8-C , 14-O ) :   0.1331

MP2 TOTAL ENERGY:     -858.112025813 Eh
FINAL SINGLE POINT ENERGY      -858.112025812831

DIPOLE MOMENT
-------------
                                X             Y             Z
Electronic contribution:      8.29575      -1.96222      -2.34762
Nuclear contribution   :    -10.09741       2.61493       2.32231
                        -----------------------------------------
Total Dipole Moment    :     -1.80166       0.65271      -0.02531
                        -----------------------------------------
Magnitude (a.u.)       :      1.91641
Magnitude (Debye)      :      4.87113

Rotational constants in cm-1:     0.074429     0.027988     0.027287
Rotational constants in MHz :  2231.339704   839.052788   818.053274

                             ****ORCA TERMINATED NORMALLY****
TOTAL RUN TIME: 0 days 0 hours 8 minutes 28 seconds 616 msec
