                         Program Version 4.2.1 -  RELEASE  -
|  1> %pal
|  2>  nprocs 32
|  3> end
|  4> !RI-MP2 aug-cc-pVTZ aug-cc-pVTZ/C TightSCF
|  5> %maxcore 4500
|  6> *xyzfile 0 1  02_20P.xyz
|  7>
|  8>
|  9>                          ****END OF INPUT****

CARTESIAN COORDINATES (ANGSTROEM)
---------------------------------
  C     -0.043125    0.601643    0.018299
  C     -1.179200    1.533868    0.508753
  C     -0.406586   -0.900475   -0.113364
  C      1.225835    0.802716    0.823465
  C     -2.454956    0.826188    0.925674
  C     -1.413235    2.666231   -0.478755
  C     -2.488319   -0.477850    1.176473
  C     -1.295367   -1.391406    1.048770
  C     -1.744057   -2.839661    0.789043
  C     -0.521910   -1.381344    2.378132
  C     -1.045701   -1.163581   -1.481184
  H      0.385188   -1.989709    2.301699
  H     -0.240653   -0.374178    2.682021
  H     -1.140205   -1.803222    3.174546
  C     -2.400556   -3.074669   -0.567331
  H     -2.424172   -3.141008    1.593745
  H     -0.866570   -3.494769    0.866897
  C     -1.447263   -2.619739   -1.668155
  H     -1.933764   -0.536614   -1.589666
  H     -0.336163   -0.860105   -2.253192
  C     -2.815798   -4.531040   -0.736190
  H     -3.300597   -2.449415   -0.625118
  H     -1.909311   -2.756870   -2.650596
  H     -0.553152   -3.257024   -1.651729
  C     -3.642489    1.707620    1.188391
  H     -3.393074    2.476332    1.926174
  H     -3.966326    2.237722    0.289713
  H     -4.482950    1.125539    1.568197
  H     -1.944082   -5.190922   -0.684458
  H     -3.513735   -4.840474    0.046068
  H     -3.299522   -4.695302   -1.702367
  C     -1.999670    2.283650   -1.809674
  H     -1.281180    1.719796   -2.410718
  H     -2.870494    1.636815   -1.676606
  H     -2.310836    3.147825   -2.393248
  C     -1.069685    3.907898   -0.139508
  C     -1.176362    5.156805   -0.958580
  H     -0.189518    5.608300   -1.098448
  H     -1.604631    4.988364   -1.945590
  H     -1.792347    5.902632   -0.447126
  H     -0.647303    4.048969    0.852925
  C      2.465237    0.137371    0.318519
  O      1.297658    1.462966    1.835500
  C      3.510072   -0.170696    1.084732
  C      2.772300   -0.268770   -1.093310
  H      3.582083    0.013431    2.148145
  C      4.605951   -0.811159    0.287368
  N      4.020667   -0.820863   -1.038272
  H      4.489866   -1.139540   -1.870186
  O      2.093321   -0.134246   -2.089357
  C      5.927181   -0.049826    0.358117
  H      6.677996   -0.524038   -0.276740
  H      6.307718   -0.041942    1.381211
  H      5.790083    0.980545    0.026647
  H      4.760471   -1.837735    0.643472
  H     -3.407157   -0.919488    1.556302
  H      0.518907   -1.486954   -0.077910
  H      0.258529    0.903966   -0.988613
  H     -0.809393    2.002708    1.425205

 Total Charge           Charge          ....    0
 Multiplicity           Mult            ....    1
 Number of Electrons    NEL             ....  194
 Basis Dimension        Dim             .... 1955

ORBITAL ENERGIES
----------------

  NO   OCC          E(Eh)            E(eV)
   0   2.0000     -20.544702      -559.0498
   1   2.0000     -20.527772      -558.5891
   2   2.0000     -15.592947      -424.3057
   3   2.0000     -11.362071      -309.1777
   4   2.0000     -11.334543      -308.4286
   5   2.0000     -11.303395      -307.5810
   6   2.0000     -11.278858      -306.9133
   7   2.0000     -11.254724      -306.2566
   8   2.0000     -11.246800      -306.0410
   9   2.0000     -11.227024      -305.5029
  10   2.0000     -11.224339      -305.4298
  11   2.0000     -11.222480      -305.3792
  12   2.0000     -11.220318      -305.3204
  13   2.0000     -11.219298      -305.2926
  14   2.0000     -11.218889      -305.2815
  15   2.0000     -11.211221      -305.0728
  16   2.0000     -11.209997      -305.0395
  17   2.0000     -11.208712      -305.0046
  18   2.0000     -11.207492      -304.9714
  19   2.0000     -11.206840      -304.9536
  20   2.0000     -11.206676      -304.9491
  21   2.0000     -11.203676      -304.8675
  22   2.0000     -11.202952      -304.8478
  23   2.0000     -11.201912      -304.8195
  24   2.0000     -11.200707      -304.7867
  25   2.0000     -11.197817      -304.7081
  26   2.0000      -1.396804       -38.0090
  27   2.0000      -1.390549       -37.8388
  28   2.0000      -1.276617       -34.7385
  29   2.0000      -1.155883       -31.4532
  30   2.0000      -1.109294       -30.1854
  31   2.0000      -1.100008       -29.9327
  32   2.0000      -1.070108       -29.1191
  33   2.0000      -1.056465       -28.7479
  34   2.0000      -1.043711       -28.4008
  35   2.0000      -1.032174       -28.0869
  36   2.0000      -0.994843       -27.0711
  37   2.0000      -0.970968       -26.4214
  38   2.0000      -0.930325       -25.3154
  39   2.0000      -0.919318       -25.0159
  40   2.0000      -0.915598       -24.9147
  41   2.0000      -0.912223       -24.8229
  42   2.0000      -0.887932       -24.1618
  43   2.0000      -0.864846       -23.5337
  44   2.0000      -0.834779       -22.7155
  45   2.0000      -0.815183       -22.1823
  46   2.0000      -0.799661       -21.7599
  47   2.0000      -0.779472       -21.2105
  48   2.0000      -0.751400       -20.4466
  49   2.0000      -0.732309       -19.9271
  50   2.0000      -0.710606       -19.3366
  51   2.0000      -0.699453       -19.0331
  52   2.0000      -0.671927       -18.2841
  53   2.0000      -0.666793       -18.1444
  54   2.0000      -0.659397       -17.9431
  55   2.0000      -0.646149       -17.5826
  56   2.0000      -0.636106       -17.3093
  57   2.0000      -0.626903       -17.0589
  58   2.0000      -0.620500       -16.8847
  59   2.0000      -0.617655       -16.8072
  60   2.0000      -0.608825       -16.5670
  61   2.0000      -0.601132       -16.3576
  62   2.0000      -0.595998       -16.2179
  63   2.0000      -0.589682       -16.0461
  64   2.0000      -0.584659       -15.9094
  65   2.0000      -0.568365       -15.4660
  66   2.0000      -0.566855       -15.4249
  67   2.0000      -0.560284       -15.2461
  68   2.0000      -0.556868       -15.1531
  69   2.0000      -0.554507       -15.0889
  70   2.0000      -0.549150       -14.9431
  71   2.0000      -0.543965       -14.8020
  72   2.0000      -0.540772       -14.7152
  73   2.0000      -0.536308       -14.5937
  74   2.0000      -0.532307       -14.4848
  75   2.0000      -0.529903       -14.4194
  76   2.0000      -0.526806       -14.3351
  77   2.0000      -0.523620       -14.2484
  78   2.0000      -0.520337       -14.1591
  79   2.0000      -0.504501       -13.7282
  80   2.0000      -0.503328       -13.6963
  81   2.0000      -0.496284       -13.5046
  82   2.0000      -0.491021       -13.3614
  83   2.0000      -0.472745       -12.8640
  84   2.0000      -0.465685       -12.6719
  85   2.0000      -0.464209       -12.6318
  86   2.0000      -0.453621       -12.3437
  87   2.0000      -0.447046       -12.1647
  88   2.0000      -0.434522       -11.8240
  89   2.0000      -0.431080       -11.7303
  90   2.0000      -0.420184       -11.4338
  91   2.0000      -0.408247       -11.1090
  92   2.0000      -0.405781       -11.0419
  93   2.0000      -0.400979       -10.9112
  94   2.0000      -0.392040       -10.6679
  95   2.0000      -0.328263        -8.9325
  96   2.0000      -0.323887        -8.8134
  97   0.0000       0.017102         0.4654
  98   0.0000       0.027229         0.7409
  99   0.0000       0.029360         0.7989
 100   0.0000       0.030654         0.8341
 101   0.0000       0.034683         0.9438

MULLIKEN ATOMIC CHARGES
-----------------------
   0 C :   -0.826353
   1 C :    1.740512
   2 C :    0.153262
   3 C :    2.139795
   4 C :    0.589014
   5 C :    1.232032
   6 C :   -0.768633
   7 C :    2.039476
   8 C :   -0.810751
   9 C :   -1.635431
  10 C :   -0.890996
  11 H :    0.224417
  12 H :    0.248879
  13 H :    0.029209
  14 C :    0.388696
  15 H :    0.253210
  16 H :    0.172978
  17 C :   -1.062120
  18 H :    0.397872
  19 H :    0.330733
  20 C :   -1.423386
  21 H :    0.192639
  22 H :    0.371129
  23 H :   -0.045171
  24 C :   -1.361368
  25 H :    0.156349
  26 H :    0.240507
  27 H :    0.192267
  28 H :    0.233272
  29 H :    0.238342
  30 H :    0.230883
  31 C :   -1.037879
  32 H :    0.213436
  33 H :    0.291605
  34 H :    0.386042
  35 C :   -0.839724
  36 C :   -1.191136
  37 H :    0.195869
  38 H :    0.389382
  39 H :    0.246009
  40 H :    0.114916
  41 C :    1.120900
  42 O :   -1.788535
  43 C :   -1.347617
  44 C :    0.264649
  45 H :    0.335920
  46 C :    0.298492
  47 N :   -0.092444
  48 H :   -0.018652
  49 O :   -1.075304
  50 C :   -1.013686
  51 H :    0.270979
  52 H :    0.296500
  53 H :    0.326681
  54 H :    0.337911
  55 H :   -0.682542
  56 H :    0.643592
  57 H :    0.531421
  58 H :   -0.148050
Sum of atomic charges:   -0.0000000

LOEWDIN ATOMIC CHARGES
----------------------
   0 C :    0.062507
   1 C :    0.020113
   2 C :    0.047328
   3 C :   -0.460647
   4 C :   -0.047154
   5 C :   -0.074002
   6 C :    0.266541
   7 C :   -0.280223
   8 C :    0.300533
   9 C :    0.611093
  10 C :    0.324702
  11 H :   -0.146837
  12 H :   -0.182635
  13 H :   -0.145187
  14 C :   -0.026809
  15 H :   -0.129414
  16 H :   -0.124384
  17 C :    0.317706
  18 H :   -0.154132
  19 H :   -0.153059
  20 C :    0.596227
  21 H :   -0.121653
  22 H :   -0.128254
  23 H :   -0.126179
  24 C :    0.589220
  25 H :   -0.151055
  26 H :   -0.175314
  27 H :   -0.170614
  28 H :   -0.158827
  29 H :   -0.161564
  30 H :   -0.161648
  31 C :    0.597453
  32 H :   -0.157909
  33 H :   -0.170384
  34 H :   -0.184213
  35 C :    0.257724
  36 C :    0.572407
  37 H :   -0.171641
  38 H :   -0.201013
  39 H :   -0.171793
  40 H :   -0.177497
  41 C :   -0.053907
  42 O :    0.532783
  43 C :    0.285969
  44 C :   -0.649213
  45 H :   -0.131356
  46 C :   -0.136022
  47 N :    0.575667
  48 H :   -0.248192
  49 O :    0.480493
  50 C :    0.614393
  51 H :   -0.161959
  52 H :   -0.161473
  53 H :   -0.157164
  54 H :   -0.119357
  55 H :   -0.157108
  56 H :   -0.143494
  57 H :   -0.207332
  58 H :   -0.212240

  Mayer bond orders larger than 0.100000
B(  0-C ,  1-C ) :   1.0024 B(  0-C ,  2-C ) :   0.5832 B(  0-C ,  3-C ) :   0.7604
B(  0-C ,  4-C ) :   0.6381 B(  0-C ,  5-C ) :   1.3833 B(  0-C ,  6-C ) :   0.3701
B(  0-C ,  7-C ) :   0.2754 B(  0-C , 24-C ) :   0.2498 B(  0-C , 31-C ) :  -0.2085
B(  0-C , 33-H ) :  -0.1428 B(  0-C , 35-C ) :  -0.1282 B(  0-C , 40-H ) :   0.1102
B(  0-C , 42-O ) :   1.1382 B(  0-C , 43-C ) :   0.2225 B(  0-C , 56-H ) :   0.1076
B(  0-C , 57-H ) :   1.2459 B(  0-C , 58-H ) :   0.6926 B(  1-C ,  2-C ) :   0.4229
B(  1-C ,  3-C ) :  -0.2985 B(  1-C ,  4-C ) :   0.2560 B(  1-C ,  5-C ) :   0.1957
B(  1-C ,  6-C ) :   0.3643 B(  1-C ,  7-C ) :   0.2855 B(  1-C ,  9-C ) :   0.1174
B(  1-C , 10-C ) :  -0.1045 B(  1-C , 24-C ) :  -0.1560 B(  1-C , 25-H ) :  -0.1081
B(  1-C , 31-C ) :   0.2364 B(  1-C , 35-C ) :  -0.5258 B(  1-C , 40-H ) :  -0.4963
B(  1-C , 41-C ) :  -0.1541 B(  1-C , 42-O ) :  -0.4686 B(  1-C , 55-H ) :   0.1511
B(  1-C , 57-H ) :   0.1819 B(  1-C , 58-H ) :   0.7058 B(  2-C ,  3-C ) :   0.6278
B(  2-C ,  4-C ) :   0.1973 B(  2-C ,  6-C ) :   0.7453 B(  2-C ,  7-C ) :   0.7593
B(  2-C ,  8-C ) :  -0.1428 B(  2-C , 10-C ) :   0.4396 B(  2-C , 14-C ) :   0.1222
B(  2-C , 15-H ) :   0.1348 B(  2-C , 18-H ) :  -0.1814 B(  2-C , 23-H ) :  -0.1366
B(  2-C , 41-C ) :   0.4277 B(  2-C , 44-C ) :   0.2081 B(  2-C , 49-O ) :   0.1811
B(  2-C , 55-H ) :  -0.1261 B(  2-C , 56-H ) :   0.6135 B(  2-C , 57-H ) :  -0.3161
B(  3-C ,  4-C ) :  -0.1173 B(  3-C ,  5-C ) :  -0.3340 B(  3-C ,  6-C ) :  -0.1366
B(  3-C ,  7-C ) :   0.3932 B(  3-C ,  9-C ) :  -0.1150 B(  3-C , 10-C ) :  -0.2765
B(  3-C , 18-H ) :  -0.1021 B(  3-C , 41-C ) :   0.1047 B(  3-C , 42-O ) :  -1.2932
B(  3-C , 44-C ) :   0.2670 B(  3-C , 46-C ) :  -0.1365 B(  3-C , 56-H ) :   0.1648
B(  3-C , 57-H ) :  -0.6090 B(  3-C , 58-H ) :  -0.1798 B(  4-C ,  5-C ) :   0.9940
B(  4-C ,  6-C ) :   2.3205 B(  4-C ,  7-C ) :   0.2711 B(  4-C ,  9-C ) :  -0.2121
B(  4-C , 10-C ) :  -0.1662 B(  4-C , 15-H ) :  -0.1025 B(  4-C , 24-C ) :   0.2327
B(  4-C , 25-H ) :  -0.2020 B(  4-C , 26-H ) :  -0.2430 B(  4-C , 27-H ) :   0.1674
B(  4-C , 35-C ) :  -0.2150 B(  4-C , 40-H ) :  -0.1435 B(  4-C , 55-H ) :  -0.6226
B(  4-C , 58-H ) :  -0.3633 B(  5-C , 24-C ) :  -0.1357 B(  5-C , 31-C ) :   0.6456
B(  5-C , 36-C ) :   0.4906 B(  5-C , 38-H ) :   0.1122 B(  5-C , 40-H ) :  -0.3422
B(  5-C , 58-H ) :  -0.5445 B(  6-C ,  7-C ) :  -0.2959 B(  6-C ,  8-C ) :  -0.2303
B(  6-C ,  9-C ) :  -0.1120 B(  6-C , 24-C ) :  -0.2997 B(  6-C , 27-H ) :  -0.1491
B(  6-C , 40-H ) :  -0.1044 B(  6-C , 42-O ) :  -0.1350 B(  6-C , 55-H ) :   2.3555
B(  6-C , 56-H ) :   0.1036 B(  7-C ,  8-C ) :   0.5590 B(  7-C ,  9-C ) :  -0.2327
B(  7-C , 10-C ) :   0.3106 B(  7-C , 11-H ) :  -0.1833 B(  7-C , 13-H ) :  -0.3631
B(  7-C , 14-C ) :   0.1058 B(  7-C , 15-H ) :  -0.1162 B(  7-C , 16-H ) :  -0.1351
B(  7-C , 20-C ) :  -0.1229 B(  7-C , 24-C ) :  -0.1535 B(  7-C , 42-O ) :   0.1466
B(  7-C , 44-C ) :  -0.1374 B(  7-C , 56-H ) :  -0.2548 B(  7-C , 58-H ) :  -0.1003
B(  8-C , 14-C ) :   1.0735 B(  8-C , 15-H ) :   1.0840 B(  8-C , 16-H ) :   1.2062
B(  8-C , 17-C ) :   0.1859 B(  8-C , 21-H ) :   0.1108 B(  8-C , 55-H ) :  -0.1487
B(  8-C , 56-H ) :  -0.1835 B(  9-C , 11-H ) :   1.1947 B(  9-C , 12-H ) :   1.0397
B(  9-C , 13-H ) :   1.4830 B( 10-C , 17-C ) :   1.1613 B( 10-C , 18-H ) :   1.0779
B( 10-C , 19-H ) :   0.8778 B( 12-H , 42-O ) :   0.1246 B( 14-C , 17-C ) :   0.8026
B( 14-C , 20-C ) :   0.2742 B( 14-C , 21-H ) :   0.9736 B( 14-C , 28-H ) :  -0.1978
B( 16-H , 55-H ) :  -0.1148 B( 17-C , 19-H ) :  -0.1360 B( 17-C , 22-H ) :   0.7990
B( 17-C , 23-H ) :   1.4811 B( 17-C , 56-H ) :  -0.1057 B( 20-C , 28-H ) :   1.1691
B( 20-C , 29-H ) :   1.0778 B( 20-C , 30-H ) :   1.1055 B( 24-C , 25-H ) :   1.3281
B( 24-C , 26-H ) :   1.2156 B( 24-C , 27-H ) :   1.0598 B( 24-C , 35-C ) :   0.1583
B( 24-C , 40-H ) :   0.1315 B( 24-C , 55-H ) :   0.1289 B( 24-C , 58-H ) :  -0.1674
B( 25-H , 26-H ) :   0.1044 B( 31-C , 32-H ) :   1.1024 B( 31-C , 33-H ) :   1.1069
B( 31-C , 34-H ) :   0.7857 B( 31-C , 35-C ) :  -0.3071 B( 32-H , 33-H ) :   0.1169
B( 35-C , 36-C ) :   0.2985 B( 35-C , 37-H ) :  -0.1429 B( 35-C , 39-H ) :  -0.1562
B( 35-C , 40-H ) :   1.7289 B( 35-C , 57-H ) :  -0.1265 B( 35-C , 58-H ) :   0.7177
B( 36-C , 37-H ) :   1.1885 B( 36-C , 38-H ) :   0.8246 B( 36-C , 39-H ) :   1.1508
B( 36-C , 40-H ) :  -0.3144 B( 40-H , 58-H ) :   0.1770 B( 41-C , 42-O ) :   0.4003
B( 41-C , 43-C ) :   0.2619 B( 41-C , 45-H ) :  -0.1011 B( 41-C , 46-C ) :   0.1918
B( 41-C , 47-N ) :  -0.5839 B( 41-C , 49-O ) :   0.3894 B( 41-C , 50-C ) :  -0.1497
B( 41-C , 56-H ) :   0.2161 B( 41-C , 58-H ) :   0.1170 B( 42-O , 58-H ) :  -0.1290
B( 43-C , 44-C ) :   0.5001 B( 43-C , 45-H ) :   1.0402 B( 43-C , 46-C ) :   0.9890
B( 43-C , 56-H ) :  -0.2144 B( 43-C , 57-H ) :   0.1187 B( 44-C , 45-H ) :   0.1713
B( 44-C , 46-C ) :  -0.1624 B( 44-C , 47-N ) :   1.3024 B( 44-C , 48-H ) :   0.1932
B( 44-C , 49-O ) :   0.6160 B( 44-C , 56-H ) :  -0.1093 B( 46-C , 47-N ) :   0.8661
B( 46-C , 50-C ) :   0.6397 B( 46-C , 54-H ) :   0.8312 B( 47-N , 48-H ) :   1.1681
B( 47-N , 49-O ) :  -0.3432 B( 47-N , 50-C ) :   0.1065 B( 49-O , 57-H ) :  -0.2118
B( 50-C , 51-H ) :   1.0052 B( 50-C , 52-H ) :   0.9652 B( 50-C , 53-H ) :   0.9498
B( 56-H , 57-H ) :  -0.1855

MP2 TOTAL ENERGY:    -1099.313542046 Eh
FINAL SINGLE POINT ENERGY     -1099.313542046363

DIPOLE MOMENT
-------------
                                X             Y             Z
Electronic contribution:     17.33192       3.87955       2.13288
Nuclear contribution   :    -15.75071      -4.64268      -1.91584
                        -----------------------------------------
Total Dipole Moment    :      1.58122      -0.76313       0.21704
                        -----------------------------------------
Magnitude (a.u.)       :      1.76910
Magnitude (Debye)      :      4.49670

Rotational constants in cm-1:     0.007631     0.005893     0.004201
Rotational constants in MHz :   228.762754   176.664597   125.934295

                             ****ORCA TERMINATED NORMALLY****
TOTAL RUN TIME: 0 days 2 hours 53 minutes 4 seconds 487 msec
