                         Program Version 4.2.1 -  RELEASE  -
|  1> %pal
|  2>  nprocs 32
|  3> end
|  4> !RI-MP2 aug-cc-pVTZ aug-cc-pVTZ/C TightSCF
|  5> %maxcore 4500
|  6> *xyzfile 0 1  02_10P.xyz
|  7>
|  8>
|  9>                          ****END OF INPUT****

CARTESIAN COORDINATES (ANGSTROEM)
---------------------------------
  C     -0.668847   -0.014152   -1.928399
  C     -1.584861    0.289000   -0.777285
  C     -0.861842    1.046885    0.358692
  C      0.626565    0.661537    0.511225
  C      1.353216    0.935592   -0.815540
  C      0.623063    0.281779   -1.958537
  C      0.841148   -0.780881    1.006359
  H      0.389938   -1.464731    0.285573
  C      2.828291    0.535635   -0.750403
  H      3.289868    0.685219   -1.731954
  H      3.349254    1.206414   -0.056120
  C      3.033582   -0.901773   -0.281187
  C      2.336608   -1.097962    1.062374
  H      2.818833   -0.455568    1.812999
  H      2.473128   -2.128753    1.405008
  C     -0.999089    2.559466    0.203720
  O     -1.574291    3.069326   -0.727458
  H      2.552864   -1.569274   -1.007585
  C      4.513136   -1.258443   -0.207568
  H      5.001002   -1.133019   -1.177434
  H      4.656525   -2.294502    0.108985
  H      5.031465   -0.616201    0.511209
  C     -2.384599   -0.907689   -0.278820
  C     -2.038372   -2.159469   -0.570848
  H     -1.143157   -2.300077   -1.170686
  C     -2.724930   -3.429650   -0.174555
  H     -2.048911   -4.065752    0.405336
  H     -3.011841   -4.004558   -1.060062
  H     -3.622683   -3.268966    0.420344
  C     -3.608907   -0.532351    0.510646
  H     -4.115921   -1.390237    0.946859
  H     -4.322979   -0.007054   -0.131147
  H     -3.364596    0.154226    1.326157
  C     -0.394016    3.421180    1.290370
  H      0.654916    3.616850    1.052880
  H     -0.427671    2.938171    2.268015
  H     -0.918419    4.374663    1.318830
  C      0.190718   -1.030831    2.363346
  H     -0.898025   -0.987019    2.313717
  H      0.531048   -0.299794    3.104235
  H      0.455591   -2.023339    2.735334
  H      1.197192    0.078068   -2.858596
  H     -1.135459   -0.465948   -2.798057
  H      1.325431    2.018790   -0.998046
  H     -2.322660    0.997211   -1.172915
  H      1.069991    1.311278    1.274569
  H     -1.355581    0.832055    1.310667

 Total Charge           Charge          ....    0
 Multiplicity           Mult            ....    1
 Number of Electrons    NEL             ....  144
 Basis Dimension        Dim             .... 1518

ORBITAL ENERGIES
----------------

  NO   OCC          E(Eh)            E(eV)
   0   2.0000     -20.540923      -558.9469
   1   2.0000     -11.324862      -308.1652
   2   2.0000     -11.237037      -305.7753
   3   2.0000     -11.232128      -305.6417
   4   2.0000     -11.231625      -305.6281
   5   2.0000     -11.228616      -305.5462
   6   2.0000     -11.227954      -305.5281
   7   2.0000     -11.227432      -305.5140
   8   2.0000     -11.220555      -305.3268
   9   2.0000     -11.219888      -305.3087
  10   2.0000     -11.218380      -305.2677
  11   2.0000     -11.217937      -305.2556
  12   2.0000     -11.217893      -305.2544
  13   2.0000     -11.216841      -305.2258
  14   2.0000     -11.215684      -305.1943
  15   2.0000     -11.215628      -305.1928
  16   2.0000     -11.213322      -305.1300
  17   2.0000     -11.211714      -305.0863
  18   2.0000     -11.210730      -305.0595
  19   2.0000      -1.387803       -37.7640
  20   2.0000      -1.162073       -31.6216
  21   2.0000      -1.114731       -30.3334
  22   2.0000      -1.076333       -29.2885
  23   2.0000      -1.061570       -28.8868
  24   2.0000      -1.029093       -28.0030
  25   2.0000      -1.015850       -27.6427
  26   2.0000      -0.988317       -26.8935
  27   2.0000      -0.972632       -26.4667
  28   2.0000      -0.925250       -25.1773
  29   2.0000      -0.922359       -25.0987
  30   2.0000      -0.896793       -24.4030
  31   2.0000      -0.852613       -23.2008
  32   2.0000      -0.829123       -22.5616
  33   2.0000      -0.784906       -21.3584
  34   2.0000      -0.773613       -21.0511
  35   2.0000      -0.738610       -20.0986
  36   2.0000      -0.715966       -19.4824
  37   2.0000      -0.676996       -18.4220
  38   2.0000      -0.670473       -18.2445
  39   2.0000      -0.664742       -18.0885
  40   2.0000      -0.640970       -17.4417
  41   2.0000      -0.625911       -17.0319
  42   2.0000      -0.617667       -16.8076
  43   2.0000      -0.608037       -16.5455
  44   2.0000      -0.599911       -16.3244
  45   2.0000      -0.595386       -16.2013
  46   2.0000      -0.591838       -16.1047
  47   2.0000      -0.582622       -15.8540
  48   2.0000      -0.576778       -15.6949
  49   2.0000      -0.569575       -15.4989
  50   2.0000      -0.557325       -15.1656
  51   2.0000      -0.549666       -14.9572
  52   2.0000      -0.547883       -14.9087
  53   2.0000      -0.539832       -14.6896
  54   2.0000      -0.533376       -14.5139
  55   2.0000      -0.532386       -14.4870
  56   2.0000      -0.525641       -14.3034
  57   2.0000      -0.514746       -14.0070
  58   2.0000      -0.512505       -13.9460
  59   2.0000      -0.505948       -13.7676
  60   2.0000      -0.492853       -13.4112
  61   2.0000      -0.483484       -13.1563
  62   2.0000      -0.474900       -12.9227
  63   2.0000      -0.466633       -12.6977
  64   2.0000      -0.463732       -12.6188
  65   2.0000      -0.457686       -12.4543
  66   2.0000      -0.437459       -11.9039
  67   2.0000      -0.434351       -11.8193
  68   2.0000      -0.414628       -11.2826
  69   2.0000      -0.399720       -10.8769
  70   2.0000      -0.347145        -9.4463
  71   2.0000      -0.328974        -8.9518
  72   0.0000       0.021845         0.5944
  73   0.0000       0.027158         0.7390
  74   0.0000       0.028063         0.7636
  75   0.0000       0.032413         0.8820
  76   0.0000       0.038686         1.0527

MULLIKEN ATOMIC CHARGES
-----------------------
   0 C :   -0.565474
   1 C :    0.015863
   2 C :   -0.558780
   3 C :    1.263110
   4 C :    0.177258
   5 C :   -0.842070
   6 C :    0.440762
   7 H :    0.413160
   8 C :   -0.799760
   9 H :    0.298283
  10 H :    0.009217
  11 C :    0.437334
  12 C :   -1.038723
  13 H :   -0.018250
  14 H :    0.441991
  15 C :    0.780722
  16 O :   -1.383894
  17 H :    0.190841
  18 C :   -1.374329
  19 H :    0.231180
  20 H :    0.231726
  21 H :    0.231139
  22 C :    1.362024
  23 C :   -0.295682
  24 H :    0.352827
  25 C :   -1.375358
  26 H :    0.199880
  27 H :    0.216351
  28 H :    0.365298
  29 C :   -1.271938
  30 H :    0.319032
  31 H :    0.235832
  32 H :    0.256388
  33 C :   -0.920063
  34 H :    0.302065
  35 H :    0.246551
  36 H :    0.348601
  37 C :   -1.718264
  38 H :    0.534345
  39 H :    0.163381
  40 H :    0.102289
  41 H :    0.357077
  42 H :    0.270818
  43 H :    0.241985
  44 H :    0.224962
  45 H :    0.563840
  46 H :    0.336451
Sum of atomic charges:    0.0000000

LOEWDIN ATOMIC CHARGES
----------------------
   0 C :    0.248233
   1 C :   -0.004681
   2 C :    0.046805
   3 C :    0.046219
   4 C :    0.011696
   5 C :    0.273043
   6 C :    0.016984
   7 H :   -0.163531
   8 C :    0.312754
   9 H :   -0.129693
  10 H :   -0.124791
  11 C :   -0.025234
  12 C :    0.313140
  13 H :   -0.120751
  14 H :   -0.128499
  15 C :   -0.472210
  16 O :    0.517651
  17 H :   -0.119242
  18 C :    0.597471
  19 H :   -0.160587
  20 H :   -0.161193
  21 H :   -0.158019
  22 C :   -0.064747
  23 C :    0.233785
  24 H :   -0.198291
  25 C :    0.577405
  26 H :   -0.169376
  27 H :   -0.169639
  28 H :   -0.200372
  29 C :    0.596452
  30 H :   -0.191051
  31 H :   -0.149284
  32 H :   -0.169451
  33 C :    0.604254
  34 H :   -0.162930
  35 H :   -0.166629
  36 H :   -0.172622
  37 C :    0.614468
  38 H :   -0.173748
  39 H :   -0.145097
  40 H :   -0.153289
  41 H :   -0.161895
  42 H :   -0.157903
  43 H :   -0.125279
  44 H :   -0.186138
  45 H :   -0.142266
  46 H :   -0.181919

  Mayer bond orders larger than 0.100000
B(  0-C ,  1-C ) :   0.5214 B(  0-C ,  2-C ) :   0.3646 B(  0-C ,  4-C ) :   0.1319
B(  0-C ,  5-C ) :   1.4093 B(  0-C , 15-C ) :  -0.1042 B(  0-C , 22-C ) :  -0.1741
B(  0-C , 23-C ) :   0.1176 B(  0-C , 42-H ) :   1.1947 B(  0-C , 43-H ) :  -0.1464
B(  0-C , 44-H ) :  -0.1822 B(  1-C ,  2-C ) :   1.1263 B(  1-C ,  3-C ) :   0.1698
B(  1-C ,  5-C ) :   0.2138 B(  1-C , 15-C ) :   0.3079 B(  1-C , 16-O ) :   0.1155
B(  1-C , 22-C ) :   1.0594 B(  1-C , 44-H ) :   0.8705 B(  2-C ,  3-C ) :   0.4762
B(  2-C ,  4-C ) :   0.1666 B(  2-C ,  5-C ) :   0.1339 B(  2-C ,  6-C ) :   0.1007
B(  2-C , 15-C ) :   0.4814 B(  2-C , 16-O ) :  -0.1052 B(  2-C , 22-C ) :   0.4181
B(  2-C , 23-C ) :   0.2820 B(  2-C , 24-H ) :  -0.1122 B(  2-C , 33-C ) :   0.2626
B(  2-C , 35-H ) :   0.1096 B(  2-C , 46-H ) :   1.0992 B(  3-C ,  4-C ) :   0.7668
B(  3-C ,  5-C ) :   0.1134 B(  3-C ,  6-C ) :   1.1966 B(  3-C , 15-C ) :   0.7064
B(  3-C , 16-O ) :   0.1240 B(  3-C , 29-C ) :   0.1036 B(  3-C , 33-C ) :  -0.2130
B(  3-C , 35-H ) :  -0.1138 B(  3-C , 37-C ) :   0.1572 B(  3-C , 45-H ) :   0.2940
B(  3-C , 46-H ) :  -0.1174 B(  4-C ,  5-C ) :   1.0092 B(  4-C ,  8-C ) :   0.7854
B(  4-C , 11-C ) :   0.1230 B(  4-C , 15-C ) :  -0.3562 B(  4-C , 43-H ) :   1.2624
B(  5-C ,  6-C ) :   0.1669 B(  5-C , 22-C ) :   0.1907 B(  5-C , 23-C ) :  -0.1612
B(  5-C , 24-H ) :  -0.2726 B(  5-C , 41-H ) :   0.8402 B(  5-C , 42-H ) :  -0.1177
B(  5-C , 43-H ) :  -0.3355 B(  6-C ,  7-H ) :   0.9168 B(  6-C , 12-C ) :   0.3472
B(  6-C , 13-H ) :  -0.2513 B(  6-C , 39-H ) :  -0.1411 B(  6-C , 40-H ) :  -0.2249
B(  6-C , 45-H ) :  -0.2127 B(  7-H , 12-C ) :  -0.1287 B(  7-H , 15-C ) :  -0.1250
B(  8-C ,  9-H ) :   0.9646 B(  8-C , 10-H ) :   1.3098 B(  8-C , 11-C ) :   0.8615
B(  8-C , 12-C ) :   0.1644 B(  8-C , 45-H ) :  -0.1210 B( 11-C , 12-C ) :   0.9442
B( 11-C , 17-H ) :   0.9814 B( 11-C , 18-C ) :   0.3633 B( 11-C , 21-H ) :  -0.1780
B( 12-C , 13-H ) :   1.5276 B( 12-C , 14-H ) :   0.7697 B( 12-C , 17-H ) :   0.1260
B( 12-C , 37-C ) :   0.1700 B( 15-C , 16-O ) :   0.5336 B( 15-C , 22-C ) :  -0.1560
B( 15-C , 33-C ) :   0.5725 B( 15-C , 45-H ) :   0.3940 B( 15-C , 46-H ) :  -0.4523
B( 16-O , 46-H ) :  -0.1810 B( 18-C , 19-H ) :   1.0844 B( 18-C , 20-H ) :   1.0847
B( 18-C , 21-H ) :   1.1558 B( 22-C , 23-C ) :   0.8878 B( 22-C , 24-H ) :  -0.2296
B( 22-C , 25-C ) :   0.3109 B( 22-C , 29-C ) :   0.2204 B( 22-C , 31-H ) :  -0.1496
B( 22-C , 32-H ) :  -0.1397 B( 22-C , 44-H ) :   0.2381 B( 22-C , 46-H ) :   0.1679
B( 23-C , 24-H ) :   1.4161 B( 23-C , 25-C ) :   0.3364 B( 23-C , 26-H ) :  -0.1205
B( 23-C , 27-H ) :  -0.1702 B( 23-C , 29-C ) :  -0.2454 B( 23-C , 44-H ) :  -0.1403
B( 23-C , 46-H ) :  -0.1145 B( 24-H , 25-C ) :  -0.3047 B( 25-C , 26-H ) :   1.1707
B( 25-C , 27-H ) :   1.1811 B( 25-C , 28-H ) :   0.8602 B( 29-C , 30-H ) :   0.9520
B( 29-C , 31-H ) :   1.1571 B( 29-C , 32-H ) :   1.1327 B( 33-C , 34-H ) :   0.9875
B( 33-C , 35-H ) :   1.0336 B( 33-C , 36-H ) :   0.9156 B( 37-C , 38-H ) :   0.7765
B( 37-C , 39-H ) :   1.2506 B( 37-C , 40-H ) :   1.3153

MP2 TOTAL ENERGY:     -776.369610477 Eh
FINAL SINGLE POINT ENERGY      -776.369610477362

DIPOLE MOMENT
-------------
                                X             Y             Z
Electronic contribution:     -5.83244      10.01800      -7.86022
Nuclear contribution   :      6.31846     -10.60650       8.75092
                        -----------------------------------------
Total Dipole Moment    :      0.48602      -0.58850       0.89071
                        -----------------------------------------
Magnitude (a.u.)       :      1.17299
Magnitude (Debye)      :      2.98151

Rotational constants in cm-1:     0.015068     0.010920     0.008317
Rotational constants in MHz :   451.729251   327.360876   249.333848

                             ****ORCA TERMINATED NORMALLY****
TOTAL RUN TIME: 0 days 1 hours 24 minutes 33 seconds 380 msec
