                         Program Version 4.2.1 -  RELEASE  -
|  1> %pal
|  2>  nprocs 32
|  3> end
|  4> !RI-MP2 aug-cc-pVTZ aug-cc-pVTZ/C TightSCF
|  5> %maxcore 4500
|  6> *xyzfile 0 2  04_46R2.xyz
|  7>
|  8>
|  9>                          ****END OF INPUT****

CARTESIAN COORDINATES (ANGSTROEM)
---------------------------------
  C     -0.423469   -1.198801   -0.186411
  C      0.397486   -0.055815    0.410279
  S      2.134537   -0.003838   -0.058105
  C     -1.869669   -0.748185    0.053866
  C     -1.838188    0.796647   -0.048272
  C     -0.346382    1.196461   -0.097992
  H     -0.192818   -2.166919    0.260508
  H     -0.207494   -1.265486   -1.256203
  H      0.335489   -0.080591    1.501719
  H     -2.193063   -1.053234    1.051727
  H     -2.562875   -1.200516   -0.656338
  H     -2.333030    1.252015    0.810865
  H     -2.358848    1.152841   -0.938053
  H     -0.116599    2.081763    0.494571
  H     -0.042027    1.399683   -1.127941

 Total Charge           Charge          ....    0
 Multiplicity           Mult            ....    2
 Number of Electrons    NEL             ....   55
 Basis Dimension        Dim             ....  487

ORBITAL ENERGIES
----------------
                 SPIN UP ORBITALS
  NO   OCC          E(Eh)            E(eV)
   0   1.0000     -91.963143     -2502.4443
   1   1.0000     -11.261556      -306.4425
   2   1.0000     -11.233330      -305.6744
   3   1.0000     -11.226213      -305.4808
   4   1.0000     -11.225871      -305.4715
   5   1.0000     -11.224418      -305.4319
   6   1.0000      -8.963807      -243.9176
   7   1.0000      -6.659332      -181.2096
   8   1.0000      -6.640962      -180.7098
   9   1.0000      -6.639483      -180.6695
  10   1.0000      -1.143306       -31.1109
  11   1.0000      -1.021297       -27.7909
  12   1.0000      -0.975096       -26.5337
  13   1.0000      -0.901864       -24.5410
  14   1.0000      -0.786476       -21.4011
  15   1.0000      -0.773181       -21.0393
  16   1.0000      -0.667052       -18.1514
  17   1.0000      -0.629134       -17.1196
  18   1.0000      -0.586259       -15.9529
  19   1.0000      -0.585141       -15.9225
  20   1.0000      -0.512726       -13.9520
  21   1.0000      -0.491543       -13.3756
  22   1.0000      -0.488263       -13.2863
  23   1.0000      -0.482008       -13.1161
  24   1.0000      -0.464530       -12.6405
  25   1.0000      -0.457793       -12.4572
  26   1.0000      -0.413315       -11.2469
  27   1.0000      -0.361603        -9.8397
  28   0.0000       0.029285         0.7969
  29   0.0000       0.036049         0.9810
  30   0.0000       0.037138         1.0106
  31   0.0000       0.043154         1.1743
  32   0.0000       0.054999         1.4966

                 SPIN DOWN ORBITALS
  NO   OCC          E(Eh)            E(eV)
   0   1.0000     -91.954067     -2502.1974
   1   1.0000     -11.262744      -306.4748
   2   1.0000     -11.231806      -305.6330
   3   1.0000     -11.226008      -305.4752
   4   1.0000     -11.225589      -305.4638
   5   1.0000     -11.224442      -305.4326
   6   1.0000      -8.953928      -243.6488
   7   1.0000      -6.635963      -180.5737
   8   1.0000      -6.634319      -180.5290
   9   1.0000      -6.618801      -180.1067
  10   1.0000      -1.138485       -30.9797
  11   1.0000      -0.997238       -27.1362
  12   1.0000      -0.972889       -26.4737
  13   1.0000      -0.852543       -23.1989
  14   1.0000      -0.784023       -21.3344
  15   1.0000      -0.757233       -20.6054
  16   1.0000      -0.665400       -18.1065
  17   1.0000      -0.622298       -16.9336
  18   1.0000      -0.584934       -15.9169
  19   1.0000      -0.578319       -15.7369
  20   1.0000      -0.493954       -13.4412
  21   1.0000      -0.487840       -13.2748
  22   1.0000      -0.481785       -13.1100
  23   1.0000      -0.481278       -13.0962
  24   1.0000      -0.464073       -12.6281
  25   1.0000      -0.446830       -12.1589
  26   1.0000      -0.342958        -9.3324
  27   0.0000       0.021624         0.5884
  28   0.0000       0.029402         0.8001
  29   0.0000       0.036290         0.9875
  30   0.0000       0.039556         1.0764
  31   0.0000       0.043524         1.1843

MULLIKEN ATOMIC CHARGES AND SPIN POPULATIONS
--------------------------------------------
   0 C :   -0.584521    0.005615
   1 C :    0.136025   -0.129155
   2 S :   -0.422220    1.108407
   3 C :   -0.504936   -0.001025
   4 C :   -0.597104    0.014846
   5 C :   -0.539687    0.024780
   6 H :    0.374531   -0.002038
   7 H :    0.210974   -0.001393
   8 H :    0.248468   -0.000784
   9 H :    0.182289   -0.000319
  10 H :    0.353083    0.000737
  11 H :    0.245571    0.001551
  12 H :    0.282770    0.000992
  13 H :    0.375282   -0.008759
  14 H :    0.239475   -0.013455
Sum of atomic charges         :   -0.0000000

LOEWDIN ATOMIC CHARGES AND SPIN POPULATIONS
-------------------------------------------
   0 C :    0.209983    0.008807
   1 C :   -0.553754    0.135991
   2 S :    0.949362    0.794413
   3 C :    0.303131    0.000465
   4 C :    0.314996    0.006036
   5 C :    0.216734    0.033147
   6 H :   -0.147584    0.001293
   7 H :   -0.162103   -0.000598
   8 H :   -0.214339    0.005166
   9 H :   -0.149375   -0.000046
  10 H :   -0.147051    0.000209
  11 H :   -0.150836    0.001112
  12 H :   -0.150322    0.000958
  13 H :   -0.151233    0.002088
  14 H :   -0.167609    0.010961

  Mayer bond orders larger than 0.100000
B(  0-C ,  1-C ) :   0.9150 B(  0-C ,  3-C ) :   0.9427 B(  0-C ,  6-H ) :   0.8547
B(  0-C ,  7-H ) :   1.0379 B(  1-C ,  2-S ) :   0.7482 B(  1-C ,  5-C ) :   0.8975
B(  1-C ,  8-H ) :   0.9474 B(  3-C ,  4-C ) :   0.9756 B(  3-C ,  9-H ) :   1.0396
B(  3-C , 10-H ) :   0.8535 B(  4-C ,  5-C ) :   0.9523 B(  4-C , 11-H ) :   0.9823
B(  4-C , 12-H ) :   0.9320 B(  5-C , 13-H ) :   0.8365 B(  5-C , 14-H ) :   1.0091

MP2 TOTAL ENERGY:     -593.191647328 Eh
FINAL SINGLE POINT ENERGY      -593.191647328227

DIPOLE MOMENT
-------------
                                X             Y             Z
Electronic contribution:      9.11329      -0.12379      -0.00563
Nuclear contribution   :     -9.93988       0.12217       0.14562
                        -----------------------------------------
Total Dipole Moment    :     -0.82660      -0.00162       0.13998
                        -----------------------------------------
Magnitude (a.u.)       :      0.83837
Magnitude (Debye)      :      2.13096

Rotational constants in cm-1:     0.215263     0.063073     0.052189
Rotational constants in MHz :  6453.407426  1890.888934  1564.579632

                             ****ORCA TERMINATED NORMALLY****
TOTAL RUN TIME: 0 days 0 hours 12 minutes 20 seconds 981 msec
