                         Program Version 4.2.1 -  RELEASE  -
|  1> %pal
|  2>  nprocs 32
|  3> end
|  4> !RI-MP2 aug-cc-pVTZ aug-cc-pVTZ/C TightSCF
|  5> %maxcore 4500
|  6> *xyzfile 0 1  06_30P.xyz
|  7>
|  8>
|  9>                          ****END OF INPUT****

CARTESIAN COORDINATES (ANGSTROEM)
---------------------------------
  C     -0.587168    2.224552   -0.220507
  C      0.206700    1.313282   -1.204048
  C      2.023799    0.956342    1.284023
  H     -1.649239    2.160316   -0.468114
  C      1.502924    1.973342   -1.717523
  H      2.095300    1.236331   -2.270226
  H      1.218629    2.734368   -2.452733
  H      2.639804    0.615755    2.121825
  H     -0.422850    1.183562   -2.090201
  C      2.385912    2.652520   -0.676870
  H      3.205110    3.156089   -1.199776
  H      1.820371    3.451606   -0.190287
  C      2.992711    1.746920    0.388040
  H      3.692677    1.055576   -0.089278
  H      3.604168    2.374837    1.045144
  C      0.934669    1.866148    1.910134
  H      0.792214    1.560352    2.951146
  C     -0.458187    1.867752    1.267528
  H     -0.915401    0.883661    1.425816
  H     -1.084911    2.560028    1.837938
  H      1.316552    2.891247    1.957283
  H     -0.305453    3.269605   -0.380859
  C      1.423904   -0.311837    0.631744
  H      0.912033   -0.888089    1.418901
  Si     2.721882   -1.609487    0.092257
  C      3.341380   -1.361436   -1.667981
  H      2.517843   -1.366252   -2.387399
  H      3.887402   -0.425904   -1.797941
  H      4.015295   -2.177861   -1.942167
  C      1.966028   -3.330001    0.178147
  H      2.745420   -4.082403    0.029012
  H      1.505664   -3.522575    1.150471
  H      1.207069   -3.491444   -0.589302
  C      4.176035   -1.566057    1.281970
  H      3.848427   -1.743242    2.309645
  H      4.891070   -2.352057    1.024229
  H      4.709028   -0.614018    1.262373
  B      0.364528   -0.078402   -0.478656
  C     -3.028154   -1.057174   -0.054367
  C     -2.060601   -0.750869   -0.915531
  C     -0.659965   -1.245178   -0.843456
  C     -4.360721   -0.446971   -0.185193
  O     -4.697200    0.359351   -1.017677
  O     -5.197001   -0.900413    0.768253
  C     -6.520875   -0.365821    0.736198
  H     -7.047362   -0.833159    1.564324
  H     -6.498508    0.717222    0.858217
  H     -7.006280   -0.604533   -0.210200
  H     -0.359153   -1.596267   -1.842605
  H     -2.878983   -1.749273    0.765757
  H     -2.311582   -0.049107   -1.706089
  H     -0.590093   -2.094116   -0.161682

 Total Charge           Charge          ....    0
 Multiplicity           Mult            ....    1
 Number of Electrons    NEL             ....  168
 Basis Dimension        Dim             .... 1683

ORBITAL ENERGIES
----------------

  NO   OCC          E(Eh)            E(eV)
   0   2.0000     -68.757546     -1870.9880
   1   2.0000     -20.594687      -560.4099
   2   2.0000     -20.528061      -558.5969
   3   2.0000     -11.368201      -309.3445
   4   2.0000     -11.277462      -306.8754
   5   2.0000     -11.257749      -306.3389
   6   2.0000     -11.225767      -305.4687
   7   2.0000     -11.225498      -305.4613
   8   2.0000     -11.217233      -305.2364
   9   2.0000     -11.216564      -305.2182
  10   2.0000     -11.214849      -305.1716
  11   2.0000     -11.214302      -305.1567
  12   2.0000     -11.214164      -305.1529
  13   2.0000     -11.212114      -305.0971
  14   2.0000     -11.212107      -305.0970
  15   2.0000     -11.200590      -304.7835
  16   2.0000     -11.198213      -304.7189
  17   2.0000     -11.197920      -304.7109
  18   2.0000     -11.195381      -304.6418
  19   2.0000     -11.185145      -304.3633
  20   2.0000      -7.582700      -206.3358
  21   2.0000      -6.104206      -166.1039
  22   2.0000      -4.210486      -114.5732
  23   2.0000      -4.210406      -114.5710
  24   2.0000      -4.210348      -114.5694
  25   2.0000      -1.452415       -39.5222
  26   2.0000      -1.347775       -36.6748
  27   2.0000      -1.117770       -30.4161
  28   2.0000      -1.093892       -29.7663
  29   2.0000      -1.048117       -28.5207
  30   2.0000      -1.044200       -28.4141
  31   2.0000      -1.000714       -27.2308
  32   2.0000      -0.979514       -26.6539
  33   2.0000      -0.955622       -26.0038
  34   2.0000      -0.935367       -25.4526
  35   2.0000      -0.927284       -25.2327
  36   2.0000      -0.924881       -25.1673
  37   2.0000      -0.916655       -24.9434
  38   2.0000      -0.880305       -23.9543
  39   2.0000      -0.814024       -22.1507
  40   2.0000      -0.796919       -21.6853
  41   2.0000      -0.785136       -21.3646
  42   2.0000      -0.747199       -20.3323
  43   2.0000      -0.716899       -19.5078
  44   2.0000      -0.708852       -19.2888
  45   2.0000      -0.669876       -18.2283
  46   2.0000      -0.664066       -18.0701
  47   2.0000      -0.662741       -18.0341
  48   2.0000      -0.645367       -17.5613
  49   2.0000      -0.625539       -17.0218
  50   2.0000      -0.618103       -16.8194
  51   2.0000      -0.605817       -16.4851
  52   2.0000      -0.599953       -16.3255
  53   2.0000      -0.590519       -16.0688
  54   2.0000      -0.582996       -15.8641
  55   2.0000      -0.575042       -15.6477
  56   2.0000      -0.572036       -15.5659
  57   2.0000      -0.569156       -15.4875
  58   2.0000      -0.568082       -15.4583
  59   2.0000      -0.556316       -15.1381
  60   2.0000      -0.553053       -15.0493
  61   2.0000      -0.547433       -14.8964
  62   2.0000      -0.542863       -14.7720
  63   2.0000      -0.539935       -14.6924
  64   2.0000      -0.534407       -14.5419
  65   2.0000      -0.533550       -14.5186
  66   2.0000      -0.525542       -14.3007
  67   2.0000      -0.518644       -14.1130
  68   2.0000      -0.513163       -13.9639
  69   2.0000      -0.492770       -13.4090
  70   2.0000      -0.486164       -13.2292
  71   2.0000      -0.477193       -12.9851
  72   2.0000      -0.466072       -12.6825
  73   2.0000      -0.456504       -12.4221
  74   2.0000      -0.452373       -12.3097
  75   2.0000      -0.446964       -12.1625
  76   2.0000      -0.441205       -12.0058
  77   2.0000      -0.433943       -11.8082
  78   2.0000      -0.433502       -11.7962
  79   2.0000      -0.420625       -11.4458
  80   2.0000      -0.416641       -11.3374
  81   2.0000      -0.407223       -11.0811
  82   2.0000      -0.385377       -10.4866
  83   2.0000      -0.358420        -9.7531
  84   0.0000       0.021036         0.5724
  85   0.0000       0.027825         0.7572
  86   0.0000       0.028333         0.7710
  87   0.0000       0.029988         0.8160
  88   0.0000       0.036429         0.9913

MULLIKEN ATOMIC CHARGES
-----------------------
   0 C :   -0.682199
   1 C :    0.786729
   2 C :    0.023102
   3 H :    0.167999
   4 C :   -0.819512
   5 H :    0.120474
   6 H :    0.129517
   7 H :   -0.009036
   8 H :    0.082708
   9 C :   -0.405686
  10 H :    0.416673
  11 H :   -0.063794
  12 C :   -0.335638
  13 H :    0.149001
  14 H :    0.088576
  15 C :   -0.940449
  16 H :    0.181265
  17 C :   -0.439491
  18 H :    0.247028
  19 H :    0.427593
  20 H :   -0.091797
  21 H :   -0.047262
  22 C :    1.585080
  23 H :    0.497420
  24 Si:    3.552941
  25 C :   -1.272718
  26 H :    0.230075
  27 H :    0.159957
  28 H :    0.251422
  29 C :   -2.070983
  30 H :    0.020634
  31 H :    0.165974
  32 H :    0.249731
  33 C :   -1.784456
  34 H :    0.159490
  35 H :    0.107376
  36 H :    0.283537
  37 B :   -0.245962
  38 C :   -0.298348
  39 C :    0.150496
  40 C :   -0.852743
  41 C :    0.819665
  42 O :   -0.958436
  43 O :   -0.401319
  44 C :   -0.864198
  45 H :    0.349402
  46 H :    0.391152
  47 H :    0.379379
  48 H :    0.124321
  49 H :    0.153811
  50 H :    0.149116
  51 H :   -0.017617
Sum of atomic charges:   -0.0000000

LOEWDIN ATOMIC CHARGES
----------------------
   0 C :    0.339781
   1 C :    0.152101
   2 C :    0.004676
   3 H :   -0.137458
   4 C :    0.322920
   5 H :   -0.147638
   6 H :   -0.130925
   7 H :   -0.151976
   8 H :   -0.155174
   9 C :    0.311842
  10 H :   -0.130454
  11 H :   -0.163244
  12 C :    0.314295
  13 H :   -0.177568
  14 H :   -0.125269
  15 C :    0.345727
  16 H :   -0.134559
  17 C :    0.323610
  18 H :   -0.147272
  19 H :   -0.128307
  20 H :   -0.144501
  21 H :   -0.143172
  22 C :    0.169452
  23 H :   -0.186101
  24 Si:    0.535521
  25 C :    0.602450
  26 H :   -0.219384
  27 H :   -0.234143
  28 H :   -0.218125
  29 C :    0.596319
  30 H :   -0.222447
  31 H :   -0.217285
  32 H :   -0.236394
  33 C :    0.597856
  34 H :   -0.216852
  35 H :   -0.222838
  36 H :   -0.230201
  37 B :   -0.497018
  38 C :    0.217314
  39 C :    0.216944
  40 C :    0.401954
  41 C :   -0.873082
  42 O :    0.459097
  43 O :    0.554748
  44 C :    0.345559
  45 H :   -0.188112
  46 H :   -0.182085
  47 H :   -0.181579
  48 H :   -0.131927
  49 H :   -0.192668
  50 H :   -0.168199
  51 H :   -0.176209

  Mayer bond orders larger than 0.100000
B(  0-C ,  1-C ) :   0.6852 B(  0-C ,  3-H ) :   1.1059 B(  0-C ,  8-H ) :  -0.2540
B(  0-C , 17-C ) :   0.7550 B(  0-C , 19-H ) :  -0.1457 B(  0-C , 21-H ) :   1.2730
B(  0-C , 37-B ) :   0.2972 B(  1-C ,  2-C ) :   0.2286 B(  1-C ,  3-H ) :  -0.1015
B(  1-C ,  4-C ) :   0.6031 B(  1-C ,  6-H ) :  -0.1171 B(  1-C ,  8-H ) :   1.1510
B(  1-C , 22-C ) :  -0.1825 B(  1-C , 23-H ) :  -0.1616 B(  1-C , 37-B ) :   1.2837
B(  1-C , 39-C ) :  -0.1083 B(  2-C ,  7-H ) :   1.1557 B(  2-C ,  9-C ) :   0.1568
B(  2-C , 12-C ) :   0.7471 B(  2-C , 15-C ) :   0.5615 B(  2-C , 16-H ) :  -0.1152
B(  2-C , 20-H ) :  -0.1303 B(  2-C , 22-C ) :   0.9412 B(  2-C , 23-H ) :  -0.2513
B(  2-C , 37-B ) :   0.3711 B(  4-C ,  5-H ) :   1.2573 B(  4-C ,  6-H ) :   1.1488
B(  4-C ,  8-H ) :  -0.1994 B(  4-C ,  9-C ) :   0.7606 B(  4-C , 11-H ) :   0.1314
B(  6-H ,  9-C ) :  -0.1092 B(  7-H , 15-C ) :  -0.2746 B(  7-H , 22-C ) :  -0.2011
B(  8-H , 37-B ) :  -0.2294 B(  9-C , 10-H ) :   0.8026 B(  9-C , 11-H ) :   1.3646
B(  9-C , 12-C ) :   0.7347 B(  9-C , 14-H ) :  -0.1048 B(  9-C , 37-B ) :  -0.1164
B( 11-H , 37-B ) :  -0.1343 B( 12-C , 13-H ) :   0.9519 B( 12-C , 14-H ) :   1.2151
B( 12-C , 22-C ) :   0.1061 B( 12-C , 37-B ) :  -0.1179 B( 15-C , 16-H ) :   1.0604
B( 15-C , 17-C ) :   0.7899 B( 15-C , 20-H ) :   1.4865 B( 15-C , 22-C ) :   0.1914
B( 17-C , 18-H ) :   1.1846 B( 17-C , 19-H ) :   0.8700 B( 17-C , 37-B ) :  -0.2120
B( 22-C , 23-H ) :   0.9123 B( 22-C , 24-Si) :   0.6294 B( 22-C , 25-C ) :   0.1475
B( 22-C , 29-C ) :  -0.1407 B( 22-C , 33-C ) :   0.1768 B( 23-H , 24-Si) :  -0.2050
B( 23-H , 37-B ) :  -0.5505 B( 24-Si, 25-C ) :   0.1044 B( 24-Si, 28-H ) :  -0.1533
B( 24-Si, 29-C ) :  -1.5746 B( 24-Si, 30-H ) :  -0.3086 B( 24-Si, 31-H ) :  -0.1839
B( 24-Si, 33-C ) :  -1.2937 B( 24-Si, 34-H ) :  -0.1906 B( 24-Si, 35-H ) :  -0.1948
B( 24-Si, 37-B ) :   0.3785 B( 25-C , 26-H ) :   1.0736 B( 25-C , 27-H ) :   1.2120
B( 25-C , 28-H ) :   0.8875 B( 25-C , 29-C ) :   0.1514 B( 25-C , 33-C ) :   0.2345
B( 26-H , 27-H ) :   0.1137 B( 29-C , 30-H ) :   1.3929 B( 29-C , 31-H ) :   1.2374
B( 29-C , 32-H ) :   1.0939 B( 29-C , 33-C ) :   0.1911 B( 29-C , 37-B ) :   0.4263
B( 33-C , 34-H ) :   1.2091 B( 33-C , 35-H ) :   1.2095 B( 33-C , 36-H ) :   1.0620
B( 33-C , 37-B ) :   0.2008 B( 37-B , 40-C ) :   0.1233 B( 38-C , 39-C ) :   0.8393
B( 38-C , 40-C ) :   0.4545 B( 38-C , 41-C ) :   0.3939 B( 38-C , 42-O ) :  -0.1416
B( 38-C , 43-O ) :  -0.2108 B( 38-C , 49-H ) :   1.2999 B( 39-C , 40-C ) :   0.8252
B( 39-C , 41-C ) :   0.1991 B( 39-C , 42-O ) :  -0.1633 B( 39-C , 48-H ) :  -0.1853
B( 39-C , 50-H ) :   1.0651 B( 40-C , 48-H ) :   1.2396 B( 40-C , 51-H ) :   1.4067
B( 41-C , 42-O ) :   1.3273 B( 41-C , 43-O ) :   1.0231 B( 41-C , 49-H ) :  -0.1947
B( 41-C , 50-H ) :   0.1298 B( 42-O , 50-H ) :   0.1237 B( 43-O , 44-C ) :   0.8731
B( 44-C , 45-H ) :   0.9092 B( 44-C , 46-H ) :   0.8642 B( 44-C , 47-H ) :   0.8758
B( 48-H , 51-H ) :   0.1012

MP2 TOTAL ENERGY:    -1129.147533077 Eh
FINAL SINGLE POINT ENERGY     -1129.147533077275

DIPOLE MOMENT
-------------
                                X             Y             Z
Electronic contribution:    -18.75150      -2.80734      -1.89518
Nuclear contribution   :     19.50733       2.48497       2.38895
                        -----------------------------------------
Total Dipole Moment    :      0.75583      -0.32238       0.49378
                        -----------------------------------------
Magnitude (a.u.)       :      0.95866
Magnitude (Debye)      :      2.43671

Rotational constants in cm-1:     0.014850     0.005196     0.004538
Rotational constants in MHz :   445.201710   155.773230   136.039851

                             ****ORCA TERMINATED NORMALLY****
TOTAL RUN TIME: 0 days 1 hours 45 minutes 56 seconds 587 msec
