                         Program Version 4.2.1 -  RELEASE  -
|  1> %pal
|  2>  nprocs 32
|  3> end
|  4> !RI-MP2 aug-cc-pVTZ aug-cc-pVTZ/C TightSCF
|  5> %maxcore 4500
|  6> *xyzfile 0 1  03_35R1.xyz
|  7>
|  8>
|  9>                          ****END OF INPUT****

CARTESIAN COORDINATES (ANGSTROEM)
---------------------------------
  C      1.540973    0.000279    0.155954
  C      0.674752   -1.247681   -0.012071
  C      0.739592    1.242859   -0.229513
  C      2.150325    0.104490    1.546039
  H      2.744819   -0.781035    1.772599
  H      1.371396    0.196313    2.305276
  H      2.795688    0.980398    1.615538
  C     -0.648276   -1.117418    0.745788
  H      1.219785   -2.128863    0.333627
  H      0.458814   -1.386100   -1.073566
  C     -0.580774    1.317628    0.536571
  H      0.521183    1.207521   -1.298661
  H      1.333047    2.140444   -0.043330
  N     -1.347001    0.094070    0.354796
  H     -0.470202   -1.095844    1.827254
  H     -1.266211   -1.987676    0.546236
  C     -2.592129    0.151912   -0.207528
  H     -1.187051    2.143179    0.173534
  H     -0.404852    1.475249    1.606436
  O     -3.097378    1.209916   -0.539141
  C     -3.332724   -1.153614   -0.404903
  H     -2.794726   -1.823495   -1.078669
  H     -4.297910   -0.913615   -0.842453
  H     -3.489623   -1.675997    0.540673
  Cl     2.939026   -0.145825   -1.019821

 Total Charge           Charge          ....    0
 Multiplicity           Mult            ....    1
 Number of Electrons    NEL             ....   94
 Basis Dimension        Dim             ....  832

ORBITAL ENERGIES
----------------

  NO   OCC          E(Eh)            E(eV)
   0   2.0000    -104.817741     -2852.2357
   1   2.0000     -20.514847      -558.2374
   2   2.0000     -15.588671      -424.1893
   3   2.0000     -11.350698      -308.8682
   4   2.0000     -11.312325      -307.8240
   5   2.0000     -11.282962      -307.0250
   6   2.0000     -11.265218      -306.5422
   7   2.0000     -11.246170      -306.0238
   8   2.0000     -11.238855      -305.8248
   9   2.0000     -11.238773      -305.8226
  10   2.0000     -11.236381      -305.7575
  11   2.0000     -10.542247      -286.8691
  12   2.0000      -8.008903      -217.9333
  13   2.0000      -8.007301      -217.8897
  14   2.0000      -8.007297      -217.8896
  15   2.0000      -1.383869       -37.6570
  16   2.0000      -1.262412       -34.3520
  17   2.0000      -1.163558       -31.6620
  18   2.0000      -1.052497       -28.6399
  19   2.0000      -1.048888       -28.5417
  20   2.0000      -1.007966       -27.4282
  21   2.0000      -0.974846       -26.5269
  22   2.0000      -0.896407       -24.3925
  23   2.0000      -0.880319       -23.9547
  24   2.0000      -0.785019       -21.3615
  25   2.0000      -0.730209       -19.8700
  26   2.0000      -0.692679       -18.8487
  27   2.0000      -0.663869       -18.0648
  28   2.0000      -0.649803       -17.6820
  29   2.0000      -0.638935       -17.3863
  30   2.0000      -0.631839       -17.1932
  31   2.0000      -0.622192       -16.9307
  32   2.0000      -0.594214       -16.1694
  33   2.0000      -0.583586       -15.8802
  34   2.0000      -0.571984       -15.5645
  35   2.0000      -0.559498       -15.2247
  36   2.0000      -0.546918       -14.8824
  37   2.0000      -0.541827       -14.7439
  38   2.0000      -0.518657       -14.1134
  39   2.0000      -0.515725       -14.0336
  40   2.0000      -0.493743       -13.4354
  41   2.0000      -0.486488       -13.2380
  42   2.0000      -0.481351       -13.0982
  43   2.0000      -0.432701       -11.7744
  44   2.0000      -0.431172       -11.7328
  45   2.0000      -0.419697       -11.4205
  46   2.0000      -0.374704       -10.1962
  47   0.0000       0.021942         0.5971
  48   0.0000       0.029697         0.8081
  49   0.0000       0.034853         0.9484
  50   0.0000       0.035894         0.9767
  51   0.0000       0.043943         1.1957

MULLIKEN ATOMIC CHARGES
-----------------------
   0 C :    1.166896
   1 C :   -0.562080
   2 C :   -0.591838
   3 C :   -1.092016
   4 H :    0.232224
   5 H :    0.272890
   6 H :    0.242428
   7 C :   -0.618754
   8 H :    0.350075
   9 H :    0.240965
  10 C :   -0.683720
  11 H :    0.257802
  12 H :    0.331568
  13 N :    0.292506
  14 H :    0.181573
  15 H :    0.429389
  16 C :    0.331757
  17 H :    0.411678
  18 H :    0.170240
  19 O :   -0.978515
  20 C :   -0.607966
  21 H :    0.263332
  22 H :    0.335276
  23 H :    0.274126
  24 Cl:   -0.649836
Sum of atomic charges:    0.0000000

LOEWDIN ATOMIC CHARGES
----------------------
   0 C :   -0.822244
   1 C :    0.234186
   2 C :    0.234943
   3 C :    0.506478
   4 H :   -0.169565
   5 H :   -0.177147
   6 H :   -0.168727
   7 C :    0.205847
   8 H :   -0.143622
   9 H :   -0.155928
  10 C :    0.208148
  11 H :   -0.153706
  12 H :   -0.143552
  13 N :    0.281882
  14 H :   -0.129633
  15 H :   -0.174219
  16 C :   -0.648781
  17 H :   -0.176991
  18 H :   -0.133228
  19 O :    0.460483
  20 C :    0.591670
  21 H :   -0.166991
  22 H :   -0.181233
  23 H :   -0.167169
  24 Cl:    0.989100

  Mayer bond orders larger than 0.100000
B(  0-C ,  1-C ) :   0.8922 B(  0-C ,  2-C ) :   0.8644 B(  0-C ,  3-C ) :   0.5742
B(  0-C , 24-Cl) :   0.2054 B(  1-C ,  7-C ) :   0.9325 B(  1-C ,  8-H ) :   0.9029
B(  1-C ,  9-H ) :   1.0273 B(  1-C , 14-H ) :   0.1117 B(  1-C , 24-Cl) :   0.1067
B(  2-C , 10-C ) :   0.9397 B(  2-C , 11-H ) :   0.9947 B(  2-C , 12-H ) :   0.9254
B(  3-C ,  4-H ) :   1.0574 B(  3-C ,  5-H ) :   0.9600 B(  3-C ,  6-H ) :   1.0457
B(  7-C , 13-N ) :   0.9655 B(  7-C , 14-H ) :   1.0723 B(  7-C , 15-H ) :   0.8391
B( 10-C , 13-N ) :   0.9741 B( 10-C , 17-H ) :   0.8450 B( 10-C , 18-H ) :   1.0742
B( 13-N , 16-C ) :   0.8583 B( 16-C , 19-O ) :   1.2142 B( 16-C , 20-C ) :   0.6219
B( 20-C , 21-H ) :   0.9503 B( 20-C , 22-H ) :   0.9415 B( 20-C , 23-H ) :   0.9647

MP2 TOTAL ENERGY:     -902.135670153 Eh
FINAL SINGLE POINT ENERGY      -902.135670152949

DIPOLE MOMENT
-------------
                                X             Y             Z
Electronic contribution:      7.93072       2.30972      -6.81338
Nuclear contribution   :     -7.76602      -3.43841       7.87634
                        -----------------------------------------
Total Dipole Moment    :      0.16471      -1.12869       1.06296
                        -----------------------------------------
Magnitude (a.u.)       :      1.55915
Magnitude (Debye)      :      3.96305

Rotational constants in cm-1:     0.066369     0.017279     0.016610
Rotational constants in MHz :  1989.693914   518.019142   497.960496

                             ****ORCA TERMINATED NORMALLY****
TOTAL RUN TIME: 0 days 0 hours 11 minutes 41 seconds 387 msec
