                         Program Version 4.2.1 -  RELEASE  -
|  1> %pal
|  2>  nprocs 32
|  3> end
|  4> !RI-MP2 aug-cc-pVTZ aug-cc-pVTZ/C TightSCF
|  5> %maxcore 4500
|  6> *xyzfile 0 1  04_73P2.xyz
|  7>
|  8>
|  9>                          ****END OF INPUT****

CARTESIAN COORDINATES (ANGSTROEM)
---------------------------------
  N      0.680798    1.351069   -0.044114
  C      0.565696    0.099556   -0.019199
  C     -0.703900   -0.716624   -0.078970
  O      1.650035   -0.701194    0.063699
  N     -1.878240    0.128859    0.039176
  H     -0.631765   -1.503386    0.680555
  H     -0.715494   -1.224285   -1.046437
  H     -2.152591    0.273932    1.002010
  H     -2.669633   -0.240772   -0.467407
  H      2.424755   -0.123490    0.072342
  H     -0.244241    1.770462   -0.127072

 Total Charge           Charge          ....    0
 Multiplicity           Mult            ....    1
 Number of Electrons    NEL             ....   40
 Basis Dimension        Dim             ....  368

ORBITAL ENERGIES
----------------

  NO   OCC          E(Eh)            E(eV)
   0   2.0000     -20.593029      -560.3648
   1   2.0000     -15.561211      -423.4421
   2   2.0000     -15.526175      -422.4887
   3   2.0000     -11.331833      -308.3549
   4   2.0000     -11.276032      -306.8364
   5   2.0000      -1.423068       -38.7236
   6   2.0000      -1.216326       -33.0979
   7   2.0000      -1.171580       -31.8803
   8   2.0000      -0.965125       -26.2624
   9   2.0000      -0.798464       -21.7273
  10   2.0000      -0.713941       -19.4273
  11   2.0000      -0.695779       -18.9331
  12   2.0000      -0.657689       -17.8966
  13   2.0000      -0.608657       -16.5624
  14   2.0000      -0.601171       -16.3587
  15   2.0000      -0.570924       -15.5356
  16   2.0000      -0.537723       -14.6322
  17   2.0000      -0.432948       -11.7811
  18   2.0000      -0.416088       -11.3223
  19   2.0000      -0.402388       -10.9495
  20   0.0000       0.024601         0.6694
  21   0.0000       0.038003         1.0341
  22   0.0000       0.039679         1.0797
  23   0.0000       0.045336         1.2337
  24   0.0000       0.057842         1.5740

MULLIKEN ATOMIC CHARGES
-----------------------
   0 N :   -0.714584
   1 C :    0.280339
   2 C :    0.125147
   3 O :   -0.460239
   4 N :   -0.541028
   5 H :    0.317369
   6 H :    0.319051
   7 H :    0.101015
   8 H :    0.132496
   9 H :    0.251090
  10 H :    0.189344
Sum of atomic charges:   -0.0000000

LOEWDIN ATOMIC CHARGES
----------------------
   0 N :    0.653637
   1 C :   -0.584132
   2 C :    0.157855
   3 O :    0.827008
   4 N :    0.833126
   5 H :   -0.153649
   6 H :   -0.149901
   7 H :   -0.308708
   8 H :   -0.317188
   9 H :   -0.481942
  10 H :   -0.476106

  Mayer bond orders larger than 0.100000
B(  0-N ,  1-C ) :   1.3724 B(  0-N , 10-H ) :   0.9228 B(  1-C ,  2-C ) :   0.7078
B(  1-C ,  3-O ) :   0.9463 B(  1-C ,  4-N ) :   0.1159 B(  2-C ,  4-N ) :   0.7380
B(  2-C ,  5-H ) :   0.9207 B(  2-C ,  6-H ) :   0.8971 B(  3-O ,  9-H ) :   0.9496
B(  4-N ,  7-H ) :   1.0318 B(  4-N ,  8-H ) :   0.9982

MP2 TOTAL ENERGY:     -264.096389245 Eh
FINAL SINGLE POINT ENERGY      -264.096389244841

DIPOLE MOMENT
-------------
                                X             Y             Z
Electronic contribution:      3.17303       0.34221       0.01716
Nuclear contribution   :     -4.02571      -1.06464       0.11658
                        -----------------------------------------
Total Dipole Moment    :     -0.85268      -0.72244       0.13374
                        -----------------------------------------
Magnitude (a.u.)       :      1.12555
Magnitude (Debye)      :      2.86093

Rotational constants in cm-1:     0.336906     0.128842     0.096411
Rotational constants in MHz : 10100.191005  3862.572913  2890.329085

                             ****ORCA TERMINATED NORMALLY****
TOTAL RUN TIME: 0 days 0 hours 0 minutes 43 seconds 772 msec
