                         Program Version 4.2.1 -  RELEASE  -
|  1> %pal
|  2>  nprocs 32
|  3> end
|  4> !RI-MP2 aug-cc-pVTZ aug-cc-pVTZ/C TightSCF
|  5> %maxcore 4500
|  6> *xyzfile 0 1  10_78TS.xyz
|  7>
|  8>
|  9>                          ****END OF INPUT****

CARTESIAN COORDINATES (ANGSTROEM)
---------------------------------
  C     -6.094960   -0.502306   -1.508971
  C     -5.203818   -1.215027   -0.499050
  C     -3.853614   -0.539002   -0.337746
  C     -2.840473   -1.332079    0.510555
  C     -1.497035   -0.637319    0.625764
  C     -0.349760   -0.950525   -0.094001
  C      0.842623   -0.315871    0.268442
  C      2.193614   -0.714334   -0.265934
  C      2.927953    0.358212   -1.144183
  C      2.921377    1.721056   -0.517372
  C      1.765774    2.329258   -0.246897
  C      0.491400    1.708984   -0.588519
  C     -0.709782    2.052595    0.015721
  C     -1.874239    1.384669   -0.301112
  C     -3.124127    1.645903    0.430749
  C     -3.375237   -1.640454    1.911343
  C      3.074829   -1.200698    0.906568
  C      4.432174   -1.698400    0.412707
  C      5.176425   -0.647837   -0.403880
  C      4.319992   -0.139458   -1.552739
  C     -0.430223   -1.703675   -1.398072
  O     -3.306361    2.568564    1.179817
  O     -4.120076    0.740611    0.252490
  O      3.214774   -0.226519    1.926343
  O      5.530352    0.481894    0.411123
  H     -6.274635    0.528488   -1.201469
  H     -7.060620   -1.002622   -1.600927
  H     -5.633348   -0.484400   -2.500234
  H     -5.700065   -1.249034    0.472649
  H     -5.030791   -2.250259   -0.810147
  H     -3.430937   -0.392694   -1.336707
  H     -2.699056   -2.278902   -0.018347
  H     -1.326861   -0.171046    1.589561
  H      0.883822    0.105266    1.264401
  H      2.067809   -1.581732   -0.921700
  H      2.341160    0.419151   -2.066925
  H      3.866062    2.173012   -0.242696
  H      1.749319    3.275195    0.285013
  H      0.434887    1.237845   -1.565286
  H     -0.703996    2.670280    0.908934
  H     -1.954736    0.913641   -1.270398
  H     -3.634198   -0.719464    2.437383
  H     -2.616191   -2.163305    2.495709
  H     -4.263070   -2.272315    1.875808
  H      2.551455   -2.031884    1.385040
  H      4.286634   -2.585399   -0.212342
  H      5.032009   -2.008051    1.273517
  H      6.093372   -1.082229   -0.817184
  H      4.205701   -0.967655   -2.259162
  H      4.858150    0.653220   -2.076897
  H     -0.064202   -1.089278   -2.227131
  H      0.178422   -2.611462   -1.382563
  H     -1.448724   -2.000091   -1.642249
  H      3.806712    0.463442    1.601822
  H      6.179036    0.203723    1.064103

 Total Charge           Charge          ....    0
 Multiplicity           Mult            ....    1
 Number of Electrons    NEL             ....  188
 Basis Dimension        Dim             .... 1840

ORBITAL ENERGIES
----------------

  NO   OCC          E(Eh)            E(eV)
   0   2.0000     -20.582945      -560.0904
   1   2.0000     -20.576705      -559.9206
   2   2.0000     -20.546914      -559.1100
   3   2.0000     -20.516464      -558.2814
   4   2.0000     -11.362156      -309.1800
   5   2.0000     -11.296899      -307.4043
   6   2.0000     -11.295162      -307.3570
   7   2.0000     -11.284482      -307.0664
   8   2.0000     -11.253424      -306.2212
   9   2.0000     -11.247687      -306.0651
  10   2.0000     -11.246255      -306.0262
  11   2.0000     -11.243466      -305.9503
  12   2.0000     -11.242716      -305.9299
  13   2.0000     -11.240615      -305.8727
  14   2.0000     -11.238115      -305.8046
  15   2.0000     -11.234622      -305.7096
  16   2.0000     -11.234233      -305.6990
  17   2.0000     -11.233868      -305.6891
  18   2.0000     -11.233188      -305.6706
  19   2.0000     -11.227443      -305.5143
  20   2.0000     -11.225985      -305.4746
  21   2.0000     -11.225105      -305.4506
  22   2.0000     -11.220130      -305.3153
  23   2.0000     -11.218527      -305.2716
  24   2.0000     -11.213978      -305.1479
  25   2.0000      -1.440223       -39.1905
  26   2.0000      -1.384515       -37.6746
  27   2.0000      -1.356645       -36.9162
  28   2.0000      -1.343751       -36.5653
  29   2.0000      -1.154274       -31.4094
  30   2.0000      -1.125729       -30.6326
  31   2.0000      -1.102012       -29.9873
  32   2.0000      -1.086350       -29.5611
  33   2.0000      -1.062903       -28.9231
  34   2.0000      -1.043896       -28.4059
  35   2.0000      -1.016646       -27.6643
  36   2.0000      -1.008027       -27.4298
  37   2.0000      -0.959431       -26.1075
  38   2.0000      -0.949895       -25.8480
  39   2.0000      -0.937309       -25.5055
  40   2.0000      -0.900802       -24.5121
  41   2.0000      -0.870048       -23.6752
  42   2.0000      -0.851263       -23.1641
  43   2.0000      -0.827943       -22.5295
  44   2.0000      -0.816813       -22.2266
  45   2.0000      -0.796131       -21.6638
  46   2.0000      -0.777957       -21.1693
  47   2.0000      -0.742347       -20.2003
  48   2.0000      -0.731184       -19.8965
  49   2.0000      -0.728688       -19.8286
  50   2.0000      -0.717657       -19.5284
  51   2.0000      -0.693271       -18.8648
  52   2.0000      -0.684714       -18.6320
  53   2.0000      -0.675737       -18.3877
  54   2.0000      -0.658134       -17.9087
  55   2.0000      -0.651032       -17.7155
  56   2.0000      -0.640661       -17.4333
  57   2.0000      -0.635131       -17.2828
  58   2.0000      -0.629136       -17.1197
  59   2.0000      -0.616882       -16.7862
  60   2.0000      -0.604507       -16.4495
  61   2.0000      -0.602408       -16.3923
  62   2.0000      -0.599355       -16.3093
  63   2.0000      -0.585265       -15.9259
  64   2.0000      -0.583271       -15.8716
  65   2.0000      -0.580222       -15.7887
  66   2.0000      -0.575933       -15.6719
  67   2.0000      -0.570964       -15.5367
  68   2.0000      -0.567216       -15.4347
  69   2.0000      -0.553535       -15.0625
  70   2.0000      -0.545774       -14.8513
  71   2.0000      -0.542399       -14.7594
  72   2.0000      -0.534610       -14.5475
  73   2.0000      -0.530797       -14.4437
  74   2.0000      -0.526366       -14.3231
  75   2.0000      -0.518031       -14.0963
  76   2.0000      -0.515326       -14.0227
  77   2.0000      -0.512343       -13.9415
  78   2.0000      -0.500226       -13.6118
  79   2.0000      -0.497322       -13.5328
  80   2.0000      -0.495252       -13.4765
  81   2.0000      -0.490262       -13.3407
  82   2.0000      -0.480300       -13.0696
  83   2.0000      -0.479164       -13.0387
  84   2.0000      -0.477066       -12.9816
  85   2.0000      -0.464504       -12.6398
  86   2.0000      -0.458845       -12.4858
  87   2.0000      -0.440075       -11.9751
  88   2.0000      -0.427739       -11.6394
  89   2.0000      -0.427408       -11.6304
  90   2.0000      -0.419062       -11.4033
  91   2.0000      -0.371620       -10.1123
  92   2.0000      -0.309671        -8.4266
  93   2.0000      -0.280307        -7.6275
  94   0.0000       0.014924         0.4061
  95   0.0000       0.021517         0.5855
  96   0.0000       0.026786         0.7289
  97   0.0000       0.029391         0.7998
  98   0.0000       0.034738         0.9453

MULLIKEN ATOMIC CHARGES
-----------------------
   0 C :   -1.097888
   1 C :   -0.880874
   2 C :    1.323300
   3 C :    0.349029
   4 C :   -0.359826
   5 C :    1.401209
   6 C :   -0.634887
   7 C :    0.512242
   8 C :    0.789758
   9 C :   -0.959785
  10 C :   -1.094471
  11 C :    1.293597
  12 C :   -1.776891
  13 C :    1.303175
  14 C :    0.504717
  15 C :   -1.332401
  16 C :    0.376727
  17 C :   -1.089572
  18 C :    0.367836
  19 C :   -1.098148
  20 C :   -1.079210
  21 O :   -1.272342
  22 O :   -0.768329
  23 O :   -1.036988
  24 O :   -0.657252
  25 H :    0.300843
  26 H :    0.309898
  27 H :    0.246391
  28 H :    0.215570
  29 H :    0.240237
  30 H :    0.255320
  31 H :   -0.000391
  32 H :   -0.045351
  33 H :   -0.378372
  34 H :    0.250617
  35 H :    0.428939
  36 H :    0.499719
  37 H :    0.412327
  38 H :    0.429123
  39 H :   -0.167795
  40 H :    0.402884
  41 H :    0.294137
  42 H :    0.251190
  43 H :    0.201756
  44 H :    0.437663
  45 H :    0.107271
  46 H :    0.287767
  47 H :    0.453701
  48 H :    0.144019
  49 H :    0.277341
  50 H :    0.111010
  51 H :    0.173382
  52 H :    0.416955
  53 H :    0.288096
  54 H :    0.073030
Sum of atomic charges:   -0.0000000

LOEWDIN ATOMIC CHARGES
----------------------
   0 C :    0.594515
   1 C :    0.273194
   2 C :   -0.232821
   3 C :    0.002845
   4 C :    0.214115
   5 C :   -0.084341
   6 C :    0.212920
   7 C :    0.049943
   8 C :    0.014523
   9 C :    0.241668
  10 C :    0.230431
  11 C :    0.142074
  12 C :    0.199266
  13 C :    0.135946
  14 C :   -0.820212
  15 C :    0.608178
  16 C :   -0.212337
  17 C :    0.325908
  18 C :   -0.212940
  19 C :    0.318456
  20 C :    0.599935
  21 O :    0.446436
  22 O :    0.619987
  23 O :    0.874687
  24 O :    0.863017
  25 H :   -0.169455
  26 H :   -0.167874
  27 H :   -0.166290
  28 H :   -0.151362
  29 H :   -0.133525
  30 H :   -0.158195
  31 H :   -0.153630
  32 H :   -0.160074
  33 H :   -0.168625
  34 H :   -0.159051
  35 H :   -0.143808
  36 H :   -0.190540
  37 H :   -0.168003
  38 H :   -0.183524
  39 H :   -0.157088
  40 H :   -0.199819
  41 H :   -0.149941
  42 H :   -0.153704
  43 H :   -0.166746
  44 H :   -0.128931
  45 H :   -0.132736
  46 H :   -0.134900
  47 H :   -0.123854
  48 H :   -0.131147
  49 H :   -0.130294
  50 H :   -0.150539
  51 H :   -0.155816
  52 H :   -0.185359
  53 H :   -0.574685
  54 H :   -0.455876

  Mayer bond orders larger than 0.100000
B(  0-C ,  1-C ) :   0.8003 B(  0-C , 25-H ) :   0.9710 B(  0-C , 26-H ) :   0.9763
B(  0-C , 27-H ) :   1.0102 B(  1-C ,  2-C ) :   0.3676 B(  1-C , 22-O ) :   0.1065
B(  1-C , 28-H ) :   1.1284 B(  1-C , 29-H ) :   1.0675 B(  2-C ,  3-C ) :   1.1504
B(  2-C , 14-C ) :  -0.1224 B(  2-C , 22-O ) :  -0.3106 B(  2-C , 28-H ) :  -0.1196
B(  2-C , 30-H ) :   1.0005 B(  3-C ,  4-C ) :   1.0678 B(  3-C , 15-C ) :   0.4334
B(  3-C , 20-C ) :  -0.1274 B(  3-C , 22-O ) :   0.3881 B(  3-C , 31-H ) :   0.9783
B(  3-C , 33-H ) :   0.1405 B(  4-C ,  5-C ) :   0.3379 B(  4-C ,  6-C ) :   0.8543
B(  4-C , 11-C ) :   0.1878 B(  4-C , 12-C ) :   0.1067 B(  4-C , 14-C ) :   0.2807
B(  4-C , 15-C ) :  -0.2234 B(  4-C , 20-C ) :  -0.1361 B(  4-C , 21-O ) :   0.2050
B(  4-C , 22-O ) :  -0.1404 B(  4-C , 32-H ) :   1.3098 B(  4-C , 33-H ) :  -0.1030
B(  5-C ,  6-C ) :   0.8468 B(  5-C ,  7-C ) :   0.1580 B(  5-C ,  8-C ) :  -0.1075
B(  5-C , 10-C ) :   0.1919 B(  5-C , 11-C ) :  -0.1647 B(  5-C , 20-C ) :   0.2530
B(  5-C , 32-H ) :  -0.2141 B(  5-C , 33-H ) :  -0.2358 B(  5-C , 34-H ) :   0.1712
B(  5-C , 36-H ) :   0.1078 B(  5-C , 38-H ) :  -0.2180 B(  5-C , 50-H ) :  -0.2187
B(  5-C , 51-H ) :  -0.2214 B(  6-C ,  7-C ) :   0.4263 B(  6-C ,  9-C ) :   0.2110
B(  6-C , 10-C ) :   0.1190 B(  6-C , 11-C ) :   0.2771 B(  6-C , 12-C ) :   0.1718
B(  6-C , 13-C ) :   0.1538 B(  6-C , 20-C ) :   0.2758 B(  6-C , 32-H ) :  -0.3721
B(  6-C , 33-H ) :   1.6593 B(  6-C , 36-H ) :  -0.1923 B(  6-C , 37-H ) :   0.1801
B(  6-C , 39-H ) :  -0.2008 B(  7-C ,  8-C ) :   1.1458 B(  7-C ,  9-C ) :   0.5125
B(  7-C , 16-C ) :   0.7620 B(  7-C , 17-C ) :  -0.1339 B(  7-C , 19-C ) :   0.1133
B(  7-C , 23-O ) :   0.3460 B(  7-C , 32-H ) :   0.1480 B(  7-C , 33-H ) :  -0.1412
B(  7-C , 34-H ) :   1.0576 B(  7-C , 35-H ) :  -0.1042 B(  7-C , 38-H ) :   0.1014
B(  7-C , 39-H ) :   0.1115 B(  7-C , 45-H ) :  -0.1258 B(  8-C ,  9-C ) :   0.9033
B(  8-C , 10-C ) :  -0.1663 B(  8-C , 16-C ) :   0.2772 B(  8-C , 19-C ) :   0.5884
B(  8-C , 24-O ) :  -0.1310 B(  8-C , 34-H ) :  -0.1074 B(  8-C , 35-H ) :   1.0409
B(  9-C , 10-C ) :   1.7517 B(  9-C , 11-C ) :   0.1690 B(  9-C , 35-H ) :  -0.4216
B(  9-C , 36-H ) :   0.6800 B(  9-C , 37-H ) :  -0.1184 B(  9-C , 38-H ) :   0.1660
B( 10-C , 11-C ) :   0.3709 B( 10-C , 12-C ) :  -0.5311 B( 10-C , 13-C ) :   0.1850
B( 10-C , 19-C ) :   0.1089 B( 10-C , 35-H ) :  -0.1225 B( 10-C , 37-H ) :   0.6957
B( 10-C , 38-H ) :  -0.3834 B( 10-C , 39-H ) :  -0.1297 B( 11-C , 12-C ) :   0.5053
B( 11-C , 33-H ) :  -0.1772 B( 11-C , 38-H ) :   0.8691 B( 11-C , 39-H ) :  -0.1924
B( 12-C , 13-C ) :   0.2715 B( 12-C , 14-C ) :  -0.3608 B( 12-C , 33-H ) :   0.1327
B( 12-C , 37-H ) :  -0.1362 B( 12-C , 38-H ) :  -0.3237 B( 12-C , 39-H ) :   1.9600
B( 12-C , 40-H ) :  -0.2096 B( 13-C , 14-C ) :   0.4107 B( 13-C , 21-O ) :  -0.1082
B( 13-C , 32-H ) :  -0.1249 B( 13-C , 39-H ) :  -0.4023 B( 13-C , 40-H ) :   0.9127
B( 14-C , 21-O ) :   0.4158 B( 14-C , 22-O ) :   1.0978 B( 14-C , 40-H ) :  -0.2249
B( 15-C , 41-H ) :   1.0491 B( 15-C , 42-H ) :   1.0731 B( 15-C , 43-H ) :   1.1401
B( 16-C , 17-C ) :   1.0666 B( 16-C , 18-C ) :   0.1315 B( 16-C , 23-O ) :  -0.2125
B( 16-C , 34-H ) :  -0.1646 B( 16-C , 44-H ) :   0.9109 B( 17-C , 18-C ) :   0.9039
B( 17-C , 19-C ) :   0.2222 B( 17-C , 23-O ) :   0.3095 B( 17-C , 24-O ) :   0.1430
B( 17-C , 45-H ) :   1.2505 B( 17-C , 46-H ) :   0.9034 B( 18-C , 19-C ) :   0.8964
B( 18-C , 24-O ) :   0.5249 B( 18-C , 47-H ) :   0.8523 B( 19-C , 24-O ) :   0.1491
B( 19-C , 35-H ) :  -0.2489 B( 19-C , 48-H ) :   1.2106 B( 19-C , 49-H ) :   1.0022
B( 20-C , 50-H ) :   1.3105 B( 20-C , 51-H ) :   1.2023 B( 20-C , 52-H ) :   0.8107
B( 21-O , 22-O ) :  -0.1582 B( 21-O , 39-H ) :   0.2285 B( 23-O , 44-H ) :  -0.2257
B( 23-O , 53-H ) :   0.9038 B( 24-O , 54-H ) :   1.0850 B( 32-H , 33-H ) :  -0.1314
B( 32-H , 40-H ) :   0.2176 B( 33-H , 37-H ) :   0.1104 B( 33-H , 38-H ) :   0.1553
B( 50-H , 51-H ) :   0.1433

MP2 TOTAL ENERGY:    -1116.994751397 Eh
FINAL SINGLE POINT ENERGY     -1116.994751396617

DIPOLE MOMENT
-------------
                                X             Y             Z
Electronic contribution:      5.20365      14.03471       6.17462
Nuclear contribution   :     -3.34879     -16.55228      -7.58094
                        -----------------------------------------
Total Dipole Moment    :      1.85486      -2.51756      -1.40632
                        -----------------------------------------
Magnitude (a.u.)       :      3.42876
Magnitude (Debye)      :      8.71521

Rotational constants in cm-1:     0.017370     0.003762     0.003525
Rotational constants in MHz :   520.736615   112.785323   105.665105

                             ****ORCA TERMINATED NORMALLY****
TOTAL RUN TIME: 0 days 2 hours 24 minutes 14 seconds 38 msec
