                         Program Version 4.2.1 -  RELEASE  -
|  1> %pal
|  2>  nprocs 32
|  3> end
|  4> !RI-MP2 aug-cc-pVTZ aug-cc-pVTZ/C TightSCF
|  5> %maxcore 4500
|  6> *xyzfile 0 1  10_18P.xyz
|  7>
|  8>
|  9>                          ****END OF INPUT****

CARTESIAN COORDINATES (ANGSTROEM)
---------------------------------
  C     -5.967721   -1.529844   -0.854710
  C     -5.133723   -0.544391   -0.345309
  C     -3.976442   -0.886473    0.345547
  C     -3.667107   -2.230641    0.529610
  C     -4.500602   -3.215858    0.021777
  C     -5.651657   -2.868549   -0.672885
  H     -6.867773   -1.250769   -1.389067
  H     -5.383741    0.501386   -0.485435
  H     -2.777614   -2.509976    1.081128
  H     -4.252484   -4.259353    0.173399
  H     -6.302805   -3.639613   -1.066292
  C     -3.048400    0.200741    0.827539
  C     -1.835509    0.413366   -0.098835
  C     -1.252587    2.656479    0.704772
  C     -0.710132    2.004667   -1.572434
  C     -1.369408    4.118994    0.295462
  H     -0.233177    2.461285    1.074042
  H     -1.930423    2.446030    1.533070
  C     -0.826531    3.443364   -2.056002
  H      0.344973    1.798437   -1.327197
  H     -1.003321    1.309983   -2.361993
  C     -0.503091    4.416407   -0.925242
  H     -0.153215    3.596060   -2.903141
  H     -1.847247    3.613774   -2.411382
  H     -0.644644    5.448605   -1.253804
  H      0.553883    4.314348   -0.652443
  N     -1.578932    1.782981   -0.419102
  N     -0.818882   -0.256716    0.755893
  N     -1.265609   -0.389326    2.048983
  N     -2.472169   -0.145371    2.145279
  C      0.536916   -0.379505    0.485087
  C      0.951795   -0.976271   -0.703580
  C      1.533594    0.084622    1.341840
  C      2.285771   -1.087294   -1.032535
  C      2.870325   -0.067396    1.025079
  C      3.278569   -0.646335   -0.167828
  F      0.032900   -1.452149   -1.550621
  F      2.603816   -1.679366   -2.180650
  F      3.769103    0.427659    1.875200
  F      1.215818    0.732010    2.460732
  C      4.718350   -0.758261   -0.551514
  O      5.152269   -0.437838   -1.622423
  O      5.446298   -1.261760    0.442610
  C      6.854421   -1.367121    0.192496
  H      7.272782   -0.383343   -0.017531
  H      7.279498   -1.780374    1.102337
  H      7.037704   -2.025988   -0.655456
  H     -3.605523    1.131273    0.931267
  H     -2.416722    4.337534    0.065479
  H     -1.080825    4.751820    1.138273
  H     -1.944441   -0.142906   -1.026094

 Total Charge           Charge          ....    0
 Multiplicity           Mult            ....    1
 Number of Electrons    NEL             ....  226
 Basis Dimension        Dim             .... 1886

ORBITAL ENERGIES
----------------

  NO   OCC          E(Eh)            E(eV)
   0   2.0000     -26.344877      -716.8806
   1   2.0000     -26.344246      -716.8634
   2   2.0000     -26.343027      -716.8302
   3   2.0000     -26.339018      -716.7211
   4   2.0000     -20.621720      -561.1455
   5   2.0000     -20.564318      -559.5835
   6   2.0000     -15.680422      -426.6860
   7   2.0000     -15.632266      -425.3756
   8   2.0000     -15.616696      -424.9519
   9   2.0000     -15.565456      -423.5576
  10   2.0000     -11.407826      -310.4227
  11   2.0000     -11.374887      -309.5264
  12   2.0000     -11.374404      -309.5133
  13   2.0000     -11.362160      -309.1801
  14   2.0000     -11.361405      -309.1596
  15   2.0000     -11.338069      -308.5245
  16   2.0000     -11.319688      -308.0244
  17   2.0000     -11.296680      -307.3983
  18   2.0000     -11.293894      -307.3225
  19   2.0000     -11.282670      -307.0171
  20   2.0000     -11.261355      -306.4370
  21   2.0000     -11.258801      -306.3676
  22   2.0000     -11.252044      -306.1837
  23   2.0000     -11.242181      -305.9153
  24   2.0000     -11.241067      -305.8850
  25   2.0000     -11.240704      -305.8751
  26   2.0000     -11.239146      -305.8327
  27   2.0000     -11.238687      -305.8202
  28   2.0000     -11.226609      -305.4916
  29   2.0000     -11.226265      -305.4822
  30   2.0000     -11.225711      -305.4671
  31   2.0000      -1.672557       -45.5126
  32   2.0000      -1.671401       -45.4811
  33   2.0000      -1.656882       -45.0860
  34   2.0000      -1.654714       -45.0271
  35   2.0000      -1.486366       -40.4461
  36   2.0000      -1.450071       -39.4584
  37   2.0000      -1.383701       -37.6524
  38   2.0000      -1.277080       -34.7511
  39   2.0000      -1.248280       -33.9674
  40   2.0000      -1.198475       -32.6122
  41   2.0000      -1.170243       -31.8439
  42   2.0000      -1.108063       -30.1519
  43   2.0000      -1.086664       -29.5696
  44   2.0000      -1.067341       -29.0438
  45   2.0000      -1.065818       -29.0024
  46   2.0000      -1.031727       -28.0747
  47   2.0000      -1.024934       -27.8899
  48   2.0000      -1.005895       -27.3718
  49   2.0000      -0.998727       -27.1768
  50   2.0000      -0.943130       -25.6639
  51   2.0000      -0.913507       -24.8578
  52   2.0000      -0.905812       -24.6484
  53   2.0000      -0.868175       -23.6242
  54   2.0000      -0.860419       -23.4132
  55   2.0000      -0.843346       -22.9486
  56   2.0000      -0.837614       -22.7926
  57   2.0000      -0.832753       -22.6604
  58   2.0000      -0.823952       -22.4209
  59   2.0000      -0.808910       -22.0116
  60   2.0000      -0.792082       -21.5536
  61   2.0000      -0.787827       -21.4379
  62   2.0000      -0.770562       -20.9681
  63   2.0000      -0.752540       -20.4776
  64   2.0000      -0.750411       -20.4197
  65   2.0000      -0.742712       -20.2102
  66   2.0000      -0.741910       -20.1884
  67   2.0000      -0.737063       -20.0565
  68   2.0000      -0.734881       -19.9971
  69   2.0000      -0.717157       -19.5148
  70   2.0000      -0.715376       -19.4664
  71   2.0000      -0.711204       -19.3528
  72   2.0000      -0.694478       -18.8977
  73   2.0000      -0.692411       -18.8415
  74   2.0000      -0.688952       -18.7473
  75   2.0000      -0.682779       -18.5794
  76   2.0000      -0.678590       -18.4654
  77   2.0000      -0.651737       -17.7347
  78   2.0000      -0.645354       -17.5610
  79   2.0000      -0.642293       -17.4777
  80   2.0000      -0.636143       -17.3103
  81   2.0000      -0.633655       -17.2426
  82   2.0000      -0.620773       -16.8921
  83   2.0000      -0.613114       -16.6837
  84   2.0000      -0.610061       -16.6006
  85   2.0000      -0.605341       -16.4722
  86   2.0000      -0.595286       -16.1986
  87   2.0000      -0.594341       -16.1728
  88   2.0000      -0.579113       -15.7585
  89   2.0000      -0.572182       -15.5699
  90   2.0000      -0.568431       -15.4678
  91   2.0000      -0.565485       -15.3876
  92   2.0000      -0.558274       -15.1914
  93   2.0000      -0.546277       -14.8649
  94   2.0000      -0.543860       -14.7992
  95   2.0000      -0.535791       -14.5796
  96   2.0000      -0.519505       -14.1365
  97   2.0000      -0.510300       -13.8860
  98   2.0000      -0.504759       -13.7352
  99   2.0000      -0.499794       -13.6001
 100   2.0000      -0.498393       -13.5620
 101   2.0000      -0.479757       -13.0548
 102   2.0000      -0.478993       -13.0341
 103   2.0000      -0.476994       -12.9797
 104   2.0000      -0.465519       -12.6674
 105   2.0000      -0.458606       -12.4793
 106   2.0000      -0.442029       -12.0282
 107   2.0000      -0.423133       -11.5140
 108   2.0000      -0.380961       -10.3665
 109   2.0000      -0.369900       -10.0655
 110   2.0000      -0.350434        -9.5358
 111   2.0000      -0.344849        -9.3838
 112   2.0000      -0.331994        -9.0340
 113   0.0000       0.022903         0.6232
 114   0.0000       0.026948         0.7333
 115   0.0000       0.027941         0.7603
 116   0.0000       0.033238         0.9045
 117   0.0000       0.033908         0.9227

MULLIKEN ATOMIC CHARGES
-----------------------
   0 C :   -0.713641
   1 C :   -1.004033
   2 C :    1.260118
   3 C :   -0.524344
   4 C :   -0.924883
   5 C :   -0.018387
   6 H :    0.617465
   7 H :   -0.238141
   8 H :    0.371072
   9 H :    0.367198
  10 H :    0.477262
  11 C :    0.213592
  12 C :    0.558501
  13 C :   -0.725431
  14 C :   -0.893528
  15 C :   -0.782850
  16 H :    0.379739
  17 H :    0.388593
  18 C :   -0.865072
  19 H :    0.459310
  20 H :    0.225512
  21 C :   -0.484674
  22 H :    0.317136
  23 H :    0.106914
  24 H :    0.354287
  25 H :    0.113462
  26 N :    0.143760
  27 N :    0.711206
  28 N :   -0.575770
  29 N :   -1.042912
  30 C :    0.929541
  31 C :    0.679878
  32 C :    0.404285
  33 C :    0.525525
  34 C :    0.660691
  35 C :    0.524432
  36 F :   -0.681518
  37 F :   -0.625465
  38 F :   -0.620795
  39 F :   -0.705502
  40 C :    0.473970
  41 O :   -0.888115
  42 O :   -0.382579
  43 C :   -0.898022
  44 H :    0.394315
  45 H :    0.332674
  46 H :    0.375650
  47 H :    0.235794
  48 H :    0.108318
  49 H :    0.293936
  50 H :    0.591527
Sum of atomic charges:    0.0000000

LOEWDIN ATOMIC CHARGES
----------------------
   0 C :    0.203644
   1 C :    0.226066
   2 C :   -0.105223
   3 C :    0.220728
   4 C :    0.209191
   5 C :    0.198194
   6 H :   -0.180848
   7 H :   -0.170658
   8 H :   -0.182236
   9 H :   -0.179329
  10 H :   -0.182317
  11 C :   -0.146663
  12 C :   -0.180140
  13 C :    0.178842
  14 C :    0.182571
  15 C :    0.309829
  16 H :   -0.139019
  17 H :   -0.156017
  18 C :    0.306960
  19 H :   -0.138234
  20 H :   -0.136166
  21 C :    0.294545
  22 H :   -0.136101
  23 H :   -0.136177
  24 H :   -0.138358
  25 H :   -0.138593
  26 N :    0.328459
  27 N :    0.133937
  28 N :    0.150853
  29 N :    0.264063
  30 C :   -0.260025
  31 C :   -0.498431
  32 C :   -0.497189
  33 C :   -0.513557
  34 C :   -0.512184
  35 C :   -0.146414
  36 F :    0.558242
  37 F :    0.552010
  38 F :    0.547959
  39 F :    0.550452
  40 C :   -0.846787
  41 O :    0.482138
  42 O :    0.567623
  43 C :    0.373629
  44 H :   -0.176459
  45 H :   -0.181953
  46 H :   -0.177161
  47 H :   -0.156687
  48 H :   -0.135647
  49 H :   -0.135449
  50 H :   -0.155915

  Mayer bond orders larger than 0.100000
B(  0-C ,  1-C ) :   1.3687 B(  0-C ,  2-C ) :   0.1507 B(  0-C ,  4-C ) :   0.2013
B(  0-C ,  5-C ) :   1.0773 B(  0-C ,  6-H ) :   0.5255 B(  0-C ,  7-H ) :  -0.1323
B(  0-C , 10-H ) :  -0.1940 B(  1-C ,  3-C ) :  -0.5394 B(  1-C ,  4-C ) :   0.1042
B(  1-C ,  5-C ) :  -0.2186 B(  1-C ,  6-H ) :  -0.1797 B(  1-C ,  7-H ) :   2.1792
B(  1-C ,  8-H ) :   0.2163 B(  1-C , 10-H ) :   0.1985 B(  1-C , 11-C ) :   0.2378
B(  1-C , 12-C ) :   0.1540 B(  1-C , 47-H ) :  -0.2092 B(  2-C ,  3-C ) :   0.5138
B(  2-C ,  7-H ) :  -0.3868 B(  2-C ,  8-H ) :  -0.1330 B(  2-C , 11-C ) :   0.6061
B(  2-C , 12-C ) :   0.1173 B(  2-C , 26-N ) :   0.1331 B(  2-C , 29-N ) :   0.1760
B(  3-C ,  4-C ) :   1.3736 B(  3-C ,  8-H ) :   0.9725 B(  3-C , 11-C ) :   0.1432
B(  3-C , 12-C ) :   0.3382 B(  3-C , 27-N ) :  -0.4327 B(  4-C ,  5-C ) :   1.0884
B(  4-C ,  9-H ) :   0.9553 B(  4-C , 10-H ) :  -0.1504 B(  4-C , 27-N ) :   0.1382
B(  5-C , 10-H ) :   0.7751 B(  6-H ,  7-H ) :  -0.1232 B(  6-H , 47-H ) :   0.1064
B(  7-H ,  8-H ) :   0.1099 B(  7-H , 11-C ) :  -0.1790 B(  7-H , 27-N ) :   0.1595
B(  7-H , 47-H ) :  -0.1793 B(  8-H , 12-C ) :   0.1975 B(  8-H , 27-N ) :  -0.2681
B( 11-C , 12-C ) :   0.6905 B( 11-C , 26-N ) :   0.2769 B( 11-C , 28-N ) :   0.2173
B( 11-C , 29-N ) :   0.7139 B( 11-C , 30-C ) :   0.1797 B( 11-C , 47-H ) :   1.0601
B( 11-C , 50-H ) :  -0.1533 B( 12-C , 13-C ) :  -0.2599 B( 12-C , 14-C ) :  -0.2637
B( 12-C , 15-C ) :  -0.1869 B( 12-C , 18-C ) :  -0.1736 B( 12-C , 20-H ) :  -0.1894
B( 12-C , 26-N ) :   0.7307 B( 12-C , 27-N ) :   1.1110 B( 12-C , 28-N ) :   0.5813
B( 12-C , 29-N ) :   0.3727 B( 12-C , 30-C ) :  -0.4602 B( 12-C , 33-C ) :   0.1100
B( 12-C , 36-F ) :  -0.3410 B( 12-C , 47-H ) :   0.1454 B( 12-C , 50-H ) :   0.4818
B( 13-C , 15-C ) :   0.9980 B( 13-C , 16-H ) :   0.9046 B( 13-C , 17-H ) :   0.9476
B( 13-C , 26-N ) :   0.7256 B( 14-C , 18-C ) :   1.0025 B( 14-C , 19-H ) :   0.8447
B( 14-C , 20-H ) :   1.0932 B( 14-C , 26-N ) :   0.8034 B( 15-C , 18-C ) :   0.1462
B( 15-C , 21-C ) :   0.9374 B( 15-C , 48-H ) :   1.1711 B( 15-C , 49-H ) :   0.9140
B( 17-H , 26-N ) :  -0.1173 B( 18-C , 21-C ) :   0.9649 B( 18-C , 22-H ) :   0.9027
B( 18-C , 23-H ) :   1.2047 B( 18-C , 26-N ) :  -0.1258 B( 20-H , 36-F ) :   0.1100
B( 21-C , 24-H ) :   0.8754 B( 21-C , 25-H ) :   1.0493 B( 26-N , 30-C ) :   0.2338
B( 26-N , 50-H ) :  -0.1351 B( 27-N , 28-N ) :   0.1094 B( 27-N , 29-N ) :  -0.4444
B( 27-N , 30-C ) :   0.7805 B( 27-N , 31-C ) :  -0.1115 B( 27-N , 32-C ) :  -0.4379
B( 27-N , 33-C ) :   0.2281 B( 27-N , 34-C ) :   0.1334 B( 27-N , 36-F ) :   0.1703
B( 27-N , 50-H ) :   0.1739 B( 28-N , 29-N ) :   0.5152 B( 28-N , 30-C ) :  -0.7479
B( 28-N , 31-C ) :   0.1100 B( 28-N , 32-C ) :   0.1916 B( 29-N , 30-C ) :  -0.1518
B( 30-C , 31-C ) :   1.3006 B( 30-C , 32-C ) :   1.0822 B( 30-C , 33-C ) :  -0.1228
B( 30-C , 34-C ) :  -0.1355 B( 30-C , 36-F ) :   0.4942 B( 30-C , 37-F ) :   0.1042
B( 30-C , 38-F ) :   0.1470 B( 30-C , 39-F ) :   0.3777 B( 31-C , 32-C ) :  -0.2456
B( 31-C , 33-C ) :   1.0214 B( 31-C , 34-C ) :   0.1796 B( 31-C , 35-C ) :   0.1855
B( 31-C , 36-F ) :  -0.1548 B( 31-C , 37-F ) :   0.5287 B( 32-C , 33-C ) :   0.2314
B( 32-C , 34-C ) :   1.2544 B( 32-C , 38-F ) :   0.4697 B( 32-C , 40-C ) :   0.1240
B( 33-C , 34-C ) :  -0.3841 B( 33-C , 35-C ) :   1.5563 B( 33-C , 37-F ) :  -0.1845
B( 33-C , 40-C ) :   0.1913 B( 34-C , 35-C ) :   1.6507 B( 34-C , 38-F ) :  -0.1544
B( 34-C , 40-C ) :   0.1709 B( 34-C , 42-O ) :  -0.1068 B( 35-C , 37-F ) :   0.2297
B( 35-C , 38-F ) :   0.1204 B( 35-C , 40-C ) :  -0.1717 B( 35-C , 41-O ) :   0.1124
B( 36-F , 37-F ) :   0.1491 B( 38-F , 39-F ) :   0.1321 B( 40-C , 41-O ) :   1.3061
B( 40-C , 42-O ) :   1.1209 B( 40-C , 43-C ) :  -0.1464 B( 42-O , 43-C ) :   0.9027
B( 43-C , 44-H ) :   0.8480 B( 43-C , 45-H ) :   0.9211 B( 43-C , 46-H ) :   0.8614

MP2 TOTAL ENERGY:    -1578.342356233 Eh
FINAL SINGLE POINT ENERGY     -1578.342356232780

DIPOLE MOMENT
-------------
                                X             Y             Z
Electronic contribution:     24.53174     -20.73478       8.29949
Nuclear contribution   :    -24.65608      21.05121      -8.79216
                        -----------------------------------------
Total Dipole Moment    :     -0.12434       0.31643      -0.49267
                        -----------------------------------------
Magnitude (a.u.)       :      0.59859
Magnitude (Debye)      :      1.52151

Rotational constants in cm-1:     0.007708     0.002996     0.002644
Rotational constants in MHz :   231.086404    89.808982    79.261828

                             ****ORCA TERMINATED NORMALLY****
TOTAL RUN TIME: 0 days 2 hours 29 minutes 39 seconds 553 msec
