                         Program Version 4.2.1 -  RELEASE  -
|  1> %pal
|  2>  nprocs 32
|  3> end
|  4> !RI-MP2 aug-cc-pVTZ aug-cc-pVTZ/C TightSCF
|  5> %maxcore 4500
|  6> *xyzfile 1 1  05_36TS.xyz
|  7>
|  8>
|  9>                          ****END OF INPUT****

CARTESIAN COORDINATES (ANGSTROEM)
---------------------------------
  N      0.464024   -0.067513   -1.397176
  C      1.813500   -0.054147   -0.976441
  C      2.651909   -1.007722   -1.545020
  C      3.989691   -1.094988   -1.194940
  C      4.511962   -0.212126   -0.253698
  C      3.672685    0.745001    0.316924
  C      2.341117    0.826045   -0.029477
  O      5.791745   -0.202861    0.164212
  C      6.694508   -1.153239   -0.377954
  C     -0.595537    0.773556   -1.154974
  C     -0.318049    2.177016   -0.693044
  C      0.422417    3.017097   -1.523288
  C      0.669586    4.326156   -1.144073
  C      0.178830    4.804709    0.064569
  C     -0.564936    3.971514    0.887452
  C     -0.817765    2.658824    0.510785
  C     -1.682649    0.669578   -2.202950
  O      1.365058   -1.952012    1.981012
  C      0.446971   -1.214363    1.728413
  O      0.290650   -0.001717    2.243264
  C      1.270025    0.397216    3.217475
  C     -0.663702   -1.563828    0.801910
  C     -2.867153   -1.114525    0.099544
  C     -2.948532   -2.325581   -0.523132
  N     -1.806552   -3.087927   -0.537685
  C     -0.677730   -2.775031    0.153084
  C     -4.154950   -2.936834   -1.154658
  C     -4.048306   -0.213476    0.172495
  O     -3.713165    0.992267    0.620183
  C     -4.783020    1.949497    0.714760
  C      0.400673   -3.803902    0.169327
  O     -5.159662   -0.530497   -0.165877
  H      6.795660   -1.027691   -1.459376
  H     -5.528703    1.604000    1.428852
  H     -0.948903    4.342990    1.829696
  H      0.278177   -0.788253   -2.080365
  H      6.374746   -2.173673   -0.149780
  H      7.651790   -0.960221    0.098349
  H      1.247904    4.973704   -1.791198
  H      0.375535    5.827229    0.361848
  H     -5.250445    2.088583   -0.258964
  H     -4.317090    2.869065    1.055594
  H     -1.354521    1.162322   -3.121527
  H     -2.584737    1.174174   -1.862003
  H     -1.929808   -0.369019   -2.438597
  H     -1.849786   -3.991371   -0.989022
  H     -1.223164    0.256431   -0.079780
  H     -4.913563   -3.147575   -0.400240
  H     -3.893183   -3.866609   -1.662348
  H     -4.615857   -2.253603   -1.865632
  H      1.362366   -3.356496   -0.078460
  H      0.174194   -4.610002   -0.530520
  H      0.512309   -4.219985    1.171077
  H      1.052616    1.438835    3.434844
  H      2.272883    0.279837    2.812875
  H      1.164624   -0.212248    4.113984
  H      0.819017    2.641940   -2.459794
  H     -1.386843    2.003870    1.157314
  H      2.260528   -1.693587   -2.290129
  H      1.722027    1.572300    0.440096
  H      4.094718    1.428464    1.042479
  H      4.609367   -1.845517   -1.663561
  N     -1.688636   -0.654276    0.665346

 Total Charge           Charge          ....    1
 Multiplicity           Mult            ....    1
 Number of Electrons    NEL             ....  240
 Basis Dimension        Dim             .... 2208

ORBITAL ENERGIES
----------------

  NO   OCC          E(Eh)            E(eV)
   0   2.0000     -20.710726      -563.5675
   1   2.0000     -20.705279      -563.4193
   2   2.0000     -20.666831      -562.3731
   3   2.0000     -20.651232      -561.9486
   4   2.0000     -20.645636      -561.7963
   5   2.0000     -15.780870      -429.4193
   6   2.0000     -15.757019      -428.7703
   7   2.0000     -15.731351      -428.0718
   8   2.0000     -11.494948      -312.7934
   9   2.0000     -11.490351      -312.6684
  10   2.0000     -11.466266      -312.0130
  11   2.0000     -11.458790      -311.8095
  12   2.0000     -11.438820      -311.2661
  13   2.0000     -11.407897      -310.4247
  14   2.0000     -11.407256      -310.4072
  15   2.0000     -11.388982      -309.9099
  16   2.0000     -11.382466      -309.7326
  17   2.0000     -11.379636      -309.6556
  18   2.0000     -11.374171      -309.5069
  19   2.0000     -11.361879      -309.1724
  20   2.0000     -11.360484      -309.1345
  21   2.0000     -11.358860      -309.0903
  22   2.0000     -11.354376      -308.9683
  23   2.0000     -11.351567      -308.8918
  24   2.0000     -11.341544      -308.6191
  25   2.0000     -11.337339      -308.5047
  26   2.0000     -11.333606      -308.4031
  27   2.0000     -11.332976      -308.3860
  28   2.0000     -11.331167      -308.3367
  29   2.0000     -11.330104      -308.3078
  30   2.0000     -11.329371      -308.2878
  31   2.0000     -11.328233      -308.2569
  32   2.0000     -11.322726      -308.1070
  33   2.0000      -1.576509       -42.8990
  34   2.0000      -1.571785       -42.7705
  35   2.0000      -1.498028       -40.7634
  36   2.0000      -1.479901       -40.2702
  37   2.0000      -1.472215       -40.0610
  38   2.0000      -1.467366       -39.9291
  39   2.0000      -1.405917       -38.2570
  40   2.0000      -1.382134       -37.6098
  41   2.0000      -1.265909       -34.4471
  42   2.0000      -1.254529       -34.1375
  43   2.0000      -1.247359       -33.9424
  44   2.0000      -1.177335       -32.0369
  45   2.0000      -1.145739       -31.1771
  46   2.0000      -1.139696       -31.0127
  47   2.0000      -1.124644       -30.6031
  48   2.0000      -1.118470       -30.4351
  49   2.0000      -1.117755       -30.4157
  50   2.0000      -1.091270       -29.6950
  51   2.0000      -1.090003       -29.6605
  52   2.0000      -1.071234       -29.1498
  53   2.0000      -1.061854       -28.8945
  54   2.0000      -1.030208       -28.0334
  55   2.0000      -0.994413       -27.0593
  56   2.0000      -0.987111       -26.8606
  57   2.0000      -0.958231       -26.0748
  58   2.0000      -0.944442       -25.6996
  59   2.0000      -0.933033       -25.3891
  60   2.0000      -0.924121       -25.1466
  61   2.0000      -0.890865       -24.2417
  62   2.0000      -0.887774       -24.1575
  63   2.0000      -0.868527       -23.6338
  64   2.0000      -0.866065       -23.5668
  65   2.0000      -0.837844       -22.7989
  66   2.0000      -0.835084       -22.7238
  67   2.0000      -0.816263       -22.2117
  68   2.0000      -0.814383       -22.1605
  69   2.0000      -0.810520       -22.0554
  70   2.0000      -0.800706       -21.7883
  71   2.0000      -0.782523       -21.2935
  72   2.0000      -0.779297       -21.2057
  73   2.0000      -0.778274       -21.1779
  74   2.0000      -0.771802       -21.0018
  75   2.0000      -0.770914       -20.9776
  76   2.0000      -0.763181       -20.7672
  77   2.0000      -0.748939       -20.3797
  78   2.0000      -0.743921       -20.2431
  79   2.0000      -0.736909       -20.0523
  80   2.0000      -0.728441       -19.8219
  81   2.0000      -0.718439       -19.5497
  82   2.0000      -0.714489       -19.4422
  83   2.0000      -0.711633       -19.3645
  84   2.0000      -0.703943       -19.1553
  85   2.0000      -0.703286       -19.1374
  86   2.0000      -0.694119       -18.8879
  87   2.0000      -0.691553       -18.8181
  88   2.0000      -0.688123       -18.7248
  89   2.0000      -0.685116       -18.6430
  90   2.0000      -0.684709       -18.6319
  91   2.0000      -0.680458       -18.5162
  92   2.0000      -0.679430       -18.4882
  93   2.0000      -0.669219       -18.2104
  94   2.0000      -0.664799       -18.0901
  95   2.0000      -0.661809       -18.0087
  96   2.0000      -0.658176       -17.9099
  97   2.0000      -0.651031       -17.7154
  98   2.0000      -0.649985       -17.6870
  99   2.0000      -0.646348       -17.5880
 100   2.0000      -0.632532       -17.2121
 101   2.0000      -0.627531       -17.0760
 102   2.0000      -0.617383       -16.7999
 103   2.0000      -0.611102       -16.6289
 104   2.0000      -0.599431       -16.3113
 105   2.0000      -0.597244       -16.2518
 106   2.0000      -0.593334       -16.1454
 107   2.0000      -0.592234       -16.1155
 108   2.0000      -0.571653       -15.5555
 109   2.0000      -0.569027       -15.4840
 110   2.0000      -0.564354       -15.3569
 111   2.0000      -0.563065       -15.3218
 112   2.0000      -0.556383       -15.1400
 113   2.0000      -0.544034       -14.8039
 114   2.0000      -0.497986       -13.5509
 115   2.0000      -0.450286       -12.2529
 116   2.0000      -0.445675       -12.1274
 117   2.0000      -0.435658       -11.8548
 118   2.0000      -0.429727       -11.6935
 119   2.0000      -0.373859       -10.1732
 120   0.0000      -0.103349        -2.8123
 121   0.0000      -0.066777        -1.8171
 122   0.0000      -0.049206        -1.3390
 123   0.0000      -0.048182        -1.3111
 124   0.0000      -0.043965        -1.1963

MULLIKEN ATOMIC CHARGES
-----------------------
   0 N :   -1.324910
   1 C :    1.688050
   2 C :   -0.928837
   3 C :   -0.685921
   4 C :    1.127420
   5 C :   -1.222718
   6 C :    0.482902
   7 O :   -0.980286
   8 C :   -0.948432
   9 C :    2.300342
  10 C :    1.413819
  11 C :   -0.726529
  12 C :   -0.889241
  13 C :   -0.125175
  14 C :   -1.029768
  15 C :   -0.134788
  16 C :   -1.687326
  17 O :   -1.473935
  18 C :    0.656494
  19 O :   -0.020972
  20 C :   -1.236068
  21 C :    0.715582
  22 C :    0.457674
  23 C :    0.679168
  24 N :   -0.506498
  25 C :    1.111521
  26 C :   -1.098193
  27 C :    0.503982
  28 O :    0.179874
  29 C :   -1.090180
  30 C :   -1.139352
  31 O :   -1.327950
  32 H :    0.378400
  33 H :    0.372861
  34 H :    0.281859
  35 H :   -0.296720
  36 H :    0.378241
  37 H :    0.348379
  38 H :    0.432162
  39 H :    0.770077
  40 H :    0.379240
  41 H :    0.406841
  42 H :   -0.019647
  43 H :    0.353685
  44 H :    0.426425
  45 H :   -0.123075
  46 H :    0.185899
  47 H :    0.337142
  48 H :    0.263210
  49 H :    0.277196
  50 H :    0.494030
  51 H :    0.198128
  52 H :    0.357937
  53 H :    0.375120
  54 H :    0.592107
  55 H :    0.202089
  56 H :    0.069238
  57 H :   -0.060673
  58 H :    0.227085
  59 H :    0.788203
  60 H :    0.263894
  61 H :    0.052134
  62 N :   -0.451220
Sum of atomic charges:    1.0000000

LOEWDIN ATOMIC CHARGES
----------------------
   0 N :    0.619703
   1 C :   -0.188787
   2 C :    0.219609
   3 C :    0.228590
   4 C :   -0.374634
   5 C :    0.236289
   6 C :    0.211004
   7 O :    0.584027
   8 C :    0.359448
   9 C :   -0.156297
  10 C :   -0.105527
  11 C :    0.224847
  12 C :    0.229661
  13 C :    0.221740
  14 C :    0.228153
  15 C :    0.227099
  16 C :    0.644466
  17 O :    0.523255
  18 C :   -0.832276
  19 O :    0.590301
  20 C :    0.390734
  21 C :   -0.189801
  22 C :   -0.190612
  23 C :   -0.123515
  24 N :    0.619262
  25 C :   -0.115007
  26 C :    0.633524
  27 C :   -0.828110
  28 O :    0.582745
  29 C :    0.394132
  30 C :    0.637362
  31 O :    0.508591
  32 H :   -0.169574
  33 H :   -0.167267
  34 H :   -0.172535
  35 H :   -0.274321
  36 H :   -0.170046
  37 H :   -0.173511
  38 H :   -0.169437
  39 H :   -0.170425
  40 H :   -0.172110
  41 H :   -0.175822
  42 H :   -0.129850
  43 H :   -0.149829
  44 H :   -0.153633
  45 H :   -0.250141
  46 H :   -0.450252
  47 H :   -0.146243
  48 H :   -0.160050
  49 H :   -0.167627
  50 H :   -0.174115
  51 H :   -0.156777
  52 H :   -0.147841
  53 H :   -0.169605
  54 H :   -0.196484
  55 H :   -0.160904
  56 H :   -0.153806
  57 H :   -0.194962
  58 H :   -0.165110
  59 H :   -0.214257
  60 H :   -0.161720
  61 H :   -0.193256
  62 N :    0.501540

  Mayer bond orders larger than 0.100000
B(  0-N ,  1-C ) :   0.7800 B(  0-N ,  2-C ) :   0.3561 B(  0-N ,  3-C ) :   0.1022
B(  0-N ,  5-C ) :   0.1115 B(  0-N ,  6-C ) :  -0.9728 B(  0-N ,  9-C ) :   0.2037
B(  0-N , 10-C ) :   0.3147 B(  0-N , 16-C ) :   0.2600 B(  0-N , 18-C ) :  -0.1629
B(  0-N , 21-C ) :   0.1751 B(  0-N , 22-C ) :  -0.2653 B(  0-N , 23-C ) :   0.1515
B(  0-N , 35-H ) :   1.5374 B(  0-N , 46-H ) :   0.2292 B(  0-N , 62-N ) :   0.2281
B(  1-C ,  2-C ) :  -0.7743 B(  1-C ,  3-C ) :   0.6612 B(  1-C ,  4-C ) :  -0.2458
B(  1-C ,  5-C ) :   0.2466 B(  1-C ,  6-C ) :   0.2177 B(  1-C ,  9-C ) :   0.6023
B(  1-C , 10-C ) :  -0.3878 B(  1-C , 18-C ) :   0.1724 B(  1-C , 21-C ) :   0.1561
B(  1-C , 25-C ) :  -0.1832 B(  1-C , 35-H ) :  -0.4973 B(  1-C , 58-H ) :  -0.1806
B(  1-C , 59-H ) :   0.2970 B(  2-C ,  3-C ) :   0.8116 B(  2-C ,  4-C ) :   0.2490
B(  2-C ,  5-C ) :  -0.1330 B(  2-C ,  6-C ) :  -0.3634 B(  2-C ,  9-C ) :   0.2337
B(  2-C , 10-C ) :   0.1353 B(  2-C , 11-C ) :  -0.1716 B(  2-C , 15-C ) :   0.1126
B(  2-C , 18-C ) :  -0.1648 B(  2-C , 58-H ) :   1.1179 B(  2-C , 59-H ) :  -0.2945
B(  2-C , 61-H ) :  -0.2617 B(  3-C ,  4-C ) :   1.2676 B(  3-C ,  5-C ) :   0.3182
B(  3-C ,  6-C ) :  -0.3238 B(  3-C ,  7-O ) :  -0.3415 B(  3-C ,  8-C ) :  -0.1075
B(  3-C ,  9-C ) :  -0.2329 B(  3-C , 18-C ) :   0.1131 B(  3-C , 21-C ) :  -0.1361
B(  3-C , 46-H ) :  -0.1086 B(  3-C , 58-H ) :  -0.2152 B(  3-C , 59-H ) :  -0.1346
B(  3-C , 61-H ) :   1.4978 B(  4-C ,  5-C ) :   0.8934 B(  4-C ,  6-C ) :   0.1868
B(  4-C ,  7-O ) :   0.1931 B(  4-C , 58-H ) :   0.1645 B(  4-C , 61-H ) :  -0.1038
B(  5-C ,  6-C ) :   0.4388 B(  5-C ,  9-C ) :  -0.2495 B(  5-C , 10-C ) :   0.3224
B(  5-C , 11-C ) :  -0.1958 B(  5-C , 18-C ) :   0.1685 B(  5-C , 46-H ) :  -0.1313
B(  5-C , 58-H ) :  -0.1251 B(  5-C , 59-H ) :  -0.1785 B(  5-C , 60-H ) :   1.1271
B(  5-C , 61-H ) :   0.1293 B(  6-C ,  9-C ) :   0.5479 B(  6-C , 10-C ) :  -0.2236
B(  6-C , 11-C ) :   0.1971 B(  6-C , 14-C ) :   0.1012 B(  6-C , 18-C ) :  -0.1219
B(  6-C , 21-C ) :  -0.1218 B(  6-C , 22-C ) :  -0.1162 B(  6-C , 25-C ) :   0.2024
B(  6-C , 46-H ) :   0.1917 B(  6-C , 58-H ) :   0.1683 B(  6-C , 59-H ) :   0.3073
B(  7-O ,  8-C ) :   1.0597 B(  8-C , 32-H ) :   0.8927 B(  8-C , 36-H ) :   0.8705
B(  8-C , 37-H ) :   0.9543 B(  8-C , 61-H ) :  -0.2242 B(  9-C , 10-C ) :  -0.5181
B(  9-C , 11-C ) :   0.1879 B(  9-C , 12-C ) :   0.1096 B(  9-C , 13-C ) :   0.2590
B(  9-C , 16-C ) :  -1.2438 B(  9-C , 18-C ) :  -0.1195 B(  9-C , 21-C ) :  -0.5750
B(  9-C , 22-C ) :   0.5946 B(  9-C , 23-C ) :  -0.2149 B(  9-C , 24-N ) :  -0.1706
B(  9-C , 27-C ) :   0.4973 B(  9-C , 28-O ) :  -0.1246 B(  9-C , 31-O ) :   0.1530
B(  9-C , 35-H ) :  -0.1184 B(  9-C , 42-H ) :  -0.4839 B(  9-C , 43-H ) :  -0.3475
B(  9-C , 46-H ) :   0.2190 B(  9-C , 56-H ) :  -0.2370 B(  9-C , 57-H ) :  -0.5183
B(  9-C , 62-N ) :   0.3866 B( 10-C , 11-C ) :   0.1144 B( 10-C , 12-C ) :   0.1256
B( 10-C , 13-C ) :  -0.2668 B( 10-C , 14-C ) :   0.3187 B( 10-C , 15-C ) :   1.3308
B( 10-C , 16-C ) :   0.1934 B( 10-C , 18-C ) :   0.1926 B( 10-C , 22-C ) :  -0.1825
B( 10-C , 27-C ) :  -0.1287 B( 10-C , 34-H ) :  -0.1536 B( 10-C , 39-H ) :   0.1660
B( 10-C , 43-H ) :   0.2268 B( 10-C , 46-H ) :   0.1137 B( 10-C , 56-H ) :  -0.1252
B( 10-C , 57-H ) :   0.2657 B( 10-C , 59-H ) :  -0.1015 B( 11-C , 12-C ) :   1.2567
B( 11-C , 13-C ) :   0.2450 B( 11-C , 14-C ) :   0.1174 B( 11-C , 15-C ) :  -0.4408
B( 11-C , 56-H ) :   1.3790 B( 11-C , 59-H ) :   0.1906 B( 12-C , 13-C ) :   1.1039
B( 12-C , 14-C ) :   0.1761 B( 12-C , 15-C ) :  -0.1207 B( 12-C , 21-C ) :  -0.1112
B( 12-C , 38-H ) :   0.7670 B( 12-C , 39-H ) :  -0.1367 B( 12-C , 46-H ) :   0.1247
B( 12-C , 57-H ) :  -0.1255 B( 13-C , 14-C ) :   1.1128 B( 13-C , 15-C ) :   0.2666
B( 13-C , 39-H ) :   0.3215 B( 13-C , 57-H ) :  -0.1247 B( 14-C , 15-C ) :   0.9919
B( 14-C , 34-H ) :   1.0668 B( 14-C , 39-H ) :  -0.1110 B( 14-C , 56-H ) :  -0.1308
B( 14-C , 57-H ) :   0.1719 B( 15-C , 18-C ) :  -0.1816 B( 15-C , 21-C ) :   0.2931
B( 15-C , 22-C ) :   0.3207 B( 15-C , 23-C ) :  -0.1164 B( 15-C , 24-N ) :   0.1096
B( 15-C , 25-C ) :  -0.1147 B( 15-C , 28-O ) :  -0.1426 B( 15-C , 34-H ) :   0.1005
B( 15-C , 39-H ) :  -0.1042 B( 15-C , 56-H ) :   0.1382 B( 15-C , 57-H ) :   1.2026
B( 16-C , 21-C ) :   0.1373 B( 16-C , 27-C ) :  -0.1663 B( 16-C , 42-H ) :   1.6185
B( 16-C , 43-H ) :   1.0015 B( 16-C , 44-H ) :   0.8985 B( 16-C , 46-H ) :   0.2429
B( 16-C , 57-H ) :   0.1896 B( 17-O , 18-C ) :   0.6684 B( 17-O , 21-C ) :  -0.2848
B( 18-C , 19-O ) :   0.7292 B( 18-C , 20-C ) :  -0.1866 B( 18-C , 21-C ) :   0.1053
B( 18-C , 25-C ) :  -0.1233 B( 18-C , 46-H ) :   0.2384 B( 18-C , 59-H ) :   0.1076
B( 18-C , 62-N ) :  -0.1608 B( 19-O , 20-C ) :   0.7703 B( 19-O , 21-C ) :   0.1780
B( 19-O , 22-C ) :  -0.1734 B( 19-O , 46-H ) :  -0.1716 B( 19-O , 55-H ) :  -0.1088
B( 19-O , 62-N ) :  -0.2599 B( 20-C , 53-H ) :   0.9317 B( 20-C , 54-H ) :   0.6265
B( 20-C , 55-H ) :   1.1781 B( 21-C , 23-C ) :  -0.1646 B( 21-C , 24-N ) :   0.3795
B( 21-C , 25-C ) :   1.0555 B( 21-C , 27-C ) :  -0.1739 B( 21-C , 30-C ) :   0.3041
B( 21-C , 46-H ) :   0.8612 B( 21-C , 59-H ) :  -0.1667 B( 21-C , 61-H ) :   0.1151
B( 21-C , 62-N ) :   0.1316 B( 22-C , 23-C ) :   0.7611 B( 22-C , 27-C ) :   0.5724
B( 22-C , 31-O ) :  -0.1569 B( 22-C , 35-H ) :   0.1803 B( 22-C , 42-H ) :  -0.1339
B( 22-C , 44-H ) :  -0.1487 B( 22-C , 46-H ) :   0.6211 B( 22-C , 57-H ) :   0.1678
B( 22-C , 62-N ) :   0.8649 B( 23-C , 24-N ) :   0.5834 B( 23-C , 25-C ) :  -0.4836
B( 23-C , 26-C ) :   0.4395 B( 23-C , 27-C ) :  -0.1424 B( 23-C , 46-H ) :  -0.2105
B( 23-C , 47-H ) :  -0.1079 B( 23-C , 51-H ) :   0.1348 B( 23-C , 62-N ) :   0.3508
B( 24-N , 25-C ) :   0.1686 B( 24-N , 45-H ) :   1.4752 B( 24-N , 48-H ) :  -0.1296
B( 24-N , 51-H ) :  -0.1010 B( 24-N , 62-N ) :  -0.5623 B( 25-C , 26-C ) :  -0.1011
B( 25-C , 27-C ) :   0.1292 B( 25-C , 30-C ) :   0.2595 B( 25-C , 46-H ) :  -0.2251
B( 25-C , 48-H ) :   0.1179 B( 25-C , 52-H ) :  -0.1184 B( 25-C , 59-H ) :   0.1770
B( 25-C , 62-N ) :   0.2125 B( 26-C , 47-H ) :   0.9610 B( 26-C , 48-H ) :   0.9967
B( 26-C , 49-H ) :   1.0646 B( 27-C , 28-O ) :   0.9628 B( 27-C , 31-O ) :   1.0230
B( 27-C , 46-H ) :   0.1070 B( 27-C , 62-N ) :  -0.7227 B( 28-O , 29-C ) :   0.8386
B( 28-O , 31-O ) :  -0.1418 B( 28-O , 46-H ) :  -0.1921 B( 28-O , 62-N ) :  -0.1620
B( 29-C , 33-H ) :   0.9209 B( 29-C , 40-H ) :   0.8961 B( 29-C , 41-H ) :   0.8824
B( 30-C , 50-H ) :   0.7887 B( 30-C , 51-H ) :   1.0882 B( 30-C , 52-H ) :   0.9939
B( 35-H , 62-N ) :  -0.1586 B( 46-H , 62-N ) :  -1.4339 B( 56-H , 57-H ) :   0.2420
B( 57-H , 62-N ) :   0.2108 B( 59-H , 61-H ) :   0.2115

MP2 TOTAL ENERGY:    -1508.048594358 Eh
FINAL SINGLE POINT ENERGY     -1508.048594357659

DIPOLE MOMENT
-------------
                                X             Y             Z
Electronic contribution:     -3.77766      -0.89439       4.67835
Nuclear contribution   :      2.93215      -0.90135      -6.16655
                        -----------------------------------------
Total Dipole Moment    :     -0.84551      -1.79574      -1.48820
                        -----------------------------------------
Magnitude (a.u.)       :      2.48079
Magnitude (Debye)      :      6.30566

Rotational constants in cm-1:     0.006284     0.003628     0.002822
Rotational constants in MHz :   188.386870   108.762164    84.598043

                             ****ORCA TERMINATED NORMALLY****
TOTAL RUN TIME: 0 days 6 hours 41 minutes 56 seconds 70 msec
