                         Program Version 4.2.1 -  RELEASE  -
|  1> %pal
|  2>  nprocs 32
|  3> end
|  4> !RI-MP2 aug-cc-pVTZ aug-cc-pVTZ/C TightSCF
|  5> %maxcore 4500
|  6> *xyzfile 0 1  03_2R1.xyz
|  7>
|  8>
|  9>                          ****END OF INPUT****

CARTESIAN COORDINATES (ANGSTROEM)
---------------------------------
  C     -0.285603    0.383929   -0.658697
  C      1.048336    0.027845   -0.005033
  O      1.491756   -1.181264   -0.397078
  O      1.660603    0.737222    0.741152
  C     -1.311899   -0.707010   -0.426580
  H     -0.096088    0.400766   -1.738681
  N     -0.816255    1.660898   -0.246853
  H      2.339468   -1.340862    0.041317
  H     -0.119545    2.389925   -0.339623
  H     -1.079345    1.627333    0.732084
  H     -2.250406   -0.438793   -0.910782
  F     -1.560957   -0.807101    0.944686
  H     -0.955563   -1.676988   -0.769256

 Total Charge           Charge          ....    0
 Multiplicity           Mult            ....    1
 Number of Electrons    NEL             ....   56
 Basis Dimension        Dim             ....  460

ORBITAL ENERGIES
----------------

  NO   OCC          E(Eh)            E(eV)
   0   2.0000     -26.289377      -715.3703
   1   2.0000     -20.624698      -561.2266
   2   2.0000     -20.561126      -559.4967
   3   2.0000     -15.555652      -423.2908
   4   2.0000     -11.392631      -310.0093
   5   2.0000     -11.323413      -308.1257
   6   2.0000     -11.294236      -307.3318
   7   2.0000      -1.597926       -43.4818
   8   2.0000      -1.480838       -40.2956
   9   2.0000      -1.377519       -37.4842
  10   2.0000      -1.212306       -32.9885
  11   2.0000      -1.033996       -28.1365
  12   2.0000      -0.918576       -24.9957
  13   2.0000      -0.815647       -22.1949
  14   2.0000      -0.734539       -19.9878
  15   2.0000      -0.731433       -19.9033
  16   2.0000      -0.717241       -19.5171
  17   2.0000      -0.696603       -18.9555
  18   2.0000      -0.674165       -18.3450
  19   2.0000      -0.641201       -17.4480
  20   2.0000      -0.634581       -17.2678
  21   2.0000      -0.611208       -16.6318
  22   2.0000      -0.577029       -15.7017
  23   2.0000      -0.539672       -14.6852
  24   2.0000      -0.523568       -14.2470
  25   2.0000      -0.495586       -13.4856
  26   2.0000      -0.469010       -12.7624
  27   2.0000      -0.417848       -11.3702
  28   0.0000       0.025731         0.7002
  29   0.0000       0.035014         0.9528
  30   0.0000       0.040559         1.1037
  31   0.0000       0.042537         1.1575
  32   0.0000       0.056206         1.5294

MULLIKEN ATOMIC CHARGES
-----------------------
   0 C :    0.631787
   1 C :    0.533413
   2 O :   -0.433910
   3 O :   -0.799879
   4 C :   -0.208959
   5 H :    0.356342
   6 N :   -0.692157
   7 H :    0.240814
   8 H :    0.098223
   9 H :    0.126447
  10 H :    0.339160
  11 F :   -0.535228
  12 H :    0.343947
Sum of atomic charges:    0.0000000

LOEWDIN ATOMIC CHARGES
----------------------
   0 C :   -0.190294
   1 C :   -0.782352
   2 O :    0.840074
   3 O :    0.463402
   4 C :   -0.060061
   5 H :   -0.138602
   6 N :    0.844216
   7 H :   -0.460829
   8 H :   -0.317792
   9 H :   -0.318638
  10 H :   -0.160029
  11 F :    0.458051
  12 H :   -0.177145

  Mayer bond orders larger than 0.100000
B(  0-C ,  1-C ) :   0.6428 B(  0-C ,  4-C ) :   0.9030 B(  0-C ,  5-H ) :   0.8794
B(  0-C ,  6-N ) :   0.4611 B(  1-C ,  2-O ) :   1.0009 B(  1-C ,  3-O ) :   1.4318
B(  2-O ,  7-H ) :   0.9476 B(  4-C , 10-H ) :   0.9246 B(  4-C , 11-F ) :   0.6542
B(  4-C , 12-H ) :   0.9222 B(  6-N ,  8-H ) :   1.0043 B(  6-N ,  9-H ) :   0.9790

MP2 TOTAL ENERGY:     -422.344100505 Eh
FINAL SINGLE POINT ENERGY      -422.344100505357

DIPOLE MOMENT
-------------
                                X             Y             Z
Electronic contribution:      0.80165      -2.16873       2.97090
Nuclear contribution   :     -0.56472       1.72977      -3.84405
                        -----------------------------------------
Total Dipole Moment    :      0.23693      -0.43896      -0.87314
                        -----------------------------------------
Magnitude (a.u.)       :      1.00559
Magnitude (Debye)      :      2.55600

Rotational constants in cm-1:     0.116710     0.075063     0.058878
Rotational constants in MHz :  3498.883726  2250.325159  1765.132415

                             ****ORCA TERMINATED NORMALLY****
TOTAL RUN TIME: 0 days 0 hours 1 minutes 26 seconds 321 msec
