                         Program Version 4.2.1 -  RELEASE  -
|  1> %pal
|  2>  nprocs 32
|  3> end
|  4> !RI-MP2 aug-cc-pVTZ aug-cc-pVTZ/C TightSCF
|  5> %maxcore 4500
|  6> *xyzfile 0 2  04_28R.xyz
|  7>
|  8>
|  9>                          ****END OF INPUT****

CARTESIAN COORDINATES (ANGSTROEM)
---------------------------------
  C     -0.000741   -0.613596    0.488632
  H      0.325088   -0.299122    1.484572
  H     -0.164122   -1.695266    0.543243
  C     -1.305519    0.075525    0.110990
  H     -1.138309    1.154662    0.033144
  C     -3.737675    0.470855    0.735013
  H     -4.480641    0.360221    1.532467
  H     -1.625414   -0.268196   -0.878819
  H     -3.614366    1.549968    0.596869
  C     -2.420347   -0.192141    1.114163
  H     -2.577898   -1.269826    1.217616
  H     -2.118984    0.180111    2.099986
  C      1.125446   -0.351379   -0.505038
  C      3.110246    1.102969    0.579284
  C      3.818648   -0.144094    0.089892
  H      3.751518    1.983005    0.517820
  H      2.769499    0.986080    1.608498
  H      4.340110    0.050754   -0.846430
  H      4.531170   -0.516054    0.827565
  S      1.699458    1.384816   -0.528656
  S      2.566158   -1.445587   -0.153915
  S     -4.535746   -0.173064   -0.748428
  H      0.784078   -0.563812   -1.518160

 Total Charge           Charge          ....    0
 Multiplicity           Mult            ....    2
 Number of Electrons    NEL             ....  103
 Basis Dimension        Dim             ....  771

ORBITAL ENERGIES
----------------
                 SPIN UP ORBITALS
  NO   OCC          E(Eh)            E(eV)
   0   1.0000     -91.968120     -2502.5798
   1   1.0000     -91.955454     -2502.2351
   2   1.0000     -91.952202     -2502.1466
   3   1.0000     -11.292898      -307.2954
   4   1.0000     -11.271316      -306.7081
   5   1.0000     -11.268529      -306.6323
   6   1.0000     -11.265029      -306.5370
   7   1.0000     -11.232673      -305.6566
   8   1.0000     -11.232557      -305.6534
   9   1.0000     -11.224659      -305.4385
  10   1.0000      -8.968751      -244.0521
  11   1.0000      -8.956117      -243.7083
  12   1.0000      -8.952719      -243.6159
  13   1.0000      -6.664296      -181.3447
  14   1.0000      -6.645930      -180.8450
  15   1.0000      -6.644414      -180.8037
  16   1.0000      -6.637238      -180.6084
  17   1.0000      -6.636385      -180.5852
  18   1.0000      -6.635385      -180.5580
  19   1.0000      -6.633849      -180.5162
  20   1.0000      -6.632987      -180.4927
  21   1.0000      -6.631999      -180.4659
  22   1.0000      -1.142455       -31.0878
  23   1.0000      -1.104048       -30.0427
  24   1.0000      -1.058104       -28.7925
  25   1.0000      -0.995323       -27.0841
  26   1.0000      -0.978709       -26.6320
  27   1.0000      -0.924116       -25.1465
  28   1.0000      -0.851969       -23.1832
  29   1.0000      -0.805568       -21.9206
  30   1.0000      -0.787858       -21.4387
  31   1.0000      -0.768026       -20.8990
  32   1.0000      -0.665134       -18.0992
  33   1.0000      -0.646155       -17.5828
  34   1.0000      -0.627991       -17.0885
  35   1.0000      -0.621771       -16.9193
  36   1.0000      -0.606580       -16.5059
  37   1.0000      -0.566037       -15.4026
  38   1.0000      -0.555541       -15.1170
  39   1.0000      -0.545497       -14.8437
  40   1.0000      -0.539171       -14.6716
  41   1.0000      -0.504539       -13.7292
  42   1.0000      -0.493494       -13.4286
  43   1.0000      -0.479403       -13.0452
  44   1.0000      -0.468889       -12.7591
  45   1.0000      -0.464597       -12.6423
  46   1.0000      -0.461789       -12.5659
  47   1.0000      -0.424026       -11.5383
  48   1.0000      -0.414727       -11.2853
  49   1.0000      -0.367964       -10.0128
  50   1.0000      -0.351403        -9.5622
  51   1.0000      -0.344155        -9.3649
  52   0.0000       0.026494         0.7209
  53   0.0000       0.029851         0.8123
  54   0.0000       0.037265         1.0140
  55   0.0000       0.038219         1.0400
  56   0.0000       0.044249         1.2041

                 SPIN DOWN ORBITALS
  NO   OCC          E(Eh)            E(eV)
   0   1.0000     -91.959013     -2502.3319
   1   1.0000     -91.955454     -2502.2351
   2   1.0000     -91.952202     -2502.1466
   3   1.0000     -11.292894      -307.2953
   4   1.0000     -11.271316      -306.7081
   5   1.0000     -11.268529      -306.6323
   6   1.0000     -11.266067      -306.5653
   7   1.0000     -11.232688      -305.6570
   8   1.0000     -11.232511      -305.6522
   9   1.0000     -11.224583      -305.4364
  10   1.0000      -8.958832      -243.7822
  11   1.0000      -8.956117      -243.7083
  12   1.0000      -8.952720      -243.6159
  13   1.0000      -6.640891      -180.7078
  14   1.0000      -6.639227      -180.6626
  15   1.0000      -6.637238      -180.6084
  16   1.0000      -6.636385      -180.5852
  17   1.0000      -6.635385      -180.5580
  18   1.0000      -6.633850      -180.5162
  19   1.0000      -6.632987      -180.4928
  20   1.0000      -6.631999      -180.4659
  21   1.0000      -6.623634      -180.2382
  22   1.0000      -1.142347       -31.0848
  23   1.0000      -1.098750       -29.8985
  24   1.0000      -1.049975       -28.5713
  25   1.0000      -0.980945       -26.6929
  26   1.0000      -0.978253       -26.6196
  27   1.0000      -0.900786       -24.5116
  28   1.0000      -0.832820       -22.6622
  29   1.0000      -0.801529       -21.8107
  30   1.0000      -0.769557       -20.9407
  31   1.0000      -0.763243       -20.7689
  32   1.0000      -0.664137       -18.0721
  33   1.0000      -0.643488       -17.5102
  34   1.0000      -0.624422       -16.9914
  35   1.0000      -0.613032       -16.6814
  36   1.0000      -0.604376       -16.4459
  37   1.0000      -0.563233       -15.3264
  38   1.0000      -0.553781       -15.0691
  39   1.0000      -0.542277       -14.7561
  40   1.0000      -0.535971       -14.5845
  41   1.0000      -0.500568       -13.6212
  42   1.0000      -0.489936       -13.3318
  43   1.0000      -0.479086       -13.0366
  44   1.0000      -0.467487       -12.7210
  45   1.0000      -0.461471       -12.5573
  46   1.0000      -0.454862       -12.3774
  47   1.0000      -0.414794       -11.2871
  48   1.0000      -0.351744        -9.5714
  49   1.0000      -0.349213        -9.5026
  50   1.0000      -0.343555        -9.3486
  51   0.0000       0.021014         0.5718
  52   0.0000       0.026666         0.7256
  53   0.0000       0.030408         0.8274
  54   0.0000       0.037679         1.0253
  55   0.0000       0.038748         1.0544

MULLIKEN ATOMIC CHARGES AND SPIN POPULATIONS
--------------------------------------------
   0 C :   -0.488452   -0.001854
   1 H :    0.322763    0.000299
   2 H :    0.275600   -0.000468
   3 C :   -0.397091   -0.003835
   4 H :    0.301494   -0.000993
   5 C :   -0.363445   -0.133246
   6 H :    0.270171    0.033196
   7 H :    0.271248   -0.010517
   8 H :    0.218036    0.014096
   9 C :   -0.519168    0.008791
  10 H :    0.295023   -0.003232
  11 H :    0.234312    0.000243
  12 C :    0.289777   -0.002172
  13 C :   -0.390457    0.000007
  14 C :   -0.461338    0.000006
  15 H :    0.345179   -0.000010
  16 H :    0.211234   -0.000026
  17 H :    0.239804   -0.000002
  18 H :    0.287740   -0.000004
  19 S :   -0.480804   -0.000362
  20 S :   -0.441519   -0.000108
  21 S :   -0.296821    1.100174
  22 H :    0.276715    0.000018
Sum of atomic charges         :    0.0000000

LOEWDIN ATOMIC CHARGES AND SPIN POPULATIONS
-------------------------------------------
   0 C :    0.123435    0.000389
   1 H :   -0.163917    0.000133
   2 H :   -0.163183   -0.000022
   3 C :    0.213059    0.005829
   4 H :   -0.169711    0.000124
   5 C :   -0.236359    0.145362
   6 H :   -0.238455    0.022219
   7 H :   -0.169770    0.007113
   8 H :   -0.236451    0.011852
   9 C :    0.177300    0.003188
  10 H :   -0.159105   -0.000049
  11 H :   -0.145661   -0.000494
  12 C :   -0.670108    0.000044
  13 C :   -0.141071    0.000004
  14 C :   -0.142783   -0.000001
  15 H :   -0.222499    0.000000
  16 H :   -0.220838    0.000004
  17 H :   -0.230730   -0.000001
  18 H :   -0.226866   -0.000000
  19 S :    1.204334   -0.000006
  20 S :    1.192249   -0.000013
  21 S :    0.910615    0.804303
  22 H :   -0.283487    0.000020

  Mayer bond orders larger than 0.100000
B(  0-C ,  1-H ) :   0.9458 B(  0-C ,  2-H ) :   0.9266 B(  0-C ,  3-C ) :   0.8943
B(  0-C , 12-C ) :   1.0241 B(  0-C , 19-S ) :   0.1370 B(  3-C ,  4-H ) :   0.9654
B(  3-C ,  7-H ) :   0.9850 B(  3-C ,  9-C ) :   0.9062 B(  5-C ,  6-H ) :   0.9585
B(  5-C ,  8-H ) :   0.9786 B(  5-C ,  9-C ) :   0.9885 B(  5-C , 21-S ) :   0.8520
B(  9-C , 10-H ) :   0.9391 B(  9-C , 11-H ) :   0.9627 B( 12-C , 19-S ) :   0.8121
B( 12-C , 20-S ) :   0.8571 B( 12-C , 22-H ) :   0.9377 B( 13-C , 14-C ) :   1.0006
B( 13-C , 15-H ) :   0.8769 B( 13-C , 16-H ) :   0.9565 B( 13-C , 19-S ) :   0.9847
B( 14-C , 17-H ) :   0.9583 B( 14-C , 18-H ) :   0.9179 B( 14-C , 20-S ) :   0.9818
B( 19-S , 20-S ) :   0.1022

MP2 TOTAL ENERGY:    -1467.093272113 Eh
FINAL SINGLE POINT ENERGY     -1467.093272113106

DIPOLE MOMENT
-------------
                                X             Y             Z
Electronic contribution:     -0.21892      -1.24836      -6.34709
Nuclear contribution   :      0.79039       1.66043       7.26555
                        -----------------------------------------
Total Dipole Moment    :      0.57147       0.41207       0.91846
                        -----------------------------------------
Magnitude (a.u.)       :      1.15756
Magnitude (Debye)      :      2.94229

Rotational constants in cm-1:     0.068766     0.009818     0.009328
Rotational constants in MHz :  2061.551361   294.346673   279.656688

                             ****ORCA TERMINATED NORMALLY****
TOTAL RUN TIME: 0 days 0 hours 24 minutes 1 seconds 998 msec
