                         Program Version 4.2.1 -  RELEASE  -
|  1> %pal
|  2>  nprocs 32
|  3> end
|  4> !RI-MP2 aug-cc-pVTZ aug-cc-pVTZ/C TightSCF
|  5> %maxcore 4500
|  6> *xyzfile -1 1  05_17TS.xyz
|  7>
|  8>
|  9>                          ****END OF INPUT****

CARTESIAN COORDINATES (ANGSTROEM)
---------------------------------
  N      2.714883    2.722776    0.357931
  C      3.906123    3.108973   -0.171150
  N      4.840782    2.100149   -0.453271
  C      4.681867    0.740243   -0.261896
  C      3.420669    0.399118    0.351707
  C      2.499424    1.439428    0.579116
  N      1.262119    1.088106    1.106117
  N      3.157286   -0.925291    0.582184
  C      1.971927   -1.214060    1.209235
  C      0.996419   -0.219620    1.461629
  C     -0.217473   -0.593581    2.040848
  C      1.677198   -2.554136    1.496768
  C      0.458594   -2.914159    2.029274
  C     -0.489504   -1.927095    2.289163
  H     -1.458234   -2.200468    2.688983
  H     -0.981204    0.145748    2.222812
  H      2.443305   -3.288138    1.280585
  H      0.231995   -3.954425    2.226544
  O      4.211273    4.266664   -0.417387
  O      5.539655   -0.056709   -0.626209
  C      3.658298   -2.624751   -2.362280
  C      2.527826   -1.813727   -1.766953
  H      4.618050   -2.147964   -2.158531
  H      3.541610   -2.725363   -3.446354
  H      3.678752   -3.631035   -1.935216
  C      1.261840   -2.402466   -1.552606
  H      2.501483   -0.769369   -2.095494
  C      0.117469   -1.667561   -1.258010
  H      1.196354   -3.487957   -1.517193
  C     -1.115760   -2.176874   -0.900510
  H      0.195761   -0.583766   -1.292719
  C     -2.165457   -1.308299   -0.514624
  H     -1.288256   -3.245724   -0.862065
  O     -2.144080   -0.084921   -0.447223
  S     -3.701756   -2.191856   -0.030795
  C     -4.732393   -0.752655    0.342897
  C     -5.258984   -0.063215   -0.913406
  H     -4.133445   -0.054060    0.926157
  H     -5.555620   -1.108712    0.964976
  N     -6.038157    1.125131   -0.615350
  H     -5.883668   -0.754638   -1.482552
  H     -4.418758    0.206878   -1.549101
  C     -5.568777    2.394890   -0.441025
  O     -6.306698    3.277739   -0.033763
  C     -4.129770    2.653681   -0.813744
  H     -4.025839    2.642659   -1.902039
  H     -3.443395    1.902254   -0.421156
  H     -3.860751    3.641941   -0.449387
  H     -6.993987    1.008140   -0.311768
  H      2.992389   -1.524124   -0.576576
  H      5.701845    2.400566   -0.886358
  C      0.218902    2.091488    1.250240
  H      0.596729    3.017631    0.830718
  H     -0.020982    2.247660    2.305529
  H     -0.676252    1.759949    0.718257

 Total Charge           Charge          ....   -1
 Multiplicity           Mult            ....    1
 Number of Electrons    NEL             ....  234
 Basis Dimension        Dim             .... 1982

ORBITAL ENERGIES
----------------

  NO   OCC          E(Eh)            E(eV)
   0   2.0000     -91.874774     -2500.0397
   1   2.0000     -20.439725      -556.1932
   2   2.0000     -20.437709      -556.1383
   3   2.0000     -20.406184      -555.2805
   4   2.0000     -20.390406      -554.8512
   5   2.0000     -15.519358      -422.3032
   6   2.0000     -15.509527      -422.0357
   7   2.0000     -15.507597      -421.9832
   8   2.0000     -15.483751      -421.3343
   9   2.0000     -15.418411      -419.5563
  10   2.0000     -11.272515      -306.7407
  11   2.0000     -11.255105      -306.2670
  12   2.0000     -11.253716      -306.2292
  13   2.0000     -11.241840      -305.9060
  14   2.0000     -11.235676      -305.7383
  15   2.0000     -11.210356      -305.0493
  16   2.0000     -11.199044      -304.7415
  17   2.0000     -11.186209      -304.3922
  18   2.0000     -11.184560      -304.3474
  19   2.0000     -11.163248      -303.7674
  20   2.0000     -11.162420      -303.7449
  21   2.0000     -11.161041      -303.7074
  22   2.0000     -11.159273      -303.6593
  23   2.0000     -11.155103      -303.5458
  24   2.0000     -11.149561      -303.3950
  25   2.0000     -11.148688      -303.3712
  26   2.0000     -11.146060      -303.2997
  27   2.0000     -11.143436      -303.2283
  28   2.0000     -11.135788      -303.0202
  29   2.0000     -11.134605      -302.9880
  30   2.0000     -11.116314      -302.4903
  31   2.0000      -8.875794      -241.5226
  32   2.0000      -6.556983      -178.4246
  33   2.0000      -6.556010      -178.3981
  34   2.0000      -6.555324      -178.3794
  35   2.0000      -1.304089       -35.4861
  36   2.0000      -1.285240       -34.9732
  37   2.0000      -1.284010       -34.9397
  38   2.0000      -1.256726       -34.1973
  39   2.0000      -1.232560       -33.5397
  40   2.0000      -1.158432       -31.5225
  41   2.0000      -1.156333       -31.4654
  42   2.0000      -1.135442       -30.8969
  43   2.0000      -1.083462       -29.4825
  44   2.0000      -1.053607       -28.6701
  45   2.0000      -1.017196       -27.6793
  46   2.0000      -0.993736       -27.0409
  47   2.0000      -0.957358       -26.0510
  48   2.0000      -0.943107       -25.6632
  49   2.0000      -0.937398       -25.5079
  50   2.0000      -0.924172       -25.1480
  51   2.0000      -0.898862       -24.4593
  52   2.0000      -0.890524       -24.2324
  53   2.0000      -0.851368       -23.1669
  54   2.0000      -0.838832       -22.8258
  55   2.0000      -0.797356       -21.6972
  56   2.0000      -0.784987       -21.3606
  57   2.0000      -0.744374       -20.2555
  58   2.0000      -0.736539       -20.0422
  59   2.0000      -0.727126       -19.7861
  60   2.0000      -0.707585       -19.2544
  61   2.0000      -0.705992       -19.2110
  62   2.0000      -0.678469       -18.4621
  63   2.0000      -0.657608       -17.8944
  64   2.0000      -0.633712       -17.2442
  65   2.0000      -0.628473       -17.1016
  66   2.0000      -0.612876       -16.6772
  67   2.0000      -0.611146       -16.6301
  68   2.0000      -0.593623       -16.1533
  69   2.0000      -0.585324       -15.9275
  70   2.0000      -0.576711       -15.6931
  71   2.0000      -0.567652       -15.4466
  72   2.0000      -0.560607       -15.2549
  73   2.0000      -0.556568       -15.1450
  74   2.0000      -0.547512       -14.8986
  75   2.0000      -0.542350       -14.7581
  76   2.0000      -0.536132       -14.5889
  77   2.0000      -0.535557       -14.5732
  78   2.0000      -0.523301       -14.2397
  79   2.0000      -0.513351       -13.9690
  80   2.0000      -0.509792       -13.8721
  81   2.0000      -0.502693       -13.6790
  82   2.0000      -0.500337       -13.6149
  83   2.0000      -0.495875       -13.4935
  84   2.0000      -0.492975       -13.4145
  85   2.0000      -0.491102       -13.3636
  86   2.0000      -0.482769       -13.1368
  87   2.0000      -0.475274       -12.9329
  88   2.0000      -0.473712       -12.8904
  89   2.0000      -0.463959       -12.6250
  90   2.0000      -0.461372       -12.5546
  91   2.0000      -0.447565       -12.1789
  92   2.0000      -0.440328       -11.9819
  93   2.0000      -0.438104       -11.9214
  94   2.0000      -0.433197       -11.7879
  95   2.0000      -0.432773       -11.7763
  96   2.0000      -0.430760       -11.7216
  97   2.0000      -0.425909       -11.5896
  98   2.0000      -0.413947       -11.2641
  99   2.0000      -0.410785       -11.1780
 100   2.0000      -0.398889       -10.8543
 101   2.0000      -0.396354       -10.7853
 102   2.0000      -0.374388       -10.1876
 103   2.0000      -0.345882        -9.4119
 104   2.0000      -0.342500        -9.3199
 105   2.0000      -0.331233        -9.0133
 106   2.0000      -0.320060        -8.7093
 107   2.0000      -0.318225        -8.6594
 108   2.0000      -0.311508        -8.4766
 109   2.0000      -0.305726        -8.3192
 110   2.0000      -0.304533        -8.2868
 111   2.0000      -0.298991        -8.1359
 112   2.0000      -0.281528        -7.6608
 113   2.0000      -0.249657        -6.7935
 114   2.0000      -0.236939        -6.4474
 115   2.0000      -0.210696        -5.7333
 116   2.0000      -0.128153        -3.4872
 117   0.0000       0.079428         2.1613
 118   0.0000       0.085508         2.3268
 119   0.0000       0.088761         2.4153
 120   0.0000       0.095288         2.5929
 121   0.0000       0.097812         2.6616

MULLIKEN ATOMIC CHARGES
-----------------------
   0 N :   -0.551028
   1 C :   -0.192914
   2 N :    0.211314
   3 C :   -0.432932
   4 C :    1.631304
   5 C :    0.329604
   6 N :   -0.027138
   7 N :   -1.402414
   8 C :    2.093136
   9 C :    1.092761
  10 C :   -0.914101
  11 C :   -0.957354
  12 C :   -0.479892
  13 C :   -0.385999
  14 H :    0.173165
  15 H :    0.430373
  16 H :    0.586580
  17 H :    0.597331
  18 O :   -0.941599
  19 O :   -1.046421
  20 C :   -1.188768
  21 C :    0.287853
  22 H :    0.398701
  23 H :    0.261014
  24 H :    0.256066
  25 C :   -0.723441
  26 H :    0.485031
  27 C :    0.444718
  28 H :    0.083539
  29 C :   -0.771618
  30 H :    0.007475
  31 C :    1.699256
  32 H :   -0.094074
  33 O :   -0.998605
  34 S :   -0.741313
  35 C :   -0.392097
  36 C :   -0.273047
  37 H :    0.199589
  38 H :    0.339404
  39 N :   -0.145795
  40 H :    0.408170
  41 H :    0.242461
  42 C :    0.284630
  43 O :   -0.964551
  44 C :   -0.674097
  45 H :    0.319257
  46 H :    0.605949
  47 H :    0.127342
  48 H :    0.087432
  49 H :   -0.306199
  50 H :    0.111035
  51 C :   -1.523922
  52 H :    0.286821
  53 H :    0.284383
  54 H :    0.763624
Sum of atomic charges:   -1.0000000

LOEWDIN ATOMIC CHARGES
----------------------
   0 N :    0.376658
   1 C :   -0.911675
   2 N :    0.527526
   3 C :   -0.708671
   4 C :   -0.227158
   5 C :   -0.399321
   6 N :    0.294174
   7 N :    0.489192
   8 C :   -0.232624
   9 C :   -0.169288
  10 C :    0.213895
  11 C :    0.217487
  12 C :    0.191983
  13 C :    0.182810
  14 H :   -0.173619
  15 H :   -0.200233
  16 H :   -0.154925
  17 H :   -0.182129
  18 O :    0.368454
  19 O :    0.417854
  20 C :    0.603001
  21 C :    0.179983
  22 H :   -0.178030
  23 H :   -0.165798
  24 H :   -0.167424
  25 C :    0.224197
  26 H :   -0.127738
  27 C :    0.152705
  28 H :   -0.169946
  29 C :    0.059376
  30 H :   -0.171759
  31 C :   -0.960393
  32 H :   -0.229703
  33 O :    0.416896
  34 S :    1.199702
  35 C :   -0.097003
  36 C :    0.107302
  37 H :   -0.244166
  38 H :   -0.225310
  39 N :    0.548889
  40 H :   -0.153599
  41 H :   -0.200368
  42 C :   -0.682732
  43 O :    0.414510
  44 C :    0.588344
  45 H :   -0.157486
  46 H :   -0.239001
  47 H :   -0.179270
  48 H :   -0.287092
  49 H :   -0.450355
  50 H :   -0.290296
  51 C :    0.508040
  52 H :   -0.219034
  53 H :   -0.146846
  54 H :   -0.179987

  Mayer bond orders larger than 0.100000
B(  0-N ,  1-C ) :   1.3048 B(  0-N ,  3-C ) :   0.1546 B(  0-N ,  4-C ) :  -0.3274
B(  0-N ,  5-C ) :  -0.1417 B(  0-N ,  9-C ) :   0.1576 B(  0-N , 18-O ) :  -0.3192
B(  0-N , 51-C ) :  -0.1535 B(  1-C ,  2-N ) :   1.0352 B(  1-C ,  3-C ) :  -0.1833
B(  1-C ,  4-C ) :  -0.5832 B(  1-C ,  5-C ) :  -0.2384 B(  1-C ,  8-C ) :   0.1421
B(  1-C ,  9-C ) :  -0.1154 B(  1-C , 18-O ) :   1.4816 B(  2-N ,  3-C ) :   1.1116
B(  2-N ,  4-C ) :  -0.5590 B(  2-N ,  5-C ) :   0.1149 B(  2-N , 18-O ) :  -0.1904
B(  2-N , 19-O ) :  -0.2374 B(  2-N , 50-H ) :   1.0451 B(  3-C ,  4-C ) :  -1.2447
B(  3-C ,  5-C ) :   0.9793 B(  3-C ,  6-N ) :  -0.1135 B(  3-C ,  7-N ) :   0.1936
B(  3-C ,  8-C ) :  -0.5396 B(  3-C ,  9-C ) :   0.5124 B(  3-C , 11-C ) :  -0.2100
B(  3-C , 19-O ) :   0.7146 B(  3-C , 21-C ) :   0.1055 B(  3-C , 49-H ) :   0.1462
B(  4-C ,  5-C ) :   0.3209 B(  4-C ,  6-N ) :   0.4665 B(  4-C ,  7-N ) :   0.1149
B(  4-C ,  8-C ) :   0.6114 B(  4-C ,  9-C ) :  -0.3155 B(  4-C , 11-C ) :   0.3564
B(  4-C , 13-C ) :   0.1036 B(  4-C , 19-O ) :   0.2528 B(  4-C , 27-C ) :   0.1098
B(  4-C , 49-H ) :   0.1161 B(  5-C ,  6-N ) :   0.2271 B(  5-C ,  7-N ) :   0.5331
B(  5-C ,  8-C ) :  -0.6792 B(  5-C ,  9-C ) :  -0.4510 B(  5-C , 10-C ) :   0.1405
B(  5-C , 15-H ) :   0.1590 B(  5-C , 19-O ) :   0.1223 B(  5-C , 49-H ) :   0.1146
B(  6-N ,  7-N ) :  -0.2399 B(  6-N ,  8-C ) :  -0.3758 B(  6-N ,  9-C ) :   0.1527
B(  6-N , 10-C ) :  -0.8166 B(  6-N , 15-H ) :   0.2926 B(  6-N , 49-H ) :  -0.2257
B(  6-N , 51-C ) :   1.5628 B(  7-N ,  8-C ) :  -1.8483 B(  7-N ,  9-C ) :   0.3709
B(  7-N , 11-C ) :   0.4207 B(  7-N , 12-C ) :   0.1175 B(  7-N , 16-H ) :  -0.1334
B(  7-N , 25-C ) :   0.1473 B(  7-N , 49-H ) :   1.1866 B(  8-C ,  9-C ) :   0.2335
B(  8-C , 10-C ) :   0.1957 B(  8-C , 11-C ) :   0.7093 B(  8-C , 12-C ) :   0.2944
B(  8-C , 13-C ) :   0.2346 B(  8-C , 14-H ) :   0.1187 B(  8-C , 16-H ) :   0.1584
B(  8-C , 49-H ) :  -0.1112 B(  9-C , 10-C ) :   0.5183 B(  9-C , 13-C ) :  -0.3352
B(  9-C , 14-H ) :   0.2083 B(  9-C , 15-H ) :  -0.7556 B(  9-C , 19-O ) :  -0.1067
B(  9-C , 33-O ) :  -0.1219 B(  9-C , 49-H ) :   0.2142 B(  9-C , 51-C ) :  -0.3026
B(  9-C , 54-H ) :   0.1310 B( 10-C , 11-C ) :  -0.1169 B( 10-C , 12-C ) :   0.4127
B( 10-C , 13-C ) :   0.9769 B( 10-C , 14-H ) :  -0.2368 B( 10-C , 15-H ) :   0.7466
B( 10-C , 51-C ) :  -0.1386 B( 11-C , 12-C ) :   1.2826 B( 11-C , 14-H ) :   0.1659
B( 11-C , 15-H ) :   0.1185 B( 11-C , 16-H ) :   0.5401 B( 11-C , 49-H ) :   0.1952
B( 12-C , 13-C ) :   1.0011 B( 12-C , 14-H ) :  -0.1390 B( 12-C , 15-H ) :  -0.2216
B( 12-C , 17-H ) :   0.4537 B( 13-C , 14-H ) :   1.1904 B( 13-C , 15-H ) :   0.1338
B( 15-H , 29-C ) :   0.1023 B( 20-C , 21-C ) :   0.5275 B( 20-C , 22-H ) :   0.8795
B( 20-C , 23-H ) :   1.0295 B( 20-C , 24-H ) :   1.1184 B( 21-C , 24-H ) :  -0.1401
B( 21-C , 25-C ) :   0.9453 B( 21-C , 26-H ) :   0.8021 B( 21-C , 29-C ) :   0.1157
B( 21-C , 49-H ) :   0.4522 B( 25-C , 26-H ) :  -0.2085 B( 25-C , 27-C ) :   0.5239
B( 25-C , 28-H ) :   1.3504 B( 25-C , 29-C ) :   0.1265 B( 25-C , 31-C ) :   0.1917
B( 26-H , 49-H ) :  -0.1036 B( 27-C , 28-H ) :  -0.1546 B( 27-C , 29-C ) :   0.3578
B( 27-C , 30-H ) :   1.4726 B( 27-C , 31-C ) :   0.3039 B( 27-C , 32-H ) :  -0.1327
B( 27-C , 33-O ) :  -0.1314 B( 27-C , 34-S ) :  -0.1263 B( 29-C , 31-C ) :   0.7310
B( 29-C , 32-H ) :   1.7158 B( 29-C , 33-O ) :  -0.2000 B( 29-C , 34-S ) :   0.6109
B( 31-C , 32-H ) :  -0.3693 B( 31-C , 33-O ) :   1.3057 B( 31-C , 34-S ) :  -0.1092
B( 31-C , 35-C ) :  -0.1700 B( 32-H , 33-O ) :   0.1035 B( 33-O , 34-S ) :   0.3031
B( 34-S , 35-C ) :   0.8769 B( 34-S , 37-H ) :   0.1544 B( 35-C , 36-C ) :   0.9422
B( 35-C , 37-H ) :   1.0039 B( 35-C , 38-H ) :   0.8507 B( 36-C , 39-N ) :   0.8032
B( 36-C , 40-H ) :   0.8306 B( 36-C , 41-H ) :   1.0658 B( 36-C , 42-C ) :  -0.1997
B( 39-N , 42-C ) :   1.1259 B( 39-N , 48-H ) :   1.0381 B( 42-C , 43-O ) :   1.1160
B( 42-C , 44-C ) :   0.5811 B( 43-O , 47-H ) :   0.1050 B( 44-C , 45-H ) :   0.9154
B( 44-C , 46-H ) :   0.6597 B( 44-C , 47-H ) :   1.0852 B( 51-C , 52-H ) :   0.9936
B( 51-C , 53-H ) :   0.9896 B( 51-C , 54-H ) :   0.4570

MP2 TOTAL ENERGY:    -1784.630752323 Eh
FINAL SINGLE POINT ENERGY     -1784.630752322739

DIPOLE MOMENT
-------------
                                X             Y             Z
Electronic contribution:     11.82801       6.46777       7.05388
Nuclear contribution   :    -14.70709     -10.16773      -6.66432
                        -----------------------------------------
Total Dipole Moment    :     -2.87908      -3.69996       0.38956
                        -----------------------------------------
Magnitude (a.u.)       :      4.70431
Magnitude (Debye)      :     11.95741

Rotational constants in cm-1:     0.006939     0.002738     0.002255
Rotational constants in MHz :   208.011987    82.087503    67.612938

                             ****ORCA TERMINATED NORMALLY****
TOTAL RUN TIME: 0 days 3 hours 43 minutes 58 seconds 782 msec
