                         Program Version 4.2.1 -  RELEASE  -
|  1> %pal
|  2>  nprocs 32
|  3> end
|  4> !RI-MP2 aug-cc-pVTZ aug-cc-pVTZ/C TightSCF
|  5> %maxcore 4500
|  6> *xyzfile 1 1  05_35TS.xyz
|  7>
|  8>
|  9>                          ****END OF INPUT****

CARTESIAN COORDINATES (ANGSTROEM)
---------------------------------
  C      2.957383    0.999820   -0.757541
  C      1.881306    0.398584    1.586807
  C      0.821031    1.460400    1.282395
  C      1.343988    2.604937    0.417246
  C      1.860322    2.055469   -0.909415
  H     -0.024298    0.996620    0.772290
  H      0.453599    1.851327    2.233417
  H      2.161357    3.104510    0.940959
  H      1.016024    1.630287   -1.451230
  H      2.259369    2.869303   -1.518362
  N      2.558345    0.019256    0.305712
  O      3.139457   -1.101754    0.271547
  C      3.122385    0.252426   -2.079400
  H      3.361997    0.979797   -2.855180
  H      3.932578   -0.473704   -2.034977
  H      2.201692   -0.248837   -2.375969
  C      4.312781    1.617708   -0.378113
  H      5.035643    0.836025   -0.142066
  H      4.689498    2.184123   -1.230924
  H      4.248304    2.297599    0.468266
  C      1.224060   -0.833944    2.197072
  H      1.956872   -1.600919    2.442586
  H      0.723167   -0.533883    3.117763
  H      0.479180   -1.253741    1.524942
  C      2.949475    0.906736    2.572653
  H      2.486261    1.039653    3.551023
  H      3.751186    0.174333    2.672452
  H      3.385464    1.858566    2.279616
  C      1.667411   -2.805006   -0.967822
  H      2.257922   -2.860624   -1.891116
  H      2.429415   -1.996055   -0.344079
  O      1.641913   -3.953079   -0.242297
  C      2.846194   -4.714485   -0.263757
  H      3.661182   -4.156628    0.204348
  H      2.650178   -5.619324    0.304841
  C      0.439321   -2.069226   -1.038357
  H      0.411525   -1.219697   -1.707089
  C     -0.661443   -2.426656   -0.316013
  H     -0.579906   -3.344341    0.259569
  H      3.115241   -4.977393   -1.290213
  C     -1.921539   -1.758607   -0.259179
  C     -2.992681   -2.391386    0.392734
  C     -2.142332   -0.476540   -0.806016
  C     -4.235468   -1.801511    0.482764
  H     -2.840251   -3.372572    0.827625
  C     -3.364637    0.128032   -0.709105
  H     -1.342293    0.074713   -1.279548
  C     -4.429377   -0.531410   -0.072530
  H     -5.040255   -2.320446    0.982266
  H     -3.520752    1.122363   -1.103946
  N      0.337865    3.643277    0.216698
  H      0.520181    4.550858    0.611096
  C     -0.829308    3.469934   -0.458585
  C     -1.731036    4.674197   -0.541848
  H     -1.928394    4.888041   -1.592488
  H     -2.683982    4.426793   -0.072626
  H     -1.320142    5.564297   -0.065892
  O     -1.135326    2.403084   -0.968280
  O     -5.583941    0.136847   -0.034560
  C     -6.721354   -0.461061    0.578265
  H     -6.537867   -0.651260    1.638129
  H     -7.526017    0.260649    0.471741
  H     -6.992863   -1.389406    0.071090

 Total Charge           Charge          ....    1
 Multiplicity           Mult            ....    1
 Number of Electrons    NEL             ....  212
 Basis Dimension        Dim             .... 2093

ORBITAL ENERGIES
----------------

  NO   OCC          E(Eh)            E(eV)
   0   2.0000     -20.798574      -565.9580
   1   2.0000     -20.695514      -563.1536
   2   2.0000     -20.680401      -562.7423
   3   2.0000     -20.612377      -560.8913
   4   2.0000     -15.818260      -430.4367
   5   2.0000     -15.687770      -426.8859
   6   2.0000     -11.448158      -311.5202
   7   2.0000     -11.432294      -311.0885
   8   2.0000     -11.408811      -310.4495
   9   2.0000     -11.407809      -310.4223
  10   2.0000     -11.406438      -310.3850
  11   2.0000     -11.385885      -309.8257
  12   2.0000     -11.382548      -309.7349
  13   2.0000     -11.376967      -309.5830
  14   2.0000     -11.365461      -309.2699
  15   2.0000     -11.347566      -308.7830
  16   2.0000     -11.345023      -308.7138
  17   2.0000     -11.336643      -308.4857
  18   2.0000     -11.336172      -308.4729
  19   2.0000     -11.336023      -308.4689
  20   2.0000     -11.334969      -308.4402
  21   2.0000     -11.334352      -308.4234
  22   2.0000     -11.334006      -308.4140
  23   2.0000     -11.333665      -308.4047
  24   2.0000     -11.324926      -308.1669
  25   2.0000     -11.322643      -308.1048
  26   2.0000     -11.322297      -308.0954
  27   2.0000     -11.314512      -307.8835
  28   2.0000      -1.640540       -44.6414
  29   2.0000      -1.523479       -41.4560
  30   2.0000      -1.512751       -41.1641
  31   2.0000      -1.481961       -40.3262
  32   2.0000      -1.343096       -36.5475
  33   2.0000      -1.300692       -35.3936
  34   2.0000      -1.262678       -34.3592
  35   2.0000      -1.228805       -33.4375
  36   2.0000      -1.205418       -32.8011
  37   2.0000      -1.164367       -31.6840
  38   2.0000      -1.136466       -30.9248
  39   2.0000      -1.122537       -30.5458
  40   2.0000      -1.112423       -30.2706
  41   2.0000      -1.084906       -29.5218
  42   2.0000      -1.069858       -29.1123
  43   2.0000      -1.065039       -28.9812
  44   2.0000      -1.051900       -28.6236
  45   2.0000      -1.050745       -28.5922
  46   2.0000      -1.037508       -28.2320
  47   2.0000      -1.004727       -27.3400
  48   2.0000      -0.966884       -26.3102
  49   2.0000      -0.947273       -25.7766
  50   2.0000      -0.935554       -25.4577
  51   2.0000      -0.924610       -25.1599
  52   2.0000      -0.897525       -24.4229
  53   2.0000      -0.868901       -23.6440
  54   2.0000      -0.864327       -23.5195
  55   2.0000      -0.830599       -22.6017
  56   2.0000      -0.820295       -22.3214
  57   2.0000      -0.809719       -22.0336
  58   2.0000      -0.809628       -22.0311
  59   2.0000      -0.803521       -21.8649
  60   2.0000      -0.791571       -21.5398
  61   2.0000      -0.788795       -21.4642
  62   2.0000      -0.762083       -20.7373
  63   2.0000      -0.754316       -20.5260
  64   2.0000      -0.753379       -20.5005
  65   2.0000      -0.744922       -20.2704
  66   2.0000      -0.743892       -20.2423
  67   2.0000      -0.734467       -19.9859
  68   2.0000      -0.731780       -19.9127
  69   2.0000      -0.715961       -19.4823
  70   2.0000      -0.709233       -19.2992
  71   2.0000      -0.705123       -19.1874
  72   2.0000      -0.704274       -19.1643
  73   2.0000      -0.692791       -18.8518
  74   2.0000      -0.687223       -18.7003
  75   2.0000      -0.683602       -18.6017
  76   2.0000      -0.682339       -18.5674
  77   2.0000      -0.677867       -18.4457
  78   2.0000      -0.675042       -18.3688
  79   2.0000      -0.663770       -18.0621
  80   2.0000      -0.658873       -17.9288
  81   2.0000      -0.655579       -17.8392
  82   2.0000      -0.647970       -17.6322
  83   2.0000      -0.645718       -17.5709
  84   2.0000      -0.644729       -17.5440
  85   2.0000      -0.643240       -17.5035
  86   2.0000      -0.633034       -17.2257
  87   2.0000      -0.626068       -17.0362
  88   2.0000      -0.623784       -16.9740
  89   2.0000      -0.620103       -16.8739
  90   2.0000      -0.611962       -16.6523
  91   2.0000      -0.610614       -16.6156
  92   2.0000      -0.605017       -16.4634
  93   2.0000      -0.599023       -16.3002
  94   2.0000      -0.594681       -16.1821
  95   2.0000      -0.590736       -16.0747
  96   2.0000      -0.579391       -15.7660
  97   2.0000      -0.574898       -15.6438
  98   2.0000      -0.573179       -15.5970
  99   2.0000      -0.570303       -15.5187
 100   2.0000      -0.518481       -14.1086
 101   2.0000      -0.511123       -13.9084
 102   2.0000      -0.495083       -13.4719
 103   2.0000      -0.460143       -12.5211
 104   2.0000      -0.440435       -11.9849
 105   2.0000      -0.374962       -10.2032
 106   0.0000      -0.141501        -3.8504
 107   0.0000      -0.052669        -1.4332
 108   0.0000      -0.045925        -1.2497
 109   0.0000      -0.043451        -1.1824
 110   0.0000      -0.039622        -1.0782

MULLIKEN ATOMIC CHARGES
-----------------------
   0 C :    1.736712
   1 C :    1.939595
   2 C :   -1.002063
   3 C :    0.749197
   4 C :   -0.794337
   5 H :    0.768125
   6 H :    0.225537
   7 H :    0.198703
   8 H :    0.510942
   9 H :    0.367082
  10 N :    2.259743
  11 O :   -1.448293
  12 C :   -1.685155
  13 H :    0.004994
  14 H :    0.166671
  15 H :    0.419972
  16 C :   -1.716105
  17 H :    0.178598
  18 H :    0.133862
  19 H :    0.318768
  20 C :   -1.951643
  21 H :    0.182743
  22 H :   -0.037257
  23 H :    0.802596
  24 C :   -1.757165
  25 H :    0.135687
  26 H :    0.168190
  27 H :    0.333650
  28 C :    0.679666
  29 H :    0.584677
  30 H :    0.226060
  31 O :   -0.694106
  32 C :   -1.081676
  33 H :    0.411308
  34 H :    0.335356
  35 C :   -0.505359
  36 H :   -0.114705
  37 C :   -0.796946
  38 H :    0.175888
  39 H :    0.348949
  40 C :    2.230190
  41 C :   -1.060609
  42 C :   -0.250189
  43 C :   -0.443589
  44 H :   -0.062914
  45 C :   -1.175373
  46 H :    0.478242
  47 C :    1.398718
  48 H :    0.239530
  49 H :    0.473307
  50 N :   -0.577968
  51 H :   -0.080543
  52 C :    0.698317
  53 C :   -0.976999
  54 H :    0.339418
  55 H :    0.348301
  56 H :    0.279008
  57 O :   -0.927414
  58 O :   -0.913793
  59 C :   -0.917169
  60 H :    0.381564
  61 H :    0.352340
  62 H :    0.389165
Sum of atomic charges:    1.0000000

LOEWDIN ATOMIC CHARGES
----------------------
   0 C :   -0.361023
   1 C :   -0.360292
   2 C :    0.340836
   3 C :   -0.055750
   4 C :    0.332900
   5 H :   -0.161479
   6 H :   -0.110931
   7 H :   -0.138207
   8 H :   -0.176577
   9 H :   -0.110771
  10 N :    0.103968
  11 O :    0.707483
  12 C :    0.608900
  13 H :   -0.136976
  14 H :   -0.151325
  15 H :   -0.181443
  16 C :    0.630591
  17 H :   -0.141628
  18 H :   -0.140436
  19 H :   -0.182934
  20 C :    0.615426
  21 H :   -0.147689
  22 H :   -0.136204
  23 H :   -0.204929
  24 C :    0.631772
  25 H :   -0.139953
  26 H :   -0.140408
  27 H :   -0.189046
  28 C :   -0.059757
  29 H :   -0.118194
  30 H :   -0.520605
  31 O :    0.604271
  32 C :    0.391115
  33 H :   -0.165508
  34 H :   -0.170976
  35 C :    0.255478
  36 H :   -0.194666
  37 C :    0.239877
  38 H :   -0.171169
  39 H :   -0.166500
  40 C :   -0.111565
  41 C :    0.231254
  42 C :    0.217395
  43 C :    0.240144
  44 H :   -0.160389
  45 C :    0.244304
  46 H :   -0.224460
  47 C :   -0.365307
  48 H :   -0.198069
  49 H :   -0.179385
  50 N :    0.607493
  51 H :   -0.274801
  52 C :   -0.640051
  53 C :    0.618889
  54 H :   -0.162830
  55 H :   -0.162853
  56 H :   -0.176521
  57 O :    0.508085
  58 O :    0.594546
  59 C :    0.375333
  60 H :   -0.168764
  61 H :   -0.172321
  62 H :   -0.167366

  Mayer bond orders larger than 0.100000
B(  0-C ,  1-C ) :  -0.1008 B(  0-C ,  2-C ) :   0.1530 B(  0-C ,  4-C ) :   0.5137
B(  0-C , 10-N ) :   0.9487 B(  0-C , 11-O ) :  -0.1111 B(  0-C , 13-H ) :  -0.1843
B(  0-C , 18-H ) :  -0.2276 B(  0-C , 19-H ) :  -0.1208 B(  1-C ,  2-C ) :   0.3725
B(  1-C ,  3-C ) :  -0.1298 B(  1-C ,  4-C ) :   0.1275 B(  1-C , 10-N ) :   1.1534
B(  1-C , 22-H ) :  -0.2295 B(  1-C , 24-C ) :  -0.2123 B(  1-C , 25-H ) :  -0.2487
B(  1-C , 26-H ) :  -0.1702 B(  1-C , 27-H ) :  -0.1327 B(  1-C , 30-H ) :  -0.1086
B(  2-C ,  3-C ) :   0.9651 B(  2-C ,  5-H ) :   0.7364 B(  2-C ,  6-H ) :   0.8708
B(  2-C ,  7-H ) :   0.1516 B(  2-C , 50-N ) :   0.1696 B(  3-C ,  4-C ) :   1.0091
B(  3-C ,  6-H ) :  -0.1314 B(  3-C ,  7-H ) :   0.7192 B(  3-C ,  9-H ) :  -0.1050
B(  3-C , 10-N ) :   0.1218 B(  3-C , 50-N ) :  -0.2642 B(  3-C , 51-H ) :   0.1050
B(  3-C , 52-C ) :  -0.7234 B(  4-C ,  7-H ) :   0.1025 B(  4-C ,  8-H ) :   0.8992
B(  4-C ,  9-H ) :   0.7745 B(  4-C , 50-N ) :   0.1284 B(  5-H , 10-N ) :   0.1139
B(  5-H , 20-C ) :  -0.1446 B(  7-H , 50-N ) :  -0.1611 B(  7-H , 52-C ) :   0.2269
B( 10-N , 11-O ) :  -0.1300 B( 10-N , 12-C ) :  -0.3305 B( 10-N , 14-H ) :  -0.1877
B( 10-N , 16-C ) :  -0.2760 B( 10-N , 17-H ) :  -0.1534 B( 10-N , 20-C ) :  -0.1070
B( 10-N , 24-C ) :  -0.2068 B( 10-N , 26-H ) :  -0.1214 B( 10-N , 28-C ) :   0.2341
B( 10-N , 30-H ) :   0.1837 B( 11-O , 12-C ) :   0.1105 B( 11-O , 14-H ) :   0.1097
B( 11-O , 16-C ) :   0.1393 B( 11-O , 24-C ) :   0.1156 B( 11-O , 30-H ) :   0.3397
B( 12-C , 13-H ) :   1.5339 B( 12-C , 14-H ) :   1.2261 B( 12-C , 15-H ) :   0.9065
B( 12-C , 16-C ) :   0.1637 B( 16-C , 17-H ) :   1.2273 B( 16-C , 18-H ) :   1.3134
B( 16-C , 19-H ) :   1.0885 B( 20-C , 21-H ) :   1.1836 B( 20-C , 22-H ) :   1.5818
B( 20-C , 23-H ) :   0.5471 B( 20-C , 24-C ) :   0.2427 B( 22-H , 23-H ) :  -0.1215
B( 24-C , 25-H ) :   1.3005 B( 24-C , 26-H ) :   1.2635 B( 24-C , 27-H ) :   1.0839
B( 28-C , 29-H ) :   0.8759 B( 28-C , 30-H ) :   0.6316 B( 28-C , 31-O ) :   0.7803
B( 28-C , 35-C ) :   0.1689 B( 28-C , 36-H ) :  -0.5381 B( 28-C , 46-H ) :   0.1186
B( 29-H , 31-O ) :  -0.1410 B( 29-H , 35-C ) :  -0.4091 B( 30-H , 31-O ) :  -0.1972
B( 30-H , 35-C ) :   0.3034 B( 31-O , 32-C ) :   1.1501 B( 31-O , 37-C ) :  -0.1355
B( 32-C , 33-H ) :   0.8187 B( 32-C , 34-H ) :   0.9863 B( 32-C , 39-H ) :   0.8914
B( 35-C , 36-H ) :   2.0421 B( 35-C , 37-C ) :   0.9556 B( 35-C , 38-H ) :  -0.1089
B( 35-C , 42-C ) :  -0.3343 B( 35-C , 46-H ) :  -0.1856 B( 36-H , 41-C ) :  -0.1183
B( 36-H , 46-H ) :  -0.1766 B( 37-C , 38-H ) :   1.3904 B( 37-C , 40-C ) :   0.2598
B( 37-C , 41-C ) :   0.6095 B( 37-C , 42-C ) :   0.3017 B( 37-C , 44-H ) :  -0.2795
B( 37-C , 45-C ) :   0.1218 B( 37-C , 46-H ) :   0.4393 B( 37-C , 47-C ) :   0.1153
B( 37-C , 48-H ) :   0.1513 B( 37-C , 49-H ) :  -0.1081 B( 38-H , 40-C ) :  -0.2153
B( 40-C , 41-C ) :  -0.7754 B( 40-C , 42-C ) :   0.1883 B( 40-C , 43-C ) :   0.4731
B( 40-C , 44-H ) :  -0.4747 B( 40-C , 45-C ) :   0.1627 B( 40-C , 46-H ) :  -0.3295
B( 40-C , 47-C ) :   0.1472 B( 40-C , 58-O ) :   0.1038 B( 41-C , 42-C ) :  -0.5557
B( 41-C , 43-C ) :   0.8733 B( 41-C , 44-H ) :   1.9327 B( 41-C , 45-C ) :   0.1008
B( 41-C , 46-H ) :   0.1572 B( 41-C , 48-H ) :  -0.1696 B( 42-C , 43-C ) :  -0.5903
B( 42-C , 44-H ) :   0.2891 B( 42-C , 45-C ) :   1.2892 B( 42-C , 46-H ) :   0.9446
B( 42-C , 47-C ) :  -0.1666 B( 42-C , 49-H ) :   0.1728 B( 43-C , 44-H ) :  -0.2606
B( 43-C , 45-C ) :   0.3701 B( 43-C , 46-H ) :  -0.2864 B( 43-C , 47-C ) :   1.1074
B( 43-C , 48-H ) :   1.0831 B( 43-C , 58-O ) :  -0.3968 B( 44-H , 46-H ) :   0.3455
B( 44-H , 49-H ) :  -0.1124 B( 45-C , 46-H ) :  -0.1095 B( 45-C , 47-C ) :   0.7601
B( 45-C , 49-H ) :   0.6944 B( 45-C , 57-O ) :  -0.1171 B( 45-C , 58-O ) :   0.2861
B( 46-H , 47-C ) :  -0.1514 B( 47-C , 58-O ) :   0.2035 B( 48-H , 59-C ) :  -0.1825
B( 50-N , 51-H ) :   1.2043 B( 50-N , 52-C ) :   1.1677 B( 50-N , 57-O ) :   0.1072
B( 51-H , 52-C ) :  -0.1944 B( 52-C , 53-C ) :   0.3007 B( 52-C , 54-H ) :  -0.1103
B( 52-C , 57-O ) :   1.8259 B( 53-C , 54-H ) :   1.0312 B( 53-C , 55-H ) :   0.9965
B( 53-C , 56-H ) :   0.9910 B( 53-C , 57-O ) :  -0.2029 B( 58-O , 59-C ) :   1.0054
B( 59-C , 60-H ) :   0.8733 B( 59-C , 61-H ) :   0.9417 B( 59-C , 62-H ) :   0.8769

MP2 TOTAL ENERGY:    -1267.075160445 Eh
FINAL SINGLE POINT ENERGY     -1267.075160445405

DIPOLE MOMENT
-------------
                                X             Y             Z
Electronic contribution:    -15.68179      -4.47275      -3.71864
Nuclear contribution   :     17.20269       4.77430       4.50166
                        -----------------------------------------
Total Dipole Moment    :      1.52090       0.30154       0.78302
                        -----------------------------------------
Magnitude (a.u.)       :      1.73701
Magnitude (Debye)      :      4.41512

Rotational constants in cm-1:     0.006731     0.004390     0.003071
Rotational constants in MHz :   201.799483   131.611923    92.075259

                             ****ORCA TERMINATED NORMALLY****
TOTAL RUN TIME: 0 days 4 hours 42 minutes 53 seconds 684 msec
