                         Program Version 4.2.1 -  RELEASE  -
|  1> %pal
|  2>  nprocs 32
|  3> end
|  4> !RI-MP2 aug-cc-pVTZ aug-cc-pVTZ/C TightSCF
|  5> %maxcore 4500
|  6> *xyzfile 0 1  10_42TS.xyz
|  7>
|  8>
|  9>                          ****END OF INPUT****

CARTESIAN COORDINATES (ANGSTROEM)
---------------------------------
  C     -0.778080   -1.839727    0.141397
  H     -0.911309   -2.860510   -0.219439
  H     -0.964670   -1.854478    1.235592
  C     -1.792677   -0.924185   -0.508152
  C     -0.047928    0.837823   -0.656265
  H      0.324114    0.737945   -1.680724
  H      0.090140    1.875079   -0.369685
  C      0.815335   -0.053436    0.241047
  H      0.481712    0.097312    1.287859
  N      0.586505   -1.440421   -0.141529
  C     -2.494671    1.412135   -0.330044
  C     -3.044276   -1.411670   -0.845061
  H     -3.461927   -1.053262   -1.769202
  H     -3.296605   -2.442628   -0.610490
  C     -3.754901    1.095140    0.197643
  H     -4.063698    1.761675    1.005762
  C     -4.555215   -0.027634    0.004705
  C     -1.507467    0.441728   -0.596470
  C     -5.515988   -0.450902    1.086290
  H     -5.667156   -1.532026    1.065445
  H     -5.148398   -0.184946    2.078505
  H     -6.499015    0.011601    0.945641
  H     -4.916486   -0.233838   -0.986454
  C      2.283793    0.328050    0.179080
  C      1.552636   -2.353173    0.437339
  H      1.237068   -3.374773    0.215975
  H      1.593356   -2.254502    1.537975
  C      2.917358   -2.081415   -0.164508
  H      2.896668   -2.359577   -1.222553
  C      3.279745   -0.626963   -0.025099
  H      3.677212   -2.699603    0.320630
  C      4.613992   -0.226911   -0.071014
  H      5.381094   -0.977685   -0.229633
  C      2.657003    1.659024    0.367861
  H      1.897528    2.407345    0.559966
  C      4.972380    1.099249    0.093252
  H      6.014995    1.391070    0.055680
  C      3.984555    2.048146    0.323518
  H      4.248463    3.088378    0.471441
  C     -2.092500    2.870584   -0.224011
  H     -1.373900    3.052205    0.580000
  H     -2.966351    3.493637   -0.037548
  H     -1.636936    3.219363   -1.153075

 Total Charge           Charge          ....    0
 Multiplicity           Mult            ....    1
 Number of Electrons    NEL             ....  144
 Basis Dimension        Dim             .... 1449

ORBITAL ENERGIES
----------------

  NO   OCC          E(Eh)            E(eV)
   0   2.0000     -15.545085      -423.0033
   1   2.0000     -11.258659      -306.3637
   2   2.0000     -11.249396      -306.1116
   3   2.0000     -11.247086      -306.0488
   4   2.0000     -11.244373      -305.9749
   5   2.0000     -11.238638      -305.8189
   6   2.0000     -11.233210      -305.6712
   7   2.0000     -11.231990      -305.6380
   8   2.0000     -11.227321      -305.5109
   9   2.0000     -11.226682      -305.4935
  10   2.0000     -11.225531      -305.4622
  11   2.0000     -11.225001      -305.4478
  12   2.0000     -11.224654      -305.4384
  13   2.0000     -11.223250      -305.4002
  14   2.0000     -11.222040      -305.3672
  15   2.0000     -11.221749      -305.3593
  16   2.0000     -11.218782      -305.2786
  17   2.0000     -11.217398      -305.2409
  18   2.0000     -11.217290      -305.2380
  19   2.0000     -11.216073      -305.2049
  20   2.0000      -1.251404       -34.0524
  21   2.0000      -1.154644       -31.4195
  22   2.0000      -1.133425       -30.8421
  23   2.0000      -1.073260       -29.2049
  24   2.0000      -1.059444       -28.8289
  25   2.0000      -1.046971       -28.4895
  26   2.0000      -1.029950       -28.0264
  27   2.0000      -0.997030       -27.1306
  28   2.0000      -0.971634       -26.4395
  29   2.0000      -0.933733       -25.4082
  30   2.0000      -0.919171       -25.0119
  31   2.0000      -0.884481       -24.0680
  32   2.0000      -0.855554       -23.2808
  33   2.0000      -0.834673       -22.7126
  34   2.0000      -0.809103       -22.0168
  35   2.0000      -0.794358       -21.6156
  36   2.0000      -0.767080       -20.8733
  37   2.0000      -0.748608       -20.3707
  38   2.0000      -0.692426       -18.8419
  39   2.0000      -0.669236       -18.2108
  40   2.0000      -0.661228       -17.9929
  41   2.0000      -0.656883       -17.8747
  42   2.0000      -0.635398       -17.2901
  43   2.0000      -0.621780       -16.9195
  44   2.0000      -0.618816       -16.8388
  45   2.0000      -0.605388       -16.4734
  46   2.0000      -0.592711       -16.1285
  47   2.0000      -0.589236       -16.0339
  48   2.0000      -0.579191       -15.7606
  49   2.0000      -0.574297       -15.6274
  50   2.0000      -0.571163       -15.5421
  51   2.0000      -0.563154       -15.3242
  52   2.0000      -0.558144       -15.1879
  53   2.0000      -0.547319       -14.8933
  54   2.0000      -0.544736       -14.8230
  55   2.0000      -0.533777       -14.5248
  56   2.0000      -0.523275       -14.2390
  57   2.0000      -0.515887       -14.0380
  58   2.0000      -0.514288       -13.9945
  59   2.0000      -0.509498       -13.8642
  60   2.0000      -0.493886       -13.4393
  61   2.0000      -0.490687       -13.3523
  62   2.0000      -0.476964       -12.9789
  63   2.0000      -0.470030       -12.7902
  64   2.0000      -0.451880       -12.2963
  65   2.0000      -0.444679       -12.1003
  66   2.0000      -0.422657       -11.5011
  67   2.0000      -0.359807        -9.7908
  68   2.0000      -0.326337        -8.8801
  69   2.0000      -0.319372        -8.6906
  70   2.0000      -0.296722        -8.0742
  71   2.0000      -0.277419        -7.5490
  72   0.0000       0.025629         0.6974
  73   0.0000       0.028863         0.7854
  74   0.0000       0.028999         0.7891
  75   0.0000       0.034298         0.9333
  76   0.0000       0.036321         0.9884

MULLIKEN ATOMIC CHARGES
-----------------------
   0 C :   -0.546269
   1 H :    0.294019
   2 H :    0.221313
   3 C :    0.704616
   4 C :   -0.900170
   5 H :    0.239968
   6 H :    0.224197
   7 C :    0.229598
   8 H :    0.273339
   9 N :   -0.354203
  10 C :    0.570152
  11 C :   -1.318013
  12 H :    0.288424
  13 H :    0.395699
  14 C :   -0.492082
  15 H :   -0.102471
  16 C :    0.199418
  17 C :   -0.234895
  18 C :   -0.853509
  19 H :    0.255243
  20 H :    0.293666
  21 H :    0.287282
  22 H :    0.396274
  23 C :    1.448934
  24 C :   -0.720865
  25 H :    0.362548
  26 H :    0.226040
  27 C :   -0.593372
  28 H :    0.181543
  29 C :    1.152850
  30 H :    0.216197
  31 C :   -1.101972
  32 H :    0.067960
  33 C :   -1.233156
  34 H :    0.164430
  35 C :   -0.373534
  36 H :    0.606692
  37 C :   -0.764911
  38 H :    0.472631
  39 C :   -0.933085
  40 H :    0.306932
  41 H :    0.196119
  42 H :    0.246422
Sum of atomic charges:   -0.0000000

LOEWDIN ATOMIC CHARGES
----------------------
   0 C :    0.170510
   1 H :   -0.151329
   2 H :   -0.111917
   3 C :   -0.089803
   4 C :    0.309690
   5 H :   -0.115258
   6 H :   -0.218473
   7 C :   -0.107590
   8 H :   -0.103100
   9 N :    0.312658
  10 C :   -0.058254
  11 C :    0.500224
  12 H :   -0.218433
  13 H :   -0.168096
  14 C :    0.207965
  15 H :   -0.180651
  16 C :    0.176331
  17 C :   -0.034127
  18 C :    0.578250
  19 H :   -0.175028
  20 H :   -0.176092
  21 H :   -0.166783
  22 H :   -0.219540
  23 C :   -0.035164
  24 C :    0.167143
  25 H :   -0.138969
  26 H :   -0.113574
  27 C :    0.300133
  28 H :   -0.131550
  29 C :   -0.067918
  30 H :   -0.143199
  31 C :    0.221631
  32 H :   -0.172944
  33 C :    0.227653
  34 H :   -0.181473
  35 C :    0.198257
  36 H :   -0.183273
  37 C :    0.204208
  38 H :   -0.183089
  39 C :    0.570577
  40 H :   -0.163380
  41 H :   -0.177113
  42 H :   -0.159109

  Mayer bond orders larger than 0.100000
B(  0-C ,  1-H ) :   1.0154 B(  0-C ,  2-H ) :   1.0873 B(  0-C ,  3-C ) :   0.5570
B(  0-C ,  9-N ) :   0.8609 B(  0-C , 17-C ) :   0.1278 B(  2-H ,  9-N ) :  -0.1074
B(  3-C ,  4-C ) :   0.2653 B(  3-C , 11-C ) :   0.7367 B(  3-C , 14-C ) :   0.5027
B(  3-C , 16-C ) :  -0.2310 B(  3-C , 17-C ) :   1.2454 B(  3-C , 22-H ) :  -0.1546
B(  4-C ,  5-H ) :   1.0790 B(  4-C ,  6-H ) :   1.1198 B(  4-C ,  7-C ) :   0.7727
B(  4-C ,  9-N ) :   0.1154 B(  4-C , 10-C ) :   0.2616 B(  4-C , 14-C ) :  -0.1128
B(  4-C , 17-C ) :   0.8239 B(  4-C , 29-C ) :  -0.1211 B(  4-C , 33-C ) :   0.1521
B(  5-H ,  9-N ) :  -0.1152 B(  7-C ,  8-H ) :   0.9198 B(  7-C ,  9-N ) :   0.6698
B(  7-C , 17-C ) :   0.1258 B(  7-C , 23-C ) :   0.8876 B(  7-C , 27-C ) :  -0.1520
B(  7-C , 29-C ) :   0.2724 B(  7-C , 33-C ) :   0.6853 B(  8-H ,  9-N ) :  -0.1285
B(  9-N , 17-C ) :  -0.1492 B(  9-N , 23-C ) :  -0.2129 B(  9-N , 24-C ) :   1.0551
B(  9-N , 29-C ) :  -0.1072 B( 10-C , 11-C ) :   0.2188 B( 10-C , 12-H ) :   0.1355
B( 10-C , 14-C ) :   0.7045 B( 10-C , 15-H ) :  -0.2842 B( 10-C , 16-C ) :   0.1476
B( 10-C , 17-C ) :   1.4845 B( 10-C , 39-C ) :   0.4101 B( 11-C , 12-H ) :   1.0534
B( 11-C , 13-H ) :   0.8524 B( 11-C , 14-C ) :  -0.1669 B( 11-C , 15-H ) :  -0.1138
B( 11-C , 16-C ) :   0.6161 B( 11-C , 17-C ) :   0.1897 B( 11-C , 22-H ) :   0.2455
B( 14-C , 15-H ) :   1.4844 B( 14-C , 16-C ) :   1.0160 B( 14-C , 17-C ) :   0.3707
B( 15-H , 17-C ) :   0.3244 B( 16-C , 18-C ) :   0.5297 B( 16-C , 22-H ) :   0.8668
B( 17-C , 33-C ) :  -0.1231 B( 18-C , 19-H ) :   1.0001 B( 18-C , 20-H ) :   0.9717
B( 18-C , 21-H ) :   0.9961 B( 23-C , 27-C ) :   0.2798 B( 23-C , 29-C ) :   0.8252
B( 23-C , 31-C ) :   0.4897 B( 23-C , 33-C ) :  -0.3341 B( 23-C , 34-H ) :  -0.1163
B( 23-C , 35-C ) :  -0.1448 B( 23-C , 37-C ) :  -0.1392 B( 24-C , 25-H ) :   0.8735
B( 24-C , 26-H ) :   1.0536 B( 24-C , 27-C ) :   1.0422 B( 24-C , 29-C ) :   0.1159
B( 27-C , 28-H ) :   1.1359 B( 27-C , 30-H ) :   1.1279 B( 27-C , 31-C ) :   0.1304
B( 27-C , 33-C ) :  -0.1125 B( 28-H , 29-C ) :  -0.1199 B( 29-C , 31-C ) :   0.3739
B( 29-C , 33-C ) :  -0.4216 B( 29-C , 35-C ) :   0.2236 B( 31-C , 32-H ) :   1.4829
B( 31-C , 35-C ) :   0.8923 B( 32-H , 35-C ) :  -0.1258 B( 33-C , 34-H ) :   1.4425
B( 33-C , 35-C ) :   0.1689 B( 33-C , 37-C ) :   1.3953 B( 35-C , 36-H ) :   0.5310
B( 35-C , 37-C ) :   1.0584 B( 36-H , 37-C ) :  -0.1074 B( 37-C , 38-H ) :   0.7280
B( 39-C , 40-H ) :   0.9753 B( 39-C , 41-H ) :   1.0740 B( 39-C , 42-H ) :   1.0585

MP2 TOTAL ENERGY:     -790.870231324 Eh
FINAL SINGLE POINT ENERGY      -790.870231324324

DIPOLE MOMENT
-------------
                                X             Y             Z
Electronic contribution:     13.02646       0.49312      -2.80693
Nuclear contribution   :    -13.30881      -0.71399       3.13937
                        -----------------------------------------
Total Dipole Moment    :     -0.28235      -0.22087       0.33244
                        -----------------------------------------
Magnitude (a.u.)       :      0.48889
Magnitude (Debye)      :      1.24267

Rotational constants in cm-1:     0.025713     0.006425     0.005368
Rotational constants in MHz :   770.865029   192.626729   160.923723

                             ****ORCA TERMINATED NORMALLY****
TOTAL RUN TIME: 0 days 1 hours 9 minutes 0 seconds 231 msec
