                         Program Version 4.2.1 -  RELEASE  -
|  1> %pal
|  2>  nprocs 32
|  3> end
|  4> !RI-MP2 aug-cc-pVTZ aug-cc-pVTZ/C TightSCF
|  5> %maxcore 4500
|  6> *xyzfile 0 2  01_29P.xyz
|  7>
|  8>
|  9>                          ****END OF INPUT****

CARTESIAN COORDINATES (ANGSTROEM)
---------------------------------
  C      0.663401   -0.200624   -0.344004
  C      1.559413   -1.448249   -0.367306
  C      3.012657   -0.918021   -0.415352
  H      1.318949   -2.097580   -1.210343
  H      1.388065   -2.019677    0.545969
  C      2.909333    0.609075   -0.257255
  H      3.513672   -1.186818   -1.346364
  H      3.600097   -1.352710    0.395029
  C      1.536876    0.857005    0.388251
  H      2.930280    1.098879   -1.235872
  H      3.720844    1.036088    0.333477
  C      1.039960    2.247754    0.280855
  C     -0.645813   -0.424418    0.361625
  O     -1.693768   -0.038720   -0.379239
  C     -2.990745   -0.179875    0.227869
  O     -0.756625   -0.879050    1.471725
  C     -4.012318    0.316499   -0.765268
  H     -3.975081   -0.267354   -1.686240
  H     -3.835425    1.364106   -1.013440
  H     -5.014663    0.227293   -0.341657
  H     -3.005173    0.394906    1.155469
  H     -3.142751   -1.229272    0.486131
  H      0.553996    2.745274    1.109182
  H      1.080148    2.764066   -0.671727
  H      0.459179    0.154733   -1.355941
  H      1.574425    0.555352    1.439945

 Total Charge           Charge          ....    0
 Multiplicity           Mult            ....    2
 Number of Electrons    NEL             ....   85
 Basis Dimension        Dim             ....  851

ORBITAL ENERGIES
----------------
                 SPIN UP ORBITALS
  NO   OCC          E(Eh)            E(eV)
   0   1.0000     -20.596872      -560.4694
   1   1.0000     -20.534422      -558.7700
   2   1.0000     -11.367743      -309.3320
   3   1.0000     -11.284928      -307.0785
   4   1.0000     -11.238293      -305.8095
   5   1.0000     -11.233494      -305.6789
   6   1.0000     -11.231530      -305.6255
   7   1.0000     -11.222949      -305.3920
   8   1.0000     -11.222596      -305.3824
   9   1.0000     -11.221786      -305.3603
  10   1.0000     -11.220057      -305.3133
  11   1.0000      -1.457257       -39.6540
  12   1.0000      -1.353639       -36.8344
  13   1.0000      -1.144577       -31.1455
  14   1.0000      -1.046122       -28.4664
  15   1.0000      -1.019933       -27.7538
  16   1.0000      -0.990642       -26.9567
  17   1.0000      -0.905899       -24.6508
  18   1.0000      -0.870957       -23.6999
  19   1.0000      -0.804822       -21.9003
  20   1.0000      -0.778303       -21.1787
  21   1.0000      -0.757387       -20.6095
  22   1.0000      -0.709680       -19.3114
  23   1.0000      -0.678742       -18.4695
  24   1.0000      -0.669427       -18.2160
  25   1.0000      -0.639763       -17.4088
  26   1.0000      -0.613707       -16.6998
  27   1.0000      -0.602678       -16.3997
  28   1.0000      -0.588465       -16.0130
  29   1.0000      -0.576822       -15.6961
  30   1.0000      -0.553082       -15.0501
  31   1.0000      -0.550962       -14.9924
  32   1.0000      -0.521014       -14.1775
  33   1.0000      -0.514599       -14.0029
  34   1.0000      -0.503650       -13.7050
  35   1.0000      -0.493371       -13.4253
  36   1.0000      -0.488543       -13.2939
  37   1.0000      -0.476207       -12.9583
  38   1.0000      -0.466659       -12.6984
  39   1.0000      -0.461469       -12.5572
  40   1.0000      -0.450190       -12.2503
  41   1.0000      -0.437078       -11.8935
  42   1.0000      -0.347951        -9.4682
  43   0.0000       0.028292         0.7699
  44   0.0000       0.031966         0.8698
  45   0.0000       0.034292         0.9331
  46   0.0000       0.037381         1.0172
  47   0.0000       0.044991         1.2243

                 SPIN DOWN ORBITALS
  NO   OCC          E(Eh)            E(eV)
   0   1.0000     -20.596859      -560.4690
   1   1.0000     -20.534429      -558.7702
   2   1.0000     -11.367876      -309.3356
   3   1.0000     -11.284924      -307.0784
   4   1.0000     -11.236850      -305.7702
   5   1.0000     -11.235661      -305.7379
   6   1.0000     -11.222949      -305.3920
   7   1.0000     -11.222604      -305.3826
   8   1.0000     -11.220528      -305.3261
   9   1.0000     -11.219885      -305.3086
  10   1.0000     -11.208351      -304.9947
  11   1.0000      -1.457208       -39.6526
  12   1.0000      -1.353639       -36.8344
  13   1.0000      -1.138536       -30.9811
  14   1.0000      -1.045666       -28.4540
  15   1.0000      -0.995002       -27.0754
  16   1.0000      -0.987037       -26.8587
  17   1.0000      -0.885776       -24.1032
  18   1.0000      -0.847154       -23.0522
  19   1.0000      -0.800197       -21.7745
  20   1.0000      -0.770172       -20.9574
  21   1.0000      -0.752807       -20.4849
  22   1.0000      -0.708073       -19.2677
  23   1.0000      -0.678545       -18.4641
  24   1.0000      -0.668675       -18.1956
  25   1.0000      -0.635369       -17.2893
  26   1.0000      -0.607652       -16.5351
  27   1.0000      -0.600653       -16.3446
  28   1.0000      -0.585913       -15.9435
  29   1.0000      -0.575933       -15.6719
  30   1.0000      -0.552464       -15.0333
  31   1.0000      -0.544011       -14.8033
  32   1.0000      -0.514817       -14.0089
  33   1.0000      -0.514063       -13.9884
  34   1.0000      -0.501289       -13.6408
  35   1.0000      -0.484612       -13.1870
  36   1.0000      -0.478295       -13.0151
  37   1.0000      -0.467587       -12.7237
  38   1.0000      -0.463152       -12.6030
  39   1.0000      -0.460732       -12.5371
  40   1.0000      -0.448825       -12.2131
  41   1.0000      -0.435307       -11.8453
  42   0.0000       0.028488         0.7752
  43   0.0000       0.031815         0.8657
  44   0.0000       0.034359         0.9349
  45   0.0000       0.037355         1.0165
  46   0.0000       0.045126         1.2280

MULLIKEN ATOMIC CHARGES AND SPIN POPULATIONS
--------------------------------------------
   0 C :    0.766105    0.065063
   1 C :   -0.691216    0.002077
   2 C :   -0.579830    0.001696
   3 H :    0.298351    0.003917
   4 H :    0.221352    0.000491
   5 C :   -0.668577    0.062255
   6 H :    0.297129    0.001323
   7 H :    0.212577   -0.000446
   8 C :    0.592753   -0.211558
   9 H :    0.089713    0.002225
  10 H :    0.379029   -0.008719
  11 C :   -1.279652    1.266409
  12 C :    0.554727    0.002696
  13 O :   -0.358032   -0.012427
  14 C :   -0.297261   -0.006125
  15 O :   -1.075557    0.000108
  16 C :   -0.950272   -0.000061
  17 H :    0.247543    0.000237
  18 H :    0.253017   -0.000530
  19 H :    0.315301   -0.000093
  20 H :    0.337069    0.000095
  21 H :    0.337087   -0.000357
  22 H :    0.306451   -0.077862
  23 H :    0.309708   -0.081598
  24 H :    0.164142   -0.001363
  25 H :    0.218345   -0.007454
Sum of atomic charges         :    0.0000000

LOEWDIN ATOMIC CHARGES AND SPIN POPULATIONS
-------------------------------------------
   0 C :   -0.016522    0.036373
   1 C :    0.326549    0.005138
   2 C :    0.330886    0.003296
   3 H :   -0.137542    0.001569
   4 H :   -0.155445    0.000371
   5 C :    0.307021    0.021576
   6 H :   -0.147999    0.000875
   7 H :   -0.146807    0.000186
   8 C :   -0.066074    0.113528
   9 H :   -0.144061    0.001611
  10 H :   -0.135914    0.002918
  11 C :    0.624154    0.556699
  12 C :   -0.804564    0.008267
  13 O :    0.599269    0.001399
  14 C :    0.028962    0.000624
  15 O :    0.489015    0.000379
  16 C :    0.578854    0.000178
  17 H :   -0.171997    0.000023
  18 H :   -0.172110    0.000075
  19 H :   -0.172405    0.000018
  20 H :   -0.157492    0.000170
  21 H :   -0.157147    0.000034
  22 H :   -0.213292    0.121998
  23 H :   -0.207530    0.116347
  24 H :   -0.141501    0.004419
  25 H :   -0.136308    0.001932

  Mayer bond orders larger than 0.100000
B(  0-C ,  1-C ) :   0.6643 B(  0-C ,  8-C ) :   0.7720 B(  0-C , 11-C ) :   0.1193
B(  0-C , 12-C ) :   0.4761 B(  0-C , 13-O ) :  -0.3031 B(  0-C , 15-O ) :  -0.2035
B(  0-C , 24-H ) :   1.0052 B(  1-C ,  2-C ) :   1.0434 B(  1-C ,  3-H ) :   0.9095
B(  1-C ,  4-H ) :   1.0365 B(  1-C ,  5-C ) :   0.1175 B(  2-C ,  5-C ) :   1.0419
B(  2-C ,  6-H ) :   0.9232 B(  2-C ,  7-H ) :   1.0140 B(  5-C ,  8-C ) :   0.7971
B(  5-C ,  9-H ) :   1.1705 B(  5-C , 10-H ) :   0.8455 B(  8-C , 11-C ) :   0.2147
B(  8-C , 12-C ) :   0.1499 B(  8-C , 25-H ) :   0.9749 B( 11-C , 22-H ) :   0.9509
B( 11-C , 23-H ) :   1.0248 B( 12-C , 13-O ) :   1.0259 B( 12-C , 14-C ) :  -0.1200
B( 12-C , 15-O ) :   1.0325 B( 13-O , 14-C ) :   0.8570 B( 13-O , 16-C ) :  -0.1225
B( 14-C , 16-C ) :   0.8963 B( 14-C , 20-H ) :   0.8934 B( 14-C , 21-H ) :   0.8899
B( 16-C , 17-H ) :   0.9859 B( 16-C , 18-H ) :   0.9816 B( 16-C , 19-H ) :   0.9423

MP2 TOTAL ENERGY:     -501.421023193 Eh
FINAL SINGLE POINT ENERGY      -501.421023192957

DIPOLE MOMENT
-------------
                                X             Y             Z
Electronic contribution:     -1.23908      -1.96582       2.79623
Nuclear contribution   :      1.16005       2.23468      -3.47537
                        -----------------------------------------
Total Dipole Moment    :     -0.07903       0.26886      -0.67914
                        -----------------------------------------
Magnitude (a.u.)       :      0.73469
Magnitude (Debye)      :      1.86743

Rotational constants in cm-1:     0.073077     0.019833     0.017974
Rotational constants in MHz :  2190.780943   594.578134   538.836590

                             ****ORCA TERMINATED NORMALLY****
TOTAL RUN TIME: 0 days 0 hours 14 minutes 58 seconds 715 msec
