                         Program Version 4.2.1 -  RELEASE  -
|  1> %pal
|  2>  nprocs 32
|  3> end
|  4> !RI-MP2 aug-cc-pVTZ aug-cc-pVTZ/C TightSCF
|  5> %maxcore 4500
|  6> *xyzfile 0 2  01_23P.xyz
|  7>
|  8>
|  9>                          ****END OF INPUT****

CARTESIAN COORDINATES (ANGSTROEM)
---------------------------------
  C     -0.042444   -1.251477   -0.396078
  C     -0.815699    0.034990   -0.162494
  C      1.309069   -1.227454    0.314622
  C      2.131020   -0.021360   -0.135403
  C      1.394670    1.290083    0.154786
  C     -0.025006    1.264483   -0.304337
  C     -2.273639    0.059705   -0.521651
  C     -1.891084    0.014446    0.926393
  H      0.122611   -1.374216   -1.472794
  H     -0.638258   -2.107473   -0.067447
  H      1.854569   -2.153594    0.114821
  H      1.151286   -1.179176    1.398466
  H      2.318114   -0.099666   -1.211950
  H      3.106908   -0.016227    0.356951
  H      1.925579    2.135716   -0.290954
  H      1.418835    1.464573    1.244761
  H     -0.552641    2.203995   -0.435150
  H     -2.691552   -0.835923   -0.965823
  H     -2.679724    0.984785   -0.912715
  H     -2.031543   -0.913544    1.468046
  H     -2.025498    0.910249    1.518764

 Total Charge           Charge          ....    0
 Multiplicity           Mult            ....    2
 Number of Electrons    NEL             ....   61
 Basis Dimension        Dim             ....  667

ORBITAL ENERGIES
----------------
                 SPIN UP ORBITALS
  NO   OCC          E(Eh)            E(eV)
   0   1.0000     -11.228721      -305.5490
   1   1.0000     -11.221437      -305.3508
   2   1.0000     -11.221293      -305.3469
   3   1.0000     -11.219079      -305.2867
   4   1.0000     -11.216355      -305.2125
   5   1.0000     -11.215918      -305.2006
   6   1.0000     -11.214390      -305.1591
   7   1.0000     -11.213288      -305.1291
   8   1.0000      -1.164286       -31.6818
   9   1.0000      -1.082816       -29.4649
  10   1.0000      -1.008167       -27.4336
  11   1.0000      -0.948714       -25.8158
  12   1.0000      -0.837498       -22.7895
  13   1.0000      -0.824485       -22.4354
  14   1.0000      -0.796089       -21.6627
  15   1.0000      -0.714651       -19.4466
  16   1.0000      -0.655711       -17.8428
  17   1.0000      -0.642393       -17.4804
  18   1.0000      -0.617474       -16.8023
  19   1.0000      -0.582019       -15.8375
  20   1.0000      -0.572109       -15.5679
  21   1.0000      -0.545109       -14.8332
  22   1.0000      -0.528953       -14.3935
  23   1.0000      -0.517204       -14.0738
  24   1.0000      -0.507337       -13.8054
  25   1.0000      -0.481280       -13.0963
  26   1.0000      -0.464397       -12.6369
  27   1.0000      -0.439727       -11.9656
  28   1.0000      -0.425861       -11.5883
  29   1.0000      -0.402694       -10.9579
  30   1.0000      -0.303249        -8.2518
  31   0.0000       0.030805         0.8383
  32   0.0000       0.033833         0.9207
  33   0.0000       0.034278         0.9327
  34   0.0000       0.036690         0.9984
  35   0.0000       0.048124         1.3095

                 SPIN DOWN ORBITALS
  NO   OCC          E(Eh)            E(eV)
   0   1.0000     -11.232459      -305.6507
   1   1.0000     -11.218814      -305.2795
   2   1.0000     -11.218504      -305.2710
   3   1.0000     -11.217543      -305.2449
   4   1.0000     -11.215830      -305.1982
   5   1.0000     -11.213914      -305.1461
   6   1.0000     -11.213285      -305.1290
   7   1.0000     -11.197887      -304.7100
   8   1.0000      -1.154747       -31.4223
   9   1.0000      -1.077506       -29.3204
  10   1.0000      -0.991363       -26.9764
  11   1.0000      -0.928238       -25.2586
  12   1.0000      -0.820210       -22.3190
  13   1.0000      -0.816425       -22.2161
  14   1.0000      -0.794552       -21.6209
  15   1.0000      -0.701323       -19.0840
  16   1.0000      -0.650977       -17.7140
  17   1.0000      -0.634348       -17.2615
  18   1.0000      -0.612626       -16.6704
  19   1.0000      -0.576762       -15.6945
  20   1.0000      -0.566461       -15.4142
  21   1.0000      -0.535738       -14.5782
  22   1.0000      -0.516952       -14.0670
  23   1.0000      -0.509122       -13.8539
  24   1.0000      -0.503720       -13.7069
  25   1.0000      -0.477406       -12.9909
  26   1.0000      -0.461030       -12.5453
  27   1.0000      -0.435284       -11.8447
  28   1.0000      -0.403088       -10.9686
  29   1.0000      -0.391624       -10.6566
  30   0.0000       0.030777         0.8375
  31   0.0000       0.033899         0.9224
  32   0.0000       0.034406         0.9362
  33   0.0000       0.036409         0.9907
  34   0.0000       0.048173         1.3109

MULLIKEN ATOMIC CHARGES AND SPIN POPULATIONS
--------------------------------------------
   0 C :   -0.300686    0.043978
   1 C :    1.806500   -0.308242
   2 C :   -0.554166   -0.016779
   3 C :   -0.490367    0.025946
   4 C :   -0.284988   -0.231989
   5 C :   -0.957560    1.371052
   6 C :   -1.566319   -0.011930
   7 C :   -1.123237    0.134774
   8 H :    0.276111   -0.002370
   9 H :    0.355836    0.001032
  10 H :    0.282427    0.001925
  11 H :    0.170829   -0.001285
  12 H :    0.197003   -0.006842
  13 H :    0.265068    0.000104
  14 H :    0.282867    0.013289
  15 H :    0.221607    0.089677
  16 H :    0.331605   -0.094916
  17 H :    0.299162   -0.002658
  18 H :    0.228876   -0.001484
  19 H :    0.214841    0.003304
  20 H :    0.344591   -0.006586
Sum of atomic charges         :    0.0000000

LOEWDIN ATOMIC CHARGES AND SPIN POPULATIONS
-------------------------------------------
   0 C :    0.297806    0.005670
   1 C :   -0.310957    0.093214
   2 C :    0.290964    0.000380
   3 C :    0.282893    0.011337
   4 C :    0.263603    0.112633
   5 C :    0.324427    0.530881
   6 C :    0.367378    0.016147
   7 C :    0.388188    0.057854
   8 H :   -0.130489    0.001281
   9 H :   -0.141042    0.000288
  10 H :   -0.139736    0.000249
  11 H :   -0.134649    0.000366
  12 H :   -0.141523    0.002825
  13 H :   -0.141989    0.000932
  14 H :   -0.153683    0.006872
  15 H :   -0.140588    0.030474
  16 H :   -0.169685    0.105078
  17 H :   -0.148793    0.002144
  18 H :   -0.153609    0.001159
  19 H :   -0.154762    0.012844
  20 H :   -0.153755    0.007374

  Mayer bond orders larger than 0.100000
B(  0-C ,  1-C ) :   0.5153 B(  0-C ,  2-C ) :   0.9518 B(  0-C ,  6-C ) :  -0.1710
B(  0-C ,  8-H ) :   0.9845 B(  0-C ,  9-H ) :   0.9700 B(  1-C ,  5-C ) :   0.5908
B(  1-C ,  6-C ) :  -0.4925 B(  1-C ,  7-C ) :  -0.2610 B(  1-C , 18-H ) :  -0.1001
B(  2-C ,  3-C ) :   0.8902 B(  2-C , 10-H ) :   0.9345 B(  2-C , 11-H ) :   1.0497
B(  3-C ,  4-C ) :   0.9306 B(  3-C , 12-H ) :   1.0071 B(  3-C , 13-H ) :   0.9636
B(  4-C ,  5-C ) :   0.8263 B(  4-C , 14-H ) :   0.9593 B(  4-C , 15-H ) :   0.9688
B(  5-C ,  6-C ) :  -0.1577 B(  5-C , 16-H ) :   0.9043 B(  6-C ,  7-C ) :   2.0251
B(  6-C ,  9-H ) :  -0.1104 B(  6-C , 17-H ) :   0.8891 B(  6-C , 18-H ) :   1.0967
B(  7-C , 19-H ) :   1.0607 B(  7-C , 20-H ) :   0.8605

MP2 TOTAL ENERGY:     -311.904376679 Eh
FINAL SINGLE POINT ENERGY      -311.904376678841

DIPOLE MOMENT
-------------
                                X             Y             Z
Electronic contribution:     -1.28701       0.98426      -0.69779
Nuclear contribution   :      1.34157      -1.02872       0.78162
                        -----------------------------------------
Total Dipole Moment    :      0.05457      -0.04446       0.08383
                        -----------------------------------------
Magnitude (a.u.)       :      0.10946
Magnitude (Debye)      :      0.27823

Rotational constants in cm-1:     0.123841     0.057475     0.046252
Rotational constants in MHz :  3712.669539  1723.053300  1386.601218

                             ****ORCA TERMINATED NORMALLY****
TOTAL RUN TIME: 0 days 0 hours 7 minutes 35 seconds 35 msec
