                         Program Version 4.2.1 -  RELEASE  -
|  1> %pal
|  2>  nprocs 32
|  3> end
|  4> !RI-MP2 aug-cc-pVTZ aug-cc-pVTZ/C TightSCF
|  5> %maxcore 4500
|  6> *xyzfile 0 1  02_8R.xyz
|  7>
|  8>
|  9>                          ****END OF INPUT****

CARTESIAN COORDINATES (ANGSTROEM)
---------------------------------
  C      1.731985    1.636876   -1.662106
  C      0.864790    2.531497   -0.911376
  C     -0.429664    2.720710   -1.165446
  C      0.859417   -0.255599    1.140238
  C      2.052832   -0.873068    1.105032
  C      2.999041    1.395054   -1.330618
  C      2.454174   -2.100726    0.354502
  C      2.920331   -1.732934   -1.070760
  C      3.912658    0.431579   -2.018179
  C      4.160034   -0.823601   -1.165106
  C      3.514956   -2.881812    1.130194
  C     -1.313187    3.654496   -0.404753
  C      0.762160    0.930856    2.028560
  C     -1.629824   -0.141967    0.760018
  C     -1.647535    0.841791    1.676995
  N     -0.525454    1.367257    2.269506
  O      1.706134    1.491199    2.547137
  C     -0.331118   -0.722351    0.377439
  O     -0.228160   -1.544858   -0.516981
  C     -2.879736   -0.601737    0.116900
  C     -3.844109    0.317864   -0.294691
  C     -3.130846   -1.960803   -0.078142
  C     -5.038841   -0.104827   -0.860196
  C     -4.321842   -2.382964   -0.646042
  C     -5.282474   -1.458473   -1.036484
  H     -0.888677    2.171825   -1.985032
  H      1.567908   -2.722125    0.221123
  H      3.109602   -2.672746   -1.596404
  H      2.073342   -1.267140   -1.575098
  H      3.493119    0.138871   -2.985279
  H      4.871617    0.919596   -2.220429
  H      4.487718   -0.503062   -0.171546
  H      5.001181   -1.378837   -1.586798
  H      4.427764   -2.296991    1.269072
  H      3.151372   -3.169594    2.119107
  H      3.780952   -3.794518    0.592666
  H     -1.729204    4.425427   -1.060129
  H     -2.164868    3.126497    0.034681
  H     -0.766576    4.152003    0.398604
  H      1.327229    3.067998   -0.084972
  H     -2.578737    1.291600    1.997029
  H     -0.606141    2.148965    2.902311
  H     -3.649868    1.378825   -0.191699
  H     -2.384277   -2.686894    0.211868
  H     -5.773328    0.626802   -1.175094
  H     -4.501124   -3.442189   -0.786539
  H     -6.211122   -1.792213   -1.483360
  H      1.295186    1.135009   -2.522867
  H      3.404368    1.891233   -0.449603
  H      2.817734   -0.409029    1.724722

 Total Charge           Charge          ....    0
 Multiplicity           Mult            ....    1
 Number of Electrons    NEL             ....  180
 Basis Dimension        Dim             .... 1725

ORBITAL ENERGIES
----------------

  NO   OCC          E(Eh)            E(eV)
   0   2.0000     -20.532896      -558.7285
   1   2.0000     -20.532630      -558.7213
   2   2.0000     -15.619117      -425.0178
   3   2.0000     -11.368736      -309.3590
   4   2.0000     -11.335325      -308.4499
   5   2.0000     -11.314009      -307.8698
   6   2.0000     -11.276705      -306.8547
   7   2.0000     -11.246186      -306.0243
   8   2.0000     -11.244319      -305.9735
   9   2.0000     -11.241261      -305.8903
  10   2.0000     -11.235181      -305.7248
  11   2.0000     -11.234290      -305.7006
  12   2.0000     -11.232934      -305.6637
  13   2.0000     -11.231470      -305.6238
  14   2.0000     -11.230309      -305.5922
  15   2.0000     -11.229709      -305.5759
  16   2.0000     -11.228104      -305.5322
  17   2.0000     -11.227261      -305.5093
  18   2.0000     -11.224108      -305.4235
  19   2.0000     -11.222917      -305.3911
  20   2.0000     -11.222340      -305.3754
  21   2.0000     -11.221128      -305.3424
  22   2.0000     -11.220694      -305.3306
  23   2.0000     -11.219410      -305.2957
  24   2.0000     -11.217760      -305.2508
  25   2.0000      -1.403874       -38.2014
  26   2.0000      -1.381335       -37.5880
  27   2.0000      -1.280696       -34.8495
  28   2.0000      -1.161415       -31.6037
  29   2.0000      -1.130723       -30.7685
  30   2.0000      -1.104386       -30.0519
  31   2.0000      -1.090689       -29.6792
  32   2.0000      -1.074747       -29.2454
  33   2.0000      -1.051003       -28.5992
  34   2.0000      -1.015840       -27.6424
  35   2.0000      -1.008385       -27.4395
  36   2.0000      -0.999490       -27.1975
  37   2.0000      -0.949643       -25.8411
  38   2.0000      -0.937382       -25.5075
  39   2.0000      -0.906741       -24.6737
  40   2.0000      -0.867411       -23.6034
  41   2.0000      -0.843696       -22.9581
  42   2.0000      -0.838052       -22.8045
  43   2.0000      -0.823878       -22.4189
  44   2.0000      -0.805349       -21.9147
  45   2.0000      -0.771172       -20.9847
  46   2.0000      -0.757448       -20.6112
  47   2.0000      -0.751153       -20.4399
  48   2.0000      -0.742083       -20.1931
  49   2.0000      -0.713939       -19.4273
  50   2.0000      -0.692968       -18.8566
  51   2.0000      -0.677850       -18.4452
  52   2.0000      -0.649207       -17.6658
  53   2.0000      -0.647137       -17.6095
  54   2.0000      -0.641492       -17.4559
  55   2.0000      -0.633416       -17.2361
  56   2.0000      -0.631711       -17.1897
  57   2.0000      -0.625574       -17.0227
  58   2.0000      -0.617781       -16.8107
  59   2.0000      -0.615095       -16.7376
  60   2.0000      -0.600084       -16.3291
  61   2.0000      -0.595077       -16.1929
  62   2.0000      -0.586734       -15.9658
  63   2.0000      -0.580987       -15.8094
  64   2.0000      -0.573059       -15.5937
  65   2.0000      -0.571024       -15.5383
  66   2.0000      -0.563661       -15.3380
  67   2.0000      -0.553849       -15.0710
  68   2.0000      -0.543500       -14.7894
  69   2.0000      -0.538129       -14.6432
  70   2.0000      -0.525603       -14.3024
  71   2.0000      -0.522397       -14.2152
  72   2.0000      -0.508993       -13.8504
  73   2.0000      -0.508480       -13.8364
  74   2.0000      -0.500955       -13.6317
  75   2.0000      -0.496629       -13.5140
  76   2.0000      -0.494838       -13.4652
  77   2.0000      -0.489465       -13.3190
  78   2.0000      -0.484202       -13.1758
  79   2.0000      -0.465229       -12.6595
  80   2.0000      -0.460796       -12.5389
  81   2.0000      -0.456640       -12.4258
  82   2.0000      -0.444904       -12.1065
  83   2.0000      -0.425872       -11.5886
  84   2.0000      -0.412327       -11.2200
  85   2.0000      -0.376208       -10.2371
  86   2.0000      -0.373914       -10.1747
  87   2.0000      -0.336553        -9.1581
  88   2.0000      -0.307383        -8.3643
  89   2.0000      -0.302231        -8.2241
  90   0.0000       0.021339         0.5807
  91   0.0000       0.027107         0.7376
  92   0.0000       0.029201         0.7946
  93   0.0000       0.031116         0.8467
  94   0.0000       0.036559         0.9948

MULLIKEN ATOMIC CHARGES
-----------------------
   0 C :   -0.076206
   1 C :   -0.070509
   2 C :    0.011437
   3 C :    1.071334
   4 C :   -0.917097
   5 C :   -0.276195
   6 C :    0.348364
   7 C :   -0.576832
   8 C :   -0.293913
   9 C :   -0.466821
  10 C :   -1.383386
  11 C :   -0.791195
  12 C :    0.537571
  13 C :    0.653799
  14 C :   -0.837098
  15 N :   -0.108049
  16 O :   -1.324547
  17 C :    1.937692
  18 O :   -1.675034
  19 C :    2.300600
  20 C :   -0.788100
  21 C :   -0.903727
  22 C :   -1.237276
  23 C :   -0.789613
  24 C :   -0.061878
  25 H :    0.189554
  26 H :    0.254033
  27 H :    0.231670
  28 H :    0.322951
  29 H :    0.110573
  30 H :    0.326130
  31 H :    0.069198
  32 H :    0.325073
  33 H :    0.293963
  34 H :    0.227097
  35 H :    0.212408
  36 H :    0.306707
  37 H :    0.316968
  38 H :    0.281948
  39 H :    0.035157
  40 H :    0.664681
  41 H :    0.037786
  42 H :    0.303240
  43 H :    0.093676
  44 H :    0.336726
  45 H :    0.293670
  46 H :    0.683285
  47 H :   -0.107455
  48 H :    0.045031
  49 H :   -0.137391
Sum of atomic charges:   -0.0000000

LOEWDIN ATOMIC CHARGES
----------------------
   0 C :    0.185831
   1 C :    0.168442
   2 C :    0.203016
   3 C :   -0.063293
   4 C :    0.270999
   5 C :    0.215829
   6 C :   -0.018527
   7 C :    0.318725
   8 C :    0.270606
   9 C :    0.301771
  10 C :    0.602103
  11 C :    0.552641
  12 C :   -0.678401
  13 C :   -0.096054
  14 C :    0.136555
  15 N :    0.556523
  16 O :    0.476042
  17 C :   -0.524884
  18 O :    0.533800
  19 C :   -0.133724
  20 C :    0.208762
  21 C :    0.217824
  22 C :    0.201723
  23 C :    0.204809
  24 C :    0.193774
  25 H :   -0.170962
  26 H :   -0.184121
  27 H :   -0.130896
  28 H :   -0.180083
  29 H :   -0.148264
  30 H :   -0.145827
  31 H :   -0.165223
  32 H :   -0.139393
  33 H :   -0.167458
  34 H :   -0.157088
  35 H :   -0.154535
  36 H :   -0.167418
  37 H :   -0.205133
  38 H :   -0.173791
  39 H :   -0.180703
  40 H :   -0.140572
  41 H :   -0.258719
  42 H :   -0.201009
  43 H :   -0.187300
  44 H :   -0.182683
  45 H :   -0.181088
  46 H :   -0.184230
  47 H :   -0.169653
  48 H :   -0.161824
  49 H :   -0.166921

  Mayer bond orders larger than 0.100000
B(  0-C ,  1-C ) :   0.5194 B(  0-C ,  2-C ) :   0.1837 B(  0-C ,  3-C ) :   0.2877
B(  0-C ,  5-C ) :   1.1601 B(  0-C , 12-C ) :  -0.1055 B(  0-C , 47-H ) :   1.6145
B(  1-C ,  2-C ) :   1.1383 B(  1-C ,  5-C ) :   0.1108 B(  1-C , 25-H ) :  -0.1164
B(  1-C , 39-H ) :   1.4777 B(  1-C , 48-H ) :  -0.1425 B(  2-C ,  5-C ) :   0.2027
B(  2-C , 11-C ) :   0.4681 B(  2-C , 25-H ) :   1.1549 B(  2-C , 36-H ) :  -0.1548
B(  2-C , 39-H ) :  -0.1428 B(  3-C ,  4-C ) :   1.7828 B(  3-C ,  6-C ) :  -0.1982
B(  3-C , 13-C ) :   0.6106 B(  3-C , 14-C ) :  -0.1668 B(  3-C , 15-N ) :  -0.3573
B(  3-C , 16-O ) :   0.2091 B(  3-C , 17-C ) :   0.9790 B(  3-C , 18-O ) :   0.3918
B(  3-C , 20-C ) :   0.1315 B(  3-C , 49-H ) :  -0.4617 B(  4-C ,  6-C ) :   1.4189
B(  4-C ,  7-C ) :   0.2009 B(  4-C , 12-C ) :   0.9563 B(  4-C , 13-C ) :  -0.2819
B(  4-C , 16-O ) :   0.1147 B(  4-C , 17-C ) :   0.8480 B(  4-C , 49-H ) :   1.6677
B(  5-C ,  8-C ) :   0.5713 B(  5-C , 30-H ) :  -0.2146 B(  5-C , 47-H ) :  -0.1341
B(  5-C , 48-H ) :   1.4070 B(  6-C ,  7-C ) :   0.9644 B(  6-C ,  9-C ) :   0.1512
B(  6-C , 10-C ) :   0.3447 B(  6-C , 26-H ) :   0.8959 B(  6-C , 33-H ) :  -0.1178
B(  6-C , 49-H ) :   0.1886 B(  7-C ,  9-C ) :   0.7015 B(  7-C , 10-C ) :   0.1205
B(  7-C , 27-H ) :   0.9690 B(  7-C , 28-H ) :   1.0001 B(  8-C ,  9-C ) :   0.9725
B(  8-C , 29-H ) :   1.1255 B(  8-C , 30-H ) :   0.9771 B(  9-C , 31-H ) :   1.1190
B(  9-C , 32-H ) :   0.9204 B( 10-C , 26-H ) :  -0.1682 B( 10-C , 33-H ) :   1.0604
B( 10-C , 34-H ) :   1.1149 B( 10-C , 35-H ) :   1.1594 B( 11-C , 36-H ) :   0.9681
B( 11-C , 37-H ) :   0.9692 B( 11-C , 38-H ) :   1.0071 B( 12-C , 13-C ) :  -0.2781
B( 12-C , 15-N ) :   1.6127 B( 12-C , 16-O ) :   0.2290 B( 12-C , 17-C ) :  -0.3093
B( 12-C , 19-C ) :   0.1296 B( 13-C , 14-C ) :   0.8203 B( 13-C , 15-N ) :  -0.4446
B( 13-C , 17-C ) :   0.4377 B( 13-C , 18-O ) :   0.1522 B( 13-C , 19-C ) :  -0.1876
B( 13-C , 21-C ) :   0.6619 B( 13-C , 22-C ) :   0.1062 B( 13-C , 24-C ) :   0.2131
B( 13-C , 40-H ) :   0.1036 B( 13-C , 42-H ) :  -0.3876 B( 13-C , 43-H ) :  -0.1834
B( 13-C , 44-H ) :   0.1004 B( 13-C , 45-H ) :   0.1008 B( 14-C , 15-N ) :   0.9387
B( 14-C , 17-C ) :  -0.1053 B( 14-C , 20-C ) :   0.1694 B( 14-C , 21-C ) :  -0.1968
B( 14-C , 40-H ) :   0.3423 B( 14-C , 42-H ) :   0.1370 B( 14-C , 44-H ) :  -0.1702
B( 14-C , 46-H ) :   0.1667 B( 15-N , 16-O ) :  -0.1586 B( 15-N , 40-H ) :  -0.1494
B( 15-N , 41-H ) :   1.1907 B( 17-C , 19-C ) :   0.3044 B( 17-C , 20-C ) :  -0.1609
B( 17-C , 42-H ) :   0.1822 B( 17-C , 43-H ) :   0.1215 B( 17-C , 45-H ) :  -0.1787
B( 18-O , 19-C ) :  -0.2232 B( 18-O , 21-C ) :  -0.1101 B( 19-C , 20-C ) :   0.2037
B( 19-C , 21-C ) :   0.2333 B( 19-C , 22-C ) :  -0.2736 B( 19-C , 23-C ) :  -0.1893
B( 19-C , 24-C ) :  -0.1105 B( 19-C , 46-H ) :   0.1007 B( 20-C , 21-C ) :  -0.4707
B( 20-C , 22-C ) :   1.2781 B( 20-C , 23-C ) :   0.1052 B( 20-C , 42-H ) :   1.3027
B( 20-C , 46-H ) :  -0.1254 B( 21-C , 23-C ) :   1.2867 B( 21-C , 43-H ) :   1.3739
B( 22-C , 23-C ) :   0.1370 B( 22-C , 24-C ) :   1.1640 B( 22-C , 42-H ) :  -0.1094
B( 22-C , 44-H ) :   0.9043 B( 22-C , 46-H ) :  -0.2038 B( 23-C , 24-C ) :   1.1241
B( 23-C , 43-H ) :  -0.1258 B( 23-C , 45-H ) :   1.0765 B( 23-C , 46-H ) :  -0.1708
B( 24-C , 42-H ) :  -0.1126 B( 24-C , 46-H ) :   0.4857 B( 25-H , 39-H ) :   0.1471
B( 42-H , 43-H ) :   0.1762 B( 47-H , 48-H ) :   0.1979

MP2 TOTAL ENERGY:    -1056.461025996 Eh
FINAL SINGLE POINT ENERGY     -1056.461025995917

DIPOLE MOMENT
-------------
                                X             Y             Z
Electronic contribution:    -14.19988      -0.18869       8.78323
Nuclear contribution   :     13.68085       0.34918      -8.42328
                        -----------------------------------------
Total Dipole Moment    :     -0.51903       0.16050       0.35996
                        -----------------------------------------
Magnitude (a.u.)       :      0.65170
Magnitude (Debye)      :      1.65650

Rotational constants in cm-1:     0.010695     0.005273     0.004636
Rotational constants in MHz :   320.634140   158.089869   138.998644

                             ****ORCA TERMINATED NORMALLY****
TOTAL RUN TIME: 0 days 2 hours 12 minutes 6 seconds 930 msec
