                         Program Version 4.2.1 -  RELEASE  -
|  1> %pal
|  2>  nprocs 32
|  3> end
|  4> !RI-MP2 aug-cc-pVTZ aug-cc-pVTZ/C TightSCF
|  5> %maxcore 4500
|  6> *xyzfile 0 2  01_1P.xyz
|  7>
|  8>
|  9>                          ****END OF INPUT****

CARTESIAN COORDINATES (ANGSTROEM)
---------------------------------
  C     -0.903945    0.744896   -0.135222
  C     -0.903937   -0.744877   -0.135468
  C      0.268864   -0.000061    0.488192
  C      1.567319    0.000056   -0.162858
  H     -1.577030    1.263506    0.535617
  H     -0.712860    1.257833   -1.069199
  H     -0.712833   -1.257508   -1.069607
  H     -1.576996   -1.263719    0.535217
  H      0.288923   -0.000261    1.571504
  H      2.482217   -0.000404    0.412218
  H      1.638776    0.000465   -1.243616

 Total Charge           Charge          ....    0
 Multiplicity           Mult            ....    2
 Number of Electrons    NEL             ....   31
 Basis Dimension        Dim             ....  345

ORBITAL ENERGIES
----------------
                 SPIN UP ORBITALS
  NO   OCC          E(Eh)            E(eV)
   0   1.0000     -11.230899      -305.6083
   1   1.0000     -11.226959      -305.5011
   2   1.0000     -11.226298      -305.4831
   3   1.0000     -11.225894      -305.4721
   4   1.0000      -1.148641       -31.2561
   5   1.0000      -0.967809       -26.3354
   6   1.0000      -0.825314       -22.4579
   7   1.0000      -0.776103       -21.1188
   8   1.0000      -0.672392       -18.2967
   9   1.0000      -0.623715       -16.9722
  10   1.0000      -0.567849       -15.4520
  11   1.0000      -0.517798       -14.0900
  12   1.0000      -0.515745       -14.0341
  13   1.0000      -0.475051       -12.9268
  14   1.0000      -0.429991       -11.7006
  15   1.0000      -0.312240        -8.4965
  16   0.0000       0.031515         0.8576
  17   0.0000       0.038529         1.0484
  18   0.0000       0.039548         1.0761
  19   0.0000       0.042736         1.1629
  20   0.0000       0.057802         1.5729

                 SPIN DOWN ORBITALS
  NO   OCC          E(Eh)            E(eV)
   0   1.0000     -11.235200      -305.7253
   1   1.0000     -11.223991      -305.4203
   2   1.0000     -11.223270      -305.4007
   3   1.0000     -11.203222      -304.8552
   4   1.0000      -1.138250       -30.9734
   5   1.0000      -0.909981       -24.7618
   6   1.0000      -0.815427       -22.1889
   7   1.0000      -0.758136       -20.6299
   8   1.0000      -0.666510       -18.1366
   9   1.0000      -0.618100       -16.8194
  10   1.0000      -0.557284       -15.1645
  11   1.0000      -0.513626       -13.9765
  12   1.0000      -0.509298       -13.8587
  13   1.0000      -0.422007       -11.4834
  14   1.0000      -0.418335       -11.3835
  15   0.0000       0.031885         0.8676
  16   0.0000       0.038948         1.0598
  17   0.0000       0.039695         1.0802
  18   0.0000       0.040696         1.1074
  19   0.0000       0.057894         1.5754

MULLIKEN ATOMIC CHARGES AND SPIN POPULATIONS
--------------------------------------------
   0 C :   -0.891515    0.101485
   1 C :   -0.891586    0.101584
   2 C :    0.203923   -0.255620
   3 C :   -1.011352    1.186479
   4 H :    0.379923    0.000539
   5 H :    0.350600   -0.000551
   6 H :    0.350680   -0.000552
   7 H :    0.379890    0.000538
   8 H :    0.349248   -0.003420
   9 H :    0.401211   -0.073948
  10 H :    0.378976   -0.056534
Sum of atomic charges         :   -0.0000000

LOEWDIN ATOMIC CHARGES AND SPIN POPULATIONS
-------------------------------------------
   0 C :    0.347845    0.048958
   1 C :    0.347869    0.048997
   2 C :   -0.035256    0.101592
   3 C :    0.591716    0.539648
   4 H :   -0.160346    0.009242
   5 H :   -0.162383    0.005352
   6 H :   -0.162386    0.005359
   7 H :   -0.160350    0.009250
   8 H :   -0.157353   -0.004798
   9 H :   -0.229705    0.121616
  10 H :   -0.219651    0.114786

  Mayer bond orders larger than 0.100000
B(  0-C ,  1-C ) :   1.1424 B(  0-C ,  2-C ) :   0.6978 B(  0-C ,  4-H ) :   0.8129
B(  0-C ,  5-H ) :   0.8509 B(  1-C ,  2-C ) :   0.6978 B(  1-C ,  6-H ) :   0.8508
B(  1-C ,  7-H ) :   0.8130 B(  2-C ,  3-C ) :   0.6927 B(  2-C ,  8-H ) :   0.8818
B(  3-C ,  9-H ) :   0.8508 B(  3-C , 10-H ) :   0.8602

MP2 TOTAL ENERGY:     -156.185456927 Eh
FINAL SINGLE POINT ENERGY      -156.185456927486

DIPOLE MOMENT
-------------
                                X             Y             Z
Electronic contribution:      0.07833       0.00004       0.39691
Nuclear contribution   :     -0.17942      -0.00009      -0.34643
                        -----------------------------------------
Total Dipole Moment    :     -0.10109      -0.00006       0.05047
                        -----------------------------------------
Magnitude (a.u.)       :      0.11299
Magnitude (Debye)      :      0.28719

Rotational constants in cm-1:     0.553628     0.222503     0.198823
Rotational constants in MHz : 16597.361313  6670.473383  5960.557164

                             ****ORCA TERMINATED NORMALLY****
TOTAL RUN TIME: 0 days 0 hours 0 minutes 49 seconds 407 msec
