                         Program Version 4.2.1 -  RELEASE  -
|  1> %pal
|  2>  nprocs 32
|  3> end
|  4> !RI-MP2 aug-cc-pVTZ aug-cc-pVTZ/C TightSCF
|  5> %maxcore 4500
|  6> *xyzfile 1 1  05_19TS.xyz
|  7>
|  8>
|  9>                          ****END OF INPUT****

CARTESIAN COORDINATES (ANGSTROEM)
---------------------------------
  C      1.608758   -0.329377   -0.311197
  C      3.148128    1.833182   -0.328583
  C      4.310381    0.898517   -0.683018
  C      4.142307   -0.499353   -0.117071
  C      2.866613   -1.113616   -0.682337
  H      4.393134    0.837364   -1.773361
  H      5.229919    1.356008   -0.312247
  H      4.069862   -0.462657    0.971069
  H      2.953579   -1.165404   -1.771902
  H      2.755802   -2.131694   -0.308322
  N      1.858619    1.119661   -0.564146
  O      0.817432    1.862181   -0.605850
  C      0.444866   -0.765263   -1.200277
  H      0.330309   -1.846809   -1.120161
  H     -0.493895   -0.300088   -0.902494
  H      0.639609   -0.516739   -2.244114
  C      1.240793   -0.539128    1.166405
  H      0.426549    0.120159    1.471833
  H      0.897380   -1.565918    1.295593
  H      2.083320   -0.389916    1.837890
  C      3.181861    3.056534   -1.243400
  H      2.428153    3.791437   -0.965185
  H      4.162098    3.528280   -1.165325
  H      3.019773    2.768524   -2.282718
  C      3.217874    2.283649    1.138565
  H      4.097900    2.914046    1.270754
  H      2.349207    2.888388    1.406247
  H      3.294123    1.450098    1.834042
  C     -1.426157    3.586260    0.484784
  C     -1.907454    2.353500    0.646000
  C     -0.637750    2.673920    1.213692
  H     -1.546407    4.593897    0.125388
  H      0.357149    2.170360    0.427879
  H     -0.183310    2.648165    2.202440
  C     -2.919707    1.364432    0.449226
  C     -4.001037    1.628831   -0.397844
  C     -2.820354    0.130053    1.098098
  C     -4.967694    0.663353   -0.598362
  H     -4.076137    2.587047   -0.896256
  C     -3.791553   -0.832233    0.899914
  H     -1.986808   -0.067754    1.759735
  C     -4.857252   -0.561678    0.050179
  H     -5.810177    0.857208   -1.248642
  H     -3.730905   -1.786874    1.405172
  C     -5.883438   -1.635356   -0.211971
  F     -7.076443   -1.114153   -0.516774
  F     -5.503371   -2.406297   -1.244506
  F     -6.040285   -2.435259    0.849120
  N      5.301593   -1.317724   -0.404216
  C      5.551443   -2.431807    0.346839
  C      6.770288   -3.232748   -0.025170
  H      7.428551   -3.285413    0.842377
  H      6.460846   -4.250855   -0.262724
  H      7.322099   -2.818031   -0.868955
  O      4.817197   -2.739635    1.267137
  H      5.885133   -1.105405   -1.197156

 Total Charge           Charge          ....    1
 Multiplicity           Mult            ....    1
 Number of Electrons    NEL             ....  210
 Basis Dimension        Dim             .... 1932

ORBITAL ENERGIES
----------------

  NO   OCC          E(Eh)            E(eV)
   0   2.0000     -26.429278      -719.1772
   1   2.0000     -26.429113      -719.1727
   2   2.0000     -26.425172      -719.0655
   3   2.0000     -20.793011      -565.8066
   4   2.0000     -20.595583      -560.4343
   5   2.0000     -15.773394      -429.2159
   6   2.0000     -15.670698      -426.4214
   7   2.0000     -11.605753      -315.8086
   8   2.0000     -11.469171      -312.0920
   9   2.0000     -11.465197      -311.9839
  10   2.0000     -11.454463      -311.6918
  11   2.0000     -11.429049      -311.0002
  12   2.0000     -11.402613      -310.2809
  13   2.0000     -11.400617      -310.2266
  14   2.0000     -11.396521      -310.1151
  15   2.0000     -11.394691      -310.0653
  16   2.0000     -11.390064      -309.9394
  17   2.0000     -11.389401      -309.9214
  18   2.0000     -11.376122      -309.5600
  19   2.0000     -11.375573      -309.5451
  20   2.0000     -11.367213      -309.3176
  21   2.0000     -11.339079      -308.5520
  22   2.0000     -11.335719      -308.4606
  23   2.0000     -11.334228      -308.4200
  24   2.0000     -11.326160      -308.2005
  25   2.0000     -11.326159      -308.2004
  26   2.0000     -11.325062      -308.1706
  27   2.0000     -11.308161      -307.7107
  28   2.0000      -1.820639       -49.5421
  29   2.0000      -1.726719       -46.9864
  30   2.0000      -1.722031       -46.8588
  31   2.0000      -1.625330       -44.2275
  32   2.0000      -1.465453       -39.8770
  33   2.0000      -1.403560       -38.1928
  34   2.0000      -1.329982       -36.1907
  35   2.0000      -1.313037       -35.7295
  36   2.0000      -1.292174       -35.1618
  37   2.0000      -1.222102       -33.2551
  38   2.0000      -1.208594       -32.8875
  39   2.0000      -1.168726       -31.8027
  40   2.0000      -1.155498       -31.4427
  41   2.0000      -1.111456       -30.2443
  42   2.0000      -1.088842       -29.6289
  43   2.0000      -1.072987       -29.1975
  44   2.0000      -1.062775       -28.9196
  45   2.0000      -1.052729       -28.6462
  46   2.0000      -1.044857       -28.4320
  47   2.0000      -1.011945       -27.5364
  48   2.0000      -1.001033       -27.2395
  49   2.0000      -0.979664       -26.6580
  50   2.0000      -0.949339       -25.8328
  51   2.0000      -0.936168       -25.4744
  52   2.0000      -0.933443       -25.4003
  53   2.0000      -0.912176       -24.8216
  54   2.0000      -0.909776       -24.7563
  55   2.0000      -0.904987       -24.6259
  56   2.0000      -0.896229       -24.3876
  57   2.0000      -0.880071       -23.9480
  58   2.0000      -0.876689       -23.8559
  59   2.0000      -0.809758       -22.0346
  60   2.0000      -0.806507       -21.9462
  61   2.0000      -0.801386       -21.8068
  62   2.0000      -0.800016       -21.7695
  63   2.0000      -0.797821       -21.7098
  64   2.0000      -0.780237       -21.2313
  65   2.0000      -0.773942       -21.0600
  66   2.0000      -0.771668       -20.9981
  67   2.0000      -0.756272       -20.5792
  68   2.0000      -0.754741       -20.5375
  69   2.0000      -0.751932       -20.4611
  70   2.0000      -0.745999       -20.2997
  71   2.0000      -0.737443       -20.0669
  72   2.0000      -0.731671       -19.9098
  73   2.0000      -0.730992       -19.8913
  74   2.0000      -0.720867       -19.6158
  75   2.0000      -0.717666       -19.5287
  76   2.0000      -0.705446       -19.1962
  77   2.0000      -0.697564       -18.9817
  78   2.0000      -0.692981       -18.8570
  79   2.0000      -0.685892       -18.6641
  80   2.0000      -0.679378       -18.4868
  81   2.0000      -0.678864       -18.4728
  82   2.0000      -0.674512       -18.3544
  83   2.0000      -0.667960       -18.1761
  84   2.0000      -0.660409       -17.9706
  85   2.0000      -0.651276       -17.7221
  86   2.0000      -0.648410       -17.6441
  87   2.0000      -0.643529       -17.5113
  88   2.0000      -0.639327       -17.3970
  89   2.0000      -0.636335       -17.3156
  90   2.0000      -0.634218       -17.2580
  91   2.0000      -0.632903       -17.2222
  92   2.0000      -0.624597       -16.9962
  93   2.0000      -0.615541       -16.7497
  94   2.0000      -0.606814       -16.5123
  95   2.0000      -0.592886       -16.1333
  96   2.0000      -0.592257       -16.1161
  97   2.0000      -0.588279       -16.0079
  98   2.0000      -0.567381       -15.4392
  99   2.0000      -0.564818       -15.3695
 100   2.0000      -0.504235       -13.7209
 101   2.0000      -0.503769       -13.7083
 102   2.0000      -0.482182       -13.1208
 103   2.0000      -0.478097       -13.0097
 104   2.0000      -0.436587       -11.8801
 105   0.0000      -0.137850        -3.7511
 106   0.0000      -0.079172        -2.1544
 107   0.0000      -0.064966        -1.7678
 108   0.0000      -0.054298        -1.4775
 109   0.0000      -0.047759        -1.2996

MULLIKEN ATOMIC CHARGES
-----------------------
   0 C :    2.353306
   1 C :    1.911303
   2 C :   -1.293199
   3 C :    1.266549
   4 C :   -1.174561
   5 H :    0.174764
   6 H :    0.377737
   7 H :    0.552199
   8 H :    0.191770
   9 H :    0.380307
  10 N :    0.693029
  11 O :   -1.088850
  12 C :   -2.076476
  13 H :    0.156711
  14 H :    0.730698
  15 H :    0.167770
  16 C :   -1.365052
  17 H :    0.598974
  18 H :    0.007227
  19 H :    0.144000
  20 C :   -1.783198
  21 H :    0.293048
  22 H :    0.173511
  23 H :    0.220602
  24 C :   -1.339815
  25 H :    0.110647
  26 H :    0.341674
  27 H :    0.344328
  28 C :   -1.201556
  29 C :    0.445040
  30 C :   -0.379101
  31 H :    0.446195
  32 H :    0.049509
  33 H :    0.448492
  34 C :    3.203345
  35 C :   -1.450713
  36 C :   -0.764999
  37 C :   -0.683261
  38 H :   -0.056860
  39 C :   -0.907159
  40 H :    0.128920
  41 C :    0.929400
  42 H :    0.314786
  43 H :    0.310994
  44 C :    1.349355
  45 F :   -0.407518
  46 F :   -0.421472
  47 F :   -0.402136
  48 N :   -0.636338
  49 C :    0.712410
  50 C :   -0.893891
  51 H :    0.325912
  52 H :    0.321381
  53 H :    0.272434
  54 O :   -1.044399
  55 H :   -0.077772
Sum of atomic charges:    1.0000000

LOEWDIN ATOMIC CHARGES
----------------------
   0 C :   -0.374656
   1 C :   -0.378835
   2 C :    0.332869
   3 C :   -0.104076
   4 C :    0.333366
   5 H :   -0.123015
   6 H :   -0.115884
   7 H :   -0.165574
   8 H :   -0.119944
   9 H :   -0.130239
  10 N :    0.095383
  11 O :    0.733758
  12 C :    0.605890
  13 H :   -0.143339
  14 H :   -0.174353
  15 H :   -0.143593
  16 C :    0.626443
  17 H :   -0.186799
  18 H :   -0.135363
  19 H :   -0.168890
  20 C :    0.602673
  21 H :   -0.162729
  22 H :   -0.145680
  23 H :   -0.146354
  24 C :    0.622680
  25 H :   -0.140042
  26 H :   -0.165691
  27 H :   -0.171971
  28 C :    0.455208
  29 C :    0.010897
  30 C :    0.332507
  31 H :   -0.122274
  32 H :   -0.584005
  33 H :   -0.098097
  34 C :   -0.094030
  35 C :    0.255704
  36 C :    0.242155
  37 C :    0.249207
  38 H :   -0.152172
  39 C :    0.249433
  40 H :   -0.165023
  41 C :   -0.119963
  42 H :   -0.167283
  43 H :   -0.166690
  44 C :   -1.483414
  45 F :    0.531192
  46 F :    0.514233
  47 F :    0.529436
  48 N :    0.592156
  49 C :   -0.662481
  50 C :    0.611438
  51 H :   -0.165248
  52 H :   -0.165695
  53 H :   -0.179113
  54 O :    0.468615
  55 H :   -0.272728

  Mayer bond orders larger than 0.100000
B(  0-C ,  4-C ) :   0.1392 B(  0-C , 10-N ) :   0.9049 B(  0-C , 12-C ) :  -0.2239
B(  0-C , 13-H ) :  -0.2431 B(  0-C , 15-H ) :  -0.2255 B(  0-C , 16-C ) :   0.1290
B(  0-C , 18-H ) :  -0.1791 B(  0-C , 19-H ) :  -0.1186 B(  0-C , 34-C ) :   0.1106
B(  1-C ,  2-C ) :   0.2408 B(  1-C ,  3-C ) :   0.1452 B(  1-C , 10-N ) :   0.7251
B(  1-C , 21-H ) :  -0.1258 B(  1-C , 22-H ) :  -0.1704 B(  1-C , 23-H ) :  -0.1858
B(  1-C , 24-C ) :   0.4487 B(  2-C ,  3-C ) :   0.5013 B(  2-C ,  4-C ) :   0.3317
B(  2-C ,  5-H ) :   1.2848 B(  2-C ,  6-H ) :   0.7969 B(  2-C , 10-N ) :   0.2230
B(  2-C , 20-C ) :  -0.1439 B(  2-C , 48-N ) :   0.1612 B(  3-C ,  4-C ) :   0.7941
B(  3-C ,  7-H ) :   0.8599 B(  3-C , 10-N ) :  -0.2831 B(  3-C , 54-O ) :   0.1319
B(  4-C ,  7-H ) :   0.2038 B(  4-C ,  8-H ) :   1.1924 B(  4-C ,  9-H ) :   0.9363
B(  4-C , 48-N ) :   0.1784 B(  7-H , 48-N ) :  -0.4376 B(  7-H , 49-C ) :  -0.1440
B(  7-H , 54-O ) :  -0.2357 B( 10-N , 11-O ) :  -0.2627 B( 10-N , 20-C ) :  -0.2330
B( 10-N , 29-C ) :   0.1160 B( 11-O , 20-C ) :   0.1441 B( 11-O , 30-C ) :   0.1112
B( 11-O , 32-H ) :   0.2414 B( 12-C , 13-H ) :   1.3482 B( 12-C , 14-H ) :   0.5328
B( 12-C , 15-H ) :   1.3578 B( 12-C , 16-C ) :   0.1002 B( 16-C , 17-H ) :   0.5148
B( 16-C , 18-H ) :   1.4221 B( 16-C , 19-H ) :   1.3460 B( 20-C , 21-H ) :   1.0275
B( 20-C , 22-H ) :   1.2656 B( 20-C , 23-H ) :   1.2284 B( 20-C , 24-C ) :   0.1358
B( 24-C , 25-H ) :   1.2225 B( 24-C , 26-H ) :   0.9510 B( 24-C , 27-H ) :   1.0283
B( 28-C , 29-C ) :   0.6587 B( 28-C , 30-C ) :   1.2470 B( 28-C , 31-H ) :   1.0053
B( 28-C , 32-H ) :   0.6579 B( 28-C , 34-C ) :  -0.5285 B( 28-C , 35-C ) :   0.1073
B( 29-C , 30-C ) :   0.6488 B( 29-C , 32-H ) :  -0.3902 B( 29-C , 35-C ) :   0.5319
B( 29-C , 36-C ) :   0.5214 B( 29-C , 38-H ) :  -0.3348 B( 29-C , 39-C ) :   0.1631
B( 30-C , 32-H ) :   1.2116 B( 30-C , 33-H ) :   0.7255 B( 30-C , 34-C ) :  -0.2798
B( 32-H , 34-C ) :  -0.2463 B( 34-C , 35-C ) :  -0.3416 B( 34-C , 38-H ) :  -0.3826
B( 34-C , 40-H ) :  -0.4619 B( 34-C , 41-C ) :   0.1036 B( 34-C , 42-H ) :  -0.1289
B( 34-C , 43-H ) :  -0.1133 B( 34-C , 44-C ) :   0.1011 B( 35-C , 36-C ) :  -0.5778
B( 35-C , 37-C ) :   1.5460 B( 35-C , 38-H ) :   1.8392 B( 35-C , 39-C ) :   0.1350
B( 35-C , 40-H ) :   0.1821 B( 35-C , 41-C ) :  -0.1119 B( 36-C , 38-H ) :   0.2835
B( 36-C , 39-C ) :   1.4852 B( 36-C , 40-H ) :   1.6092 B( 36-C , 41-C ) :  -0.1815
B( 37-C , 38-H ) :  -0.1134 B( 37-C , 41-C ) :   0.6843 B( 37-C , 42-H ) :   1.0590
B( 38-H , 40-H ) :   0.2649 B( 39-C , 41-C ) :   0.6560 B( 39-C , 43-H ) :   1.0369
B( 41-C , 44-C ) :   0.9402 B( 41-C , 45-F ) :   0.1566 B( 41-C , 47-F ) :   0.1241
B( 44-C , 45-F ) :   0.6905 B( 44-C , 46-F ) :   0.7936 B( 44-C , 47-F ) :   0.7005
B( 48-N , 49-C ) :   1.2010 B( 48-N , 55-H ) :   1.2985 B( 49-C , 50-C ) :   0.4620
B( 49-C , 54-O ) :   1.4745 B( 50-C , 51-H ) :   0.9906 B( 50-C , 52-H ) :   0.9811
B( 50-C , 53-H ) :   1.0007 B( 50-C , 54-O ) :  -0.1342

MP2 TOTAL ENERGY:    -1373.770721358 Eh
FINAL SINGLE POINT ENERGY     -1373.770721358437

DIPOLE MOMENT
-------------
                                X             Y             Z
Electronic contribution:    -69.87402     -12.71458      -0.57296
Nuclear contribution   :     71.06376      16.63438       0.43513
                        -----------------------------------------
Total Dipole Moment    :      1.18973       3.91979      -0.13782
                        -----------------------------------------
Magnitude (a.u.)       :      4.09869
Magnitude (Debye)      :     10.41804

Rotational constants in cm-1:     0.009602     0.002335     0.002003
Rotational constants in MHz :   287.858058    69.994622    60.057660

                             ****ORCA TERMINATED NORMALLY****
TOTAL RUN TIME: 0 days 2 hours 56 minutes 36 seconds 869 msec
