                         Program Version 4.2.1 -  RELEASE  -
|  1> %pal
|  2>  nprocs 32
|  3> end
|  4> !RI-MP2 aug-cc-pVTZ aug-cc-pVTZ/C TightSCF
|  5> %maxcore 4500
|  6> *xyzfile 0 1  04_45R1.xyz
|  7>
|  8>
|  9>                          ****END OF INPUT****

CARTESIAN COORDINATES (ANGSTROEM)
---------------------------------
  H     -2.788145   -0.000059    1.036615
  C     -2.412733    0.000000    0.009300
  C     -0.908055    0.000001   -0.011096
  C     -0.193644   -1.195586   -0.008863
  C      1.194207   -1.198531    0.002030
  C      1.894207   -0.000001    0.008260
  C      1.194209    1.198529    0.002030
  C     -0.193643    1.195587   -0.008863
  H     -2.816432    0.883523   -0.487635
  H     -2.816432   -0.883465   -0.487735
  H     -0.732162   -2.137139   -0.017794
  H      1.730313   -2.140275    0.001824
  H      2.977417   -0.000002    0.013913
  H      1.730316    2.140273    0.001824
  H     -0.732158    2.137140   -0.017794

 Total Charge           Charge          ....    0
 Multiplicity           Mult            ....    1
 Number of Electrons    NEL             ....   50
 Basis Dimension        Dim             ....  506

ORBITAL ENERGIES
----------------

  NO   OCC          E(Eh)            E(eV)
   0   2.0000     -11.239149      -305.8328
   1   2.0000     -11.231514      -305.6250
   2   2.0000     -11.231344      -305.6204
   3   2.0000     -11.227172      -305.5069
   4   2.0000     -11.226662      -305.4930
   5   2.0000     -11.226573      -305.4906
   6   2.0000     -11.223093      -305.3959
   7   2.0000      -1.154749       -31.4223
   8   2.0000      -1.045245       -28.4426
   9   2.0000      -1.012368       -27.5479
  10   2.0000      -0.932855       -25.3843
  11   2.0000      -0.825023       -22.4500
  12   2.0000      -0.797733       -21.7074
  13   2.0000      -0.693414       -18.8688
  14   2.0000      -0.634260       -17.2591
  15   2.0000      -0.629763       -17.1367
  16   2.0000      -0.583127       -15.8677
  17   2.0000      -0.576319       -15.6824
  18   2.0000      -0.566779       -15.4229
  19   2.0000      -0.538900       -14.6642
  20   2.0000      -0.489999       -13.3335
  21   2.0000      -0.486877       -13.2486
  22   2.0000      -0.485219       -13.2035
  23   2.0000      -0.335185        -9.1208
  24   2.0000      -0.324701        -8.8356
  25   0.0000       0.030173         0.8211
  26   0.0000       0.032998         0.8979
  27   0.0000       0.034919         0.9502
  28   0.0000       0.046592         1.2678
  29   0.0000       0.047522         1.2931

MULLIKEN ATOMIC CHARGES
-----------------------
   0 H :    0.309279
   1 C :   -0.809575
   2 C :    1.352080
   3 C :   -0.994728
   4 C :   -0.507571
   5 C :   -0.270657
   6 C :   -0.507554
   7 C :   -0.994741
   8 H :    0.272042
   9 H :    0.272047
  10 H :    0.219503
  11 H :    0.518022
  12 H :    0.404352
  13 H :    0.518034
  14 H :    0.219466
Sum of atomic charges:   -0.0000000

LOEWDIN ATOMIC CHARGES
----------------------
   0 H :   -0.162913
   1 C :    0.575722
   2 C :   -0.132078
   3 C :    0.206724
   4 C :    0.190585
   5 C :    0.186459
   6 C :    0.190585
   7 C :    0.206726
   8 H :   -0.175261
   9 H :   -0.175261
  10 H :   -0.178670
  11 H :   -0.183447
  12 H :   -0.187051
  13 H :   -0.183446
  14 H :   -0.178672

  Mayer bond orders larger than 0.100000
B(  0-H ,  1-C ) :   0.9377 B(  1-C ,  2-C ) :   0.4833 B(  1-C ,  8-H ) :   0.9908
B(  1-C ,  9-H ) :   0.9908 B(  2-C ,  3-C ) :   0.6294 B(  2-C ,  7-C ) :   0.6294
B(  2-C , 10-H ) :  -0.1237 B(  2-C , 14-H ) :  -0.1237 B(  3-C ,  4-C ) :   1.1905
B(  3-C , 10-H ) :   1.2090 B(  3-C , 12-H ) :   0.1240 B(  3-C , 14-H ) :   0.1005
B(  4-C ,  5-C ) :   1.0842 B(  4-C ,  6-C ) :   0.1395 B(  4-C , 11-H ) :   0.7147
B(  4-C , 12-H ) :  -0.1525 B(  5-C ,  6-C ) :   1.0842 B(  5-C , 12-H ) :   0.8933
B(  6-C ,  7-C ) :   1.1905 B(  6-C , 12-H ) :  -0.1525 B(  6-C , 13-H ) :   0.7147
B(  7-C , 10-H ) :   0.1005 B(  7-C , 12-H ) :   0.1240 B(  7-C , 14-H ) :   1.2091

MP2 TOTAL ENERGY:     -270.974141229 Eh
FINAL SINGLE POINT ENERGY      -270.974141228761

DIPOLE MOMENT
-------------
                                X             Y             Z
Electronic contribution:      3.35722      -0.00000      -0.03173
Nuclear contribution   :     -3.51323      -0.00000       0.04404
                        -----------------------------------------
Total Dipole Moment    :     -0.15601      -0.00000       0.01231
                        -----------------------------------------
Magnitude (a.u.)       :      0.15650
Magnitude (Debye)      :      0.39779

Rotational constants in cm-1:     0.186417     0.084542     0.058801
Rotational constants in MHz :  5588.644756  2534.505673  1762.797128

                             ****ORCA TERMINATED NORMALLY****
TOTAL RUN TIME: 0 days 0 hours 2 minutes 2 seconds 880 msec
