                         Program Version 4.2.1 -  RELEASE  -
|  1> %pal
|  2>  nprocs 32
|  3> end
|  4> !RI-MP2 aug-cc-pVTZ aug-cc-pVTZ/C TightSCF
|  5> %maxcore 4500
|  6> *xyzfile 0 1  02_47TS.xyz
|  7>
|  8>
|  9>                          ****END OF INPUT****

CARTESIAN COORDINATES (ANGSTROEM)
---------------------------------
  C      1.478586    1.269997    0.000000
  C      1.478586   -1.269997    0.000000
  N      1.689025    0.646873    1.174381
  N      1.689025   -0.646873    1.174381
  C      1.346891   -2.755431   -0.000000
  H      0.819613   -3.084573   -0.893690
  H      2.339025   -3.212772    0.000000
  H      0.819613   -3.084573    0.893689
  C      1.346891    2.755431    0.000001
  H      2.339024    3.212772    0.000000
  H      0.819612    3.084573   -0.893688
  H      0.819612    3.084573    0.893690
  C     -3.282593    0.700480   -0.000001
  C     -2.097535    1.449198    0.000001
  C     -0.995069    0.623120    0.000001
  C     -0.995069   -0.623121    0.000000
  C     -2.097535   -1.449199   -0.000001
  C     -3.282593   -0.700481   -0.000001
  H     -4.231537    1.224580   -0.000001
  H     -2.094736    2.530876    0.000001
  H     -2.094736   -2.530876   -0.000002
  H     -4.231537   -1.224580   -0.000002
  N      1.689024    0.646874   -1.174380
  N      1.689025   -0.646873   -1.174381

 Total Charge           Charge          ....    0
 Multiplicity           Mult            ....    1
 Number of Electrons    NEL             ....   98
 Basis Dimension        Dim             ....  874

ORBITAL ENERGIES
----------------

  NO   OCC          E(Eh)            E(eV)
   0   2.0000     -15.633080      -425.3977
   1   2.0000     -15.633045      -425.3968
   2   2.0000     -15.632064      -425.3701
   3   2.0000     -15.632063      -425.3701
   4   2.0000     -11.329160      -308.2821
   5   2.0000     -11.329127      -308.2812
   6   2.0000     -11.275772      -306.8294
   7   2.0000     -11.275758      -306.8290
   8   2.0000     -11.255735      -306.2841
   9   2.0000     -11.254551      -306.2519
  10   2.0000     -11.251697      -306.1742
  11   2.0000     -11.248673      -306.0919
  12   2.0000     -11.240101      -305.8587
  13   2.0000     -11.240101      -305.8587
  14   2.0000      -1.429977       -38.9116
  15   2.0000      -1.323013       -36.0010
  16   2.0000      -1.187298       -32.3080
  17   2.0000      -1.182756       -32.1844
  18   2.0000      -1.043078       -28.3836
  19   2.0000      -1.036481       -28.2041
  20   2.0000      -1.023098       -27.8399
  21   2.0000      -0.996172       -27.1072
  22   2.0000      -0.961740       -26.1703
  23   2.0000      -0.879602       -23.9352
  24   2.0000      -0.854042       -23.2397
  25   2.0000      -0.802058       -21.8251
  26   2.0000      -0.782117       -21.2825
  27   2.0000      -0.707227       -19.2446
  28   2.0000      -0.682606       -18.5747
  29   2.0000      -0.653462       -17.7816
  30   2.0000      -0.649602       -17.6766
  31   2.0000      -0.641142       -17.4464
  32   2.0000      -0.618737       -16.8367
  33   2.0000      -0.596089       -16.2204
  34   2.0000      -0.578748       -15.7485
  35   2.0000      -0.575335       -15.6557
  36   2.0000      -0.559874       -15.2349
  37   2.0000      -0.557715       -15.1762
  38   2.0000      -0.550092       -14.9688
  39   2.0000      -0.539013       -14.6673
  40   2.0000      -0.532804       -14.4983
  41   2.0000      -0.506203       -13.7745
  42   2.0000      -0.502599       -13.6764
  43   2.0000      -0.483959       -13.1692
  44   2.0000      -0.385446       -10.4885
  45   2.0000      -0.380414       -10.3516
  46   2.0000      -0.373894       -10.1742
  47   2.0000      -0.359116        -9.7720
  48   2.0000      -0.359004        -9.7690
  49   0.0000       0.025439         0.6922
  50   0.0000       0.027037         0.7357
  51   0.0000       0.033187         0.9031
  52   0.0000       0.038037         1.0351
  53   0.0000       0.045543         1.2393

MULLIKEN ATOMIC CHARGES
-----------------------
   0 C :    1.394972
   1 C :    1.394964
   2 N :   -0.600875
   3 N :   -0.600848
   4 C :   -1.120385
   5 H :    0.279895
   6 H :    0.326564
   7 H :    0.279898
   8 C :   -1.120392
   9 H :    0.326572
  10 H :    0.279886
  11 H :    0.279888
  12 C :   -0.291958
  13 C :   -0.999615
  14 C :    0.426901
  15 C :    0.426893
  16 C :   -0.999562
  17 C :   -0.291979
  18 H :    0.504292
  19 H :    0.401156
  20 H :    0.401159
  21 H :    0.504289
  22 N :   -0.600866
  23 N :   -0.600849
Sum of atomic charges:    0.0000000

LOEWDIN ATOMIC CHARGES
----------------------
   0 C :   -0.564508
   1 C :   -0.564507
   2 N :    0.233923
   3 N :    0.233923
   4 C :    0.560607
   5 H :   -0.173080
   6 H :   -0.162293
   7 H :   -0.173081
   8 C :    0.560607
   9 H :   -0.162293
  10 H :   -0.173081
  11 H :   -0.173081
  12 C :    0.192600
  13 C :    0.186951
  14 C :    0.038433
  15 C :    0.038433
  16 C :    0.186951
  17 C :    0.192600
  18 H :   -0.184759
  19 H :   -0.188716
  20 H :   -0.188717
  21 H :   -0.184759
  22 N :    0.233923
  23 N :    0.233924

  Mayer bond orders larger than 0.100000
B(  0-C ,  2-N ) :   0.7059 B(  0-C ,  3-N ) :   0.1600 B(  0-C ,  8-C ) :   0.1362
B(  0-C , 14-C ) :   0.2698 B(  0-C , 22-N ) :   0.7059 B(  0-C , 23-N ) :   0.1600
B(  1-C ,  2-N ) :   0.1600 B(  1-C ,  3-N ) :   0.7059 B(  1-C ,  4-C ) :   0.1363
B(  1-C , 15-C ) :   0.2698 B(  1-C , 22-N ) :   0.1600 B(  1-C , 23-N ) :   0.7059
B(  2-N ,  3-N ) :  -0.1829 B(  2-N ,  8-C ) :   0.1011 B(  2-N , 14-C ) :   0.1373
B(  2-N , 22-N ) :   0.2733 B(  3-N ,  4-C ) :   0.1011 B(  3-N , 15-C ) :   0.1373
B(  3-N , 23-N ) :   0.2733 B(  4-C ,  5-H ) :   1.0632 B(  4-C ,  6-H ) :   0.9395
B(  4-C ,  7-H ) :   1.0632 B(  4-C , 23-N ) :   0.1011 B(  8-C ,  9-H ) :   0.9395
B(  8-C , 10-H ) :   1.0632 B(  8-C , 11-H ) :   1.0632 B(  8-C , 22-N ) :   0.1011
B( 12-C , 13-C ) :   1.1056 B( 12-C , 17-C ) :   1.0303 B( 12-C , 18-H ) :   0.7287
B( 13-C , 14-C ) :   0.3815 B( 13-C , 15-C ) :   0.1383 B( 13-C , 16-C ) :   0.2945
B( 13-C , 18-H ) :  -0.1259 B( 13-C , 19-H ) :   0.9729 B( 14-C , 15-C ) :   1.9834
B( 14-C , 16-C ) :   0.1384 B( 14-C , 22-N ) :   0.1373 B( 15-C , 16-C ) :   0.3815
B( 15-C , 23-N ) :   0.1373 B( 16-C , 17-C ) :   1.1056 B( 16-C , 20-H ) :   0.9729
B( 16-C , 21-H ) :  -0.1259 B( 17-C , 21-H ) :   0.7287 B( 22-N , 23-N ) :  -0.1829

MP2 TOTAL ENERGY:     -604.723545819 Eh
FINAL SINGLE POINT ENERGY      -604.723545819267

DIPOLE MOMENT
-------------
                                X             Y             Z
Electronic contribution:      3.58215      -0.00000       0.00000
Nuclear contribution   :     -4.60221       0.00000      -0.00000
                        -----------------------------------------
Total Dipole Moment    :     -1.02006      -0.00000       0.00000
                        -----------------------------------------
Magnitude (a.u.)       :      1.02006
Magnitude (Debye)      :      2.59279

Rotational constants in cm-1:     0.035735     0.021521     0.015408
Rotational constants in MHz :  1071.310859   645.181173   461.926706

                             ****ORCA TERMINATED NORMALLY****
TOTAL RUN TIME: 0 days 0 hours 13 minutes 21 seconds 275 msec
