                         Program Version 4.2.1 -  RELEASE  -
|  1> %pal
|  2>  nprocs 32
|  3> end
|  4> !RI-MP2 aug-cc-pVTZ aug-cc-pVTZ/C TightSCF
|  5> %maxcore 4500
|  6> *xyzfile -1 1  05_1P.xyz
|  7>
|  8>
|  9>                          ****END OF INPUT****

CARTESIAN COORDINATES (ANGSTROEM)
---------------------------------
  O     -0.326863   -0.695573    1.398723
  C     -0.454451   -0.439600    0.101567
  C     -1.851411    0.147973   -0.135182
  O     -2.808963   -0.812570   -0.248777
  O     -2.176899    1.315244   -0.137655
  C      0.579976    0.608423   -0.454824
  C      1.951346    0.059860   -0.293195
  H      0.458671    1.532688    0.105848
  H      0.407122    0.782404   -1.520873
  O      2.455627   -0.808889   -0.968886
  O      2.648642    0.623901    0.721236
  H     -3.649715   -0.336588   -0.228943
  H      3.465311    0.111924    0.789808
  H     -0.366501   -1.327267   -0.573158

 Total Charge           Charge          ....   -1
 Multiplicity           Mult            ....    1
 Number of Electrons    NEL             ....   70
 Basis Dimension        Dim             ....  529

ORBITAL ENERGIES
----------------

  NO   OCC          E(Eh)            E(eV)
   0   2.0000     -20.471592      -557.0603
   1   2.0000     -20.459090      -556.7201
   2   2.0000     -20.404475      -555.2340
   3   2.0000     -20.392204      -554.9001
   4   2.0000     -20.257650      -551.2387
   5   2.0000     -11.240775      -305.8770
   6   2.0000     -11.216389      -305.2135
   7   2.0000     -11.112724      -302.3926
   8   2.0000     -11.077518      -301.4346
   9   2.0000      -1.324447       -36.0400
  10   2.0000      -1.309061       -35.6214
  11   2.0000      -1.215743       -33.0820
  12   2.0000      -1.200833       -32.6763
  13   2.0000      -1.079212       -29.3669
  14   2.0000      -0.879997       -23.9459
  15   2.0000      -0.763417       -20.7736
  16   2.0000      -0.677300       -18.4303
  17   2.0000      -0.606549       -16.5050
  18   2.0000      -0.566375       -15.4119
  19   2.0000      -0.552252       -15.0276
  20   2.0000      -0.539329       -14.6759
  21   2.0000      -0.510194       -13.8831
  22   2.0000      -0.490995       -13.3606
  23   2.0000      -0.474054       -12.8997
  24   2.0000      -0.445972       -12.1355
  25   2.0000      -0.426233       -11.5984
  26   2.0000      -0.411034       -11.1848
  27   2.0000      -0.368645       -10.0313
  28   2.0000      -0.347683        -9.4609
  29   2.0000      -0.337333        -9.1793
  30   2.0000      -0.324276        -8.8240
  31   2.0000      -0.310056        -8.4371
  32   2.0000      -0.305410        -8.3106
  33   2.0000      -0.171212        -4.6589
  34   2.0000      -0.167007        -4.5445
  35   0.0000       0.117858         3.2071
  36   0.0000       0.118597         3.2272
  37   0.0000       0.131359         3.5745
  38   0.0000       0.142755         3.8846
  39   0.0000       0.153020         4.1639

MULLIKEN ATOMIC CHARGES
-----------------------
   0 O :   -1.195100
   1 C :    0.693143
   2 C :    0.489695
   3 O :   -0.462864
   4 O :   -0.851629
   5 C :   -0.077053
   6 C :    0.532192
   7 H :    0.286466
   8 H :    0.263608
   9 O :   -0.876940
  10 O :   -0.456483
  11 H :    0.214565
  12 H :    0.226645
  13 H :    0.213753
Sum of atomic charges:   -1.0000000

LOEWDIN ATOMIC CHARGES
----------------------
   0 O :    0.224520
   1 C :   -0.656384
   2 C :   -0.838502
   3 O :    0.804433
   4 O :    0.410711
   5 C :    0.212554
   6 C :   -0.835568
   7 H :   -0.188479
   8 H :   -0.173170
   9 O :    0.424424
  10 O :    0.826361
  11 H :   -0.517229
  12 H :   -0.501432
  13 H :   -0.192238

  Mayer bond orders larger than 0.100000
B(  0-O ,  1-C ) :   0.8302 B(  0-O ,  2-C ) :   0.1491 B(  0-O ,  5-C ) :   0.1317
B(  1-C ,  2-C ) :   0.3473 B(  1-C ,  5-C ) :   0.8812 B(  1-C ,  6-C ) :   0.1572
B(  1-C , 13-H ) :   1.0829 B(  2-C ,  3-O ) :   0.8825 B(  2-C ,  4-O ) :   1.3910
B(  3-O , 11-H ) :   0.9782 B(  5-C ,  6-C ) :   0.4748 B(  5-C ,  7-H ) :   0.9356
B(  5-C ,  8-H ) :   0.9442 B(  6-C ,  9-O ) :   1.3601 B(  6-C , 10-O ) :   0.8708
B( 10-O , 12-H ) :   0.9490

MP2 TOTAL ENERGY:     -530.800079081 Eh
FINAL SINGLE POINT ENERGY      -530.800079080523

DIPOLE MOMENT
-------------
                                X             Y             Z
Electronic contribution:      0.01258      -0.04240       0.09795
Nuclear contribution   :      0.30343       0.73734      -1.37813
                        -----------------------------------------
Total Dipole Moment    :      0.31600       0.69494      -1.28018
                        -----------------------------------------
Magnitude (a.u.)       :      1.49052
Magnitude (Debye)      :      3.78861

Rotational constants in cm-1:     0.122399     0.028327     0.027790
Rotational constants in MHz :  3669.428593   849.227132   833.130161

                             ****ORCA TERMINATED NORMALLY****
TOTAL RUN TIME: 0 days 0 hours 1 minutes 58 seconds 807 msec
