                         Program Version 4.2.1 -  RELEASE  -
|  1> %pal
|  2>  nprocs 32
|  3> end
|  4> !RI-MP2 aug-cc-pVTZ aug-cc-pVTZ/C TightSCF
|  5> %maxcore 4500
|  6> *xyzfile 0 2  04_8R.xyz
|  7>
|  8>
|  9>                          ****END OF INPUT****

CARTESIAN COORDINATES (ANGSTROEM)
---------------------------------
  C      1.667901    0.145961    0.002624
  C      0.361218   -0.605069   -0.002014
  C     -0.885603    0.265429   -0.049802
  H      0.335239   -1.248895    0.885221
  H      0.370766   -1.294497   -0.855343
  C     -2.148109   -0.520465   -0.072099
  H     -0.823420    0.924516   -0.928760
  H     -0.881916    0.956126    0.800936
  C     -3.462100    0.153613    0.093846
  H     -2.123486   -1.547771   -0.421541
  N      1.669183    1.412875   -0.038471
  C      2.903863   -0.715805    0.059415
  H      2.897114   -1.332465    0.961954
  H      3.812272   -0.112296    0.055146
  H      2.932614   -1.398580   -0.793755
  H     -3.715816    0.771898   -0.781037
  H     -3.456499    0.832598    0.953710
  H     -4.275569   -0.560918    0.230102
  H      2.621402    1.778174   -0.029152

 Total Charge           Charge          ....    0
 Multiplicity           Mult            ....    2
 Number of Electrons    NEL             ....   55
 Basis Dimension        Dim             ....  598

ORBITAL ENERGIES
----------------
                 SPIN UP ORBITALS
  NO   OCC          E(Eh)            E(eV)
   0   1.0000     -15.536856      -422.7793
   1   1.0000     -11.281907      -306.9963
   2   1.0000     -11.233670      -305.6837
   3   1.0000     -11.226973      -305.5015
   4   1.0000     -11.221305      -305.3472
   5   1.0000     -11.211116      -305.0700
   6   1.0000     -11.210541      -305.0543
   7   1.0000      -1.213682       -33.0260
   8   1.0000      -1.080050       -29.3897
   9   1.0000      -1.013111       -27.5681
  10   1.0000      -0.978382       -26.6231
  11   1.0000      -0.884080       -24.0570
  12   1.0000      -0.782558       -21.2945
  13   1.0000      -0.740511       -20.1503
  14   1.0000      -0.642449       -17.4819
  15   1.0000      -0.635900       -17.3037
  16   1.0000      -0.611023       -16.6268
  17   1.0000      -0.593451       -16.1486
  18   1.0000      -0.584971       -15.9179
  19   1.0000      -0.559477       -15.2241
  20   1.0000      -0.555706       -15.1215
  21   1.0000      -0.520747       -14.1702
  22   1.0000      -0.495507       -13.4834
  23   1.0000      -0.481742       -13.1089
  24   1.0000      -0.478920       -13.0321
  25   1.0000      -0.416737       -11.3400
  26   1.0000      -0.408638       -11.1196
  27   1.0000      -0.320744        -8.7279
  28   0.0000       0.025791         0.7018
  29   0.0000       0.032170         0.8754
  30   0.0000       0.037735         1.0268
  31   0.0000       0.039882         1.0852
  32   0.0000       0.048206         1.3117

                 SPIN DOWN ORBITALS
  NO   OCC          E(Eh)            E(eV)
   0   1.0000     -15.536608      -422.7726
   1   1.0000     -11.282137      -307.0026
   2   1.0000     -11.233649      -305.6831
   3   1.0000     -11.226558      -305.4902
   4   1.0000     -11.214250      -305.1553
   5   1.0000     -11.213756      -305.1418
   6   1.0000     -11.197449      -304.6981
   7   1.0000      -1.213351       -33.0170
   8   1.0000      -1.057918       -28.7874
   9   1.0000      -1.002528       -27.2802
  10   1.0000      -0.973170       -26.4813
  11   1.0000      -0.878678       -23.9101
  12   1.0000      -0.744237       -20.2517
  13   1.0000      -0.735502       -20.0140
  14   1.0000      -0.640549       -17.4302
  15   1.0000      -0.626523       -17.0486
  16   1.0000      -0.609114       -16.5748
  17   1.0000      -0.585636       -15.9360
  18   1.0000      -0.573678       -15.6106
  19   1.0000      -0.550215       -14.9721
  20   1.0000      -0.540602       -14.7105
  21   1.0000      -0.516740       -14.0612
  22   1.0000      -0.485408       -13.2086
  23   1.0000      -0.477500       -12.9934
  24   1.0000      -0.472363       -12.8536
  25   1.0000      -0.415339       -11.3019
  26   1.0000      -0.408115       -11.1054
  27   0.0000       0.025825         0.7027
  28   0.0000       0.032385         0.8812
  29   0.0000       0.037825         1.0293
  30   0.0000       0.039897         1.0856
  31   0.0000       0.048236         1.3126

MULLIKEN ATOMIC CHARGES AND SPIN POPULATIONS
--------------------------------------------
   0 C :    0.683298   -0.015246
   1 C :   -0.356862    0.045966
   2 C :    0.088321   -0.244281
   3 H :    0.206728   -0.004423
   4 H :    0.186024   -0.005130
   5 C :   -0.729875    1.308296
   6 H :    0.225958    0.070397
   7 H :    0.207412    0.022443
   8 C :   -0.862082   -0.197427
   9 H :    0.392099   -0.091673
  10 N :   -0.826812    0.007271
  11 C :   -0.956379    0.001338
  12 H :    0.290356   -0.000039
  13 H :    0.273207   -0.000052
  14 H :    0.293032   -0.000369
  15 H :    0.282291    0.069176
  16 H :    0.269174    0.026379
  17 H :    0.271137    0.007840
  18 H :    0.062972   -0.000468
Sum of atomic charges         :    0.0000000

LOEWDIN ATOMIC CHARGES AND SPIN POPULATIONS
-------------------------------------------
   0 C :   -0.298015   -0.001714
   1 C :    0.246175    0.007201
   2 C :    0.215632    0.117739
   3 H :   -0.142064    0.002969
   4 H :   -0.145006   -0.000335
   5 C :    0.271979    0.550713
   6 H :   -0.147892    0.026669
   7 H :   -0.154747    0.012664
   8 C :    0.540182    0.119462
   9 H :   -0.189420    0.115495
  10 N :    0.682397    0.004866
  11 C :    0.594335   -0.000691
  12 H :   -0.164940   -0.000089
  13 H :   -0.178413   -0.000009
  14 H :   -0.165076   -0.000098
  15 H :   -0.172089    0.028529
  16 H :   -0.179739    0.013002
  17 H :   -0.187582    0.002825
  18 H :   -0.425718    0.000803

  Mayer bond orders larger than 0.100000
B(  0-C ,  1-C ) :   0.8180 B(  0-C , 10-N ) :   0.9911 B(  0-C , 11-C ) :   0.9157
B(  1-C ,  2-C ) :   0.9811 B(  1-C ,  3-H ) :   0.9586 B(  1-C ,  4-H ) :   0.9703
B(  1-C , 10-N ) :   0.1348 B(  2-C ,  5-C ) :   0.5021 B(  2-C ,  6-H ) :   0.9531
B(  2-C ,  7-H ) :   1.0086 B(  5-C ,  8-C ) :   0.8378 B(  5-C ,  9-H ) :   0.7997
B(  8-C , 15-H ) :   0.9245 B(  8-C , 16-H ) :   0.9663 B(  8-C , 17-H ) :   0.9919
B( 10-N , 18-H ) :   1.0420 B( 11-C , 12-H ) :   0.9588 B( 11-C , 13-H ) :   0.9936
B( 11-C , 14-H ) :   0.9573

MP2 TOTAL ENERGY:     -289.921188727 Eh
FINAL SINGLE POINT ENERGY      -289.921188727358

DIPOLE MOMENT
-------------
                                X             Y             Z
Electronic contribution:      2.93623       1.57005      -0.09043
Nuclear contribution   :     -2.41745      -2.33991       0.08129
                        -----------------------------------------
Total Dipole Moment    :      0.51878      -0.76986      -0.00914
                        -----------------------------------------
Magnitude (a.u.)       :      0.92839
Magnitude (Debye)      :      2.35978

Rotational constants in cm-1:     0.256636     0.035110     0.031655
Rotational constants in MHz :  7693.759088  1052.584296   948.991991

                             ****ORCA TERMINATED NORMALLY****
TOTAL RUN TIME: 0 days 0 hours 4 minutes 46 seconds 796 msec
