                         Program Version 4.2.1 -  RELEASE  -
|  1> %pal
|  2>  nprocs 32
|  3> end
|  4> !RI-MP2 aug-cc-pVTZ aug-cc-pVTZ/C TightSCF
|  5> %maxcore 4500
|  6> *xyzfile 0 1  05_17R2.xyz
|  7>
|  8>
|  9>                          ****END OF INPUT****

CARTESIAN COORDINATES (ANGSTROEM)
---------------------------------
  C     -6.279991    0.978827   -0.262693
  C     -4.889604    0.801027    0.243817
  H     -6.484025    2.032937   -0.471762
  H     -7.009183    0.661226    0.488243
  H     -6.452917    0.406664   -1.175010
  C     -3.953447    0.041609   -0.329573
  C     -2.617562   -0.092804    0.206908
  C     -1.650187   -0.841138   -0.336390
  H     -2.383164    0.452994    1.117013
  C     -0.322936   -0.910872    0.285501
  H     -1.815758   -1.413075   -1.242573
  O     -0.005719   -0.320818    1.298041
  S      0.801426   -1.966597   -0.604290
  C      2.266041   -1.908099    0.472470
  C      3.244002   -0.789716    0.155646
  H      2.756340   -2.872837    0.344732
  H      1.905998   -1.843412    1.499967
  N      2.652621    0.508165    0.396998
  H      3.570386   -0.832429   -0.884785
  H      4.137857   -0.928628    0.774984
  C      3.135222    1.626725   -0.196153
  O      4.112867    1.610818   -0.923772
  C      2.382087    2.901666    0.104875
  H      3.056037    3.594611    0.610076
  H      1.498538    2.743288    0.724070
  H      2.085706    3.359550   -0.839075
  H      1.820562    0.551623    0.968862
  H     -4.630896    1.338438    1.153877
  H     -4.185586   -0.505902   -1.239574

 Total Charge           Charge          ....    0
 Multiplicity           Mult            ....    1
 Number of Electrons    NEL             ....  114
 Basis Dimension        Dim             ....  993

ORBITAL ENERGIES
----------------

  NO   OCC          E(Eh)            E(eV)
   0   2.0000     -91.974825     -2502.7622
   1   2.0000     -20.556768      -559.3781
   2   2.0000     -20.499591      -557.8222
   3   2.0000     -15.567509      -423.6135
   4   2.0000     -11.370795      -309.4151
   5   2.0000     -11.333098      -308.3893
   6   2.0000     -11.275372      -306.8185
   7   2.0000     -11.271577      -306.7152
   8   2.0000     -11.267345      -306.6001
   9   2.0000     -11.264946      -306.5348
  10   2.0000     -11.250154      -306.1322
  11   2.0000     -11.247150      -306.0505
  12   2.0000     -11.243855      -305.9609
  13   2.0000     -11.223705      -305.4125
  14   2.0000      -8.976310      -244.2578
  15   2.0000      -6.657441      -181.1582
  16   2.0000      -6.656339      -181.1282
  17   2.0000      -6.655757      -181.1123
  18   2.0000      -1.407594       -38.3026
  19   2.0000      -1.366696       -37.1897
  20   2.0000      -1.223457       -33.2920
  21   2.0000      -1.133252       -30.8374
  22   2.0000      -1.088596       -29.6222
  23   2.0000      -1.068365       -29.0717
  24   2.0000      -1.008977       -27.4557
  25   2.0000      -0.980786       -26.6886
  26   2.0000      -0.949988       -25.8505
  27   2.0000      -0.875452       -23.8223
  28   2.0000      -0.821497       -22.3541
  29   2.0000      -0.785179       -21.3658
  30   2.0000      -0.780876       -21.2487
  31   2.0000      -0.737271       -20.0622
  32   2.0000      -0.687473       -18.7071
  33   2.0000      -0.675640       -18.3851
  34   2.0000      -0.664484       -18.0815
  35   2.0000      -0.656075       -17.8527
  36   2.0000      -0.640997       -17.4424
  37   2.0000      -0.624770       -17.0008
  38   2.0000      -0.607605       -16.5338
  39   2.0000      -0.590845       -16.0777
  40   2.0000      -0.586547       -15.9608
  41   2.0000      -0.582356       -15.8467
  42   2.0000      -0.572904       -15.5895
  43   2.0000      -0.561578       -15.2813
  44   2.0000      -0.558447       -15.1961
  45   2.0000      -0.544583       -14.8189
  46   2.0000      -0.535530       -14.5725
  47   2.0000      -0.525358       -14.2957
  48   2.0000      -0.520174       -14.1547
  49   2.0000      -0.501024       -13.6336
  50   2.0000      -0.467706       -12.7269
  51   2.0000      -0.458204       -12.4684
  52   2.0000      -0.420597       -11.4450
  53   2.0000      -0.408195       -11.1076
  54   2.0000      -0.382195       -10.4000
  55   2.0000      -0.377867       -10.2823
  56   2.0000      -0.338002        -9.1975
  57   0.0000       0.020706         0.5634
  58   0.0000       0.027993         0.7617
  59   0.0000       0.030863         0.8398
  60   0.0000       0.035121         0.9557
  61   0.0000       0.038989         1.0609

MULLIKEN ATOMIC CHARGES
-----------------------
   0 C :   -0.810839
   1 C :   -0.495391
   2 H :    0.285056
   3 H :    0.286648
   4 H :    0.301044
   5 C :   -0.012301
   6 C :    0.089026
   7 C :   -0.364020
   8 H :    0.245358
   9 C :    1.074315
  10 H :    0.238963
  11 O :   -1.007413
  12 S :   -0.397414
  13 C :   -0.414146
  14 C :   -0.439050
  15 H :    0.293845
  16 H :    0.221287
  17 N :   -0.162217
  18 H :    0.353519
  19 H :    0.261533
  20 C :    0.317479
  21 O :   -0.916954
  22 C :   -0.706705
  23 H :    0.291307
  24 H :    0.344422
  25 H :    0.271666
  26 H :    0.399425
  27 H :    0.238263
  28 H :    0.213293
Sum of atomic charges:   -0.0000000

LOEWDIN ATOMIC CHARGES
----------------------
   0 C :    0.566481
   1 C :    0.219215
   2 H :   -0.171185
   3 H :   -0.171223
   4 H :   -0.177991
   5 C :    0.198547
   6 C :    0.178502
   7 C :    0.108397
   8 H :   -0.183442
   9 C :   -0.943058
  10 H :   -0.222061
  11 O :    0.439548
  12 S :    1.258974
  13 C :   -0.039816
  14 C :    0.117113
  15 H :   -0.220967
  16 H :   -0.228777
  17 N :    0.542329
  18 H :   -0.169396
  19 H :   -0.136790
  20 C :   -0.687311
  21 O :    0.436007
  22 C :    0.595943
  23 H :   -0.172186
  24 H :   -0.183620
  25 H :   -0.173830
  26 H :   -0.422876
  27 H :   -0.173812
  28 H :   -0.182716

  Mayer bond orders larger than 0.100000
B(  0-C ,  1-C ) :   0.7000 B(  0-C ,  2-H ) :   0.9780 B(  0-C ,  3-H ) :   0.9731
B(  0-C ,  4-H ) :   0.9520 B(  1-C ,  5-C ) :   0.8892 B(  1-C ,  6-C ) :  -0.1291
B(  1-C ,  7-C ) :   0.1275 B(  1-C ,  9-C ) :   0.1395 B(  1-C , 27-H ) :   1.1928
B(  5-C ,  6-C ) :   0.3610 B(  5-C ,  7-C ) :  -0.1996 B(  5-C , 28-H ) :   1.2116
B(  6-C ,  7-C ) :   0.8911 B(  6-C ,  8-H ) :   1.2525 B(  7-C ,  9-C ) :   0.6947
B(  7-C , 10-H ) :   1.2423 B(  7-C , 11-O ) :  -0.1428 B(  9-C , 11-O ) :   1.2764
B(  9-C , 12-S ) :   0.9064 B(  9-C , 13-C ) :  -0.1280 B(  9-C , 27-H ) :   0.1147
B( 11-O , 12-S ) :   0.1212 B( 12-S , 13-C ) :   1.0355 B( 13-C , 14-C ) :   0.9233
B( 13-C , 15-H ) :   0.9207 B( 13-C , 16-H ) :   0.9865 B( 14-C , 17-N ) :   0.9187
B( 14-C , 18-H ) :   0.9400 B( 14-C , 19-H ) :   0.9554 B( 14-C , 20-C ) :  -0.1044
B( 17-N , 20-C ) :   1.1486 B( 17-N , 21-O ) :  -0.1026 B( 17-N , 26-H ) :   0.7894
B( 20-C , 21-O ) :   1.4055 B( 20-C , 22-C ) :   0.5626 B( 20-C , 26-H ) :  -0.1001
B( 21-O , 22-C ) :  -0.1288 B( 22-C , 23-H ) :   0.9832 B( 22-C , 24-H ) :   0.8697
B( 22-C , 25-H ) :   1.0019

MP2 TOTAL ENERGY:     -991.882116300 Eh
FINAL SINGLE POINT ENERGY      -991.882116299858

DIPOLE MOMENT
-------------
                                X             Y             Z
Electronic contribution:      9.65365      -7.21157      -1.29710
Nuclear contribution   :    -12.12011       6.85483       1.86293
                        -----------------------------------------
Total Dipole Moment    :     -2.46645      -0.35674       0.56583
                        -----------------------------------------
Magnitude (a.u.)       :      2.55555
Magnitude (Debye)      :      6.49568

Rotational constants in cm-1:     0.032138     0.007844     0.006693
Rotational constants in MHz :   963.480384   235.153201   200.665632

                             ****ORCA TERMINATED NORMALLY****
TOTAL RUN TIME: 0 days 0 hours 15 minutes 28 seconds 277 msec
