                         Program Version 4.2.1 -  RELEASE  -
|  1> %pal
|  2>  nprocs 32
|  3> end
|  4> !RI-MP2 aug-cc-pVTZ aug-cc-pVTZ/C TightSCF
|  5> %maxcore 4500
|  6> *xyzfile 0 1  02_39R.xyz
|  7>
|  8>
|  9>                          ****END OF INPUT****

CARTESIAN COORDINATES (ANGSTROEM)
---------------------------------
  C      5.690299   -0.508888   -0.965221
  C      4.597784   -0.866247   -1.741636
  C      3.303828   -0.704345   -1.270412
  C      3.083539   -0.174085    0.003676
  C      4.189027    0.185800    0.780891
  C      5.477038    0.018597    0.300285
  H      6.697377   -0.639281   -1.341306
  H      4.748518   -1.279223   -2.731822
  H      2.461174   -0.984444   -1.883750
  H      4.053928    0.602964    1.771724
  H      6.317513    0.304567    0.920973
  C      1.717186    0.002864    0.523916
  C      0.465901   -0.242083   -0.182637
  O      0.356728   -0.632744   -1.312011
  O     -0.597947    0.058083    0.614357
  N      1.582974    0.448285    1.752305
  N      1.500465    0.830821    2.802803
  C     -1.876121   -0.197617    0.107873
  C     -2.671397    0.826975   -0.200392
  C     -2.255105   -1.618809    0.080435
  C     -3.188965   -2.094560   -0.840244
  C     -1.686522   -2.515194    0.985420
  C     -3.562129   -3.428403   -0.838650
  H     -3.600880   -1.420872   -1.580860
  C     -2.057805   -3.850630    0.982312
  H     -0.958767   -2.159166    1.703459
  C     -2.999436   -4.311998    0.073328
  H     -4.282981   -3.784180   -1.564857
  H     -1.610909   -4.533282    1.694943
  H     -3.286590   -5.356365    0.068467
  C     -2.355631    2.244542   -0.209870
  C     -0.982896    2.858910   -0.021294
  C     -3.280874    3.198021   -0.364042
  C     -1.191127    4.329643   -0.429660
  H     -0.218835    2.372646   -0.629218
  C     -2.705167    4.582547   -0.291485
  H     -0.589284    5.020427    0.161751
  H     -0.900473    4.456226   -1.474744
  H     -2.955220    5.046752    0.670552
  H     -3.093781    5.247652   -1.066646
  H     -0.670083    2.763066    1.023085
  H     -4.340413    3.002522   -0.483875
  H     -3.693184    0.573288   -0.457962

 Total Charge           Charge          ....    0
 Multiplicity           Mult            ....    1
 Number of Electrons    NEL             ....  174
 Basis Dimension        Dim             .... 1564

ORBITAL ENERGIES
----------------

  NO   OCC          E(Eh)            E(eV)
   0   2.0000     -20.615944      -560.9884
   1   2.0000     -20.549088      -559.1691
   2   2.0000     -15.770181      -429.1284
   3   2.0000     -15.707137      -427.4129
   4   2.0000     -11.400333      -310.2188
   5   2.0000     -11.305024      -307.6253
   6   2.0000     -11.301530      -307.5303
   7   2.0000     -11.267997      -306.6178
   8   2.0000     -11.248766      -306.0945
   9   2.0000     -11.240995      -305.8830
  10   2.0000     -11.239462      -305.8413
  11   2.0000     -11.238142      -305.8054
  12   2.0000     -11.237181      -305.7792
  13   2.0000     -11.236965      -305.7734
  14   2.0000     -11.236279      -305.7547
  15   2.0000     -11.236127      -305.7506
  16   2.0000     -11.235651      -305.7376
  17   2.0000     -11.234785      -305.7141
  18   2.0000     -11.234765      -305.7135
  19   2.0000     -11.232830      -305.6609
  20   2.0000     -11.230168      -305.5884
  21   2.0000     -11.225838      -305.4706
  22   2.0000     -11.224041      -305.4217
  23   2.0000     -11.223725      -305.4131
  24   2.0000     -11.219903      -305.3091
  25   2.0000      -1.512007       -41.1438
  26   2.0000      -1.477385       -40.2017
  27   2.0000      -1.378620       -37.5142
  28   2.0000      -1.198250       -32.6060
  29   2.0000      -1.165270       -31.7086
  30   2.0000      -1.148270       -31.2460
  31   2.0000      -1.144815       -31.1520
  32   2.0000      -1.081381       -29.4259
  33   2.0000      -1.024473       -27.8773
  34   2.0000      -1.022972       -27.8365
  35   2.0000      -1.021665       -27.8009
  36   2.0000      -1.018057       -27.7027
  37   2.0000      -0.968848       -26.3637
  38   2.0000      -0.957922       -26.0664
  39   2.0000      -0.907200       -24.6862
  40   2.0000      -0.860553       -23.4168
  41   2.0000      -0.846122       -23.0242
  42   2.0000      -0.834032       -22.6952
  43   2.0000      -0.828273       -22.5385
  44   2.0000      -0.799524       -21.7562
  45   2.0000      -0.779579       -21.2134
  46   2.0000      -0.753597       -20.5064
  47   2.0000      -0.737338       -20.0640
  48   2.0000      -0.720603       -19.6086
  49   2.0000      -0.715382       -19.4665
  50   2.0000      -0.705540       -19.1987
  51   2.0000      -0.704745       -19.1771
  52   2.0000      -0.688073       -18.7234
  53   2.0000      -0.667449       -18.1622
  54   2.0000      -0.662987       -18.0408
  55   2.0000      -0.650280       -17.6950
  56   2.0000      -0.642777       -17.4908
  57   2.0000      -0.636993       -17.3335
  58   2.0000      -0.629670       -17.1342
  59   2.0000      -0.624549       -16.9948
  60   2.0000      -0.618788       -16.8381
  61   2.0000      -0.601275       -16.3615
  62   2.0000      -0.591436       -16.0938
  63   2.0000      -0.588482       -16.0134
  64   2.0000      -0.587398       -15.9839
  65   2.0000      -0.575198       -15.6519
  66   2.0000      -0.554526       -15.0894
  67   2.0000      -0.538150       -14.6438
  68   2.0000      -0.523054       -14.2330
  69   2.0000      -0.517276       -14.0758
  70   2.0000      -0.515444       -14.0259
  71   2.0000      -0.507179       -13.8011
  72   2.0000      -0.502349       -13.6696
  73   2.0000      -0.497719       -13.5436
  74   2.0000      -0.495571       -13.4852
  75   2.0000      -0.491641       -13.3782
  76   2.0000      -0.487292       -13.2599
  77   2.0000      -0.483140       -13.1469
  78   2.0000      -0.472569       -12.8592
  79   2.0000      -0.457821       -12.4579
  80   2.0000      -0.425600       -11.5812
  81   2.0000      -0.404823       -11.0158
  82   2.0000      -0.355557        -9.6752
  83   2.0000      -0.343157        -9.3378
  84   2.0000      -0.341401        -9.2900
  85   2.0000      -0.299111        -8.1392
  86   2.0000      -0.288665        -7.8550
  87   0.0000       0.025397         0.6911
  88   0.0000       0.027125         0.7381
  89   0.0000       0.029375         0.7993
  90   0.0000       0.033276         0.9055
  91   0.0000       0.036773         1.0006

MULLIKEN ATOMIC CHARGES
-----------------------
   0 C :   -0.204507
   1 C :   -0.950274
   2 C :   -0.597183
   3 C :    2.225626
   4 C :   -1.105285
   5 C :   -0.739907
   6 H :    0.448485
   7 H :    0.386956
   8 H :    0.297575
   9 H :    0.030103
  10 H :    0.508119
  11 C :   -0.042858
  12 C :    1.959114
  13 O :   -1.518384
  14 O :   -0.423241
  15 N :    0.554590
  16 N :   -1.145327
  17 C :    0.716871
  18 C :   -1.514250
  19 C :    2.108640
  20 C :   -0.918809
  21 C :   -0.896215
  22 C :   -0.723549
  23 H :   -0.160585
  24 C :   -1.099726
  25 H :    0.177197
  26 C :   -0.034504
  27 H :    0.522963
  28 H :    0.400376
  29 H :    0.542248
  30 C :    2.480162
  31 C :   -0.473364
  32 C :   -1.277866
  33 C :   -0.803452
  34 H :    0.488020
  35 C :   -0.363165
  36 H :    0.262970
  37 H :    0.203071
  38 H :    0.244741
  39 H :    0.315376
  40 H :    0.332732
  41 H :    0.435964
  42 H :   -0.649450
Sum of atomic charges:    0.0000000

LOEWDIN ATOMIC CHARGES
----------------------
   0 C :    0.194583
   1 C :    0.203761
   2 C :    0.220703
   3 C :   -0.138424
   4 C :    0.195190
   5 C :    0.195305
   6 H :   -0.184917
   7 H :   -0.178671
   8 H :   -0.243726
   9 H :   -0.204341
  10 H :   -0.180293
  11 C :   -0.245057
  12 C :   -0.845094
  13 O :    0.517508
  14 O :    0.577356
  15 N :    0.005141
  16 N :    0.404264
  17 C :   -0.340558
  18 C :    0.241630
  19 C :   -0.131189
  20 C :    0.218813
  21 C :    0.213626
  22 C :    0.205942
  23 H :   -0.177977
  24 C :    0.203977
  25 H :   -0.183005
  26 C :    0.198444
  27 H :   -0.180445
  28 H :   -0.180930
  29 H :   -0.182776
  30 C :   -0.087769
  31 C :    0.285717
  32 C :    0.264435
  33 C :    0.310645
  34 H :   -0.161441
  35 C :    0.280955
  36 H :   -0.145195
  37 H :   -0.145851
  38 H :   -0.147463
  39 H :   -0.151610
  40 H :   -0.144686
  41 H :   -0.163986
  42 H :   -0.192592

  Mayer bond orders larger than 0.100000
B(  0-C ,  1-C ) :   1.0730 B(  0-C ,  4-C ) :  -0.1569 B(  0-C ,  5-C ) :   1.1173
B(  0-C ,  6-H ) :   0.8237 B(  1-C ,  2-C ) :   1.1537 B(  1-C ,  3-C ) :  -0.1850
B(  1-C ,  4-C ) :   0.2220 B(  1-C ,  5-C ) :   0.1544 B(  1-C ,  6-H ) :  -0.1621
B(  1-C ,  7-H ) :   0.9063 B(  1-C ,  8-H ) :  -0.1674 B(  1-C , 11-C ) :   0.1848
B(  1-C , 12-C ) :  -0.1071 B(  2-C ,  3-C ) :   0.6468 B(  2-C ,  4-C ) :  -0.6145
B(  2-C ,  8-H ) :   1.1708 B(  2-C , 11-C ) :  -0.1176 B(  2-C , 12-C ) :   0.2712
B(  2-C , 15-N ) :   0.1298 B(  3-C ,  4-C ) :  -0.2332 B(  3-C ,  5-C ) :  -0.1337
B(  3-C ,  9-H ) :  -0.1238 B(  3-C , 11-C ) :   0.3025 B(  3-C , 12-C ) :   0.3810
B(  3-C , 13-O ) :  -0.2880 B(  3-C , 15-N ) :  -0.2581 B(  3-C , 16-N ) :  -0.1920
B(  4-C ,  5-C ) :   1.3431 B(  4-C ,  6-H ) :   0.1571 B(  4-C ,  8-H ) :   0.1719
B(  4-C ,  9-H ) :   1.7134 B(  4-C , 10-H ) :  -0.1514 B(  4-C , 11-C ) :   0.5535
B(  5-C ,  6-H ) :  -0.1509 B(  5-C , 10-H ) :   0.6603 B(  5-C , 11-C ) :   0.1423
B(  6-H , 11-C ) :  -0.1325 B(  7-H , 11-C ) :   0.1347 B(  7-H , 12-C ) :  -0.1004
B(  8-H , 11-C ) :  -0.2899 B(  8-H , 12-C ) :   0.1922 B(  9-H , 11-C ) :  -0.3328
B( 10-H , 11-C ) :   0.2827 B( 11-C , 12-C ) :   0.2326 B( 11-C , 13-O ) :   0.3866
B( 11-C , 15-N ) :   1.7109 B( 11-C , 21-C ) :   0.2010 B( 12-C , 13-O ) :   0.2484
B( 12-C , 14-O ) :   0.7866 B( 12-C , 15-N ) :  -0.4133 B( 12-C , 16-N ) :  -0.1671
B( 12-C , 17-C ) :   0.1044 B( 12-C , 21-C ) :  -0.1568 B( 13-O , 14-O ) :   0.1118
B( 13-O , 17-C ) :   0.1161 B( 13-O , 21-C ) :   0.1127 B( 14-O , 17-C ) :   0.6177
B( 14-O , 18-C ) :   0.2153 B( 14-O , 19-C ) :  -0.1013 B( 14-O , 20-C ) :  -0.1245
B( 14-O , 30-C ) :  -0.1247 B( 14-O , 32-C ) :  -0.1274 B( 14-O , 42-H ) :   0.1285
B( 15-N , 16-N ) :   0.8154 B( 17-C , 18-C ) :   1.1569 B( 17-C , 19-C ) :   0.3589
B( 17-C , 20-C ) :   0.4576 B( 17-C , 21-C ) :   0.3597 B( 17-C , 23-H ) :  -0.1395
B( 17-C , 24-C ) :   0.1496 B( 17-C , 25-H ) :  -0.1831 B( 17-C , 30-C ) :   0.3536
B( 17-C , 32-C ) :   0.1883 B( 17-C , 42-H ) :  -0.2732 B( 18-C , 20-C ) :  -0.4046
B( 18-C , 23-H ) :  -0.1366 B( 18-C , 30-C ) :  -0.7884 B( 18-C , 31-C ) :  -0.1395
B( 18-C , 32-C ) :   0.7584 B( 18-C , 41-H ) :  -0.1595 B( 18-C , 42-H ) :   3.3159
B( 19-C , 23-H ) :  -0.4600 B( 19-C , 24-C ) :  -0.1360 B( 19-C , 25-H ) :  -0.2662
B( 20-C , 21-C ) :  -0.4632 B( 20-C , 22-C ) :   1.4183 B( 20-C , 23-H ) :   2.1883
B( 20-C , 24-C ) :   0.1145 B( 20-C , 25-H ) :   0.2746 B( 20-C , 26-C ) :  -0.1962
B( 20-C , 27-H ) :  -0.1481 B( 20-C , 42-H ) :  -0.2776 B( 21-C , 23-H ) :   0.2023
B( 21-C , 24-C ) :   1.4237 B( 21-C , 25-H ) :   1.2616 B( 21-C , 26-C ) :  -0.1349
B( 22-C , 24-C ) :   0.2290 B( 22-C , 25-H ) :  -0.1319 B( 22-C , 26-C ) :   1.1509
B( 22-C , 27-H ) :   0.6767 B( 22-C , 29-H ) :  -0.2292 B( 23-H , 25-H ) :   0.1816
B( 23-H , 30-C ) :  -0.1098 B( 24-C , 25-H ) :  -0.1066 B( 24-C , 26-C ) :   1.1840
B( 24-C , 28-H ) :   0.8636 B( 24-C , 29-H ) :  -0.2267 B( 26-C , 29-H ) :   0.6889
B( 30-C , 31-C ) :   0.6011 B( 30-C , 32-C ) :   0.3391 B( 30-C , 42-H ) :  -0.9214
B( 31-C , 32-C ) :  -0.1110 B( 31-C , 33-C ) :   1.0225 B( 31-C , 34-H ) :   0.8113
B( 31-C , 40-H ) :   0.9294 B( 32-C , 33-C ) :   0.3179 B( 32-C , 35-C ) :   0.8368
B( 32-C , 41-H ) :   0.8090 B( 32-C , 42-H ) :  -0.2310 B( 33-C , 34-H ) :  -0.1195
B( 33-C , 35-C ) :   1.0396 B( 33-C , 36-H ) :   0.9686 B( 33-C , 37-H ) :   1.0314
B( 35-C , 38-H ) :   0.9775 B( 35-C , 39-H ) :   0.9356 B( 41-H , 42-H ) :  -0.1633

MP2 TOTAL ENERGY:    -1068.881081964 Eh
FINAL SINGLE POINT ENERGY     -1068.881081964345

DIPOLE MOMENT
-------------
                                X             Y             Z
Electronic contribution:      5.86790      -8.89415       5.59511
Nuclear contribution   :     -5.84417       9.13109      -5.12782
                        -----------------------------------------
Total Dipole Moment    :      0.02373       0.23694       0.46729
                        -----------------------------------------
Magnitude (a.u.)       :      0.52447
Magnitude (Debye)      :      1.33309

Rotational constants in cm-1:     0.008224     0.005410     0.003767
Rotational constants in MHz :   246.558602   162.186590   112.935494

                             ****ORCA TERMINATED NORMALLY****
TOTAL RUN TIME: 0 days 1 hours 17 minutes 21 seconds 646 msec
