                         Program Version 4.2.1 -  RELEASE  -
|  1> %pal
|  2>  nprocs 32
|  3> end
|  4> !RI-MP2 aug-cc-pVTZ aug-cc-pVTZ/C TightSCF
|  5> %maxcore 4500
|  6> *xyzfile 0 1  10_6P.xyz
|  7>
|  8>
|  9>                          ****END OF INPUT****

CARTESIAN COORDINATES (ANGSTROEM)
---------------------------------
  C      0.267692   -0.995981   -0.414318
  C      0.679605    0.374305    0.135839
  C     -0.753605   -1.801109    0.373124
  H     -0.574953   -2.850807    0.127166
  H     -0.538286   -1.698263    1.442456
  C      0.062138    1.599496   -0.524451
  H      0.044769    1.442748   -1.607640
  H      0.733221    2.446093   -0.353115
  C     -1.323343    2.003814   -0.026620
  H     -1.289337    2.155065    1.058781
  H     -1.536655    2.987459   -0.454539
  C     -2.498623    1.080510   -0.367607
  H     -3.398714    1.700122   -0.349133
  H     -2.405549    0.735096   -1.403609
  C     -2.222577   -1.487003    0.105153
  H     -2.809027   -2.258631    0.612248
  H     -2.429809   -1.612512   -0.964077
  C     -2.750937   -0.122829    0.560313
  H     -3.833242   -0.225931    0.672742
  H     -2.374407    0.100465    1.565345
  N      2.124527    0.312437   -0.108162
  N      2.504596   -0.989909   -0.274458
  N      1.548672   -1.748725   -0.466916
  C      3.026691    1.112723    0.687698
  H      4.048082    0.850935    0.418589
  H      2.870038    2.170355    0.475177
  H      2.884955    0.942377    1.763834
  H     -0.062553   -0.900164   -1.456511
  H      0.504656    0.415404    1.224242

 Total Charge           Charge          ....    0
 Multiplicity           Mult            ....    1
 Number of Electrons    NEL             ....   92
 Basis Dimension        Dim             ....  943

ORBITAL ENERGIES
----------------

  NO   OCC          E(Eh)            E(eV)
   0   2.0000     -15.649374      -425.8411
   1   2.0000     -15.592657      -424.2978
   2   2.0000     -15.590080      -424.2277
   3   2.0000     -11.267747      -306.6110
   4   2.0000     -11.258947      -306.3715
   5   2.0000     -11.258442      -306.3578
   6   2.0000     -11.228964      -305.5556
   7   2.0000     -11.226773      -305.4960
   8   2.0000     -11.223926      -305.4186
   9   2.0000     -11.223611      -305.4100
  10   2.0000     -11.222920      -305.3912
  11   2.0000     -11.222653      -305.3839
  12   2.0000      -1.418486       -38.5990
  13   2.0000      -1.203175       -32.7400
  14   2.0000      -1.121546       -30.5188
  15   2.0000      -1.064905       -28.9775
  16   2.0000      -1.057590       -28.7785
  17   2.0000      -0.960092       -26.1254
  18   2.0000      -0.945773       -25.7358
  19   2.0000      -0.920155       -25.0387
  20   2.0000      -0.815289       -22.1851
  21   2.0000      -0.810864       -22.0647
  22   2.0000      -0.782174       -21.2840
  23   2.0000      -0.775319       -21.0975
  24   2.0000      -0.680087       -18.5061
  25   2.0000      -0.675766       -18.3885
  26   2.0000      -0.637176       -17.3384
  27   2.0000      -0.632963       -17.2238
  28   2.0000      -0.620578       -16.8868
  29   2.0000      -0.609630       -16.5889
  30   2.0000      -0.585514       -15.9326
  31   2.0000      -0.574018       -15.6198
  32   2.0000      -0.560753       -15.2589
  33   2.0000      -0.555577       -15.1180
  34   2.0000      -0.545132       -14.8338
  35   2.0000      -0.527418       -14.3518
  36   2.0000      -0.509478       -13.8636
  37   2.0000      -0.498386       -13.5618
  38   2.0000      -0.489140       -13.3102
  39   2.0000      -0.485969       -13.2239
  40   2.0000      -0.473322       -12.8798
  41   2.0000      -0.466827       -12.7030
  42   2.0000      -0.447923       -12.1886
  43   2.0000      -0.439650       -11.9635
  44   2.0000      -0.397153       -10.8071
  45   2.0000      -0.349852        -9.5200
  46   0.0000       0.024703         0.6722
  47   0.0000       0.030010         0.8166
  48   0.0000       0.031367         0.8535
  49   0.0000       0.036308         0.9880
  50   0.0000       0.044465         1.2100

MULLIKEN ATOMIC CHARGES
-----------------------
   0 C :    0.542595
   1 C :    0.554300
   2 C :   -0.556289
   3 H :    0.252700
   4 H :    0.097798
   5 C :   -0.541645
   6 H :    0.077704
   7 H :    0.289468
   8 C :   -0.425916
   9 H :    0.098028
  10 H :    0.270724
  11 C :   -0.439136
  12 H :    0.244307
  13 H :    0.128944
  14 C :   -0.397101
  15 H :    0.270575
  16 H :    0.138129
  17 C :   -0.433991
  18 H :    0.244742
  19 H :    0.154504
  20 N :    0.114324
  21 N :   -0.644747
  22 N :   -0.594998
  23 C :   -1.028695
  24 H :    0.366988
  25 H :    0.379479
  26 H :    0.317801
  27 H :    0.168877
  28 H :    0.350530
Sum of atomic charges:    0.0000000

LOEWDIN ATOMIC CHARGES
----------------------
   0 C :   -0.149288
   1 C :   -0.105943
   2 C :    0.292860
   3 H :   -0.150199
   4 H :   -0.139169
   5 C :    0.310498
   6 H :   -0.135006
   7 H :   -0.154347
   8 C :    0.302096
   9 H :   -0.142592
  10 H :   -0.144903
  11 C :    0.309833
  12 H :   -0.150597
  13 H :   -0.145503
  14 C :    0.297503
  15 H :   -0.144989
  16 H :   -0.142811
  17 C :    0.308111
  18 H :   -0.150480
  19 H :   -0.145731
  20 N :    0.102730
  21 N :    0.119438
  22 N :    0.251672
  23 C :    0.467333
  24 H :   -0.173654
  25 H :   -0.174644
  26 H :   -0.155966
  27 H :   -0.134452
  28 H :   -0.121798

  Mayer bond orders larger than 0.100000
B(  0-C ,  1-C ) :   0.9785 B(  0-C ,  2-C ) :   0.8451 B(  0-C , 20-N ) :  -0.1436
B(  0-C , 21-N ) :   0.2365 B(  0-C , 22-N ) :   0.1098 B(  0-C , 27-H ) :   1.0297
B(  1-C ,  5-C ) :   0.5642 B(  1-C , 20-N ) :   0.7304 B(  1-C , 21-N ) :   0.1242
B(  1-C , 28-H ) :   0.9311 B(  2-C ,  3-H ) :   0.9782 B(  2-C ,  4-H ) :   1.0991
B(  2-C , 14-C ) :   0.8709 B(  2-C , 22-N ) :   0.3395 B(  5-C ,  6-H ) :   1.1570
B(  5-C ,  7-H ) :   0.9378 B(  5-C ,  8-C ) :   0.9059 B(  5-C , 20-N ) :   0.2993
B(  6-H , 20-N ) :   0.1212 B(  8-C ,  9-H ) :   1.1104 B(  8-C , 10-H ) :   0.9663
B(  8-C , 11-C ) :   0.8742 B( 11-C , 12-H ) :   0.9776 B( 11-C , 13-H ) :   1.1014
B( 11-C , 17-C ) :   0.8512 B( 14-C , 15-H ) :   0.9813 B( 14-C , 16-H ) :   1.0822
B( 14-C , 17-C ) :   0.8499 B( 17-C , 18-H ) :   0.9819 B( 17-C , 19-H ) :   1.0808
B( 20-N , 22-N ) :   0.1737 B( 20-N , 23-C ) :   0.9843 B( 21-N , 22-N ) :   0.6480
B( 21-N , 23-C ) :  -0.1012 B( 23-C , 24-H ) :   0.9152 B( 23-C , 25-H ) :   0.8921
B( 23-C , 26-H ) :   0.9319

MP2 TOTAL ENERGY:     -516.350552850 Eh
FINAL SINGLE POINT ENERGY      -516.350552849789

DIPOLE MOMENT
-------------
                                X             Y             Z
Electronic contribution:      9.55455      -5.48433      -2.41834
Nuclear contribution   :    -10.46530       6.59657       2.85840
                        -----------------------------------------
Total Dipole Moment    :     -0.91075       1.11224       0.44006
                        -----------------------------------------
Magnitude (a.u.)       :      1.50340
Magnitude (Debye)      :      3.82134

Rotational constants in cm-1:     0.049829     0.024535     0.017921
Rotational constants in MHz :  1493.848850   735.554072   537.262880

                             ****ORCA TERMINATED NORMALLY****
TOTAL RUN TIME: 0 days 0 hours 17 minutes 22 seconds 420 msec
