                         Program Version 4.2.1 -  RELEASE  -
|  1> %pal
|  2>  nprocs 32
|  3> end
|  4> !RI-MP2 aug-cc-pVTZ aug-cc-pVTZ/C TightSCF
|  5> %maxcore 4500
|  6> *xyzfile 0 2  01_14R.xyz
|  7>
|  8>
|  9>                          ****END OF INPUT****

CARTESIAN COORDINATES (ANGSTROEM)
---------------------------------
  C     -2.375946    0.484352   -0.104049
  C     -1.181513   -0.355500    0.178798
  C      0.144582    0.388619    0.051987
  H     -1.179883   -1.228209   -0.489530
  H     -1.255778   -0.781661    1.194426
  C      1.355246   -0.492499    0.364239
  H      0.139293    1.251579    0.727136
  H      0.242483    0.790604   -0.960917
  C      2.650382    0.255104    0.286652
  H      1.381387   -1.343954   -0.322890
  H      1.238362   -0.906063    1.373413
  C      3.648125   -0.028599   -0.538086
  C     -3.725641   -0.125018   -0.225206
  H     -4.090058   -0.504770    0.741784
  H     -3.717179   -0.984796   -0.904995
  H     -4.465955    0.588155   -0.590811
  H     -2.283061    1.562887   -0.034027
  H      2.750537    1.102522    0.962756
  H      3.589125   -0.862240   -1.230662
  H      4.559319    0.557194   -0.551697

 Total Charge           Charge          ....    0
 Multiplicity           Mult            ....    2
 Number of Electrons    NEL             ....   55
 Basis Dimension        Dim             ....  621

ORBITAL ENERGIES
----------------
                 SPIN UP ORBITALS
  NO   OCC          E(Eh)            E(eV)
   0   1.0000     -11.229611      -305.5732
   1   1.0000     -11.224574      -305.4362
   2   1.0000     -11.223144      -305.3973
   3   1.0000     -11.219818      -305.3068
   4   1.0000     -11.218915      -305.2822
   5   1.0000     -11.216304      -305.2111
   6   1.0000     -11.214572      -305.1640
   7   1.0000      -1.100356       -29.9422
   8   1.0000      -1.064388       -28.9635
   9   1.0000      -1.002317       -27.2744
  10   1.0000      -0.924634       -25.1606
  11   1.0000      -0.830893       -22.6098
  12   1.0000      -0.783665       -21.3246
  13   1.0000      -0.753389       -20.5008
  14   1.0000      -0.654603       -17.8127
  15   1.0000      -0.622370       -16.9355
  16   1.0000      -0.612110       -16.6563
  17   1.0000      -0.583718       -15.8838
  18   1.0000      -0.574235       -15.6257
  19   1.0000      -0.565236       -15.3808
  20   1.0000      -0.530885       -14.4461
  21   1.0000      -0.513437       -13.9713
  22   1.0000      -0.497138       -13.5278
  23   1.0000      -0.480387       -13.0720
  24   1.0000      -0.472674       -12.8621
  25   1.0000      -0.462272       -12.5791
  26   1.0000      -0.359680        -9.7874
  27   1.0000      -0.324712        -8.8359
  28   0.0000       0.030237         0.8228
  29   0.0000       0.032433         0.8825
  30   0.0000       0.035218         0.9583
  31   0.0000       0.037651         1.0245
  32   0.0000       0.046451         1.2640

                 SPIN DOWN ORBITALS
  NO   OCC          E(Eh)            E(eV)
   0   1.0000     -11.229661      -305.5746
   1   1.0000     -11.223208      -305.3990
   2   1.0000     -11.222289      -305.3740
   3   1.0000     -11.219283      -305.2922
   4   1.0000     -11.217818      -305.2523
   5   1.0000     -11.216261      -305.2100
   6   1.0000     -11.200649      -304.7852
   7   1.0000      -1.093782       -29.7633
   8   1.0000      -1.044746       -28.4290
   9   1.0000      -0.990493       -26.9527
  10   1.0000      -0.924141       -25.1472
  11   1.0000      -0.821325       -22.3494
  12   1.0000      -0.759762       -20.6742
  13   1.0000      -0.738557       -20.0972
  14   1.0000      -0.650615       -17.7041
  15   1.0000      -0.613022       -16.6812
  16   1.0000      -0.607600       -16.5336
  17   1.0000      -0.571313       -15.5462
  18   1.0000      -0.564302       -15.3554
  19   1.0000      -0.548534       -14.9264
  20   1.0000      -0.525299       -14.2941
  21   1.0000      -0.511448       -13.9172
  22   1.0000      -0.493051       -13.4166
  23   1.0000      -0.473517       -12.8851
  24   1.0000      -0.469244       -12.7688
  25   1.0000      -0.460581       -12.5331
  26   1.0000      -0.359083        -9.7711
  27   0.0000       0.030440         0.8283
  28   0.0000       0.032473         0.8836
  29   0.0000       0.035350         0.9619
  30   0.0000       0.037785         1.0282
  31   0.0000       0.046582         1.2676

MULLIKEN ATOMIC CHARGES AND SPIN POPULATIONS
--------------------------------------------
   0 C :   -0.722868    1.301090
   1 C :   -0.065886   -0.233358
   2 C :   -0.460038    0.041229
   3 H :    0.211539    0.022545
   4 H :    0.224565    0.070524
   5 C :   -0.040111   -0.000717
   6 H :    0.210431   -0.004265
   7 H :    0.269666   -0.002131
   8 C :   -0.255054   -0.003279
   9 H :    0.181954    0.000582
  10 H :    0.252683   -0.001006
  11 C :   -1.059083    0.002202
  12 C :   -0.874251   -0.202199
  13 H :    0.279452    0.067255
  14 H :    0.266057    0.028536
  15 H :    0.275205    0.007031
  16 H :    0.375853   -0.093914
  17 H :    0.206786    0.000181
  18 H :    0.215757   -0.000196
  19 H :    0.507343   -0.000111
Sum of atomic charges         :    0.0000000

LOEWDIN ATOMIC CHARGES AND SPIN POPULATIONS
-------------------------------------------
   0 C :    0.272531    0.550563
   1 C :    0.228935    0.117705
   2 C :    0.254415    0.007256
   3 H :   -0.148659    0.013432
   4 H :   -0.141759    0.026643
   5 C :    0.239107    0.001100
   6 H :   -0.144225   -0.000207
   7 H :   -0.138959    0.002665
   8 C :    0.176119   -0.000660
   9 H :   -0.154319    0.000267
  10 H :   -0.145862    0.000751
  11 C :    0.521721    0.000733
  12 C :    0.539772    0.119616
  13 H :   -0.172786    0.028190
  14 H :   -0.179946    0.013896
  15 H :   -0.186973    0.002434
  16 H :   -0.187834    0.115344
  17 H :   -0.181181   -0.000150
  18 H :   -0.220956    0.000218
  19 H :   -0.229144    0.000204

  Mayer bond orders larger than 0.100000
B(  0-C ,  1-C ) :   0.5941 B(  0-C , 12-C ) :   0.8337 B(  0-C , 16-H ) :   0.8279
B(  1-C ,  2-C ) :   0.9509 B(  1-C ,  3-H ) :   0.9843 B(  1-C ,  4-H ) :   0.9389
B(  2-C ,  5-C ) :   0.9863 B(  2-C ,  6-H ) :   0.9723 B(  2-C ,  7-H ) :   0.9489
B(  5-C ,  8-C ) :   0.6630 B(  5-C ,  9-H ) :   0.9772 B(  5-C , 10-H ) :   0.9614
B(  8-C , 11-C ) :   1.3718 B(  8-C , 17-H ) :   1.1219 B( 11-C , 18-H ) :   1.1520
B( 11-C , 19-H ) :   0.6410 B( 12-C , 13-H ) :   0.9238 B( 12-C , 14-H ) :   0.9668
B( 12-C , 15-H ) :   0.9980

MP2 TOTAL ENERGY:     -273.865247671 Eh
FINAL SINGLE POINT ENERGY      -273.865247670637

DIPOLE MOMENT
-------------
                                X             Y             Z
Electronic contribution:      3.10669       0.77983       0.19080
Nuclear contribution   :     -3.28587      -0.80648      -0.09142
                        -----------------------------------------
Total Dipole Moment    :     -0.17918      -0.02665       0.09938
                        -----------------------------------------
Magnitude (a.u.)       :      0.20661
Magnitude (Debye)      :      0.52517

Rotational constants in cm-1:     0.419137     0.026393     0.026117
Rotational constants in MHz : 12565.413928   791.238068   782.956413

                             ****ORCA TERMINATED NORMALLY****
TOTAL RUN TIME: 0 days 0 hours 4 minutes 49 seconds 249 msec
