                         Program Version 4.2.1 -  RELEASE  -
|  1> %pal
|  2>  nprocs 32
|  3> end
|  4> !RI-MP2 aug-cc-pVTZ aug-cc-pVTZ/C TightSCF
|  5> %maxcore 4500
|  6> *xyzfile 0 2  04_22P1.xyz
|  7>
|  8>
|  9>                          ****END OF INPUT****

CARTESIAN COORDINATES (ANGSTROEM)
---------------------------------
  C     -3.208573   -0.404650   -0.000005
  C     -0.870521   -0.498291    0.000023
  C      0.364386    0.333733    0.000003
  C      0.284661    1.812953    0.000010
  C      1.604499   -0.401572   -0.000003
  O      2.717652    0.373256   -0.000012
  O      1.676963   -1.615944    0.000001
  H     -3.287685   -1.039334   -0.891488
  H     -3.287704   -1.039251    0.891535
  H     -4.025732    0.314622   -0.000047
  H     -0.278287    2.162994   -0.871079
  H      1.273385    2.264263   -0.000022
  H     -0.278223    2.162990    0.871144
  H     -0.869795   -1.164210    0.877990
  H     -0.869772   -1.164291   -0.877880
  H      3.471735   -0.230759   -0.000016
  O     -2.006445    0.327682   -0.000027

 Total Charge           Charge          ....    0
 Multiplicity           Mult            ....    2
 Number of Electrons    NEL             ....   63
 Basis Dimension        Dim             ....  575

ORBITAL ENERGIES
----------------
                 SPIN UP ORBITALS
  NO   OCC          E(Eh)            E(eV)
   0   1.0000     -20.605992      -560.7176
   1   1.0000     -20.567411      -559.6677
   2   1.0000     -20.554552      -559.3178
   3   1.0000     -11.375012      -309.5298
   4   1.0000     -11.286828      -307.1302
   5   1.0000     -11.277717      -306.8823
   6   1.0000     -11.269094      -306.6476
   7   1.0000     -11.225119      -305.4510
   8   1.0000      -1.463281       -39.8179
   9   1.0000      -1.391253       -37.8579
  10   1.0000      -1.364471       -37.1291
  11   1.0000      -1.111782       -30.2531
  12   1.0000      -0.970419       -26.4064
  13   1.0000      -0.931276       -25.3413
  14   1.0000      -0.878582       -23.9074
  15   1.0000      -0.772797       -21.0289
  16   1.0000      -0.708973       -19.2921
  17   1.0000      -0.693456       -18.8699
  18   1.0000      -0.689834       -18.7713
  19   1.0000      -0.649074       -17.6622
  20   1.0000      -0.644857       -17.5475
  21   1.0000      -0.631389       -17.1810
  22   1.0000      -0.586735       -15.9659
  23   1.0000      -0.573933       -15.6175
  24   1.0000      -0.567669       -15.4471
  25   1.0000      -0.557007       -15.1569
  26   1.0000      -0.520180       -14.1548
  27   1.0000      -0.512695       -13.9511
  28   1.0000      -0.493166       -13.4197
  29   1.0000      -0.463071       -12.6008
  30   1.0000      -0.442252       -12.0343
  31   1.0000      -0.356431        -9.6990
  32   0.0000       0.028265         0.7691
  33   0.0000       0.032755         0.8913
  34   0.0000       0.038326         1.0429
  35   0.0000       0.040512         1.1024
  36   0.0000       0.048167         1.3107

                 SPIN DOWN ORBITALS
  NO   OCC          E(Eh)            E(eV)
   0   1.0000     -20.606132      -560.7214
   1   1.0000     -20.567464      -559.6692
   2   1.0000     -20.543191      -559.0086
   3   1.0000     -11.380081      -309.6678
   4   1.0000     -11.289598      -307.2056
   5   1.0000     -11.277769      -306.8837
   6   1.0000     -11.248246      -306.0803
   7   1.0000     -11.227813      -305.5243
   8   1.0000      -1.457483       -39.6601
   9   1.0000      -1.391210       -37.8567
  10   1.0000      -1.346204       -36.6321
  11   1.0000      -1.068465       -29.0744
  12   1.0000      -0.969143       -26.3717
  13   1.0000      -0.921744       -25.0819
  14   1.0000      -0.875680       -23.8285
  15   1.0000      -0.757513       -20.6130
  16   1.0000      -0.702560       -19.1176
  17   1.0000      -0.684984       -18.6394
  18   1.0000      -0.674672       -18.3587
  19   1.0000      -0.646962       -17.6047
  20   1.0000      -0.622477       -16.9385
  21   1.0000      -0.621595       -16.9145
  22   1.0000      -0.568399       -15.4669
  23   1.0000      -0.566849       -15.4247
  24   1.0000      -0.562352       -15.3024
  25   1.0000      -0.545577       -14.8459
  26   1.0000      -0.516139       -14.0449
  27   1.0000      -0.490098       -13.3362
  28   1.0000      -0.457337       -12.4448
  29   1.0000      -0.450175       -12.2499
  30   1.0000      -0.431429       -11.7398
  31   0.0000       0.028390         0.7725
  32   0.0000       0.032794         0.8924
  33   0.0000       0.038412         1.0452
  34   0.0000       0.040376         1.0987
  35   0.0000       0.048277         1.3137

MULLIKEN ATOMIC CHARGES AND SPIN POPULATIONS
--------------------------------------------
   0 C :   -0.929936   -0.002805
   1 C :    0.007683   -0.264422
   2 C :    0.567632    1.184593
   3 C :   -0.827287   -0.151920
   4 C :    0.424733   -0.193194
   5 O :   -0.474944    0.002959
   6 O :   -0.872161    0.252637
   7 H :    0.348794   -0.000540
   8 H :    0.348799   -0.000540
   9 H :    0.341952    0.000092
  10 H :    0.227883    0.055410
  11 H :    0.336764   -0.014990
  12 H :    0.227883    0.055413
  13 H :    0.274443    0.039823
  14 H :    0.274451    0.039819
  15 H :    0.244213   -0.004890
  16 O :   -0.520904    0.002554
Sum of atomic charges         :   -0.0000000

LOEWDIN ATOMIC CHARGES AND SPIN POPULATIONS
-------------------------------------------
   0 C :    0.323037    0.001061
   1 C :   -0.028313    0.092723
   2 C :   -0.060624    0.464378
   3 C :    0.568201    0.105777
   4 C :   -0.815161    0.084373
   5 O :    0.830930   -0.006538
   6 O :    0.460469    0.184969
   7 H :   -0.174592    0.000488
   8 H :   -0.174592    0.000488
   9 H :   -0.184406   -0.000033
  10 H :   -0.163924    0.019931
  11 H :   -0.198790    0.000033
  12 H :   -0.163919    0.019932
  13 H :   -0.148321    0.018495
  14 H :   -0.148326    0.018493
  15 H :   -0.476450   -0.001210
  16 O :    0.554782   -0.003361

  Mayer bond orders larger than 0.100000
B(  0-C ,  7-H ) :   0.8731 B(  0-C ,  8-H ) :   0.8731 B(  0-C ,  9-H ) :   0.9622
B(  0-C , 16-O ) :   0.9698 B(  1-C ,  2-C ) :   0.7932 B(  1-C ,  4-C ) :   0.2523
B(  1-C , 13-H ) :   0.9473 B(  1-C , 14-H ) :   0.9473 B(  1-C , 16-O ) :   0.8550
B(  2-C ,  3-C ) :   0.6692 B(  2-C ,  4-C ) :   0.5263 B(  3-C , 10-H ) :   1.0080
B(  3-C , 11-H ) :   0.9413 B(  3-C , 12-H ) :   1.0080 B(  4-C ,  5-O ) :   0.9959
B(  4-C ,  6-O ) :   1.2811 B(  5-O , 15-H ) :   0.9493

MP2 TOTAL ENERGY:     -420.846591135 Eh
FINAL SINGLE POINT ENERGY      -420.846591134536

DIPOLE MOMENT
-------------
                                X             Y             Z
Electronic contribution:      7.81835      -1.96602      -0.00011
Nuclear contribution   :     -8.19719       2.27557       0.00014
                        -----------------------------------------
Total Dipole Moment    :     -0.37884       0.30956       0.00002
                        -----------------------------------------
Magnitude (a.u.)       :      0.48923
Magnitude (Debye)      :      1.24352

Rotational constants in cm-1:     0.143433     0.037318     0.030109
Rotational constants in MHz :  4300.003809  1118.755248   902.637817

                             ****ORCA TERMINATED NORMALLY****
TOTAL RUN TIME: 0 days 0 hours 5 minutes 1 seconds 480 msec
