                         Program Version 4.2.1 -  RELEASE  -
|  1> %pal
|  2>  nprocs 32
|  3> end
|  4> !RI-MP2 aug-cc-pVTZ aug-cc-pVTZ/C TightSCF
|  5> %maxcore 4500
|  6> *xyzfile -1 1  09_10TS.xyz
|  7>
|  8>
|  9>                          ****END OF INPUT****

CARTESIAN COORDINATES (ANGSTROEM)
---------------------------------
  C     -0.981824   -0.189479   -0.598696
  C      0.102902   -1.246718   -0.363142
  C      1.491640   -0.723743   -0.706522
  H     -0.113694   -2.088785   -1.027072
  H      0.072749   -1.627895    0.659592
  C      1.930060    0.398008    0.242987
  C      0.878472    1.508190    0.229189
  C     -0.373932    1.181491    0.837631
  O     -1.100526    0.319193   -1.728058
  C     -2.231547   -0.443029    0.237828
  O     -2.345334   -1.256692    1.130811
  O     -3.274948    0.332718   -0.116235
  O      1.096598    2.499196   -0.463073
  O      2.190016   -0.159806    1.541569
  H      2.877007    0.813411   -0.098355
  O      2.463157   -1.767042   -0.670594
  H      1.479461   -0.330297   -1.723071
  H     -3.987027    0.087413    0.488470
  H      2.669722   -1.891489    0.263551
  H      1.365739   -0.162618    2.035637
  H     -1.112459    1.975850    0.829832
  H     -0.377815    0.575559    1.740414

 Total Charge           Charge          ....   -1
 Multiplicity           Mult            ....    1
 Number of Electrons    NEL             ....  100
 Basis Dimension        Dim             ....  805

ORBITAL ENERGIES
----------------

  NO   OCC          E(Eh)            E(eV)
   0   2.0000     -20.484403      -557.4089
   1   2.0000     -20.453473      -556.5673
   2   2.0000     -20.435787      -556.0860
   3   2.0000     -20.420359      -555.6662
   4   2.0000     -20.378695      -554.5325
   5   2.0000     -20.336450      -553.3829
   6   2.0000     -11.251985      -306.1821
   7   2.0000     -11.187665      -304.4318
   8   2.0000     -11.171635      -303.9957
   9   2.0000     -11.155989      -303.5699
  10   2.0000     -11.153272      -303.4960
  11   2.0000     -11.092807      -301.8506
  12   2.0000     -11.066175      -301.1259
  13   2.0000      -1.340269       -36.4706
  14   2.0000      -1.265704       -34.4416
  15   2.0000      -1.232053       -33.5259
  16   2.0000      -1.230594       -33.4862
  17   2.0000      -1.215232       -33.0682
  18   2.0000      -1.184630       -32.2354
  19   2.0000      -0.937302       -25.5053
  20   2.0000      -0.853112       -23.2144
  21   2.0000      -0.843198       -22.9446
  22   2.0000      -0.772249       -21.0140
  23   2.0000      -0.702788       -19.1238
  24   2.0000      -0.634130       -17.2556
  25   2.0000      -0.617994       -16.8165
  26   2.0000      -0.580409       -15.7937
  27   2.0000      -0.578250       -15.7350
  28   2.0000      -0.546390       -14.8680
  29   2.0000      -0.539772       -14.6880
  30   2.0000      -0.512148       -13.9363
  31   2.0000      -0.505269       -13.7491
  32   2.0000      -0.492250       -13.3948
  33   2.0000      -0.472299       -12.8519
  34   2.0000      -0.454773       -12.3750
  35   2.0000      -0.445203       -12.1146
  36   2.0000      -0.442179       -12.0323
  37   2.0000      -0.435052       -11.8384
  38   2.0000      -0.416706       -11.3391
  39   2.0000      -0.400435       -10.8964
  40   2.0000      -0.385341       -10.4857
  41   2.0000      -0.376905       -10.2561
  42   2.0000      -0.358315        -9.7502
  43   2.0000      -0.354142        -9.6367
  44   2.0000      -0.348180        -9.4745
  45   2.0000      -0.333324        -9.0702
  46   2.0000      -0.302306        -8.2262
  47   2.0000      -0.256185        -6.9711
  48   2.0000      -0.235934        -6.4201
  49   2.0000      -0.158615        -4.3161
  50   0.0000       0.109561         2.9813
  51   0.0000       0.116401         3.1674
  52   0.0000       0.122129         3.3233
  53   0.0000       0.124944         3.3999
  54   0.0000       0.134934         3.6717

MULLIKEN ATOMIC CHARGES
-----------------------
   0 C :    1.713847
   1 C :   -0.518776
   2 C :    0.383418
   3 H :    0.356535
   4 H :    0.129088
   5 C :    0.472766
   6 C :    0.629785
   7 C :   -0.819482
   8 O :   -1.446978
   9 C :    0.671273
  10 O :   -0.994348
  11 O :   -0.516503
  12 O :   -1.239083
  13 O :   -0.823603
  14 H :    0.384504
  15 O :   -0.922172
  16 H :    0.387046
  17 H :    0.208048
  18 H :    0.174929
  19 H :    0.205352
  20 H :    0.280070
  21 H :    0.284282
Sum of atomic charges:   -1.0000000

LOEWDIN ATOMIC CHARGES
----------------------
   0 C :   -0.720755
   1 C :    0.241006
   2 C :   -0.261010
   3 H :   -0.144563
   4 H :   -0.185123
   5 C :   -0.232948
   6 C :   -0.611427
   7 C :    0.375493
   8 O :    0.382570
   9 C :   -0.853866
  10 O :    0.435990
  11 O :    0.828131
  12 O :    0.421605
  13 O :    0.848823
  14 H :   -0.161052
  15 O :    0.825579
  16 H :   -0.144235
  17 H :   -0.499407
  18 H :   -0.544638
  19 H :   -0.550744
  20 H :   -0.205448
  21 H :   -0.243980

  Mayer bond orders larger than 0.100000
B(  0-C ,  1-C ) :   0.9331 B(  0-C ,  7-C ) :   0.5065 B(  0-C ,  8-O ) :   0.1495
B(  0-C ,  9-C ) :   0.5657 B(  1-C ,  2-C ) :   0.9493 B(  1-C ,  3-H ) :   0.7990
B(  1-C ,  4-H ) :   1.0707 B(  1-C ,  8-O ) :   0.1869 B(  1-C , 15-O ) :   0.1421
B(  2-C ,  5-C ) :   1.0172 B(  2-C ,  6-C ) :   0.1044 B(  2-C , 13-O ) :   0.1007
B(  2-C , 16-H ) :   0.8718 B(  5-C ,  6-C ) :   0.9671 B(  5-C , 13-O ) :   0.3179
B(  5-C , 14-H ) :   0.8715 B(  5-C , 15-O ) :   0.1809 B(  6-C ,  7-C ) :   0.9405
B(  6-C , 12-O ) :   0.5508 B(  6-C , 13-O ) :   0.1075 B(  6-C , 14-H ) :  -0.1049
B(  7-C ,  8-O ) :   0.2061 B(  7-C ,  9-C ) :   0.1546 B(  7-C , 20-H ) :   0.9017
B(  7-C , 21-H ) :   0.9900 B(  8-O ,  9-C ) :   0.1509 B(  9-C , 10-O ) :   1.1888
B(  9-C , 11-O ) :   0.7083 B( 11-O , 17-H ) :   0.9904 B( 13-O , 19-H ) :   0.9552
B( 15-O , 18-H ) :   1.0182

MP2 TOTAL ENERGY:     -722.394060809 Eh
FINAL SINGLE POINT ENERGY      -722.394060808932

DIPOLE MOMENT
-------------
                                X             Y             Z
Electronic contribution:     -3.14623       1.41661      -1.46352
Nuclear contribution   :      2.80981      -2.60435       3.11042
                        -----------------------------------------
Total Dipole Moment    :     -0.33642      -1.18774       1.64690
                        -----------------------------------------
Magnitude (a.u.)       :      2.05820
Magnitude (Debye)      :      5.23153

Rotational constants in cm-1:     0.040096     0.020683     0.018098
Rotational constants in MHz :  1202.059322   620.047065   542.552878

                             ****ORCA TERMINATED NORMALLY****
TOTAL RUN TIME: 0 days 0 hours 9 minutes 51 seconds 318 msec
