                         Program Version 4.2.1 -  RELEASE  -
|  1> %pal
|  2>  nprocs 32
|  3> end
|  4> !RI-MP2 aug-cc-pVTZ aug-cc-pVTZ/C TightSCF
|  5> %maxcore 4500
|  6> *xyzfile 0 1  09_13R1.xyz
|  7>
|  8>
|  9>                          ****END OF INPUT****

CARTESIAN COORDINATES (ANGSTROEM)
---------------------------------
  C      0.000000    0.000000    0.000000
  O      0.000000    0.000000    1.155856
  O      0.000000    0.000000   -1.155856

 Total Charge           Charge          ....    0
 Multiplicity           Mult            ....    1
 Number of Electrons    NEL             ....   22
 Basis Dimension        Dim             ....  138

ORBITAL ENERGIES
----------------

  NO   OCC          E(Eh)            E(eV)
   0   2.0000     -20.651855      -561.9655
   1   2.0000     -20.651808      -561.9643
   2   2.0000     -11.458652      -311.8058
   3   2.0000      -1.534621       -41.7592
   4   2.0000      -1.481555       -40.3152
   5   2.0000      -0.800605       -21.7856
   6   2.0000      -0.744736       -20.2653
   7   2.0000      -0.717928       -19.5358
   8   2.0000      -0.717928       -19.5358
   9   2.0000      -0.545196       -14.8355
  10   2.0000      -0.545196       -14.8355
  11   0.0000       0.047507         1.2927
  12   0.0000       0.072745         1.9795
  13   0.0000       0.072745         1.9795
  14   0.0000       0.078815         2.1447
  15   0.0000       0.161044         4.3822

MULLIKEN ATOMIC CHARGES
-----------------------
   0 C :    0.474464
   1 O :   -0.237232
   2 O :   -0.237232
Sum of atomic charges:   -0.0000000

LOEWDIN ATOMIC CHARGES
----------------------
   0 C :   -0.727137
   1 O :    0.363569
   2 O :    0.363569

  Mayer bond orders larger than 0.100000
B(  0-C ,  1-O ) :   2.0148 B(  0-C ,  2-O ) :   2.0148

MP2 TOTAL ENERGY:     -188.320836134 Eh
FINAL SINGLE POINT ENERGY      -188.320836133974

DIPOLE MOMENT
-------------
                                X             Y             Z
Electronic contribution:      0.00000      -0.00000       0.00000
Nuclear contribution   :      0.00000       0.00000       0.00000
                        -----------------------------------------
Total Dipole Moment    :      0.00000      -0.00000       0.00000
                        -----------------------------------------
Magnitude (a.u.)       :      0.00000
Magnitude (Debye)      :      0.00000

Rotational constants in cm-1:     0.000000     0.394336     0.394336
Rotational constants in MHz :     0.000000 11821.900681 11821.900681

                             ****ORCA TERMINATED NORMALLY****
TOTAL RUN TIME: 0 days 0 hours 0 minutes 9 seconds 736 msec
