                         Program Version 4.2.1 -  RELEASE  -
|  1> %pal
|  2>  nprocs 32
|  3> end
|  4> !RI-MP2 aug-cc-pVTZ aug-cc-pVTZ/C TightSCF
|  5> %maxcore 4500
|  6> *xyzfile 0 1  10_83P.xyz
|  7>
|  8>
|  9>                          ****END OF INPUT****

CARTESIAN COORDINATES (ANGSTROEM)
---------------------------------
  C     -0.588799   -0.767554   -1.273994
  C      0.182657   -0.312204   -0.062735
  C     -0.415033    0.759531    0.826360
  C     -1.960267    0.625826    0.874150
  C     -2.317455   -0.785943    1.304225
  C     -2.404916   -1.570381    0.235416
  C     -2.109528   -0.761199   -1.015920
  H     -0.357367   -0.079964   -2.095919
  H     -0.243578   -1.754245   -1.584671
  H     -2.635346   -1.104875   -1.906820
  C     -2.511721    0.645031   -0.555985
  H     -2.564958   -2.640945    0.240263
  H     -2.392363   -1.101129    2.337077
  C      1.397587   -0.822140    0.217780
  H     -3.597776    0.747097   -0.540258
  H     -2.090766    1.440772   -1.172429
  H     -2.367239    1.406334    1.518682
  C      1.684344    2.678100   -1.522629
  C      2.161242   -0.379757    1.345097
  C      2.008311   -1.818383   -0.609175
  N      2.767003   -0.020051    2.251815
  N      2.490747   -2.616810   -1.278846
  C      0.838040    2.422292   -0.571462
  C      0.003694    2.149913    0.386533
  H      2.746728    2.753233   -1.318355
  H      1.356495    2.828138   -2.545367
  H     -0.436325    2.968625    0.950497
  H     -0.030696    0.616191    1.840557

 Total Charge           Charge          ....    0
 Multiplicity           Mult            ....    1
 Number of Electrons    NEL             ....  110
 Basis Dimension        Dim             .... 1012

ORBITAL ENERGIES
----------------

  NO   OCC          E(Eh)            E(eV)
   0   2.0000     -15.580942      -423.9790
   1   2.0000     -15.580659      -423.9713
   2   2.0000     -11.321311      -308.0685
   3   2.0000     -11.312196      -307.8205
   4   2.0000     -11.287276      -307.1424
   5   2.0000     -11.286789      -307.1292
   6   2.0000     -11.281028      -306.9724
   7   2.0000     -11.270778      -306.6935
   8   2.0000     -11.263824      -306.5042
   9   2.0000     -11.263653      -306.4996
  10   2.0000     -11.262353      -306.4642
  11   2.0000     -11.260367      -306.4102
  12   2.0000     -11.252477      -306.1955
  13   2.0000     -11.248663      -306.0917
  14   2.0000     -11.246837      -306.0420
  15   2.0000     -11.242080      -305.9125
  16   2.0000      -1.248367       -33.9698
  17   2.0000      -1.229709       -33.4621
  18   2.0000      -1.212855       -33.0035
  19   2.0000      -1.146300       -31.1924
  20   2.0000      -1.110925       -30.2298
  21   2.0000      -1.057286       -28.7702
  22   2.0000      -1.034810       -28.1586
  23   2.0000      -0.987551       -26.8726
  24   2.0000      -0.965054       -26.2604
  25   2.0000      -0.897310       -24.4171
  26   2.0000      -0.859426       -23.3862
  27   2.0000      -0.792667       -21.5696
  28   2.0000      -0.773629       -21.0515
  29   2.0000      -0.747542       -20.3416
  30   2.0000      -0.745100       -20.2752
  31   2.0000      -0.710376       -19.3303
  32   2.0000      -0.675741       -18.3878
  33   2.0000      -0.656145       -17.8546
  34   2.0000      -0.640538       -17.4299
  35   2.0000      -0.625092       -17.0096
  36   2.0000      -0.621328       -16.9072
  37   2.0000      -0.606692       -16.5089
  38   2.0000      -0.579218       -15.7613
  39   2.0000      -0.575181       -15.6515
  40   2.0000      -0.573757       -15.6127
  41   2.0000      -0.561961       -15.2917
  42   2.0000      -0.552163       -15.0251
  43   2.0000      -0.548064       -14.9136
  44   2.0000      -0.515779       -14.0351
  45   2.0000      -0.498042       -13.5524
  46   2.0000      -0.496471       -13.5097
  47   2.0000      -0.490329       -13.3425
  48   2.0000      -0.489771       -13.3274
  49   2.0000      -0.481312       -13.0972
  50   2.0000      -0.466899       -12.7050
  51   2.0000      -0.399744       -10.8776
  52   2.0000      -0.391181       -10.6446
  53   2.0000      -0.381209       -10.3732
  54   2.0000      -0.366021        -9.9599
  55   0.0000       0.017676         0.4810
  56   0.0000       0.025306         0.6886
  57   0.0000       0.026723         0.7272
  58   0.0000       0.032354         0.8804
  59   0.0000       0.039673         1.0796

MULLIKEN ATOMIC CHARGES
-----------------------
   0 C :   -1.110663
   1 C :    0.169444
   2 C :   -0.575245
   3 C :   -0.135507
   4 C :   -0.845743
   5 C :   -0.752808
   6 C :   -0.190760
   7 H :    0.165871
   8 H :    0.061240
   9 H :    0.451814
  10 C :   -0.654352
  11 H :    0.534668
  12 H :    0.504829
  13 C :    1.419864
  14 H :    0.362160
  15 H :    0.214017
  16 H :    0.407890
  17 C :   -1.332656
  18 C :    1.137414
  19 C :    0.687754
  20 N :   -1.048922
  21 N :   -1.002050
  22 C :    1.230579
  23 C :   -0.555936
  24 H :    0.424172
  25 H :    0.230907
  26 H :    0.084646
  27 H :    0.117371
Sum of atomic charges:   -0.0000000

LOEWDIN ATOMIC CHARGES
----------------------
   0 C :    0.333338
   1 C :   -0.071795
   2 C :   -0.011543
   3 C :    0.010394
   4 C :    0.272517
   5 C :    0.273101
   6 C :    0.016050
   7 H :   -0.118175
   8 H :   -0.158213
   9 H :   -0.116992
  10 C :    0.319982
  11 H :   -0.155315
  12 H :   -0.154803
  13 C :   -0.186385
  14 H :   -0.124086
  15 H :   -0.136610
  16 H :   -0.117206
  17 C :    0.499784
  18 C :   -0.258716
  19 C :   -0.255542
  20 N :    0.307030
  21 N :    0.299942
  22 C :    0.123575
  23 C :    0.197367
  24 H :   -0.227651
  25 H :   -0.231427
  26 H :   -0.174053
  27 H :   -0.154570

  Mayer bond orders larger than 0.100000
B(  0-C ,  1-C ) :   0.4054 B(  0-C ,  2-C ) :   0.3287 B(  0-C ,  5-C ) :   0.1018
B(  0-C ,  6-C ) :   0.9739 B(  0-C ,  7-H ) :   1.1508 B(  0-C ,  8-H ) :   1.1145
B(  0-C , 13-C ) :  -0.2964 B(  0-C , 18-C ) :  -0.1264 B(  0-C , 19-C ) :   0.1416
B(  0-C , 27-H ) :   0.1485 B(  1-C ,  2-C ) :   1.4107 B(  1-C ,  3-C ) :   0.2574
B(  1-C ,  4-C ) :  -0.3118 B(  1-C ,  5-C ) :  -0.2030 B(  1-C ,  6-C ) :   0.1098
B(  1-C ,  7-H ) :  -0.1120 B(  1-C ,  8-H ) :   0.1053 B(  1-C , 10-C ) :  -0.2409
B(  1-C , 13-C ) :   1.0706 B(  1-C , 18-C ) :   0.1683 B(  1-C , 19-C ) :   1.1833
B(  1-C , 23-C ) :   0.3285 B(  2-C ,  3-C ) :   0.9026 B(  2-C ,  4-C ) :   0.2252
B(  2-C ,  5-C ) :   0.1270 B(  2-C , 13-C ) :  -0.3555 B(  2-C , 17-C ) :  -0.1933
B(  2-C , 20-N ) :   0.1106 B(  2-C , 23-C ) :   1.3147 B(  2-C , 27-H ) :   1.0380
B(  3-C ,  4-C ) :   1.0276 B(  3-C , 10-C ) :   1.0071 B(  3-C , 16-H ) :   0.8221
B(  4-C ,  5-C ) :   1.5419 B(  4-C , 12-H ) :   0.7023 B(  4-C , 13-C ) :   0.1237
B(  4-C , 16-H ) :  -0.1507 B(  5-C ,  6-C ) :   1.1489 B(  5-C ,  9-H ) :  -0.1194
B(  5-C , 11-H ) :   0.6742 B(  5-C , 13-C ) :   0.1136 B(  6-C ,  9-H ) :   0.7829
B(  6-C , 10-C ) :   1.0508 B(  8-H , 13-C ) :  -0.2356 B( 10-C , 14-H ) :   0.8711
B( 10-C , 15-H ) :   1.0373 B( 13-C , 18-C ) :   0.9334 B( 13-C , 19-C ) :  -0.3956
B( 13-C , 20-N ) :   0.2897 B( 13-C , 21-N ) :   0.3488 B( 13-C , 27-H ) :  -0.1315
B( 17-C , 22-C ) :   1.0143 B( 17-C , 23-C ) :  -0.3185 B( 17-C , 24-H ) :   0.8733
B( 17-C , 25-H ) :   1.2825 B( 18-C , 19-C ) :  -0.2823 B( 18-C , 20-N ) :   1.2906
B( 19-C , 21-N ) :   1.3702 B( 22-C , 23-C ) :   1.1417 B( 22-C , 25-H ) :  -0.2146
B( 23-C , 26-H ) :   1.2438

MP2 TOTAL ENERGY:     -648.774613148 Eh
FINAL SINGLE POINT ENERGY      -648.774613148095

DIPOLE MOMENT
-------------
                                X             Y             Z
Electronic contribution:     10.11496      -4.98949       3.66073
Nuclear contribution   :    -12.48107       6.01496      -4.23666
                        -----------------------------------------
Total Dipole Moment    :     -2.36611       1.02546      -0.57593
                        -----------------------------------------
Magnitude (a.u.)       :      2.64230
Magnitude (Debye)      :      6.71620

Rotational constants in cm-1:     0.023128     0.016962     0.014036
Rotational constants in MHz :   693.369366   508.497985   420.801379

                             ****ORCA TERMINATED NORMALLY****
TOTAL RUN TIME: 0 days 0 hours 24 minutes 58 seconds 215 msec
