                         Program Version 4.2.1 -  RELEASE  -
|  1> %pal
|  2>  nprocs 32
|  3> end
|  4> !RI-MP2 aug-cc-pVTZ aug-cc-pVTZ/C TightSCF
|  5> %maxcore 4500
|  6> *xyzfile 0 2  04_84R.xyz
|  7>
|  8>
|  9>                          ****END OF INPUT****

CARTESIAN COORDINATES (ANGSTROEM)
---------------------------------
  C     -2.545477    0.078286   -0.017118
  C     -3.711686    0.986587   -0.347208
  C     -4.990090    0.763213    0.455373
  H     -3.908693    0.891036   -1.420998
  H     -3.380414    2.021027   -0.213601
  C     -5.674072   -0.558133    0.276535
  H     -5.695469    1.567919    0.183629
  H     -4.778874    0.919053    1.519360
  C     -5.739982   -1.181849   -1.076700
  C     -6.714980   -0.926860    1.278534
  N     -2.596204   -0.963280    0.700546
  C     -1.217859    0.510763   -0.604073
  H     -1.423159    1.025329   -1.553252
  C     -0.274062   -0.658030   -0.879519
  C     -0.531446    1.521773    0.329204
  H     -7.669186   -0.413089    1.075296
  H     -6.418907   -0.648152    2.293197
  H     -6.927328   -1.998604    1.265102
  H     -6.400866   -0.613492   -1.751727
  H     -6.137444   -2.197211   -1.023659
  H     -4.762364   -1.232775   -1.561861
  H     -1.165082    2.398736    0.488667
  C      0.810085    1.969739   -0.239838
  H     -0.372503    1.049203    1.302631
  H     -0.730239   -1.348281   -1.593904
  H     -0.119010   -1.215846    0.045481
  C      1.063641   -0.168544   -1.423939
  H      0.919817    0.295768   -2.409021
  H      1.761207   -0.990618   -1.543880
  N      1.650365    0.821500   -0.531814
  H      1.344878    2.608216    0.458460
  H      0.650114    2.536163   -1.166911
  C      2.865407    0.712042    0.068039
  O      3.322461    1.535768    0.835012
  O      3.495086   -0.420807   -0.298205
  C      4.808181   -0.764571    0.242816
  C      4.726577   -0.932625    1.754748
  C      5.101491   -2.098300   -0.428723
  H      6.073804   -2.474318   -0.105734
  H      5.115446   -1.984645   -1.513963
  H      4.339328   -2.833863   -0.166374
  H      5.676664   -1.321785    2.127215
  H      3.942020   -1.647242    2.012477
  H      4.517460    0.015614    2.244530
  C      5.837182    0.280714   -0.168681
  H      6.833442   -0.057000    0.125152
  H      5.634651    1.238348    0.305249
  H      5.828480    0.411035   -1.252961
  H     -3.544744   -1.132978    1.039111

 Total Charge           Charge          ....    0
 Multiplicity           Mult            ....    2
 Number of Electrons    NEL             ....  155
 Basis Dimension        Dim             .... 1587

ORBITAL ENERGIES
----------------
                 SPIN UP ORBITALS
  NO   OCC          E(Eh)            E(eV)
   0   1.0000     -20.580398      -560.0211
   1   1.0000     -20.505612      -557.9861
   2   1.0000     -15.573438      -423.7748
   3   1.0000     -15.534686      -422.7203
   4   1.0000     -11.385869      -309.8253
   5   1.0000     -11.293976      -307.3247
   6   1.0000     -11.277604      -306.8792
   7   1.0000     -11.255315      -306.2727
   8   1.0000     -11.253616      -306.2265
   9   1.0000     -11.238760      -305.8222
  10   1.0000     -11.236397      -305.7579
  11   1.0000     -11.233156      -305.6697
  12   1.0000     -11.232497      -305.6518
  13   1.0000     -11.225634      -305.4650
  14   1.0000     -11.220056      -305.3133
  15   1.0000     -11.219966      -305.3108
  16   1.0000     -11.215757      -305.1963
  17   1.0000     -11.213491      -305.1346
  18   1.0000     -11.205144      -304.9075
  19   1.0000     -11.204906      -304.9010
  20   1.0000      -1.447039       -39.3759
  21   1.0000      -1.340205       -36.4688
  22   1.0000      -1.250412       -34.0254
  23   1.0000      -1.216947       -33.1148
  24   1.0000      -1.111518       -30.2459
  25   1.0000      -1.093052       -29.7435
  26   1.0000      -1.072947       -29.1964
  27   1.0000      -1.027703       -27.9652
  28   1.0000      -1.021457       -27.7953
  29   1.0000      -0.946400       -25.7529
  30   1.0000      -0.943161       -25.6647
  31   1.0000      -0.938371       -25.5344
  32   1.0000      -0.936242       -25.4764
  33   1.0000      -0.894178       -24.3318
  34   1.0000      -0.864214       -23.5165
  35   1.0000      -0.830024       -22.5861
  36   1.0000      -0.788528       -21.4569
  37   1.0000      -0.753350       -20.4997
  38   1.0000      -0.740329       -20.1454
  39   1.0000      -0.721800       -19.6412
  40   1.0000      -0.707675       -19.2568
  41   1.0000      -0.666863       -18.1463
  42   1.0000      -0.659522       -17.9465
  43   1.0000      -0.655883       -17.8475
  44   1.0000      -0.641237       -17.4490
  45   1.0000      -0.628082       -17.0910
  46   1.0000      -0.620649       -16.8887
  47   1.0000      -0.617349       -16.7989
  48   1.0000      -0.613919       -16.7056
  49   1.0000      -0.610541       -16.6137
  50   1.0000      -0.595423       -16.2023
  51   1.0000      -0.585905       -15.9433
  52   1.0000      -0.580922       -15.8077
  53   1.0000      -0.575663       -15.6646
  54   1.0000      -0.563633       -15.3372
  55   1.0000      -0.556733       -15.1495
  56   1.0000      -0.547516       -14.8987
  57   1.0000      -0.546724       -14.8771
  58   1.0000      -0.539917       -14.6919
  59   1.0000      -0.528423       -14.3791
  60   1.0000      -0.527462       -14.3530
  61   1.0000      -0.519836       -14.1455
  62   1.0000      -0.513482       -13.9726
  63   1.0000      -0.507034       -13.7971
  64   1.0000      -0.503600       -13.7037
  65   1.0000      -0.494959       -13.4685
  66   1.0000      -0.490226       -13.3397
  67   1.0000      -0.486212       -13.2305
  68   1.0000      -0.477499       -12.9934
  69   1.0000      -0.476951       -12.9785
  70   1.0000      -0.465762       -12.6740
  71   1.0000      -0.463692       -12.6177
  72   1.0000      -0.440195       -11.9783
  73   1.0000      -0.425895       -11.5892
  74   1.0000      -0.411785       -11.2052
  75   1.0000      -0.406767       -11.0687
  76   1.0000      -0.364218        -9.9109
  77   1.0000      -0.318400        -8.6641
  78   0.0000       0.023583         0.6417
  79   0.0000       0.027986         0.7615
  80   0.0000       0.030021         0.8169
  81   0.0000       0.032107         0.8737
  82   0.0000       0.037241         1.0134

                 SPIN DOWN ORBITALS
  NO   OCC          E(Eh)            E(eV)
   0   1.0000     -20.580398      -560.0211
   1   1.0000     -20.505612      -557.9861
   2   1.0000     -15.573438      -423.7748
   3   1.0000     -15.533558      -422.6896
   4   1.0000     -11.385869      -309.8253
   5   1.0000     -11.293976      -307.3247
   6   1.0000     -11.277957      -306.8888
   7   1.0000     -11.255316      -306.2727
   8   1.0000     -11.253618      -306.2265
   9   1.0000     -11.238256      -305.8085
  10   1.0000     -11.235453      -305.7322
  11   1.0000     -11.233040      -305.6666
  12   1.0000     -11.225659      -305.4657
  13   1.0000     -11.223071      -305.3953
  14   1.0000     -11.222935      -305.3916
  15   1.0000     -11.215763      -305.1964
  16   1.0000     -11.213491      -305.1346
  17   1.0000     -11.211835      -305.0895
  18   1.0000     -11.205144      -304.9075
  19   1.0000     -11.204906      -304.9010
  20   1.0000      -1.447039       -39.3759
  21   1.0000      -1.340206       -36.4688
  22   1.0000      -1.250389       -34.0248
  23   1.0000      -1.214705       -33.0538
  24   1.0000      -1.093096       -29.7447
  25   1.0000      -1.081316       -29.4241
  26   1.0000      -1.072623       -29.1876
  27   1.0000      -1.026545       -27.9337
  28   1.0000      -1.013393       -27.5758
  29   1.0000      -0.945921       -25.7398
  30   1.0000      -0.942845       -25.6561
  31   1.0000      -0.938332       -25.5333
  32   1.0000      -0.936242       -25.4764
  33   1.0000      -0.891876       -24.2692
  34   1.0000      -0.864203       -23.5162
  35   1.0000      -0.828241       -22.5376
  36   1.0000      -0.787132       -21.4189
  37   1.0000      -0.742279       -20.1984
  38   1.0000      -0.722226       -19.6528
  39   1.0000      -0.710347       -19.3295
  40   1.0000      -0.707554       -19.2535
  41   1.0000      -0.660796       -17.9812
  42   1.0000      -0.659453       -17.9446
  43   1.0000      -0.652364       -17.7517
  44   1.0000      -0.636704       -17.3256
  45   1.0000      -0.625627       -17.0242
  46   1.0000      -0.619621       -16.8607
  47   1.0000      -0.615528       -16.7494
  48   1.0000      -0.609677       -16.5901
  49   1.0000      -0.598449       -16.2846
  50   1.0000      -0.582347       -15.8465
  51   1.0000      -0.580392       -15.7933
  52   1.0000      -0.578521       -15.7423
  53   1.0000      -0.572113       -15.5680
  54   1.0000      -0.560752       -15.2588
  55   1.0000      -0.554798       -15.0968
  56   1.0000      -0.546414       -14.8687
  57   1.0000      -0.538639       -14.6571
  58   1.0000      -0.535997       -14.5852
  59   1.0000      -0.528331       -14.3766
  60   1.0000      -0.525345       -14.2954
  61   1.0000      -0.516340       -14.0503
  62   1.0000      -0.513481       -13.9725
  63   1.0000      -0.506860       -13.7924
  64   1.0000      -0.502014       -13.6605
  65   1.0000      -0.494398       -13.4533
  66   1.0000      -0.487332       -13.2610
  67   1.0000      -0.482373       -13.1260
  68   1.0000      -0.477480       -12.9929
  69   1.0000      -0.473044       -12.8722
  70   1.0000      -0.464674       -12.6444
  71   1.0000      -0.463140       -12.6027
  72   1.0000      -0.440192       -11.9782
  73   1.0000      -0.425469       -11.5776
  74   1.0000      -0.408339       -11.1115
  75   1.0000      -0.401110       -10.9148
  76   1.0000      -0.363934        -9.9031
  77   0.0000       0.023170         0.6305
  78   0.0000       0.027954         0.7607
  79   0.0000       0.030095         0.8189
  80   0.0000       0.032147         0.8748
  81   0.0000       0.036983         1.0064

MULLIKEN ATOMIC CHARGES AND SPIN POPULATIONS
--------------------------------------------
   0 C :    1.330227   -0.025343
   1 C :   -0.493443    0.031601
   2 C :   -0.532220   -0.217012
   3 H :    0.099887   -0.004047
   4 H :    0.444079   -0.009803
   5 C :    0.777737    1.291924
   6 H :    0.299113    0.124144
   7 H :    0.122636    0.008621
   8 C :   -1.197180   -0.214325
   9 C :   -1.177082   -0.221298
  10 N :   -1.371728    0.046268
  11 C :    0.514563    0.010555
  12 H :    0.191366    0.001677
  13 C :   -0.623554   -0.000076
  14 C :   -0.562849   -0.000273
  15 H :    0.265013    0.070510
  16 H :    0.262397    0.008405
  17 H :    0.272866    0.020019
  18 H :    0.247550    0.074670
  19 H :    0.193347    0.010051
  20 H :    0.354051    0.016931
  21 H :    0.308487    0.000599
  22 C :   -0.947406   -0.000168
  23 H :    0.200471    0.000128
  24 H :    0.290565    0.000141
  25 H :    0.193042   -0.000017
  26 C :   -0.947275    0.000131
  27 H :    0.171469   -0.000030
  28 H :    0.366884    0.000042
  29 N :    0.312963   -0.000119
  30 H :    0.419786    0.000006
  31 H :    0.109506   -0.000064
  32 C :    1.061040    0.000043
  33 O :   -1.078442   -0.000000
  34 O :   -0.325990   -0.000022
  35 C :    1.847693    0.000004
  36 C :   -1.252779   -0.000004
  37 C :   -1.422099    0.000004
  38 H :    0.234459   -0.000000
  39 H :    0.224645   -0.000001
  40 H :    0.232344    0.000002
  41 H :    0.246228   -0.000001
  42 H :    0.261142    0.000004
  43 H :    0.336525    0.000002
  44 C :   -1.243079    0.000002
  45 H :    0.242641   -0.000000
  46 H :    0.343102    0.000000
  47 H :    0.240210    0.000000
  48 H :    0.157088   -0.023880
Sum of atomic charges         :   -0.0000000

LOEWDIN ATOMIC CHARGES AND SPIN POPULATIONS
-------------------------------------------
   0 C :   -0.249838   -0.000593
   1 C :    0.299197    0.005336
   2 C :    0.263223    0.095542
   3 H :   -0.144446    0.000377
   4 H :   -0.146733   -0.000034
   5 C :   -0.066073    0.530762
   6 H :   -0.127926    0.028313
   7 H :   -0.147680    0.006119
   8 C :    0.565949    0.103363
   9 C :    0.564881    0.103800
  10 N :    0.729963    0.020496
  11 C :   -0.019038    0.000142
  12 H :   -0.129704    0.000117
  13 C :    0.306268    0.000149
  14 C :    0.322204   -0.000260
  15 H :   -0.155368    0.028809
  16 H :   -0.174174    0.005431
  17 H :   -0.175602    0.006224
  18 H :   -0.150586    0.028029
  19 H :   -0.172572    0.003242
  20 H :   -0.183682    0.008214
  21 H :   -0.137435   -0.000063
  22 C :    0.210279   -0.000048
  23 H :   -0.125408   -0.000013
  24 H :   -0.127922   -0.000017
  25 H :   -0.147219    0.000110
  26 C :    0.215148    0.000021
  27 H :   -0.125904    0.000008
  28 H :   -0.178620    0.000009
  29 N :    0.271991   -0.000004
  30 H :   -0.174689   -0.000009
  31 H :   -0.123977    0.000004
  32 C :   -0.923477    0.000001
  33 O :    0.488703   -0.000001
  34 O :    0.630781    0.000001
  35 C :   -0.568753    0.000000
  36 C :    0.588420    0.000000
  37 C :    0.576090    0.000000
  38 H :   -0.158105    0.000000
  39 H :   -0.159612    0.000000
  40 H :   -0.159398    0.000000
  41 H :   -0.156802    0.000000
  42 H :   -0.155408    0.000000
  43 H :   -0.194809    0.000000
  44 C :    0.588150    0.000000
  45 H :   -0.157036    0.000000
  46 H :   -0.195614    0.000000
  47 H :   -0.155962    0.000000
  48 H :   -0.451676    0.026423

  Mayer bond orders larger than 0.100000
B(  0-C ,  1-C ) :   0.7220 B(  0-C , 10-N ) :  -0.1010 B(  0-C , 11-C ) :   1.1020
B(  0-C , 13-C ) :  -0.1009 B(  1-C ,  2-C ) :   1.0557 B(  1-C ,  3-H ) :   1.0784
B(  1-C ,  4-H ) :   0.8216 B(  1-C ,  5-C ) :   0.1200 B(  2-C ,  3-H ) :   0.1065
B(  2-C ,  5-C ) :   0.8397 B(  2-C ,  6-H ) :   0.9548 B(  2-C ,  7-H ) :   1.0813
B(  5-C ,  8-C ) :   0.6534 B(  5-C ,  9-C ) :   0.4827 B(  8-C , 18-H ) :   0.9995
B(  8-C , 19-H ) :   1.0802 B(  8-C , 20-H ) :   0.9409 B(  9-C , 15-H ) :   1.0042
B(  9-C , 16-H ) :   1.0470 B(  9-C , 17-H ) :   1.0216 B( 10-N , 11-C ) :   0.4115
B( 10-N , 48-H ) :   0.8980 B( 11-C , 12-H ) :   0.8794 B( 11-C , 13-C ) :   0.7646
B( 11-C , 14-C ) :   0.6813 B( 11-C , 26-C ) :  -0.1679 B( 13-C , 14-C ) :   0.2361
B( 13-C , 24-H ) :   0.9097 B( 13-C , 25-H ) :   1.0651 B( 13-C , 26-C ) :   1.0441
B( 14-C , 21-H ) :   0.9106 B( 14-C , 22-C ) :   0.9481 B( 14-C , 23-H ) :   1.0489
B( 22-C , 29-N ) :   0.9741 B( 22-C , 30-H ) :   0.9177 B( 22-C , 31-H ) :   1.1650
B( 22-C , 32-C ) :  -0.2187 B( 26-C , 27-H ) :   1.1295 B( 26-C , 28-H ) :   0.9277
B( 26-C , 29-N ) :   0.9885 B( 26-C , 32-C ) :  -0.1451 B( 26-C , 34-O ) :  -0.1739
B( 29-N , 30-H ) :  -0.1193 B( 29-N , 32-C ) :   0.7148 B( 29-N , 33-O ) :  -0.2929
B( 32-C , 33-O ) :   1.1901 B( 32-C , 34-O ) :   1.2295 B( 34-O , 35-C ) :   0.1639
B( 34-O , 37-C ) :  -0.1305 B( 35-C , 36-C ) :   0.4711 B( 35-C , 37-C ) :   0.3465
B( 35-C , 38-H ) :  -0.1048 B( 35-C , 44-C ) :   0.5339 B( 36-C , 41-H ) :   1.0537
B( 36-C , 42-H ) :   1.0444 B( 36-C , 43-H ) :   0.9441 B( 36-C , 44-C ) :   0.1153
B( 37-C , 38-H ) :   1.1109 B( 37-C , 39-H ) :   1.1116 B( 37-C , 40-H ) :   1.1017
B( 44-C , 45-H ) :   1.0482 B( 44-C , 46-H ) :   0.9312 B( 44-C , 47-H ) :   1.0699

MP2 TOTAL ENERGY:     -885.344720394 Eh
FINAL SINGLE POINT ENERGY      -885.344720393987

DIPOLE MOMENT
-------------
                                X             Y             Z
Electronic contribution:      9.96592       5.29999      -0.05824
Nuclear contribution   :    -11.06298      -5.29170      -0.80977
                        -----------------------------------------
Total Dipole Moment    :     -1.09706       0.00829      -0.86800
                        -----------------------------------------
Magnitude (a.u.)       :      1.39894
Magnitude (Debye)      :      3.55582

Rotational constants in cm-1:     0.031163     0.003665     0.003552
Rotational constants in MHz :   934.252573   109.885312   106.478983

                             ****ORCA TERMINATED NORMALLY****
TOTAL RUN TIME: 0 days 2 hours 18 minutes 41 seconds 749 msec
