                         Program Version 4.2.1 -  RELEASE  -
|  1> %pal
|  2>  nprocs 32
|  3> end
|  4> !RI-MP2 aug-cc-pVTZ aug-cc-pVTZ/C TightSCF
|  5> %maxcore 4500
|  6> *xyzfile 0 1  03_11R1.xyz
|  7>
|  8>
|  9>                          ****END OF INPUT****

CARTESIAN COORDINATES (ANGSTROEM)
---------------------------------
  C      0.000001   -1.878488    0.765806
  C      0.000001   -1.878488   -0.765806
  C      0.000001   -0.422672    1.184170
  N      0.000012    0.324454    0.000000
  C      0.000001   -0.422672   -1.184170
  O     -0.000009    0.033857   -2.287921
  O     -0.000009    0.033857    2.287921
  Cl     0.000003    2.013483    0.000000
  H      0.878219   -2.357044    1.199375
  H     -0.878218   -2.357044    1.199375
  H     -0.878218   -2.357044   -1.199375
  H      0.878219   -2.357044   -1.199375

 Total Charge           Charge          ....    0
 Multiplicity           Mult            ....    1
 Number of Electrons    NEL             ....   68
 Basis Dimension        Dim             ....  464

ORBITAL ENERGIES
----------------

  NO   OCC          E(Eh)            E(eV)
   0   2.0000    -104.895837     -2854.3608
   1   2.0000     -20.567837      -559.6793
   2   2.0000     -20.567837      -559.6793
   3   2.0000     -15.677400      -426.6037
   4   2.0000     -11.393650      -310.0370
   5   2.0000     -11.393634      -310.0365
   6   2.0000     -11.280375      -306.9546
   7   2.0000     -11.279772      -306.9382
   8   2.0000     -10.616100      -288.8788
   9   2.0000      -8.083285      -219.9574
  10   2.0000      -8.080295      -219.8760
  11   2.0000      -8.080192      -219.8732
  12   2.0000      -1.448587       -39.4181
  13   2.0000      -1.426187       -38.8085
  14   2.0000      -1.317440       -35.8494
  15   2.0000      -1.155683       -31.4477
  16   2.0000      -1.051639       -28.6166
  17   2.0000      -0.976211       -26.5641
  18   2.0000      -0.866721       -23.5847
  19   2.0000      -0.775172       -21.0935
  20   2.0000      -0.711614       -19.3640
  21   2.0000      -0.704688       -19.1755
  22   2.0000      -0.681949       -18.5568
  23   2.0000      -0.636071       -17.3084
  24   2.0000      -0.624634       -16.9971
  25   2.0000      -0.622449       -16.9377
  26   2.0000      -0.603144       -16.4124
  27   2.0000      -0.585650       -15.9364
  28   2.0000      -0.517998       -14.0954
  29   2.0000      -0.517827       -14.0908
  30   2.0000      -0.491192       -13.3660
  31   2.0000      -0.480148       -13.0655
  32   2.0000      -0.445114       -12.1122
  33   2.0000      -0.418966       -11.4006
  34   0.0000       0.020446         0.5564
  35   0.0000       0.033837         0.9208
  36   0.0000       0.038850         1.0572
  37   0.0000       0.053012         1.4425
  38   0.0000       0.057008         1.5513

MULLIKEN ATOMIC CHARGES
-----------------------
   0 C :   -0.279856
   1 C :   -0.279856
   2 C :    0.243723
   3 N :    0.495505
   4 C :    0.243723
   5 O :   -0.725474
   6 O :   -0.725474
   7 Cl:   -0.093091
   8 H :    0.280200
   9 H :    0.280200
  10 H :    0.280200
  11 H :    0.280200
Sum of atomic charges:    0.0000000

LOEWDIN ATOMIC CHARGES
----------------------
   0 C :    0.307265
   1 C :    0.307265
   2 C :   -0.751684
   3 N :   -0.359271
   4 C :   -0.751684
   5 O :    0.445761
   6 O :    0.445761
   7 Cl:    0.928896
   8 H :   -0.143078
   9 H :   -0.143077
  10 H :   -0.143077
  11 H :   -0.143078

  Mayer bond orders larger than 0.100000
B(  0-C ,  1-C ) :   0.9719 B(  0-C ,  2-C ) :   0.5325 B(  0-C ,  4-C ) :   0.1664
B(  0-C ,  8-H ) :   0.9486 B(  0-C ,  9-H ) :   0.9486 B(  1-C ,  2-C ) :   0.1664
B(  1-C ,  4-C ) :   0.5325 B(  1-C , 10-H ) :   0.9486 B(  1-C , 11-H ) :   0.9486
B(  2-C ,  3-N ) :   0.8917 B(  2-C ,  6-O ) :   1.5564 B(  3-N ,  4-C ) :   0.8917
B(  3-N ,  5-O ) :  -0.1334 B(  3-N ,  6-O ) :  -0.1334 B(  3-N ,  7-Cl) :   0.9586
B(  4-C ,  5-O ) :   1.5564

MP2 TOTAL ENERGY:     -819.126673694 Eh
FINAL SINGLE POINT ENERGY      -819.126673693951

DIPOLE MOMENT
-------------
                                X             Y             Z
Electronic contribution:      0.00001      10.28299      -0.00000
Nuclear contribution   :     -0.00000     -11.76900       0.00000
                        -----------------------------------------
Total Dipole Moment    :      0.00001      -1.48601      -0.00000
                        -----------------------------------------
Magnitude (a.u.)       :      1.48601
Magnitude (Debye)      :      3.77713

Rotational constants in cm-1:     0.075197     0.065165     0.035367
Rotational constants in MHz :  2254.357665  1953.609129  1060.274647

                             ****ORCA TERMINATED NORMALLY****
TOTAL RUN TIME: 0 days 0 hours 1 minutes 52 seconds 604 msec
