                         Program Version 4.2.1 -  RELEASE  -
|  1> %pal
|  2>  nprocs 32
|  3> end
|  4> !RI-MP2 aug-cc-pVTZ aug-cc-pVTZ/C TightSCF
|  5> %maxcore 4500
|  6> *xyzfile 1 1  10_12R1.xyz
|  7>
|  8>
|  9>                          ****END OF INPUT****

CARTESIAN COORDINATES (ANGSTROEM)
---------------------------------
  C      2.603809   -0.009870   -0.000014
  N      1.424209   -0.439239   -0.000051
  N      0.395732   -1.057837   -0.000105
  C     -0.848662   -0.418140   -0.000037
  C     -1.946293   -1.279067   -0.000115
  C     -1.002518    0.973507    0.000099
  C     -3.220404   -0.739589   -0.000056
  H     -1.779111   -2.348508   -0.000220
  C     -2.276852    1.494844    0.000157
  H     -0.139132    1.627703    0.000158
  C     -3.381681    0.639313    0.000080
  H     -4.084749   -1.390157   -0.000114
  H     -2.423950    2.566875    0.000262
  H     -4.379124    1.061277    0.000126
  C      3.296703    0.254530    1.301974
  H      2.670214    0.013129    2.157661
  H      4.207534   -0.347666    1.337782
  H      3.593108    1.304353    1.348721
  C      3.296695    0.254774   -1.301957
  H      2.670174    0.013608   -2.157686
  H      3.593175    1.304585   -1.348474
  H      4.207482   -0.347481   -1.337918

 Total Charge           Charge          ....    1
 Multiplicity           Mult            ....    1
 Number of Electrons    NEL             ....   78
 Basis Dimension        Dim             ....  759

ORBITAL ENERGIES
----------------

  NO   OCC          E(Eh)            E(eV)
   0   2.0000     -15.868981      -431.8169
   1   2.0000     -15.866850      -431.7589
   2   2.0000     -11.524227      -313.5902
   3   2.0000     -11.430278      -311.0337
   4   2.0000     -11.404546      -310.3335
   5   2.0000     -11.404531      -310.3331
   6   2.0000     -11.399430      -310.1943
   7   2.0000     -11.397076      -310.1302
   8   2.0000     -11.389101      -309.9132
   9   2.0000     -11.378830      -309.6337
  10   2.0000     -11.374211      -309.5080
  11   2.0000      -1.620370       -44.0925
  12   2.0000      -1.381711       -37.5983
  13   2.0000      -1.306070       -35.5400
  14   2.0000      -1.205465       -32.8024
  15   2.0000      -1.174532       -31.9606
  16   2.0000      -1.145089       -31.1595
  17   2.0000      -1.138956       -30.9926
  18   2.0000      -1.036846       -28.2140
  19   2.0000      -0.988046       -26.8861
  20   2.0000      -0.912918       -24.8418
  21   2.0000      -0.867392       -23.6029
  22   2.0000      -0.849727       -23.1223
  23   2.0000      -0.846160       -23.0252
  24   2.0000      -0.829538       -22.5729
  25   2.0000      -0.785148       -21.3650
  26   2.0000      -0.758415       -20.6375
  27   2.0000      -0.751487       -20.4490
  28   2.0000      -0.741248       -20.1704
  29   2.0000      -0.730506       -19.8781
  30   2.0000      -0.727243       -19.7893
  31   2.0000      -0.719719       -19.5845
  32   2.0000      -0.699580       -19.0365
  33   2.0000      -0.666472       -18.1356
  34   2.0000      -0.647959       -17.6319
  35   2.0000      -0.640347       -17.4247
  36   2.0000      -0.579462       -15.7680
  37   2.0000      -0.489712       -13.3257
  38   2.0000      -0.488321       -13.2879
  39   0.0000      -0.119095        -3.2407
  40   0.0000      -0.076101        -2.0708
  41   0.0000      -0.058177        -1.5831
  42   0.0000      -0.055974        -1.5231
  43   0.0000      -0.055266        -1.5039

MULLIKEN ATOMIC CHARGES
-----------------------
   0 C :    0.421946
   1 N :    0.342630
   2 N :   -1.041286
   3 C :    1.400013
   4 C :   -0.891053
   5 C :   -0.540339
   6 C :   -0.514725
   7 H :    0.747281
   8 C :   -0.876595
   9 H :    0.762138
  10 C :   -0.380197
  11 H :    0.333582
  12 H :    0.406035
  13 H :    0.586340
  14 C :   -0.861409
  15 H :    0.307765
  16 H :    0.352698
  17 H :    0.323065
  18 C :   -0.861414
  19 H :    0.307765
  20 H :    0.323063
  21 H :    0.352696
Sum of atomic charges:    1.0000000

LOEWDIN ATOMIC CHARGES
----------------------
   0 C :   -0.168696
   1 N :    0.297269
   2 N :    0.356448
   3 C :   -0.272439
   4 C :    0.230870
   5 C :    0.228139
   6 C :    0.241776
   7 H :   -0.158577
   8 C :    0.237485
   9 H :   -0.170098
  10 C :    0.249521
  11 H :   -0.165838
  12 H :   -0.166966
  13 H :   -0.156010
  14 C :    0.649191
  15 H :   -0.152933
  16 H :   -0.142899
  17 H :   -0.144800
  18 C :    0.649191
  19 H :   -0.152934
  20 H :   -0.144801
  21 H :   -0.142898

  Mayer bond orders larger than 0.100000
B(  0-C ,  1-N ) :   1.2333 B(  0-C ,  2-N ) :  -0.2661 B(  0-C , 14-C ) :   0.7316
B(  0-C , 18-C ) :   0.7316 B(  1-N ,  2-N ) :   0.4779 B(  1-N ,  3-C ) :   0.2989
B(  1-N ,  4-C ) :   0.1566 B(  1-N ,  5-C ) :   0.1705 B(  1-N ,  9-H ) :  -0.3699
B(  2-N ,  3-C ) :   0.2116 B(  2-N ,  5-C ) :  -0.4035 B(  2-N ,  9-H ) :   0.2128
B(  3-C ,  4-C ) :   0.4788 B(  3-C ,  5-C ) :   0.5284 B(  3-C ,  6-C ) :  -0.2490
B(  3-C ,  7-H ) :   0.1364 B(  3-C ,  8-C ) :  -0.3217 B(  3-C ,  9-H ) :   0.1916
B(  3-C , 10-C ) :  -0.1179 B(  4-C ,  5-C ) :   0.4363 B(  4-C ,  6-C ) :   1.2710
B(  4-C ,  7-H ) :   0.1375 B(  4-C , 10-C ) :   0.3240 B(  5-C ,  8-C ) :   1.2563
B(  5-C ,  9-H ) :   0.2654 B(  5-C , 10-C ) :   0.2424 B(  6-C ,  8-C ) :  -0.1266
B(  6-C , 10-C ) :   1.0811 B(  6-C , 11-H ) :   1.0450 B(  8-C , 10-C ) :   1.1896
B(  8-C , 12-H ) :   0.9057 B( 10-C , 13-H ) :   0.5967 B( 14-C , 15-H ) :   0.9553
B( 14-C , 16-H ) :   0.9149 B( 14-C , 17-H ) :   0.9189 B( 18-C , 19-H ) :   0.9553
B( 18-C , 20-H ) :   0.9189 B( 18-C , 21-H ) :   0.9149

MP2 TOTAL ENERGY:     -457.835963505 Eh
FINAL SINGLE POINT ENERGY      -457.835963505226

DIPOLE MOMENT
-------------
                                X             Y             Z
Electronic contribution:     -6.42462      -3.04306      -0.00027
Nuclear contribution   :      8.21087       3.47627       0.00030
                        -----------------------------------------
Total Dipole Moment    :      1.78626       0.43320       0.00003
                        -----------------------------------------
Magnitude (a.u.)       :      1.83804
Magnitude (Debye)      :      4.67192

Rotational constants in cm-1:     0.099000     0.017898     0.016902
Rotational constants in MHz :  2967.951297   536.571799   506.704349

                             ****ORCA TERMINATED NORMALLY****
TOTAL RUN TIME: 0 days 0 hours 7 minutes 21 seconds 582 msec
