                         Program Version 4.2.1 -  RELEASE  -
|  1> %pal
|  2>  nprocs 32
|  3> end
|  4> !RI-MP2 aug-cc-pVTZ aug-cc-pVTZ/C TightSCF
|  5> %maxcore 4500
|  6> *xyzfile 0 1  02_30R1.xyz
|  7>
|  8>
|  9>                          ****END OF INPUT****

CARTESIAN COORDINATES (ANGSTROEM)
---------------------------------
  C     -0.482504   -0.609961    1.359621
  C      0.482504    0.609961    1.359621
  C     -0.144262   -0.581405   -1.464876
  C      0.060182    1.868140    0.572863
  C      0.144262    0.581405   -1.464876
  C      0.482504    1.886381   -0.913061
  C     -0.060182   -1.868140    0.572863
  C     -0.482504   -1.886381   -0.913061
  H      1.474521    0.291906    1.022803
  H     -1.027264    1.974374    0.628298
  H      0.611859    0.919991    2.399596
  H      0.483319    2.753546    1.056360
  H     -0.009950    2.707661   -1.438816
  H      1.560257    2.057430   -0.995521
  H     -0.483319   -2.753546    1.056360
  H      1.027264   -1.974374    0.628298
  H      0.009950   -2.707661   -1.438816
  H     -1.560257   -2.057430   -0.995521
  H     -0.611859   -0.919991    2.399596
  H     -1.474521   -0.291906    1.022803

 Total Charge           Charge          ....    0
 Multiplicity           Mult            ....    1
 Number of Electrons    NEL             ....   60
 Basis Dimension        Dim             ....  644

ORBITAL ENERGIES
----------------

  NO   OCC          E(Eh)            E(eV)
   0   2.0000     -11.243178      -305.9424
   1   2.0000     -11.243178      -305.9424
   2   2.0000     -11.225907      -305.4725
   3   2.0000     -11.225906      -305.4724
   4   2.0000     -11.219419      -305.2959
   5   2.0000     -11.218878      -305.2812
   6   2.0000     -11.208528      -304.9995
   7   2.0000     -11.204566      -304.8917
   8   2.0000      -1.111734       -30.2518
   9   2.0000      -1.060640       -28.8615
  10   2.0000      -1.030406       -28.0388
  11   2.0000      -0.936115       -25.4730
  12   2.0000      -0.915316       -24.9070
  13   2.0000      -0.814256       -22.1570
  14   2.0000      -0.782938       -21.3048
  15   2.0000      -0.664585       -18.0843
  16   2.0000      -0.646295       -17.5866
  17   2.0000      -0.625472       -17.0200
  18   2.0000      -0.606207       -16.4957
  19   2.0000      -0.582978       -15.8636
  20   2.0000      -0.577109       -15.7039
  21   2.0000      -0.539061       -14.6686
  22   2.0000      -0.530961       -14.4482
  23   2.0000      -0.517983       -14.0950
  24   2.0000      -0.491966       -13.3871
  25   2.0000      -0.462263       -12.5788
  26   2.0000      -0.453563       -12.3421
  27   2.0000      -0.449428       -12.2296
  28   2.0000      -0.360125        -9.7995
  29   2.0000      -0.355587        -9.6760
  30   0.0000       0.029628         0.8062
  31   0.0000       0.031003         0.8436
  32   0.0000       0.037468         1.0196
  33   0.0000       0.038248         1.0408
  34   0.0000       0.047136         1.2826

MULLIKEN ATOMIC CHARGES
-----------------------
   0 C :   -0.525242
   1 C :   -0.525242
   2 C :   -0.135783
   3 C :   -0.480123
   4 C :   -0.135783
   5 C :   -0.311844
   6 C :   -0.480123
   7 C :   -0.311844
   8 H :    0.241980
   9 H :    0.195010
  10 H :    0.227628
  11 H :    0.292451
  12 H :    0.287041
  13 H :    0.208882
  14 H :    0.292451
  15 H :    0.195010
  16 H :    0.287041
  17 H :    0.208882
  18 H :    0.227628
  19 H :    0.241980
Sum of atomic charges:    0.0000000

LOEWDIN ATOMIC CHARGES
----------------------
   0 C :    0.309386
   1 C :    0.309386
   2 C :    0.093940
   3 C :    0.287720
   4 C :    0.093940
   5 C :    0.227073
   6 C :    0.287720
   7 C :    0.227073
   8 H :   -0.152010
   9 H :   -0.147947
  10 H :   -0.155516
  11 H :   -0.146850
  12 H :   -0.158960
  13 H :   -0.156837
  14 H :   -0.146850
  15 H :   -0.147947
  16 H :   -0.158960
  17 H :   -0.156837
  18 H :   -0.155516
  19 H :   -0.152010

  Mayer bond orders larger than 0.100000
B(  0-C ,  1-C ) :   0.8778 B(  0-C ,  6-C ) :   0.9103 B(  0-C , 18-H ) :   0.9781
B(  0-C , 19-H ) :   0.9917 B(  1-C ,  3-C ) :   0.9103 B(  1-C ,  8-H ) :   0.9917
B(  1-C , 10-H ) :   0.9781 B(  2-C ,  4-C ) :   2.8741 B(  2-C ,  7-C ) :   0.7198
B(  3-C ,  5-C ) :   0.9464 B(  3-C ,  9-H ) :   1.0278 B(  3-C , 11-H ) :   0.9323
B(  4-C ,  5-C ) :   0.7198 B(  5-C , 12-H ) :   0.9634 B(  5-C , 13-H ) :   1.0143
B(  6-C ,  7-C ) :   0.9464 B(  6-C , 14-H ) :   0.9323 B(  6-C , 15-H ) :   1.0278
B(  7-C , 16-H ) :   0.9634 B(  7-C , 17-H ) :   1.0143

MP2 TOTAL ENERGY:     -311.316877878 Eh
FINAL SINGLE POINT ENERGY      -311.316877877776

DIPOLE MOMENT
-------------
                                X             Y             Z
Electronic contribution:      0.00000       0.00000      -4.99540
Nuclear contribution   :     -0.00000      -0.00000       5.56781
                        -----------------------------------------
Total Dipole Moment    :      0.00000       0.00000       0.57240
                        -----------------------------------------
Magnitude (a.u.)       :      0.57240
Magnitude (Debye)      :      1.45494

Rotational constants in cm-1:     0.103190     0.065056     0.043354
Rotational constants in MHz :  3093.565904  1950.321856  1299.721866

                             ****ORCA TERMINATED NORMALLY****
TOTAL RUN TIME: 0 days 0 hours 4 minutes 38 seconds 725 msec
