                         Program Version 4.2.1 -  RELEASE  -
|  1> %pal
|  2>  nprocs 32
|  3> end
|  4> !RI-MP2 aug-cc-pVTZ aug-cc-pVTZ/C TightSCF
|  5> %maxcore 4500
|  6> *xyzfile 0 1  10_40P.xyz
|  7>
|  8>
|  9>                          ****END OF INPUT****

CARTESIAN COORDINATES (ANGSTROEM)
---------------------------------
  C     -0.093461   -2.397850   -0.507160
  H     -0.184047   -3.043679   -1.388325
  H     -0.029459   -3.078831    0.367265
  C     -1.336256   -1.575740   -0.375088
  C      0.017980    0.451032    0.015114
  H      0.298087    1.001794   -0.883962
  H     -0.081509    1.190035    0.812664
  C      1.131928   -0.537606    0.357938
  H      0.916621   -0.968270    1.356069
  N      1.104067   -1.598417   -0.642387
  C     -2.583522    0.470340   -0.047762
  C     -2.646759   -2.304034   -0.492667
  C     -3.713534   -0.191215    0.225785
  C     -3.726504   -1.682497    0.395062
  C     -1.299006   -0.255244   -0.176305
  C     -3.539107   -2.037919    1.876612
  H     -3.598453   -3.119479    2.021377
  H     -2.566194   -1.695122    2.234556
  H     -4.309023   -1.569632    2.492716
  C      2.482760    0.146657    0.443502
  C      2.303989   -2.410406   -0.661571
  H      2.146612   -3.238847   -1.355978
  H      2.510547   -2.851165    0.331332
  C      3.476938   -1.561014   -1.110333
  H      3.328277   -1.280892   -2.157610
  C      3.590807   -0.323763   -0.260244
  H      4.405350   -2.135138   -1.054662
  C      4.807849    0.346315   -0.148212
  H      5.665300   -0.028137   -0.697571
  C      2.630752    1.262172    1.268090
  H      1.783805    1.619858    1.841539
  C      4.940065    1.465020    0.655045
  H      5.894558    1.971790    0.730846
  C      3.843017    1.921206    1.375079
  H      3.933579    2.786094    2.021130
  C     -2.709052    1.945180   -0.217089
  O     -3.619792    2.613939    0.203399
  O     -1.703873    2.467205   -0.936528
  C     -1.765830    3.876435   -1.164947
  H     -1.776539    4.415673   -0.217874
  H     -2.663643    4.131198   -1.727804
  H     -0.873468    4.119971   -1.735587
  H     -2.516154   -3.359788   -0.235244
  H     -2.971358   -2.278768   -1.541221
  H     -4.700896   -2.062768    0.077020
  H     -4.629477    0.371460    0.365955

 Total Charge           Charge          ....    0
 Multiplicity           Mult            ....    1
 Number of Electrons    NEL             ....  166
 Basis Dimension        Dim             .... 1587

ORBITAL ENERGIES
----------------

  NO   OCC          E(Eh)            E(eV)
   0   2.0000     -20.597894      -560.4972
   1   2.0000     -20.532522      -558.7183
   2   2.0000     -15.547430      -423.0671
   3   2.0000     -11.373577      -309.4908
   4   2.0000     -11.280774      -306.9655
   5   2.0000     -11.259772      -306.3940
   6   2.0000     -11.255906      -306.2888
   7   2.0000     -11.250135      -306.1317
   8   2.0000     -11.245619      -306.0089
   9   2.0000     -11.240979      -305.8826
  10   2.0000     -11.240419      -305.8673
  11   2.0000     -11.234739      -305.7128
  12   2.0000     -11.233506      -305.6792
  13   2.0000     -11.231127      -305.6145
  14   2.0000     -11.230677      -305.6023
  15   2.0000     -11.228712      -305.5488
  16   2.0000     -11.228642      -305.5469
  17   2.0000     -11.228008      -305.5296
  18   2.0000     -11.226945      -305.5007
  19   2.0000     -11.226257      -305.4820
  20   2.0000     -11.224322      -305.4293
  21   2.0000     -11.220838      -305.3345
  22   2.0000     -11.219589      -305.3005
  23   2.0000      -1.459099       -39.7041
  24   2.0000      -1.352902       -36.8143
  25   2.0000      -1.255460       -34.1628
  26   2.0000      -1.161547       -31.6073
  27   2.0000      -1.152721       -31.3671
  28   2.0000      -1.082251       -29.4496
  29   2.0000      -1.064565       -28.9683
  30   2.0000      -1.046520       -28.4773
  31   2.0000      -1.040659       -28.3178
  32   2.0000      -0.995608       -27.0919
  33   2.0000      -0.977367       -26.5955
  34   2.0000      -0.970832       -26.4177
  35   2.0000      -0.934987       -25.4423
  36   2.0000      -0.887834       -24.1592
  37   2.0000      -0.863575       -23.4991
  38   2.0000      -0.856449       -23.3052
  39   2.0000      -0.842123       -22.9153
  40   2.0000      -0.811363       -22.0783
  41   2.0000      -0.786423       -21.3997
  42   2.0000      -0.761505       -20.7216
  43   2.0000      -0.742638       -20.2082
  44   2.0000      -0.720238       -19.5987
  45   2.0000      -0.693518       -18.8716
  46   2.0000      -0.673220       -18.3192
  47   2.0000      -0.670566       -18.2470
  48   2.0000      -0.666431       -18.1345
  49   2.0000      -0.659149       -17.9364
  50   2.0000      -0.648992       -17.6600
  51   2.0000      -0.639440       -17.4000
  52   2.0000      -0.626002       -17.0344
  53   2.0000      -0.614701       -16.7269
  54   2.0000      -0.614442       -16.7198
  55   2.0000      -0.600382       -16.3372
  56   2.0000      -0.586827       -15.9684
  57   2.0000      -0.586652       -15.9636
  58   2.0000      -0.576404       -15.6847
  59   2.0000      -0.573730       -15.6120
  60   2.0000      -0.562688       -15.3115
  61   2.0000      -0.553283       -15.0556
  62   2.0000      -0.548492       -14.9252
  63   2.0000      -0.540701       -14.7132
  64   2.0000      -0.538780       -14.6609
  65   2.0000      -0.525470       -14.2988
  66   2.0000      -0.521775       -14.1982
  67   2.0000      -0.517014       -14.0687
  68   2.0000      -0.512106       -13.9351
  69   2.0000      -0.502295       -13.6681
  70   2.0000      -0.495704       -13.4888
  71   2.0000      -0.480631       -13.0786
  72   2.0000      -0.477836       -13.0026
  73   2.0000      -0.475174       -12.9302
  74   2.0000      -0.459326       -12.4989
  75   2.0000      -0.454034       -12.3549
  76   2.0000      -0.445024       -12.1097
  77   2.0000      -0.432156       -11.7596
  78   2.0000      -0.408489       -11.1155
  79   2.0000      -0.361342        -9.8326
  80   2.0000      -0.327624        -8.9151
  81   2.0000      -0.320632        -8.7248
  82   2.0000      -0.303504        -8.2588
  83   0.0000       0.023743         0.6461
  84   0.0000       0.027291         0.7426
  85   0.0000       0.029510         0.8030
  86   0.0000       0.031993         0.8706
  87   0.0000       0.036138         0.9834

MULLIKEN ATOMIC CHARGES
-----------------------
   0 C :   -0.689292
   1 H :    0.335517
   2 H :    0.100968
   3 C :   -0.004375
   4 C :   -0.636667
   5 H :    0.257123
   6 H :    0.180892
   7 C :   -0.184537
   8 H :    0.078755
   9 N :   -0.512201
  10 C :    0.765726
  11 C :   -0.668617
  12 C :   -0.833704
  13 C :    0.253956
  14 C :    1.207190
  15 C :   -1.018265
  16 H :    0.231155
  17 H :    0.341949
  18 H :    0.260436
  19 C :    1.470831
  20 C :   -0.685774
  21 H :    0.372780
  22 H :    0.233459
  23 C :   -0.535678
  24 H :    0.212720
  25 C :    1.044225
  26 H :    0.221110
  27 C :   -1.085441
  28 H :   -0.008812
  29 C :   -1.067660
  30 H :   -0.008631
  31 C :   -0.297613
  32 H :    0.684055
  33 C :   -0.639370
  34 H :    0.428992
  35 C :    0.701244
  36 O :   -1.140921
  37 O :   -0.300698
  38 C :   -0.969885
  39 H :    0.396064
  40 H :    0.349688
  41 H :    0.329315
  42 H :    0.259422
  43 H :    0.262925
  44 H :    0.365219
  45 H :   -0.057575
Sum of atomic charges:    0.0000000

LOEWDIN ATOMIC CHARGES
----------------------
   0 C :    0.165696
   1 H :   -0.130172
   2 H :   -0.114912
   3 C :   -0.037478
   4 C :    0.292666
   5 H :   -0.142808
   6 H :   -0.159533
   7 C :   -0.110325
   8 H :   -0.104015
   9 N :    0.317176
  10 C :   -0.072655
  11 C :    0.303610
  12 C :    0.266416
  13 C :   -0.021832
  14 C :   -0.032879
  15 C :    0.604489
  16 H :   -0.158671
  17 H :   -0.158823
  18 H :   -0.157522
  19 C :   -0.039578
  20 C :    0.167151
  21 H :   -0.136339
  22 H :   -0.114375
  23 C :    0.300436
  24 H :   -0.131452
  25 C :   -0.067938
  26 H :   -0.143272
  27 C :    0.221959
  28 H :   -0.173062
  29 C :    0.227489
  30 H :   -0.179555
  31 C :    0.198426
  32 H :   -0.183228
  33 C :    0.203750
  34 H :   -0.183052
  35 C :   -0.833088
  36 O :    0.473517
  37 O :    0.577017
  38 C :    0.362510
  39 H :   -0.179465
  40 H :   -0.177789
  41 H :   -0.182705
  42 H :   -0.138177
  43 H :   -0.122342
  44 H :   -0.130635
  45 H :   -0.164629

  Mayer bond orders larger than 0.100000
B(  0-C ,  1-H ) :   1.0459 B(  0-C ,  2-H ) :   1.4372 B(  0-C ,  3-C ) :   0.2075
B(  0-C ,  7-C ) :   0.1143 B(  0-C ,  9-N ) :   0.7555 B(  0-C , 10-C ) :  -0.1452
B(  0-C , 14-C ) :  -0.1054 B(  0-C , 21-H ) :  -0.1083 B(  1-H ,  3-C ) :  -0.2429
B(  2-H ,  3-C ) :  -0.2070 B(  2-H ,  9-N ) :  -0.1260 B(  3-C ,  4-C ) :   0.1580
B(  3-C ,  7-C ) :   0.2192 B(  3-C , 10-C ) :   0.6268 B(  3-C , 11-C ) :   0.1347
B(  3-C , 12-C ) :   0.8177 B(  3-C , 13-C ) :   0.2744 B(  3-C , 14-C ) :   1.1286
B(  3-C , 35-C ) :  -0.3873 B(  3-C , 42-H ) :  -0.1913 B(  3-C , 43-H ) :  -0.1513
B(  4-C ,  5-H ) :   0.9830 B(  4-C ,  6-H ) :   1.1756 B(  4-C ,  7-C ) :   0.7700
B(  4-C ,  9-N ) :   0.4393 B(  4-C , 10-C ) :   0.1192 B(  4-C , 11-C ) :  -0.1043
B(  4-C , 14-C ) :   0.3232 B(  4-C , 19-C ) :   0.1649 B(  4-C , 35-C ) :   0.1760
B(  4-C , 37-O ) :  -0.2241 B(  6-H , 19-C ) :  -0.1049 B(  7-C ,  8-H ) :   0.9978
B(  7-C ,  9-N ) :   0.5926 B(  7-C , 14-C ) :   0.2015 B(  7-C , 19-C ) :   0.9041
B(  7-C , 20-C ) :   0.1156 B(  7-C , 23-C ) :  -0.1694 B(  7-C , 25-C ) :   0.4593
B(  7-C , 27-C ) :  -0.1102 B(  7-C , 29-C ) :   0.6986 B(  9-N , 14-C ) :  -0.2287
B(  9-N , 19-C ) :  -0.2652 B(  9-N , 20-C ) :   0.9827 B(  9-N , 23-C ) :  -0.1072
B(  9-N , 25-C ) :  -0.1321 B( 10-C , 11-C ) :  -0.2131 B( 10-C , 12-C ) :   1.3028
B( 10-C , 13-C ) :   0.1625 B( 10-C , 35-C ) :  -0.3192 B( 10-C , 37-O ) :  -0.1259
B( 10-C , 45-H ) :  -0.2212 B( 11-C , 12-C ) :   0.2929 B( 11-C , 13-C ) :   1.0537
B( 11-C , 14-C ) :   0.1091 B( 11-C , 15-C ) :   0.1214 B( 11-C , 42-H ) :   1.0395
B( 11-C , 43-H ) :   1.0656 B( 12-C , 13-C ) :   0.7263 B( 12-C , 14-C ) :  -0.9254
B( 12-C , 35-C ) :   0.2478 B( 12-C , 44-H ) :  -0.1567 B( 12-C , 45-H ) :   1.4438
B( 13-C , 14-C ) :  -0.1135 B( 13-C , 15-C ) :   0.6813 B( 13-C , 44-H ) :   0.9750
B( 14-C , 19-C ) :  -0.1698 B( 14-C , 35-C ) :   0.9579 B( 15-C , 16-H ) :   1.0272
B( 15-C , 17-H ) :   0.8976 B( 15-C , 18-H ) :   1.0155 B( 19-C , 23-C ) :   0.2330
B( 19-C , 25-C ) :   0.7334 B( 19-C , 27-C ) :   0.5599 B( 19-C , 29-C ) :  -0.1458
B( 19-C , 30-H ) :  -0.1384 B( 19-C , 31-C ) :  -0.1518 B( 20-C , 21-H ) :   0.8816
B( 20-C , 22-H ) :   1.0448 B( 20-C , 23-C ) :   1.0619 B( 20-C , 25-C ) :   0.1161
B( 23-C , 24-H ) :   1.1201 B( 23-C , 26-H ) :   1.1101 B( 23-C , 27-C ) :   0.1760
B( 24-H , 25-C ) :  -0.1323 B( 25-C , 27-C ) :   0.3982 B( 25-C , 29-C ) :  -0.3752
B( 25-C , 31-C ) :   0.2801 B( 25-C , 34-H ) :   0.1076 B( 27-C , 28-H ) :   1.6475
B( 27-C , 31-C ) :   0.9050 B( 27-C , 33-C ) :  -0.1172 B( 28-H , 31-C ) :  -0.1576
B( 29-C , 30-H ) :   1.6054 B( 29-C , 31-C ) :   0.1867 B( 29-C , 33-C ) :   1.3172
B( 31-C , 32-H ) :   0.4019 B( 31-C , 33-C ) :   1.0854 B( 33-C , 34-H ) :   0.8253
B( 35-C , 36-O ) :   0.8312 B( 35-C , 37-O ) :   1.1883 B( 36-O , 45-H ) :   0.1432
B( 37-O , 38-C ) :   0.9202 B( 38-C , 39-H ) :   0.8722 B( 38-C , 40-H ) :   0.9044
B( 38-C , 41-H ) :   0.9310

MP2 TOTAL ENERGY:     -979.240639897 Eh
FINAL SINGLE POINT ENERGY      -979.240639896516

DIPOLE MOMENT
-------------
                                X             Y             Z
Electronic contribution:      0.50104       8.25336      -1.82973
Nuclear contribution   :     -0.09565      -9.10056       1.65378
                        -----------------------------------------
Total Dipole Moment    :      0.40539      -0.84720      -0.17595
                        -----------------------------------------
Magnitude (a.u.)       :      0.95553
Magnitude (Debye)      :      2.42878

Rotational constants in cm-1:     0.013216     0.005981     0.004584
Rotational constants in MHz :   396.212305   179.317689   137.421530

                             ****ORCA TERMINATED NORMALLY****
TOTAL RUN TIME: 0 days 1 hours 24 minutes 39 seconds 324 msec
