                         Program Version 4.2.1 -  RELEASE  -
|  1> %pal
|  2>  nprocs 32
|  3> end
|  4> !RI-MP2 aug-cc-pVTZ aug-cc-pVTZ/C TightSCF
|  5> %maxcore 4500
|  6> *xyzfile 0 1  02_40R2.xyz
|  7>
|  8>
|  9>                          ****END OF INPUT****

CARTESIAN COORDINATES (ANGSTROEM)
---------------------------------
  C      0.000000    1.090368    0.345844
  O      0.000000    0.000000    1.151915
  C      0.000000    0.716453   -0.953011
  C      0.000000   -0.716453   -0.953011
  C      0.000000   -1.090368    0.345844
  H      0.000000    2.044825    0.843241
  H      0.000000    1.372556   -1.807898
  H      0.000000   -2.044825    0.843241
  H      0.000000   -1.372556   -1.807898

 Total Charge           Charge          ....    0
 Multiplicity           Mult            ....    1
 Number of Electrons    NEL             ....   36
 Basis Dimension        Dim             ....  322

ORBITAL ENERGIES
----------------

  NO   OCC          E(Eh)            E(eV)
   0   2.0000     -20.624058      -561.2092
   1   2.0000     -11.286967      -307.1340
   2   2.0000     -11.286922      -307.1328
   3   2.0000     -11.230211      -305.5896
   4   2.0000     -11.229233      -305.5630
   5   2.0000      -1.462850       -39.8062
   6   2.0000      -1.085902       -29.5489
   7   2.0000      -1.007442       -27.4139
   8   2.0000      -0.809098       -22.0167
   9   2.0000      -0.780864       -21.2484
  10   2.0000      -0.741399       -20.1745
  11   2.0000      -0.636546       -17.3213
  12   2.0000      -0.610697       -16.6179
  13   2.0000      -0.577892       -15.7252
  14   2.0000      -0.565155       -15.3787
  15   2.0000      -0.540481       -14.7072
  16   2.0000      -0.398918       -10.8551
  17   2.0000      -0.322025        -8.7627
  18   0.0000       0.029671         0.8074
  19   0.0000       0.035256         0.9594
  20   0.0000       0.038141         1.0379
  21   0.0000       0.048837         1.3289
  22   0.0000       0.081457         2.2166

MULLIKEN ATOMIC CHARGES
-----------------------
   0 C :   -0.513132
   1 O :   -0.284333
   2 C :   -0.543260
   3 C :   -0.543260
   4 C :   -0.513132
   5 H :    0.717558
   6 H :    0.481001
   7 H :    0.717558
   8 H :    0.481001
Sum of atomic charges:   -0.0000000

LOEWDIN ATOMIC CHARGES
----------------------
   0 C :   -0.043963
   1 O :    0.547299
   2 C :    0.159456
   3 C :    0.159456
   4 C :   -0.043963
   5 H :   -0.192695
   6 H :   -0.196447
   7 H :   -0.192695
   8 H :   -0.196447

  Mayer bond orders larger than 0.100000
B(  0-C ,  1-O ) :   1.0326 B(  0-C ,  2-C ) :   1.3324 B(  0-C ,  5-H ) :   0.4369
B(  1-O ,  4-C ) :   1.0326 B(  2-C ,  3-C ) :   1.1806 B(  2-C ,  6-H ) :   0.8665
B(  3-C ,  4-C ) :   1.3324 B(  3-C ,  8-H ) :   0.8665 B(  4-C ,  7-H ) :   0.4369

MP2 TOTAL ENERGY:     -229.592292615 Eh
FINAL SINGLE POINT ENERGY      -229.592292615196

DIPOLE MOMENT
-------------
                                X             Y             Z
Electronic contribution:      0.00000       0.00000       1.60069
Nuclear contribution   :      0.00000       0.00000      -1.89812
                        -----------------------------------------
Total Dipole Moment    :      0.00000       0.00000      -0.29743
                        -----------------------------------------
Magnitude (a.u.)       :      0.29743
Magnitude (Debye)      :      0.75601

Rotational constants in cm-1:     0.317363     0.312818     0.157537
Rotational constants in MHz :  9514.296124  9378.033321  4722.836659

                             ****ORCA TERMINATED NORMALLY****
TOTAL RUN TIME: 0 days 0 hours 0 minutes 33 seconds 44 msec
