                         Program Version 4.2.1 -  RELEASE  -
|  1> %pal
|  2>  nprocs 32
|  3> end
|  4> !RI-MP2 aug-cc-pVTZ aug-cc-pVTZ/C TightSCF
|  5> %maxcore 4500
|  6> *xyzfile 0 1  10_42P.xyz
|  7>
|  8>
|  9>                          ****END OF INPUT****

CARTESIAN COORDINATES (ANGSTROEM)
---------------------------------
  C     -0.788932   -1.904341   -0.023747
  H     -0.994406   -2.750053   -0.689976
  H     -0.842412   -2.306410    1.009315
  C     -1.861160   -0.875905   -0.199081
  C     -0.164343    0.917338   -0.266510
  H      0.215538    1.180156   -1.259182
  H     -0.133264    1.830541    0.331473
  C      0.764332   -0.126312    0.355015
  H      0.489734   -0.228167    1.423846
  N      0.533262   -1.395629   -0.323821
  C     -2.679723    1.381648   -0.605732
  C     -3.278604   -1.369172   -0.269668
  C     -3.940697    1.021606   -0.352006
  C     -4.280885   -0.326808    0.229269
  C     -1.582772    0.421334   -0.349780
  C     -4.317914   -0.254541    1.761054
  H     -4.614959   -1.215365    2.190557
  H     -3.334525    0.009686    2.156278
  H     -5.029199    0.502159    2.098737
  C      2.217195    0.307149    0.302367
  C      1.566261   -2.380178   -0.071966
  H      1.254442   -3.326561   -0.519389
  H      1.699482   -2.559326    1.011097
  C      2.869393   -1.909456   -0.687350
  H      2.763939   -1.907129   -1.776501
  C      3.214306   -0.526417   -0.203134
  H      3.678759   -2.600947   -0.439368
  C      4.533323   -0.076933   -0.231300
  H      5.302692   -0.733228   -0.624471
  C      2.573667    1.562204    0.796444
  H      1.812215    2.207848    1.217624
  C      4.874428    1.178050    0.240814
  H      5.905381    1.509590    0.212016
  C      3.886004    2.000776    0.766169
  H      4.138319    2.980150    1.154465
  C     -2.336992    2.741828   -1.145483
  H     -1.712037    3.308197   -0.449932
  H     -3.241593    3.321097   -1.331622
  H     -1.780820    2.667270   -2.084021
  H     -3.385256   -2.295268    0.305214
  H     -3.501423   -1.627155   -1.314152
  H     -5.276468   -0.618817   -0.117060
  H     -4.748300    1.729911   -0.510441

 Total Charge           Charge          ....    0
 Multiplicity           Mult            ....    1
 Number of Electrons    NEL             ....  144
 Basis Dimension        Dim             .... 1449

ORBITAL ENERGIES
----------------

  NO   OCC          E(Eh)            E(eV)
   0   2.0000     -15.545350      -423.0105
   1   2.0000     -11.259156      -306.3772
   2   2.0000     -11.251483      -306.1684
   3   2.0000     -11.248153      -306.0778
   4   2.0000     -11.233885      -305.6895
   5   2.0000     -11.232664      -305.6563
   6   2.0000     -11.227973      -305.5287
   7   2.0000     -11.227279      -305.5098
   8   2.0000     -11.227095      -305.5048
   9   2.0000     -11.226225      -305.4811
  10   2.0000     -11.225916      -305.4727
  11   2.0000     -11.225440      -305.4598
  12   2.0000     -11.222974      -305.3927
  13   2.0000     -11.222345      -305.3755
  14   2.0000     -11.220525      -305.3260
  15   2.0000     -11.220330      -305.3207
  16   2.0000     -11.218395      -305.2680
  17   2.0000     -11.216103      -305.2057
  18   2.0000     -11.211082      -305.0691
  19   2.0000     -11.208323      -304.9940
  20   2.0000      -1.252803       -34.0905
  21   2.0000      -1.156469       -31.4691
  22   2.0000      -1.144032       -31.1307
  23   2.0000      -1.075957       -29.2783
  24   2.0000      -1.061720       -28.8909
  25   2.0000      -1.041207       -28.3327
  26   2.0000      -1.035429       -28.1755
  27   2.0000      -0.992665       -27.0118
  28   2.0000      -0.973959       -26.5028
  29   2.0000      -0.928754       -25.2727
  30   2.0000      -0.924244       -25.1500
  31   2.0000      -0.880697       -23.9650
  32   2.0000      -0.860558       -23.4170
  33   2.0000      -0.841216       -22.8907
  34   2.0000      -0.809817       -22.0362
  35   2.0000      -0.794332       -21.6149
  36   2.0000      -0.762240       -20.7416
  37   2.0000      -0.740621       -20.1533
  38   2.0000      -0.692530       -18.8447
  39   2.0000      -0.666952       -18.1487
  40   2.0000      -0.658907       -17.9298
  41   2.0000      -0.651451       -17.7269
  42   2.0000      -0.637277       -17.3412
  43   2.0000      -0.624439       -16.9918
  44   2.0000      -0.616024       -16.7629
  45   2.0000      -0.610695       -16.6179
  46   2.0000      -0.599882       -16.3236
  47   2.0000      -0.585904       -15.9433
  48   2.0000      -0.581839       -15.8326
  49   2.0000      -0.570364       -15.5204
  50   2.0000      -0.566428       -15.4133
  51   2.0000      -0.558619       -15.2008
  52   2.0000      -0.550467       -14.9790
  53   2.0000      -0.548139       -14.9156
  54   2.0000      -0.542722       -14.7682
  55   2.0000      -0.530905       -14.4467
  56   2.0000      -0.523089       -14.2340
  57   2.0000      -0.518835       -14.1182
  58   2.0000      -0.512036       -13.9332
  59   2.0000      -0.499993       -13.6055
  60   2.0000      -0.495043       -13.4708
  61   2.0000      -0.483786       -13.1645
  62   2.0000      -0.477026       -12.9805
  63   2.0000      -0.470585       -12.8053
  64   2.0000      -0.459708       -12.5093
  65   2.0000      -0.444656       -12.0997
  66   2.0000      -0.424253       -11.5445
  67   2.0000      -0.389773       -10.6063
  68   2.0000      -0.359196        -9.7742
  69   2.0000      -0.326776        -8.8920
  70   2.0000      -0.319701        -8.6995
  71   2.0000      -0.287894        -7.8340
  72   0.0000       0.025513         0.6942
  73   0.0000       0.028737         0.7820
  74   0.0000       0.028979         0.7886
  75   0.0000       0.033532         0.9124
  76   0.0000       0.036526         0.9939

MULLIKEN ATOMIC CHARGES
-----------------------
   0 C :   -0.796490
   1 H :    0.304952
   2 H :    0.101777
   3 C :    0.015142
   4 C :   -0.773526
   5 H :    0.313608
   6 H :    0.091516
   7 C :   -0.086611
   8 H :    0.069316
   9 N :   -0.471162
  10 C :    0.350922
  11 C :   -0.641891
  12 C :   -0.701382
  13 C :    0.278072
  14 C :    1.292429
  15 C :   -1.018366
  16 H :    0.227832
  17 H :    0.318459
  18 H :    0.253501
  19 C :    1.510033
  20 C :   -0.671185
  21 H :    0.379177
  22 H :    0.229225
  23 C :   -0.555223
  24 H :    0.212963
  25 C :    1.047271
  26 H :    0.220348
  27 C :   -1.100656
  28 H :    0.005192
  29 C :   -1.093346
  30 H :    0.062332
  31 C :   -0.308203
  32 H :    0.678288
  33 C :   -0.635230
  34 H :    0.431728
  35 C :   -1.079583
  36 H :    0.274537
  37 H :    0.193698
  38 H :    0.243454
  39 H :    0.283849
  40 H :    0.256829
  41 H :    0.381894
  42 H :   -0.095489
Sum of atomic charges:   -0.0000000

LOEWDIN ATOMIC CHARGES
----------------------
   0 C :    0.166848
   1 H :   -0.132320
   2 H :   -0.114441
   3 C :   -0.035241
   4 C :    0.300463
   5 H :   -0.119613
   6 H :   -0.166757
   7 C :   -0.109586
   8 H :   -0.103656
   9 N :    0.316764
  10 C :   -0.077429
  11 C :    0.297827
  12 C :    0.261910
  13 C :   -0.038940
  14 C :   -0.026956
  15 C :    0.594008
  16 H :   -0.162298
  17 H :   -0.161278
  18 H :   -0.161381
  19 C :   -0.039544
  20 C :    0.166182
  21 H :   -0.136708
  22 H :   -0.114420
  23 C :    0.300072
  24 H :   -0.131543
  25 C :   -0.068145
  26 H :   -0.143309
  27 C :    0.221879
  28 H :   -0.173047
  29 C :    0.226827
  30 H :   -0.180216
  31 C :    0.198322
  32 H :   -0.183299
  33 C :    0.203432
  34 H :   -0.183098
  35 C :    0.578052
  36 H :   -0.170030
  37 H :   -0.175321
  38 H :   -0.159319
  39 H :   -0.138760
  40 H :   -0.123197
  41 H :   -0.135271
  42 H :   -0.167464

  Mayer bond orders larger than 0.100000
B(  0-C ,  1-H ) :   1.0743 B(  0-C ,  2-H ) :   1.4178 B(  0-C ,  3-C ) :   0.3311
B(  0-C ,  7-C ) :   0.1081 B(  0-C ,  9-N ) :   0.7711 B(  0-C , 10-C ) :  -0.2268
B(  0-C , 21-H ) :  -0.1059 B(  1-H ,  3-C ) :  -0.2398 B(  2-H ,  3-C ) :  -0.1884
B(  2-H ,  9-N ) :  -0.1187 B(  3-C ,  7-C ) :   0.1671 B(  3-C , 10-C ) :   0.9638
B(  3-C , 12-C ) :   0.4433 B(  3-C , 13-C ) :   0.2710 B(  3-C , 14-C ) :   1.5658
B(  3-C , 35-C ) :  -0.1819 B(  3-C , 39-H ) :  -0.1861 B(  3-C , 40-H ) :  -0.1546
B(  4-C ,  5-H ) :   0.9273 B(  4-C ,  6-H ) :   1.3024 B(  4-C ,  7-C ) :   0.8278
B(  4-C ,  9-N ) :   0.4900 B(  4-C , 10-C ) :   0.2394 B(  4-C , 19-C ) :   0.1284
B(  4-C , 25-C ) :  -0.1160 B(  6-H , 14-C ) :  -0.1525 B(  7-C ,  8-H ) :   0.9681
B(  7-C ,  9-N ) :   0.6573 B(  7-C , 14-C ) :   0.1417 B(  7-C , 19-C ) :   0.7795
B(  7-C , 23-C ) :  -0.1455 B(  7-C , 25-C ) :   0.4687 B(  7-C , 29-C ) :   0.6938
B(  9-N , 14-C ) :  -0.3452 B(  9-N , 19-C ) :  -0.2821 B(  9-N , 20-C ) :   0.9807
B(  9-N , 25-C ) :  -0.1276 B( 10-C , 12-C ) :   1.1177 B( 10-C , 13-C ) :   0.1682
B( 10-C , 14-C ) :   0.1335 B( 10-C , 35-C ) :   0.1840 B( 10-C , 36-H ) :  -0.1988
B( 10-C , 38-H ) :  -0.1634 B( 10-C , 42-H ) :  -0.2333 B( 11-C , 12-C ) :   0.2674
B( 11-C , 13-C ) :   1.0625 B( 11-C , 15-C ) :   0.1209 B( 11-C , 39-H ) :   1.0142
B( 11-C , 40-H ) :   1.0594 B( 12-C , 13-C ) :   0.6861 B( 12-C , 14-C ) :  -0.2651
B( 12-C , 41-H ) :  -0.1830 B( 12-C , 42-H ) :   1.5215 B( 13-C , 15-C ) :   0.6526
B( 13-C , 41-H ) :   0.9696 B( 14-C , 35-C ) :   0.4704 B( 14-C , 42-H ) :   0.1672
B( 15-C , 16-H ) :   1.0256 B( 15-C , 17-H ) :   0.9174 B( 15-C , 18-H ) :   1.0208
B( 19-C , 23-C ) :   0.2181 B( 19-C , 25-C ) :   0.7362 B( 19-C , 27-C ) :   0.5519
B( 19-C , 29-C ) :  -0.1862 B( 19-C , 30-H ) :  -0.1240 B( 19-C , 31-C ) :  -0.1485
B( 20-C , 21-H ) :   0.8743 B( 20-C , 22-H ) :   1.0438 B( 20-C , 23-C ) :   1.0673
B( 20-C , 25-C ) :   0.1175 B( 23-C , 24-H ) :   1.1120 B( 23-C , 26-H ) :   1.1135
B( 23-C , 27-C ) :   0.1663 B( 24-H , 25-C ) :  -0.1277 B( 25-C , 27-C ) :   0.3854
B( 25-C , 28-H ) :  -0.1026 B( 25-C , 29-C ) :  -0.3202 B( 25-C , 31-C ) :   0.2611
B( 25-C , 34-H ) :   0.1048 B( 27-C , 28-H ) :   1.6174 B( 27-C , 31-C ) :   0.9266
B( 27-C , 33-C ) :  -0.1205 B( 28-H , 31-C ) :  -0.1518 B( 29-C , 30-H ) :   1.4747
B( 29-C , 31-C ) :   0.1863 B( 29-C , 33-C ) :   1.2993 B( 31-C , 32-H ) :   0.4133
B( 31-C , 33-C ) :   1.0836 B( 33-C , 34-H ) :   0.8097 B( 35-C , 36-H ) :   1.0598
B( 35-C , 37-H ) :   1.0451 B( 35-C , 38-H ) :   1.1118

MP2 TOTAL ENERGY:     -790.947040913 Eh
FINAL SINGLE POINT ENERGY      -790.947040913453

DIPOLE MOMENT
-------------
                                X             Y             Z
Electronic contribution:     11.46131       0.68568      -1.87795
Nuclear contribution   :    -11.54631      -0.94768       2.03046
                        -----------------------------------------
Total Dipole Moment    :     -0.08500      -0.26200       0.15251
                        -----------------------------------------
Magnitude (a.u.)       :      0.31485
Magnitude (Debye)      :      0.80027

Rotational constants in cm-1:     0.024662     0.006762     0.005761
Rotational constants in MHz :   739.350441   202.725814   172.702208

                             ****ORCA TERMINATED NORMALLY****
TOTAL RUN TIME: 0 days 1 hours 11 minutes 13 seconds 347 msec
