                         Program Version 4.2.1 -  RELEASE  -
|  1> %pal
|  2>  nprocs 32
|  3> end
|  4> !RI-MP2 aug-cc-pVTZ aug-cc-pVTZ/C TightSCF
|  5> %maxcore 4500
|  6> *xyzfile 0 1  06_27TS.xyz
|  7>
|  8>
|  9>                          ****END OF INPUT****

CARTESIAN COORDINATES (ANGSTROEM)
---------------------------------
  C      0.876355    2.583375   -0.894967
  C      0.850033    1.769986    0.428352
  C     -1.937579    0.984020   -0.609883
  H      1.895869    2.566938   -1.293271
  C      0.040803    2.498762    1.514073
  H      0.036064    1.899293    2.428328
  H      0.565928    3.427295    1.767318
  H     -2.888446    0.554342   -0.937317
  H      1.881497    1.768785    0.796280
  C     -1.394207    2.856118    1.150968
  H     -1.859222    3.336154    2.018027
  H     -1.393600    3.617195    0.365757
  C     -2.278117    1.688262    0.721701
  H     -2.301590    0.941883    1.522203
  H     -3.301400    2.069710    0.638760
  C     -1.539830    1.965297   -1.741344
  H     -1.996768    1.606821   -2.669286
  C     -0.044460    2.131755   -2.033180
  H      0.338509    1.187549   -2.431097
  H      0.056109    2.849737   -2.853807
  H     -1.993360    2.943289   -1.553490
  H      0.674471    3.635050   -0.662728
  C     -0.923342   -0.179800   -0.474080
  H     -0.584558   -0.410069   -1.497137
  Si    -1.771917   -1.835873   -0.127310
  C     -3.067110   -2.113838   -1.469154
  H     -3.481120   -3.122816   -1.390462
  H     -3.902278   -1.413977   -1.397599
  H     -2.633907   -2.012753   -2.467957
  C     -2.660433   -1.943647    1.528310
  H     -3.179908   -2.903266    1.602847
  H     -1.985840   -1.867923    2.381902
  H     -3.413328   -1.157794    1.623989
  C     -0.544562   -3.258715   -0.290722
  H      0.211852   -3.299436    0.494564
  H     -1.081658   -4.211158   -0.271984
  H     -0.017452   -3.195414   -1.246200
  B      0.453856    0.236993    0.203144
  C      2.952305   -0.693785    1.524411
  H      3.977545   -0.648801    1.858558
  C      2.717761   -0.777105    0.175422
  O      1.563984   -0.577535   -0.392595
  O      3.730690   -1.021942   -0.647527
  C      3.508220   -0.857972   -2.050847
  H      2.723933   -1.529580   -2.397672
  H      4.456479   -1.106148   -2.519761
  H      3.231502    0.171542   -2.279586
  C      1.870837   -0.400814    2.385328
  H      2.104352    0.171850    3.281524
  C      0.558592   -0.687251    2.110194
  H     -0.213346   -0.373610    2.799189
  H      0.342227   -1.569500    1.530206

 Total Charge           Charge          ....    0
 Multiplicity           Mult            ....    1
 Number of Electrons    NEL             ....  168
 Basis Dimension        Dim             .... 1683

ORBITAL ENERGIES
----------------

  NO   OCC          E(Eh)            E(eV)
   0   2.0000     -68.741359     -1870.5475
   1   2.0000     -20.610829      -560.8492
   2   2.0000     -20.578931      -559.9812
   3   2.0000     -11.389041      -309.9115
   4   2.0000     -11.293736      -307.3182
   5   2.0000     -11.278615      -306.9067
   6   2.0000     -11.215470      -305.1885
   7   2.0000     -11.208396      -304.9960
   8   2.0000     -11.207630      -304.9751
   9   2.0000     -11.206080      -304.9329
  10   2.0000     -11.205999      -304.9307
  11   2.0000     -11.204874      -304.9001
  12   2.0000     -11.203241      -304.8557
  13   2.0000     -11.202602      -304.8383
  14   2.0000     -11.202482      -304.8350
  15   2.0000     -11.188535      -304.4555
  16   2.0000     -11.187738      -304.4338
  17   2.0000     -11.186087      -304.3889
  18   2.0000     -11.183369      -304.3149
  19   2.0000     -11.170830      -303.9737
  20   2.0000      -7.617284      -207.2768
  21   2.0000      -6.088259      -165.6700
  22   2.0000      -4.194568      -114.1400
  23   2.0000      -4.194535      -114.1391
  24   2.0000      -4.194207      -114.1302
  25   2.0000      -1.477725       -40.2109
  26   2.0000      -1.382012       -37.6065
  27   2.0000      -1.107013       -30.1234
  28   2.0000      -1.102833       -30.0096
  29   2.0000      -1.039384       -28.2831
  30   2.0000      -1.034440       -28.1486
  31   2.0000      -1.018189       -27.7063
  32   2.0000      -0.970117       -26.3982
  33   2.0000      -0.944561       -25.7028
  34   2.0000      -0.937930       -25.5224
  35   2.0000      -0.916494       -24.9391
  36   2.0000      -0.912674       -24.8351
  37   2.0000      -0.907349       -24.6902
  38   2.0000      -0.873491       -23.7689
  39   2.0000      -0.838839       -22.8260
  40   2.0000      -0.813962       -22.1490
  41   2.0000      -0.787678       -21.4338
  42   2.0000      -0.765520       -20.8308
  43   2.0000      -0.733748       -19.9663
  44   2.0000      -0.708654       -19.2834
  45   2.0000      -0.685298       -18.6479
  46   2.0000      -0.676039       -18.3960
  47   2.0000      -0.655700       -17.8425
  48   2.0000      -0.654130       -17.7998
  49   2.0000      -0.635192       -17.2845
  50   2.0000      -0.620558       -16.8862
  51   2.0000      -0.608212       -16.5503
  52   2.0000      -0.597446       -16.2573
  53   2.0000      -0.591642       -16.0994
  54   2.0000      -0.582886       -15.8611
  55   2.0000      -0.579097       -15.7580
  56   2.0000      -0.567087       -15.4312
  57   2.0000      -0.563343       -15.3293
  58   2.0000      -0.557439       -15.1687
  59   2.0000      -0.555470       -15.1151
  60   2.0000      -0.551052       -14.9949
  61   2.0000      -0.545132       -14.8338
  62   2.0000      -0.542471       -14.7614
  63   2.0000      -0.533939       -14.5292
  64   2.0000      -0.530312       -14.4305
  65   2.0000      -0.527809       -14.3624
  66   2.0000      -0.522375       -14.2145
  67   2.0000      -0.513796       -13.9811
  68   2.0000      -0.510761       -13.8985
  69   2.0000      -0.498296       -13.5593
  70   2.0000      -0.482947       -13.1417
  71   2.0000      -0.478567       -13.0225
  72   2.0000      -0.471303       -12.8248
  73   2.0000      -0.463074       -12.6009
  74   2.0000      -0.450637       -12.2624
  75   2.0000      -0.444086       -12.0842
  76   2.0000      -0.426179       -11.5969
  77   2.0000      -0.420863       -11.4523
  78   2.0000      -0.417146       -11.3511
  79   2.0000      -0.407708       -11.0943
  80   2.0000      -0.405569       -11.0361
  81   2.0000      -0.396908       -10.8004
  82   2.0000      -0.375115       -10.2074
  83   2.0000      -0.292630        -7.9629
  84   0.0000       0.022194         0.6039
  85   0.0000       0.027777         0.7559
  86   0.0000       0.028479         0.7750
  87   0.0000       0.030783         0.8376
  88   0.0000       0.038377         1.0443

MULLIKEN ATOMIC CHARGES
-----------------------
   0 C :   -0.974335
   1 C :    0.886432
   2 C :    0.138578
   3 H :    0.038746
   4 C :   -0.869659
   5 H :   -0.011411
   6 H :    0.163576
   7 H :    0.173325
   8 H :    0.317607
   9 C :   -0.387761
  10 H :    0.434616
  11 H :   -0.080987
  12 C :   -0.479092
  13 H :    0.068158
  14 H :    0.105813
  15 C :   -0.987478
  16 H :    0.163955
  17 C :   -0.404034
  18 H :   -0.000341
  19 H :    0.475342
  20 H :   -0.126156
  21 H :   -0.007934
  22 C :    0.550545
  23 H :    0.318546
  24 Si:    2.865595
  25 C :   -2.068238
  26 H :    0.042008
  27 H :    0.221201
  28 H :    0.187115
  29 C :   -1.421949
  30 H :    0.088808
  31 H :    0.352843
  32 H :    0.218283
  33 C :   -1.575127
  34 H :    0.181231
  35 H :    0.067737
  36 H :    0.157459
  37 B :    2.517438
  38 C :   -0.949703
  39 H :    0.413141
  40 C :    0.763014
  41 O :   -0.737209
  42 O :   -0.924062
  43 C :   -1.010789
  44 H :    0.373491
  45 H :    0.326912
  46 H :    0.413415
  47 C :   -0.720417
  48 H :    0.096068
  49 C :   -0.494389
  50 H :    0.230455
  51 H :    0.879618
Sum of atomic charges:   -0.0000000

LOEWDIN ATOMIC CHARGES
----------------------
   0 C :    0.330786
   1 C :    0.134552
   2 C :    0.005446
   3 H :   -0.138512
   4 C :    0.303912
   5 H :   -0.161475
   6 H :   -0.129153
   7 H :   -0.174839
   8 H :   -0.169767
   9 C :    0.310637
  10 H :   -0.132038
  11 H :   -0.164196
  12 C :    0.329351
  13 H :   -0.152582
  14 H :   -0.130291
  15 C :    0.341894
  16 H :   -0.134584
  17 C :    0.314101
  18 H :   -0.158826
  19 H :   -0.134042
  20 H :   -0.149618
  21 H :   -0.144909
  22 C :    0.155204
  23 H :   -0.232382
  24 Si:    0.519746
  25 C :    0.594214
  26 H :   -0.225784
  27 H :   -0.230461
  28 H :   -0.218449
  29 C :    0.602384
  30 H :   -0.221851
  31 H :   -0.242343
  32 H :   -0.228030
  33 C :    0.606675
  34 H :   -0.235107
  35 H :   -0.221909
  36 H :   -0.217799
  37 B :   -0.812945
  38 C :    0.224577
  39 H :   -0.204113
  40 C :   -0.668189
  41 O :    0.691117
  42 O :    0.600479
  43 C :    0.381359
  44 H :   -0.175677
  45 H :   -0.179318
  46 H :   -0.170889
  47 C :    0.207466
  48 H :   -0.133120
  49 C :    0.488285
  50 H :   -0.175249
  51 H :   -0.273738

  Mayer bond orders larger than 0.100000
B(  0-C ,  1-C ) :   0.6606 B(  0-C ,  3-H ) :   1.2821 B(  0-C ,  8-H ) :  -0.2817
B(  0-C , 15-C ) :   0.1254 B(  0-C , 17-C ) :   0.7331 B(  0-C , 18-H ) :   0.1374
B(  0-C , 19-H ) :  -0.1338 B(  0-C , 21-H ) :   1.3160 B(  0-C , 37-B ) :   0.2071
B(  1-C ,  2-C ) :   0.1625 B(  1-C ,  3-H ) :  -0.1370 B(  1-C ,  4-C ) :   0.3639
B(  1-C ,  5-H ) :  -0.1581 B(  1-C ,  6-H ) :  -0.1499 B(  1-C ,  8-H ) :   1.0835
B(  1-C ,  9-C ) :   0.1223 B(  1-C , 17-C ) :   0.1062 B(  1-C , 21-H ) :  -0.1006
B(  1-C , 22-C ) :   0.3510 B(  1-C , 37-B ) :   1.2177 B(  1-C , 41-O ) :  -0.3721
B(  2-C ,  7-H ) :   1.1646 B(  2-C ,  9-C ) :   0.1514 B(  2-C , 12-C ) :   0.7791
B(  2-C , 14-H ) :  -0.2088 B(  2-C , 15-C ) :   0.7751 B(  2-C , 16-H ) :  -0.1220
B(  2-C , 17-C ) :   0.1239 B(  2-C , 22-C ) :   0.9896 B(  2-C , 24-Si) :  -0.1279
B(  2-C , 33-C ) :   0.1846 B(  3-H , 37-B ) :  -0.1050 B(  4-C ,  5-H ) :   1.3517
B(  4-C ,  6-H ) :   1.2039 B(  4-C ,  8-H ) :  -0.3737 B(  4-C ,  9-C ) :   0.7376
B(  4-C , 37-B ) :   0.1703 B(  7-H , 12-C ) :  -0.1331 B(  7-H , 15-C ) :  -0.3281
B(  7-H , 22-C ) :  -0.1520 B(  7-H , 23-H ) :  -0.1336 B(  7-H , 24-Si) :  -0.1906
B(  7-H , 25-C ) :   0.1352 B(  7-H , 37-B ) :   0.1793 B(  7-H , 41-O ) :  -0.1321
B(  8-H , 22-C ) :  -0.1775 B(  8-H , 37-B ) :  -0.5227 B(  8-H , 38-C ) :   0.1814
B(  8-H , 40-C ) :   0.1143 B(  9-C , 10-H ) :   0.7687 B(  9-C , 11-H ) :   1.3771
B(  9-C , 12-C ) :   0.7066 B(  9-C , 14-H ) :  -0.1234 B( 11-H , 37-B ) :  -0.1072
B( 12-C , 13-H ) :   1.2698 B( 12-C , 14-H ) :   1.1506 B( 12-C , 23-H ) :   0.1575
B( 12-C , 24-Si) :  -0.1283 B( 12-C , 37-B ) :  -0.2924 B( 12-C , 41-O ) :   0.1284
B( 13-H , 14-H ) :   0.1554 B( 14-H , 23-H ) :   0.1562 B( 15-C , 16-H ) :   1.1408
B( 15-C , 17-C ) :   0.7270 B( 15-C , 18-H ) :   0.1032 B( 15-C , 19-H ) :  -0.1061
B( 15-C , 20-H ) :   1.4486 B( 15-C , 22-C ) :   0.3062 B( 15-C , 37-B ) :  -0.1482
B( 16-H , 17-C ) :  -0.1283 B( 17-C , 18-H ) :   1.2524 B( 17-C , 19-H ) :   0.8148
B( 17-C , 37-B ) :  -0.1031 B( 20-H , 37-B ) :  -0.1469 B( 22-C , 23-H ) :   0.7112
B( 22-C , 24-Si) :   1.2888 B( 22-C , 25-C ) :  -0.1116 B( 22-C , 37-B ) :   1.2846
B( 22-C , 40-C ) :  -0.1024 B( 23-H , 24-Si) :  -0.4996 B( 24-Si, 25-C ) :  -1.6840
B( 24-Si, 26-H ) :  -0.2153 B( 24-Si, 27-H ) :  -0.1581 B( 24-Si, 28-H ) :  -0.1608
B( 24-Si, 30-H ) :  -0.1382 B( 25-C , 26-H ) :   1.4169 B( 25-C , 27-H ) :   1.1289
B( 25-C , 28-H ) :   1.2167 B( 25-C , 29-C ) :   0.1211 B( 25-C , 33-C ) :   0.1025
B( 29-C , 30-H ) :   1.1850 B( 29-C , 31-H ) :   0.9417 B( 29-C , 32-H ) :   1.0763
B( 29-C , 33-C ) :   0.1893 B( 29-C , 37-B ) :   0.1057 B( 33-C , 34-H ) :   1.1051
B( 33-C , 35-H ) :   1.2070 B( 33-C , 36-H ) :   1.1361 B( 33-C , 37-B ) :  -0.1829
B( 34-H , 36-H ) :   0.1053 B( 37-B , 38-C ) :   0.2797 B( 37-B , 39-H ) :  -0.3031
B( 37-B , 40-C ) :  -0.8803 B( 37-B , 41-O ) :  -2.3907 B( 37-B , 47-C ) :   0.3847
B( 37-B , 48-H ) :   0.2185 B( 37-B , 50-H ) :  -0.1974 B( 38-C , 39-H ) :   0.7338
B( 38-C , 40-C ) :   1.2445 B( 38-C , 41-O ) :  -0.7713 B( 38-C , 42-O ) :   0.1592
B( 38-C , 47-C ) :   1.1033 B( 38-C , 49-C ) :   0.1889 B( 39-H , 41-O ) :   0.1484
B( 40-C , 41-O ) :   2.1882 B( 40-C , 42-O ) :   0.1047 B( 40-C , 49-C ) :   0.1324
B( 41-O , 42-O ) :  -0.1050 B( 41-O , 43-C ) :  -0.1658 B( 41-O , 47-C ) :   0.3398
B( 41-O , 49-C ) :  -0.1327 B( 42-O , 43-C ) :   0.8988 B( 43-C , 44-H ) :   0.8393
B( 43-C , 45-H ) :   1.0327 B( 43-C , 46-H ) :   0.8027 B( 47-C , 48-H ) :   1.3082
B( 47-C , 49-C ) :   0.8449 B( 47-C , 50-H ) :  -0.4670 B( 47-C , 51-H ) :  -0.2891
B( 48-H , 49-C ) :  -0.2316 B( 49-C , 50-H ) :   1.1754 B( 49-C , 51-H ) :   0.3118

MP2 TOTAL ENERGY:    -1129.129336428 Eh
FINAL SINGLE POINT ENERGY     -1129.129336427816

DIPOLE MOMENT
-------------
                                X             Y             Z
Electronic contribution:     14.76814      -3.80454       2.74957
Nuclear contribution   :    -14.32319       3.93504      -3.02021
                        -----------------------------------------
Total Dipole Moment    :      0.44495       0.13050      -0.27063
                        -----------------------------------------
Magnitude (a.u.)       :      0.53689
Magnitude (Debye)      :      1.36467

Rotational constants in cm-1:     0.011189     0.009231     0.007424
Rotational constants in MHz :   335.444292   276.735136   222.560887

                             ****ORCA TERMINATED NORMALLY****
TOTAL RUN TIME: 0 days 2 hours 19 minutes 21 seconds 726 msec
