                         Program Version 4.2.1 -  RELEASE  -
|  1> %pal
|  2>  nprocs 32
|  3> end
|  4> !RI-MP2 aug-cc-pVTZ aug-cc-pVTZ/C TightSCF
|  5> %maxcore 4500
|  6> *xyzfile 1 1  05_26P1.xyz
|  7>
|  8>
|  9>                          ****END OF INPUT****

CARTESIAN COORDINATES (ANGSTROEM)
---------------------------------
  C      2.608719   -0.256896    0.000005
  O      3.647262    0.493039    0.000075
  C      4.976858   -0.082711    0.000047
  H      4.916778   -1.170782   -0.000065
  H      5.478135    0.280966    0.893258
  C      1.336225    0.282131    0.000034
  H      1.233206    1.359014    0.000117
  C      0.259753   -0.574847   -0.000043
  H      0.478899   -1.640644   -0.000123
  H      5.478173    0.281146   -0.893070
  C     -1.121252   -0.236948   -0.000030
  C     -1.579169    1.096440    0.000068
  C     -2.061258   -1.285662   -0.000120
  C     -2.929517    1.361292    0.000075
  H     -0.875682    1.918704    0.000138
  C     -3.413652   -1.013148   -0.000112
  H     -1.714197   -2.312457   -0.000196
  C     -3.845532    0.308519   -0.000014
  H     -3.282466    2.384210    0.000151
  H     -4.133126   -1.821239   -0.000181
  H     -4.906914    0.525072   -0.000008
  H      2.762049   -1.337336   -0.000076

 Total Charge           Charge          ....    1
 Multiplicity           Mult            ....    1
 Number of Electrons    NEL             ....   78
 Basis Dimension        Dim             ....  759

ORBITAL ENERGIES
----------------

  NO   OCC          E(Eh)            E(eV)
   0   2.0000     -20.795664      -565.8788
   1   2.0000     -11.531987      -313.8013
   2   2.0000     -11.463765      -311.9449
   3   2.0000     -11.444926      -311.4323
   4   2.0000     -11.399357      -310.1923
   5   2.0000     -11.394349      -310.0560
   6   2.0000     -11.392592      -310.0082
   7   2.0000     -11.391494      -309.9783
   8   2.0000     -11.387864      -309.8795
   9   2.0000     -11.368749      -309.3594
  10   2.0000     -11.367538      -309.3264
  11   2.0000      -1.632835       -44.4317
  12   2.0000      -1.320561       -35.9343
  13   2.0000      -1.273213       -34.6459
  14   2.0000      -1.196953       -32.5708
  15   2.0000      -1.166000       -31.7285
  16   2.0000      -1.136681       -30.9307
  17   2.0000      -1.055197       -28.7134
  18   2.0000      -0.999708       -27.2034
  19   2.0000      -0.972241       -26.4560
  20   2.0000      -0.942687       -25.6518
  21   2.0000      -0.885805       -24.1040
  22   2.0000      -0.860170       -23.4064
  23   2.0000      -0.842428       -22.9236
  24   2.0000      -0.830272       -22.5929
  25   2.0000      -0.791930       -21.5495
  26   2.0000      -0.781132       -21.2557
  27   2.0000      -0.745031       -20.2733
  28   2.0000      -0.735900       -20.0248
  29   2.0000      -0.732623       -19.9357
  30   2.0000      -0.707496       -19.2519
  31   2.0000      -0.695697       -18.9309
  32   2.0000      -0.687553       -18.7093
  33   2.0000      -0.662295       -18.0220
  34   2.0000      -0.650513       -17.7014
  35   2.0000      -0.633966       -17.2511
  36   2.0000      -0.576364       -15.6837
  37   2.0000      -0.481353       -13.0983
  38   2.0000      -0.469932       -12.7875
  39   0.0000      -0.137261        -3.7351
  40   0.0000      -0.074504        -2.0274
  41   0.0000      -0.059510        -1.6193
  42   0.0000      -0.054804        -1.4913
  43   0.0000      -0.047343        -1.2883

MULLIKEN ATOMIC CHARGES
-----------------------
   0 C :   -0.401807
   1 O :   -0.440015
   2 C :   -0.726043
   3 H :    0.398673
   4 H :    0.351461
   5 C :    0.259476
   6 H :    0.329595
   7 C :   -0.133765
   8 H :    0.159978
   9 H :    0.351458
  10 C :    2.376933
  11 C :   -0.665830
  12 C :   -0.947462
  13 C :   -0.929852
  14 H :   -0.207619
  15 C :   -0.805786
  16 H :   -0.076937
  17 C :    0.047651
  18 H :    0.606874
  19 H :    0.655366
  20 H :    0.374279
  21 H :    0.423371
Sum of atomic charges:    1.0000000

LOEWDIN ATOMIC CHARGES
----------------------
   0 C :    0.014757
   1 O :    0.624382
   2 C :    0.470712
   3 H :   -0.174496
   4 H :   -0.157302
   5 C :    0.261703
   6 H :   -0.180756
   7 C :    0.270034
   8 H :   -0.153394
   9 H :   -0.157301
  10 C :   -0.102661
  11 C :    0.248752
  12 C :    0.242948
  13 C :    0.248090
  14 H :   -0.172449
  15 C :    0.247222
  16 H :   -0.159007
  17 C :    0.255148
  18 H :   -0.166647
  19 H :   -0.167408
  20 H :   -0.153251
  21 H :   -0.139076

  Mayer bond orders larger than 0.100000
B(  0-C ,  1-O ) :   1.4129 B(  0-C ,  7-C ) :  -0.3759 B(  0-C ,  8-H ) :  -0.1324
B(  0-C , 10-C ) :   0.3659 B(  0-C , 12-C ) :   0.1067 B(  0-C , 21-H ) :   0.9945
B(  1-O ,  2-C ) :   0.7439 B(  1-O ,  5-C ) :  -0.3388 B(  1-O ,  7-C ) :   0.1083
B(  2-C ,  3-H ) :   0.8315 B(  2-C ,  4-H ) :   0.8908 B(  2-C ,  9-H ) :   0.8908
B(  5-C ,  6-H ) :   1.3387 B(  5-C ,  7-C ) :   0.6468 B(  5-C , 10-C ) :  -0.2689
B(  5-C , 13-C ) :  -0.1766 B(  5-C , 14-H ) :  -0.2795 B(  5-C , 16-H ) :  -0.1972
B(  5-C , 17-C ) :   0.1273 B(  5-C , 19-H ) :   0.1194 B(  5-C , 21-H ) :  -0.1941
B(  6-H ,  7-C ) :  -0.1435 B(  6-H , 11-C ) :  -0.1780 B(  7-C ,  8-H ) :   1.3687
B(  7-C , 10-C ) :   0.3606 B(  7-C , 11-C ) :   0.2804 B(  7-C , 12-C ) :   0.1290
B(  7-C , 14-H ) :  -0.2213 B(  7-C , 16-H ) :  -0.3860 B(  7-C , 17-C ) :   0.2746
B(  7-C , 18-H ) :   0.1073 B(  7-C , 19-H ) :   0.1983 B(  7-C , 21-H ) :  -0.1370
B( 10-C , 11-C ) :   0.1155 B( 10-C , 12-C ) :  -0.2772 B( 10-C , 13-C ) :   0.1498
B( 10-C , 14-H ) :  -0.5987 B( 10-C , 16-H ) :  -0.4839 B( 11-C , 12-C ) :  -0.4828
B( 11-C , 13-C ) :   1.3630 B( 11-C , 14-H ) :   2.1971 B( 11-C , 16-H ) :   0.3146
B( 11-C , 17-C ) :  -0.2952 B( 12-C , 13-C ) :   0.1352 B( 12-C , 14-H ) :   0.3229
B( 12-C , 15-C ) :   1.2422 B( 12-C , 16-H ) :   2.1646 B( 12-C , 17-C ) :  -0.3171
B( 12-C , 18-H ) :  -0.1208 B( 12-C , 19-H ) :  -0.2491 B( 12-C , 20-H ) :   0.3031
B( 13-C , 14-H ) :  -0.1350 B( 13-C , 15-C ) :   0.3689 B( 13-C , 17-C ) :   1.0180
B( 13-C , 18-H ) :   0.4449 B( 13-C , 20-H ) :  -0.1811 B( 14-H , 16-H ) :   0.2577
B( 14-H , 17-C ) :  -0.1138 B( 14-H , 19-H ) :  -0.1281 B( 14-H , 20-H ) :   0.1432
B( 15-C , 16-H ) :  -0.1171 B( 15-C , 17-C ) :   1.0211 B( 15-C , 19-H ) :   0.3939
B( 15-C , 20-H ) :  -0.1417 B( 17-C , 18-H ) :   0.1366 B( 17-C , 19-H ) :   0.1217
B( 17-C , 20-H ) :   0.9076

MP2 TOTAL ENERGY:     -461.687147457 Eh
FINAL SINGLE POINT ENERGY      -461.687147457027

DIPOLE MOMENT
-------------
                                X             Y             Z
Electronic contribution:     -3.62731       0.74892       0.00001
Nuclear contribution   :      5.53603      -1.53771      -0.00005
                        -----------------------------------------
Total Dipole Moment    :      1.90873      -0.78879      -0.00004
                        -----------------------------------------
Magnitude (a.u.)       :      2.06529
Magnitude (Debye)      :      5.24955

Rotational constants in cm-1:     0.155630     0.013140     0.012145
Rotational constants in MHz :  4665.681701   393.929382   364.100759

                             ****ORCA TERMINATED NORMALLY****
TOTAL RUN TIME: 0 days 0 hours 6 minutes 55 seconds 363 msec
