                         Program Version 4.2.1 -  RELEASE  -
|  1> %pal
|  2>  nprocs 32
|  3> end
|  4> !RI-MP2 aug-cc-pVTZ aug-cc-pVTZ/C TightSCF
|  5> %maxcore 4500
|  6> *xyzfile 0 1  04_24P2.xyz
|  7>
|  8>
|  9>                          ****END OF INPUT****

CARTESIAN COORDINATES (ANGSTROEM)
---------------------------------
  H     -1.722522    0.107308    0.582494
  O     -1.143952   -0.300896   -0.073398
  O     -0.023077    0.597911   -0.037656
  C      1.127711   -0.214925    0.029489
  H      1.962997    0.485890    0.008570
  H      1.146894   -0.797427    0.954698
  H      1.182599   -0.882338   -0.834262

 Total Charge           Charge          ....    0
 Multiplicity           Mult            ....    1
 Number of Electrons    NEL             ....   26
 Basis Dimension        Dim             ....  230

ORBITAL ENERGIES
----------------

  NO   OCC          E(Eh)            E(eV)
   0   2.0000     -20.624115      -561.2107
   1   2.0000     -20.622299      -561.1613
   2   2.0000     -11.278875      -306.9138
   3   2.0000      -1.479896       -40.2700
   4   2.0000      -1.226746       -33.3814
   5   2.0000      -0.917186       -24.9579
   6   2.0000      -0.725762       -19.7490
   7   2.0000      -0.667626       -18.1670
   8   2.0000      -0.649220       -17.6662
   9   2.0000      -0.588006       -16.0005
  10   2.0000      -0.533993       -14.5307
  11   2.0000      -0.502606       -13.6766
  12   2.0000      -0.442724       -12.0471
  13   0.0000       0.029873         0.8129
  14   0.0000       0.041089         1.1181
  15   0.0000       0.049582         1.3492
  16   0.0000       0.050186         1.3656
  17   0.0000       0.091168         2.4808

MULLIKEN ATOMIC CHARGES
-----------------------
   0 H :    0.241291
   1 O :   -0.309907
   2 O :   -0.326021
   3 C :   -0.615962
   4 H :    0.363242
   5 H :    0.320093
   6 H :    0.327265
Sum of atomic charges:    0.0000000

LOEWDIN ATOMIC CHARGES
----------------------
   0 H :   -0.553132
   1 O :    0.568051
   2 O :    0.308094
   3 C :    0.267800
   4 H :   -0.201549
   5 H :   -0.194507
   6 H :   -0.194757

  Mayer bond orders larger than 0.100000
B(  0-H ,  1-O ) :   0.9728 B(  1-O ,  2-O ) :   0.8132 B(  2-O ,  3-C ) :   0.8185
B(  3-C ,  4-H ) :   0.8609 B(  3-C ,  5-H ) :   0.9024 B(  3-C ,  6-H ) :   0.8963

MP2 TOTAL ENERGY:     -190.559925195 Eh
FINAL SINGLE POINT ENERGY      -190.559925194655

DIPOLE MOMENT
-------------
                                X             Y             Z
Electronic contribution:     -2.37500       1.00114      -0.24068
Nuclear contribution   :      2.59347      -1.09965       0.72140
                        -----------------------------------------
Total Dipole Moment    :      0.21847      -0.09851       0.48072
                        -----------------------------------------
Magnitude (a.u.)       :      0.53715
Magnitude (Debye)      :      1.36533

Rotational constants in cm-1:     1.480320     0.352600     0.306017
Rotational constants in MHz : 44378.870837 10570.678782  9174.165697

                             ****ORCA TERMINATED NORMALLY****
TOTAL RUN TIME: 0 days 0 hours 0 minutes 14 seconds 507 msec
