                         Program Version 4.2.1 -  RELEASE  -
|  1> %pal
|  2>  nprocs 32
|  3> end
|  4> !RI-MP2 aug-cc-pVTZ aug-cc-pVTZ/C TightSCF
|  5> %maxcore 4500
|  6> *xyzfile 0 1  08_6R1.xyz
|  7>
|  8>
|  9>                          ****END OF INPUT****

CARTESIAN COORDINATES (ANGSTROEM)
---------------------------------
  C     -0.012913    2.029409   -0.049013
  C     -1.103083   -1.383953   -0.823681
  C     -0.398887   -1.132387    0.525562
  C      0.802437   -0.180938    0.426800
  O      0.628310    0.875964   -0.518909
  H     -0.004235   -2.091485    0.873953
  O     -1.337561   -0.740123    1.506732
  O     -2.160221   -0.460371   -1.069198
  C      2.056163   -0.915144   -0.024402
  H      0.983391    0.255010    1.416874
  O      3.148772   -0.038692   -0.163418
  H      1.855503   -1.440724   -0.968036
  H      2.334424   -1.657892    0.724170
  O     -1.350730    1.791719    0.290325
  H      2.849839    0.690546   -0.717612
  H     -2.876582   -0.682382   -0.465382
  H     -0.405714   -1.278779   -1.653433
  H     -1.506716    0.208486    1.385051
  H     -1.506090   -2.399709   -0.837155
  H     -1.757786    1.304238   -0.449427
  H      0.472412    2.407983    0.855839
  H      0.070692    2.754811   -0.860704

 Total Charge           Charge          ....    0
 Multiplicity           Mult            ....    1
 Number of Electrons    NEL             ....   82
 Basis Dimension        Dim             ....  736

ORBITAL ENERGIES
----------------

  NO   OCC          E(Eh)            E(eV)
   0   2.0000     -20.581221      -560.0435
   1   2.0000     -20.580733      -560.0302
   2   2.0000     -20.572935      -559.8180
   3   2.0000     -20.559404      -559.4498
   4   2.0000     -20.557134      -559.3880
   5   2.0000     -11.342631      -308.6487
   6   2.0000     -11.294365      -307.3353
   7   2.0000     -11.292588      -307.2869
   8   2.0000     -11.290123      -307.2199
   9   2.0000     -11.284224      -307.0593
  10   2.0000      -1.436676       -39.0939
  11   2.0000      -1.390519       -37.8380
  12   2.0000      -1.372486       -37.3473
  13   2.0000      -1.359415       -36.9916
  14   2.0000      -1.349390       -36.7188
  15   2.0000      -1.066075       -29.0094
  16   2.0000      -0.980555       -26.6822
  17   2.0000      -0.920521       -25.0486
  18   2.0000      -0.876379       -23.8475
  19   2.0000      -0.821187       -22.3456
  20   2.0000      -0.740317       -20.1451
  21   2.0000      -0.722039       -19.6477
  22   2.0000      -0.716645       -19.5009
  23   2.0000      -0.704536       -19.1714
  24   2.0000      -0.672100       -18.2888
  25   2.0000      -0.667379       -18.1603
  26   2.0000      -0.646527       -17.5929
  27   2.0000      -0.630109       -17.1461
  28   2.0000      -0.620464       -16.8837
  29   2.0000      -0.597896       -16.2696
  30   2.0000      -0.578716       -15.7477
  31   2.0000      -0.557491       -15.1701
  32   2.0000      -0.548558       -14.9270
  33   2.0000      -0.523587       -14.2475
  34   2.0000      -0.514720       -14.0062
  35   2.0000      -0.507101       -13.7989
  36   2.0000      -0.487337       -13.2611
  37   2.0000      -0.480419       -13.0729
  38   2.0000      -0.457256       -12.4426
  39   2.0000      -0.449016       -12.2183
  40   2.0000      -0.424518       -11.5517
  41   0.0000       0.027852         0.7579
  42   0.0000       0.032407         0.8818
  43   0.0000       0.037192         1.0120
  44   0.0000       0.038150         1.0381
  45   0.0000       0.049993         1.3604

MULLIKEN ATOMIC CHARGES
-----------------------
   0 C :   -0.304473
   1 C :   -0.285716
   2 C :    0.360136
   3 C :    0.549063
   4 O :   -0.697993
   5 H :    0.375398
   6 O :   -0.937314
   7 O :   -0.603080
   8 C :   -0.358091
   9 H :    0.431930
  10 O :   -0.736696
  11 H :    0.238546
  12 H :    0.320764
  13 O :   -0.677266
  14 H :    0.209312
  15 H :    0.122428
  16 H :    0.268207
  17 H :    0.290304
  18 H :    0.326197
  19 H :    0.281277
  20 H :    0.442510
  21 H :    0.384555
Sum of atomic charges:   -0.0000000

LOEWDIN ATOMIC CHARGES
----------------------
   0 C :   -0.189752
   1 C :    0.092300
   2 C :   -0.233029
   3 C :   -0.241874
   4 O :    0.595803
   5 H :   -0.152626
   6 O :    0.851844
   7 O :    0.852660
   8 C :    0.029496
   9 H :   -0.137468
  10 O :    0.825534
  11 H :   -0.148487
  12 H :   -0.154390
  13 O :    0.855782
  14 H :   -0.525760
  15 H :   -0.466735
  16 H :   -0.171313
  17 H :   -0.617823
  18 H :   -0.147619
  19 H :   -0.592730
  20 H :   -0.161987
  21 H :   -0.161825

  Mayer bond orders larger than 0.100000
B(  0-C ,  4-O ) :   1.0541 B(  0-C , 13-O ) :   0.8317 B(  0-C , 20-H ) :   0.8375
B(  0-C , 21-H ) :   0.9077 B(  1-C ,  2-C ) :   0.8999 B(  1-C ,  6-O ) :   0.1649
B(  1-C ,  7-O ) :   0.7282 B(  1-C , 16-H ) :   0.9873 B(  1-C , 18-H ) :   0.9476
B(  2-C ,  3-C ) :   0.9421 B(  2-C ,  5-H ) :   0.8956 B(  2-C ,  6-O ) :   0.2079
B(  3-C ,  4-O ) :   0.4727 B(  3-C ,  8-C ) :   0.8060 B(  3-C ,  9-H ) :   0.7595
B(  4-O ,  8-C ) :   0.1191 B(  4-O ,  9-H ) :  -0.1131 B(  6-O , 17-H ) :   0.8263
B(  7-O , 15-H ) :   1.0313 B(  8-C , 10-O ) :   0.6669 B(  8-C , 11-H ) :   1.0524
B(  8-C , 12-H ) :   0.9857 B( 10-O , 14-H ) :   0.9640 B( 13-O , 19-H ) :   0.8986

MP2 TOTAL ENERGY:     -572.940679558 Eh
FINAL SINGLE POINT ENERGY      -572.940679557659

DIPOLE MOMENT
-------------
                                X             Y             Z
Electronic contribution:     -0.81334       1.74752       0.30833
Nuclear contribution   :      0.49825      -1.93065      -0.70362
                        -----------------------------------------
Total Dipole Moment    :     -0.31509      -0.18312      -0.39529
                        -----------------------------------------
Magnitude (a.u.)       :      0.53766
Magnitude (Debye)      :      1.36661

Rotational constants in cm-1:     0.057422     0.034163     0.027448
Rotational constants in MHz :  1721.466829  1024.187150   822.876769

                             ****ORCA TERMINATED NORMALLY****
TOTAL RUN TIME: 0 days 0 hours 5 minutes 58 seconds 171 msec
