                         Program Version 4.2.1 -  RELEASE  -
|  1> %pal
|  2>  nprocs 32
|  3> end
|  4> !RI-MP2 aug-cc-pVTZ aug-cc-pVTZ/C TightSCF
|  5> %maxcore 4500
|  6> *xyzfile 0 1  01_9R2.xyz
|  7>
|  8>
|  9>                          ****END OF INPUT****

CARTESIAN COORDINATES (ANGSTROEM)
---------------------------------
  C      1.029232    1.492029   -0.000221
  C      0.695944    0.205325   -0.000056
  C     -0.733642   -0.205869    0.000058
  O     -1.605891    0.822405   -0.000019
  C      1.680416   -0.924313    0.000029
  O     -1.102424   -1.352212    0.000207
  H      2.701387   -0.543656   -0.000070
  H      1.539154   -1.561350   -0.875162
  H      1.539245   -1.561139    0.875387
  H     -2.492257    0.436934    0.000067
  H      2.069573    1.795173   -0.000305
  H      0.277720    2.269452   -0.000276

 Total Charge           Charge          ....    0
 Multiplicity           Mult            ....    1
 Number of Electrons    NEL             ....   46
 Basis Dimension        Dim             ....  414

ORBITAL ENERGIES
----------------

  NO   OCC          E(Eh)            E(eV)
   0   2.0000     -20.612123      -560.8844
   1   2.0000     -20.549718      -559.1862
   2   2.0000     -11.386527      -309.8432
   3   2.0000     -11.259107      -306.3759
   4   2.0000     -11.250973      -306.1545
   5   2.0000     -11.227840      -305.5251
   6   2.0000      -1.469132       -39.9771
   7   2.0000      -1.363699       -37.1081
   8   2.0000      -1.106696       -30.1147
   9   2.0000      -0.952865       -25.9288
  10   2.0000      -0.890419       -24.2295
  11   2.0000      -0.765923       -20.8418
  12   2.0000      -0.709388       -19.3034
  13   2.0000      -0.687554       -18.7093
  14   2.0000      -0.638928       -17.3861
  15   2.0000      -0.616757       -16.7828
  16   2.0000      -0.598104       -16.2752
  17   2.0000      -0.572361       -15.5747
  18   2.0000      -0.540162       -14.6986
  19   2.0000      -0.533577       -14.5194
  20   2.0000      -0.486646       -13.2423
  21   2.0000      -0.456019       -12.4089
  22   2.0000      -0.385258       -10.4834
  23   0.0000       0.027743         0.7549
  24   0.0000       0.034099         0.9279
  25   0.0000       0.038204         1.0396
  26   0.0000       0.049237         1.3398
  27   0.0000       0.053980         1.4689

MULLIKEN ATOMIC CHARGES
-----------------------
   0 C :   -1.110668
   1 C :    0.925146
   2 C :    0.434869
   3 O :   -0.455230
   4 C :   -0.822840
   5 O :   -0.834033
   6 H :    0.234660
   7 H :    0.282938
   8 H :    0.282939
   9 H :    0.240810
  10 H :    0.330646
  11 H :    0.490762
Sum of atomic charges:   -0.0000000

LOEWDIN ATOMIC CHARGES
----------------------
   0 C :    0.554748
   1 C :   -0.159831
   2 C :   -0.822247
   3 O :    0.831819
   4 C :    0.545115
   5 O :    0.462985
   6 H :   -0.179073
   7 H :   -0.168415
   8 H :   -0.168416
   9 H :   -0.470279
  10 H :   -0.200619
  11 H :   -0.225787

  Mayer bond orders larger than 0.100000
B(  0-C ,  1-C ) :   1.2672 B(  0-C , 10-H ) :   0.9701 B(  0-C , 11-H ) :   0.7592
B(  1-C ,  2-C ) :   0.6365 B(  1-C ,  4-C ) :   0.8039 B(  2-C ,  3-O ) :   0.9937
B(  2-C ,  5-O ) :   1.2718 B(  3-O ,  9-H ) :   0.9393 B(  4-C ,  6-H ) :   1.0025
B(  4-C ,  7-H ) :   0.9497 B(  4-C ,  8-H ) :   0.9497

MP2 TOTAL ENERGY:     -305.950923567 Eh
FINAL SINGLE POINT ENERGY      -305.950923566989

DIPOLE MOMENT
-------------
                                X             Y             Z
Electronic contribution:     -5.26742      -0.07626       0.00026
Nuclear contribution   :      5.61170       0.82996      -0.00036
                        -----------------------------------------
Total Dipole Moment    :      0.34428       0.75370      -0.00010
                        -----------------------------------------
Magnitude (a.u.)       :      0.82861
Magnitude (Debye)      :      2.10616

Rotational constants in cm-1:     0.180684     0.117252     0.072047
Rotational constants in MHz :  5416.784268  3515.140783  2159.907036

                             ****ORCA TERMINATED NORMALLY****
TOTAL RUN TIME: 0 days 0 hours 1 minutes 2 seconds 372 msec
