                         Program Version 4.2.1 -  RELEASE  -
|  1> %pal
|  2>  nprocs 32
|  3> end
|  4> !RI-MP2 aug-cc-pVTZ aug-cc-pVTZ/C TightSCF
|  5> %maxcore 4500
|  6> *xyzfile -1 1  07_8TS.xyz
|  7>
|  8>
|  9>                          ****END OF INPUT****

CARTESIAN COORDINATES (ANGSTROEM)
---------------------------------
  N     -2.230484   -1.197508   -0.247632
  C     -3.491514   -0.618467    0.211440
  C     -4.639024   -1.552385   -0.167861
  O     -5.748609   -1.468027    0.286894
  O     -4.303395   -2.449578   -1.097801
  C     -3.740926    0.751248   -0.460447
  H     -3.856811    0.590741   -1.537242
  H     -4.694606    1.128616   -0.086655
  C     -2.619436    1.719521   -0.207724
  C     -2.494072    2.386167    1.012355
  H     -3.273754    2.272848    1.761297
  C     -1.395327    3.174176    1.298259
  H     -1.304055    3.675794    2.254817
  C     -0.338166    3.325919    0.375377
  C     -0.491876    2.688326   -0.873701
  H      0.291871    2.806691   -1.611804
  C     -1.602448    1.906715   -1.143418
  H     -1.681210    1.421948   -2.113607
  O      0.729985    4.011508    0.691759
  H      1.719530    3.663367    0.056134
  H     -3.525644   -0.481000    1.295688
  H     -3.336449   -2.297262   -1.234702
  H     -1.791477   -1.784826    0.453847
  H     -1.567161   -0.459454   -0.465479
  N      1.945345   -2.659811   -1.465526
  C      2.499767   -3.083164   -0.177224
  C      1.372813   -3.112056    0.866729
  O      1.556572   -3.323800    2.033719
  O      0.159092   -2.929945    0.345841
  C      3.699705   -2.244484    0.308512
  H      3.883591   -2.506714    1.352186
  H      4.579132   -2.549193   -0.265771
  C      3.478733   -0.764796    0.138971
  C      4.032809   -0.071888   -0.937660
  H      4.696489   -0.597476   -1.620440
  C      3.764824    1.268939   -1.159787
  H      4.201542    1.792714   -2.002123
  C      2.910471    1.992015   -0.306113
  C      2.373720    1.293897    0.799421
  H      1.731665    1.831163    1.485344
  C      2.651649   -0.043631    1.004711
  H      2.215871   -0.544556    1.863834
  O      2.640494    3.249317   -0.553361
  H      2.811684   -4.128837   -0.261096
  H      0.322941   -2.782273   -0.617197
  H      2.322915   -3.188959   -2.239535
  H      2.146598   -1.674208   -1.622829

 Total Charge           Charge          ....   -1
 Multiplicity           Mult            ....    1
 Number of Electrons    NEL             ....  192
 Basis Dimension        Dim             .... 1679

ORBITAL ENERGIES
----------------

  NO   OCC          E(Eh)            E(eV)
   0   2.0000     -20.519885      -558.3745
   1   2.0000     -20.506520      -558.0108
   2   2.0000     -20.458520      -556.7046
   3   2.0000     -20.446536      -556.3785
   4   2.0000     -20.391324      -554.8761
   5   2.0000     -20.378489      -554.5269
   6   2.0000     -15.496377      -421.6779
   7   2.0000     -15.471501      -421.0010
   8   2.0000     -11.295950      -307.3784
   9   2.0000     -11.281429      -306.9833
  10   2.0000     -11.209965      -305.0387
  11   2.0000     -11.188602      -304.4573
  12   2.0000     -11.175719      -304.1068
  13   2.0000     -11.167061      -303.8712
  14   2.0000     -11.155069      -303.5449
  15   2.0000     -11.146675      -303.3164
  16   2.0000     -11.136220      -303.0320
  17   2.0000     -11.129444      -302.8476
  18   2.0000     -11.126502      -302.7675
  19   2.0000     -11.126199      -302.7593
  20   2.0000     -11.124267      -302.7067
  21   2.0000     -11.116504      -302.4954
  22   2.0000     -11.109747      -302.3116
  23   2.0000     -11.105224      -302.1885
  24   2.0000     -11.102686      -302.1195
  25   2.0000     -11.099119      -302.0224
  26   2.0000      -1.379091       -37.5270
  27   2.0000      -1.364485       -37.1295
  28   2.0000      -1.281775       -34.8789
  29   2.0000      -1.267284       -34.4846
  30   2.0000      -1.233822       -33.5740
  31   2.0000      -1.197555       -32.5871
  32   2.0000      -1.141628       -31.0653
  33   2.0000      -1.120734       -30.4967
  34   2.0000      -1.041227       -28.3332
  35   2.0000      -1.032898       -28.1066
  36   2.0000      -0.955860       -26.0103
  37   2.0000      -0.944143       -25.6914
  38   2.0000      -0.907526       -24.6950
  39   2.0000      -0.901029       -24.5182
  40   2.0000      -0.882446       -24.0126
  41   2.0000      -0.869872       -23.6704
  42   2.0000      -0.802600       -21.8399
  43   2.0000      -0.785093       -21.3635
  44   2.0000      -0.729145       -19.8411
  45   2.0000      -0.728434       -19.8217
  46   2.0000      -0.720303       -19.6004
  47   2.0000      -0.711102       -19.3501
  48   2.0000      -0.688874       -18.7452
  49   2.0000      -0.675163       -18.3721
  50   2.0000      -0.655528       -17.8378
  51   2.0000      -0.633944       -17.2505
  52   2.0000      -0.615742       -16.7552
  53   2.0000      -0.607508       -16.5311
  54   2.0000      -0.603074       -16.4105
  55   2.0000      -0.587238       -15.9796
  56   2.0000      -0.579533       -15.7699
  57   2.0000      -0.564404       -15.3582
  58   2.0000      -0.557964       -15.1830
  59   2.0000      -0.551501       -15.0071
  60   2.0000      -0.543091       -14.7783
  61   2.0000      -0.538128       -14.6432
  62   2.0000      -0.528138       -14.3714
  63   2.0000      -0.523586       -14.2475
  64   2.0000      -0.520080       -14.1521
  65   2.0000      -0.515748       -14.0342
  66   2.0000      -0.494544       -13.4572
  67   2.0000      -0.490983       -13.3603
  68   2.0000      -0.482151       -13.1200
  69   2.0000      -0.475405       -12.9364
  70   2.0000      -0.473541       -12.8857
  71   2.0000      -0.468726       -12.7547
  72   2.0000      -0.453128       -12.3302
  73   2.0000      -0.449230       -12.2242
  74   2.0000      -0.445907       -12.1337
  75   2.0000      -0.440941       -11.9986
  76   2.0000      -0.431264       -11.7353
  77   2.0000      -0.421797       -11.4777
  78   2.0000      -0.409757       -11.1501
  79   2.0000      -0.398551       -10.8451
  80   2.0000      -0.397167       -10.8075
  81   2.0000      -0.390409       -10.6236
  82   2.0000      -0.384854       -10.4724
  83   2.0000      -0.381470       -10.3803
  84   2.0000      -0.378564       -10.3012
  85   2.0000      -0.361640        -9.8407
  86   2.0000      -0.357984        -9.7412
  87   2.0000      -0.347345        -9.4517
  88   2.0000      -0.336450        -9.1553
  89   2.0000      -0.327628        -8.9152
  90   2.0000      -0.325871        -8.8674
  91   2.0000      -0.280997        -7.6463
  92   2.0000      -0.237642        -6.4666
  93   2.0000      -0.229549        -6.2463
  94   2.0000      -0.177396        -4.8272
  95   2.0000      -0.166171        -4.5217
  96   0.0000       0.077275         2.1028
  97   0.0000       0.092189         2.5086
  98   0.0000       0.094051         2.5593
  99   0.0000       0.102187         2.7806
 100   0.0000       0.106223         2.8905

MULLIKEN ATOMIC CHARGES
-----------------------
   0 N :   -0.838657
   1 C :    0.678167
   2 C :    0.632334
   3 O :   -0.925710
   4 O :   -0.641246
   5 C :   -0.758745
   6 H :    0.295886
   7 H :    0.184880
   8 C :    1.141770
   9 C :   -0.801246
  10 H :    0.179974
  11 C :   -0.813678
  12 H :    0.493374
  13 C :    1.738297
  14 C :   -0.683200
  15 H :    0.157311
  16 C :   -0.693723
  17 H :    0.185725
  18 O :   -1.303476
  19 H :    0.358315
  20 H :    0.293370
  21 H :    0.340810
  22 H :    0.159227
  23 H :    0.294557
  24 N :   -0.593583
  25 C :    0.207313
  26 C :    0.962716
  27 O :   -1.125410
  28 O :   -0.476518
  29 C :   -0.392872
  30 H :    0.236941
  31 H :    0.180451
  32 C :    0.920603
  33 C :   -0.757740
  34 H :    0.159313
  35 C :   -0.806179
  36 H :    0.562319
  37 C :    1.531366
  38 C :   -0.375687
  39 H :    0.217837
  40 C :   -0.974459
  41 H :    0.182190
  42 O :   -1.246035
  43 H :    0.429924
  44 H :    0.295383
  45 H :   -0.002046
  46 H :    0.189860
Sum of atomic charges:   -1.0000000

LOEWDIN ATOMIC CHARGES
----------------------
   0 N :    0.880969
   1 C :   -0.106005
   2 C :   -0.803947
   3 O :    0.421449
   4 O :    0.835599
   5 C :    0.273173
   6 H :   -0.145543
   7 H :   -0.146495
   8 C :   -0.146076
   9 C :    0.184753
  10 H :   -0.174938
  11 C :    0.200099
  12 H :   -0.196854
  13 C :   -0.491001
  14 C :    0.207881
  15 H :   -0.199183
  16 C :    0.176837
  17 H :   -0.173800
  18 O :    0.648277
  19 H :   -0.879253
  20 H :   -0.132133
  21 H :   -0.602693
  22 H :   -0.333497
  23 H :   -0.337322
  24 N :    0.879763
  25 C :   -0.095016
  26 C :   -0.788176
  27 O :    0.443389
  28 O :    0.857390
  29 C :    0.280751
  30 H :   -0.159994
  31 H :   -0.153706
  32 C :   -0.152523
  33 C :    0.167682
  34 H :   -0.179782
  35 C :    0.199008
  36 H :   -0.198119
  37 C :   -0.461349
  38 C :    0.222016
  39 H :   -0.205172
  40 C :    0.200538
  41 H :   -0.179097
  42 O :    0.688941
  43 H :   -0.133766
  44 H :   -0.588027
  45 H :   -0.280766
  46 H :   -0.324282

  Mayer bond orders larger than 0.100000
B(  0-N ,  1-C ) :   0.5286 B(  0-N ,  2-C ) :   0.1568 B(  0-N , 21-H ) :   0.1898
B(  0-N , 22-H ) :   1.0055 B(  0-N , 23-H ) :   0.6401 B(  1-C ,  2-C ) :   0.5096
B(  1-C ,  5-C ) :   0.8808 B(  1-C , 20-H ) :   0.9725 B(  2-C ,  3-O ) :   1.1350
B(  2-C ,  4-O ) :   0.8591 B(  2-C ,  5-C ) :   0.1773 B(  4-O , 21-H ) :   0.7038
B(  5-C ,  6-H ) :   1.0673 B(  5-C ,  7-H ) :   1.0360 B(  5-C ,  8-C ) :   0.5004
B(  5-C ,  9-C ) :   0.1965 B(  5-C , 16-C ) :   0.2483 B(  8-C ,  9-C ) :   0.5192
B(  8-C , 10-H ) :  -0.1252 B(  8-C , 11-C ) :   0.2523 B(  8-C , 14-C ) :   0.4175
B(  8-C , 16-C ) :   0.8041 B(  8-C , 17-H ) :  -0.1465 B(  9-C , 10-H ) :   1.1088
B(  9-C , 11-C ) :   1.4457 B(  9-C , 13-C ) :  -0.1022 B(  9-C , 14-C ) :  -0.2467
B(  9-C , 16-C ) :  -0.3232 B( 11-C , 12-H ) :   0.6420 B( 11-C , 13-C ) :   0.7790
B( 11-C , 14-C ) :   0.2495 B( 13-C , 14-C ) :   0.5199 B( 13-C , 15-H ) :  -0.2408
B( 13-C , 17-H ) :   0.1714 B( 13-C , 18-O ) :   0.1022 B( 14-C , 15-H ) :   1.3060
B( 14-C , 16-C ) :   1.2914 B( 14-C , 17-H ) :  -0.1840 B( 14-C , 18-O ) :   0.1228
B( 14-C , 38-C ) :   0.1514 B( 14-C , 40-C ) :  -0.1210 B( 15-H , 40-C ) :  -0.1007
B( 16-C , 17-H ) :   1.2439 B( 16-C , 40-C ) :   0.1008 B( 18-O , 19-H ) :   0.4638
B( 19-H , 42-O ) :   0.5233 B( 24-N , 25-C ) :   0.6133 B( 24-N , 44-H ) :   0.1201
B( 24-N , 45-H ) :   1.0866 B( 24-N , 46-H ) :   0.8447 B( 25-C , 26-C ) :   0.9266
B( 25-C , 27-O ) :   0.1265 B( 25-C , 28-O ) :   0.1940 B( 25-C , 29-C ) :   0.8924
B( 25-C , 32-C ) :   0.1143 B( 25-C , 43-H ) :   0.8257 B( 26-C , 27-O ) :   0.9255
B( 26-C , 28-O ) :   0.6250 B( 27-O , 28-O ) :  -0.1470 B( 28-O , 44-H ) :   0.7611
B( 29-C , 30-H ) :   1.0962 B( 29-C , 31-H ) :   0.9891 B( 29-C , 32-C ) :   0.6233
B( 29-C , 33-C ) :   0.2125 B( 32-C , 33-C ) :   0.5855 B( 32-C , 34-H ) :  -0.1061
B( 32-C , 35-C ) :   0.4403 B( 32-C , 38-C ) :   0.2227 B( 32-C , 40-C ) :   0.6688
B( 33-C , 34-H ) :   1.2337 B( 33-C , 35-C ) :   1.3820 B( 33-C , 38-C ) :  -0.2817
B( 35-C , 36-H ) :   0.5343 B( 35-C , 37-C ) :   0.6036 B( 35-C , 38-C ) :   0.2575
B( 35-C , 40-C ) :  -0.1436 B( 37-C , 38-C ) :   0.6404 B( 37-C , 39-H ) :  -0.1561
B( 37-C , 42-O ) :   0.2790 B( 38-C , 39-H ) :   1.2471 B( 38-C , 40-C ) :   0.8086
B( 39-H , 40-C ) :  -0.1523 B( 40-C , 41-H ) :   1.1508

MP2 TOTAL ENERGY:    -1257.330756648 Eh
FINAL SINGLE POINT ENERGY     -1257.330756647875

DIPOLE MOMENT
-------------
                                X             Y             Z
Electronic contribution:     -4.42269       0.86436       3.51194
Nuclear contribution   :      5.76989      -3.85082      -5.10063
                        -----------------------------------------
Total Dipole Moment    :      1.34720      -2.98646      -1.58868
                        -----------------------------------------
Magnitude (a.u.)       :      3.64113
Magnitude (Debye)      :      9.25501

Rotational constants in cm-1:     0.007294     0.004945     0.003289
Rotational constants in MHz :   218.677933   148.259039    98.606067

                             ****ORCA TERMINATED NORMALLY****
TOTAL RUN TIME: 0 days 1 hours 30 minutes 14 seconds 249 msec
