                         Program Version 4.2.1 -  RELEASE  -
|  1> %pal
|  2>  nprocs 32
|  3> end
|  4> !RI-MP2 aug-cc-pVTZ aug-cc-pVTZ/C TightSCF
|  5> %maxcore 4500
|  6> *xyzfile -2 1  10_91P.xyz
|  7>
|  8>
|  9>                          ****END OF INPUT****

CARTESIAN COORDINATES (ANGSTROEM)
---------------------------------
  O      1.291646   -0.187776    1.752359
  C      1.327328   -0.294530    0.539512
  C      0.073257   -0.498705   -0.292155
  C      2.657599   -0.233928   -0.234409
  O      2.861448    0.871561   -0.784629
  O      3.355799   -1.266272   -0.235969
  C     -0.433334    2.402970   -0.345600
  C     -1.358681    1.556187    0.099416
  C     -1.209297    0.076582    0.295028
  C     -2.525406   -0.675738   -0.143414
  O     -3.594102   -0.116841    0.199139
  O     -2.385437   -1.761213   -0.742539
  H     -1.172293   -0.087148    1.380400
  H     -0.062789   -1.579795   -0.397060
  H      0.253423   -0.121486   -1.301058
  H     -0.667415    3.460146   -0.447847
  H      0.576027    2.097065   -0.606084
  H     -2.350579    1.918517    0.354495

 Total Charge           Charge          ....   -2
 Multiplicity           Mult            ....    1
 Number of Electrons    NEL             ....   90
 Basis Dimension        Dim             ....  690

ORBITAL ENERGIES
----------------

  NO   OCC          E(Eh)            E(eV)
   0   2.0000     -20.287304      -552.0456
   1   2.0000     -20.229877      -550.4829
   2   2.0000     -20.229332      -550.4681
   3   2.0000     -20.217226      -550.1387
   4   2.0000     -20.215062      -550.0798
   5   2.0000     -11.066430      -301.1329
   6   2.0000     -11.065852      -301.1172
   7   2.0000     -11.058625      -300.9205
   8   2.0000     -10.993282      -299.1424
   9   2.0000     -10.977589      -298.7154
  10   2.0000     -10.976106      -298.6750
  11   2.0000     -10.970545      -298.5237
  12   2.0000      -1.133295       -30.8385
  13   2.0000      -1.099237       -29.9117
  14   2.0000      -1.096884       -29.8477
  15   2.0000      -1.008279       -27.4367
  16   2.0000      -0.994809       -27.0701
  17   2.0000      -0.843321       -22.9479
  18   2.0000      -0.759800       -20.6752
  19   2.0000      -0.673680       -18.3318
  20   2.0000      -0.574600       -15.6357
  21   2.0000      -0.509003       -13.8507
  22   2.0000      -0.445504       -12.1228
  23   2.0000      -0.434508       -11.8236
  24   2.0000      -0.406828       -11.0703
  25   2.0000      -0.388988       -10.5849
  26   2.0000      -0.379068       -10.3150
  27   2.0000      -0.356231        -9.6935
  28   2.0000      -0.342237        -9.3127
  29   2.0000      -0.328131        -8.9289
  30   2.0000      -0.321709        -8.7542
  31   2.0000      -0.300085        -8.1657
  32   2.0000      -0.291256        -7.9255
  33   2.0000      -0.281594        -7.6626
  34   2.0000      -0.253464        -6.8971
  35   2.0000      -0.236551        -6.4369
  36   2.0000      -0.221064        -6.0155
  37   2.0000      -0.213091        -5.7985
  38   2.0000      -0.149737        -4.0746
  39   2.0000      -0.146148        -3.9769
  40   2.0000      -0.135835        -3.6963
  41   2.0000      -0.130895        -3.5618
  42   2.0000      -0.121006        -3.2928
  43   2.0000      -0.103423        -2.8143
  44   2.0000      -0.096115        -2.6154
  45   0.0000       0.178329         4.8526
  46   0.0000       0.200615         5.4590
  47   0.0000       0.217771         5.9259
  48   0.0000       0.220464         5.9991
  49   0.0000       0.226150         6.1539

MULLIKEN ATOMIC CHARGES
-----------------------
   0 O :   -1.045418
   1 C :    1.281133
   2 C :   -0.503946
   3 C :    0.449881
   4 O :   -0.827290
   5 O :   -0.887450
   6 C :   -1.189114
   7 C :   -0.360856
   8 C :    0.553303
   9 C :    0.516327
  10 O :   -0.945325
  11 O :   -0.901516
  12 H :    0.184582
  13 H :    0.391217
  14 H :    0.205261
  15 H :    0.323950
  16 H :    0.478448
  17 H :    0.276814
Sum of atomic charges:   -2.0000000

LOEWDIN ATOMIC CHARGES
----------------------
   0 O :    0.409875
   1 C :   -0.591815
   2 C :    0.217119
   3 C :   -1.205186
   4 O :    0.259664
   5 O :    0.240537
   6 C :    0.501785
   7 C :    0.157724
   8 C :   -0.099732
   9 C :   -1.151516
  10 O :    0.262122
  11 O :    0.280303
  12 H :   -0.179776
  13 H :   -0.189010
  14 H :   -0.172412
  15 H :   -0.250104
  16 H :   -0.264157
  17 H :   -0.225421

  Mayer bond orders larger than 0.100000
B(  0-O ,  1-C ) :   0.9873 B(  0-O ,  2-C ) :   0.1683 B(  1-C ,  2-C ) :   0.8960
B(  1-C ,  3-C ) :   0.4214 B(  1-C ,  4-O ) :  -0.1406 B(  1-C ,  5-O ) :  -0.1537
B(  2-C ,  3-C ) :   0.1587 B(  2-C ,  7-C ) :   0.1704 B(  2-C ,  8-C ) :   0.9910
B(  2-C , 13-H ) :   0.8568 B(  2-C , 14-H ) :   1.0016 B(  3-C ,  4-O ) :   1.4841
B(  3-C ,  5-O ) :   1.3752 B(  6-C ,  7-C ) :   1.1381 B(  6-C ,  8-C ) :  -0.1040
B(  6-C , 15-H ) :   0.9262 B(  6-C , 16-H ) :   0.7914 B(  7-C ,  8-C ) :   0.7044
B(  7-C ,  9-C ) :   0.1123 B(  7-C , 17-H ) :   1.0907 B(  8-C ,  9-C ) :   0.6408
B(  8-C , 12-H ) :   0.9888 B(  9-C , 10-O ) :   1.3110 B(  9-C , 11-O ) :   1.2687

MP2 TOTAL ENERGY:     -645.453573018 Eh
FINAL SINGLE POINT ENERGY      -645.453573017544

DIPOLE MOMENT
-------------
                                X             Y             Z
Electronic contribution:      3.02706      -4.15041       1.39899
Nuclear contribution   :     -3.30261       5.48749      -0.98527
                        -----------------------------------------
Total Dipole Moment    :     -0.27555       1.33708       0.41372
                        -----------------------------------------
Magnitude (a.u.)       :      1.42649
Magnitude (Debye)      :      3.62586

Rotational constants in cm-1:     0.055961     0.017748     0.015502
Rotational constants in MHz :  1677.668465   532.077923   464.738403

                             ****ORCA TERMINATED NORMALLY****
TOTAL RUN TIME: 0 days 0 hours 5 minutes 26 seconds 585 msec
