                         Program Version 4.2.1 -  RELEASE  -
|  1> %pal
|  2>  nprocs 32
|  3> end
|  4> !RI-MP2 aug-cc-pVTZ aug-cc-pVTZ/C TightSCF
|  5> %maxcore 4500
|  6> *xyzfile -1 1  08_1TS.xyz
|  7>
|  8>
|  9>                          ****END OF INPUT****

CARTESIAN COORDINATES (ANGSTROEM)
---------------------------------
  C     -1.226248    0.146570    0.000004
  O     -1.039082    1.359028    0.000048
  C     -2.647181   -0.413201   -0.000011
  H     -2.793194   -1.043206    0.880027
  H     -2.793179   -1.043210   -0.880048
  H     -3.373519    0.398821   -0.000016
  O     -0.325508   -0.769973   -0.000031
  C      1.428098   -0.268785   -0.000011
  H      1.726937   -1.298271   -0.000053
  H      1.384239    0.279193   -0.921389
  H      1.384239    0.279118    0.921412
  F      3.339242    0.103068    0.000004

 Total Charge           Charge          ....   -1
 Multiplicity           Mult            ....    1
 Number of Electrons    NEL             ....   50
 Basis Dimension        Dim             ....  414

ORBITAL ENERGIES
----------------

  NO   OCC          E(Eh)            E(eV)
   0   2.0000     -25.930002      -705.5912
   1   2.0000     -20.378613      -554.5302
   2   2.0000     -20.361762      -554.0717
   3   2.0000     -11.201844      -304.8177
   4   2.0000     -11.140588      -303.1508
   5   2.0000     -11.098154      -301.9961
   6   2.0000      -1.252502       -34.0823
   7   2.0000      -1.191279       -32.4164
   8   2.0000      -1.150088       -31.2955
   9   2.0000      -0.859452       -23.3869
  10   2.0000      -0.773379       -21.0447
  11   2.0000      -0.583471       -15.8771
  12   2.0000      -0.508536       -13.8380
  13   2.0000      -0.487841       -13.2748
  14   2.0000      -0.484195       -13.1756
  15   2.0000      -0.445150       -12.1132
  16   2.0000      -0.440723       -11.9927
  17   2.0000      -0.416681       -11.3385
  18   2.0000      -0.381043       -10.3687
  19   2.0000      -0.329664        -8.9706
  20   2.0000      -0.285682        -7.7738
  21   2.0000      -0.281721        -7.6660
  22   2.0000      -0.275775        -7.5042
  23   2.0000      -0.270472        -7.3599
  24   2.0000      -0.243882        -6.6364
  25   0.0000       0.112339         3.0569
  26   0.0000       0.126220         3.4346
  27   0.0000       0.126807         3.4506
  28   0.0000       0.145538         3.9603
  29   0.0000       0.155622         4.2347

MULLIKEN ATOMIC CHARGES
-----------------------
   0 C :    0.390463
   1 O :   -0.760215
   2 C :   -0.603159
   3 H :    0.259085
   4 H :    0.259088
   5 H :    0.308724
   6 O :   -0.616530
   7 C :   -0.551094
   8 H :    0.415874
   9 H :    0.389343
  10 H :    0.389341
  11 F :   -0.880919
Sum of atomic charges:   -1.0000000

LOEWDIN ATOMIC CHARGES
----------------------
   0 C :   -1.043185
   1 O :    0.347483
   2 C :    0.519151
   3 H :   -0.199072
   4 H :   -0.199073
   5 H :   -0.210818
   6 O :    0.444917
   7 C :    0.383624
   8 H :   -0.257518
   9 H :   -0.238661
  10 H :   -0.238660
  11 F :   -0.308187

  Mayer bond orders larger than 0.100000
B(  0-C ,  1-O ) :   1.4766 B(  0-C ,  2-C ) :   0.6545 B(  0-C ,  6-O ) :   1.3192
B(  2-C ,  3-H ) :   0.9659 B(  2-C ,  4-H ) :   0.9659 B(  2-C ,  5-H ) :   0.9226
B(  6-O ,  7-C ) :   0.2316 B(  7-C ,  8-H ) :   0.8513 B(  7-C ,  9-H ) :   0.8686
B(  7-C , 10-H ) :   0.8686 B(  7-C , 11-F ) :   0.1755

MP2 TOTAL ENERGY:     -367.679325634 Eh
FINAL SINGLE POINT ENERGY      -367.679325633532

DIPOLE MOMENT
-------------
                                X             Y             Z
Electronic contribution:      4.63440       1.57633       0.00004
Nuclear contribution   :     -7.69586      -2.49159      -0.00007
                        -----------------------------------------
Total Dipole Moment    :     -3.06146      -0.91526      -0.00003
                        -----------------------------------------
Magnitude (a.u.)       :      3.19534
Magnitude (Debye)      :      8.12192

Rotational constants in cm-1:     0.338471     0.042758     0.038531
Rotational constants in MHz : 10147.114671  1281.860963  1155.116051

                             ****ORCA TERMINATED NORMALLY****
TOTAL RUN TIME: 0 days 0 hours 0 minutes 55 seconds 899 msec
