                         Program Version 4.2.1 -  RELEASE  -
|  1> %pal
|  2>  nprocs 32
|  3> end
|  4> !RI-MP2 aug-cc-pVTZ aug-cc-pVTZ/C TightSCF
|  5> %maxcore 4500
|  6> *xyzfile 0 1  10_24R2.xyz
|  7>
|  8>
|  9>                          ****END OF INPUT****

CARTESIAN COORDINATES (ANGSTROEM)
---------------------------------
  C      0.811734   -0.666208   -0.000003
  C      0.811736    0.666206    0.000003
  C     -0.698454    0.782618    0.000007
  H     -1.139133    1.241103    0.888199
  H     -1.139142    1.241125   -0.888168
  C     -0.698457   -0.782616   -0.000007
  H     -1.139146   -1.241121    0.888168
  H     -1.139137   -1.241099   -0.888199
  H      1.598597   -1.410518   -0.000004
  H      1.598601    1.410513    0.000004

 Total Charge           Charge          ....    0
 Multiplicity           Mult            ....    1
 Number of Electrons    NEL             ....   30
 Basis Dimension        Dim             ....  322

ORBITAL ENERGIES
----------------

  NO   OCC          E(Eh)            E(eV)
   0   2.0000     -11.226458      -305.4875
   1   2.0000     -11.225676      -305.4662
   2   2.0000     -11.225445      -305.4599
   3   2.0000     -11.224457      -305.4330
   4   2.0000      -1.146879       -31.2082
   5   2.0000      -0.898337       -24.4450
   6   2.0000      -0.876369       -23.8472
   7   2.0000      -0.706300       -19.2194
   8   2.0000      -0.674477       -18.3534
   9   2.0000      -0.623184       -16.9577
  10   2.0000      -0.533668       -14.5218
  11   2.0000      -0.505695       -13.7607
  12   2.0000      -0.463577       -12.6146
  13   2.0000      -0.454252       -12.3608
  14   2.0000      -0.351457        -9.5636
  15   0.0000       0.031780         0.8648
  16   0.0000       0.037619         1.0237
  17   0.0000       0.040128         1.0919
  18   0.0000       0.043737         1.1901
  19   0.0000       0.054397         1.4802

MULLIKEN ATOMIC CHARGES
-----------------------
   0 C :   -0.678024
   1 C :   -0.678027
   2 C :   -0.473165
   3 H :    0.326553
   4 H :    0.326557
   5 C :   -0.473167
   6 H :    0.326558
   7 H :    0.326553
   8 H :    0.498081
   9 H :    0.498081
Sum of atomic charges:    0.0000000

LOEWDIN ATOMIC CHARGES
----------------------
   0 C :    0.243216
   1 C :    0.243216
   2 C :    0.266232
   3 H :   -0.162554
   4 H :   -0.162555
   5 C :    0.266233
   6 H :   -0.162555
   7 H :   -0.162555
   8 H :   -0.184339
   9 H :   -0.184339

  Mayer bond orders larger than 0.100000
B(  0-C ,  1-C ) :   1.3696 B(  0-C ,  5-C ) :   0.9839 B(  0-C ,  8-H ) :   0.7760
B(  1-C ,  2-C ) :   0.9839 B(  1-C ,  9-H ) :   0.7760 B(  2-C ,  3-H ) :   0.8714
B(  2-C ,  4-H ) :   0.8714 B(  2-C ,  5-C ) :   1.1628 B(  5-C ,  6-H ) :   0.8714
B(  5-C ,  7-H ) :   0.8714

MP2 TOTAL ENERGY:     -155.623289739 Eh
FINAL SINGLE POINT ENERGY      -155.623289738929

DIPOLE MOMENT
-------------
                                X             Y             Z
Electronic contribution:      1.37669      -0.00000       0.00000
Nuclear contribution   :     -1.41591       0.00000       0.00000
                        -----------------------------------------
Total Dipole Moment    :     -0.03922       0.00000       0.00000
                        -----------------------------------------
Magnitude (a.u.)       :      0.03922
Magnitude (Debye)      :      0.09969

Rotational constants in cm-1:     0.434729     0.410378     0.229374
Rotational constants in MHz : 13032.856395 12302.830993  6876.454017

                             ****ORCA TERMINATED NORMALLY****
TOTAL RUN TIME: 0 days 0 hours 0 minutes 26 seconds 666 msec
