                         Program Version 4.2.1 -  RELEASE  -
|  1> %pal
|  2>  nprocs 32
|  3> end
|  4> !RI-MP2 aug-cc-pVTZ aug-cc-pVTZ/C TightSCF
|  5> %maxcore 4500
|  6> *xyzfile 0 1  10_22TS.xyz
|  7>
|  8>
|  9>                          ****END OF INPUT****

CARTESIAN COORDINATES (ANGSTROEM)
---------------------------------
  C      0.595159    0.568215    0.150225
  C      1.641787    0.570503   -0.765573
  C     -0.276730   -1.299478    0.126053
  H      1.447938    1.125758   -1.675460
  N      0.575008   -1.866556   -0.767097
  N      1.447750   -1.513528   -1.442488
  C     -1.717886   -1.440567   -0.081168
  C     -2.605405   -1.072164    0.929674
  C     -2.222782   -1.814005   -1.329342
  C     -3.969599   -1.054752    0.687769
  H     -2.232035   -0.795476    1.906978
  C     -3.586171   -1.804886   -1.561315
  H     -1.544274   -2.119411   -2.116786
  C     -4.464465   -1.418642   -0.555689
  H     -4.648081   -0.759356    1.478293
  H     -3.966915   -2.101124   -2.531056
  H     -5.531536   -1.409335   -0.740498
  C      3.059327    0.380611   -0.466408
  C      3.631871   -0.365399    0.723122
  C      4.039540    0.878811   -1.225268
  C      5.115107   -0.538384    0.349601
  H      3.142764   -1.324427    0.906322
  H      3.501449    0.224962    1.634118
  C      5.405315    0.568277   -0.682304
  H      3.876868    1.480328   -2.112146
  H      5.254819   -1.513129   -0.122948
  H      5.841549    1.458289   -0.212072
  C      0.317183   -1.118700    1.523519
  C     -0.555539    1.491101    0.082692
  C     -1.055759    2.083483    1.239216
  C     -1.184529    1.750201   -1.136146
  C     -2.155478    2.928725    1.175139
  H     -0.577885    1.884195    2.189466
  C     -2.282478    2.590064   -1.194672
  H     -0.828869    1.270265   -2.039941
  C     -2.774026    3.184716   -0.038356
  H     -2.529310    3.387057    2.082894
  H     -2.766265    2.772546   -2.146608
  H     -3.636207    3.838365   -0.085674
  O      0.898575    0.091393    1.476367
  O      0.279768   -1.831039    2.471879
  H      6.108568    0.248718   -1.455399
  H      5.774716   -0.496844    1.217035

 Total Charge           Charge          ....    0
 Multiplicity           Mult            ....    1
 Number of Electrons    NEL             ....  174
 Basis Dimension        Dim             .... 1564

ORBITAL ENERGIES
----------------

  NO   OCC          E(Eh)            E(eV)
   0   2.0000     -20.623663      -561.1984
   1   2.0000     -20.571493      -559.7788
   2   2.0000     -15.686892      -426.8620
   3   2.0000     -15.673741      -426.5042
   4   2.0000     -11.408209      -310.4331
   5   2.0000     -11.330036      -308.3060
   6   2.0000     -11.320108      -308.0358
   7   2.0000     -11.268802      -306.6397
   8   2.0000     -11.262088      -306.4570
   9   2.0000     -11.257546      -306.3334
  10   2.0000     -11.253249      -306.2165
  11   2.0000     -11.252142      -306.1863
  12   2.0000     -11.249794      -306.1225
  13   2.0000     -11.248219      -306.0796
  14   2.0000     -11.246966      -306.0455
  15   2.0000     -11.242239      -305.9169
  16   2.0000     -11.240999      -305.8831
  17   2.0000     -11.240053      -305.8574
  18   2.0000     -11.237269      -305.7816
  19   2.0000     -11.236674      -305.7654
  20   2.0000     -11.236009      -305.7474
  21   2.0000     -11.221360      -305.3487
  22   2.0000     -11.220655      -305.3295
  23   2.0000     -11.220601      -305.3281
  24   2.0000     -11.216396      -305.2137
  25   2.0000      -1.492932       -40.6247
  26   2.0000      -1.442674       -39.2572
  27   2.0000      -1.400004       -38.0961
  28   2.0000      -1.187218       -32.3058
  29   2.0000      -1.169835       -31.8328
  30   2.0000      -1.145258       -31.1640
  31   2.0000      -1.121898       -30.5284
  32   2.0000      -1.081980       -29.4422
  33   2.0000      -1.035966       -28.1901
  34   2.0000      -1.026536       -27.9335
  35   2.0000      -1.022266       -27.8173
  36   2.0000      -1.021526       -27.7971
  37   2.0000      -0.964156       -26.2360
  38   2.0000      -0.952113       -25.9083
  39   2.0000      -0.896562       -24.3967
  40   2.0000      -0.870178       -23.6787
  41   2.0000      -0.853160       -23.2157
  42   2.0000      -0.840882       -22.8816
  43   2.0000      -0.831940       -22.6383
  44   2.0000      -0.809523       -22.0282
  45   2.0000      -0.788050       -21.4439
  46   2.0000      -0.752054       -20.4644
  47   2.0000      -0.746152       -20.3038
  48   2.0000      -0.717583       -19.5264
  49   2.0000      -0.712532       -19.3890
  50   2.0000      -0.700512       -19.0619
  51   2.0000      -0.684164       -18.6171
  52   2.0000      -0.678358       -18.4591
  53   2.0000      -0.666782       -18.1441
  54   2.0000      -0.654113       -17.7993
  55   2.0000      -0.652019       -17.7423
  56   2.0000      -0.643945       -17.5226
  57   2.0000      -0.635707       -17.2985
  58   2.0000      -0.629979       -17.1426
  59   2.0000      -0.625612       -17.0238
  60   2.0000      -0.616896       -16.7866
  61   2.0000      -0.609024       -16.5724
  62   2.0000      -0.598088       -16.2748
  63   2.0000      -0.594530       -16.1780
  64   2.0000      -0.588234       -16.0067
  65   2.0000      -0.564281       -15.3549
  66   2.0000      -0.548536       -14.9264
  67   2.0000      -0.540262       -14.7013
  68   2.0000      -0.537818       -14.6348
  69   2.0000      -0.526207       -14.3188
  70   2.0000      -0.514935       -14.0121
  71   2.0000      -0.511821       -13.9273
  72   2.0000      -0.509537       -13.8652
  73   2.0000      -0.500896       -13.6301
  74   2.0000      -0.493417       -13.4266
  75   2.0000      -0.488901       -13.3037
  76   2.0000      -0.486454       -13.2371
  77   2.0000      -0.480808       -13.0835
  78   2.0000      -0.470602       -12.8057
  79   2.0000      -0.466560       -12.6957
  80   2.0000      -0.430307       -11.7092
  81   2.0000      -0.395808       -10.7705
  82   2.0000      -0.358155        -9.7459
  83   2.0000      -0.350448        -9.5362
  84   2.0000      -0.343220        -9.3395
  85   2.0000      -0.310859        -8.4589
  86   2.0000      -0.279595        -7.6082
  87   0.0000       0.020249         0.5510
  88   0.0000       0.027150         0.7388
  89   0.0000       0.028578         0.7776
  90   0.0000       0.032652         0.8885
  91   0.0000       0.036975         1.0061

MULLIKEN ATOMIC CHARGES
-----------------------
   0 C :    1.426424
   1 C :   -1.317355
   2 C :    0.755678
   3 H :   -0.230701
   4 N :   -0.132692
   5 N :   -0.579426
   6 C :    1.706168
   7 C :   -0.416098
   8 C :   -0.859526
   9 C :   -0.920083
  10 H :    0.060202
  11 C :   -0.566220
  12 H :   -0.149641
  13 C :   -0.167072
  14 H :    0.493070
  15 H :    0.574891
  16 H :    0.484310
  17 C :    1.943902
  18 C :   -0.482458
  19 C :   -1.422837
  20 C :   -0.677570
  21 H :    0.333601
  22 H :    0.239200
  23 C :   -0.401505
  24 H :    0.355354
  25 H :    0.179468
  26 H :    0.255070
  27 C :    1.168595
  28 C :    1.602987
  29 C :   -0.962154
  30 C :   -0.420608
  31 C :   -0.621573
  32 H :    0.022355
  33 C :   -0.816881
  34 H :    0.032999
  35 C :   -0.175182
  36 H :    0.502583
  37 H :    0.411708
  38 H :    0.547086
  39 O :   -1.121303
  40 O :   -1.274299
  41 H :    0.314726
  42 H :    0.304809
Sum of atomic charges:    0.0000000

LOEWDIN ATOMIC CHARGES
----------------------
   0 C :   -0.407853
   1 C :    0.128198
   2 C :   -0.288529
   3 H :   -0.182753
   4 N :    0.056048
   5 N :    0.391008
   6 C :   -0.133092
   7 C :    0.217932
   8 C :    0.217117
   9 C :    0.220343
  10 H :   -0.175653
  11 C :    0.211347
  12 H :   -0.179885
  13 C :    0.209356
  14 H :   -0.173740
  15 H :   -0.177860
  16 H :   -0.177862
  17 C :   -0.125070
  18 C :    0.281033
  19 C :    0.265967
  20 C :    0.309439
  21 H :   -0.158540
  22 H :   -0.145812
  23 C :    0.280699
  24 H :   -0.163184
  25 H :   -0.145681
  26 H :   -0.147673
  27 C :   -0.813434
  28 C :   -0.134465
  29 C :    0.215174
  30 C :    0.211420
  31 C :    0.204454
  32 H :   -0.182832
  33 C :    0.208987
  34 H :   -0.169809
  35 C :    0.199460
  36 H :   -0.178034
  37 H :   -0.176307
  38 H :   -0.183122
  39 O :    0.609364
  40 O :    0.479683
  41 H :   -0.151811
  42 H :   -0.144027

  Mayer bond orders larger than 0.100000
B(  0-C ,  1-C ) :   1.2867 B(  0-C ,  2-C ) :  -0.1911 B(  0-C ,  4-N ) :   0.1142
B(  0-C ,  5-N ) :   0.1194 B(  0-C ,  6-C ) :   0.2276 B(  0-C ,  9-C ) :   0.1290
B(  0-C , 17-C ) :   0.4606 B(  0-C , 27-C ) :  -0.2615 B(  0-C , 29-C ) :   0.7884
B(  0-C , 30-C ) :   0.4860 B(  0-C , 33-C ) :   0.1688 B(  0-C , 39-O ) :  -1.0076
B(  0-C , 40-O ) :   0.1582 B(  1-C ,  2-C ) :   0.5057 B(  1-C ,  3-H ) :   1.8841
B(  1-C ,  4-N ) :   0.1153 B(  1-C ,  6-C ) :  -0.2550 B(  1-C , 17-C ) :   0.1273
B(  1-C , 19-C ) :   0.5404 B(  1-C , 27-C ) :   0.2075 B(  1-C , 30-C ) :  -0.1271
B(  1-C , 34-H ) :  -0.1232 B(  1-C , 39-O ) :   0.4614 B(  2-C ,  4-N ) :   1.1312
B(  2-C ,  5-N ) :  -0.1261 B(  2-C ,  6-C ) :   0.2582 B(  2-C ,  7-C ) :   0.2971
B(  2-C , 10-H ) :  -0.1241 B(  2-C , 11-C ) :   0.1597 B(  2-C , 12-H ) :  -0.2499
B(  2-C , 14-H ) :   0.1526 B(  2-C , 15-H ) :   0.1386 B(  2-C , 16-H ) :  -0.1270
B(  2-C , 27-C ) :   0.8759 B(  2-C , 28-C ) :   0.2105 B(  2-C , 29-C ) :   0.1384
B(  2-C , 39-O ) :   0.2325 B(  2-C , 40-O ) :   0.2514 B(  3-H , 17-C ) :  -0.2748
B(  3-H , 30-C ) :  -0.1431 B(  4-N ,  5-N ) :   1.1226 B(  4-N ,  6-C ) :  -0.2817
B(  4-N ,  8-C ) :  -0.1062 B(  6-C ,  7-C ) :   0.6259 B(  6-C ,  8-C ) :   0.4554
B(  6-C ,  9-C ) :  -0.1036 B(  6-C , 10-H ) :  -0.1253 B(  6-C , 11-C ) :   0.1169
B(  6-C , 12-H ) :  -0.3374 B(  6-C , 27-C ) :  -0.1077 B(  6-C , 29-C ) :  -0.1097
B(  6-C , 39-O ) :  -0.1077 B(  6-C , 40-O ) :   0.1811 B(  7-C ,  8-C ) :  -0.2977
B(  7-C ,  9-C ) :   1.1978 B(  7-C , 10-H ) :   1.4637 B(  7-C , 11-C ) :  -0.1387
B(  7-C , 12-H ) :   0.2096 B(  7-C , 27-C ) :  -0.1433 B(  7-C , 28-C ) :  -0.1018
B(  7-C , 29-C ) :   0.1333 B(  7-C , 30-C ) :   0.1820 B(  7-C , 33-C ) :  -0.1619
B(  8-C ,  9-C ) :   0.1310 B(  8-C , 10-H ) :   0.1236 B(  8-C , 11-C ) :   1.2730
B(  8-C , 12-H ) :   1.9775 B(  8-C , 13-C ) :  -0.1315 B(  8-C , 16-H ) :   0.1212
B(  9-C , 11-C ) :   0.1871 B(  9-C , 13-C ) :   1.1853 B(  9-C , 14-H ) :   0.7027
B(  9-C , 16-H ) :  -0.1347 B(  9-C , 30-C ) :  -0.1308 B(  9-C , 33-C ) :   0.1233
B( 10-H , 12-H ) :   0.1381 B( 11-C , 12-H ) :  -0.1201 B( 11-C , 13-C ) :   1.1385
B( 11-C , 15-H ) :   0.5834 B( 11-C , 16-H ) :  -0.1563 B( 13-C , 16-H ) :   0.7501
B( 17-C , 18-C ) :   0.6332 B( 17-C , 19-C ) :   0.2387 B( 17-C , 20-C ) :  -0.2657
B( 18-C , 20-C ) :   1.0571 B( 18-C , 21-H ) :   0.8455 B( 18-C , 22-H ) :   1.0083
B( 19-C , 20-C ) :   0.3198 B( 19-C , 23-C ) :   0.7315 B( 19-C , 24-H ) :   0.9784
B( 20-C , 23-C ) :   0.9813 B( 20-C , 25-H ) :   1.0662 B( 20-C , 42-H ) :   0.9048
B( 23-C , 26-H ) :   0.9845 B( 23-C , 41-H ) :   0.9404 B( 27-C , 28-C ) :   0.1289
B( 27-C , 39-O ) :   1.5440 B( 28-C , 29-C ) :  -0.2382 B( 28-C , 30-C ) :   0.4639
B( 28-C , 31-C ) :   0.2746 B( 28-C , 32-H ) :  -0.3146 B( 28-C , 39-O ) :   0.2489
B( 29-C , 30-C ) :  -0.1718 B( 29-C , 31-C ) :   1.2156 B( 29-C , 32-H ) :   1.6418
B( 29-C , 34-H ) :   0.1198 B( 30-C , 32-H ) :   0.1362 B( 30-C , 33-C ) :   1.3835
B( 30-C , 34-H ) :   1.4558 B( 31-C , 32-H ) :  -0.1647 B( 31-C , 35-C ) :   1.1862
B( 31-C , 36-H ) :   0.7453 B( 31-C , 38-H ) :  -0.1028 B( 33-C , 35-C ) :   1.1749
B( 33-C , 37-H ) :   0.8607 B( 33-C , 38-H ) :  -0.1120 B( 35-C , 38-H ) :   0.6546

MP2 TOTAL ENERGY:    -1068.846986133 Eh
FINAL SINGLE POINT ENERGY     -1068.846986133485

DIPOLE MOMENT
-------------
                                X             Y             Z
Electronic contribution:     -7.66210      -6.24875       2.73468
Nuclear contribution   :      6.64450       7.04644      -3.73306
                        -----------------------------------------
Total Dipole Moment    :     -1.01760       0.79769      -0.99838
                        -----------------------------------------
Magnitude (a.u.)       :      1.63358
Magnitude (Debye)      :      4.15223

Rotational constants in cm-1:     0.013351     0.005758     0.005054
Rotational constants in MHz :   400.255567   172.606948   151.505649

                             ****ORCA TERMINATED NORMALLY****
TOTAL RUN TIME: 0 days 1 hours 56 minutes 34 seconds 845 msec
