                         Program Version 4.2.1 -  RELEASE  -
|  1> %pal
|  2>  nprocs 32
|  3> end
|  4> !RI-MP2 aug-cc-pVTZ aug-cc-pVTZ/C TightSCF
|  5> %maxcore 4500
|  6> *xyzfile 0 1  02_6R.xyz
|  7>
|  8>
|  9>                          ****END OF INPUT****

CARTESIAN COORDINATES (ANGSTROEM)
---------------------------------
  C     -1.274407    1.085858    1.063936
  C     -2.308303    1.445423   -0.010956
  C     -2.924014    0.094422   -0.395957
  C     -1.772529   -0.882359   -0.290098
  C     -0.756886   -0.264666    0.603618
  H     -0.477413    1.821007    1.164158
  H     -1.762045    0.974424    2.038190
  H     -1.796128    1.880739   -0.872938
  H     -3.047047    2.167774    0.337927
  H     -3.695573   -0.182232    0.331371
  H     -3.387117    0.086936   -1.383175
  C      0.411792   -0.764995    0.889419
  C     -1.672554   -2.057331   -0.901322
  C      1.609746   -1.221644    1.105800
  C      2.795387   -0.926223    0.220054
  H      3.217875   -1.868176   -0.141972
  H      3.580583   -0.445115    0.810834
  C      2.460918   -0.059282   -0.996609
  H      3.331060    0.017693   -1.651682
  H      1.653328   -0.516761   -1.573293
  C      2.046625    1.295653   -0.642996
  N      1.735880    2.365629   -0.369518
  H     -0.808625   -2.695501   -0.755561
  H     -2.454412   -2.417870   -1.558634
  H      1.799703   -1.851461    1.972063

 Total Charge           Charge          ....    0
 Multiplicity           Mult            ....    1
 Number of Electrons    NEL             ....   86
 Basis Dimension        Dim             ....  851

ORBITAL ENERGIES
----------------

  NO   OCC          E(Eh)            E(eV)
   0   2.0000     -15.560719      -423.4287
   1   2.0000     -11.280500      -306.9580
   2   2.0000     -11.268027      -306.6186
   3   2.0000     -11.260433      -306.4120
   4   2.0000     -11.246531      -306.0337
   5   2.0000     -11.245131      -305.9956
   6   2.0000     -11.243501      -305.9512
   7   2.0000     -11.242259      -305.9174
   8   2.0000     -11.225904      -305.4724
   9   2.0000     -11.223983      -305.4201
  10   2.0000     -11.220616      -305.3285
  11   2.0000     -11.217460      -305.2426
  12   2.0000      -1.219680       -33.1892
  13   2.0000      -1.153523       -31.3890
  14   2.0000      -1.114395       -30.3242
  15   2.0000      -1.043180       -28.3864
  16   2.0000      -1.022822       -27.8324
  17   2.0000      -0.981782       -26.7156
  18   2.0000      -0.910440       -24.7743
  19   2.0000      -0.878382       -23.9020
  20   2.0000      -0.810534       -22.0558
  21   2.0000      -0.766218       -20.8499
  22   2.0000      -0.703566       -19.1450
  23   2.0000      -0.676126       -18.3983
  24   2.0000      -0.663266       -18.0484
  25   2.0000      -0.655337       -17.8326
  26   2.0000      -0.646258       -17.5856
  27   2.0000      -0.599413       -16.3109
  28   2.0000      -0.584999       -15.9186
  29   2.0000      -0.562429       -15.3045
  30   2.0000      -0.554396       -15.0859
  31   2.0000      -0.553274       -15.0553
  32   2.0000      -0.544551       -14.8180
  33   2.0000      -0.530689       -14.4408
  34   2.0000      -0.527619       -14.3572
  35   2.0000      -0.499557       -13.5936
  36   2.0000      -0.488984       -13.3059
  37   2.0000      -0.472207       -12.8494
  38   2.0000      -0.455848       -12.4043
  39   2.0000      -0.455432       -12.3929
  40   2.0000      -0.408069       -11.1041
  41   2.0000      -0.364891        -9.9292
  42   2.0000      -0.316468        -8.6115
  43   0.0000       0.023033         0.6268
  44   0.0000       0.031177         0.8484
  45   0.0000       0.032362         0.8806
  46   0.0000       0.035550         0.9674
  47   0.0000       0.044163         1.2017

MULLIKEN ATOMIC CHARGES
-----------------------
   0 C :   -0.850622
   1 C :   -0.581944
   2 C :   -0.556844
   3 C :    0.564226
   4 C :    0.861261
   5 H :    0.316942
   6 H :    0.216111
   7 H :    0.199647
   8 H :    0.325257
   9 H :    0.203888
  10 H :    0.250077
  11 C :    0.926654
  12 C :   -1.567482
  13 C :   -1.332493
  14 C :   -0.384855
  15 H :    0.276751
  16 H :    0.234167
  17 C :   -0.221570
  18 H :    0.319944
  19 H :    0.260949
  20 C :    0.339446
  21 N :   -0.756927
  22 H :    0.412643
  23 H :    0.242962
  24 H :    0.301812
Sum of atomic charges:   -0.0000000

LOEWDIN ATOMIC CHARGES
----------------------
   0 C :    0.288931
   1 C :    0.303103
   2 C :    0.289067
   3 C :   -0.129950
   4 C :   -0.130790
   5 H :   -0.168077
   6 H :   -0.136411
   7 H :   -0.139289
   8 H :   -0.138973
   9 H :   -0.137397
  10 H :   -0.142422
  11 C :    0.154111
  12 C :    0.553968
  13 C :    0.199262
  14 C :    0.245181
  15 H :   -0.147925
  16 H :   -0.146706
  17 C :    0.234871
  18 H :   -0.151246
  19 H :   -0.153704
  20 C :   -0.212184
  21 N :    0.290516
  22 H :   -0.218208
  23 H :   -0.214604
  24 H :   -0.191124

  Mayer bond orders larger than 0.100000
B(  0-C ,  1-C ) :   1.0903 B(  0-C ,  3-C ) :   0.1479 B(  0-C ,  4-C ) :   0.8924
B(  0-C ,  5-H ) :   0.9117 B(  0-C ,  6-H ) :   1.0302 B(  0-C , 11-C ) :  -0.2085
B(  1-C ,  2-C ) :   1.0055 B(  1-C ,  3-C ) :   0.1145 B(  1-C ,  4-C ) :  -0.1429
B(  1-C ,  7-H ) :   1.0193 B(  1-C ,  8-H ) :   0.9457 B(  2-C ,  3-C ) :   0.7887
B(  2-C ,  9-H ) :   1.0262 B(  2-C , 10-H ) :   0.9896 B(  2-C , 12-C ) :  -0.2186
B(  3-C ,  4-C ) :   0.9929 B(  3-C , 12-C ) :   0.5623 B(  3-C , 13-C ) :   0.1395
B(  3-C , 23-H ) :  -0.1209 B(  4-C , 11-C ) :   1.4143 B(  4-C , 12-C ) :   0.2124
B(  4-C , 13-C ) :  -0.1349 B(  4-C , 22-H ) :  -0.1173 B(  4-C , 23-H ) :   0.1173
B( 11-C , 12-C ) :   0.1976 B( 11-C , 13-C ) :   0.6258 B( 11-C , 22-H ) :   0.1355
B( 12-C , 22-H ) :   0.8571 B( 12-C , 23-H ) :   1.1343 B( 13-C , 14-C ) :   1.0095
B( 13-C , 17-C ) :   0.1546 B( 13-C , 24-H ) :   0.9586 B( 14-C , 15-H ) :   0.9638
B( 14-C , 16-H ) :   0.9636 B( 14-C , 17-C ) :   0.8979 B( 14-C , 20-C ) :   0.1912
B( 17-C , 18-H ) :   0.9575 B( 17-C , 19-H ) :   0.9162 B( 17-C , 20-C ) :   0.8698
B( 18-H , 20-C ) :  -0.1408 B( 20-C , 21-N ) :   2.1276

MP2 TOTAL ENERGY:     -480.655655930 Eh
FINAL SINGLE POINT ENERGY      -480.655655929570

DIPOLE MOMENT
-------------
                                X             Y             Z
Electronic contribution:      4.15220       1.85910       1.03199
Nuclear contribution   :     -3.89060      -3.05787      -1.30330
                        -----------------------------------------
Total Dipole Moment    :      0.26161      -1.19876      -0.27130
                        -----------------------------------------
Magnitude (a.u.)       :      1.25661
Magnitude (Debye)      :      3.19405

Rotational constants in cm-1:     0.046520     0.022744     0.018466
Rotational constants in MHz :  1394.629864   681.849494   553.604923

                             ****ORCA TERMINATED NORMALLY****
TOTAL RUN TIME: 0 days 0 hours 11 minutes 11 seconds 617 msec
