                         Program Version 4.2.1 -  RELEASE  -
|  1> %pal
|  2>  nprocs 32
|  3> end
|  4> !RI-MP2 aug-cc-pVTZ aug-cc-pVTZ/C TightSCF
|  5> %maxcore 4500
|  6> *xyzfile 0 2  01_36R.xyz
|  7>
|  8>
|  9>                          ****END OF INPUT****

CARTESIAN COORDINATES (ANGSTROEM)
---------------------------------
  C      0.682795   -1.161521    0.403499
  C      2.003995   -1.177099    1.073130
  C      3.166887   -0.738674    0.166497
  H      2.215787   -2.195933    1.422939
  H      1.954872   -0.534852    1.953905
  C      3.075485    0.719651   -0.296825
  H      3.227338   -1.397219   -0.707539
  H      4.098935   -0.877169    0.720920
  C      2.038251    0.964917   -1.351191
  H      4.050414    1.009983   -0.704619
  H      2.886447    1.368654    0.563127
  C      1.052790    1.847888   -1.269003
  C     -0.385468   -0.294443    0.886136
  H      0.527762   -1.809427   -0.449268
  O     -0.253539    0.344467    1.931214
  N     -1.543673   -0.220779    0.158787
  C     -2.316191   -2.192583   -1.152281
  C     -1.718348   -0.790503   -1.168463
  H     -3.280469   -2.197447   -0.639998
  H     -1.659300   -2.891469   -0.630975
  H     -2.470405   -2.558884   -2.170089
  H     -2.372738   -0.116651   -1.727332
  H     -0.765224   -0.779644   -1.696979
  C     -2.521406    2.059788    0.282392
  C     -2.629829    0.594797    0.686931
  H     -3.370826    2.627547    0.669172
  H     -2.507004    2.173136   -0.804542
  H     -1.606165    2.490242    0.688848
  H     -3.569961    0.165506    0.330670
  H     -2.613654    0.509807    1.772329
  H      2.137848    0.368966   -2.257647
  H      0.909096    2.451947   -0.379695
  H      0.347508    1.989309   -2.079380

 Total Charge           Charge          ....    0
 Multiplicity           Mult            ....    2
 Number of Electrons    NEL             ....  101
 Basis Dimension        Dim             .... 1058

ORBITAL ENERGIES
----------------
                 SPIN UP ORBITALS
  NO   OCC          E(Eh)            E(eV)
   0   1.0000     -20.507454      -558.0362
   1   1.0000     -15.569678      -423.6725
   2   1.0000     -11.330938      -308.3305
   3   1.0000     -11.266834      -306.5861
   4   1.0000     -11.250974      -306.1546
   5   1.0000     -11.247327      -306.0553
   6   1.0000     -11.228706      -305.5486
   7   1.0000     -11.226929      -305.5003
   8   1.0000     -11.224212      -305.4263
   9   1.0000     -11.223533      -305.4079
  10   1.0000     -11.219282      -305.2922
  11   1.0000     -11.218844      -305.2803
  12   1.0000     -11.208726      -305.0049
  13   1.0000      -1.372900       -37.3585
  14   1.0000      -1.239261       -33.7220
  15   1.0000      -1.105809       -30.0906
  16   1.0000      -1.059772       -28.8379
  17   1.0000      -1.036668       -28.2092
  18   1.0000      -1.009962       -27.4825
  19   1.0000      -0.981818       -26.7166
  20   1.0000      -0.908920       -24.7330
  21   1.0000      -0.870528       -23.6883
  22   1.0000      -0.850892       -23.1539
  23   1.0000      -0.796475       -21.6732
  24   1.0000      -0.755838       -20.5674
  25   1.0000      -0.717075       -19.5126
  26   1.0000      -0.702093       -19.1049
  27   1.0000      -0.664553       -18.0834
  28   1.0000      -0.641593       -17.4586
  29   1.0000      -0.630374       -17.1533
  30   1.0000      -0.617656       -16.8073
  31   1.0000      -0.608314       -16.5531
  32   1.0000      -0.599884       -16.3237
  33   1.0000      -0.598844       -16.2954
  34   1.0000      -0.578582       -15.7440
  35   1.0000      -0.561230       -15.2719
  36   1.0000      -0.544895       -14.8273
  37   1.0000      -0.541954       -14.7473
  38   1.0000      -0.534079       -14.5330
  39   1.0000      -0.521224       -14.1832
  40   1.0000      -0.512947       -13.9580
  41   1.0000      -0.502631       -13.6773
  42   1.0000      -0.500629       -13.6228
  43   1.0000      -0.497390       -13.5347
  44   1.0000      -0.483959       -13.1692
  45   1.0000      -0.472514       -12.8578
  46   1.0000      -0.471549       -12.8315
  47   1.0000      -0.422803       -11.5050
  48   1.0000      -0.394141       -10.7251
  49   1.0000      -0.367851       -10.0097
  50   1.0000      -0.336512        -9.1569
  51   0.0000       0.023820         0.6482
  52   0.0000       0.029771         0.8101
  53   0.0000       0.033001         0.8980
  54   0.0000       0.034522         0.9394
  55   0.0000       0.042311         1.1513

                 SPIN DOWN ORBITALS
  NO   OCC          E(Eh)            E(eV)
   0   1.0000     -20.499438      -557.8181
   1   1.0000     -15.568898      -423.6512
   2   1.0000     -11.335280      -308.4486
   3   1.0000     -11.266842      -306.5863
   4   1.0000     -11.251107      -306.1582
   5   1.0000     -11.232848      -305.6613
   6   1.0000     -11.225587      -305.4638
   7   1.0000     -11.225452      -305.4601
   8   1.0000     -11.223759      -305.4140
   9   1.0000     -11.223554      -305.4084
  10   1.0000     -11.222027      -305.3669
  11   1.0000     -11.214241      -305.1550
  12   1.0000     -11.208617      -305.0020
  13   1.0000      -1.359444       -36.9924
  14   1.0000      -1.233987       -33.5785
  15   1.0000      -1.097826       -29.8734
  16   1.0000      -1.043020       -28.3820
  17   1.0000      -1.035398       -28.1746
  18   1.0000      -1.003719       -27.3126
  19   1.0000      -0.962957       -26.2034
  20   1.0000      -0.896670       -24.3996
  21   1.0000      -0.870086       -23.6763
  22   1.0000      -0.843341       -22.9485
  23   1.0000      -0.787595       -21.4315
  24   1.0000      -0.756905       -20.5964
  25   1.0000      -0.709952       -19.3188
  26   1.0000      -0.695110       -18.9149
  27   1.0000      -0.660702       -17.9786
  28   1.0000      -0.636296       -17.3145
  29   1.0000      -0.622510       -16.9394
  30   1.0000      -0.612741       -16.6735
  31   1.0000      -0.605259       -16.4699
  32   1.0000      -0.596557       -16.2331
  33   1.0000      -0.594895       -16.1879
  34   1.0000      -0.572892       -15.5892
  35   1.0000      -0.558275       -15.1914
  36   1.0000      -0.543482       -14.7889
  37   1.0000      -0.535397       -14.5689
  38   1.0000      -0.525161       -14.2904
  39   1.0000      -0.512295       -13.9403
  40   1.0000      -0.503395       -13.6981
  41   1.0000      -0.498647       -13.5689
  42   1.0000      -0.495783       -13.4909
  43   1.0000      -0.489286       -13.3142
  44   1.0000      -0.480313       -13.0700
  45   1.0000      -0.471003       -12.8166
  46   1.0000      -0.469275       -12.7696
  47   1.0000      -0.412119       -11.2143
  48   1.0000      -0.360041        -9.7972
  49   1.0000      -0.346530        -9.4296
  50   0.0000       0.023845         0.6488
  51   0.0000       0.029638         0.8065
  52   0.0000       0.032703         0.8899
  53   0.0000       0.034562         0.9405
  54   0.0000       0.042342         1.1522

MULLIKEN ATOMIC CHARGES AND SPIN POPULATIONS
--------------------------------------------
   0 C :    0.179993    1.286358
   1 C :   -0.400293   -0.236659
   2 C :   -0.459031    0.063693
   3 H :    0.377191    0.073668
   4 H :    0.158941   -0.020764
   5 C :   -0.282605    0.021453
   6 H :    0.119484    0.003219
   7 H :    0.300277   -0.002011
   8 C :    0.066486   -0.242375
   9 H :    0.339546   -0.012550
  10 H :    0.095136    0.005599
  11 C :   -1.029442    0.247318
  12 C :    0.872234   -0.104358
  13 H :   -0.202579   -0.280074
  14 O :   -1.287177    0.181009
  15 N :    0.874021    0.002699
  16 C :   -0.962793   -0.000264
  17 C :   -0.567361    0.003523
  18 H :    0.237718    0.000580
  19 H :    0.308493   -0.003363
  20 H :    0.290910   -0.001102
  21 H :    0.158765    0.001818
  22 H :    0.346245    0.027542
  23 C :   -0.876971    0.003825
  24 C :   -0.767696   -0.009604
  25 H :    0.333838    0.001417
  26 H :    0.216933   -0.000158
  27 H :    0.279099   -0.001998
  28 H :    0.232092   -0.000368
  29 H :    0.237533    0.001404
  30 H :    0.042646    0.034130
  31 H :    0.151462   -0.029340
  32 H :    0.616909   -0.014267
Sum of atomic charges         :    0.0000000

LOEWDIN ATOMIC CHARGES AND SPIN POPULATIONS
-------------------------------------------
   0 C :    0.279771    0.490378
   1 C :    0.262359    0.095396
   2 C :    0.284554    0.019949
   3 H :   -0.141964    0.020748
   4 H :   -0.179226   -0.000978
   5 C :    0.257790   -0.013483
   6 H :   -0.145451    0.001235
   7 H :   -0.144874    0.002871
   8 C :    0.172558   -0.052512
   9 H :   -0.146884   -0.003952
  10 H :   -0.149096   -0.000237
  11 C :    0.515564    0.078222
  12 C :   -0.685852    0.093609
  13 H :   -0.192306    0.098247
  14 O :    0.479265    0.130237
  15 N :    0.262076    0.008585
  16 C :    0.605912    0.000709
  17 C :    0.153105    0.001361
  18 H :   -0.165866    0.000074
  19 H :   -0.171202    0.001405
  20 H :   -0.165201   -0.000066
  21 H :   -0.144320    0.000080
  22 H :   -0.172472    0.002339
  23 C :    0.592861    0.000797
  24 C :    0.160053    0.000546
  25 H :   -0.166798    0.000191
  26 H :   -0.171770    0.000103
  27 H :   -0.176176    0.000281
  28 H :   -0.146572    0.000074
  29 H :   -0.166551   -0.000583
  30 H :   -0.173033   -0.016011
  31 H :   -0.206697    0.019867
  32 H :   -0.213558    0.020516

  Mayer bond orders larger than 0.100000
B(  0-C ,  1-C ) :   0.5888 B(  0-C , 12-C ) :   0.5157 B(  0-C , 13-H ) :   1.6623
B(  0-C , 14-O ) :  -0.2255 B(  0-C , 15-N ) :  -0.1764 B(  1-C ,  2-C ) :   0.8925
B(  1-C ,  3-H ) :   0.9013 B(  1-C ,  4-H ) :   1.0365 B(  1-C ,  5-C ) :   0.1201
B(  1-C , 12-C ) :   0.1367 B(  2-C ,  5-C ) :   0.9156 B(  2-C ,  6-H ) :   1.0641
B(  2-C ,  7-H ) :   0.9435 B(  2-C ,  8-C ) :   0.1053 B(  5-C ,  8-C ) :   0.6931
B(  5-C ,  9-H ) :   0.9312 B(  5-C , 10-H ) :   1.0278 B(  5-C , 11-C ) :   0.1041
B(  8-C ,  9-H ) :  -0.1139 B(  8-C , 10-H ) :   0.1262 B(  8-C , 11-C ) :   1.1962
B(  8-C , 30-H ) :   1.2259 B( 11-C , 30-H ) :   0.1128 B( 11-C , 31-H ) :   1.3134
B( 11-C , 32-H ) :   0.4055 B( 12-C , 14-O ) :   0.8557 B( 12-C , 15-N ) :   1.1577
B( 12-C , 17-C ) :  -0.1462 B( 12-C , 24-C ) :  -0.1103 B( 14-O , 15-N ) :  -0.1944
B( 15-N , 17-C ) :   0.7700 B( 15-N , 23-C ) :  -0.1435 B( 15-N , 24-C ) :   0.8713
B( 16-C , 17-C ) :   0.8329 B( 16-C , 18-H ) :   1.0071 B( 16-C , 19-H ) :   0.9740
B( 16-C , 20-H ) :   0.9645 B( 17-C , 21-H ) :   1.1335 B( 17-C , 22-H ) :   0.9730
B( 23-C , 24-C ) :   0.9165 B( 23-C , 25-H ) :   0.8982 B( 23-C , 26-H ) :   1.0056
B( 23-C , 27-H ) :   0.9654 B( 24-C , 28-H ) :   0.9879 B( 24-C , 29-H ) :   0.9994

MP2 TOTAL ENERGY:     -559.980942584 Eh
FINAL SINGLE POINT ENERGY      -559.980942583859

DIPOLE MOMENT
-------------
                                X             Y             Z
Electronic contribution:      1.79670      -0.46126       5.10825
Nuclear contribution   :     -1.94881      -0.20756      -6.34214
                        -----------------------------------------
Total Dipole Moment    :     -0.15211      -0.66882      -1.23389
                        -----------------------------------------
Magnitude (a.u.)       :      1.41172
Magnitude (Debye)      :      3.58830

Rotational constants in cm-1:     0.034727     0.017198     0.015828
Rotational constants in MHz :  1041.079637   515.578931   474.513718

                             ****ORCA TERMINATED NORMALLY****
TOTAL RUN TIME: 0 days 1 hours 0 minutes 30 seconds 679 msec
