                         Program Version 4.2.1 -  RELEASE  -
|  1> %pal
|  2>  nprocs 32
|  3> end
|  4> !RI-MP2 aug-cc-pVTZ aug-cc-pVTZ/C TightSCF
|  5> %maxcore 4500
|  6> *xyzfile 0 1  02_25TS.xyz
|  7>
|  8>
|  9>                          ****END OF INPUT****

CARTESIAN COORDINATES (ANGSTROEM)
---------------------------------
  C     -1.209803    1.054318    0.199872
  C     -0.151751   -0.784617    0.274601
  C      1.051311   -0.578936    0.981984
  C      1.479771    1.668140    0.866325
  C      0.927812    2.066263   -0.329092
  C     -0.409994    1.800550   -0.643323
  C     -2.590062    0.563793   -0.148915
  C     -2.564514   -0.977997   -0.215523
  C     -1.426991   -1.471313    0.673489
  H      1.271980   -0.633771    2.041126
  H      2.549845    1.728412    1.020895
  H      1.584687    2.402136   -1.124025
  H     -0.753368    1.994537   -1.655408
  H     -3.298887    0.890804    0.616535
  H     -2.363662   -1.292499   -1.243779
  H     -1.641961   -1.273486    1.728183
  C      0.592720   -1.036505   -1.047241
  H      0.439895   -2.014889   -1.509299
  H      0.497889   -0.250884   -1.802053
  C      1.866463   -0.948083   -0.188818
  O      3.025382   -1.185410   -0.398043
  H      0.881823    1.647501    1.766520
  H     -1.015004    1.134232    1.262833
  H     -2.925668    0.986864   -1.098028
  H     -3.522900   -1.415680    0.070425
  H     -1.297498   -2.553682    0.570274

 Total Charge           Charge          ....    0
 Multiplicity           Mult            ....    1
 Number of Electrons    NEL             ....   88
 Basis Dimension        Dim             ....  874

ORBITAL ENERGIES
----------------

  NO   OCC          E(Eh)            E(eV)
   0   2.0000     -20.522627      -558.4491
   1   2.0000     -11.315536      -307.9114
   2   2.0000     -11.269226      -306.6512
   3   2.0000     -11.256114      -306.2944
   4   2.0000     -11.247837      -306.0692
   5   2.0000     -11.243636      -305.9549
   6   2.0000     -11.242458      -305.9228
   7   2.0000     -11.238543      -305.8163
   8   2.0000     -11.236679      -305.7656
   9   2.0000     -11.235136      -305.7236
  10   2.0000     -11.232499      -305.6518
  11   2.0000     -11.231267      -305.6183
  12   2.0000      -1.368264       -37.2324
  13   2.0000      -1.172924       -31.9169
  14   2.0000      -1.112770       -30.2800
  15   2.0000      -1.088106       -29.6089
  16   2.0000      -1.002972       -27.2923
  17   2.0000      -0.951873       -25.9018
  18   2.0000      -0.921056       -25.0632
  19   2.0000      -0.872276       -23.7358
  20   2.0000      -0.809829       -22.0366
  21   2.0000      -0.765025       -20.8174
  22   2.0000      -0.740102       -20.1392
  23   2.0000      -0.705894       -19.2083
  24   2.0000      -0.677863       -18.4456
  25   2.0000      -0.654484       -17.8094
  26   2.0000      -0.652266       -17.7491
  27   2.0000      -0.628762       -17.1095
  28   2.0000      -0.620721       -16.8907
  29   2.0000      -0.600716       -16.3463
  30   2.0000      -0.596914       -16.2429
  31   2.0000      -0.566095       -15.4042
  32   2.0000      -0.556883       -15.1535
  33   2.0000      -0.533059       -14.5053
  34   2.0000      -0.518174       -14.1002
  35   2.0000      -0.501377       -13.6432
  36   2.0000      -0.498662       -13.5693
  37   2.0000      -0.490649       -13.3512
  38   2.0000      -0.484546       -13.1852
  39   2.0000      -0.471547       -12.8314
  40   2.0000      -0.460916       -12.5422
  41   2.0000      -0.386525       -10.5179
  42   2.0000      -0.319137        -8.6842
  43   2.0000      -0.315907        -8.5963
  44   0.0000       0.021686         0.5901
  45   0.0000       0.028290         0.7698
  46   0.0000       0.032127         0.8742
  47   0.0000       0.034536         0.9398
  48   0.0000       0.044506         1.2111

MULLIKEN ATOMIC CHARGES
-----------------------
   0 C :    0.491755
   1 C :    1.389888
   2 C :   -1.272760
   3 C :   -0.419835
   4 C :   -0.524123
   5 C :   -0.838397
   6 C :   -0.809074
   7 C :   -0.578190
   8 C :   -0.676411
   9 H :    0.454620
  10 H :    0.362314
  11 H :    0.240152
  12 H :    0.231224
  13 H :    0.116720
  14 H :    0.123155
  15 H :    0.188286
  16 C :   -0.816176
  17 H :    0.332898
  18 H :    0.201459
  19 C :    0.887268
  20 O :   -1.075133
  21 H :    0.348333
  22 H :    0.554459
  23 H :    0.281902
  24 H :    0.414613
  25 H :    0.391052
Sum of atomic charges:    0.0000000

LOEWDIN ATOMIC CHARGES
----------------------
   0 C :    0.143687
   1 C :   -0.160474
   2 C :    0.220798
   3 C :    0.483405
   4 C :    0.172278
   5 C :    0.192199
   6 C :    0.310100
   7 C :    0.308073
   8 C :    0.294067
   9 H :   -0.147945
  10 H :   -0.166413
  11 H :   -0.176116
  12 H :   -0.161063
  13 H :   -0.141903
  14 H :   -0.140207
  15 H :   -0.130876
  16 C :    0.334258
  17 H :   -0.135010
  18 H :   -0.166177
  19 C :   -0.542051
  20 O :    0.421747
  21 H :   -0.213532
  22 H :   -0.183770
  23 H :   -0.147163
  24 H :   -0.137836
  25 H :   -0.130075

  Mayer bond orders larger than 0.100000
B(  0-C ,  1-C ) :   0.2710 B(  0-C ,  5-C ) :   0.9667 B(  0-C ,  6-C ) :   0.9438
B(  0-C , 12-H ) :  -0.1071 B(  0-C , 22-H ) :   0.6117 B(  1-C ,  2-C ) :   0.5583
B(  1-C ,  4-C ) :   0.1967 B(  1-C ,  7-C ) :  -0.1545 B(  1-C ,  8-C ) :   0.2490
B(  1-C , 16-C ) :   0.6133 B(  1-C , 19-C ) :  -0.5003 B(  1-C , 20-O ) :   0.2139
B(  1-C , 25-H ) :  -0.1094 B(  2-C ,  3-C ) :   0.3358 B(  2-C ,  5-C ) :   0.1364
B(  2-C ,  8-C ) :  -0.2805 B(  2-C ,  9-H ) :   0.7690 B(  2-C , 16-C ) :   0.2194
B(  2-C , 19-C ) :   1.2857 B(  2-C , 20-O ) :   0.1579 B(  2-C , 22-H ) :   0.1053
B(  2-C , 25-H ) :  -0.1195 B(  3-C ,  4-C ) :   1.1879 B(  3-C ,  5-C ) :   0.1024
B(  3-C , 10-H ) :   0.8949 B(  3-C , 21-H ) :   0.9251 B(  4-C ,  5-C ) :   1.0628
B(  4-C , 11-H ) :   1.0766 B(  4-C , 12-H ) :  -0.1366 B(  5-C , 11-H ) :  -0.1252
B(  5-C , 12-H ) :   1.1412 B(  6-C ,  7-C ) :   1.0110 B(  6-C ,  8-C ) :   0.1788
B(  6-C , 13-H ) :   1.1263 B(  6-C , 23-H ) :   0.9872 B(  7-C ,  8-C ) :   1.1576
B(  7-C , 14-H ) :   1.1116 B(  7-C , 24-H ) :   0.8119 B(  8-C , 15-H ) :   1.1497
B(  8-C , 16-C ) :  -0.1524 B(  8-C , 25-H ) :   0.9425 B( 16-C , 17-H ) :   0.8996
B( 16-C , 18-H ) :   1.0462 B( 16-C , 19-C ) :   1.2931 B( 18-H , 19-C ) :   0.1240
B( 19-C , 20-O ) :   0.4971

MP2 TOTAL ENERGY:     -501.690516220 Eh
FINAL SINGLE POINT ENERGY      -501.690516219665

DIPOLE MOMENT
-------------
                                X             Y             Z
Electronic contribution:      7.87453      -1.02429      -0.24387
Nuclear contribution   :     -9.72391       1.35584       0.64987
                        -----------------------------------------
Total Dipole Moment    :     -1.84937       0.33154       0.40600
                        -----------------------------------------
Magnitude (a.u.)       :      1.92222
Magnitude (Debye)      :      4.88591

Rotational constants in cm-1:     0.048572     0.029119     0.021822
Rotational constants in MHz :  1456.138935   872.958216   654.196894

                             ****ORCA TERMINATED NORMALLY****
TOTAL RUN TIME: 0 days 0 hours 14 minutes 55 seconds 736 msec
