                         Program Version 4.2.1 -  RELEASE  -
|  1> %pal
|  2>  nprocs 32
|  3> end
|  4> !RI-MP2 aug-cc-pVTZ aug-cc-pVTZ/C TightSCF
|  5> %maxcore 4500
|  6> *xyzfile 0 1  10_71P.xyz
|  7>
|  8>
|  9>                          ****END OF INPUT****

CARTESIAN COORDINATES (ANGSTROEM)
---------------------------------
  C     -6.228579   -0.781604   -1.287598
  C     -5.197404   -1.374552   -0.335012
  C     -3.899083   -0.592046   -0.319907
  C     -2.753904   -1.222639    0.472423
  C     -1.515448   -0.287318    0.456261
  C     -0.284986   -0.850215   -0.221949
  C      0.902284   -0.664463    0.357879
  C      2.264981   -0.895316   -0.224033
  C      2.807917    0.347926   -1.011001
  C      2.772539    1.680477   -0.286989
  C      1.690825    2.448254   -0.131961
  C      0.367507    2.022579   -0.578461
  C     -0.751226    2.077894    0.138125
  C     -1.866440    1.131201   -0.156894
  C     -3.205113    1.590625    0.375548
  C     -3.145078   -1.570780    1.907911
  C      3.247195   -1.386552    0.852579
  C      4.610570   -1.699132    0.238521
  C      5.192326   -0.510718   -0.520438
  C      4.212236    0.030332   -1.553201
  C     -0.458235   -1.397525   -1.611321
  O     -3.409989    2.646301    0.903499
  O     -4.210291    0.704638    0.230608
  O      3.353358   -0.487860    1.945781
  O      5.518778    0.557867    0.386070
  H     -6.462407    0.246727   -1.009544
  H     -7.155377   -1.357632   -1.268952
  H     -5.859055   -0.778025   -2.316765
  H     -5.601822   -1.404634    0.678733
  H     -4.965915   -2.405974   -0.619561
  H     -3.573639   -0.447976   -1.356981
  H     -2.502695   -2.152393   -0.043268
  H      3.711530    2.025169    0.128935
  H      1.772396    3.368474    0.438411
  H     -3.493852   -0.686552    2.446239
  H     -2.279898   -1.969775    2.440788
  H     -3.934176   -2.322888    1.945704
  H      2.835375   -2.303202    1.282108
  H      4.507797   -2.540075   -0.454761
  H      5.298152   -2.017270    1.027781
  H      6.106842   -0.816773   -1.040155
  H      4.122543   -0.730280   -2.335347
  H      4.642600    0.918447   -2.020828
  H     -0.850988   -0.633309   -2.291178
  H     -1.165906   -2.229693   -1.636798
  H      0.479372   -1.754488   -2.033585
  H      3.906081    0.253764    1.670735
  H      6.251276    0.279324    0.943147
  H      2.152486    0.438511   -1.882082
  H      2.214152   -1.701180   -0.964433
  H     -1.241082   -0.084718    1.493294
  H     -1.978795    1.012581   -1.239296
  H      0.347096    1.441743   -1.495894
  H     -0.794754    2.613240    1.081004
  H      0.920520   -0.207291    1.341976

 Total Charge           Charge          ....    0
 Multiplicity           Mult            ....    1
 Number of Electrons    NEL             ....  188
 Basis Dimension        Dim             .... 1840

ORBITAL ENERGIES
----------------

  NO   OCC          E(Eh)            E(eV)
   0   2.0000     -20.590289      -560.2902
   1   2.0000     -20.576437      -559.9133
   2   2.0000     -20.545298      -559.0660
   3   2.0000     -20.528857      -558.6186
   4   2.0000     -11.366429      -309.2962
   5   2.0000     -11.296530      -307.3942
   6   2.0000     -11.295635      -307.3698
   7   2.0000     -11.281042      -306.9727
   8   2.0000     -11.253447      -306.2218
   9   2.0000     -11.247501      -306.0601
  10   2.0000     -11.243200      -305.9430
  11   2.0000     -11.240933      -305.8813
  12   2.0000     -11.237805      -305.7962
  13   2.0000     -11.234229      -305.6989
  14   2.0000     -11.233288      -305.6733
  15   2.0000     -11.232815      -305.6604
  16   2.0000     -11.231835      -305.6338
  17   2.0000     -11.229515      -305.5706
  18   2.0000     -11.227111      -305.5052
  19   2.0000     -11.226207      -305.4806
  20   2.0000     -11.223081      -305.3956
  21   2.0000     -11.222369      -305.3762
  22   2.0000     -11.220041      -305.3128
  23   2.0000     -11.219136      -305.2882
  24   2.0000     -11.215391      -305.1863
  25   2.0000      -1.451046       -39.4850
  26   2.0000      -1.383804       -37.6552
  27   2.0000      -1.355132       -36.8750
  28   2.0000      -1.354348       -36.8537
  29   2.0000      -1.153970       -31.4011
  30   2.0000      -1.129321       -30.7304
  31   2.0000      -1.099593       -29.9215
  32   2.0000      -1.086434       -29.5634
  33   2.0000      -1.065272       -28.9875
  34   2.0000      -1.040291       -28.3078
  35   2.0000      -1.014668       -27.6105
  36   2.0000      -1.009039       -27.4574
  37   2.0000      -0.970202       -26.4005
  38   2.0000      -0.945307       -25.7231
  39   2.0000      -0.938965       -25.5505
  40   2.0000      -0.893720       -24.3194
  41   2.0000      -0.870429       -23.6856
  42   2.0000      -0.848491       -23.0886
  43   2.0000      -0.826515       -22.4906
  44   2.0000      -0.819886       -22.3102
  45   2.0000      -0.800011       -21.7694
  46   2.0000      -0.773871       -21.0581
  47   2.0000      -0.740598       -20.1527
  48   2.0000      -0.731575       -19.9072
  49   2.0000      -0.724131       -19.7046
  50   2.0000      -0.718923       -19.5629
  51   2.0000      -0.693417       -18.8688
  52   2.0000      -0.681941       -18.5566
  53   2.0000      -0.676363       -18.4048
  54   2.0000      -0.663866       -18.0647
  55   2.0000      -0.647747       -17.6261
  56   2.0000      -0.642470       -17.4825
  57   2.0000      -0.631029       -17.1712
  58   2.0000      -0.625501       -17.0207
  59   2.0000      -0.612790       -16.6749
  60   2.0000      -0.609374       -16.5819
  61   2.0000      -0.601131       -16.3576
  62   2.0000      -0.598030       -16.2732
  63   2.0000      -0.588388       -16.0109
  64   2.0000      -0.583542       -15.8790
  65   2.0000      -0.581658       -15.8277
  66   2.0000      -0.576524       -15.6880
  67   2.0000      -0.570322       -15.5192
  68   2.0000      -0.565740       -15.3946
  69   2.0000      -0.558710       -15.2033
  70   2.0000      -0.548255       -14.9188
  71   2.0000      -0.544933       -14.8284
  72   2.0000      -0.533851       -14.5268
  73   2.0000      -0.531474       -14.4621
  74   2.0000      -0.527444       -14.3525
  75   2.0000      -0.515195       -14.0192
  76   2.0000      -0.514922       -14.0117
  77   2.0000      -0.511737       -13.9251
  78   2.0000      -0.500106       -13.6086
  79   2.0000      -0.497384       -13.5345
  80   2.0000      -0.493845       -13.4382
  81   2.0000      -0.490404       -13.3446
  82   2.0000      -0.486376       -13.2350
  83   2.0000      -0.473574       -12.8866
  84   2.0000      -0.473357       -12.8807
  85   2.0000      -0.462700       -12.5907
  86   2.0000      -0.458880       -12.4868
  87   2.0000      -0.435345       -11.8463
  88   2.0000      -0.431991       -11.7551
  89   2.0000      -0.428744       -11.6667
  90   2.0000      -0.412737       -11.2312
  91   2.0000      -0.398152       -10.8343
  92   2.0000      -0.343380        -9.3438
  93   2.0000      -0.304005        -8.2724
  94   0.0000       0.015860         0.4316
  95   0.0000       0.021762         0.5922
  96   0.0000       0.027266         0.7419
  97   0.0000       0.029881         0.8131
  98   0.0000       0.034962         0.9514

MULLIKEN ATOMIC CHARGES
-----------------------
   0 C :   -1.097232
   1 C :   -0.851026
   2 C :    1.139115
   3 C :    0.038751
   4 C :    0.240466
   5 C :    1.473565
   6 C :   -1.350710
   7 C :    0.836836
   8 C :    0.829484
   9 C :   -0.655008
  10 C :   -0.558425
  11 C :    0.255108
  12 C :   -1.139458
  13 C :    1.451545
  14 C :    0.253779
  15 C :   -1.231493
  16 C :    0.269839
  17 C :   -1.025983
  18 C :    0.301222
  19 C :   -1.112401
  20 C :   -1.373469
  21 O :   -1.270665
  22 O :   -0.719545
  23 O :   -1.057771
  24 O :   -0.634036
  25 H :    0.311101
  26 H :    0.297746
  27 H :    0.244929
  28 H :    0.215420
  29 H :    0.268771
  30 H :    0.321488
  31 H :    0.349641
  32 H :    0.157298
  33 H :    0.619348
  34 H :    0.290328
  35 H :    0.248907
  36 H :    0.181567
  37 H :    0.446658
  38 H :    0.112798
  39 H :    0.286275
  40 H :    0.456348
  41 H :    0.130059
  42 H :    0.343700
  43 H :    0.123377
  44 H :    0.190177
  45 H :    0.324892
  46 H :    0.290528
  47 H :    0.065172
  48 H :    0.123920
  49 H :    0.269099
  50 H :    0.128821
  51 H :    0.303539
  52 H :    0.613091
  53 H :   -0.144164
  54 H :   -0.583318
Sum of atomic charges:    0.0000000

LOEWDIN ATOMIC CHARGES
----------------------
   0 C :    0.594484
   1 C :    0.274908
   2 C :   -0.223509
   3 C :    0.026750
   4 C :    0.051584
   5 C :   -0.046623
   6 C :    0.263148
   7 C :    0.031193
   8 C :    0.030887
   9 C :    0.251506
  10 C :    0.235989
  11 C :    0.189228
  12 C :    0.237652
  13 C :   -0.008958
  14 C :   -0.773938
  15 C :    0.613684
  16 C :   -0.217992
  17 C :    0.323652
  18 C :   -0.208063
  19 C :    0.319157
  20 C :    0.606525
  21 O :    0.464213
  22 O :    0.629302
  23 O :    0.871746
  24 O :    0.865460
  25 H :   -0.169497
  26 H :   -0.167949
  27 H :   -0.166537
  28 H :   -0.150218
  29 H :   -0.132229
  30 H :   -0.135504
  31 H :   -0.155104
  32 H :   -0.215232
  33 H :   -0.175343
  34 H :   -0.146937
  35 H :   -0.151512
  36 H :   -0.164613
  37 H :   -0.129750
  38 H :   -0.133421
  39 H :   -0.135305
  40 H :   -0.124479
  41 H :   -0.131551
  42 H :   -0.131114
  43 H :   -0.155713
  44 H :   -0.166927
  45 H :   -0.179126
  46 H :   -0.581929
  47 H :   -0.454749
  48 H :   -0.153811
  49 H :   -0.157200
  50 H :   -0.157980
  51 H :   -0.159134
  52 H :   -0.195371
  53 H :   -0.159180
  54 H :   -0.164568

  Mayer bond orders larger than 0.100000
B(  0-C ,  1-C ) :   0.7971 B(  0-C , 25-H ) :   0.9558 B(  0-C , 26-H ) :   0.9879
B(  0-C , 27-H ) :   1.0173 B(  1-C ,  2-C ) :   0.4783 B(  1-C , 22-O ) :   0.1466
B(  1-C , 28-H ) :   1.1016 B(  1-C , 29-H ) :   1.0281 B(  2-C ,  3-C ) :   1.0463
B(  2-C , 15-C ) :   0.1025 B(  2-C , 22-O ) :  -0.2335 B(  2-C , 30-H ) :   1.0046
B(  3-C ,  4-C ) :   0.6713 B(  3-C , 14-C ) :  -0.2719 B(  3-C , 15-C ) :   0.4650
B(  3-C , 22-O ) :   0.4434 B(  3-C , 31-H ) :   0.9366 B(  3-C , 50-H ) :  -0.1165
B(  4-C ,  5-C ) :   1.0605 B(  4-C ,  6-C ) :   0.2925 B(  4-C , 12-C ) :   0.2671
B(  4-C , 13-C ) :   0.6295 B(  4-C , 14-C ) :   1.0557 B(  4-C , 15-C ) :  -0.1620
B(  4-C , 21-O ) :   0.1830 B(  4-C , 22-O ) :  -0.4005 B(  4-C , 50-H ) :   1.0934
B(  4-C , 52-H ) :  -0.1049 B(  4-C , 53-H ) :   0.1540 B(  4-C , 54-H ) :  -0.5111
B(  5-C ,  6-C ) :   1.0517 B(  5-C ,  7-C ) :   0.3471 B(  5-C ,  8-C ) :  -0.1141
B(  5-C , 13-C ) :  -0.2742 B(  5-C , 16-C ) :   0.1236 B(  5-C , 20-C ) :   0.7646
B(  5-C , 31-H ) :  -0.1034 B(  5-C , 43-H ) :  -0.2480 B(  5-C , 44-H ) :  -0.2110
B(  5-C , 48-H ) :  -0.1040 B(  5-C , 50-H ) :  -0.1151 B(  5-C , 53-H ) :   0.1119
B(  5-C , 54-H ) :  -0.6800 B(  6-C ,  7-C ) :   0.2597 B(  6-C ,  8-C ) :   0.1771
B(  6-C , 11-C ) :  -0.1953 B(  6-C , 12-C ) :   0.3118 B(  6-C , 13-C ) :   0.2671
B(  6-C , 16-C ) :  -0.1767 B(  6-C , 20-C ) :  -0.6302 B(  6-C , 23-O ) :   0.1276
B(  6-C , 37-H ) :  -0.1300 B(  6-C , 45-H ) :   0.1570 B(  6-C , 48-H ) :   0.3811
B(  6-C , 50-H ) :  -0.1575 B(  6-C , 51-H ) :   0.1297 B(  6-C , 52-H ) :  -0.1904
B(  6-C , 54-H ) :   3.0001 B(  7-C ,  8-C ) :   0.8542 B(  7-C ,  9-C ) :   0.2031
B(  7-C , 16-C ) :   0.7415 B(  7-C , 17-C ) :  -0.1699 B(  7-C , 19-C ) :   0.1318
B(  7-C , 20-C ) :  -0.1643 B(  7-C , 23-O ) :   0.3288 B(  7-C , 45-H ) :  -0.1140
B(  7-C , 49-H ) :   0.8880 B(  7-C , 54-H ) :  -0.1940 B(  8-C ,  9-C ) :   0.9993
B(  8-C , 16-C ) :   0.3071 B(  8-C , 17-C ) :  -0.1317 B(  8-C , 19-C ) :   0.5899
B(  8-C , 41-H ) :  -0.1037 B(  8-C , 48-H ) :   0.8077 B(  8-C , 49-H ) :  -0.1156
B(  8-C , 54-H ) :   0.1188 B(  9-C , 10-C ) :   2.0556 B(  9-C , 12-C ) :   0.1137
B(  9-C , 13-C ) :  -0.1392 B(  9-C , 32-H ) :   1.3080 B(  9-C , 42-H ) :  -0.1314
B(  9-C , 53-H ) :   0.2138 B( 10-C , 11-C ) :   0.5181 B( 10-C , 12-C ) :  -0.1499
B( 10-C , 13-C ) :   0.1736 B( 10-C , 33-H ) :   0.3658 B( 10-C , 52-H ) :  -0.2013
B( 10-C , 53-H ) :  -0.3004 B( 11-C , 12-C ) :   1.1879 B( 11-C , 13-C ) :   0.1677
B( 11-C , 51-H ) :  -0.1013 B( 11-C , 52-H ) :   0.6372 B( 12-C , 13-C ) :  -0.6421
B( 12-C , 14-C ) :  -0.3730 B( 12-C , 21-O ) :  -0.1021 B( 12-C , 50-H ) :  -0.1212
B( 12-C , 51-H ) :  -0.1656 B( 12-C , 52-H ) :  -0.1559 B( 12-C , 53-H ) :   1.7706
B( 12-C , 54-H ) :   0.1881 B( 13-C , 14-C ) :  -0.9496 B( 13-C , 22-O ) :   0.3000
B( 13-C , 31-H ) :   0.1125 B( 13-C , 51-H ) :   1.2643 B( 13-C , 53-H ) :  -0.4067
B( 13-C , 54-H ) :  -0.2174 B( 14-C , 21-O ) :   0.5910 B( 14-C , 22-O ) :   1.0165
B( 14-C , 51-H ) :  -0.3646 B( 15-C , 34-H ) :   1.0235 B( 15-C , 35-H ) :   1.0789
B( 15-C , 36-H ) :   1.1625 B( 16-C , 17-C ) :   1.0619 B( 16-C , 18-C ) :   0.1412
B( 16-C , 37-H ) :   0.9218 B( 16-C , 49-H ) :  -0.1683 B( 17-C , 18-C ) :   0.9099
B( 17-C , 19-C ) :   0.2395 B( 17-C , 23-O ) :   0.2899 B( 17-C , 24-O ) :   0.1435
B( 17-C , 37-H ) :  -0.1226 B( 17-C , 38-H ) :   1.2518 B( 17-C , 39-H ) :   0.8997
B( 18-C , 19-C ) :   0.9571 B( 18-C , 24-O ) :   0.5483 B( 18-C , 40-H ) :   0.8517
B( 19-C , 24-O ) :   0.1417 B( 19-C , 41-H ) :   1.2405 B( 19-C , 42-H ) :   0.9506
B( 19-C , 48-H ) :  -0.2142 B( 19-C , 52-H ) :  -0.1037 B( 20-C , 31-H ) :  -0.1393
B( 20-C , 43-H ) :   1.3919 B( 20-C , 44-H ) :   1.2204 B( 20-C , 45-H ) :   0.9602
B( 20-C , 54-H ) :   0.1396 B( 21-O , 22-O ) :  -0.1730 B( 21-O , 53-H ) :   0.1320
B( 23-O , 37-H ) :  -0.2121 B( 23-O , 46-H ) :   0.8784 B( 23-O , 54-H ) :  -0.1816
B( 24-O , 32-H ) :  -0.2209 B( 24-O , 47-H ) :   1.0923 B( 31-H , 54-H ) :  -0.1522
B( 43-H , 44-H ) :   0.1170 B( 48-H , 54-H ) :   0.1105 B( 50-H , 54-H ) :  -0.1627
B( 51-H , 54-H ) :  -0.1265

MP2 TOTAL ENERGY:    -1117.018561864 Eh
FINAL SINGLE POINT ENERGY     -1117.018561863538

DIPOLE MOMENT
-------------
                                X             Y             Z
Electronic contribution:      4.29453      13.84759       5.82335
Nuclear contribution   :     -2.62149     -16.19545      -7.17018
                        -----------------------------------------
Total Dipole Moment    :      1.67304      -2.34785      -1.34683
                        -----------------------------------------
Magnitude (a.u.)       :      3.18205
Magnitude (Debye)      :      8.08812

Rotational constants in cm-1:     0.017444     0.003737     0.003475
Rotational constants in MHz :   522.958748   112.030982   104.182500

                             ****ORCA TERMINATED NORMALLY****
TOTAL RUN TIME: 0 days 2 hours 42 minutes 36 seconds 950 msec
