                         Program Version 4.2.1 -  RELEASE  -
|  1> %pal
|  2>  nprocs 32
|  3> end
|  4> !RI-MP2 aug-cc-pVTZ aug-cc-pVTZ/C TightSCF
|  5> %maxcore 4500
|  6> *xyzfile 0 2  04_70R2.xyz
|  7>
|  8>
|  9>                          ****END OF INPUT****

CARTESIAN COORDINATES (ANGSTROEM)
---------------------------------
  O      0.000023    0.260290    1.425043
  C     -0.000002   -0.025129    0.076580
  C      0.000092    1.379768   -0.575035
  C     -1.268738   -0.787820   -0.312830
  C      1.268629   -0.787991   -0.312836
  H     -2.154029   -0.219862   -0.024463
  H     -1.298044   -1.752687    0.196900
  H     -1.298557   -0.969262   -1.389519
  H      2.153997   -0.220152   -0.024472
  H      1.298418   -0.969435   -1.389525
  H      1.297807   -1.752862    0.196893
  H     -0.888138    1.938447   -0.281175
  H      0.000078    1.252195   -1.659077
  H      0.888401    1.938324   -0.281181

 Total Charge           Charge          ....    0
 Multiplicity           Mult            ....    2
 Number of Electrons    NEL             ....   41
 Basis Dimension        Dim             ....  437

ORBITAL ENERGIES
----------------
                 SPIN UP ORBITALS
  NO   OCC          E(Eh)            E(eV)
   0   1.0000     -20.608315      -560.7808
   1   1.0000     -11.288094      -307.1647
   2   1.0000     -11.227743      -305.5224
   3   1.0000     -11.218504      -305.2710
   4   1.0000     -11.218489      -305.2706
   5   1.0000      -1.404737       -38.2248
   6   1.0000      -1.063776       -28.9468
   7   1.0000      -0.950976       -25.8774
   8   1.0000      -0.946103       -25.7448
   9   1.0000      -0.762528       -20.7494
  10   1.0000      -0.684505       -18.6263
  11   1.0000      -0.641679       -17.4610
  12   1.0000      -0.641503       -17.4562
  13   1.0000      -0.585324       -15.9275
  14   1.0000      -0.568062       -15.4578
  15   1.0000      -0.538376       -14.6499
  16   1.0000      -0.537416       -14.6238
  17   1.0000      -0.524680       -14.2773
  18   1.0000      -0.521667       -14.1953
  19   1.0000      -0.459896       -12.5144
  20   1.0000      -0.447623       -12.1805
  21   0.0000       0.029400         0.8000
  22   0.0000       0.038074         1.0361
  23   0.0000       0.038126         1.0375
  24   0.0000       0.045075         1.2266
  25   0.0000       0.059283         1.6132

                 SPIN DOWN ORBITALS
  NO   OCC          E(Eh)            E(eV)
   0   1.0000     -20.568789      -559.7052
   1   1.0000     -11.290705      -307.2357
   2   1.0000     -11.224911      -305.4454
   3   1.0000     -11.217913      -305.2549
   4   1.0000     -11.217897      -305.2545
   5   1.0000      -1.281881       -34.8817
   6   1.0000      -1.036357       -28.2007
   7   1.0000      -0.944786       -25.7089
   8   1.0000      -0.941327       -25.6148
   9   1.0000      -0.743793       -20.2396
  10   1.0000      -0.631730       -17.1902
  11   1.0000      -0.629022       -17.1166
  12   1.0000      -0.607087       -16.5197
  13   1.0000      -0.561296       -15.2736
  14   1.0000      -0.551800       -15.0152
  15   1.0000      -0.524121       -14.2621
  16   1.0000      -0.520065       -14.1517
  17   1.0000      -0.511852       -13.9282
  18   1.0000      -0.479758       -13.0549
  19   1.0000      -0.425243       -11.5715
  20   0.0000       0.029474         0.8020
  21   0.0000       0.036815         1.0018
  22   0.0000       0.038119         1.0373
  23   0.0000       0.045170         1.2291
  24   0.0000       0.059308         1.6139

MULLIKEN ATOMIC CHARGES AND SPIN POPULATIONS
--------------------------------------------
   0 O :   -0.819489    1.056773
   1 C :    1.528481   -0.232589
   2 C :   -1.075983    0.113688
   3 C :   -1.103050    0.027342
   4 C :   -1.103043    0.027344
   5 H :    0.273496   -0.001129
   6 H :    0.275848   -0.001746
   7 H :    0.295602   -0.002217
   8 H :    0.273497   -0.001130
   9 H :    0.295603   -0.002217
  10 H :    0.275846   -0.001745
  11 H :    0.291450    0.003749
  12 H :    0.300291    0.010126
  13 H :    0.291449    0.003749
Sum of atomic charges         :    0.0000000

LOEWDIN ATOMIC CHARGES AND SPIN POPULATIONS
-------------------------------------------
   0 O :    0.544836    0.837402
   1 C :   -0.752982    0.096947
   2 C :    0.567714    0.041415
   3 C :    0.567256    0.003668
   4 C :    0.567255    0.003668
   5 H :   -0.168967   -0.000720
   6 H :   -0.166833    0.000785
   7 H :   -0.163118    0.000431
   8 H :   -0.168967   -0.000720
   9 H :   -0.163118    0.000432
  10 H :   -0.166833    0.000785
  11 H :   -0.167098    0.002524
  12 H :   -0.162048    0.010860
  13 H :   -0.167098    0.002524

  Mayer bond orders larger than 0.100000
B(  0-O ,  2-C ) :   0.1450 B(  0-O ,  3-C ) :   0.1277 B(  0-O ,  4-C ) :   0.1277
B(  1-C ,  2-C ) :   0.6927 B(  1-C ,  3-C ) :   0.7290 B(  1-C ,  4-C ) :   0.7290
B(  2-C , 11-H ) :   0.9590 B(  2-C , 12-H ) :   0.9246 B(  2-C , 13-H ) :   0.9590
B(  3-C ,  5-H ) :   0.9739 B(  3-C ,  6-H ) :   0.9747 B(  3-C ,  7-H ) :   0.9406
B(  4-C ,  8-H ) :   0.9739 B(  4-C ,  9-H ) :   0.9406 B(  4-C , 10-H ) :   0.9747

MP2 TOTAL ENERGY:     -232.533622941 Eh
FINAL SINGLE POINT ENERGY      -232.533622941427

DIPOLE MOMENT
-------------
                                X             Y             Z
Electronic contribution:      0.00006       0.68522       4.13061
Nuclear contribution   :     -0.00007      -0.79111      -4.87940
                        -----------------------------------------
Total Dipole Moment    :     -0.00001      -0.10590      -0.74879
                        -----------------------------------------
Magnitude (a.u.)       :      0.75624
Magnitude (Debye)      :      1.92221

Rotational constants in cm-1:     0.165755     0.165608     0.149555
Rotational constants in MHz :  4969.210637  4964.791671  4483.551632

                             ****ORCA TERMINATED NORMALLY****
TOTAL RUN TIME: 0 days 0 hours 1 minutes 51 seconds 308 msec
