                         Program Version 4.2.1 -  RELEASE  -
|  1> %pal
|  2>  nprocs 32
|  3> end
|  4> !RI-MP2 aug-cc-pVTZ aug-cc-pVTZ/C TightSCF
|  5> %maxcore 4500
|  6> *xyzfile 0 1  10_49TS.xyz
|  7>
|  8>
|  9>                          ****END OF INPUT****

CARTESIAN COORDINATES (ANGSTROEM)
---------------------------------
  C      1.012204   -0.139601    0.354518
  C      0.680831    1.215497    0.076327
  C     -0.680831    1.215497   -0.076327
  C     -1.012204   -0.139601   -0.354518
  H      0.575936   -0.563380    1.249518
  H     -0.575936   -0.563381   -1.249518
  H     -1.389153    2.023706    0.082412
  H      1.389153    2.023706   -0.082412
  C     -2.265165   -0.818554    0.120581
  H     -3.094202   -0.628901   -0.571915
  H     -2.131543   -1.901608    0.163532
  H     -2.568048   -0.473869    1.110669
  C      2.265165   -0.818554   -0.120581
  H      3.094202   -0.628901    0.571915
  H      2.131543   -1.901608   -0.163531
  H      2.568048   -0.473869   -1.110669

 Total Charge           Charge          ....    0
 Multiplicity           Mult            ....    1
 Number of Electrons    NEL             ....   46
 Basis Dimension        Dim             ....  506

ORBITAL ENERGIES
----------------

  NO   OCC          E(Eh)            E(eV)
   0   2.0000     -11.243260      -305.9447
   1   2.0000     -11.243189      -305.9427
   2   2.0000     -11.217630      -305.2472
   3   2.0000     -11.217629      -305.2472
   4   2.0000     -11.216232      -305.2092
   5   2.0000     -11.214860      -305.1719
   6   2.0000      -1.124296       -30.5937
   7   2.0000      -1.018128       -27.7047
   8   2.0000      -0.973761       -26.4974
   9   2.0000      -0.853196       -23.2167
  10   2.0000      -0.803289       -21.8586
  11   2.0000      -0.713679       -19.4202
  12   2.0000      -0.636644       -17.3240
  13   2.0000      -0.614135       -16.7115
  14   2.0000      -0.591359       -16.0917
  15   2.0000      -0.565177       -15.3792
  16   2.0000      -0.561177       -15.2704
  17   2.0000      -0.539264       -14.6741
  18   2.0000      -0.507997       -13.8233
  19   2.0000      -0.501353       -13.6425
  20   2.0000      -0.490208       -13.3392
  21   2.0000      -0.335016        -9.1162
  22   2.0000      -0.300604        -8.1798
  23   0.0000       0.030281         0.8240
  24   0.0000       0.035901         0.9769
  25   0.0000       0.035916         0.9773
  26   0.0000       0.039899         1.0857
  27   0.0000       0.050833         1.3832

MULLIKEN ATOMIC CHARGES
-----------------------
   0 C :    0.092090
   1 C :   -0.982298
   2 C :   -0.982299
   3 C :    0.092091
   4 H :    0.416320
   5 H :    0.416320
   6 H :    0.462245
   7 H :    0.462245
   8 C :   -0.807830
   9 H :    0.261166
  10 H :    0.276632
  11 H :    0.281675
  12 C :   -0.807830
  13 H :    0.261166
  14 H :    0.276632
  15 H :    0.281675
Sum of atomic charges:   -0.0000000

LOEWDIN ATOMIC CHARGES
----------------------
   0 C :    0.146674
   1 C :    0.171648
   2 C :    0.171648
   3 C :    0.146674
   4 H :   -0.188459
   5 H :   -0.188458
   6 H :   -0.177191
   7 H :   -0.177191
   8 C :    0.574510
   9 H :   -0.171706
  10 H :   -0.178241
  11 H :   -0.177235
  12 C :    0.574510
  13 H :   -0.171706
  14 H :   -0.178241
  15 H :   -0.177235

  Mayer bond orders larger than 0.100000
B(  0-C ,  1-C ) :   1.0153 B(  0-C ,  2-C ) :  -0.1820 B(  0-C ,  3-C ) :   0.6838
B(  0-C ,  4-H ) :   0.8170 B(  0-C , 12-C ) :   0.6993 B(  1-C ,  2-C ) :   1.4254
B(  1-C ,  3-C ) :  -0.1820 B(  1-C ,  7-H ) :   0.8349 B(  2-C ,  3-C ) :   1.0153
B(  2-C ,  6-H ) :   0.8349 B(  3-C ,  5-H ) :   0.8170 B(  3-C ,  8-C ) :   0.6993
B(  8-C ,  9-H ) :   0.9848 B(  8-C , 10-H ) :   0.9689 B(  8-C , 11-H ) :   0.9482
B( 12-C , 13-H ) :   0.9848 B( 12-C , 14-H ) :   0.9689 B( 12-C , 15-H ) :   0.9482

MP2 TOTAL ENERGY:     -234.031703452 Eh
FINAL SINGLE POINT ENERGY      -234.031703452428

DIPOLE MOMENT
-------------
                                X             Y             Z
Electronic contribution:      0.00000       2.96556      -0.00000
Nuclear contribution   :      0.00000      -3.24770       0.00000
                        -----------------------------------------
Total Dipole Moment    :      0.00000      -0.28214       0.00000
                        -----------------------------------------
Magnitude (a.u.)       :      0.28214
Magnitude (Debye)      :      0.71715

Rotational constants in cm-1:     0.212762     0.078339     0.061366
Rotational constants in MHz :  6378.456662  2348.545560  1839.694489

                             ****ORCA TERMINATED NORMALLY****
TOTAL RUN TIME: 0 days 0 hours 1 minutes 42 seconds 378 msec
