                         Program Version 4.2.1 -  RELEASE  -
|  1> %pal
|  2>  nprocs 32
|  3> end
|  4> !RI-MP2 aug-cc-pVTZ aug-cc-pVTZ/C TightSCF
|  5> %maxcore 4500
|  6> *xyzfile 0 1  10_89R.xyz
|  7>
|  8>
|  9>                          ****END OF INPUT****

CARTESIAN COORDINATES (ANGSTROEM)
---------------------------------
  O     -1.289030   -0.132246    0.974262
  C     -2.161885   -1.035789    0.440528
  C     -2.146055   -2.321931    0.758523
  C      2.156024   -0.067629   -0.119454
  C      0.935203   -0.558417    0.104564
  C     -0.254694    0.349850    0.100425
  C      2.353669    1.376364   -0.323306
  C      1.376007    2.227137   -0.025645
  C      0.083019    1.752500    0.570796
  H      3.307345    1.719574   -0.698839
  H      1.488610    3.297955   -0.141065
  H      0.203602    1.703983    1.665913
  O     -0.940189    2.665551    0.239154
  H     -1.788224    2.254733    0.445059
  C     -3.238775   -0.499620   -0.448548
  O     -3.249890    0.848958   -0.478794
  O     -4.021582   -1.169156   -1.062513
  C      3.292282   -1.022747   -0.172066
  O      3.210834   -2.210771   -0.002192
  O      4.464131   -0.413706   -0.438233
  H     -3.960429    1.119000   -1.077828
  H      5.145025   -1.100512   -0.455301
  H     -1.394655   -2.712958    1.430869
  H     -2.902411   -2.982233    0.358802
  H     -0.647680    0.416998   -0.924327
  H      0.785857   -1.623889    0.228335

 Total Charge           Charge          ....    0
 Multiplicity           Mult            ....    1
 Number of Electrons    NEL             ....  118
 Basis Dimension        Dim             ....  966

ORBITAL ENERGIES
----------------

  NO   OCC          E(Eh)            E(eV)
   0   2.0000     -20.635640      -561.5243
   1   2.0000     -20.622053      -561.1546
   2   2.0000     -20.603867      -560.6597
   3   2.0000     -20.566928      -559.6546
   4   2.0000     -20.563431      -559.5594
   5   2.0000     -20.552815      -559.2705
   6   2.0000     -11.408812      -310.4496
   7   2.0000     -11.396632      -310.1181
   8   2.0000     -11.323797      -308.1362
   9   2.0000     -11.317802      -307.9731
  10   2.0000     -11.300322      -307.4974
  11   2.0000     -11.270675      -306.6907
  12   2.0000     -11.265331      -306.5452
  13   2.0000     -11.263896      -306.5062
  14   2.0000     -11.247960      -306.0725
  15   2.0000     -11.245664      -306.0101
  16   2.0000      -1.492746       -40.6197
  17   2.0000      -1.477361       -40.2010
  18   2.0000      -1.433185       -38.9989
  19   2.0000      -1.385724       -37.7075
  20   2.0000      -1.373238       -37.3677
  21   2.0000      -1.370825       -37.3021
  22   2.0000      -1.165645       -31.7188
  23   2.0000      -1.090592       -29.6765
  24   2.0000      -1.046574       -28.4787
  25   2.0000      -1.019243       -27.7350
  26   2.0000      -0.929899       -25.3038
  27   2.0000      -0.907897       -24.7051
  28   2.0000      -0.873544       -23.7703
  29   2.0000      -0.813021       -22.1234
  30   2.0000      -0.791719       -21.5438
  31   2.0000      -0.754369       -20.5274
  32   2.0000      -0.743578       -20.2338
  33   2.0000      -0.737116       -20.0579
  34   2.0000      -0.721831       -19.6420
  35   2.0000      -0.699177       -19.0256
  36   2.0000      -0.696677       -18.9575
  37   2.0000      -0.671951       -18.2847
  38   2.0000      -0.664887       -18.0925
  39   2.0000      -0.648107       -17.6359
  40   2.0000      -0.644347       -17.5336
  41   2.0000      -0.638557       -17.3760
  42   2.0000      -0.630701       -17.1622
  43   2.0000      -0.617738       -16.8095
  44   2.0000      -0.605531       -16.4773
  45   2.0000      -0.588367       -16.0103
  46   2.0000      -0.571546       -15.5526
  47   2.0000      -0.564545       -15.3621
  48   2.0000      -0.555522       -15.1165
  49   2.0000      -0.520513       -14.1639
  50   2.0000      -0.511761       -13.9257
  51   2.0000      -0.500521       -13.6199
  52   2.0000      -0.485763       -13.2183
  53   2.0000      -0.470108       -12.7923
  54   2.0000      -0.464268       -12.6334
  55   2.0000      -0.458705       -12.4820
  56   2.0000      -0.446563       -12.1516
  57   2.0000      -0.396777       -10.7969
  58   2.0000      -0.334801        -9.1104
  59   0.0000       0.026424         0.7190
  60   0.0000       0.029832         0.8118
  61   0.0000       0.032919         0.8958
  62   0.0000       0.037609         1.0234
  63   0.0000       0.041746         1.1360

MULLIKEN ATOMIC CHARGES
-----------------------
   0 O :   -0.739825
   1 C :    0.993502
   2 C :   -1.273873
   3 C :    1.486012
   4 C :   -1.325906
   5 C :    0.934260
   6 C :   -0.662743
   7 C :   -0.814549
   8 C :    0.827681
   9 H :    0.322525
  10 H :    0.410992
  11 H :    0.331161
  12 O :   -0.874792
  13 H :    0.266245
  14 C :    0.570634
  15 O :   -0.313517
  16 O :   -0.894330
  17 C :    0.340062
  18 O :   -0.914902
  19 O :   -0.498219
  20 H :    0.169564
  21 H :    0.259541
  22 H :    0.469667
  23 H :    0.363110
  24 H :    0.385712
  25 H :    0.181987
Sum of atomic charges:   -0.0000000

LOEWDIN ATOMIC CHARGES
----------------------
   0 O :    0.587710
   1 C :   -0.424711
   2 C :    0.560995
   3 C :   -0.119065
   4 C :    0.275199
   5 C :   -0.245250
   6 C :    0.215558
   7 C :    0.255563
   8 C :   -0.279035
   9 H :   -0.198962
  10 H :   -0.168865
  11 H :   -0.123961
  12 O :    0.850790
  13 H :   -0.558444
  14 C :   -0.813889
  15 O :    0.854300
  16 O :    0.463795
  17 C :   -0.812296
  18 O :    0.459460
  19 O :    0.840004
  20 H :   -0.444862
  21 H :   -0.463075
  22 H :   -0.194847
  23 H :   -0.213067
  24 H :   -0.131102
  25 H :   -0.171943

  Mayer bond orders larger than 0.100000
B(  0-O ,  1-C ) :   0.8811 B(  0-O ,  5-C ) :   0.6392 B(  1-C ,  2-C ) :   1.2126
B(  1-C ,  5-C ) :   0.1203 B(  1-C , 14-C ) :   0.7970 B(  2-C , 22-H ) :   0.7592
B(  2-C , 23-H ) :   0.9842 B(  3-C ,  4-C ) :   0.9012 B(  3-C ,  6-C ) :   0.5894
B(  3-C , 17-C ) :  -0.3225 B(  3-C , 25-H ) :  -0.1736 B(  4-C ,  5-C ) :   0.3411
B(  4-C ,  7-C ) :   0.1294 B(  4-C ,  8-C ) :   0.2040 B(  4-C , 17-C ) :   0.4764
B(  4-C , 24-H ) :  -0.1421 B(  4-C , 25-H ) :   1.1704 B(  5-C ,  8-C ) :   0.7463
B(  5-C , 24-H ) :   0.8651 B(  6-C ,  7-C ) :   1.5027 B(  6-C ,  9-H ) :   0.9488
B(  7-C ,  8-C ) :   0.5216 B(  7-C , 10-H ) :   0.8444 B(  8-C , 11-H ) :   0.9673
B(  8-C , 12-O ) :   0.4372 B( 12-O , 13-H ) :   0.9478 B( 14-C , 15-O ) :   1.0552
B( 14-C , 16-O ) :   1.2945 B( 15-O , 20-H ) :   1.0310 B( 17-C , 18-O ) :   1.0525
B( 17-C , 19-O ) :   0.9756 B( 19-O , 21-H ) :   0.9392

MP2 TOTAL ENERGY:     -836.999402681 Eh
FINAL SINGLE POINT ENERGY      -836.999402680529

DIPOLE MOMENT
-------------
                                X             Y             Z
Electronic contribution:      0.02109      -1.77887      -0.74826
Nuclear contribution   :      0.20405       2.04400       0.80294
                        -----------------------------------------
Total Dipole Moment    :      0.22514       0.26514       0.05469
                        -----------------------------------------
Magnitude (a.u.)       :      0.35210
Magnitude (Debye)      :      0.89497

Rotational constants in cm-1:     0.030314     0.010449     0.008277
Rotational constants in MHz :   908.777609   313.241605   248.152309

                             ****ORCA TERMINATED NORMALLY****
TOTAL RUN TIME: 0 days 0 hours 16 minutes 0 seconds 482 msec
