                         Program Version 4.2.1 -  RELEASE  -
|  1> %pal
|  2>  nprocs 32
|  3> end
|  4> !RI-MP2 aug-cc-pVTZ aug-cc-pVTZ/C TightSCF
|  5> %maxcore 4500
|  6> *xyzfile 0 1  06_29TS.xyz
|  7>
|  8>
|  9>                          ****END OF INPUT****

CARTESIAN COORDINATES (ANGSTROEM)
---------------------------------
  C      1.673718    1.826226    0.076522
  C      0.938761    0.854742    1.033278
  C     -1.379889    1.449921   -0.924901
  H      2.730940    1.549870    0.051134
  C     -0.038307    1.590318    1.980383
  H     -0.667972    0.859506    2.499493
  H      0.558677    2.075856    2.760302
  H     -2.215128    1.463933   -1.630129
  H      1.701608    0.438729    1.687642
  C     -0.919443    2.665765    1.354004
  H     -1.475798    3.162477    2.155396
  H     -0.284381    3.442895    0.920670
  C     -1.921968    2.199002    0.305800
  H     -2.683026    1.587496    0.795313
  H     -2.450251    3.086145   -0.060891
  C     -0.261320    2.242496   -1.641470
  H     -0.414928    2.143317   -2.720839
  C      1.193003    1.854923   -1.373540
  H      1.377900    0.873047   -1.815002
  H      1.830949    2.546524   -1.933652
  H     -0.402705    3.307141   -1.424478
  H      1.655670    2.838138    0.492797
  C     -1.066830   -0.055568   -0.678523
  H     -0.839730   -0.473660   -1.672031
  Si    -2.680925   -0.985033   -0.248910
  C     -3.236176   -0.861105    1.553565
  H     -2.402580   -0.810420    2.255099
  H     -3.859100    0.018576    1.725257
  H     -3.836227   -1.737458    1.814907
  C     -2.542998   -2.829672   -0.645763
  H     -3.550181   -3.255785   -0.655736
  H     -2.108502   -3.014036   -1.632118
  H     -1.971503   -3.396593    0.092247
  C     -4.084692   -0.338337   -1.324876
  H     -3.835659   -0.392371   -2.388146
  H     -4.982314   -0.942197   -1.165474
  H     -4.341215    0.697721   -1.095398
  B      0.205918   -0.355897    0.264425
  C      1.643333   -1.397009   -0.571471
  H      1.629088   -1.462605   -1.650811
  C      0.636693   -2.078745    0.118838
  H     -0.092224   -2.582630   -0.500403
  C      0.254590   -1.765441    1.423968
  H      0.991039   -1.491769    2.163692
  H     -0.664011   -2.203803    1.788720
  C      2.962165   -1.099541    0.003351
  O      3.292147   -1.208529    1.159300
  O      3.812323   -0.697194   -0.960753
  C      5.131246   -0.368366   -0.523291
  H      5.674842   -0.080957   -1.419382
  H      5.100711    0.458565    0.187161
  H      5.602290   -1.227584   -0.046346

 Total Charge           Charge          ....    0
 Multiplicity           Mult            ....    1
 Number of Electrons    NEL             ....  168
 Basis Dimension        Dim             .... 1683

ORBITAL ENERGIES
----------------

  NO   OCC          E(Eh)            E(eV)
   0   2.0000     -68.750325     -1870.7914
   1   2.0000     -20.600009      -560.5547
   2   2.0000     -20.535282      -558.7934
   3   2.0000     -11.378270      -309.6185
   4   2.0000     -11.293256      -307.3051
   5   2.0000     -11.282364      -307.0087
   6   2.0000     -11.245439      -306.0039
   7   2.0000     -11.237342      -305.7836
   8   2.0000     -11.217771      -305.2511
   9   2.0000     -11.206313      -304.9393
  10   2.0000     -11.206090      -304.9332
  11   2.0000     -11.205937      -304.9290
  12   2.0000     -11.204577      -304.8921
  13   2.0000     -11.204170      -304.8810
  14   2.0000     -11.203309      -304.8575
  15   2.0000     -11.200301      -304.7757
  16   2.0000     -11.194193      -304.6095
  17   2.0000     -11.192351      -304.5593
  18   2.0000     -11.191133      -304.5262
  19   2.0000     -11.185194      -304.3646
  20   2.0000      -7.602011      -206.8612
  21   2.0000      -6.096994      -165.9076
  22   2.0000      -4.203358      -114.3792
  23   2.0000      -4.203219      -114.3754
  24   2.0000      -4.202888      -114.3664
  25   2.0000      -1.460092       -39.7311
  26   2.0000      -1.356158       -36.9029
  27   2.0000      -1.154842       -31.4248
  28   2.0000      -1.104990       -30.0683
  29   2.0000      -1.040201       -28.3053
  30   2.0000      -1.036100       -28.1937
  31   2.0000      -1.011185       -27.5157
  32   2.0000      -0.973501       -26.4903
  33   2.0000      -0.945674       -25.7331
  34   2.0000      -0.943583       -25.6762
  35   2.0000      -0.925244       -25.1772
  36   2.0000      -0.919812       -25.0293
  37   2.0000      -0.908753       -24.7284
  38   2.0000      -0.873321       -23.7643
  39   2.0000      -0.828848       -22.5541
  40   2.0000      -0.791211       -21.5300
  41   2.0000      -0.780526       -21.2392
  42   2.0000      -0.759167       -20.6580
  43   2.0000      -0.710708       -19.3393
  44   2.0000      -0.700534       -19.0625
  45   2.0000      -0.683554       -18.6005
  46   2.0000      -0.677025       -18.4228
  47   2.0000      -0.662135       -18.0176
  48   2.0000      -0.658189       -17.9102
  49   2.0000      -0.635126       -17.2827
  50   2.0000      -0.618156       -16.8209
  51   2.0000      -0.615038       -16.7360
  52   2.0000      -0.597641       -16.2626
  53   2.0000      -0.592470       -16.1219
  54   2.0000      -0.588297       -16.0084
  55   2.0000      -0.572966       -15.5912
  56   2.0000      -0.570011       -15.5108
  57   2.0000      -0.568832       -15.4787
  58   2.0000      -0.562639       -15.3102
  59   2.0000      -0.558658       -15.2019
  60   2.0000      -0.551576       -15.0092
  61   2.0000      -0.549829       -14.9616
  62   2.0000      -0.540104       -14.6970
  63   2.0000      -0.539039       -14.6680
  64   2.0000      -0.534345       -14.5403
  65   2.0000      -0.528939       -14.3932
  66   2.0000      -0.527887       -14.3645
  67   2.0000      -0.524559       -14.2740
  68   2.0000      -0.505480       -13.7548
  69   2.0000      -0.484259       -13.1774
  70   2.0000      -0.479253       -13.0411
  71   2.0000      -0.468164       -12.7394
  72   2.0000      -0.459759       -12.5107
  73   2.0000      -0.457091       -12.4381
  74   2.0000      -0.448560       -12.2059
  75   2.0000      -0.442885       -12.0515
  76   2.0000      -0.439623       -11.9628
  77   2.0000      -0.427733       -11.6392
  78   2.0000      -0.424745       -11.5579
  79   2.0000      -0.414410       -11.2767
  80   2.0000      -0.407242       -11.0816
  81   2.0000      -0.398739       -10.8502
  82   2.0000      -0.380330       -10.3493
  83   2.0000      -0.336129        -9.1465
  84   0.0000       0.021827         0.5939
  85   0.0000       0.027697         0.7537
  86   0.0000       0.029246         0.7958
  87   0.0000       0.030472         0.8292
  88   0.0000       0.037582         1.0227

MULLIKEN ATOMIC CHARGES
-----------------------
   0 C :   -0.819641
   1 C :    1.116261
   2 C :    0.031250
   3 H :    0.029004
   4 C :   -1.164938
   5 H :   -0.042729
   6 H :    0.232148
   7 H :   -0.003632
   8 H :   -0.124823
   9 C :   -0.487639
  10 H :    0.407952
  11 H :   -0.069435
  12 C :   -0.627801
  13 H :    0.105130
  14 H :    0.147091
  15 C :   -0.961861
  16 H :    0.223642
  17 C :   -0.366771
  18 H :   -0.064664
  19 H :    0.447718
  20 H :   -0.075677
  21 H :   -0.069063
  22 C :    1.125090
  23 H :    0.371187
  24 Si:    3.620968
  25 C :   -1.181253
  26 H :    0.324436
  27 H :    0.104030
  28 H :    0.082857
  29 C :   -1.939579
  30 H :    0.050125
  31 H :    0.130782
  32 H :    0.224633
  33 C :   -2.014385
  34 H :    0.166358
  35 H :    0.023202
  36 H :    0.286499
  37 B :    1.247536
  38 C :    0.367345
  39 H :    0.265317
  40 C :   -0.708912
  41 H :    0.662036
  42 C :   -0.790826
  43 H :   -0.014550
  44 H :    0.434783
  45 C :    1.067514
  46 O :   -1.330200
  47 O :   -0.500665
  48 C :   -1.049832
  49 H :    0.330304
  50 H :    0.390519
  51 H :    0.393161
Sum of atomic charges:    0.0000000

LOEWDIN ATOMIC CHARGES
----------------------
   0 C :    0.332762
   1 C :    0.147078
   2 C :    0.001140
   3 H :   -0.161310
   4 C :    0.330988
   5 H :   -0.140212
   6 H :   -0.127166
   7 H :   -0.176719
   8 H :   -0.210664
   9 C :    0.316486
  10 H :   -0.131010
  11 H :   -0.164240
  12 C :    0.320110
  13 H :   -0.187588
  14 H :   -0.124709
  15 C :    0.342820
  16 H :   -0.134601
  17 C :    0.319092
  18 H :   -0.170632
  19 H :   -0.128926
  20 H :   -0.142150
  21 H :   -0.147269
  22 C :    0.190100
  23 H :   -0.189697
  24 Si:    0.530009
  25 C :    0.607152
  26 H :   -0.243597
  27 H :   -0.228848
  28 H :   -0.216293
  29 C :    0.593005
  30 H :   -0.221199
  31 H :   -0.213242
  32 H :   -0.236226
  33 C :    0.593293
  34 H :   -0.214701
  35 H :   -0.223279
  36 H :   -0.226848
  37 B :   -0.664581
  38 C :    0.223222
  39 H :   -0.150978
  40 C :    0.173746
  41 H :   -0.163267
  42 C :    0.553337
  43 H :   -0.162815
  44 H :   -0.162994
  45 C :   -0.824029
  46 O :    0.515948
  47 O :    0.581706
  48 C :    0.356702
  49 H :   -0.182415
  50 H :   -0.178165
  51 H :   -0.178324

  Mayer bond orders larger than 0.100000
B(  0-C ,  1-C ) :   0.5802 B(  0-C ,  3-H ) :   1.3366 B(  0-C ,  4-C ) :  -0.1384
B(  0-C ,  8-H ) :  -0.1530 B(  0-C , 15-C ) :   0.1719 B(  0-C , 17-C ) :   0.7488
B(  0-C , 19-H ) :  -0.1606 B(  0-C , 21-H ) :   1.2450 B(  0-C , 37-B ) :   0.3088
B(  1-C ,  2-C ) :   0.2210 B(  1-C ,  3-H ) :  -0.3178 B(  1-C ,  4-C ) :   0.3321
B(  1-C ,  6-H ) :  -0.1473 B(  1-C ,  8-H ) :   1.3292 B(  1-C ,  9-C ) :   0.1647
B(  1-C , 17-C ) :   0.1698 B(  1-C , 37-B ) :   0.9911 B(  1-C , 38-C ) :   0.1221
B(  1-C , 41-H ) :   0.1472 B(  1-C , 45-C ) :  -0.2021 B(  1-C , 47-O ) :   0.1161
B(  2-C ,  7-H ) :   1.1896 B(  2-C ,  9-C ) :   0.1768 B(  2-C , 12-C ) :   0.8732
B(  2-C , 13-H ) :   0.1021 B(  2-C , 14-H ) :  -0.1349 B(  2-C , 15-C ) :   0.4400
B(  2-C , 16-H ) :  -0.1158 B(  2-C , 20-H ) :  -0.1682 B(  2-C , 22-C ) :   1.0774
B(  2-C , 23-H ) :  -0.3614 B(  2-C , 24-Si) :   0.1624 B(  2-C , 37-B ) :   0.1647
B(  3-H , 15-C ) :  -0.1001 B(  3-H , 18-H ) :   0.1330 B(  3-H , 21-H ) :  -0.1073
B(  4-C ,  5-H ) :   1.5161 B(  4-C ,  6-H ) :   1.1049 B(  4-C ,  8-H ) :  -0.3091
B(  4-C ,  9-C ) :   0.7168 B(  4-C , 11-H ) :   0.1012 B(  6-H ,  9-C ) :  -0.1382
B(  7-H , 15-C ) :  -0.2901 B(  7-H , 22-C ) :  -0.2963 B(  7-H , 24-Si) :   0.1836
B(  7-H , 33-C ) :   0.1120 B(  7-H , 37-B ) :  -0.1476 B(  8-H , 24-Si) :   0.1214
B(  8-H , 37-B ) :  -1.1262 B(  8-H , 38-C ) :   0.1244 B(  9-C , 10-H ) :   0.7912
B(  9-C , 11-H ) :   1.3596 B(  9-C , 12-C ) :   0.7716 B(  9-C , 13-H ) :   0.2060
B(  9-C , 14-H ) :  -0.1595 B(  9-C , 37-B ) :  -0.1693 B( 11-H , 37-B ) :  -0.1660
B( 12-C , 13-H ) :   1.0003 B( 12-C , 14-H ) :   1.1918 B( 12-C , 22-C ) :   0.1189
B( 12-C , 24-Si) :  -0.1209 B( 12-C , 37-B ) :  -0.1518 B( 13-H , 37-B ) :   0.1074
B( 15-C , 16-H ) :   1.0266 B( 15-C , 17-C ) :   0.6774 B( 15-C , 18-H ) :   0.1212
B( 15-C , 19-H ) :  -0.1253 B( 15-C , 20-H ) :   1.5239 B( 15-C , 22-C ) :   0.3070
B( 16-H , 17-C ) :  -0.1238 B( 17-C , 18-H ) :   1.2358 B( 17-C , 19-H ) :   0.8646
B( 17-C , 37-B ) :  -0.2357 B( 21-H , 37-B ) :  -0.1057 B( 22-C , 23-H ) :   0.7715
B( 22-C , 24-Si) :   0.3055 B( 22-C , 25-C ) :   0.2008 B( 22-C , 37-B ) :   0.4052
B( 22-C , 38-C ) :   0.1558 B( 22-C , 44-H ) :  -0.1265 B( 23-H , 24-Si) :  -0.2580
B( 23-H , 29-C ) :   0.1022 B( 23-H , 37-B ) :  -0.4331 B( 24-Si, 25-C ) :   0.1420
B( 24-Si, 26-H ) :   0.1476 B( 24-Si, 27-H ) :  -0.1220 B( 24-Si, 28-H ) :  -0.2199
B( 24-Si, 29-C ) :  -1.2550 B( 24-Si, 30-H ) :  -0.2559 B( 24-Si, 31-H ) :  -0.2229
B( 24-Si, 33-C ) :  -1.6460 B( 24-Si, 34-H ) :  -0.2389 B( 24-Si, 35-H ) :  -0.2891
B( 24-Si, 37-B ) :   0.6778 B( 24-Si, 38-C ) :  -0.1374 B( 24-Si, 44-H ) :   0.1350
B( 25-C , 26-H ) :   0.9279 B( 25-C , 27-H ) :   1.1869 B( 25-C , 28-H ) :   1.1189
B( 25-C , 29-C ) :   0.1717 B( 25-C , 37-B ) :  -0.1242 B( 29-C , 30-H ) :   1.2913
B( 29-C , 31-H ) :   1.2951 B( 29-C , 32-H ) :   1.1095 B( 29-C , 33-C ) :   0.1178
B( 31-H , 32-H ) :   0.1028 B( 33-C , 34-H ) :   1.2374 B( 33-C , 35-H ) :   1.4103
B( 33-C , 36-H ) :   1.0831 B( 33-C , 37-B ) :   0.2464 B( 37-B , 38-C ) :  -0.2482
B( 37-B , 40-C ) :  -0.8224 B( 37-B , 45-C ) :   0.8288 B( 37-B , 47-O ) :  -0.1353
B( 38-C , 39-H ) :   1.0171 B( 38-C , 40-C ) :   1.2853 B( 38-C , 41-H ) :  -0.1968
B( 38-C , 45-C ) :   0.9141 B( 38-C , 46-O ) :  -0.1540 B( 38-C , 47-O ) :  -0.2289
B( 39-H , 40-C ) :  -0.1186 B( 39-H , 45-C ) :  -0.1903 B( 40-C , 41-H ) :   0.3570
B( 40-C , 42-C ) :   1.3888 B( 40-C , 43-H ) :  -0.1637 B( 40-C , 45-C ) :  -0.1425
B( 40-C , 46-O ) :   0.1046 B( 41-H , 42-C ) :  -0.1627 B( 42-C , 43-H ) :   1.3303
B( 42-C , 44-H ) :   0.7148 B( 43-H , 44-H ) :  -0.1435 B( 45-C , 46-O ) :   0.5242
B( 45-C , 47-O ) :   0.9497 B( 47-O , 48-C ) :   0.9429 B( 48-C , 49-H ) :   0.9566
B( 48-C , 50-H ) :   0.8484 B( 48-C , 51-H ) :   0.8827

MP2 TOTAL ENERGY:    -1129.127746864 Eh
FINAL SINGLE POINT ENERGY     -1129.127746864000

DIPOLE MOMENT
-------------
                                X             Y             Z
Electronic contribution:     14.38543      -8.26039       0.07310
Nuclear contribution   :    -14.53823       8.02838      -0.63431
                        -----------------------------------------
Total Dipole Moment    :     -0.15280      -0.23201      -0.56121
                        -----------------------------------------
Magnitude (a.u.)       :      0.62621
Magnitude (Debye)      :      1.59170

Rotational constants in cm-1:     0.014855     0.007537     0.006362
Rotational constants in MHz :   445.344117   225.961528   190.726648

                             ****ORCA TERMINATED NORMALLY****
TOTAL RUN TIME: 0 days 2 hours 5 minutes 4 seconds 464 msec
