                         Program Version 4.2.1 -  RELEASE  -
|  1> %pal
|  2>  nprocs 32
|  3> end
|  4> !RI-MP2 aug-cc-pVTZ aug-cc-pVTZ/C TightSCF
|  5> %maxcore 4500
|  6> *xyzfile 0 1  10_9P.xyz
|  7>
|  8>
|  9>                          ****END OF INPUT****

CARTESIAN COORDINATES (ANGSTROEM)
---------------------------------
  C      1.081389    0.012764    0.055468
  C     -0.079504   -0.835662   -0.403916
  N      0.480627    1.286297    0.410334
  N     -0.755558    1.249127    0.240840
  N     -1.163799    0.089363   -0.328855
  C     -2.549982   -0.287952   -0.212234
  H     -3.147244    0.621479   -0.181542
  H     -2.845154   -0.876976   -1.081985
  H     -2.741055   -0.874178    0.694514
  C      0.606364   -1.142635    0.899991
  H      1.251563   -2.011249    0.912828
  H      0.087107   -0.928412    1.826569
  C      2.458157    0.075455   -0.531338
  H      2.471785    0.705875   -1.422104
  H      3.154536    0.496784    0.196112
  H      2.808577   -0.921324   -0.804104
  H     -0.067551   -1.517335   -1.244351

 Total Charge           Charge          ....    0
 Multiplicity           Mult            ....    1
 Number of Electrons    NEL             ....   60
 Basis Dimension        Dim             ....  575

ORBITAL ENERGIES
----------------

  NO   OCC          E(Eh)            E(eV)
   0   2.0000     -15.656133      -426.0250
   1   2.0000     -15.605630      -424.6508
   2   2.0000     -15.591550      -424.2676
   3   2.0000     -11.276133      -306.8392
   4   2.0000     -11.272700      -306.7458
   5   2.0000     -11.266800      -306.5852
   6   2.0000     -11.237183      -305.7793
   7   2.0000     -11.226340      -305.4842
   8   2.0000      -1.430333       -38.9213
   9   2.0000      -1.207903       -32.8687
  10   2.0000      -1.163680       -31.6653
  11   2.0000      -0.993735       -27.0409
  12   2.0000      -0.951816       -25.9002
  13   2.0000      -0.900692       -24.5091
  14   2.0000      -0.823727       -22.4148
  15   2.0000      -0.767811       -20.8932
  16   2.0000      -0.700088       -19.0504
  17   2.0000      -0.658750       -17.9255
  18   2.0000      -0.636745       -17.3267
  19   2.0000      -0.605222       -16.4689
  20   2.0000      -0.585399       -15.9295
  21   2.0000      -0.578186       -15.7332
  22   2.0000      -0.559814       -15.2333
  23   2.0000      -0.555546       -15.1172
  24   2.0000      -0.530280       -14.4297
  25   2.0000      -0.518500       -14.1091
  26   2.0000      -0.480116       -13.0646
  27   2.0000      -0.427196       -11.6246
  28   2.0000      -0.392235       -10.6733
  29   2.0000      -0.335706        -9.1350
  30   0.0000       0.024786         0.6745
  31   0.0000       0.033400         0.9089
  32   0.0000       0.034752         0.9456
  33   0.0000       0.040005         1.0886
  34   0.0000       0.051766         1.4086

MULLIKEN ATOMIC CHARGES
-----------------------
   0 C :    1.024530
   1 C :   -0.645319
   2 N :   -0.604658
   3 N :   -0.475917
   4 N :    0.324614
   5 C :   -0.902895
   6 H :    0.376847
   7 H :    0.357914
   8 H :    0.313726
   9 C :   -1.184826
  10 H :    0.284960
  11 H :    0.381705
  12 C :   -0.643506
  13 H :    0.275643
  14 H :    0.272925
  15 H :    0.294180
  16 H :    0.550076
Sum of atomic charges:   -0.0000000

LOEWDIN ATOMIC CHARGES
----------------------
   0 C :   -0.466540
   1 C :   -0.047709
   2 N :    0.249782
   3 N :    0.131427
   4 N :    0.072714
   5 C :    0.480076
   6 H :   -0.174980
   7 H :   -0.167020
   8 H :   -0.158957
   9 C :    0.394641
  10 H :   -0.153663
  11 H :   -0.151441
  12 C :    0.604484
  13 H :   -0.163970
  14 H :   -0.162478
  15 H :   -0.168381
  16 H :   -0.117987

  Mayer bond orders larger than 0.100000
B(  0-C ,  1-C ) :   0.2346 B(  0-C ,  2-N ) :   0.4778 B(  0-C ,  9-C ) :   0.8597
B(  0-C , 12-C ) :   0.3578 B(  1-C ,  2-N ) :   0.1189 B(  1-C ,  3-N ) :   0.1181
B(  1-C ,  4-N ) :   1.0768 B(  1-C ,  9-C ) :   1.1511 B(  1-C , 16-H ) :   0.5047
B(  2-N ,  3-N ) :   0.7462 B(  2-N ,  4-N ) :   0.1266 B(  3-N ,  4-N ) :   0.4724
B(  4-N ,  5-C ) :   0.8526 B(  5-C ,  6-H ) :   0.8778 B(  5-C ,  7-H ) :   0.8988
B(  5-C ,  8-H ) :   0.9358 B(  9-C , 10-H ) :   0.9534 B(  9-C , 11-H ) :   0.8176
B(  9-C , 12-C ) :  -0.2442 B( 12-C , 13-H ) :   1.0090 B( 12-C , 14-H ) :   1.0011
B( 12-C , 15-H ) :   0.9905

MP2 TOTAL ENERGY:     -359.417497763 Eh
FINAL SINGLE POINT ENERGY      -359.417497763277

DIPOLE MOMENT
-------------
                                X             Y             Z
Electronic contribution:     -1.14018       3.98601       0.74739
Nuclear contribution   :      0.97745      -5.36305      -1.11741
                        -----------------------------------------
Total Dipole Moment    :     -0.16274      -1.37704      -0.37002
                        -----------------------------------------
Magnitude (a.u.)       :      1.43514
Magnitude (Debye)      :      3.64783

Rotational constants in cm-1:     0.151411     0.059918     0.050812
Rotational constants in MHz :  4539.184375  1796.299968  1523.318736

                             ****ORCA TERMINATED NORMALLY****
TOTAL RUN TIME: 0 days 0 hours 3 minutes 30 seconds 35 msec
