                         Program Version 4.2.1 -  RELEASE  -
|  1> %pal
|  2>  nprocs 32
|  3> end
|  4> !RI-MP2 aug-cc-pVTZ aug-cc-pVTZ/C TightSCF
|  5> %maxcore 4500
|  6> *xyzfile 0 2  04_22TS.xyz
|  7>
|  8>
|  9>                          ****END OF INPUT****

CARTESIAN COORDINATES (ANGSTROEM)
---------------------------------
  C      2.517543   -2.127436   -0.340433
  C      0.282114   -1.435936   -0.233505
  C     -0.622592   -0.404628    0.380873
  C     -0.502448   -0.159115    1.857477
  C     -1.968502   -0.378030   -0.231828
  O     -2.856425    0.349789    0.472305
  O     -2.258810   -0.920295   -1.270259
  S      0.549791    2.040783   -0.783612
  C      1.896423    2.101747    0.432939
  H      2.569438   -1.970459   -1.424303
  H      2.256123   -3.174918   -0.145864
  H      3.490938   -1.916242    0.099366
  H      0.544905   -0.064088    2.137794
  H     -1.048716    0.734367    2.154399
  H     -0.920035   -1.007207    2.412872
  H     -0.082384   -2.443579    0.028499
  H      0.253961   -1.354407   -1.325135
  H      2.621987    2.827423    0.064499
  H      2.374414    1.127649    0.511291
  H      1.539209    2.429238    1.408036
  H     -0.117700    0.803347   -0.206565
  H     -3.683959    0.349841   -0.028202
  O      1.588976   -1.251131    0.255200

 Total Charge           Charge          ....    0
 Multiplicity           Mult            ....    2
 Number of Electrons    NEL             ....   89
 Basis Dimension        Dim             ....  763

ORBITAL ENERGIES
----------------
                 SPIN UP ORBITALS
  NO   OCC          E(Eh)            E(eV)
   0   1.0000     -91.947101     -2502.0078
   1   1.0000     -20.617511      -561.0310
   2   1.0000     -20.571444      -559.7774
   3   1.0000     -20.559464      -559.4515
   4   1.0000     -11.390430      -309.9493
   5   1.0000     -11.291321      -307.2525
   6   1.0000     -11.284723      -307.0729
   7   1.0000     -11.280695      -306.9633
   8   1.0000     -11.246849      -306.0423
   9   1.0000     -11.232687      -305.6570
  10   1.0000      -8.947526      -243.4746
  11   1.0000      -6.636974      -180.6012
  12   1.0000      -6.626150      -180.3067
  13   1.0000      -6.624993      -180.2752
  14   1.0000      -1.475903       -40.1614
  15   1.0000      -1.395014       -37.9603
  16   1.0000      -1.373737       -37.3813
  17   1.0000      -1.121901       -30.5285
  18   1.0000      -1.030450       -28.0400
  19   1.0000      -0.974374       -26.5141
  20   1.0000      -0.932681       -25.3795
  21   1.0000      -0.883877       -24.0515
  22   1.0000      -0.857973       -23.3466
  23   1.0000      -0.788130       -21.4461
  24   1.0000      -0.716312       -19.4919
  25   1.0000      -0.708800       -19.2874
  26   1.0000      -0.695866       -18.9355
  27   1.0000      -0.660718       -17.9791
  28   1.0000      -0.649466       -17.6729
  29   1.0000      -0.637798       -17.3554
  30   1.0000      -0.612856       -16.6767
  31   1.0000      -0.584213       -15.8972
  32   1.0000      -0.583431       -15.8760
  33   1.0000      -0.580363       -15.7925
  34   1.0000      -0.572399       -15.5758
  35   1.0000      -0.558097       -15.1866
  36   1.0000      -0.525821       -14.3083
  37   1.0000      -0.520894       -14.1742
  38   1.0000      -0.505155       -13.7460
  39   1.0000      -0.495107       -13.4726
  40   1.0000      -0.466350       -12.6900
  41   1.0000      -0.464239       -12.6326
  42   1.0000      -0.439423       -11.9573
  43   1.0000      -0.351315        -9.5598
  44   1.0000      -0.345388        -9.3985
  45   0.0000       0.025604         0.6967
  46   0.0000       0.031758         0.8642
  47   0.0000       0.035020         0.9529
  48   0.0000       0.038500         1.0476
  49   0.0000       0.046890         1.2760

                 SPIN DOWN ORBITALS
  NO   OCC          E(Eh)            E(eV)
   0   1.0000     -91.941840     -2501.8647
   1   1.0000     -20.617853      -561.0403
   2   1.0000     -20.571332      -559.7744
   3   1.0000     -20.553637      -559.2929
   4   1.0000     -11.393491      -310.0327
   5   1.0000     -11.293159      -307.3025
   6   1.0000     -11.280740      -306.9645
   7   1.0000     -11.266462      -306.5760
   8   1.0000     -11.247284      -306.0542
   9   1.0000     -11.234406      -305.7037
  10   1.0000      -8.941817      -243.3192
  11   1.0000      -6.623623      -180.2379
  12   1.0000      -6.621896      -180.1910
  13   1.0000      -6.613543      -179.9637
  14   1.0000      -1.473423       -40.0939
  15   1.0000      -1.394541       -37.9474
  16   1.0000      -1.364734       -37.1363
  17   1.0000      -1.088282       -29.6137
  18   1.0000      -1.011155       -27.5149
  19   1.0000      -0.973683       -26.4953
  20   1.0000      -0.926482       -25.2109
  21   1.0000      -0.882535       -24.0150
  22   1.0000      -0.831337       -22.6218
  23   1.0000      -0.771411       -20.9912
  24   1.0000      -0.712828       -19.3970
  25   1.0000      -0.694331       -18.8937
  26   1.0000      -0.683991       -18.6123
  27   1.0000      -0.653157       -17.7733
  28   1.0000      -0.641201       -17.4480
  29   1.0000      -0.632320       -17.2063
  30   1.0000      -0.597198       -16.2506
  31   1.0000      -0.581569       -15.8253
  32   1.0000      -0.578766       -15.7490
  33   1.0000      -0.571464       -15.5503
  34   1.0000      -0.567846       -15.4519
  35   1.0000      -0.552164       -15.0252
  36   1.0000      -0.518024       -14.0962
  37   1.0000      -0.505717       -13.7613
  38   1.0000      -0.492177       -13.3928
  39   1.0000      -0.476534       -12.9671
  40   1.0000      -0.458342       -12.4721
  41   1.0000      -0.441651       -12.0179
  42   1.0000      -0.432653       -11.7731
  43   1.0000      -0.341739        -9.2992
  44   0.0000       0.024004         0.6532
  45   0.0000       0.029962         0.8153
  46   0.0000       0.031844         0.8665
  47   0.0000       0.035127         0.9559
  48   0.0000       0.038754         1.0546

MULLIKEN ATOMIC CHARGES AND SPIN POPULATIONS
--------------------------------------------
   0 C :   -1.024849   -0.001798
   1 C :   -0.115925   -0.127444
   2 C :    0.772681    0.894067
   3 C :   -0.935363   -0.074311
   4 C :    0.324427   -0.118430
   5 O :   -0.504313   -0.001239
   6 O :   -0.964555    0.129608
   7 S :   -0.493995    0.596368
   8 C :   -0.840398   -0.044331
   9 H :    0.352140    0.000003
  10 H :    0.327873   -0.000203
  11 H :    0.332144    0.000161
  12 H :    0.368734    0.006740
  13 H :    0.299957    0.009953
  14 H :    0.228971    0.045467
  15 H :    0.385129    0.039732
  16 H :    0.417466    0.010612
  17 H :    0.265860    0.008863
  18 H :    0.410642    0.005217
  19 H :    0.248225   -0.000151
  20 H :    0.373567   -0.381320
  21 H :    0.235634   -0.002560
  22 O :   -0.464052    0.004997
Sum of atomic charges         :   -0.0000000

LOEWDIN ATOMIC CHARGES AND SPIN POPULATIONS
-------------------------------------------
   0 C :    0.329104    0.000515
   1 C :   -0.021022    0.044047
   2 C :   -0.175064    0.319071
   3 C :    0.572610    0.049401
   4 C :   -0.808118    0.028861
   5 O :    0.851135   -0.009225
   6 O :    0.480542    0.092694
   7 S :    1.267619    0.309364
   8 C :    0.179284    0.050621
   9 H :   -0.171738   -0.000002
  10 H :   -0.172792    0.000576
  11 H :   -0.182163   -0.000007
  12 H :   -0.183654    0.001329
  13 H :   -0.173256    0.001077
  14 H :   -0.146653    0.017280
  15 H :   -0.129881    0.014918
  16 H :   -0.159192    0.001857
  17 H :   -0.260840    0.012714
  18 H :   -0.274663    0.001579
  19 H :   -0.248355    0.000427
  20 H :   -0.671813    0.064372
  21 H :   -0.461208   -0.000778
  22 O :    0.560118   -0.000689

  Mayer bond orders larger than 0.100000
B(  0-C ,  9-H ) :   0.8693 B(  0-C , 10-H ) :   0.9010 B(  0-C , 11-H ) :   0.9821
B(  0-C , 22-O ) :   1.0229 B(  1-C ,  2-C ) :   0.8827 B(  1-C , 15-H ) :   0.8917
B(  1-C , 16-H ) :   0.9509 B(  1-C , 22-O ) :   1.0378 B(  2-C ,  3-C ) :   0.6972
B(  2-C ,  4-C ) :   0.4601 B(  2-C ,  7-S ) :   0.1062 B(  2-C , 20-H ) :   0.1571
B(  3-C , 12-H ) :   0.8921 B(  3-C , 13-H ) :   1.0039 B(  3-C , 14-H ) :   1.0290
B(  4-C ,  5-O ) :   0.9062 B(  4-C ,  6-O ) :   1.1644 B(  5-O , 21-H ) :   0.9671
B(  7-S ,  8-C ) :   0.9884 B(  7-S , 18-H ) :   0.1248 B(  7-S , 20-H ) :   0.3217
B(  8-C , 17-H ) :   0.9847 B(  8-C , 18-H ) :   0.8245 B(  8-C , 19-H ) :   0.9373

MP2 TOTAL ENERGY:     -858.971008753 Eh
FINAL SINGLE POINT ENERGY      -858.971008753189

DIPOLE MOMENT
-------------
                                X             Y             Z
Electronic contribution:     -9.41561       3.23754      -4.88415
Nuclear contribution   :      9.83873      -3.79434       5.76862
                        -----------------------------------------
Total Dipole Moment    :      0.42312      -0.55680       0.88448
                        -----------------------------------------
Magnitude (a.u.)       :      1.12754
Magnitude (Debye)      :      2.86599

Rotational constants in cm-1:     0.035682     0.027603     0.019949
Rotational constants in MHz :  1069.709107   827.521706   598.068247

                             ****ORCA TERMINATED NORMALLY****
TOTAL RUN TIME: 0 days 0 hours 16 minutes 22 seconds 157 msec
