                         Program Version 4.2.1 -  RELEASE  -
|  1> %pal
|  2>  nprocs 32
|  3> end
|  4> !RI-MP2 aug-cc-pVTZ aug-cc-pVTZ/C TightSCF
|  5> %maxcore 4500
|  6> *xyzfile 0 1  02_19TS.xyz
|  7>
|  8>
|  9>                          ****END OF INPUT****

CARTESIAN COORDINATES (ANGSTROEM)
---------------------------------
  C      0.521404   -1.012810    0.203075
  C     -0.232487    1.607379    0.318856
  C      1.894877   -0.995841   -0.099202
  H      0.159944   -1.220074    1.201355
  C     -0.423069   -0.979384   -0.868193
  C      0.508002    1.899479   -0.816762
  C     -1.648385    1.807681    0.621284
  H      0.318067    1.299810    1.186152
  C      1.840821    1.489947   -0.898477
  C      2.637401    0.811688    0.051832
  C      4.083846    0.623179   -0.415522
  C      2.530910    1.184688    1.530854
  C      2.833828   -1.804745    0.780899
  H      2.086868   -1.131587   -1.160250
  H      1.876528    0.526411    2.103101
  H      3.510553    1.142678    2.004982
  H      2.158811    2.204431    1.640634
  C      4.921804   -0.411534    0.336125
  H      4.076356    0.357382   -1.477897
  H      4.588042    1.594674   -0.344177
  C      4.276412   -1.792254    0.291809
  H      2.774759   -1.469733    1.820818
  H      2.467982   -2.835002    0.778139
  C      6.340648   -0.447705   -0.223897
  H      4.990664   -0.111665    1.387871
  H      4.871878   -2.489676    0.888968
  H      4.303794   -2.165873   -0.739450
  C     -0.081434    2.477501   -2.082928
  H      2.279282    1.567856   -1.889660
  H     -0.682316    3.365681   -1.897980
  H      0.719748    2.760435   -2.765626
  H     -0.694237    1.733736   -2.594841
  H      6.334850   -0.743702   -1.277167
  H      6.821511    0.531227   -0.155459
  H      6.960228   -1.165182    0.319279
  C     -2.627703    2.280217   -0.420196
  H     -2.457270    3.325314   -0.684774
  H     -2.546854    1.692136   -1.332960
  H     -3.651321    2.199534   -0.061853
  C     -2.021020    1.519433    1.881273
  C     -3.376025    1.576089    2.498226
  H     -3.364086    2.217837    3.384493
  H     -4.151441    1.944084    1.828980
  H     -3.658264    0.575323    2.839621
  H     -1.248290    1.149171    2.548370
  C     -1.860371   -1.244462   -0.548662
  O     -0.110930   -0.791437   -2.050768
  C     -2.817584   -1.327724   -1.471960
  C     -2.479171   -1.514455    0.791160
  H     -2.661575   -1.191375   -2.533409
  C     -4.152150   -1.638635   -0.864838
  N     -3.819204   -1.660781    0.546182
  H     -4.436700   -1.997060    1.267177
  O     -1.958545   -1.598656    1.885945
  C     -5.243209   -0.631238   -1.211004
  H     -6.177322   -0.884589   -0.705676
  H     -5.431212   -0.628985   -2.286609
  H     -4.943771    0.371573   -0.905722
  H     -4.469060   -2.637538   -1.193626

 Total Charge           Charge          ....    0
 Multiplicity           Mult            ....    1
 Number of Electrons    NEL             ....  194
 Basis Dimension        Dim             .... 1955

ORBITAL ENERGIES
----------------

  NO   OCC          E(Eh)            E(eV)
   0   2.0000     -20.512309      -558.1683
   1   2.0000     -20.479015      -557.2623
   2   2.0000     -15.577993      -423.8987
   3   2.0000     -11.345403      -308.7241
   4   2.0000     -11.290194      -307.2218
   5   2.0000     -11.286996      -307.1348
   6   2.0000     -11.254744      -306.2572
   7   2.0000     -11.251914      -306.1801
   8   2.0000     -11.248118      -306.0769
   9   2.0000     -11.240346      -305.8654
  10   2.0000     -11.238460      -305.8140
  11   2.0000     -11.238286      -305.8093
  12   2.0000     -11.235388      -305.7304
  13   2.0000     -11.234349      -305.7022
  14   2.0000     -11.231872      -305.6348
  15   2.0000     -11.228699      -305.5484
  16   2.0000     -11.222195      -305.3714
  17   2.0000     -11.221944      -305.3646
  18   2.0000     -11.221078      -305.3410
  19   2.0000     -11.218885      -305.2814
  20   2.0000     -11.218612      -305.2740
  21   2.0000     -11.218199      -305.2627
  22   2.0000     -11.212733      -305.1140
  23   2.0000     -11.210583      -305.0555
  24   2.0000     -11.207214      -304.9638
  25   2.0000     -11.184979      -304.3588
  26   2.0000      -1.378529       -37.5117
  27   2.0000      -1.325029       -36.0559
  28   2.0000      -1.259157       -34.2634
  29   2.0000      -1.145890       -31.1813
  30   2.0000      -1.120519       -30.4909
  31   2.0000      -1.087299       -29.5869
  32   2.0000      -1.076718       -29.2990
  33   2.0000      -1.052957       -28.6524
  34   2.0000      -1.039089       -28.2751
  35   2.0000      -1.034032       -28.1374
  36   2.0000      -0.989999       -26.9392
  37   2.0000      -0.979098       -26.6426
  38   2.0000      -0.954561       -25.9749
  39   2.0000      -0.937309       -25.5055
  40   2.0000      -0.919982       -25.0340
  41   2.0000      -0.907336       -24.6899
  42   2.0000      -0.884361       -24.0647
  43   2.0000      -0.873199       -23.7610
  44   2.0000      -0.827397       -22.5146
  45   2.0000      -0.808406       -21.9978
  46   2.0000      -0.798874       -21.7385
  47   2.0000      -0.762049       -20.7364
  48   2.0000      -0.743954       -20.2440
  49   2.0000      -0.726146       -19.7594
  50   2.0000      -0.712472       -19.3874
  51   2.0000      -0.700108       -19.0509
  52   2.0000      -0.683909       -18.6101
  53   2.0000      -0.661098       -17.9894
  54   2.0000      -0.649673       -17.6785
  55   2.0000      -0.646758       -17.5992
  56   2.0000      -0.634409       -17.2632
  57   2.0000      -0.628618       -17.1056
  58   2.0000      -0.619321       -16.8526
  59   2.0000      -0.611783       -16.6475
  60   2.0000      -0.604120       -16.4389
  61   2.0000      -0.597318       -16.2538
  62   2.0000      -0.588807       -16.0223
  63   2.0000      -0.586095       -15.9485
  64   2.0000      -0.580432       -15.7944
  65   2.0000      -0.570788       -15.5319
  66   2.0000      -0.568590       -15.4721
  67   2.0000      -0.565341       -15.3837
  68   2.0000      -0.560081       -15.2406
  69   2.0000      -0.556978       -15.1561
  70   2.0000      -0.553757       -15.0685
  71   2.0000      -0.548077       -14.9139
  72   2.0000      -0.544845       -14.8260
  73   2.0000      -0.540601       -14.7105
  74   2.0000      -0.534970       -14.5573
  75   2.0000      -0.527529       -14.3548
  76   2.0000      -0.522652       -14.2221
  77   2.0000      -0.518301       -14.1037
  78   2.0000      -0.514306       -13.9950
  79   2.0000      -0.510400       -13.8887
  80   2.0000      -0.502462       -13.6727
  81   2.0000      -0.498529       -13.5657
  82   2.0000      -0.491790       -13.3823
  83   2.0000      -0.485829       -13.2201
  84   2.0000      -0.478588       -13.0230
  85   2.0000      -0.473768       -12.8919
  86   2.0000      -0.458363       -12.4727
  87   2.0000      -0.453267       -12.3340
  88   2.0000      -0.441622       -12.0171
  89   2.0000      -0.425885       -11.5889
  90   2.0000      -0.416908       -11.3446
  91   2.0000      -0.396076       -10.7778
  92   2.0000      -0.382830       -10.4173
  93   2.0000      -0.379619       -10.3300
  94   2.0000      -0.367576       -10.0022
  95   2.0000      -0.307123        -8.3573
  96   2.0000      -0.246989        -6.7209
  97   0.0000       0.021042         0.5726
  98   0.0000       0.025506         0.6941
  99   0.0000       0.029070         0.7910
 100   0.0000       0.031267         0.8508
 101   0.0000       0.035383         0.9628

MULLIKEN ATOMIC CHARGES
-----------------------
   0 C :   -0.649297
   1 C :   -0.679072
   2 C :    0.598554
   3 H :    0.169831
   4 C :    1.785845
   5 C :    0.727300
   6 C :    1.714677
   7 H :   -0.474422
   8 C :   -1.239759
   9 C :    2.963626
  10 C :   -0.845805
  11 C :   -1.530674
  12 C :   -0.822209
  13 H :    0.121341
  14 H :    0.245999
  15 H :    0.261204
  16 H :    0.015969
  17 C :    0.322291
  18 H :    0.148499
  19 H :    0.488744
  20 C :   -0.809012
  21 H :    0.040624
  22 H :    0.362035
  23 C :   -1.428116
  24 H :    0.366683
  25 H :    0.347694
  26 H :    0.045666
  27 C :   -1.084933
  28 H :   -0.824955
  29 H :    0.245509
  30 H :    0.174098
  31 H :    0.283023
  32 H :    0.236557
  33 H :    0.234261
  34 H :    0.230003
  35 C :   -0.945526
  36 H :    0.256352
  37 H :    0.368925
  38 H :    0.024332
  39 C :    0.078347
  40 C :   -1.134110
  41 H :    0.194297
  42 H :    0.367151
  43 H :    0.250016
  44 H :    0.290635
  45 C :    1.419310
  46 O :   -1.818181
  47 C :   -1.057117
  48 C :    0.428750
  49 H :    0.346006
  50 C :    0.173087
  51 N :    0.203660
  52 H :   -0.120377
  53 O :   -1.235965
  54 C :   -1.102445
  55 H :    0.248035
  56 H :    0.262353
  57 H :    0.483771
  58 H :    0.276911
Sum of atomic charges:   -0.0000000

LOEWDIN ATOMIC CHARGES
----------------------
   0 C :    0.191882
   1 C :    0.256837
   2 C :    0.117249
   3 H :   -0.235916
   4 C :   -0.598539
   5 C :   -0.067776
   6 C :   -0.059229
   7 H :   -0.293613
   8 C :    0.254635
   9 C :   -0.121647
  10 C :    0.296401
  11 C :    0.603270
  12 C :    0.308452
  13 H :   -0.171528
  14 H :   -0.173503
  15 H :   -0.171430
  16 H :   -0.148409
  17 C :   -0.028474
  18 H :   -0.138014
  19 H :   -0.122342
  20 C :    0.306486
  21 H :   -0.144523
  22 H :   -0.128801
  23 C :    0.597790
  24 H :   -0.143047
  25 H :   -0.130717
  26 H :   -0.128434
  27 C :    0.583760
  28 H :   -0.158201
  29 H :   -0.187231
  30 H :   -0.172404
  31 H :   -0.176623
  32 H :   -0.156815
  33 H :   -0.160197
  34 H :   -0.159664
  35 C :    0.583451
  36 H :   -0.162157
  37 H :   -0.183713
  38 H :   -0.205783
  39 C :    0.241885
  40 C :    0.587459
  41 H :   -0.163501
  42 H :   -0.194650
  43 H :   -0.170114
  44 H :   -0.170637
  45 C :   -0.074855
  46 O :    0.461820
  47 C :    0.269960
  48 C :   -0.669176
  49 H :   -0.138499
  50 C :   -0.138297
  51 N :    0.572080
  52 H :   -0.251291
  53 O :    0.471526
  54 C :    0.613362
  55 H :   -0.160473
  56 H :   -0.159151
  57 H :   -0.179811
  58 H :   -0.119121

  Mayer bond orders larger than 0.100000
B(  0-C ,  2-C ) :   0.8021 B(  0-C ,  3-H ) :   1.5224 B(  0-C ,  4-C ) :   1.7301
B(  0-C ,  6-C ) :   0.2268 B(  0-C ,  7-H ) :  -0.3640 B(  0-C , 10-C ) :   0.1491
B(  0-C , 12-C ) :   0.1264 B(  0-C , 22-H ) :  -0.1594 B(  0-C , 27-C ) :   0.1680
B(  0-C , 45-C ) :  -0.2157 B(  0-C , 46-O ) :   0.3817 B(  0-C , 48-C ) :  -0.1605
B(  1-C ,  2-C ) :   0.3903 B(  1-C ,  3-H ) :  -0.1613 B(  1-C ,  5-C ) :   0.1711
B(  1-C ,  7-H ) :   2.5835 B(  1-C ,  8-C ) :  -0.2818 B(  1-C ,  9-C ) :  -0.1452
B(  1-C , 11-C ) :  -0.1645 B(  1-C , 16-H ) :  -0.1183 B(  1-C , 28-H ) :  -0.1068
B(  1-C , 29-H ) :   0.1001 B(  1-C , 35-C ) :   0.4988 B(  1-C , 37-H ) :   0.1428
B(  1-C , 39-C ) :   0.5518 B(  1-C , 44-H ) :  -0.2505 B(  1-C , 47-C ) :   0.1384
B(  2-C ,  4-C ) :   0.5521 B(  2-C ,  5-C ) :   0.1226 B(  2-C ,  6-C ) :  -0.5390
B(  2-C ,  7-H ) :   0.5096 B(  2-C ,  8-C ) :   0.1814 B(  2-C ,  9-C ) :   0.2100
B(  2-C , 12-C ) :   0.2324 B(  2-C , 13-H ) :   0.9180 B(  2-C , 17-C ) :   0.1043
B(  2-C , 20-C ) :  -0.1610 B(  2-C , 21-H ) :  -0.1281 B(  2-C , 26-H ) :  -0.1543
B(  2-C , 28-H ) :   0.1940 B(  2-C , 39-C ) :  -0.1520 B(  2-C , 45-C ) :   0.2019
B(  2-C , 46-O ) :  -0.2060 B(  3-H ,  4-C ) :   0.1077 B(  3-H , 39-C ) :   0.1277
B(  3-H , 45-C ) :  -0.1764 B(  3-H , 47-C ) :  -0.1062 B(  3-H , 53-O ) :  -0.1778
B(  4-C ,  6-C ) :   0.2496 B(  4-C ,  9-C ) :   0.1718 B(  4-C , 13-H ) :  -0.2440
B(  4-C , 27-C ) :  -0.1060 B(  4-C , 28-H ) :   0.1411 B(  4-C , 35-C ) :  -0.1034
B(  4-C , 45-C ) :   0.8109 B(  4-C , 46-O ) :  -1.2465 B(  4-C , 47-C ) :   0.4648
B(  4-C , 48-C ) :   0.6231 B(  4-C , 52-H ) :  -0.1078 B(  4-C , 53-O ) :   0.1193
B(  5-C ,  6-C ) :   1.1547 B(  5-C ,  7-H ) :   0.4008 B(  5-C ,  8-C ) :   1.5145
B(  5-C ,  9-C ) :   0.5688 B(  5-C , 27-C ) :   0.6209 B(  5-C , 28-H ) :  -0.7895
B(  5-C , 31-H ) :  -0.1612 B(  5-C , 39-C ) :  -0.2005 B(  5-C , 47-C ) :  -0.2198
B(  6-C ,  7-H ) :  -0.2262 B(  6-C ,  8-C ) :   0.1654 B(  6-C ,  9-C ) :   0.1251
B(  6-C , 28-H ) :   0.1100 B(  6-C , 35-C ) :   0.3956 B(  6-C , 36-H ) :  -0.1266
B(  6-C , 37-H ) :  -0.1274 B(  6-C , 38-H ) :  -0.1370 B(  6-C , 39-C ) :   0.6183
B(  6-C , 40-C ) :   0.3363 B(  6-C , 42-H ) :   0.1256 B(  6-C , 44-H ) :  -0.1380
B(  6-C , 47-C ) :   0.1234 B(  7-H ,  8-C ) :   0.3624 B(  7-H , 27-C ) :  -0.1277
B(  7-H , 39-C ) :  -0.2779 B(  7-H , 44-H ) :  -0.1040 B(  8-C ,  9-C ) :  -0.2457
B(  8-C , 10-C ) :  -0.2306 B(  8-C , 11-C ) :  -0.1140 B(  8-C , 16-H ) :   0.1014
B(  8-C , 19-H ) :  -0.2077 B(  8-C , 28-H ) :   2.8550 B(  8-C , 30-H ) :  -0.1171
B(  8-C , 45-C ) :   0.1298 B(  9-C , 10-C ) :  -0.2607 B(  9-C , 11-C ) :   0.4970
B(  9-C , 14-H ) :  -0.1573 B(  9-C , 16-H ) :  -0.1144 B(  9-C , 18-H ) :  -0.2936
B(  9-C , 28-H ) :  -0.7732 B( 10-C , 11-C ) :  -0.1745 B( 10-C , 17-C ) :   1.0329
B( 10-C , 18-H ) :   1.4695 B( 10-C , 19-H ) :   0.8361 B( 10-C , 20-C ) :   0.2687
B( 10-C , 23-C ) :  -0.1555 B( 10-C , 24-H ) :   0.1188 B( 10-C , 28-H ) :  -0.1235
B( 11-C , 14-H ) :   1.2016 B( 11-C , 15-H ) :   0.9950 B( 11-C , 16-H ) :   1.3792
B( 12-C , 20-C ) :   1.0782 B( 12-C , 21-H ) :   1.4353 B( 12-C , 22-H ) :   0.8508
B( 12-C , 45-C ) :  -0.1024 B( 13-H , 45-C ) :   0.1323 B( 13-H , 46-O ) :   0.1458
B( 14-H , 16-H ) :   0.1866 B( 17-C , 19-H ) :  -0.1031 B( 17-C , 20-C ) :   0.7430
B( 17-C , 23-C ) :   0.4603 B( 17-C , 24-H ) :   0.8813 B( 17-C , 32-H ) :  -0.1524
B( 20-C , 23-C ) :   0.1127 B( 20-C , 25-H ) :   0.8956 B( 20-C , 26-H ) :   1.2643
B( 23-C , 32-H ) :   1.1261 B( 23-C , 33-H ) :   1.0738 B( 23-C , 34-H ) :   1.1078
B( 27-C , 28-H ) :   0.1162 B( 27-C , 29-H ) :   1.1389 B( 27-C , 30-H ) :   1.0309
B( 27-C , 31-H ) :   1.1051 B( 35-C , 36-H ) :   1.0271 B( 35-C , 37-H ) :   0.9391
B( 35-C , 38-H ) :   1.2584 B( 35-C , 39-C ) :  -0.4015 B( 35-C , 40-C ) :   0.1135
B( 36-H , 38-H ) :  -0.1224 B( 38-H , 39-C ) :  -0.1133 B( 38-H , 40-C ) :   0.1072
B( 39-C , 40-C ) :   0.2836 B( 39-C , 41-H ) :  -0.1288 B( 39-C , 44-H ) :   1.3028
B( 40-C , 41-H ) :   1.1741 B( 40-C , 42-H ) :   0.8728 B( 40-C , 43-H ) :   1.0841
B( 40-C , 44-H ) :  -0.2659 B( 45-C , 46-O ) :   0.6500 B( 45-C , 47-C ) :   0.5269
B( 45-C , 48-C ) :  -0.1700 B( 45-C , 50-C ) :   0.2088 B( 45-C , 51-N ) :  -0.6998
B( 45-C , 53-O ) :   0.5694 B( 47-C , 48-C ) :   0.5128 B( 47-C , 49-H ) :   1.0138
B( 47-C , 50-C ) :   1.0438 B( 48-C , 50-C ) :  -0.1672 B( 48-C , 51-N ) :   1.3123
B( 48-C , 52-H ) :   0.4059 B( 48-C , 53-O ) :   0.1233 B( 50-C , 51-N ) :   0.8689
B( 50-C , 54-C ) :   0.6903 B( 50-C , 58-H ) :   0.8786 B( 51-N , 52-H ) :   1.1962
B( 51-N , 53-O ) :  -0.2428 B( 54-C , 55-H ) :   1.0465 B( 54-C , 56-H ) :   1.0215
B( 54-C , 57-H ) :   0.7824

MP2 TOTAL ENERGY:    -1099.237833359 Eh
FINAL SINGLE POINT ENERGY     -1099.237833359084

DIPOLE MOMENT
-------------
                                X             Y             Z
Electronic contribution:    -11.85486      -9.49566      -1.04994
Nuclear contribution   :     10.93597      10.08405       1.22303
                        -----------------------------------------
Total Dipole Moment    :     -0.91889       0.58839       0.17310
                        -----------------------------------------
Magnitude (a.u.)       :      1.10478
Magnitude (Debye)      :      2.80812

Rotational constants in cm-1:     0.012833     0.004333     0.004075
Rotational constants in MHz :   384.738627   129.887007   122.178472

                             ****ORCA TERMINATED NORMALLY****
TOTAL RUN TIME: 0 days 3 hours 46 minutes 5 seconds 412 msec
