                         Program Version 4.2.1 -  RELEASE  -
|  1> %pal
|  2>  nprocs 32
|  3> end
|  4> !RI-MP2 aug-cc-pVTZ aug-cc-pVTZ/C TightSCF
|  5> %maxcore 4500
|  6> *xyzfile 0 1  06_17P.xyz
|  7>
|  8>
|  9>                          ****END OF INPUT****

CARTESIAN COORDINATES (ANGSTROEM)
---------------------------------
  C      1.667873   -2.462403   -0.497620
  H      1.235812   -3.456192   -0.623136
  H      0.240747   -1.826575   -2.018115
  C      0.550646   -1.259276    1.088944
  O      0.194651   -0.888290    2.166956
  C     -2.100006    0.093591    0.720074
  O     -3.120109    0.950433    0.266550
  O     -1.327898    0.209494   -1.552267
  H     -4.560248    3.731986    0.149421
  H     -5.017585    2.342154   -0.847101
  H     -1.711886    4.056214    0.417408
  H     -1.034885    3.005904   -0.809703
  C     -3.334172   -2.003204    0.032465
  H      1.059459    0.416881   -2.370559
  C      2.624399    0.434626   -0.901028
  C      4.748913    0.682370    0.227789
  C      2.913393    2.109054    0.819245
  H      1.101028    1.811274   -0.278559
  H      4.848790    2.197269    1.745758
  H      4.371581   -0.737946   -1.329394
  H      2.722097   -2.480395   -0.762019
  C      0.872997   -1.389420   -1.246018
  N      0.018520   -0.915569   -0.155947
  O      1.572365   -2.105832    0.888871
  C     -1.119493   -0.163767   -0.423924
  B     -2.937718    2.266431   -0.047374
  C     -4.197740    3.017659   -0.599020
  H     -3.948948    3.611967   -1.483444
  C     -1.562712    3.007463    0.150881
  H     -0.894306    2.560496    0.890504
  C     -3.013649   -3.260856   -0.236459
  C     -2.761527   -1.216926    1.171306
  C      1.733899   -0.283994   -1.879192
  H      2.336195   -0.755090   -2.660889
  C      3.951419    0.053647   -0.717885
  C      4.229106    1.707797    1.004491
  C      2.121169    1.479922   -0.129062
  H      2.502093    2.916615    1.412713
  H      5.778848    0.371975    0.356328
  H     -2.045926   -1.814307    1.734990
  H     -3.556842   -0.923190    1.861584
  H     -3.452792   -3.792082   -1.072236
  H     -2.309907   -3.810203    0.381721
  H     -4.042212   -1.477894   -0.601689
  H     -1.561320    0.523819    1.564115

 Total Charge           Charge          ....    0
 Multiplicity           Mult            ....    1
 Number of Electrons    NEL             ....  168
 Basis Dimension        Dim             .... 1564

ORBITAL ENERGIES
----------------

  NO   OCC          E(Eh)            E(eV)
   0   2.0000     -20.621803      -561.1478
   1   2.0000     -20.561391      -559.5039
   2   2.0000     -20.554276      -559.3103
   3   2.0000     -20.550579      -559.2097
   4   2.0000     -15.627546      -425.2471
   5   2.0000     -11.426301      -310.9254
   6   2.0000     -11.377125      -309.5873
   7   2.0000     -11.316574      -307.9396
   8   2.0000     -11.305094      -307.6273
   9   2.0000     -11.303272      -307.5777
  10   2.0000     -11.248458      -306.0861
  11   2.0000     -11.245858      -306.0154
  12   2.0000     -11.240704      -305.8751
  13   2.0000     -11.239461      -305.8413
  14   2.0000     -11.239175      -305.8335
  15   2.0000     -11.236864      -305.7706
  16   2.0000     -11.236264      -305.7543
  17   2.0000     -11.236184      -305.7521
  18   2.0000     -11.235502      -305.7336
  19   2.0000     -11.224888      -305.4447
  20   2.0000     -11.191092      -304.5251
  21   2.0000     -11.180065      -304.2250
  22   2.0000      -7.603016      -206.8886
  23   2.0000      -1.498761       -40.7834
  24   2.0000      -1.426800       -38.8252
  25   2.0000      -1.392048       -37.8795
  26   2.0000      -1.375491       -37.4290
  27   2.0000      -1.276227       -34.7279
  28   2.0000      -1.167676       -31.7741
  29   2.0000      -1.101599       -29.9760
  30   2.0000      -1.087209       -29.5845
  31   2.0000      -1.034663       -28.1546
  32   2.0000      -1.023303       -27.8455
  33   2.0000      -1.014109       -27.5953
  34   2.0000      -0.961786       -26.1715
  35   2.0000      -0.956990       -26.0410
  36   2.0000      -0.928723       -25.2718
  37   2.0000      -0.921735       -25.0817
  38   2.0000      -0.878430       -23.9033
  39   2.0000      -0.865451       -23.5501
  40   2.0000      -0.836613       -22.7654
  41   2.0000      -0.806142       -21.9362
  42   2.0000      -0.780599       -21.2412
  43   2.0000      -0.764494       -20.8029
  44   2.0000      -0.738415       -20.0933
  45   2.0000      -0.726195       -19.7608
  46   2.0000      -0.713718       -19.4213
  47   2.0000      -0.704723       -19.1765
  48   2.0000      -0.684574       -18.6282
  49   2.0000      -0.665272       -18.1030
  50   2.0000      -0.654725       -17.8160
  51   2.0000      -0.647650       -17.6234
  52   2.0000      -0.646106       -17.5815
  53   2.0000      -0.630860       -17.1666
  54   2.0000      -0.624310       -16.9883
  55   2.0000      -0.616431       -16.7739
  56   2.0000      -0.612332       -16.6624
  57   2.0000      -0.604000       -16.4357
  58   2.0000      -0.593023       -16.1370
  59   2.0000      -0.586584       -15.9618
  60   2.0000      -0.584162       -15.8959
  61   2.0000      -0.578703       -15.7473
  62   2.0000      -0.562079       -15.2949
  63   2.0000      -0.560049       -15.2397
  64   2.0000      -0.553790       -15.0694
  65   2.0000      -0.542313       -14.7571
  66   2.0000      -0.530498       -14.4356
  67   2.0000      -0.525253       -14.2929
  68   2.0000      -0.522496       -14.2178
  69   2.0000      -0.516862       -14.0645
  70   2.0000      -0.506802       -13.7908
  71   2.0000      -0.504827       -13.7370
  72   2.0000      -0.496508       -13.5107
  73   2.0000      -0.494862       -13.4659
  74   2.0000      -0.488654       -13.2970
  75   2.0000      -0.485125       -13.2009
  76   2.0000      -0.471590       -12.8326
  77   2.0000      -0.466663       -12.6985
  78   2.0000      -0.442837       -12.0502
  79   2.0000      -0.428110       -11.6495
  80   2.0000      -0.424754       -11.5581
  81   2.0000      -0.369151       -10.0451
  82   2.0000      -0.344450        -9.3730
  83   2.0000      -0.337761        -9.1910
  84   0.0000       0.019921         0.5421
  85   0.0000       0.027539         0.7494
  86   0.0000       0.029011         0.7894
  87   0.0000       0.032577         0.8865
  88   0.0000       0.036916         1.0045

MULLIKEN ATOMIC CHARGES
-----------------------
   0 C :   -0.561602
   1 H :    0.208801
   2 H :    0.217779
   3 C :    0.537127
   4 O :   -1.119486
   5 C :    1.122172
   6 O :   -0.786663
   7 O :   -1.483701
   8 H :    0.272253
   9 H :    0.346124
  10 H :    0.192348
  11 H :    0.279773
  12 C :    0.062730
  13 H :    0.305338
  14 C :    1.025955
  15 C :   -0.523206
  16 C :   -0.670084
  17 H :    0.624279
  18 H :    0.496331
  19 H :    0.071847
  20 H :    0.381068
  21 C :   -0.105163
  22 N :    1.295260
  23 O :   -0.524543
  24 C :    0.591687
  25 B :    0.015844
  26 C :   -1.088746
  27 H :    0.265996
  28 C :   -1.032031
  29 H :    0.422383
  30 C :   -1.246442
  31 C :   -0.255788
  32 C :   -0.328452
  33 H :    0.230224
  34 C :   -1.056119
  35 C :   -0.228396
  36 C :   -0.548325
  37 H :    0.371342
  38 H :    0.565849
  39 H :    0.157071
  40 H :    0.322449
  41 H :    0.395916
  42 H :    0.323551
  43 H :    0.187965
  44 H :    0.269280
Sum of atomic charges:    0.0000000

LOEWDIN ATOMIC CHARGES
----------------------
   0 C :    0.130758
   1 H :   -0.133779
   2 H :   -0.120677
   3 C :   -0.924429
   4 O :    0.498526
   5 C :   -0.258571
   6 O :    0.659632
   7 O :    0.544688
   8 H :   -0.186231
   9 H :   -0.191145
  10 H :   -0.178149
  11 H :   -0.180096
  12 C :    0.185688
  13 H :   -0.158069
  14 C :   -0.109911
  15 C :    0.206732
  16 C :    0.215264
  17 H :   -0.200352
  18 H :   -0.181417
  19 H :   -0.174750
  20 H :   -0.157749
  21 C :   -0.073968
  22 N :    0.278732
  23 O :    0.622662
  24 C :   -0.613375
  25 B :   -0.627787
  26 C :    0.681535
  27 H :   -0.186883
  28 C :    0.685794
  29 H :   -0.200649
  30 C :    0.533360
  31 C :    0.269898
  32 C :    0.316097
  33 H :   -0.138581
  34 C :    0.212596
  35 C :    0.202634
  36 C :    0.219217
  37 H :   -0.175285
  38 H :   -0.179412
  39 H :   -0.186823
  40 H :   -0.133443
  41 H :   -0.222666
  42 H :   -0.216301
  43 H :   -0.170560
  44 H :   -0.182754

  Mayer bond orders larger than 0.100000
B(  0-C ,  1-H ) :   1.0781 B(  0-C , 20-H ) :   0.9702 B(  0-C , 21-C ) :   1.0564
B(  0-C , 22-N ) :  -0.1354 B(  0-C , 23-O ) :   0.7647 B(  1-H , 23-O ) :   0.1001
B(  2-H , 21-C ) :   1.0859 B(  3-C ,  4-O ) :   1.2849 B(  3-C , 22-N ) :   0.4414
B(  3-C , 23-O ) :   0.7455 B(  4-O , 23-O ) :  -0.2953 B(  5-C ,  6-O ) :  -0.1942
B(  5-C ,  7-O ) :   0.1179 B(  5-C , 22-N ) :  -0.1345 B(  5-C , 24-C ) :   0.6230
B(  5-C , 25-B ) :  -0.1382 B(  5-C , 31-C ) :   0.8942 B(  5-C , 44-H ) :   0.9961
B(  6-O , 24-C ) :   0.2883 B(  6-O , 25-B ) :   1.2104 B(  6-O , 31-C ) :  -0.1070
B(  7-O , 22-N ) :  -0.1143 B(  7-O , 24-C ) :   0.4029 B(  8-H , 26-C ) :   0.9334
B(  9-H , 26-C ) :   0.8490 B( 10-H , 28-C ) :   1.0293 B( 11-H , 25-B ) :   0.1461
B( 11-H , 28-C ) :   0.8910 B( 12-C , 22-N ) :  -0.1320 B( 12-C , 24-C ) :   0.1585
B( 12-C , 30-C ) :   1.1387 B( 12-C , 31-C ) :   0.8239 B( 12-C , 43-H ) :   1.0878
B( 13-H , 14-C ) :  -0.1166 B( 13-H , 32-C ) :   1.0456 B( 14-C , 15-C ) :   0.1418
B( 14-C , 16-C ) :   0.2398 B( 14-C , 18-H ) :   0.1129 B( 14-C , 22-N ) :   0.2800
B( 14-C , 32-C ) :   0.2220 B( 14-C , 33-H ) :  -0.1408 B( 14-C , 34-C ) :   0.2571
B( 14-C , 36-C ) :   0.8280 B( 15-C , 16-C ) :   0.1689 B( 15-C , 18-H ) :  -0.1364
B( 15-C , 34-C ) :   1.2250 B( 15-C , 35-C ) :   1.0617 B( 15-C , 38-H ) :   0.5975
B( 16-C , 35-C ) :   1.0865 B( 16-C , 36-C ) :   1.3238 B( 16-C , 37-H ) :   0.9103
B( 17-H , 36-C ) :   0.5270 B( 18-H , 35-C ) :   0.7223 B( 19-H , 32-C ) :  -0.1636
B( 19-H , 34-C ) :   1.3879 B( 21-C , 22-N ) :   0.7152 B( 21-C , 23-O ) :   0.1485
B( 21-C , 32-C ) :   0.7688 B( 22-N , 23-O ) :  -0.3466 B( 22-N , 24-C ) :   1.0309
B( 22-N , 30-C ) :  -0.1493 B( 24-C , 28-C ) :  -0.1078 B( 24-C , 30-C ) :   0.1801
B( 24-C , 31-C ) :   0.1379 B( 24-C , 32-C ) :  -0.1043 B( 25-B , 26-C ) :   0.9129
B( 25-B , 28-C ) :   1.1511 B( 26-C , 27-H ) :   0.9516 B( 28-C , 29-H ) :   0.7980
B( 30-C , 41-H ) :   0.8021 B( 30-C , 42-H ) :   1.0392 B( 31-C , 39-H ) :   1.0812
B( 31-C , 40-H ) :   0.9605 B( 32-C , 33-H ) :   1.0446 B( 32-C , 34-C ) :   0.2883
B( 32-C , 36-C ) :   0.2893 B( 34-C , 36-C ) :  -0.1089 B( 34-C , 38-H ) :  -0.1013

MP2 TOTAL ENERGY:    -1039.670073152 Eh
FINAL SINGLE POINT ENERGY     -1039.670073151856

DIPOLE MOMENT
-------------
                                X             Y             Z
Electronic contribution:      6.55647      -5.21091       3.57550
Nuclear contribution   :     -5.62120       4.61708      -4.28176
                        -----------------------------------------
Total Dipole Moment    :      0.93526      -0.59383      -0.70626
                        -----------------------------------------
Magnitude (a.u.)       :      1.31383
Magnitude (Debye)      :      3.33949

Rotational constants in cm-1:     0.013267     0.006775     0.005382
Rotational constants in MHz :   397.746206   203.122190   161.339251

                             ****ORCA TERMINATED NORMALLY****
TOTAL RUN TIME: 0 days 1 hours 20 minutes 39 seconds 345 msec
