                         Program Version 4.2.1 -  RELEASE  -
|  1> %pal
|  2>  nprocs 32
|  3> end
|  4> !RI-MP2 aug-cc-pVTZ aug-cc-pVTZ/C TightSCF
|  5> %maxcore 4500
|  6> *xyzfile -1 1  07_2P.xyz
|  7>
|  8>
|  9>                          ****END OF INPUT****

CARTESIAN COORDINATES (ANGSTROEM)
---------------------------------
  O     -2.349655    0.729112   -0.000033
  O     -2.266830   -1.494804    0.000010
  O     -0.310623    2.088807   -0.000039
  C     -1.691245   -0.420454    0.000000
  C     -0.208968   -0.286849    0.000009
  C      0.394189    1.011432    0.000004
  C      1.817395    1.046072   -0.000004
  H      2.288064    2.023009   -0.000021
  C      2.566504   -0.108561    0.000012
  H      3.650989   -0.036526    0.000011
  C      1.959057   -1.371019    0.000031
  C      0.577333   -1.435770    0.000025
  H      2.558335   -2.273967    0.000044
  H      0.060119   -2.388817    0.000035
  H     -1.626227    1.482275   -0.000039

 Total Charge           Charge          ....   -1
 Multiplicity           Mult            ....    1
 Number of Electrons    NEL             ....   72
 Basis Dimension        Dim             ....  575

ORBITAL ENERGIES
----------------

  NO   OCC          E(Eh)            E(eV)
   0   2.0000     -20.406535      -555.2900
   1   2.0000     -20.363398      -554.1162
   2   2.0000     -20.348826      -553.7197
   3   2.0000     -11.209202      -305.0179
   4   2.0000     -11.151990      -303.4611
   5   2.0000     -11.111514      -302.3597
   6   2.0000     -11.103276      -302.1355
   7   2.0000     -11.081869      -301.5530
   8   2.0000     -11.077645      -301.4381
   9   2.0000     -11.073184      -301.3167
  10   2.0000      -1.273478       -34.6531
  11   2.0000      -1.189580       -32.3701
  12   2.0000      -1.161884       -31.6165
  13   2.0000      -0.998435       -27.1688
  14   2.0000      -0.885917       -24.1070
  15   2.0000      -0.846230       -23.0271
  16   2.0000      -0.715785       -19.4775
  17   2.0000      -0.667099       -18.1527
  18   2.0000      -0.639764       -17.4089
  19   2.0000      -0.573791       -15.6136
  20   2.0000      -0.530895       -14.4464
  21   2.0000      -0.514529       -14.0010
  22   2.0000      -0.469352       -12.7717
  23   2.0000      -0.465713       -12.6727
  24   2.0000      -0.455355       -12.3908
  25   2.0000      -0.440290       -11.9809
  26   2.0000      -0.415029       -11.2935
  27   2.0000      -0.389694       -10.6041
  28   2.0000      -0.383591       -10.4380
  29   2.0000      -0.359503        -9.7826
  30   2.0000      -0.321679        -8.7533
  31   2.0000      -0.294269        -8.0075
  32   2.0000      -0.281063        -7.6481
  33   2.0000      -0.252423        -6.8688
  34   2.0000      -0.207177        -5.6376
  35   2.0000      -0.140965        -3.8358
  36   0.0000       0.105941         2.8828
  37   0.0000       0.112699         3.0667
  38   0.0000       0.125080         3.4036
  39   0.0000       0.134928         3.6716
  40   0.0000       0.144631         3.9356

MULLIKEN ATOMIC CHARGES
-----------------------
   0 O :   -0.597167
   1 O :   -0.899104
   2 O :   -1.106376
   3 C :    0.422380
   4 C :    1.369727
   5 C :    0.565450
   6 C :   -0.745740
   7 H :    0.561711
   8 C :   -0.329714
   9 H :    0.315963
  10 C :   -0.562191
  11 C :   -0.947865
  12 H :    0.544693
  13 H :    0.127521
  14 H :    0.280714
Sum of atomic charges:   -1.0000000

LOEWDIN ATOMIC CHARGES
----------------------
   0 O :    0.775149
   1 O :    0.366348
   2 O :    0.501738
   3 C :   -0.883617
   4 C :   -0.136056
   5 C :   -0.548817
   6 C :    0.176233
   7 H :   -0.211112
   8 C :    0.131719
   9 H :   -0.195499
  10 C :    0.148431
  11 C :    0.145892
  12 H :   -0.220155
  13 H :   -0.197520
  14 H :   -0.852735

  Mayer bond orders larger than 0.100000
B(  0-O ,  3-C ) :   1.0334 B(  0-O ,  4-C ) :  -0.1052 B(  0-O , 14-H ) :   0.6873
B(  1-O ,  3-C ) :   1.3048 B(  2-O ,  5-C ) :   0.7522 B(  2-O ,  6-C ) :   0.1417
B(  2-O , 14-H ) :   0.3394 B(  3-C ,  4-C ) :   0.3127 B(  3-C ,  5-C ) :   0.1918
B(  3-C , 11-C ) :   0.1077 B(  4-C ,  5-C ) :   0.8516 B(  4-C ,  6-C ) :   0.1415
B(  4-C , 11-C ) :   0.4945 B(  4-C , 13-H ) :  -0.1574 B(  5-C ,  6-C ) :   1.1583
B(  5-C ,  8-C ) :  -0.2171 B(  5-C ,  9-H ) :   0.2395 B(  5-C , 11-C ) :  -0.1172
B(  6-C ,  7-H ) :   0.5179 B(  6-C ,  8-C ) :   1.2255 B(  6-C ,  9-H ) :  -0.1438
B(  6-C , 10-C ) :   0.1306 B(  8-C ,  9-H ) :   0.9807 B(  8-C , 10-C ) :   1.1401
B(  8-C , 11-C ) :  -0.1556 B(  9-H , 10-C ) :  -0.2234 B(  9-H , 11-C ) :   0.1515
B( 10-C , 11-C ) :   1.2743 B( 10-C , 12-H ) :   0.6909 B( 10-C , 13-H ) :  -0.1008
B( 11-C , 12-H ) :  -0.2247 B( 11-C , 13-H ) :   1.3777

MP2 TOTAL ENERGY:     -494.672713350 Eh
FINAL SINGLE POINT ENERGY      -494.672713349521

DIPOLE MOMENT
-------------
                                X             Y             Z
Electronic contribution:     -4.74107       0.71140      -0.00000
Nuclear contribution   :      6.66513      -1.14090       0.00003
                        -----------------------------------------
Total Dipole Moment    :      1.92405      -0.42951       0.00003
                        -----------------------------------------
Magnitude (a.u.)       :      1.97141
Magnitude (Debye)      :      5.01092

Rotational constants in cm-1:     0.081320     0.041579     0.027512
Rotational constants in MHz :  2437.923297  1246.509859   824.793203

                             ****ORCA TERMINATED NORMALLY****
TOTAL RUN TIME: 0 days 0 hours 3 minutes 25 seconds 248 msec
