                         Program Version 4.2.1 -  RELEASE  -
|  1> %pal
|  2>  nprocs 32
|  3> end
|  4> !RI-MP2 aug-cc-pVTZ aug-cc-pVTZ/C TightSCF
|  5> %maxcore 4500
|  6> *xyzfile -1 1  08_14P2.xyz
|  7>
|  8>
|  9>                          ****END OF INPUT****

CARTESIAN COORDINATES (ANGSTROEM)
---------------------------------
  C     -1.494859    1.213853    0.000000
  C     -0.129476    1.232786    0.000002
  C      0.632225    0.042640    0.000004
  C     -0.074205   -1.181600    0.000000
  C     -1.440076   -1.221228   -0.000001
  C     -2.250867   -0.021496    0.000006
  H      0.407227    2.175687    0.000001
  H      0.491799   -2.106368   -0.000001
  H     -1.970110   -2.167892   -0.000006
  C      2.063074    0.118671    0.000007
  O      2.760798    1.123330    0.000001
  O      2.698788   -1.105597   -0.000002
  H      3.636440   -0.880783   -0.000005
  O     -3.501312   -0.050035   -0.000012
  H     -2.066428    2.136016   -0.000003

 Total Charge           Charge          ....   -1
 Multiplicity           Mult            ....    1
 Number of Electrons    NEL             ....   72
 Basis Dimension        Dim             ....  575

ORBITAL ENERGIES
----------------

  NO   OCC          E(Eh)            E(eV)
   0   2.0000     -20.469500      -557.0034
   1   2.0000     -20.391813      -554.8894
   2   2.0000     -20.330084      -553.2097
   3   2.0000     -11.236358      -305.7568
   4   2.0000     -11.140447      -303.1470
   5   2.0000     -11.101542      -302.0883
   6   2.0000     -11.098632      -302.0091
   7   2.0000     -11.067591      -301.1645
   8   2.0000     -11.060829      -300.9805
   9   2.0000     -11.060427      -300.9695
  10   2.0000      -1.314594       -35.7719
  11   2.0000      -1.203051       -32.7367
  12   2.0000      -1.165371       -31.7114
  13   2.0000      -0.989691       -26.9309
  14   2.0000      -0.868169       -23.6241
  15   2.0000      -0.855103       -23.2685
  16   2.0000      -0.717901       -19.5351
  17   2.0000      -0.675422       -18.3792
  18   2.0000      -0.630965       -17.1694
  19   2.0000      -0.567230       -15.4351
  20   2.0000      -0.556698       -15.1485
  21   2.0000      -0.489122       -13.3097
  22   2.0000      -0.487619       -13.2688
  23   2.0000      -0.483654       -13.1609
  24   2.0000      -0.471983       -12.8433
  25   2.0000      -0.436269       -11.8715
  26   2.0000      -0.424973       -11.5641
  27   2.0000      -0.387204       -10.5363
  28   2.0000      -0.381079       -10.3697
  29   2.0000      -0.349685        -9.5154
  30   2.0000      -0.348321        -9.4783
  31   2.0000      -0.308574        -8.3967
  32   2.0000      -0.294256        -8.0071
  33   2.0000      -0.230760        -6.2793
  34   2.0000      -0.203355        -5.5336
  35   2.0000      -0.121460        -3.3051
  36   0.0000       0.109408         2.9771
  37   0.0000       0.121029         3.2934
  38   0.0000       0.124792         3.3958
  39   0.0000       0.134303         3.6546
  40   0.0000       0.135578         3.6893

MULLIKEN ATOMIC CHARGES
-----------------------
   0 C :   -0.650738
   1 C :   -0.968323
   2 C :    1.670748
   3 C :   -0.700132
   4 C :   -0.799626
   5 C :    1.163500
   6 H :    0.307288
   7 H :    0.377710
   8 H :    0.409034
   9 C :    0.274470
  10 O :   -0.986673
  11 O :   -0.490324
  12 H :    0.229012
  13 O :   -1.265635
  14 H :    0.429688
Sum of atomic charges:   -1.0000000

LOEWDIN ATOMIC CHARGES
----------------------
   0 C :    0.168402
   1 C :    0.137989
   2 C :   -0.205617
   3 C :    0.135393
   4 C :    0.165867
   5 C :   -0.682414
   6 H :   -0.192417
   7 H :   -0.204368
   8 H :   -0.220360
   9 C :   -0.867178
  10 O :    0.393403
  11 O :    0.802896
  12 H :   -0.524941
  13 O :    0.312809
  14 H :   -0.219465

  Mayer bond orders larger than 0.100000
B(  0-C ,  1-C ) :   1.5662 B(  0-C ,  3-C ) :  -0.1474 B(  0-C ,  4-C ) :   0.2333
B(  0-C ,  5-C ) :   0.9987 B(  0-C , 14-H ) :   0.7485 B(  1-C ,  2-C ) :   0.3366
B(  1-C ,  4-C ) :  -0.1061 B(  1-C ,  6-H ) :   0.8731 B(  1-C ,  7-H ) :   0.1141
B(  1-C ,  9-C ) :   0.2458 B(  2-C ,  3-C ) :   0.4257 B(  2-C ,  9-C ) :   0.1798
B(  3-C ,  4-C ) :   1.4668 B(  3-C ,  7-H ) :   0.8384 B(  3-C ,  9-C ) :   0.1826
B(  4-C ,  5-C ) :   1.0198 B(  4-C ,  8-H ) :   0.7727 B(  5-C , 13-O ) :   0.4950
B(  9-C , 10-O ) :   1.1573 B(  9-C , 11-O ) :   0.9394 B( 11-O , 12-H ) :   0.9508

MP2 TOTAL ENERGY:     -494.652348155 Eh
FINAL SINGLE POINT ENERGY      -494.652348154616

DIPOLE MOMENT
-------------
                                X             Y             Z
Electronic contribution:      1.67958       0.26140       0.00003
Nuclear contribution   :      0.51523      -0.82064      -0.00001
                        -----------------------------------------
Total Dipole Moment    :      2.19481      -0.55924       0.00001
                        -----------------------------------------
Magnitude (a.u.)       :      2.26494
Magnitude (Debye)      :      5.75701

Rotational constants in cm-1:     0.129726     0.026956     0.022318
Rotational constants in MHz :  3889.082647   808.118210   669.087528

                             ****ORCA TERMINATED NORMALLY****
TOTAL RUN TIME: 0 days 0 hours 3 minutes 34 seconds 140 msec
