                         Program Version 4.2.1 -  RELEASE  -
|  1> %pal
|  2>  nprocs 32
|  3> end
|  4> !RI-MP2 aug-cc-pVTZ aug-cc-pVTZ/C TightSCF
|  5> %maxcore 4500
|  6> *xyzfile 0 1  06_8R1.xyz
|  7>
|  8>
|  9>                          ****END OF INPUT****

CARTESIAN COORDINATES (ANGSTROEM)
---------------------------------
  C     -0.658352   -1.465003   -0.000034
  C      0.150316   -0.329021   -0.000061
  C     -0.386738    0.977916   -0.000009
  C     -1.776468    1.138041    0.000025
  C     -2.580947    0.016468    0.000033
  C     -2.026250   -1.273621    0.000010
  H     -0.235250   -2.462193   -0.000034
  H     -2.213978    2.129575    0.000049
  H     -3.658349    0.128201    0.000064
  H     -2.684072   -2.134255    0.000031
  C      0.727145    1.880800   -0.000015
  C      1.853552    1.115402   -0.000040
  H      2.890810    1.412765   -0.000053
  N      1.521658   -0.222077   -0.000121
  H      0.693126    2.958249   -0.000021
  C      2.444036   -1.331776    0.000138
  H      2.307489   -1.953691   -0.887991
  H      3.462347   -0.946800   -0.000711
  H      2.308497   -1.952552    0.889228

 Total Charge           Charge          ....    0
 Multiplicity           Mult            ....    1
 Number of Electrons    NEL             ....   70
 Basis Dimension        Dim             ....  667

ORBITAL ENERGIES
----------------

  NO   OCC          E(Eh)            E(eV)
   0   2.0000     -15.602064      -424.5537
   1   2.0000     -11.274719      -306.8007
   2   2.0000     -11.266064      -306.5652
   3   2.0000     -11.258346      -306.3552
   4   2.0000     -11.228072      -305.5314
   5   2.0000     -11.226753      -305.4955
   6   2.0000     -11.225544      -305.4626
   7   2.0000     -11.221982      -305.3657
   8   2.0000     -11.217656      -305.2479
   9   2.0000     -11.212366      -305.1040
  10   2.0000      -1.306891       -35.5623
  11   2.0000      -1.136133       -30.9157
  12   2.0000      -1.074256       -29.2320
  13   2.0000      -1.011256       -27.5177
  14   2.0000      -0.979028       -26.6407
  15   2.0000      -0.933283       -25.3959
  16   2.0000      -0.837088       -22.7783
  17   2.0000      -0.797079       -21.6896
  18   2.0000      -0.772462       -21.0198
  19   2.0000      -0.700493       -19.0614
  20   2.0000      -0.663642       -18.0586
  21   2.0000      -0.647492       -17.6191
  22   2.0000      -0.641085       -17.4448
  23   2.0000      -0.608073       -16.5465
  24   2.0000      -0.588127       -16.0038
  25   2.0000      -0.579144       -15.7593
  26   2.0000      -0.559498       -15.2247
  27   2.0000      -0.541351       -14.7309
  28   2.0000      -0.540667       -14.7123
  29   2.0000      -0.505106       -13.7446
  30   2.0000      -0.479284       -13.0420
  31   2.0000      -0.458002       -12.4629
  32   2.0000      -0.379264       -10.3203
  33   2.0000      -0.298006        -8.1092
  34   2.0000      -0.281121        -7.6497
  35   0.0000       0.025464         0.6929
  36   0.0000       0.031654         0.8614
  37   0.0000       0.034182         0.9301
  38   0.0000       0.044366         1.2073
  39   0.0000       0.044635         1.2146

MULLIKEN ATOMIC CHARGES
-----------------------
   0 C :   -0.781865
   1 C :    0.674818
   2 C :    1.007690
   3 C :   -0.953092
   4 C :   -0.468655
   5 C :   -0.371994
   6 H :    0.407843
   7 H :   -0.026209
   8 H :    0.682471
   9 H :    0.380481
  10 C :   -1.049950
  11 C :   -0.690092
  12 H :    0.821322
  13 N :    0.024760
  14 H :    0.479812
  15 C :   -1.120961
  16 H :    0.328152
  17 H :    0.327361
  18 H :    0.328111
Sum of atomic charges:    0.0000000

LOEWDIN ATOMIC CHARGES
----------------------
   0 C :    0.233320
   1 C :   -0.226873
   2 C :   -0.136213
   3 C :    0.221755
   4 C :    0.182980
   5 C :    0.184171
   6 H :   -0.182350
   7 H :   -0.176781
   8 H :   -0.193663
   9 H :   -0.189271
  10 C :    0.236292
  11 C :    0.132276
  12 H :   -0.163853
  13 N :    0.223778
  14 H :   -0.189511
  15 C :    0.516347
  16 H :   -0.153192
  17 H :   -0.166059
  18 H :   -0.153153

  Mayer bond orders larger than 0.100000
B(  0-C ,  1-C ) :   0.7937 B(  0-C ,  2-C ) :   0.2004 B(  0-C ,  3-C ) :   0.1493
B(  0-C ,  4-C ) :   0.3467 B(  0-C ,  5-C ) :   1.2184 B(  0-C ,  6-H ) :   0.7809
B(  0-C ,  9-H ) :  -0.1713 B(  0-C , 13-N ) :  -0.3537 B(  1-C ,  3-C ) :  -0.5331
B(  1-C ,  5-C ) :  -0.4100 B(  1-C ,  6-H ) :  -0.2327 B(  1-C ,  7-H ) :   0.4852
B(  1-C ,  8-H ) :  -0.1647 B(  1-C ,  9-H ) :   0.1135 B(  1-C , 10-C ) :   0.1820
B(  1-C , 11-C ) :   0.1468 B(  1-C , 13-N ) :   0.7565 B(  1-C , 14-H ) :  -0.1355
B(  1-C , 15-C ) :  -0.1883 B(  2-C ,  3-C ) :   0.5796 B(  2-C ,  4-C ) :   0.3059
B(  2-C ,  7-H ) :  -0.1959 B(  2-C ,  8-H ) :  -0.1423 B(  2-C , 10-C ) :   0.9067
B(  2-C , 11-C ) :  -0.1948 B(  2-C , 13-N ) :  -0.3712 B(  3-C ,  4-C ) :   1.0729
B(  3-C ,  5-C ) :  -0.4189 B(  3-C ,  6-H ) :   0.1403 B(  3-C ,  7-H ) :   1.8798
B(  3-C ,  8-H ) :  -0.1082 B(  3-C ,  9-H ) :   0.1052 B(  3-C , 10-C ) :   0.3163
B(  3-C , 11-C ) :  -0.1966 B(  3-C , 14-H ) :   0.1687 B(  4-C ,  5-C ) :   0.9508
B(  4-C ,  7-H ) :  -0.1651 B(  4-C ,  8-H ) :   0.3872 B(  4-C ,  9-H ) :  -0.2329
B(  4-C , 10-C ) :   0.2392 B(  5-C ,  9-H ) :   0.9075 B(  5-C , 10-C ) :   0.1670
B(  6-H , 10-C ) :  -0.1733 B(  6-H , 13-N ) :   0.1032 B(  7-H ,  8-H ) :  -0.1035
B(  7-H , 10-C ) :  -0.2240 B(  8-H , 11-C ) :   0.1391 B(  9-H , 13-N ) :  -0.1145
B( 10-C , 11-C ) :   1.2307 B( 10-C , 13-N ) :  -0.2590 B( 10-C , 14-H ) :   0.8702
B( 11-C , 12-H ) :   0.1869 B( 11-C , 13-N ) :   1.2239 B( 13-N , 15-C ) :   1.1709
B( 15-C , 16-H ) :   0.9565 B( 15-C , 17-H ) :   0.9205 B( 15-C , 18-H ) :   0.9564

MP2 TOTAL ENERGY:     -402.297540262 Eh
FINAL SINGLE POINT ENERGY      -402.297540262088

DIPOLE MOMENT
-------------
                                X             Y             Z
Electronic contribution:     -2.04493       2.45131      -0.00051
Nuclear contribution   :      2.88585      -2.82818       0.00056
                        -----------------------------------------
Total Dipole Moment    :      0.84093      -0.37687       0.00005
                        -----------------------------------------
Magnitude (a.u.)       :      0.92152
Magnitude (Debye)      :      2.34231

Rotational constants in cm-1:     0.089123     0.043737     0.029502
Rotational constants in MHz :  2671.836662  1311.192707   884.455606

                             ****ORCA TERMINATED NORMALLY****
TOTAL RUN TIME: 0 days 0 hours 5 minutes 21 seconds 382 msec
