                         Program Version 4.2.1 -  RELEASE  -
|  1> %pal
|  2>  nprocs 32
|  3> end
|  4> !RI-MP2 aug-cc-pVTZ aug-cc-pVTZ/C TightSCF
|  5> %maxcore 4500
|  6> *xyzfile -1 1  08_7TS.xyz
|  7>
|  8>
|  9>                          ****END OF INPUT****

CARTESIAN COORDINATES (ANGSTROEM)
---------------------------------
  S      3.751951   -1.742422   -0.687728
  C      4.245893   -0.699419    0.731082
  C      4.065158    0.807748    0.498886
  H      5.304471   -0.869159    0.940525
  H      3.684215   -0.982870    1.622447
  N      4.901407    1.263099   -0.597969
  C      2.596884    1.167764    0.308115
  H      4.367680    1.322425    1.423095
  O      2.198334    1.911617   -0.570930
  O      1.798262    0.634781    1.213013
  C      1.266028   -1.913422   -0.180742
  O     -0.530597   -1.998426    0.228682
  H      1.291636   -2.925452   -0.540746
  H      1.591222   -1.710705    0.819914
  H      1.180881   -1.107764   -0.883195
  C     -1.218301   -0.932895    0.175912
  C     -2.642414   -0.942927    0.102674
  N     -0.635559    0.292247    0.172284
  C     -1.367805    1.412703   -0.010942
  C     -3.264646    0.288493   -0.037143
  N     -2.691657    1.493989   -0.121791
  N     -3.579959   -1.959418    0.109979
  C     -4.722021   -1.355071   -0.013661
  N     -4.606217    0.018308   -0.115314
  H     -5.689698   -1.835514   -0.045210
  C     -5.658335    0.997457   -0.238587
  H     -5.862991    1.483487    0.718392
  H     -6.565097    0.506554   -0.592362
  H     -5.358326    1.761642   -0.955208
  N     -0.652691    2.573920   -0.062660
  H     -1.164625    3.376535   -0.386739
  H      0.330287    2.497129   -0.319035
  H      0.847901    0.584196    0.852133
  H      4.486190    2.094845   -1.004511
  H      4.847136    0.542040   -1.317227

 Total Charge           Charge          ....   -1
 Multiplicity           Mult            ....    1
 Number of Electrons    NEL             ....  158
 Basis Dimension        Dim             .... 1269

ORBITAL ENERGIES
----------------

  NO   OCC          E(Eh)            E(eV)
   0   2.0000     -91.728380     -2496.0561
   1   2.0000     -20.460528      -556.7593
   2   2.0000     -20.427357      -555.8566
   3   2.0000     -20.423143      -555.7420
   4   2.0000     -15.527668      -422.5293
   5   2.0000     -15.461640      -420.7326
   6   2.0000     -15.459057      -420.6623
   7   2.0000     -15.439209      -420.1222
   8   2.0000     -15.436629      -420.0520
   9   2.0000     -15.411987      -419.3815
  10   2.0000     -11.254323      -306.2457
  11   2.0000     -11.248137      -306.0774
  12   2.0000     -11.240470      -305.8687
  13   2.0000     -11.208423      -304.9967
  14   2.0000     -11.206563      -304.9461
  15   2.0000     -11.201625      -304.8117
  16   2.0000     -11.186013      -304.3869
  17   2.0000     -11.143978      -303.2431
  18   2.0000     -11.130361      -302.8725
  19   2.0000     -11.110344      -302.3278
  20   2.0000      -8.729730      -237.5480
  21   2.0000      -6.411237      -174.4586
  22   2.0000      -6.409752      -174.4182
  23   2.0000      -6.409595      -174.4139
  24   2.0000      -1.333047       -36.2741
  25   2.0000      -1.278305       -34.7844
  26   2.0000      -1.259052       -34.2606
  27   2.0000      -1.228691       -33.4344
  28   2.0000      -1.201743       -32.7011
  29   2.0000      -1.107493       -30.1364
  30   2.0000      -1.082218       -29.4487
  31   2.0000      -1.066247       -29.0141
  32   2.0000      -1.059847       -28.8399
  33   2.0000      -0.919056       -25.0088
  34   2.0000      -0.891296       -24.2534
  35   2.0000      -0.889529       -24.2053
  36   2.0000      -0.841014       -22.8852
  37   2.0000      -0.787662       -21.4334
  38   2.0000      -0.775294       -21.0968
  39   2.0000      -0.752208       -20.4686
  40   2.0000      -0.695737       -18.9320
  41   2.0000      -0.686534       -18.6815
  42   2.0000      -0.656027       -17.8514
  43   2.0000      -0.632357       -17.2073
  44   2.0000      -0.614473       -16.7206
  45   2.0000      -0.587155       -15.9773
  46   2.0000      -0.583290       -15.8721
  47   2.0000      -0.574014       -15.6197
  48   2.0000      -0.568296       -15.4641
  49   2.0000      -0.544912       -14.8278
  50   2.0000      -0.543515       -14.7898
  51   2.0000      -0.535847       -14.5811
  52   2.0000      -0.522453       -14.2167
  53   2.0000      -0.517929       -14.0936
  54   2.0000      -0.516268       -14.0484
  55   2.0000      -0.499043       -13.5797
  56   2.0000      -0.494538       -13.4571
  57   2.0000      -0.486173       -13.2294
  58   2.0000      -0.472337       -12.8529
  59   2.0000      -0.460737       -12.5373
  60   2.0000      -0.452010       -12.2998
  61   2.0000      -0.437530       -11.9058
  62   2.0000      -0.425236       -11.5713
  63   2.0000      -0.416630       -11.3371
  64   2.0000      -0.401962       -10.9379
  65   2.0000      -0.388399       -10.5689
  66   2.0000      -0.359792        -9.7904
  67   2.0000      -0.353923        -9.6307
  68   2.0000      -0.346836        -9.4379
  69   2.0000      -0.333534        -9.0759
  70   2.0000      -0.329536        -8.9671
  71   2.0000      -0.306593        -8.3428
  72   2.0000      -0.301243        -8.1972
  73   2.0000      -0.291314        -7.9271
  74   2.0000      -0.272885        -7.4256
  75   2.0000      -0.270812        -7.3692
  76   2.0000      -0.189165        -5.1474
  77   2.0000      -0.159484        -4.3398
  78   2.0000      -0.156058        -4.2466
  79   0.0000       0.078487         2.1357
  80   0.0000       0.092854         2.5267
  81   0.0000       0.099073         2.6959
  82   0.0000       0.104297         2.8381
  83   0.0000       0.112666         3.0658

MULLIKEN ATOMIC CHARGES
-----------------------
   0 S :   -0.876172
   1 C :   -0.325583
   2 C :    0.544859
   3 H :    0.317222
   4 H :    0.144415
   5 N :   -0.810351
   6 C :    0.780403
   7 H :    0.346021
   8 O :   -1.070751
   9 O :   -0.725786
  10 C :   -0.814098
  11 O :   -0.948358
  12 H :    0.467156
  13 H :    0.414767
  14 H :    0.420961
  15 C :   -0.405994
  16 C :    1.992380
  17 N :   -0.045163
  18 C :    0.321794
  19 C :   -0.152581
  20 N :   -0.555569
  21 N :   -1.037628
  22 C :   -0.712950
  23 N :    0.345078
  24 H :    0.670527
  25 C :   -1.049967
  26 H :    0.337208
  27 H :    0.357625
  28 H :    0.366703
  29 N :   -0.624055
  30 H :    0.016744
  31 H :    0.330381
  32 H :    0.710238
  33 H :    0.078847
  34 H :    0.191680
Sum of atomic charges:   -1.0000000

LOEWDIN ATOMIC CHARGES
----------------------
   0 S :    0.795611
   1 C :   -0.256903
   2 C :   -0.264362
   3 H :   -0.249245
   4 H :   -0.261621
   5 N :    0.815409
   6 C :   -0.792941
   7 H :   -0.153221
   8 O :    0.507851
   9 O :    0.851258
  10 C :    0.478933
  11 O :    0.522696
  12 H :   -0.237630
  13 H :   -0.281641
  14 H :   -0.276458
  15 C :   -0.647387
  16 C :   -0.316197
  17 N :    0.429121
  18 C :   -0.595960
  19 C :   -0.472214
  20 N :    0.416751
  21 N :    0.381012
  22 C :   -0.080804
  23 N :    0.231003
  24 H :   -0.181855
  25 C :    0.512119
  26 H :   -0.156061
  27 H :   -0.170708
  28 H :   -0.165751
  29 N :    0.857606
  30 H :   -0.306144
  31 H :   -0.454957
  32 H :   -0.693651
  33 H :   -0.370934
  34 H :   -0.412723

  Mayer bond orders larger than 0.100000
B(  0-S ,  1-C ) :   0.9020 B(  0-S ,  2-C ) :   0.1726 B(  0-S ,  4-H ) :   0.1086
B(  0-S , 10-C ) :   0.4037 B(  1-C ,  2-C ) :   0.9663 B(  1-C ,  3-H ) :   0.8712
B(  1-C ,  4-H ) :   1.0435 B(  1-C ,  5-N ) :   0.1064 B(  2-C ,  5-N ) :   0.3822
B(  2-C ,  6-C ) :   0.6459 B(  2-C ,  7-H ) :   0.8993 B(  5-N , 33-H ) :   1.0300
B(  5-N , 34-H ) :   0.8821 B(  6-C ,  8-O ) :   0.9716 B(  6-C ,  9-O ) :   1.0965
B(  9-O , 17-N ) :  -0.1094 B(  9-O , 32-H ) :   0.3739 B( 10-C , 11-O ) :   0.1931
B( 10-C , 12-H ) :   0.8244 B( 10-C , 13-H ) :   0.7955 B( 10-C , 14-H ) :   0.7525
B( 11-O , 13-H ) :   0.1210 B( 11-O , 14-H ) :   0.1308 B( 11-O , 15-C ) :   1.0681
B( 15-C , 16-C ) :  -1.3129 B( 15-C , 17-N ) :   1.0752 B( 15-C , 18-C ) :  -0.6181
B( 15-C , 19-C ) :   1.3479 B( 15-C , 20-N ) :   0.1265 B( 15-C , 21-N ) :   0.1690
B( 15-C , 22-C ) :  -0.1668 B( 15-C , 23-N ) :  -0.1376 B( 16-C , 17-N ) :  -0.2771
B( 16-C , 19-C ) :   1.2439 B( 16-C , 20-N ) :  -0.1397 B( 16-C , 21-N ) :  -0.7152
B( 16-C , 22-C ) :   0.1514 B( 17-N , 18-C ) :   1.1223 B( 17-N , 29-N ) :  -0.2291
B( 18-C , 19-C ) :  -0.6406 B( 18-C , 20-N ) :   0.5039 B( 18-C , 22-C ) :   0.1179
B( 18-C , 29-N ) :   1.1351 B( 18-C , 31-H ) :  -0.1534 B( 19-C , 20-N ) :   1.1184
B( 19-C , 21-N ) :   0.3597 B( 19-C , 22-C ) :  -0.8867 B( 19-C , 23-N ) :   0.6923
B( 19-C , 25-C ) :  -0.1760 B( 20-N , 23-N ) :  -0.3753 B( 20-N , 29-N ) :  -0.3723
B( 21-N , 22-C ) :   1.6003 B( 22-C , 23-N ) :   1.0984 B( 22-C , 24-H ) :   0.4323
B( 22-C , 25-C ) :  -0.1026 B( 23-N , 25-C ) :   0.9400 B( 25-C , 26-H ) :   0.9405
B( 25-C , 27-H ) :   0.9001 B( 25-C , 28-H ) :   0.8970 B( 29-N , 30-H ) :   1.1451
B( 29-N , 31-H ) :   0.8851

MP2 TOTAL ENERGY:    -1340.442711992 Eh
FINAL SINGLE POINT ENERGY     -1340.442711992196

DIPOLE MOMENT
-------------
                                X             Y             Z
Electronic contribution:     -7.71330      -2.78071       0.09925
Nuclear contribution   :      3.13949       4.74938       0.35818
                        -----------------------------------------
Total Dipole Moment    :     -4.57381       1.96867       0.45743
                        -----------------------------------------
Magnitude (a.u.)       :      5.00046
Magnitude (Debye)      :     12.71016

Rotational constants in cm-1:     0.023894     0.005172     0.004420
Rotational constants in MHz :   716.325301   155.045224   132.520954

                             ****ORCA TERMINATED NORMALLY****
TOTAL RUN TIME: 0 days 0 hours 37 minutes 14 seconds 48 msec
