                         Program Version 4.2.1 -  RELEASE  -
|  1> %pal
|  2>  nprocs 32
|  3> end
|  4> !RI-MP2 aug-cc-pVTZ aug-cc-pVTZ/C TightSCF
|  5> %maxcore 4500
|  6> *xyzfile 0 1  04_65R2.xyz
|  7>
|  8>
|  9>                          ****END OF INPUT****

CARTESIAN COORDINATES (ANGSTROEM)
---------------------------------
  C      1.021818   -1.220907    0.000050
  C     -0.370246   -1.205798    0.000014
  C     -1.022699    0.025927   -0.000029
  C     -0.322956    1.233059   -0.000035
  C      1.065095    1.191214    0.000005
  C      1.708576   -0.028498    0.000046
  H      1.568769   -2.155117    0.000083
  H      1.647953    2.103553    0.000001
  F      3.062186   -0.053383    0.000082
  O     -2.389320    0.118262   -0.000060
  H     -2.783409   -0.757434   -0.000120
  C     -1.076220    2.530558   -0.000079
  H     -0.390674    3.377747   -0.000131
  H     -1.724059    2.605178   -0.876132
  H     -1.724022    2.605260    0.875995
  C     -1.160417   -2.485426    0.000023
  H     -1.799704   -2.567880   -0.885351
  H     -0.497948   -3.349877    0.000043
  H     -1.799725   -2.567851    0.885383

 Total Charge           Charge          ....    0
 Multiplicity           Mult            ....    1
 Number of Electrons    NEL             ....   74
 Basis Dimension        Dim             ....  667

ORBITAL ENERGIES
----------------

  NO   OCC          E(Eh)            E(eV)
   0   2.0000     -26.298445      -715.6171
   1   2.0000     -20.590866      -560.3059
   2   2.0000     -11.313774      -307.8635
   3   2.0000     -11.294079      -307.3275
   4   2.0000     -11.251370      -306.1654
   5   2.0000     -11.246069      -306.0211
   6   2.0000     -11.243955      -305.9636
   7   2.0000     -11.237362      -305.7842
   8   2.0000     -11.235331      -305.7289
   9   2.0000     -11.222895      -305.3905
  10   2.0000      -1.613629       -43.9091
  11   2.0000      -1.407762       -38.3072
  12   2.0000      -1.165942       -31.7269
  13   2.0000      -1.075995       -29.2793
  14   2.0000      -1.029674       -28.0189
  15   2.0000      -0.956081       -26.0163
  16   2.0000      -0.943262       -25.6675
  17   2.0000      -0.834639       -22.7117
  18   2.0000      -0.817383       -22.2421
  19   2.0000      -0.748841       -20.3770
  20   2.0000      -0.714318       -19.4376
  21   2.0000      -0.705101       -19.1868
  22   2.0000      -0.683472       -18.5982
  23   2.0000      -0.638777       -17.3820
  24   2.0000      -0.618165       -16.8211
  25   2.0000      -0.601898       -16.3785
  26   2.0000      -0.588118       -16.0035
  27   2.0000      -0.581517       -15.8239
  28   2.0000      -0.580621       -15.7995
  29   2.0000      -0.566300       -15.4098
  30   2.0000      -0.551808       -15.0155
  31   2.0000      -0.537371       -14.6226
  32   2.0000      -0.527130       -14.3439
  33   2.0000      -0.492380       -13.3984
  34   2.0000      -0.477238       -12.9863
  35   2.0000      -0.339189        -9.2298
  36   2.0000      -0.310141        -8.4394
  37   0.0000       0.024328         0.6620
  38   0.0000       0.032058         0.8723
  39   0.0000       0.036579         0.9954
  40   0.0000       0.041150         1.1197
  41   0.0000       0.046391         1.2624

MULLIKEN ATOMIC CHARGES
-----------------------
   0 C :   -0.649051
   1 C :    0.716328
   2 C :    0.082583
   3 C :    0.677991
   4 C :   -0.583545
   5 C :    0.883866
   6 H :    0.216551
   7 H :    0.253478
   8 F :   -0.532210
   9 O :   -0.902387
  10 H :    0.177247
  11 C :   -0.939552
  12 H :    0.261187
  13 H :    0.260248
  14 H :    0.260258
  15 C :   -0.955164
  16 H :    0.259554
  17 H :    0.253058
  18 H :    0.259560
Sum of atomic charges:    0.0000000

LOEWDIN ATOMIC CHARGES
----------------------
   0 C :    0.205620
   1 C :   -0.107001
   2 C :   -0.334404
   3 C :   -0.118914
   4 C :    0.209670
   5 C :   -0.510261
   6 H :   -0.176480
   7 H :   -0.175053
   8 F :    0.485985
   9 O :    0.869180
  10 H :   -0.511537
  11 C :    0.579674
  12 H :   -0.177289
  13 H :   -0.165204
  14 H :   -0.165200
  15 C :    0.581453
  16 H :   -0.159144
  17 H :   -0.171953
  18 H :   -0.159142

  Mayer bond orders larger than 0.100000
B(  0-C ,  1-C ) :   0.7822 B(  0-C ,  2-C ) :  -0.2110 B(  0-C ,  5-C ) :   1.1229
B(  0-C ,  6-H ) :   1.0851 B(  0-C ,  8-F ) :   0.1638 B(  1-C ,  2-C ) :   1.3693
B(  1-C ,  9-O ) :  -0.2312 B(  1-C , 15-C ) :   0.4288 B(  1-C , 16-H ) :  -0.1036
B(  1-C , 18-H ) :  -0.1036 B(  2-C ,  3-C ) :   1.3748 B(  2-C ,  4-C ) :  -0.2830
B(  2-C ,  5-C ) :   0.1608 B(  2-C ,  9-O ) :   0.5982 B(  2-C , 11-C ) :   0.2421
B(  2-C , 15-C ) :   0.3514 B(  3-C ,  4-C ) :   0.9145 B(  3-C , 11-C ) :   0.4581
B(  3-C , 13-H ) :  -0.1013 B(  3-C , 14-H ) :  -0.1013 B(  4-C ,  5-C ) :   1.0715
B(  4-C ,  7-H ) :   1.0269 B(  4-C ,  8-F ) :   0.1555 B(  5-C ,  6-H ) :  -0.1540
B(  5-C ,  7-H ) :  -0.1456 B(  6-H ,  8-F ) :   0.1615 B(  7-H ,  8-F ) :   0.1485
B(  9-O , 10-H ) :   0.9988 B( 11-C , 12-H ) :   1.0053 B( 11-C , 13-H ) :   1.0135
B( 11-C , 14-H ) :   1.0134 B( 15-C , 16-H ) :   0.9989 B( 15-C , 17-H ) :   1.0496
B( 15-C , 18-H ) :   0.9989

MP2 TOTAL ENERGY:     -484.474487730 Eh
FINAL SINGLE POINT ENERGY      -484.474487729800

DIPOLE MOMENT
-------------
                                X             Y             Z
Electronic contribution:      9.64744       0.09759       0.00026
Nuclear contribution   :    -10.47575      -0.64635      -0.00031
                        -----------------------------------------
Total Dipole Moment    :     -0.82832      -0.54876      -0.00005
                        -----------------------------------------
Magnitude (a.u.)       :      0.99360
Magnitude (Debye)      :      2.52553

Rotational constants in cm-1:     0.059225     0.041662     0.024681
Rotational constants in MHz :  1775.516399  1249.006953   739.932043

                             ****ORCA TERMINATED NORMALLY****
TOTAL RUN TIME: 0 days 0 hours 5 minutes 29 seconds 540 msec
