                         Program Version 4.2.1 -  RELEASE  -
|  1> %pal
|  2>  nprocs 32
|  3> end
|  4> !RI-MP2 aug-cc-pVTZ aug-cc-pVTZ/C TightSCF
|  5> %maxcore 4500
|  6> *xyzfile 1 1  05_26TS.xyz
|  7>
|  8>
|  9>                          ****END OF INPUT****

CARTESIAN COORDINATES (ANGSTROEM)
---------------------------------
  C     -0.832411   -2.201727   -0.795017
  C     -0.483970   -1.140193    1.620924
  C      1.006999   -1.090909    1.278893
  C      1.450751   -2.221999    0.354752
  C      0.684987   -2.118125   -0.960571
  H      1.245939   -0.138819    0.802123
  H      1.562894   -1.133594    2.217568
  H      1.226650   -3.180671    0.826314
  H      0.954895   -1.175524   -1.435374
  H      0.989456   -2.920004   -1.636148
  N     -1.271333   -1.322608    0.347254
  O     -2.506592   -1.098229    0.406384
  C     -1.509367   -1.715378   -2.074216
  H     -1.159268   -2.332226   -2.901836
  H     -2.593133   -1.809420   -2.020354
  H     -1.241999   -0.683796   -2.299027
  C     -1.308104   -3.635148   -0.507134
  H     -2.370813   -3.644699   -0.263810
  H     -1.157423   -4.236796   -1.404274
  H     -0.760838   -4.108591    0.304743
  C     -0.902976    0.155086    2.304753
  H     -0.618997    1.021112    1.713537
  H     -1.974154    0.178380    2.501419
  H     -0.384548    0.217214    3.261686
  C     -0.833822   -2.314415    2.552286
  H     -0.356605   -2.144995    3.517988
  H     -1.911726   -2.364983    2.708827
  H     -0.493818   -3.276549    2.177389
  C     -3.114278    1.145477   -0.697494
  H     -3.113531    0.788339   -1.734407
  H     -2.851148    0.048636   -0.120105
  O     -4.319503    1.548467   -0.230796
  C     -5.443920    0.813000   -0.709278
  H     -5.481346    0.841001   -1.801481
  H     -6.325244    1.298660   -0.300339
  C     -2.004293    1.949162   -0.275279
  H     -2.190891    2.568312    0.594491
  C     -0.774431    1.887907   -0.840153
  H     -0.636697    1.265905   -1.718814
  H     -5.400787   -0.222137   -0.361583
  C      0.400530    2.614356   -0.404480
  C      1.619631    2.349053   -1.036283
  C      0.367192    3.559017    0.635083
  C      2.777232    2.995346   -0.637846
  H      1.670971    1.606550   -1.821196
  C      1.519737    4.210060    1.021430
  H     -0.564306    3.798592    1.132152
  C      2.728962    3.927671    0.386877
  H      3.714057    2.759554   -1.124744
  H      1.484126    4.944529    1.816053
  H      3.631235    4.440681    0.696530
  N      2.894215   -2.236531    0.149650
  H      3.409956   -3.013133    0.528388
  C      3.594189   -1.262869   -0.494398
  C      5.085092   -1.464262   -0.575216
  H      5.573881   -0.649585   -0.039306
  H      5.422979   -2.414427   -0.162038
  H      5.388591   -1.398301   -1.619964
  O      3.049230   -0.282975   -0.975406

 Total Charge           Charge          ....    1
 Multiplicity           Mult            ....    1
 Number of Electrons    NEL             ....  196
 Basis Dimension        Dim             .... 1955

ORBITAL ENERGIES
----------------

  NO   OCC          E(Eh)            E(eV)
   0   2.0000     -20.817909      -566.4841
   1   2.0000     -20.700488      -563.2889
   2   2.0000     -20.615296      -560.9707
   3   2.0000     -15.847141      -431.2226
   4   2.0000     -15.691790      -426.9953
   5   2.0000     -11.450873      -311.5941
   6   2.0000     -11.438687      -311.2625
   7   2.0000     -11.422394      -310.8191
   8   2.0000     -11.419504      -310.7405
   9   2.0000     -11.392790      -310.0136
  10   2.0000     -11.386542      -309.8436
  11   2.0000     -11.380480      -309.6786
  12   2.0000     -11.360349      -309.1308
  13   2.0000     -11.347311      -308.7760
  14   2.0000     -11.345885      -308.7372
  15   2.0000     -11.345030      -308.7140
  16   2.0000     -11.343801      -308.6805
  17   2.0000     -11.343495      -308.6722
  18   2.0000     -11.342938      -308.6570
  19   2.0000     -11.335479      -308.4541
  20   2.0000     -11.334076      -308.4159
  21   2.0000     -11.331849      -308.3553
  22   2.0000     -11.330440      -308.3169
  23   2.0000     -11.325336      -308.1781
  24   2.0000     -11.324969      -308.1681
  25   2.0000     -11.320443      -308.0449
  26   2.0000      -1.664150       -45.2838
  27   2.0000      -1.529018       -41.6067
  28   2.0000      -1.485282       -40.4166
  29   2.0000      -1.348430       -36.6927
  30   2.0000      -1.311891       -35.6984
  31   2.0000      -1.265021       -34.4230
  32   2.0000      -1.240925       -33.7673
  33   2.0000      -1.214620       -33.0515
  34   2.0000      -1.172996       -31.9188
  35   2.0000      -1.139147       -30.9978
  36   2.0000      -1.123585       -30.5743
  37   2.0000      -1.113876       -30.3101
  38   2.0000      -1.089400       -29.6441
  39   2.0000      -1.076808       -29.3014
  40   2.0000      -1.071074       -29.1454
  41   2.0000      -1.062668       -28.9167
  42   2.0000      -1.059739       -28.8370
  43   2.0000      -1.006398       -27.3855
  44   2.0000      -0.975565       -26.5465
  45   2.0000      -0.961524       -26.1644
  46   2.0000      -0.947137       -25.7729
  47   2.0000      -0.921494       -25.0751
  48   2.0000      -0.907931       -24.7060
  49   2.0000      -0.883570       -24.0432
  50   2.0000      -0.876472       -23.8500
  51   2.0000      -0.838071       -22.8051
  52   2.0000      -0.821777       -22.3617
  53   2.0000      -0.819570       -22.3016
  54   2.0000      -0.813171       -22.1275
  55   2.0000      -0.802738       -21.8436
  56   2.0000      -0.790151       -21.5011
  57   2.0000      -0.783975       -21.3330
  58   2.0000      -0.765956       -20.8427
  59   2.0000      -0.758343       -20.6356
  60   2.0000      -0.745151       -20.2766
  61   2.0000      -0.741554       -20.1787
  62   2.0000      -0.737685       -20.0734
  63   2.0000      -0.723394       -19.6845
  64   2.0000      -0.716011       -19.4837
  65   2.0000      -0.713931       -19.4270
  66   2.0000      -0.713373       -19.4119
  67   2.0000      -0.698727       -19.0133
  68   2.0000      -0.695121       -18.9152
  69   2.0000      -0.693245       -18.8642
  70   2.0000      -0.690785       -18.7972
  71   2.0000      -0.686455       -18.6794
  72   2.0000      -0.678788       -18.4708
  73   2.0000      -0.675580       -18.3835
  74   2.0000      -0.669675       -18.2228
  75   2.0000      -0.658579       -17.9208
  76   2.0000      -0.653847       -17.7921
  77   2.0000      -0.652805       -17.7637
  78   2.0000      -0.649694       -17.6791
  79   2.0000      -0.644326       -17.5330
  80   2.0000      -0.638987       -17.3877
  81   2.0000      -0.630764       -17.1640
  82   2.0000      -0.620854       -16.8943
  83   2.0000      -0.616997       -16.7893
  84   2.0000      -0.614432       -16.7195
  85   2.0000      -0.606057       -16.4917
  86   2.0000      -0.603344       -16.4178
  87   2.0000      -0.598808       -16.2944
  88   2.0000      -0.596586       -16.2339
  89   2.0000      -0.587320       -15.9818
  90   2.0000      -0.583198       -15.8696
  91   2.0000      -0.581086       -15.8122
  92   2.0000      -0.531368       -14.4593
  93   2.0000      -0.520065       -14.1517
  94   2.0000      -0.499414       -13.5897
  95   2.0000      -0.477777       -13.0010
  96   2.0000      -0.431158       -11.7324
  97   2.0000      -0.397395       -10.8137
  98   0.0000      -0.144772        -3.9394
  99   0.0000      -0.056693        -1.5427
 100   0.0000      -0.049457        -1.3458
 101   0.0000      -0.045888        -1.2487
 102   0.0000      -0.042333        -1.1519

MULLIKEN ATOMIC CHARGES
-----------------------
   0 C :    1.707428
   1 C :    1.625159
   2 C :   -0.984664
   3 C :    0.776801
   4 C :   -0.808409
   5 H :    0.847485
   6 H :    0.191748
   7 H :    0.160450
   8 H :    0.540258
   9 H :    0.349951
  10 N :    2.401371
  11 O :   -1.354822
  12 C :   -1.764151
  13 H :    0.061540
  14 H :    0.178327
  15 H :    0.437813
  16 C :   -1.724711
  17 H :    0.189384
  18 H :    0.140875
  19 H :    0.302177
  20 C :   -1.890558
  21 H :    0.657875
  22 H :    0.220901
  23 H :   -0.024633
  24 C :   -1.740157
  25 H :    0.146053
  26 H :    0.148622
  27 H :    0.364053
  28 C :    0.429947
  29 H :    0.571129
  30 H :    0.129571
  31 O :   -0.846349
  32 C :   -1.017879
  33 H :    0.341052
  34 H :    0.360294
  35 C :   -0.277148
  36 H :    0.392976
  37 C :   -0.817023
  38 H :    0.275803
  39 H :    0.392522
  40 C :    1.983515
  41 C :   -0.736010
  42 C :   -0.341735
  43 C :   -0.612468
  44 H :    0.085181
  45 C :   -0.966884
  46 H :    0.063983
  47 C :   -0.164659
  48 H :    0.434206
  49 H :    0.496524
  50 H :    0.551256
  51 N :   -0.562444
  52 H :   -0.083077
  53 C :    0.692156
  54 C :   -0.998586
  55 H :    0.332198
  56 H :    0.289337
  57 H :    0.330562
  58 O :   -0.884116
Sum of atomic charges:    1.0000000

LOEWDIN ATOMIC CHARGES
----------------------
   0 C :   -0.355013
   1 C :   -0.349608
   2 C :    0.343271
   3 C :   -0.057390
   4 C :    0.333095
   5 H :   -0.155636
   6 H :   -0.109385
   7 H :   -0.140877
   8 H :   -0.178931
   9 H :   -0.109245
  10 N :    0.124409
  11 O :    0.715207
  12 C :    0.611459
  13 H :   -0.134064
  14 H :   -0.151991
  15 H :   -0.182708
  16 C :    0.632531
  17 H :   -0.144344
  18 H :   -0.138270
  19 H :   -0.180665
  20 C :    0.615776
  21 H :   -0.208844
  22 H :   -0.145947
  23 H :   -0.134595
  24 C :    0.633652
  25 H :   -0.138398
  26 H :   -0.141328
  27 H :   -0.187553
  28 C :   -0.058541
  29 H :   -0.129765
  30 H :   -0.511181
  31 O :    0.604376
  32 C :    0.392244
  33 H :   -0.167131
  34 H :   -0.170900
  35 C :    0.249556
  36 H :   -0.168540
  37 C :    0.254372
  38 H :   -0.182840
  39 H :   -0.166671
  40 C :   -0.125561
  41 C :    0.204196
  42 C :    0.223783
  43 C :    0.223449
  44 H :   -0.194496
  45 C :    0.223546
  46 H :   -0.181724
  47 C :    0.225659
  48 H :   -0.170221
  49 H :   -0.173687
  50 H :   -0.169748
  51 N :    0.607194
  52 H :   -0.274754
  53 C :   -0.643733
  54 C :    0.618433
  55 H :   -0.162507
  56 H :   -0.176460
  57 H :   -0.163881
  58 O :    0.500924

  Mayer bond orders larger than 0.100000
B(  0-C ,  2-C ) :   0.1149 B(  0-C ,  4-C ) :   0.5733 B(  0-C , 10-N ) :   1.1112
B(  0-C , 11-O ) :  -0.1165 B(  0-C , 13-H ) :  -0.1570 B(  0-C , 17-H ) :  -0.1261
B(  0-C , 18-H ) :  -0.2221 B(  0-C , 19-H ) :  -0.1346 B(  1-C ,  2-C ) :   0.4753
B(  1-C ,  4-C ) :   0.1605 B(  1-C , 10-N ) :   0.6772 B(  1-C , 20-C ) :   0.1876
B(  1-C , 23-H ) :  -0.2018 B(  1-C , 24-C ) :  -0.1494 B(  1-C , 25-H ) :  -0.2395
B(  1-C , 26-H ) :  -0.1469 B(  2-C ,  3-C ) :   0.9254 B(  2-C ,  5-H ) :   0.5908
B(  2-C ,  6-H ) :   0.9238 B(  2-C ,  7-H ) :   0.1418 B(  2-C , 51-N ) :   0.1987
B(  3-C ,  4-C ) :   0.9504 B(  3-C ,  7-H ) :   0.7564 B(  3-C ,  9-H ) :  -0.1164
B(  3-C , 10-N ) :   0.1243 B(  3-C , 51-N ) :  -0.2757 B(  3-C , 53-C ) :  -0.6918
B(  4-C ,  7-H ) :   0.1196 B(  4-C ,  8-H ) :   0.8394 B(  4-C ,  9-H ) :   0.8235
B(  4-C , 10-N ) :  -0.1893 B(  4-C , 51-N ) :   0.1250 B(  5-H , 20-C ) :  -0.1912
B(  5-H , 37-C ) :  -0.1199 B(  7-H , 51-N ) :  -0.1433 B(  7-H , 53-C ) :   0.2020
B(  8-H , 10-N ) :   0.1015 B( 10-N , 12-C ) :  -0.3408 B( 10-N , 14-H ) :  -0.1659
B( 10-N , 16-C ) :  -0.2536 B( 10-N , 17-H ) :  -0.1380 B( 10-N , 20-C ) :  -0.4601
B( 10-N , 22-H ) :  -0.1280 B( 10-N , 24-C ) :  -0.1598 B( 10-N , 26-H ) :  -0.1568
B( 10-N , 28-C ) :   0.1698 B( 10-N , 30-H ) :   0.1907 B( 10-N , 35-C ) :   0.2740
B( 10-N , 37-C ) :   0.1991 B( 11-O , 12-C ) :   0.1199 B( 11-O , 16-C ) :   0.1549
B( 11-O , 20-C ) :   0.1398 B( 11-O , 24-C ) :   0.1219 B( 11-O , 30-H ) :   0.2197
B( 12-C , 13-H ) :   1.4053 B( 12-C , 14-H ) :   1.2200 B( 12-C , 15-H ) :   0.9837
B( 12-C , 16-C ) :   0.1642 B( 12-C , 35-C ) :  -0.1089 B( 16-C , 17-H ) :   1.2071
B( 16-C , 18-H ) :   1.3051 B( 16-C , 19-H ) :   1.1151 B( 20-C , 21-H ) :   0.7945
B( 20-C , 22-H ) :   1.1535 B( 20-C , 23-H ) :   1.5076 B( 20-C , 24-C ) :   0.2564
B( 21-H , 23-H ) :  -0.1045 B( 24-C , 25-H ) :   1.3076 B( 24-C , 26-H ) :   1.2735
B( 24-C , 27-H ) :   1.0152 B( 28-C , 29-H ) :   0.8782 B( 28-C , 30-H ) :   0.7776
B( 28-C , 31-O ) :   0.5599 B( 28-C , 32-C ) :  -0.1088 B( 28-C , 35-C ) :   0.7884
B( 28-C , 36-H ) :  -0.1218 B( 28-C , 37-C ) :  -0.1036 B( 28-C , 38-H ) :  -0.1057
B( 29-H , 31-O ) :  -0.2162 B( 30-H , 35-C ) :   0.1439 B( 30-H , 36-H ) :  -0.1047
B( 31-O , 32-C ) :   1.0550 B( 32-C , 33-H ) :   0.8939 B( 32-C , 34-H ) :   0.9518
B( 32-C , 39-H ) :   0.8414 B( 35-C , 36-H ) :   1.1489 B( 35-C , 37-C ) :   0.8928
B( 35-C , 42-C ) :  -0.1313 B( 35-C , 46-H ) :  -0.2101 B( 36-H , 37-C ) :  -0.1303
B( 37-C , 38-H ) :   1.3598 B( 37-C , 40-C ) :   0.3888 B( 37-C , 41-C ) :   0.6493
B( 37-C , 42-C ) :   0.6007 B( 37-C , 43-C ) :   0.1485 B( 37-C , 45-C ) :   0.1283
B( 37-C , 47-C ) :   0.1289 B( 38-H , 40-C ) :  -0.2117 B( 40-C , 41-C ) :   0.1304
B( 40-C , 42-C ) :   0.4156 B( 40-C , 43-C ) :   0.1208 B( 40-C , 44-H ) :  -0.2723
B( 40-C , 45-C ) :   0.1599 B( 40-C , 46-H ) :  -0.1468 B( 41-C , 42-C ) :  -0.4359
B( 41-C , 43-C ) :   1.2958 B( 41-C , 44-H ) :   1.5209 B( 42-C , 45-C ) :   0.9559
B( 42-C , 46-H ) :   1.5114 B( 43-C , 45-C ) :   0.1878 B( 43-C , 47-C ) :   1.0526
B( 43-C , 48-H ) :   0.8697 B( 43-C , 50-H ) :  -0.1537 B( 44-H , 46-H ) :   0.1003
B( 45-C , 46-H ) :  -0.1663 B( 45-C , 47-C ) :   1.1089 B( 45-C , 49-H ) :   0.6838
B( 45-C , 50-H ) :  -0.1065 B( 47-C , 50-H ) :   0.6101 B( 51-N , 52-H ) :   1.2060
B( 51-N , 53-C ) :   1.1633 B( 52-H , 53-C ) :  -0.1788 B( 53-C , 54-C ) :   0.3372
B( 53-C , 58-O ) :   1.7509 B( 54-C , 55-H ) :   1.0169 B( 54-C , 56-H ) :   0.9722
B( 54-C , 57-H ) :   1.0394 B( 54-C , 58-O ) :  -0.1827

MP2 TOTAL ENERGY:    -1152.728378539 Eh
FINAL SINGLE POINT ENERGY     -1152.728378538732

DIPOLE MOMENT
-------------
                                X             Y             Z
Electronic contribution:      4.87820      13.32097      -1.72278
Nuclear contribution   :     -5.48734     -15.44275       2.07218
                        -----------------------------------------
Total Dipole Moment    :     -0.60914      -2.12178       0.34940
                        -----------------------------------------
Magnitude (a.u.)       :      2.23497
Magnitude (Debye)      :      5.68085

Rotational constants in cm-1:     0.007558     0.006038     0.004098
Rotational constants in MHz :   226.596648   181.022902   122.856088

                             ****ORCA TERMINATED NORMALLY****
TOTAL RUN TIME: 0 days 4 hours 27 minutes 8 seconds 518 msec
