                         Program Version 4.2.1 -  RELEASE  -
|  1> %pal
|  2>  nprocs 32
|  3> end
|  4> !RI-MP2 aug-cc-pVTZ aug-cc-pVTZ/C TightSCF
|  5> %maxcore 4500
|  6> *xyzfile 0 2  03_11P1.xyz
|  7>
|  8>
|  9>                          ****END OF INPUT****

CARTESIAN COORDINATES (ANGSTROEM)
---------------------------------
  C      0.721469    1.237090    0.000001
  C     -0.795501    1.212317   -0.000002
  C      1.138948   -0.241525   -0.000001
  N      0.004629   -1.082254   -0.000001
  C     -1.039817   -0.332696    0.000000
  O     -2.256521   -0.657925    0.000001
  O      2.264105   -0.641337    0.000000
  H      1.140466    1.719215    0.882685
  H      1.140471    1.719221   -0.882677
  H     -1.262306    1.640161   -0.885710
  H     -1.262310    1.640165    0.885703

 Total Charge           Charge          ....    0
 Multiplicity           Mult            ....    2
 Number of Electrons    NEL             ....   51
 Basis Dimension        Dim             ....  414

ORBITAL ENERGIES
----------------
                 SPIN UP ORBITALS
  NO   OCC          E(Eh)            E(eV)
   0   1.0000     -20.723584      -563.9174
   1   1.0000     -20.542803      -558.9981
   2   1.0000     -15.576540      -423.8592
   3   1.0000     -11.392700      -310.0111
   4   1.0000     -11.359587      -309.1101
   5   1.0000     -11.293361      -307.3080
   6   1.0000     -11.265083      -306.5385
   7   1.0000      -1.551863       -42.2283
   8   1.0000      -1.405776       -38.2531
   9   1.0000      -1.273351       -34.6496
  10   1.0000      -1.093048       -29.7434
  11   1.0000      -0.959257       -26.1027
  12   1.0000      -0.857366       -23.3301
  13   1.0000      -0.813746       -22.1431
  14   1.0000      -0.738142       -20.0859
  15   1.0000      -0.723112       -19.6769
  16   1.0000      -0.712282       -19.3822
  17   1.0000      -0.662378       -18.0242
  18   1.0000      -0.656655       -17.8685
  19   1.0000      -0.598574       -16.2880
  20   1.0000      -0.580442       -15.7946
  21   1.0000      -0.551919       -15.0185
  22   1.0000      -0.528437       -14.3795
  23   1.0000      -0.474950       -12.9240
  24   1.0000      -0.431006       -11.7283
  25   1.0000      -0.424591       -11.5537
  26   0.0000       0.018971         0.5162
  27   0.0000       0.032869         0.8944
  28   0.0000       0.037762         1.0276
  29   0.0000       0.055711         1.5160
  30   0.0000       0.056624         1.5408

                 SPIN DOWN ORBITALS
  NO   OCC          E(Eh)            E(eV)
   0   1.0000     -20.683130      -562.8166
   1   1.0000     -20.542996      -559.0034
   2   1.0000     -15.575495      -423.8308
   3   1.0000     -11.395946      -310.0995
   4   1.0000     -11.359531      -309.1086
   5   1.0000     -11.290252      -307.2234
   6   1.0000     -11.264895      -306.5334
   7   1.0000      -1.434963       -39.0473
   8   1.0000      -1.403078       -38.1797
   9   1.0000      -1.255752       -34.1708
  10   1.0000      -1.084354       -29.5068
  11   1.0000      -0.940930       -25.6040
  12   1.0000      -0.831589       -22.6287
  13   1.0000      -0.760025       -20.6813
  14   1.0000      -0.714490       -19.4423
  15   1.0000      -0.707194       -19.2437
  16   1.0000      -0.660290       -17.9674
  17   1.0000      -0.639822       -17.4104
  18   1.0000      -0.596509       -16.2318
  19   1.0000      -0.580518       -15.7967
  20   1.0000      -0.571686       -15.5564
  21   1.0000      -0.523835       -14.2543
  22   1.0000      -0.479726       -13.0540
  23   1.0000      -0.426348       -11.6015
  24   1.0000      -0.422221       -11.4892
  25   0.0000       0.011547         0.3142
  26   0.0000       0.019783         0.5383
  27   0.0000       0.032908         0.8955
  28   0.0000       0.038976         1.0606
  29   0.0000       0.056604         1.5403

MULLIKEN ATOMIC CHARGES AND SPIN POPULATIONS
--------------------------------------------
   0 C :   -0.278393    0.001169
   1 C :   -0.370347    0.117860
   2 C :    0.377979    0.008699
   3 N :   -0.102432    0.020413
   4 C :    0.299854   -0.179981
   5 O :   -0.359661    1.028695
   6 O :   -0.717163   -0.005871
   7 H :    0.273965    0.003388
   8 H :    0.273967    0.003387
   9 H :    0.301116    0.001119
  10 H :    0.301116    0.001120
Sum of atomic charges         :   -0.0000000

LOEWDIN ATOMIC CHARGES AND SPIN POPULATIONS
-------------------------------------------
   0 C :    0.287390    0.012484
   1 C :    0.309857    0.047677
   2 C :   -0.744075    0.001586
   3 N :    0.368227    0.007909
   4 C :   -0.684310    0.123657
   5 O :    0.619363    0.801735
   6 O :    0.439917   -0.003056
   7 H :   -0.147408    0.002074
   8 H :   -0.147408    0.002074
   9 H :   -0.150777    0.001930
  10 H :   -0.150776    0.001930

  Mayer bond orders larger than 0.100000
B(  0-C ,  1-C ) :   1.0264 B(  0-C ,  2-C ) :   0.6419 B(  0-C ,  4-C ) :   0.1101
B(  0-C ,  7-H ) :   0.9388 B(  0-C ,  8-H ) :   0.9388 B(  1-C ,  2-C ) :   0.1131
B(  1-C ,  4-C ) :   0.6218 B(  1-C ,  9-H ) :   0.9137 B(  1-C , 10-H ) :   0.9137
B(  2-C ,  3-N ) :   0.8556 B(  2-C ,  4-C ) :  -0.1633 B(  2-C ,  6-O ) :   1.5011
B(  3-N ,  4-C ) :   1.2988 B(  3-N ,  5-O ) :  -0.1129 B(  3-N ,  6-O ) :  -0.1276
B(  4-C ,  5-O ) :   0.9373

MP2 TOTAL ENERGY:     -359.329141676 Eh
FINAL SINGLE POINT ENERGY      -359.329141676420

DIPOLE MOMENT
-------------
                                X             Y             Z
Electronic contribution:     -1.21265      -4.73460      -0.00000
Nuclear contribution   :     -0.23782       6.53505       0.00000
                        -----------------------------------------
Total Dipole Moment    :     -1.45047       1.80045      -0.00000
                        -----------------------------------------
Magnitude (a.u.)       :      2.31203
Magnitude (Debye)      :      5.87672

Rotational constants in cm-1:     0.205433     0.078449     0.058002
Rotational constants in MHz :  6158.712755  2351.854470  1738.848288

                             ****ORCA TERMINATED NORMALLY****
TOTAL RUN TIME: 0 days 0 hours 2 minutes 7 seconds 510 msec
