                         Program Version 4.2.1 -  RELEASE  -
|  1> %pal
|  2>  nprocs 32
|  3> end
|  4> !RI-MP2 aug-cc-pVTZ aug-cc-pVTZ/C TightSCF
|  5> %maxcore 4500
|  6> *xyzfile 0 1  02_29R1.xyz
|  7>
|  8>
|  9>                          ****END OF INPUT****

CARTESIAN COORDINATES (ANGSTROEM)
---------------------------------
  C     -0.410675   -0.521097   -1.362061
  C      0.410675    0.521097   -1.362061
  C     -0.037778    1.866525   -0.904590
  H      0.513882    2.694785   -1.356692
  H     -1.099396    2.009700   -1.126362
  C      0.037778   -1.866525   -0.904590
  H     -0.513882   -2.694785   -1.356692
  H      1.099396   -2.009700   -1.126362
  C      0.171289    1.876580    0.631607
  H     -0.271611    2.791041    1.038301
  H      1.244420    1.940147    0.842509
  C     -0.171289   -1.876580    0.631607
  H      0.271611   -2.791041    1.038301
  H     -1.244420   -1.940147    0.842509
  C      0.410675   -0.662047    1.384619
  H      0.535039   -0.972778    2.425528
  H      1.423530   -0.465576    1.019650
  C     -0.410675    0.662047    1.384619
  H     -0.535039    0.972778    2.425528
  H     -1.423530    0.465576    1.019650
  H     -1.484043   -0.338066   -1.340386
  H      1.484043    0.338066   -1.340386

 Total Charge           Charge          ....    0
 Multiplicity           Mult            ....    1
 Number of Electrons    NEL             ....   62
 Basis Dimension        Dim             ....  690

ORBITAL ENERGIES
----------------

  NO   OCC          E(Eh)            E(eV)
   0   2.0000     -11.220531      -305.3262
   1   2.0000     -11.220526      -305.3260
   2   2.0000     -11.219618      -305.3013
   3   2.0000     -11.219613      -305.3012
   4   2.0000     -11.216455      -305.2153
   5   2.0000     -11.215922      -305.2008
   6   2.0000     -11.214539      -305.1631
   7   2.0000     -11.212754      -305.1145
   8   2.0000      -1.116631       -30.3851
   9   2.0000      -1.048932       -28.5429
  10   2.0000      -1.035538       -28.1784
  11   2.0000      -0.918049       -24.9814
  12   2.0000      -0.908592       -24.7240
  13   2.0000      -0.785533       -21.3754
  14   2.0000      -0.775029       -21.0896
  15   2.0000      -0.747875       -20.3507
  16   2.0000      -0.636412       -17.3177
  17   2.0000      -0.631951       -17.1963
  18   2.0000      -0.621801       -16.9201
  19   2.0000      -0.578002       -15.7282
  20   2.0000      -0.557497       -15.1703
  21   2.0000      -0.554506       -15.0889
  22   2.0000      -0.526495       -14.3267
  23   2.0000      -0.524598       -14.2750
  24   2.0000      -0.499984       -13.6052
  25   2.0000      -0.479448       -13.0465
  26   2.0000      -0.468513       -12.7489
  27   2.0000      -0.455598       -12.3975
  28   2.0000      -0.443716       -12.0741
  29   2.0000      -0.432001       -11.7553
  30   2.0000      -0.331000        -9.0070
  31   0.0000       0.030326         0.8252
  32   0.0000       0.033106         0.9009
  33   0.0000       0.035737         0.9725
  34   0.0000       0.036691         0.9984
  35   0.0000       0.048540         1.3209

MULLIKEN ATOMIC CHARGES
-----------------------
   0 C :   -0.400818
   1 C :   -0.400818
   2 C :   -0.391444
   3 H :    0.324318
   4 H :    0.184904
   5 C :   -0.391444
   6 H :    0.324318
   7 H :    0.184904
   8 C :   -0.458395
   9 H :    0.307047
  10 H :    0.172548
  11 C :   -0.458395
  12 H :    0.307047
  13 H :    0.172548
  14 C :   -0.406761
  15 H :    0.236114
  16 H :    0.139860
  17 C :   -0.406761
  18 H :    0.236114
  19 H :    0.139860
  20 H :    0.292627
  21 H :    0.292627
Sum of atomic charges:    0.0000000

LOEWDIN ATOMIC CHARGES
----------------------
   0 C :    0.195348
   1 C :    0.195348
   2 C :    0.270416
   3 H :   -0.149538
   4 H :   -0.152694
   5 C :    0.270416
   6 H :   -0.149538
   7 H :   -0.152694
   8 C :    0.296471
   9 H :   -0.147255
  10 H :   -0.146864
  11 C :    0.296471
  12 H :   -0.147255
  13 H :   -0.146864
  14 C :    0.309112
  15 H :   -0.154064
  16 H :   -0.158877
  17 C :    0.309112
  18 H :   -0.154064
  19 H :   -0.158877
  20 H :   -0.162055
  21 H :   -0.162055

  Mayer bond orders larger than 0.100000
B(  0-C ,  1-C ) :   1.4707 B(  0-C ,  5-C ) :   1.0042 B(  0-C , 11-C ) :   0.1004
B(  0-C , 20-H ) :   0.9232 B(  1-C ,  2-C ) :   1.0042 B(  1-C ,  8-C ) :   0.1004
B(  1-C , 21-H ) :   0.9232 B(  2-C ,  3-H ) :   0.9269 B(  2-C ,  4-H ) :   1.0557
B(  2-C ,  8-C ) :   0.8912 B(  5-C ,  6-H ) :   0.9269 B(  5-C ,  7-H ) :   1.0557
B(  5-C , 11-C ) :   0.8912 B(  8-C ,  9-H ) :   0.9274 B(  8-C , 10-H ) :   1.0291
B(  8-C , 17-C ) :   0.8724 B( 11-C , 12-H ) :   0.9274 B( 11-C , 13-H ) :   1.0291
B( 11-C , 14-C ) :   0.8724 B( 14-C , 15-H ) :   0.9528 B( 14-C , 16-H ) :   1.0978
B( 14-C , 17-C ) :   0.8545 B( 17-C , 18-H ) :   0.9528 B( 17-C , 19-H ) :   1.0978

MP2 TOTAL ENERGY:     -312.549597013 Eh
FINAL SINGLE POINT ENERGY      -312.549597012655

DIPOLE MOMENT
-------------
                                X             Y             Z
Electronic contribution:      0.00000      -0.00000      -2.82962
Nuclear contribution   :      0.00000       0.00000       3.17527
                        -----------------------------------------
Total Dipole Moment    :      0.00000      -0.00000       0.34565
                        -----------------------------------------
Magnitude (a.u.)       :      0.34565
Magnitude (Debye)      :      0.87857

Rotational constants in cm-1:     0.098411     0.065296     0.044207
Rotational constants in MHz :  2950.292957  1957.531261  1325.292366

                             ****ORCA TERMINATED NORMALLY****
TOTAL RUN TIME: 0 days 0 hours 5 minutes 20 seconds 407 msec
