                         Program Version 4.2.1 -  RELEASE  -
|  1> %pal
|  2>  nprocs 32
|  3> end
|  4> !RI-MP2 aug-cc-pVTZ aug-cc-pVTZ/C TightSCF
|  5> %maxcore 4500
|  6> *xyzfile 0 1  02_9R.xyz
|  7>
|  8>
|  9>                          ****END OF INPUT****

CARTESIAN COORDINATES (ANGSTROEM)
---------------------------------
  C     -2.774445   -0.812664    0.821724
  C     -2.770408    0.674099    1.214484
  C     -1.504553    1.305588    0.730349
  C     -0.620721   -2.041920   -1.006535
  C     -2.912725   -1.063774   -0.686577
  H     -3.620767    1.173267    0.736733
  H     -1.847224   -1.259343    1.192121
  H     -3.592495   -1.315416    1.348668
  H     -2.496902   -0.198406   -1.214562
  H     -2.382506   -3.161558   -0.539846
  H     -2.341725   -2.510638   -2.174939
  C     -2.091539   -2.286652   -1.131672
  C     -1.404947    2.285837   -0.163390
  C      0.203148   -2.688341   -0.183276
  C      2.133622   -1.141153   -0.010336
  C      1.618836   -2.376757    0.021561
  C     -4.377778   -1.199771   -1.092579
  H     -4.484816   -1.278683   -2.177057
  H     -4.964954   -0.339246   -0.761434
  H     -4.821416   -2.094790   -0.646092
  C     -0.085300    2.806292   -0.596840
  O      0.959055    2.326624   -0.206351
  C     -0.107872    3.964084   -1.561327
  C      3.543388   -0.789745    0.168035
  C      3.873352    0.509447    0.133231
  H      3.063439    1.217455   -0.020055
  C      5.227136    1.123997    0.284205
  H      5.476442    1.718154   -0.600530
  H      6.023638    0.396559    0.434252
  H      5.238236    1.814804    1.133102
  C      4.521475   -1.911328    0.378541
  H      5.543781   -1.556486    0.487249
  H      4.495880   -2.610252   -0.462033
  H      4.268981   -2.481589    1.277060
  C     -2.892206    0.835833    2.731969
  H     -2.061286    0.340079    3.241108
  H     -2.885655    1.887840    3.023104
  H     -3.820999    0.386659    3.090376
  H     -0.655829    4.804027   -1.125863
  H     -0.635373    3.676240   -2.474978
  H      0.907750    4.269359   -1.803264
  H      1.465663   -0.297699   -0.164799
  H      2.265455   -3.221182    0.240599
  H     -0.217696   -1.238790   -1.620716
  H     -0.192610   -3.525883    0.389544
  H     -2.292277    2.729613   -0.605474
  H     -0.577958    0.904492    1.139131

 Total Charge           Charge          ....    0
 Multiplicity           Mult            ....    1
 Number of Electrons    NEL             ....  144
 Basis Dimension        Dim             .... 1518

ORBITAL ENERGIES
----------------

  NO   OCC          E(Eh)            E(eV)
   0   2.0000     -20.537637      -558.8575
   1   2.0000     -11.330551      -308.3200
   2   2.0000     -11.254040      -306.2380
   3   2.0000     -11.240539      -305.8706
   4   2.0000     -11.233178      -305.6703
   5   2.0000     -11.228796      -305.5511
   6   2.0000     -11.225667      -305.4659
   7   2.0000     -11.221998      -305.3661
   8   2.0000     -11.219736      -305.3045
   9   2.0000     -11.219488      -305.2978
  10   2.0000     -11.218661      -305.2753
  11   2.0000     -11.216271      -305.2103
  12   2.0000     -11.216195      -305.2082
  13   2.0000     -11.214429      -305.1601
  14   2.0000     -11.213905      -305.1459
  15   2.0000     -11.211122      -305.0701
  16   2.0000     -11.208958      -305.0112
  17   2.0000     -11.207674      -304.9763
  18   2.0000     -11.205981      -304.9302
  19   2.0000      -1.383440       -37.6453
  20   2.0000      -1.130617       -30.7657
  21   2.0000      -1.106968       -30.1221
  22   2.0000      -1.089757       -29.6538
  23   2.0000      -1.059447       -28.8290
  24   2.0000      -1.038411       -28.2566
  25   2.0000      -1.002782       -27.2871
  26   2.0000      -0.995526       -27.0896
  27   2.0000      -0.962379       -26.1877
  28   2.0000      -0.929535       -25.2939
  29   2.0000      -0.919622       -25.0242
  30   2.0000      -0.886642       -24.1267
  31   2.0000      -0.865371       -23.5479
  32   2.0000      -0.805925       -21.9303
  33   2.0000      -0.783805       -21.3284
  34   2.0000      -0.767594       -20.8873
  35   2.0000      -0.735201       -20.0058
  36   2.0000      -0.723273       -19.6813
  37   2.0000      -0.693229       -18.8637
  38   2.0000      -0.666218       -18.1287
  39   2.0000      -0.658722       -17.9247
  40   2.0000      -0.651759       -17.7353
  41   2.0000      -0.630544       -17.1580
  42   2.0000      -0.616219       -16.7682
  43   2.0000      -0.605204       -16.4684
  44   2.0000      -0.603182       -16.4134
  45   2.0000      -0.602560       -16.3965
  46   2.0000      -0.582080       -15.8392
  47   2.0000      -0.570208       -15.5162
  48   2.0000      -0.566617       -15.4184
  49   2.0000      -0.564006       -15.3474
  50   2.0000      -0.559062       -15.2129
  51   2.0000      -0.557481       -15.1698
  52   2.0000      -0.544390       -14.8136
  53   2.0000      -0.543983       -14.8025
  54   2.0000      -0.542265       -14.7558
  55   2.0000      -0.522984       -14.2311
  56   2.0000      -0.516499       -14.0547
  57   2.0000      -0.509074       -13.8526
  58   2.0000      -0.506718       -13.7885
  59   2.0000      -0.498824       -13.5737
  60   2.0000      -0.496372       -13.5070
  61   2.0000      -0.489081       -13.3086
  62   2.0000      -0.482243       -13.1225
  63   2.0000      -0.462932       -12.5970
  64   2.0000      -0.459749       -12.5104
  65   2.0000      -0.455991       -12.4081
  66   2.0000      -0.448795       -12.2123
  67   2.0000      -0.418636       -11.3917
  68   2.0000      -0.413771       -11.2593
  69   2.0000      -0.371727       -10.1152
  70   2.0000      -0.355179        -9.6649
  71   2.0000      -0.273600        -7.4450
  72   0.0000       0.021593         0.5876
  73   0.0000       0.027938         0.7602
  74   0.0000       0.030167         0.8209
  75   0.0000       0.031281         0.8512
  76   0.0000       0.037907         1.0315

MULLIKEN ATOMIC CHARGES
-----------------------
   0 C :   -0.725579
   1 C :    0.041544
   2 C :    0.208436
   3 C :   -0.262700
   4 C :    0.756057
   5 H :    0.208846
   6 H :    0.278332
   7 H :    0.312209
   8 H :    0.400176
   9 H :    0.142711
  10 H :    0.293649
  11 C :   -0.456336
  12 C :   -0.357537
  13 C :    0.000936
  14 C :   -0.555734
  15 C :   -0.282032
  16 C :   -1.432891
  17 H :    0.236721
  18 H :    0.265762
  19 H :    0.257529
  20 C :    0.754776
  21 O :   -1.007324
  22 C :   -0.911252
  23 C :    1.969935
  24 C :   -0.927317
  25 H :    0.400755
  26 C :   -1.242364
  27 H :    0.202239
  28 H :    0.395221
  29 H :    0.202826
  30 C :   -0.840636
  31 H :    0.355189
  32 H :    0.171836
  33 H :    0.165698
  34 C :   -1.155976
  35 H :    0.258210
  36 H :    0.302813
  37 H :    0.249301
  38 H :    0.311048
  39 H :    0.305010
  40 H :    0.352426
  41 H :    0.202123
  42 H :   -0.191743
  43 H :   -0.116344
  44 H :    0.096322
  45 H :    0.199624
  46 H :    0.167508
Sum of atomic charges:   -0.0000000

LOEWDIN ATOMIC CHARGES
----------------------
   0 C :    0.300810
   1 C :   -0.037715
   2 C :    0.223036
   3 C :    0.213964
   4 C :   -0.029237
   5 H :   -0.136599
   6 H :   -0.155143
   7 H :   -0.132333
   8 H :   -0.150919
   9 H :   -0.141523
  10 H :   -0.142540
  11 C :    0.271296
  12 C :    0.228395
  13 C :    0.197178
  14 C :    0.199555
  15 C :    0.202781
  16 C :    0.594667
  17 H :   -0.160579
  18 H :   -0.161306
  19 H :   -0.156776
  20 C :   -0.554701
  21 O :    0.496197
  22 C :    0.581832
  23 C :   -0.108374
  24 C :    0.243409
  25 H :   -0.244183
  26 C :    0.571935
  27 H :   -0.171231
  28 H :   -0.202516
  29 H :   -0.170668
  30 C :    0.561509
  31 H :   -0.199784
  32 H :   -0.163366
  33 H :   -0.164371
  34 C :    0.602393
  35 H :   -0.155548
  36 H :   -0.159362
  37 H :   -0.160016
  38 H :   -0.170820
  39 H :   -0.171043
  40 H :   -0.180055
  41 H :   -0.214902
  42 H :   -0.204776
  43 H :   -0.165431
  44 H :   -0.181672
  45 H :   -0.186064
  46 H :   -0.155403

  Mayer bond orders larger than 0.100000
B(  0-C ,  1-C ) :   1.0179 B(  0-C ,  2-C ) :   0.1240 B(  0-C ,  4-C ) :   0.7497
B(  0-C ,  6-H ) :   1.0293 B(  0-C ,  7-H ) :   0.9841 B(  0-C , 16-C ) :   0.1499
B(  1-C ,  2-C ) :   1.1014 B(  1-C ,  5-H ) :   0.9748 B(  1-C , 12-C ) :   0.1365
B(  1-C , 34-C ) :   0.5842 B(  1-C , 35-H ) :  -0.1048 B(  2-C , 12-C ) :   1.4541
B(  2-C , 20-C ) :   0.1631 B(  2-C , 21-O ) :  -0.1379 B(  2-C , 46-H ) :   1.0229
B(  3-C , 10-H ) :  -0.1700 B(  3-C , 11-C ) :   0.5068 B(  3-C , 13-C ) :   1.1539
B(  3-C , 15-C ) :   0.2143 B(  3-C , 23-C ) :   0.1300 B(  3-C , 41-H ) :  -0.2317
B(  3-C , 43-H ) :   1.5942 B(  3-C , 44-H ) :  -0.1054 B(  4-C ,  8-H ) :   0.9030
B(  4-C , 11-C ) :   0.7250 B(  4-C , 16-C ) :   0.1543 B(  4-C , 17-H ) :  -0.1107
B(  4-C , 19-H ) :  -0.1343 B(  9-H , 11-C ) :   1.1834 B( 10-H , 11-C ) :   1.0080
B( 11-C , 16-C ) :   0.1674 B( 11-C , 41-H ) :  -0.1208 B( 12-C , 20-C ) :   0.3054
B( 12-C , 45-H ) :   1.1315 B( 12-C , 46-H ) :  -0.1795 B( 13-C , 14-C ) :  -0.1020
B( 13-C , 15-C ) :   0.3626 B( 13-C , 25-H ) :   0.1033 B( 13-C , 41-H ) :   0.1547
B( 13-C , 42-H ) :  -0.1713 B( 13-C , 44-H ) :   1.3149 B( 14-C , 15-C ) :   1.0195
B( 14-C , 23-C ) :   0.8329 B( 14-C , 24-C ) :   0.2202 B( 14-C , 26-C ) :   0.1160
B( 14-C , 30-C ) :   0.2480 B( 14-C , 41-H ) :   1.5446 B( 14-C , 42-H ) :  -0.2003
B( 14-C , 43-H ) :  -0.1186 B( 15-C , 23-C ) :   0.2053 B( 15-C , 24-C ) :   0.1582
B( 15-C , 30-C ) :  -0.2116 B( 15-C , 42-H ) :   1.7572 B( 15-C , 44-H ) :  -0.2865
B( 16-C , 17-H ) :   1.1056 B( 16-C , 18-H ) :   1.0413 B( 16-C , 19-H ) :   1.0885
B( 20-C , 21-O ) :   1.3537 B( 20-C , 22-C ) :   0.8130 B( 20-C , 46-H ) :   0.1806
B( 21-O , 25-H ) :  -0.1041 B( 21-O , 46-H ) :   0.1542 B( 22-C , 38-H ) :   0.9464
B( 22-C , 39-H ) :   0.9678 B( 22-C , 40-H ) :   0.9467 B( 23-C , 24-C ) :   0.1845
B( 23-C , 25-H ) :  -0.1322 B( 23-C , 30-C ) :   0.4863 B( 23-C , 32-H ) :  -0.1281
B( 23-C , 33-H ) :  -0.1069 B( 23-C , 43-H ) :  -0.1211 B( 23-C , 44-H ) :  -0.1098
B( 24-C , 25-H ) :   1.2026 B( 24-C , 26-C ) :   0.6826 B( 24-C , 27-H ) :  -0.1119
B( 24-C , 29-H ) :  -0.1028 B( 24-C , 30-C ) :  -0.2255 B( 25-H , 26-C ) :  -0.2762
B( 25-H , 41-H ) :  -0.1238 B( 26-C , 27-H ) :   1.1600 B( 26-C , 28-H ) :   0.7934
B( 26-C , 29-H ) :   1.1593 B( 30-C , 31-H ) :   0.8043 B( 30-C , 32-H ) :   1.1616
B( 30-C , 33-H ) :   1.1577 B( 34-C , 35-H ) :   1.0730 B( 34-C , 36-H ) :   0.9881
B( 34-C , 37-H ) :   1.0423 B( 41-H , 42-H ) :   0.1114 B( 41-H , 43-H ) :   0.2035
B( 43-H , 44-H ) :   0.1569

MP2 TOTAL ENERGY:     -776.305148784 Eh
FINAL SINGLE POINT ENERGY      -776.305148783603

DIPOLE MOMENT
-------------
                                X             Y             Z
Electronic contribution:      4.12304       2.32156      -1.50814
Nuclear contribution   :     -5.32544      -1.80149       1.38965
                        -----------------------------------------
Total Dipole Moment    :     -1.20240       0.52006      -0.11850
                        -----------------------------------------
Magnitude (a.u.)       :      1.31540
Magnitude (Debye)      :      3.34349

Rotational constants in cm-1:     0.013232     0.007218     0.005501
Rotational constants in MHz :   396.684546   216.397080   164.904619

                             ****ORCA TERMINATED NORMALLY****
TOTAL RUN TIME: 0 days 1 hours 4 minutes 20 seconds 374 msec
