                         Program Version 4.2.1 -  RELEASE  -
|  1> %pal
|  2>  nprocs 32
|  3> end
|  4> !RI-MP2 aug-cc-pVTZ aug-cc-pVTZ/C TightSCF
|  5> %maxcore 4500
|  6> *xyzfile 0 1  06_26P.xyz
|  7>
|  8>
|  9>                          ****END OF INPUT****

CARTESIAN COORDINATES (ANGSTROEM)
---------------------------------
  C     -0.995073   -2.773659   -0.480642
  C     -0.184826   -1.573462   -1.054403
  C     -2.409676    0.024917    0.401260
  H     -0.294902   -3.582805   -0.259241
  C     -0.879833   -0.906619   -2.263217
  H     -0.367776    0.029594   -2.512017
  H     -0.735834   -1.560443   -3.130220
  H     -3.023258    0.699244    1.005242
  H      0.750305   -1.986348   -1.441922
  C     -2.376507   -0.643664   -2.131389
  H     -2.743626   -0.271490   -3.093105
  H     -2.895310   -1.592828   -1.973321
  C     -2.802209    0.344880   -1.051443
  H     -2.437591    1.340327   -1.315884
  H     -3.894877    0.415920   -1.083597
  C     -2.844117   -1.404492    0.812064
  H     -3.239713   -1.361472    1.831553
  C     -1.782639   -2.508622    0.808949
  H     -1.066714   -2.302299    1.610146
  H     -2.274586   -3.441203    1.103092
  H     -3.689809   -1.704435    0.184212
  H     -1.662547   -3.164570   -1.254607
  C     -0.933527    0.341695    0.750742
  H     -0.809942    0.259525    1.843327
  Si    -0.502946    2.203326    0.543278
  C      0.032678    2.685351   -1.194397
  H     -0.754455    2.564308   -1.939523
  H      0.333526    3.737128   -1.200372
  H      0.896260    2.096848   -1.508857
  C      0.895116    2.682726    1.706822
  H      0.944468    3.772874    1.780500
  H      0.745993    2.294522    2.717575
  H      1.862953    2.336455    1.341454
  C     -2.013118    3.214866    1.027156
  H     -2.337811    2.982367    2.044762
  H     -1.766467    4.279701    0.995584
  H     -2.862275    3.053032    0.361010
  B      0.138879   -0.591179    0.132686
  C      1.730952   -1.964901    1.511786
  C      1.609599   -0.647104    0.801248
  C      1.574635   -2.121606    2.818657
  H      1.366633   -1.281189    3.473134
  H      1.653746   -3.097560    3.281188
  C      2.651158   -0.507073   -0.267886
  O      3.223136   -1.400600   -0.834348
  O      2.848494    0.791310   -0.577280
  C      3.786925    1.048333   -1.625820
  H      3.467848    0.565928   -2.549588
  H      3.805505    2.128694   -1.744524
  H      4.773836    0.675840   -1.352818
  H      1.725335    0.169475    1.512025
  H      1.947669   -2.820886    0.881561

 Total Charge           Charge          ....    0
 Multiplicity           Mult            ....    1
 Number of Electrons    NEL             ....  168
 Basis Dimension        Dim             .... 1683

ORBITAL ENERGIES
----------------

  NO   OCC          E(Eh)            E(eV)
   0   2.0000     -68.755235     -1870.9251
   1   2.0000     -20.603441      -560.6481
   2   2.0000     -20.539884      -558.9187
   3   2.0000     -11.375629      -309.5466
   4   2.0000     -11.285684      -307.0991
   5   2.0000     -11.239875      -305.8526
   6   2.0000     -11.223929      -305.4186
   7   2.0000     -11.223233      -305.3997
   8   2.0000     -11.221819      -305.3612
   9   2.0000     -11.215888      -305.1998
  10   2.0000     -11.214412      -305.1597
  11   2.0000     -11.212414      -305.1053
  12   2.0000     -11.212141      -305.0979
  13   2.0000     -11.211453      -305.0792
  14   2.0000     -11.211020      -305.0674
  15   2.0000     -11.195038      -304.6325
  16   2.0000     -11.194286      -304.6120
  17   2.0000     -11.193698      -304.5960
  18   2.0000     -11.191947      -304.5484
  19   2.0000     -11.186594      -304.4027
  20   2.0000      -7.589439      -206.5191
  21   2.0000      -6.101700      -166.0357
  22   2.0000      -4.207956      -114.5043
  23   2.0000      -4.207879      -114.5022
  24   2.0000      -4.207859      -114.5017
  25   2.0000      -1.462881       -39.8070
  26   2.0000      -1.359825       -37.0027
  27   2.0000      -1.116233       -30.3742
  28   2.0000      -1.089152       -29.6373
  29   2.0000      -1.046294       -28.4711
  30   2.0000      -1.041878       -28.3509
  31   2.0000      -1.004884       -27.3443
  32   2.0000      -0.979347       -26.6494
  33   2.0000      -0.953894       -25.9568
  34   2.0000      -0.934000       -25.4154
  35   2.0000      -0.922916       -25.1138
  36   2.0000      -0.921898       -25.0861
  37   2.0000      -0.914927       -24.8964
  38   2.0000      -0.879137       -23.9225
  39   2.0000      -0.797197       -21.6928
  40   2.0000      -0.794030       -21.6066
  41   2.0000      -0.788087       -21.4449
  42   2.0000      -0.752731       -20.4829
  43   2.0000      -0.718304       -19.5460
  44   2.0000      -0.701956       -19.1012
  45   2.0000      -0.680083       -18.5060
  46   2.0000      -0.676029       -18.3957
  47   2.0000      -0.663373       -18.0513
  48   2.0000      -0.643930       -17.5222
  49   2.0000      -0.629707       -17.1352
  50   2.0000      -0.621816       -16.9205
  51   2.0000      -0.609945       -16.5974
  52   2.0000      -0.599719       -16.3192
  53   2.0000      -0.594840       -16.1864
  54   2.0000      -0.582811       -15.8591
  55   2.0000      -0.575557       -15.6617
  56   2.0000      -0.571761       -15.5584
  57   2.0000      -0.568496       -15.4696
  58   2.0000      -0.564081       -15.3494
  59   2.0000      -0.560976       -15.2649
  60   2.0000      -0.558611       -15.2006
  61   2.0000      -0.550220       -14.9722
  62   2.0000      -0.544965       -14.8293
  63   2.0000      -0.536651       -14.6030
  64   2.0000      -0.531772       -14.4702
  65   2.0000      -0.529270       -14.4022
  66   2.0000      -0.523700       -14.2506
  67   2.0000      -0.510901       -13.9023
  68   2.0000      -0.499666       -13.5966
  69   2.0000      -0.489602       -13.3227
  70   2.0000      -0.484842       -13.1932
  71   2.0000      -0.475166       -12.9299
  72   2.0000      -0.464978       -12.6527
  73   2.0000      -0.463618       -12.6157
  74   2.0000      -0.456251       -12.4152
  75   2.0000      -0.445187       -12.1141
  76   2.0000      -0.443896       -12.0790
  77   2.0000      -0.430633       -11.7181
  78   2.0000      -0.429967       -11.7000
  79   2.0000      -0.418392       -11.3850
  80   2.0000      -0.414402       -11.2765
  81   2.0000      -0.406091       -11.0503
  82   2.0000      -0.384320       -10.4579
  83   2.0000      -0.353345        -9.6150
  84   0.0000       0.021656         0.5893
  85   0.0000       0.027206         0.7403
  86   0.0000       0.028718         0.7815
  87   0.0000       0.030381         0.8267
  88   0.0000       0.038525         1.0483

MULLIKEN ATOMIC CHARGES
-----------------------
   0 C :   -0.809911
   1 C :    0.777305
   2 C :   -0.025828
   3 H :    0.044463
   4 C :   -0.762541
   5 H :    0.009119
   6 H :    0.167203
   7 H :   -0.007755
   8 H :    0.052466
   9 C :   -0.443719
  10 H :    0.429352
  11 H :   -0.078439
  12 C :   -0.449804
  13 H :    0.140819
  14 H :    0.137045
  15 C :   -0.913241
  16 H :    0.231628
  17 C :   -0.422257
  18 H :    0.224868
  19 H :    0.473799
  20 H :   -0.087496
  21 H :   -0.060479
  22 C :    1.413078
  23 H :    0.381934
  24 Si:    3.796806
  25 C :   -1.405567
  26 H :    0.138106
  27 H :    0.165140
  28 H :    0.529811
  29 C :   -2.264464
  30 H :   -0.133716
  31 H :    0.124682
  32 H :    0.613979
  33 C :   -1.927381
  34 H :    0.147441
  35 H :    0.053433
  36 H :    0.287404
  37 B :    0.213047
  38 C :   -0.037477
  39 C :    0.499212
  40 C :   -1.288304
  41 H :    0.403908
  42 H :    0.353637
  43 C :    0.516228
  44 O :   -1.376064
  45 O :   -0.172512
  46 C :   -1.136389
  47 H :    0.385470
  48 H :    0.325107
  49 H :    0.312456
  50 H :    0.378557
  51 H :    0.075841
Sum of atomic charges:    0.0000000

LOEWDIN ATOMIC CHARGES
----------------------
   0 C :    0.339550
   1 C :    0.156122
   2 C :    0.006006
   3 H :   -0.137287
   4 C :    0.326699
   5 H :   -0.142800
   6 H :   -0.129471
   7 H :   -0.159491
   8 H :   -0.166331
   9 C :    0.315078
  10 H :   -0.130455
  11 H :   -0.163354
  12 C :    0.316136
  13 H :   -0.184026
  14 H :   -0.124719
  15 C :    0.343515
  16 H :   -0.134335
  17 C :    0.319727
  18 H :   -0.165706
  19 H :   -0.129210
  20 H :   -0.144275
  21 H :   -0.145930
  22 C :    0.183488
  23 H :   -0.182861
  24 Si:    0.541498
  25 C :    0.607401
  26 H :   -0.232330
  27 H :   -0.214930
  28 H :   -0.252054
  29 C :    0.599544
  30 H :   -0.220536
  31 H :   -0.215316
  32 H :   -0.247717
  33 C :    0.596437
  34 H :   -0.215877
  35 H :   -0.223300
  36 H :   -0.229019
  37 B :   -0.501238
  38 C :    0.184553
  39 C :    0.079611
  40 C :    0.553638
  41 H :   -0.203830
  42 H :   -0.214217
  43 C :   -0.810586
  44 O :    0.506825
  45 O :    0.587146
  46 C :    0.360582
  47 H :   -0.175702
  48 H :   -0.180938
  49 H :   -0.175165
  50 H :   -0.201286
  51 H :   -0.169258

  Mayer bond orders larger than 0.100000
B(  0-C ,  1-C ) :   0.6228 B(  0-C ,  3-H ) :   1.2925 B(  0-C ,  8-H ) :  -0.3213
B(  0-C , 17-C ) :   0.6652 B(  0-C , 19-H ) :  -0.1757 B(  0-C , 21-H ) :   1.3522
B(  0-C , 22-C ) :   0.1100 B(  0-C , 37-B ) :   0.1736 B(  1-C ,  2-C ) :   0.1318
B(  1-C ,  3-H ) :  -0.1685 B(  1-C ,  4-C ) :   0.7417 B(  1-C ,  6-H ) :  -0.1528
B(  1-C ,  8-H ) :   1.2464 B(  1-C ,  9-C ) :   0.1214 B(  1-C , 17-C ) :   0.1311
B(  1-C , 37-B ) :   0.8368 B(  1-C , 38-C ) :  -0.1117 B(  1-C , 44-O ) :   0.1169
B(  2-C ,  7-H ) :   1.1471 B(  2-C ,  9-C ) :   0.1795 B(  2-C , 12-C ) :   0.8280
B(  2-C , 15-C ) :   0.5646 B(  2-C , 20-H ) :  -0.1397 B(  2-C , 22-C ) :   0.9245
B(  2-C , 23-H ) :  -0.2061 B(  2-C , 37-B ) :   0.2733 B(  4-C ,  5-H ) :   1.4004
B(  4-C ,  6-H ) :   1.1009 B(  4-C ,  8-H ) :  -0.1217 B(  4-C ,  9-C ) :   0.7085
B(  4-C , 11-H ) :   0.1137 B(  4-C , 37-B ) :  -0.3074 B(  5-H ,  6-H ) :   0.1132
B(  5-H , 37-B ) :  -0.2888 B(  6-H ,  9-C ) :  -0.1170 B(  7-H , 15-C ) :  -0.2504
B(  7-H , 22-C ) :  -0.1995 B(  8-H , 37-B ) :  -0.2813 B(  8-H , 39-C ) :   0.1158
B(  9-C , 10-H ) :   0.7745 B(  9-C , 11-H ) :   1.3992 B(  9-C , 12-C ) :   0.8027
B(  9-C , 13-H ) :   0.1154 B(  9-C , 14-H ) :  -0.1147 B(  9-C , 37-B ) :  -0.1790
B( 11-H , 37-B ) :  -0.2224 B( 12-C , 13-H ) :   0.9471 B( 12-C , 14-H ) :   1.1765
B( 12-C , 22-C ) :   0.1305 B( 12-C , 37-B ) :  -0.1533 B( 15-C , 16-H ) :   0.9976
B( 15-C , 17-C ) :   0.7944 B( 15-C , 18-H ) :   0.1646 B( 15-C , 19-H ) :  -0.1109
B( 15-C , 20-H ) :   1.4752 B( 15-C , 22-C ) :   0.2514 B( 15-C , 37-B ) :  -0.1412
B( 17-C , 18-H ) :   1.1469 B( 17-C , 19-H ) :   0.8451 B( 21-H , 37-B ) :  -0.1000
B( 22-C , 23-H ) :   0.8359 B( 22-C , 24-Si) :   0.4590 B( 22-C , 25-C ) :   0.2032
B( 22-C , 39-C ) :  -0.1157 B( 22-C , 45-O ) :  -0.1007 B( 23-H , 24-Si) :  -0.2566
B( 23-H , 33-C ) :   0.1172 B( 23-H , 37-B ) :  -0.4611 B( 24-Si, 25-C ) :   0.1789
B( 24-Si, 27-H ) :  -0.1659 B( 24-Si, 29-C ) :  -1.7945 B( 24-Si, 30-H ) :  -0.4105
B( 24-Si, 31-H ) :  -0.2421 B( 24-Si, 32-H ) :   0.1160 B( 24-Si, 33-C ) :  -1.6308
B( 24-Si, 34-H ) :  -0.2764 B( 24-Si, 35-H ) :  -0.2725 B( 24-Si, 37-B ) :   0.6394
B( 25-C , 26-H ) :   1.2834 B( 25-C , 27-H ) :   0.9985 B( 25-C , 28-H ) :   0.7240
B( 25-C , 29-C ) :   0.1756 B( 25-C , 33-C ) :   0.1652 B( 29-C , 30-H ) :   1.6829
B( 29-C , 31-H ) :   1.3552 B( 29-C , 32-H ) :   0.5906 B( 29-C , 33-C ) :   0.1466
B( 29-C , 37-B ) :   0.2116 B( 29-C , 39-C ) :   0.1340 B( 33-C , 34-H ) :   1.2853
B( 33-C , 35-H ) :   1.3411 B( 33-C , 36-H ) :   1.0650 B( 33-C , 37-B ) :   0.2273
B( 37-B , 39-C ) :   1.0976 B( 37-B , 40-C ) :   0.1569 B( 37-B , 43-C ) :   0.5678
B( 37-B , 45-O ) :  -0.2179 B( 37-B , 50-H ) :   0.2330 B( 37-B , 51-H ) :  -0.1364
B( 38-C , 39-C ) :   0.7624 B( 38-C , 40-C ) :   0.7887 B( 38-C , 43-C ) :   0.4180
B( 38-C , 44-O ) :   0.1792 B( 38-C , 50-H ) :  -0.2459 B( 38-C , 51-H ) :   1.3671
B( 39-C , 40-C ) :   0.4719 B( 39-C , 43-C ) :   0.3877 B( 39-C , 44-O ) :  -0.1690
B( 39-C , 50-H ) :   0.9569 B( 40-C , 41-H ) :   0.9740 B( 40-C , 42-H ) :   0.8704
B( 40-C , 51-H ) :  -0.1120 B( 43-C , 44-O ) :   0.7397 B( 43-C , 45-O ) :   1.0176
B( 43-C , 50-H ) :  -0.8173 B( 43-C , 51-H ) :   0.1022 B( 44-O , 46-C ) :   0.1132
B( 45-O , 46-C ) :   0.8784 B( 46-C , 47-H ) :   0.8727 B( 46-C , 48-H ) :   0.9641
B( 46-C , 49-H ) :   0.9765

MP2 TOTAL ENERGY:    -1129.148068878 Eh
FINAL SINGLE POINT ENERGY     -1129.148068878387

DIPOLE MOMENT
-------------
                                X             Y             Z
Electronic contribution:     12.51109      -5.05342       0.68787
Nuclear contribution   :    -12.94604       5.73423      -0.57204
                        -----------------------------------------
Total Dipole Moment    :     -0.43496       0.68082       0.11583
                        -----------------------------------------
Magnitude (a.u.)       :      0.81616
Magnitude (Debye)      :      2.07451

Rotational constants in cm-1:     0.010937     0.009287     0.007366
Rotational constants in MHz :   327.875934   278.421922   220.829222

                             ****ORCA TERMINATED NORMALLY****
TOTAL RUN TIME: 0 days 2 hours 7 minutes 9 seconds 773 msec
