                         Program Version 4.2.1 -  RELEASE  -
|  1> %pal
|  2>  nprocs 32
|  3> end
|  4> !RI-MP2 aug-cc-pVTZ aug-cc-pVTZ/C TightSCF
|  5> %maxcore 4500
|  6> *xyzfile 0 1  06_10TS.xyz
|  7>
|  8>
|  9>                          ****END OF INPUT****

CARTESIAN COORDINATES (ANGSTROEM)
---------------------------------
  C     -1.971191   -0.346818   -1.232411
  C     -0.756032    0.365443    0.971413
  C     -2.225515    1.143353   -1.552998
  H     -1.462002    1.458891   -2.270632
  H     -3.192321    1.250254   -2.059619
  H      0.151515    0.356398    1.582578
  H     -1.917903   -0.869154   -2.194055
  H      0.299287    0.116284   -1.175297
  C     -1.033066    1.847067    0.636262
  H     -0.111034    2.251862    0.209314
  H     -1.224041    2.412399    1.556396
  B     -0.552694   -0.335809   -0.450920
  C      0.876554   -1.648108   -0.258831
  C      2.147706   -1.406424   -0.067318
  H      2.788875   -2.268241    0.081883
  C     -0.291711   -2.273059   -0.341913
  H     -0.652604   -2.654366   -1.288324
  H     -0.812255   -2.576141    0.556651
  C      2.827164   -0.091441   -0.037220
  O      2.323773    0.996853   -0.047959
  O      4.156737   -0.292295    0.018535
  C      4.956766    0.892561    0.063327
  H      4.704737    1.487187    0.941190
  H      5.986185    0.548810    0.114537
  H      4.795703    1.493111   -0.831691
  C     -1.870802   -0.314617    1.784837
  H     -1.507570   -1.294801    2.120389
  H     -2.057597    0.246992    2.707720
  C     -3.095127   -0.991632   -0.404954
  H     -2.947784   -2.077854   -0.403238
  H     -4.058861   -0.832005   -0.902610
  C     -2.191158    2.093335   -0.344697
  H     -3.141700    2.038914    0.186776
  H     -2.126411    3.121841   -0.713159
  C     -3.208346   -0.502324    1.049526
  H     -3.826958   -1.209187    1.611701
  H     -3.759337    0.437374    1.069343

 Total Charge           Charge          ....    0
 Multiplicity           Mult            ....    1
 Number of Electrons    NEL             ....  120
 Basis Dimension        Dim             .... 1219

ORBITAL ENERGIES
----------------

  NO   OCC          E(Eh)            E(eV)
   0   2.0000     -20.613088      -560.9106
   1   2.0000     -20.551525      -559.2354
   2   2.0000     -11.395002      -310.0738
   3   2.0000     -11.331592      -308.3483
   4   2.0000     -11.290881      -307.2405
   5   2.0000     -11.282287      -307.0066
   6   2.0000     -11.276475      -306.8485
   7   2.0000     -11.202146      -304.8259
   8   2.0000     -11.200106      -304.7704
   9   2.0000     -11.199512      -304.7542
  10   2.0000     -11.195780      -304.6527
  11   2.0000     -11.192020      -304.5503
  12   2.0000     -11.188578      -304.4567
  13   2.0000     -11.186794      -304.4082
  14   2.0000     -11.170963      -303.9774
  15   2.0000      -7.541779      -205.2222
  16   2.0000      -1.473937       -40.1079
  17   2.0000      -1.371435       -37.3186
  18   2.0000      -1.146105       -31.1871
  19   2.0000      -1.092657       -29.7327
  20   2.0000      -1.042987       -28.3811
  21   2.0000      -1.021019       -27.7833
  22   2.0000      -1.007340       -27.4111
  23   2.0000      -0.972875       -26.4733
  24   2.0000      -0.909156       -24.7394
  25   2.0000      -0.894754       -24.3475
  26   2.0000      -0.828817       -22.5533
  27   2.0000      -0.776442       -21.1281
  28   2.0000      -0.763249       -20.7691
  29   2.0000      -0.753601       -20.5065
  30   2.0000      -0.741586       -20.1796
  31   2.0000      -0.711506       -19.3611
  32   2.0000      -0.698061       -18.9952
  33   2.0000      -0.682674       -18.5765
  34   2.0000      -0.665642       -18.1130
  35   2.0000      -0.657629       -17.8950
  36   2.0000      -0.640655       -17.4331
  37   2.0000      -0.621362       -16.9081
  38   2.0000      -0.605345       -16.4723
  39   2.0000      -0.577487       -15.7142
  40   2.0000      -0.567413       -15.4401
  41   2.0000      -0.563679       -15.3385
  42   2.0000      -0.559755       -15.2317
  43   2.0000      -0.556527       -15.1439
  44   2.0000      -0.542819       -14.7709
  45   2.0000      -0.539427       -14.6786
  46   2.0000      -0.518873       -14.1193
  47   2.0000      -0.488193       -13.2844
  48   2.0000      -0.480857       -13.0848
  49   2.0000      -0.472187       -12.8489
  50   2.0000      -0.462460       -12.5842
  51   2.0000      -0.454612       -12.3706
  52   2.0000      -0.450132       -12.2487
  53   2.0000      -0.446571       -12.1518
  54   2.0000      -0.438541       -11.9333
  55   2.0000      -0.426578       -11.6078
  56   2.0000      -0.405179       -11.0255
  57   2.0000      -0.380635       -10.3576
  58   2.0000      -0.376970       -10.2579
  59   2.0000      -0.357911        -9.7392
  60   0.0000       0.020393         0.5549
  61   0.0000       0.027892         0.7590
  62   0.0000       0.032132         0.8743
  63   0.0000       0.033360         0.9078
  64   0.0000       0.040117         1.0916

MULLIKEN ATOMIC CHARGES
-----------------------
   0 C :    0.291262
   1 C :    0.427622
   2 C :   -1.039939
   3 H :   -0.078441
   4 H :    0.301625
   5 H :    0.402065
   6 H :    0.424222
   7 H :   -0.408690
   8 C :   -1.025869
   9 H :    0.106317
  10 H :    0.232450
  11 B :    1.392614
  12 C :    0.583702
  13 C :   -0.563264
  14 H :   -0.358450
  15 C :   -0.449647
  16 H :    0.298912
  17 H :    0.316336
  18 C :    1.051295
  19 O :   -0.819965
  20 O :   -0.457986
  21 C :   -0.860780
  22 H :    0.375224
  23 H :    0.383167
  24 H :    0.363950
  25 C :   -0.915827
  26 H :   -0.037178
  27 H :    0.325275
  28 C :   -0.731095
  29 H :   -0.085685
  30 H :    0.359796
  31 C :   -0.366369
  32 H :    0.079960
  33 H :    0.376972
  34 C :   -0.414189
  35 H :    0.439309
  36 H :    0.081298
Sum of atomic charges:    0.0000000

LOEWDIN ATOMIC CHARGES
----------------------
   0 C :    0.102789
   1 C :    0.102348
   2 C :    0.319253
   3 H :   -0.137124
   4 H :   -0.133849
   5 H :   -0.145825
   6 H :   -0.134288
   7 H :   -0.065812
   8 C :    0.321286
   9 H :   -0.145565
  10 H :   -0.131445
  11 B :   -0.518128
  12 C :    0.126640
  13 C :    0.253473
  14 H :   -0.197893
  15 C :    0.537698
  16 H :   -0.131652
  17 H :   -0.151376
  18 C :   -0.835457
  19 O :    0.512802
  20 O :    0.560145
  21 C :    0.359668
  22 H :   -0.178688
  23 H :   -0.184967
  24 H :   -0.177921
  25 C :    0.316031
  26 H :   -0.153081
  27 H :   -0.132797
  28 C :    0.310309
  29 H :   -0.155759
  30 H :   -0.134003
  31 C :    0.327962
  32 H :   -0.178998
  33 H :   -0.136106
  34 C :    0.326874
  35 H :   -0.137277
  36 H :   -0.179267

  Mayer bond orders larger than 0.100000
B(  0-C ,  2-C ) :   0.7960 B(  0-C ,  6-H ) :   0.8857 B(  0-C ,  7-H ) :   0.1524
B(  0-C , 11-B ) :   0.8125 B(  0-C , 15-C ) :  -0.1155 B(  0-C , 28-C ) :   0.6829
B(  1-C ,  5-H ) :   0.8403 B(  1-C ,  8-C ) :   0.9264 B(  1-C , 11-B ) :   0.9564
B(  1-C , 12-C ) :   0.1594 B(  1-C , 25-C ) :   0.6961 B(  2-C ,  3-H ) :   1.4246
B(  2-C ,  4-H ) :   0.9536 B(  2-C ,  6-H ) :  -0.1689 B(  2-C ,  8-C ) :   0.1865
B(  2-C , 11-B ) :  -0.2558 B(  2-C , 31-C ) :   0.8716 B(  2-C , 32-H ) :   0.1362
B(  2-C , 33-H ) :  -0.1068 B(  3-H , 11-B ) :  -0.1729 B(  5-H ,  8-C ) :  -0.2003
B(  5-H , 25-C ) :  -0.2359 B(  6-H , 28-C ) :  -0.1910 B(  7-H , 11-B ) :   0.8287
B(  7-H , 12-C ) :   0.2884 B(  7-H , 13-C ) :   0.1051 B(  8-C ,  9-H ) :   1.1869
B(  8-C , 10-H ) :   1.0215 B(  8-C , 31-C ) :   0.8813 B(  8-C , 32-H ) :   0.1170
B( 11-B , 12-C ) :  -0.3230 B( 11-B , 13-C ) :   0.1792 B( 11-B , 14-H ) :   0.1774
B( 11-B , 18-C ) :   0.2321 B( 11-B , 19-O ) :  -0.2407 B( 11-B , 28-C ) :   0.1356
B( 12-C , 13-C ) :   0.7304 B( 12-C , 14-H ) :  -0.4163 B( 12-C , 15-C ) :   1.3279
B( 12-C , 18-C ) :   0.3784 B( 13-C , 14-H ) :   2.0516 B( 13-C , 15-C ) :  -0.6003
B( 13-C , 18-C ) :   0.6431 B( 13-C , 19-O ) :  -0.1455 B( 13-C , 20-O ) :  -0.1932
B( 14-H , 15-C ) :  -0.1075 B( 14-H , 18-C ) :  -0.2407 B( 15-C , 16-H ) :   1.0217
B( 15-C , 17-H ) :   1.0524 B( 18-C , 19-O ) :   1.4941 B( 18-C , 20-O ) :   0.9544
B( 19-O , 20-O ) :  -0.1317 B( 20-O , 21-C ) :   0.9184 B( 21-C , 22-H ) :   0.8859
B( 21-C , 23-H ) :   0.8730 B( 21-C , 24-H ) :   0.8947 B( 25-C , 26-H ) :   1.3244
B( 25-C , 27-H ) :   0.9594 B( 25-C , 28-C ) :   0.1674 B( 25-C , 34-C ) :   0.8401
B( 25-C , 35-H ) :  -0.1135 B( 25-C , 36-H ) :   0.1007 B( 28-C , 29-H ) :   1.3357
B( 28-C , 30-H ) :   0.8619 B( 28-C , 34-C ) :   0.8679 B( 28-C , 35-H ) :  -0.1223
B( 28-C , 36-H ) :   0.1312 B( 31-C , 32-H ) :   1.1331 B( 31-C , 33-H ) :   0.8756
B( 34-C , 35-H ) :   0.8313 B( 34-C , 36-H ) :   1.1422

MP2 TOTAL ENERGY:     -681.874047959 Eh
FINAL SINGLE POINT ENERGY      -681.874047959094

DIPOLE MOMENT
-------------
                                X             Y             Z
Electronic contribution:     14.86350      -5.05035      -1.27939
Nuclear contribution   :    -13.84711       3.80900       1.29286
                        -----------------------------------------
Total Dipole Moment    :      1.01639      -1.24136       0.01346
                        -----------------------------------------
Magnitude (a.u.)       :      1.60443
Magnitude (Debye)      :      4.07814

Rotational constants in cm-1:     0.033640     0.010313     0.009330
Rotational constants in MHz :  1008.500393   309.189045   279.701576

                             ****ORCA TERMINATED NORMALLY****
TOTAL RUN TIME: 0 days 0 hours 42 minutes 1 seconds 607 msec
