                         Program Version 4.2.1 -  RELEASE  -
|  1> %pal
|  2>  nprocs 32
|  3> end
|  4> !RI-MP2 aug-cc-pVTZ aug-cc-pVTZ/C TightSCF
|  5> %maxcore 4500
|  6> *xyzfile 0 1  02_41P.xyz
|  7>
|  8>
|  9>                          ****END OF INPUT****

CARTESIAN COORDINATES (ANGSTROEM)
---------------------------------
  C      0.659220    0.161054    0.623642
  C      0.844450   -0.918040   -0.442473
  C      1.549881    1.417035    0.277653
  O      0.836483    2.460060    0.922180
  C      1.317164    1.729588   -1.189147
  C      0.101620    2.258610   -1.240186
  C     -0.382115    2.290605    0.199234
  C     -0.746083    0.842163    0.632987
  C     -1.870313    0.231647   -0.163172
  O     -2.344184   -0.869013    0.432463
  O     -2.345824    0.704792   -1.161125
  O      0.004466   -1.396809   -1.153496
  O      2.132237   -1.302624   -0.472381
  C      2.458525   -2.322482   -1.422177
  C     -3.329260   -1.594915   -0.306720
  H     -1.111200    3.047835    0.470179
  H      3.524975   -2.498349   -1.311098
  H      2.226433   -1.986256   -2.432501
  H      1.895090   -3.230901   -1.210878
  H     -3.600079   -2.442997    0.316699
  H     -2.901154   -1.932214   -1.250548
  H     -4.198988   -0.969071   -0.504077
  H     -1.056852    0.870314    1.676895
  N      1.015479   -0.335629    1.940980
  H      2.015153   -0.492498    1.975186
  C      0.304671   -1.529797    2.377706
  H      0.639137   -1.789151    3.382467
  H     -0.766374   -1.331433    2.415172
  H      0.454173   -2.403703    1.725967
  H      1.975873    1.467203   -2.003697
  H     -0.488194    2.529870   -2.100721
  H      2.571674    1.346697    0.638891

 Total Charge           Charge          ....    0
 Multiplicity           Mult            ....    1
 Number of Electrons    NEL             ....  128
 Basis Dimension        Dim             .... 1127

ORBITAL ENERGIES
----------------

  NO   OCC          E(Eh)            E(eV)
   0   2.0000     -20.615030      -560.9635
   1   2.0000     -20.595732      -560.4383
   2   2.0000     -20.562118      -559.5237
   3   2.0000     -20.556034      -559.3581
   4   2.0000     -20.537081      -558.8424
   5   2.0000     -15.558269      -423.3620
   6   2.0000     -11.385174      -309.8063
   7   2.0000     -11.374755      -309.5228
   8   2.0000     -11.299586      -307.4774
   9   2.0000     -11.297123      -307.4103
  10   2.0000     -11.295457      -307.3650
  11   2.0000     -11.294398      -307.3362
  12   2.0000     -11.276934      -306.8610
  13   2.0000     -11.252937      -306.2080
  14   2.0000     -11.248633      -306.0909
  15   2.0000     -11.234984      -305.7195
  16   2.0000     -11.230285      -305.5916
  17   2.0000      -1.477823       -40.2136
  18   2.0000      -1.459331       -39.7104
  19   2.0000      -1.411909       -38.4200
  20   2.0000      -1.374714       -37.4079
  21   2.0000      -1.356872       -36.9224
  22   2.0000      -1.230287       -33.4778
  23   2.0000      -1.103888       -30.0383
  24   2.0000      -1.051285       -28.6069
  25   2.0000      -1.029070       -28.0024
  26   2.0000      -0.981473       -26.7072
  27   2.0000      -0.967944       -26.3391
  28   2.0000      -0.908837       -24.7307
  29   2.0000      -0.860835       -23.4245
  30   2.0000      -0.826230       -22.4829
  31   2.0000      -0.789167       -21.4743
  32   2.0000      -0.770215       -20.9586
  33   2.0000      -0.759114       -20.6566
  34   2.0000      -0.739709       -20.1285
  35   2.0000      -0.723559       -19.6890
  36   2.0000      -0.696782       -18.9604
  37   2.0000      -0.691409       -18.8142
  38   2.0000      -0.679893       -18.5008
  39   2.0000      -0.673737       -18.3333
  40   2.0000      -0.666647       -18.1404
  41   2.0000      -0.648425       -17.6446
  42   2.0000      -0.618570       -16.8321
  43   2.0000      -0.613688       -16.6993
  44   2.0000      -0.601654       -16.3718
  45   2.0000      -0.580096       -15.7852
  46   2.0000      -0.573519       -15.6062
  47   2.0000      -0.565482       -15.3875
  48   2.0000      -0.558724       -15.2037
  49   2.0000      -0.555196       -15.1077
  50   2.0000      -0.551629       -15.0106
  51   2.0000      -0.536199       -14.5907
  52   2.0000      -0.531027       -14.4500
  53   2.0000      -0.525030       -14.2868
  54   2.0000      -0.519112       -14.1258
  55   2.0000      -0.496585       -13.5128
  56   2.0000      -0.479321       -13.0430
  57   2.0000      -0.474685       -12.9168
  58   2.0000      -0.471112       -12.8196
  59   2.0000      -0.455773       -12.4022
  60   2.0000      -0.442040       -12.0285
  61   2.0000      -0.431835       -11.7508
  62   2.0000      -0.381891       -10.3918
  63   2.0000      -0.362408        -9.8616
  64   0.0000       0.021962         0.5976
  65   0.0000       0.030446         0.8285
  66   0.0000       0.033392         0.9086
  67   0.0000       0.034762         0.9459
  68   0.0000       0.042876         1.1667

MULLIKEN ATOMIC CHARGES
-----------------------
   0 C :    2.701137
   1 C :    0.608012
   2 C :    0.241688
   3 O :   -1.122760
   4 C :   -0.910449
   5 C :   -0.940141
   6 C :    0.177474
   7 C :   -0.223367
   8 C :    1.064990
   9 O :   -0.346615
  10 O :   -1.234659
  11 O :   -1.181499
  12 O :   -0.614562
  13 C :   -1.113092
  14 C :   -1.021401
  15 H :    0.546502
  16 H :    0.366469
  17 H :    0.415999
  18 H :    0.412244
  19 H :    0.330479
  20 H :    0.393469
  21 H :    0.403826
  22 H :    0.264332
  23 N :   -0.859711
  24 H :    0.030048
  25 C :   -1.171335
  26 H :    0.366389
  27 H :    0.407554
  28 H :    0.250082
  29 H :    0.730382
  30 H :    0.541026
  31 H :    0.487488
Sum of atomic charges:   -0.0000000

LOEWDIN ATOMIC CHARGES
----------------------
   0 C :   -0.383107
   1 C :   -0.819364
   2 C :   -0.230336
   3 O :    0.611305
   4 C :    0.252010
   5 C :    0.260928
   6 C :   -0.218447
   7 C :    0.020124
   8 C :   -0.843659
   9 O :    0.578363
  10 O :    0.498787
  11 O :    0.521147
  12 O :    0.585904
  13 C :    0.367821
  14 C :    0.360816
  15 H :   -0.120515
  16 H :   -0.181614
  17 H :   -0.176083
  18 H :   -0.176680
  19 H :   -0.183328
  20 H :   -0.176489
  21 H :   -0.181948
  22 H :   -0.150631
  23 N :    0.574411
  24 H :   -0.310562
  25 C :    0.478640
  26 H :   -0.160098
  27 H :   -0.188162
  28 H :   -0.159530
  29 H :   -0.161848
  30 H :   -0.161321
  31 H :   -0.126534

  Mayer bond orders larger than 0.100000
B(  0-C ,  2-C ) :   0.7214 B(  0-C ,  3-O ) :  -0.4436 B(  0-C ,  4-C ) :   0.3270
B(  0-C ,  7-C ) :   0.2272 B(  0-C ,  8-C ) :   0.2688 B(  0-C ,  9-O ) :  -0.1321
B(  0-C , 12-O ) :  -0.8224 B(  0-C , 24-H ) :   0.1387 B(  0-C , 25-C ) :  -0.2768
B(  0-C , 28-H ) :  -0.1062 B(  0-C , 30-H ) :   0.1087 B(  1-C ,  7-C ) :   0.1683
B(  1-C ,  8-C ) :  -0.1445 B(  1-C , 11-O ) :   0.7168 B(  1-C , 12-O ) :   1.1379
B(  1-C , 13-C ) :  -0.1106 B(  2-C ,  3-O ) :   0.6026 B(  2-C ,  4-C ) :   0.9059
B(  2-C ,  5-C ) :  -0.1624 B(  2-C ,  6-C ) :   0.1660 B(  2-C ,  7-C ) :   0.1665
B(  2-C , 12-O ) :   0.1556 B(  2-C , 23-N ) :   0.1165 B(  2-C , 31-H ) :   0.8429
B(  3-O ,  6-C ) :   0.6485 B(  3-O ,  7-C ) :   0.4409 B(  3-O , 31-H ) :  -0.1202
B(  4-C ,  5-C ) :   1.6113 B(  4-C , 29-H ) :   0.3317 B(  5-C ,  6-C ) :   0.9099
B(  5-C ,  7-C ) :   0.3214 B(  5-C , 30-H ) :   0.6872 B(  6-C ,  7-C ) :   1.2225
B(  6-C , 15-H ) :   0.7511 B(  7-C ,  8-C ) :   0.5595 B(  7-C , 10-O ) :  -0.1067
B(  7-C , 22-H ) :   0.8939 B(  7-C , 23-N ) :   0.4357 B(  7-C , 25-C ) :   0.1112
B(  8-C ,  9-O ) :   0.9328 B(  8-C , 10-O ) :   0.7886 B(  9-O , 14-C ) :   0.9244
B( 12-O , 13-C ) :   1.0834 B( 13-C , 16-H ) :   0.9103 B( 13-C , 17-H ) :   0.8656
B( 13-C , 18-H ) :   0.8539 B( 14-C , 19-H ) :   0.9498 B( 14-C , 20-H ) :   0.8527
B( 14-C , 21-H ) :   0.8546 B( 22-H , 23-N ) :   0.1180 B( 23-N , 24-H ) :   0.8700
B( 23-N , 25-C ) :   0.9818 B( 25-C , 26-H ) :   0.9355 B( 25-C , 27-H ) :   0.8420
B( 25-C , 28-H ) :   0.9761

MP2 TOTAL ENERGY:     -857.547237885 Eh
FINAL SINGLE POINT ENERGY      -857.547237884858

DIPOLE MOMENT
-------------
                                X             Y             Z
Electronic contribution:     -0.41683       8.58932      -1.69136
Nuclear contribution   :      1.15448      -9.78839       1.77049
                        -----------------------------------------
Total Dipole Moment    :      0.73766      -1.19907       0.07913
                        -----------------------------------------
Magnitude (a.u.)       :      1.41003
Magnitude (Debye)      :      3.58400

Rotational constants in cm-1:     0.019324     0.017207     0.013580
Rotational constants in MHz :   579.329891   515.839569   407.119130

                             ****ORCA TERMINATED NORMALLY****
TOTAL RUN TIME: 0 days 0 hours 30 minutes 53 seconds 587 msec
