                         Program Version 4.2.1 -  RELEASE  -
|  1> %pal
|  2>  nprocs 32
|  3> end
|  4> !RI-MP2 aug-cc-pVTZ aug-cc-pVTZ/C TightSCF
|  5> %maxcore 4500
|  6> *xyzfile 0 1  03_32R1.xyz
|  7>
|  8>
|  9>                          ****END OF INPUT****

CARTESIAN COORDINATES (ANGSTROEM)
---------------------------------
  C      2.574234   -0.348383   -0.072484
  C      2.119788    0.994526   -0.632492
  C      1.407058   -1.283421    0.222957
  C      0.738551    1.376046   -0.110637
  C     -0.312543    0.377223   -0.592965
  C      0.260784   -1.034621   -0.753151
  O     -1.356111    0.387642    0.409387
  C     -2.581498   -0.010714    0.029907
  C     -3.548358    0.056245    1.175249
  O     -2.847287   -0.371778   -1.086450
  H      2.106235    0.938330   -1.725463
  H      2.865646    1.745164   -0.367254
  H      1.070740   -1.080462    1.243080
  H      1.734124   -2.323665    0.197090
  H      0.465005    2.387454   -0.414446
  H      0.748405    1.365825    0.981782
  H     -0.762647    0.695116   -1.532962
  H      0.611942   -1.154873   -1.782441
  H     -0.537686   -1.764707   -0.623879
  H     -3.571289    1.067068    1.584029
  H     -3.218955   -0.612348    1.972173
  H     -4.538223   -0.233804    0.832885
  F      3.267101   -0.122699    1.132779
  H      3.301873   -0.813126   -0.741419

 Total Charge           Charge          ....    0
 Multiplicity           Mult            ....    1
 Number of Electrons    NEL             ....   86
 Basis Dimension        Dim             ....  805

ORBITAL ENERGIES
----------------

  NO   OCC          E(Eh)            E(eV)
   0   2.0000     -26.267280      -714.7690
   1   2.0000     -20.599616      -560.5440
   2   2.0000     -20.543411      -559.0146
   3   2.0000     -11.379453      -309.6507
   4   2.0000     -11.310345      -307.7701
   5   2.0000     -11.293990      -307.3251
   6   2.0000     -11.240836      -305.8787
   7   2.0000     -11.233530      -305.6799
   8   2.0000     -11.232022      -305.6389
   9   2.0000     -11.230407      -305.5949
  10   2.0000     -11.229359      -305.5664
  11   2.0000      -1.575218       -42.8639
  12   2.0000      -1.462190       -39.7882
  13   2.0000      -1.361467       -37.0474
  14   2.0000      -1.135009       -30.8852
  15   2.0000      -1.039626       -28.2897
  16   2.0000      -1.024049       -27.8658
  17   2.0000      -0.993398       -27.0317
  18   2.0000      -0.878278       -23.8992
  19   2.0000      -0.861009       -23.4293
  20   2.0000      -0.786613       -21.4048
  21   2.0000      -0.750488       -20.4218
  22   2.0000      -0.714369       -19.4390
  23   2.0000      -0.697687       -18.9850
  24   2.0000      -0.690596       -18.7921
  25   2.0000      -0.669804       -18.2263
  26   2.0000      -0.659124       -17.9357
  27   2.0000      -0.652539       -17.7565
  28   2.0000      -0.623179       -16.9576
  29   2.0000      -0.597013       -16.2455
  30   2.0000      -0.580303       -15.7909
  31   2.0000      -0.573767       -15.6130
  32   2.0000      -0.563245       -15.3267
  33   2.0000      -0.547149       -14.8887
  34   2.0000      -0.540252       -14.7010
  35   2.0000      -0.533942       -14.5293
  36   2.0000      -0.517020       -14.0688
  37   2.0000      -0.514543       -14.0014
  38   2.0000      -0.476339       -12.9618
  39   2.0000      -0.470485       -12.8026
  40   2.0000      -0.462736       -12.5917
  41   2.0000      -0.447422       -12.1750
  42   2.0000      -0.437532       -11.9059
  43   0.0000       0.026829         0.7301
  44   0.0000       0.030144         0.8203
  45   0.0000       0.032034         0.8717
  46   0.0000       0.040185         1.0935
  47   0.0000       0.044962         1.2235

MULLIKEN ATOMIC CHARGES
-----------------------
   0 C :    0.322744
   1 C :   -0.525793
   2 C :   -0.573958
   3 C :   -0.640149
   4 C :    0.737451
   5 C :   -0.699579
   6 O :   -0.503826
   7 C :    0.360898
   8 C :   -0.669881
   9 O :   -0.846462
  10 H :    0.154550
  11 H :    0.303494
  12 H :    0.122035
  13 H :    0.372393
  14 H :    0.313868
  15 H :    0.157766
  16 H :    0.539992
  17 H :    0.120294
  18 H :    0.324584
  19 H :    0.267910
  20 H :    0.244442
  21 H :    0.377364
  22 F :   -0.645693
  23 H :    0.385557
Sum of atomic charges:    0.0000000

LOEWDIN ATOMIC CHARGES
----------------------
   0 C :   -0.336680
   1 C :    0.296670
   2 C :    0.298837
   3 C :    0.304225
   4 C :   -0.214491
   5 C :    0.307314
   6 O :    0.608444
   7 C :   -0.829329
   8 C :    0.586496
   9 O :    0.468953
  10 H :   -0.138872
  11 H :   -0.143139
  12 H :   -0.146907
  13 H :   -0.138034
  14 H :   -0.133610
  15 H :   -0.145783
  16 H :   -0.155447
  17 H :   -0.131632
  18 H :   -0.149450
  19 H :   -0.173973
  20 H :   -0.172771
  21 H :   -0.182975
  22 F :    0.465583
  23 H :   -0.143432

  Mayer bond orders larger than 0.100000
B(  0-C ,  1-C ) :   0.9224 B(  0-C ,  2-C ) :   0.9006 B(  0-C , 22-F ) :   0.2575
B(  0-C , 23-H ) :   0.9471 B(  1-C ,  3-C ) :   0.9957 B(  1-C , 10-H ) :   1.0807
B(  1-C , 11-H ) :   0.9222 B(  1-C , 22-F ) :   0.1222 B(  2-C ,  5-C ) :   0.9649
B(  2-C , 12-H ) :   1.1037 B(  2-C , 13-H ) :   0.8397 B(  2-C , 22-F ) :   0.1847
B(  3-C ,  4-C ) :   0.8159 B(  3-C , 14-H ) :   0.9202 B(  3-C , 15-H ) :   1.0749
B(  4-C ,  5-C ) :   0.8941 B(  4-C ,  6-O ) :   0.2130 B(  4-C ,  7-C ) :  -0.1230
B(  4-C , 16-H ) :   0.7780 B(  5-C ,  6-O ) :   0.2452 B(  5-C , 17-H ) :   1.1378
B(  5-C , 18-H ) :   0.8755 B(  6-O ,  7-C ) :   1.1403 B(  6-O ,  8-C ) :  -0.1281
B(  6-O , 16-H ) :  -0.1315 B(  7-C ,  8-C ) :   0.7497 B(  7-C ,  9-O ) :   1.5027
B(  8-C , 19-H ) :   0.9727 B(  8-C , 20-H ) :   0.9969 B(  8-C , 21-H ) :   0.8929

MP2 TOTAL ENERGY:     -562.010639519 Eh
FINAL SINGLE POINT ENERGY      -562.010639519028

DIPOLE MOMENT
-------------
                                X             Y             Z
Electronic contribution:      2.97525      -0.17796       1.52039
Nuclear contribution   :     -3.04263       0.34019      -1.51869
                        -----------------------------------------
Total Dipole Moment    :     -0.06738       0.16223       0.00170
                        -----------------------------------------
Magnitude (a.u.)       :      0.17567
Magnitude (Debye)      :      0.44653

Rotational constants in cm-1:     0.084819     0.018095     0.018035
Rotational constants in MHz :  2542.797134   542.461707   540.677822

                             ****ORCA TERMINATED NORMALLY****
TOTAL RUN TIME: 0 days 0 hours 8 minutes 17 seconds 479 msec
