                         Program Version 4.2.1 -  RELEASE  -
|  1> %pal
|  2>  nprocs 32
|  3> end
|  4> !RI-MP2 aug-cc-pVTZ aug-cc-pVTZ/C TightSCF
|  5> %maxcore 4500
|  6> *xyzfile 1 1  08_13P1.xyz
|  7>
|  8>
|  9>                          ****END OF INPUT****

CARTESIAN COORDINATES (ANGSTROEM)
---------------------------------
  C      0.581015    0.547436   -0.000007
  C      1.930379   -0.136797    0.000006
  H      2.074293   -0.754039    0.889415
  H      2.074328   -0.754007   -0.889417
  H      2.713059    0.621816    0.000037
  N     -0.537619   -0.467397   -0.000008
  C     -1.912814    0.121509    0.000007
  H     -2.026734    0.733988    0.891493
  H     -2.026702    0.734107   -0.891401
  H     -2.645036   -0.683054   -0.000060
  H     -0.426274   -1.075953   -0.815216
  H      0.430598    1.165988   -0.884611
  H      0.430586    1.166002    0.884584
  H     -0.426263   -1.075963    0.815191

 Total Charge           Charge          ....    1
 Multiplicity           Mult            ....    1
 Number of Electrons    NEL             ....   34
 Basis Dimension        Dim             ....  414

ORBITAL ENERGIES
----------------

  NO   OCC          E(Eh)            E(eV)
   0   2.0000     -15.880859      -432.1401
   1   2.0000     -11.471085      -312.1441
   2   2.0000     -11.468210      -312.0659
   3   2.0000     -11.395493      -310.0871
   4   2.0000      -1.508465       -41.0474
   5   2.0000      -1.226207       -33.3668
   6   2.0000      -1.140107       -31.0239
   7   2.0000      -1.055967       -28.7343
   8   2.0000      -0.974194       -26.5092
   9   2.0000      -0.867981       -23.6190
  10   2.0000      -0.849031       -23.1033
  11   2.0000      -0.798625       -21.7317
  12   2.0000      -0.760206       -20.6863
  13   2.0000      -0.756840       -20.5947
  14   2.0000      -0.712043       -19.3757
  15   2.0000      -0.704153       -19.1610
  16   2.0000      -0.688628       -18.7385
  17   0.0000      -0.103818        -2.8250
  18   0.0000      -0.079536        -2.1643
  19   0.0000      -0.076992        -2.0951
  20   0.0000      -0.069495        -1.8911
  21   0.0000      -0.049263        -1.3405

MULLIKEN ATOMIC CHARGES
-----------------------
   0 C :   -0.403118
   1 C :   -0.920744
   2 H :    0.297440
   3 H :    0.297442
   4 H :    0.350993
   5 N :    0.315965
   6 C :   -0.867587
   7 H :    0.368976
   8 H :    0.368970
   9 H :    0.382236
  10 H :    0.052850
  11 H :    0.351867
  12 H :    0.351862
  13 H :    0.052850
Sum of atomic charges:    1.0000000

LOEWDIN ATOMIC CHARGES
----------------------
   0 C :    0.305097
   1 C :    0.641600
   2 H :   -0.150944
   3 H :   -0.150945
   4 H :   -0.145709
   5 N :    0.760264
   6 C :    0.661509
   7 H :   -0.128535
   8 H :   -0.128537
   9 H :   -0.125617
  10 H :   -0.154638
  11 H :   -0.114452
  12 H :   -0.114452
  13 H :   -0.154640

  Mayer bond orders larger than 0.100000
B(  0-C ,  1-C ) :   0.8842 B(  0-C ,  5-N ) :   0.9016 B(  0-C , 11-H ) :   0.8689
B(  0-C , 12-H ) :   0.8689 B(  1-C ,  2-H ) :   0.9283 B(  1-C ,  3-H ) :   0.9283
B(  1-C ,  4-H ) :   0.9128 B(  5-N ,  6-C ) :   0.8741 B(  5-N , 10-H ) :   1.0330
B(  5-N , 13-H ) :   1.0330 B(  6-C ,  7-H ) :   0.8686 B(  6-C ,  8-H ) :   0.8686
B(  6-C ,  9-H ) :   0.8658

MP2 TOTAL ENERGY:     -174.478610308 Eh
FINAL SINGLE POINT ENERGY      -174.478610308020

DIPOLE MOMENT
-------------
                                X             Y             Z
Electronic contribution:     -0.90588      -0.53973      -0.00002
Nuclear contribution   :      0.18445       0.08325       0.00002
                        -----------------------------------------
Total Dipole Moment    :     -0.72143      -0.45648      -0.00001
                        -----------------------------------------
Magnitude (a.u.)       :      0.85372
Magnitude (Debye)      :      2.16997

Rotational constants in cm-1:     0.790000     0.124786     0.116903
Rotational constants in MHz : 23683.591245  3741.004055  3504.652365

                             ****ORCA TERMINATED NORMALLY****
TOTAL RUN TIME: 0 days 0 hours 0 minutes 51 seconds 544 msec
