                         Program Version 4.2.1 -  RELEASE  -
|  1> %pal
|  2>  nprocs 32
|  3> end
|  4> !RI-MP2 aug-cc-pVTZ aug-cc-pVTZ/C TightSCF
|  5> %maxcore 4500
|  6> *xyzfile 0 1  10_33R2.xyz
|  7>
|  8>
|  9>                          ****END OF INPUT****

CARTESIAN COORDINATES (ANGSTROEM)
---------------------------------
  C      1.380543   -0.501493   -0.089382
  C     -0.060773   -0.209275   -0.050620
  C     -0.576025    1.089890   -0.066291
  C     -0.964182   -1.271896    0.000297
  C     -1.941390    1.313599   -0.016015
  H      0.096344    1.936340   -0.130453
  C     -2.332899   -1.050662    0.050561
  H     -0.583760   -2.287443    0.005287
  C     -2.828146    0.244630    0.044897
  H     -2.318830    2.329243   -0.031244
  H     -3.013058   -1.893012    0.092918
  H     -3.895969    0.422580    0.081520
  C      2.377501    0.362373    0.080598
  C      3.827476    0.003009    0.030868
  H      4.343814    0.561895   -0.755395
  H      4.326301    0.249999    0.972714
  H      3.968311   -1.062059   -0.160857
  H      2.152918    1.407425    0.277865
  H      1.631294   -1.546025   -0.261834

 Total Charge           Charge          ....    0
 Multiplicity           Mult            ....    1
 Number of Electrons    NEL             ....   64
 Basis Dimension        Dim             ....  644

ORBITAL ENERGIES
----------------

  NO   OCC          E(Eh)            E(eV)
   0   2.0000     -11.241402      -305.8941
   1   2.0000     -11.233371      -305.6756
   2   2.0000     -11.232666      -305.6564
   3   2.0000     -11.232251      -305.6451
   4   2.0000     -11.229864      -305.5801
   5   2.0000     -11.229706      -305.5758
   6   2.0000     -11.229426      -305.5682
   7   2.0000     -11.228312      -305.5379
   8   2.0000     -11.223843      -305.4163
   9   2.0000      -1.158739       -31.5309
  10   2.0000      -1.084274       -29.5046
  11   2.0000      -1.019073       -27.7304
  12   2.0000      -1.014162       -27.5967
  13   2.0000      -0.929549       -25.2943
  14   2.0000      -0.835652       -22.7392
  15   2.0000      -0.817689       -22.2505
  16   2.0000      -0.752252       -20.4698
  17   2.0000      -0.701986       -19.1020
  18   2.0000      -0.645636       -17.5686
  19   2.0000      -0.633406       -17.2359
  20   2.0000      -0.607065       -16.5191
  21   2.0000      -0.585244       -15.9253
  22   2.0000      -0.571276       -15.5452
  23   2.0000      -0.568771       -15.4770
  24   2.0000      -0.540521       -14.7083
  25   2.0000      -0.510669       -13.8960
  26   2.0000      -0.508931       -13.8487
  27   2.0000      -0.488951       -13.3050
  28   2.0000      -0.481866       -13.1122
  29   2.0000      -0.400531       -10.8990
  30   2.0000      -0.337063        -9.1720
  31   2.0000      -0.298307        -8.1174
  32   0.0000       0.029320         0.7978
  33   0.0000       0.030749         0.8367
  34   0.0000       0.032731         0.8907
  35   0.0000       0.044241         1.2039
  36   0.0000       0.044736         1.2173

MULLIKEN ATOMIC CHARGES
-----------------------
   0 C :   -0.169758
   1 C :    1.983508
   2 C :   -0.708732
   3 C :   -0.984715
   4 C :   -0.844506
   5 H :    0.001063
   6 C :   -0.659133
   7 H :    0.043846
   8 C :   -0.148323
   9 H :    0.482584
  10 H :    0.577058
  11 H :    0.397207
  12 C :   -0.407032
  13 C :   -0.835637
  14 H :    0.288667
  15 H :    0.254872
  16 H :    0.286449
  17 H :    0.244170
  18 H :    0.198413
Sum of atomic charges:    0.0000000

LOEWDIN ATOMIC CHARGES
----------------------
   0 C :    0.210563
   1 C :   -0.135738
   2 C :    0.210652
   3 C :    0.204387
   4 C :    0.196563
   5 H :   -0.192188
   6 C :    0.194473
   7 H :   -0.180503
   8 C :    0.191000
   9 H :   -0.182353
  10 H :   -0.182842
  11 H :   -0.185815
  12 C :    0.212610
  13 C :    0.555736
  14 H :   -0.175172
  15 H :   -0.175169
  16 H :   -0.182382
  17 H :   -0.192572
  18 H :   -0.191249

  Mayer bond orders larger than 0.100000
B(  0-C ,  1-C ) :   0.2342 B(  0-C ,  2-C ) :   0.2874 B(  0-C ,  7-H ) :  -0.1594
B(  0-C ,  8-C ) :   0.1440 B(  0-C , 12-C ) :   0.9599 B(  0-C , 18-H ) :   1.1107
B(  1-C ,  2-C ) :   0.5019 B(  1-C ,  3-C ) :   0.2484 B(  1-C ,  5-H ) :  -0.3071
B(  1-C ,  7-H ) :  -0.2332 B(  1-C , 12-C ) :  -0.1049 B(  1-C , 17-H ) :  -0.1006
B(  2-C ,  3-C ) :  -0.3017 B(  2-C ,  4-C ) :   1.1930 B(  2-C ,  5-H ) :   1.6576
B(  2-C ,  7-H ) :   0.1493 B(  2-C ,  8-C ) :  -0.1795 B(  3-C ,  4-C ) :   0.1513
B(  3-C ,  5-H ) :   0.1669 B(  3-C ,  6-C ) :   1.1433 B(  3-C ,  7-H ) :   1.7733
B(  3-C ,  8-C ) :  -0.2098 B(  3-C , 10-H ) :  -0.2107 B(  3-C , 11-H ) :   0.2324
B(  4-C ,  5-H ) :  -0.1299 B(  4-C ,  6-C ) :   0.2253 B(  4-C ,  8-C ) :   1.1091
B(  4-C ,  9-H ) :   0.7278 B(  4-C , 11-H ) :  -0.1932 B(  6-C ,  7-H ) :  -0.1141
B(  6-C ,  8-C ) :   1.0971 B(  6-C , 10-H ) :   0.5594 B(  6-C , 11-H ) :  -0.1610
B(  8-C , 11-H ) :   0.8936 B( 12-C , 13-C ) :   0.6455 B( 12-C , 17-H ) :   1.2913
B( 13-C , 14-H ) :   0.9762 B( 13-C , 15-H ) :   1.0210 B( 13-C , 16-H ) :   0.9479

MP2 TOTAL ENERGY:     -348.206234411 Eh
FINAL SINGLE POINT ENERGY      -348.206234411096

DIPOLE MOMENT
-------------
                                X             Y             Z
Electronic contribution:     -6.62183      -0.07212      -0.07945
Nuclear contribution   :      6.82188       0.12097       0.09207
                        -----------------------------------------
Total Dipole Moment    :      0.20005       0.04886       0.01262
                        -----------------------------------------
Magnitude (a.u.)       :      0.20632
Magnitude (Debye)      :      0.52442

Rotational constants in cm-1:     0.168870     0.028982     0.024887
Rotational constants in MHz :  5062.596694   868.847244   746.090826

                             ****ORCA TERMINATED NORMALLY****
TOTAL RUN TIME: 0 days 0 hours 3 minutes 47 seconds 726 msec
