                         Program Version 4.2.1 -  RELEASE  -
|  1> %pal
|  2>  nprocs 32
|  3> end
|  4> !RI-MP2 aug-cc-pVTZ aug-cc-pVTZ/C TightSCF
|  5> %maxcore 4500
|  6> *xyzfile -1 1  09_14P.xyz
|  7>
|  8>
|  9>                          ****END OF INPUT****

CARTESIAN COORDINATES (ANGSTROEM)
---------------------------------
  C     -1.691482    0.283970   -0.049693
  C     -1.103110    1.669315   -0.103139
  C      0.336365    1.822069   -0.469453
  O     -1.813794    2.621421    0.175221
  C      1.261302    1.488880    0.735467
  C      2.390181    0.775628    0.712168
  C      2.837330    0.188135   -0.575960
  O      4.047726   -0.600532   -0.508660
  C      3.933360   -1.666605    0.390665
  H      2.073249   -0.473404   -1.041137
  H      3.087123    0.961377   -1.314035
  H      4.906826   -2.160794    0.443793
  H      3.634884   -1.304857    1.380438
  H      3.183126   -2.401592    0.046899
  C     -3.078592    0.151619   -0.067878
  C     -3.668354   -1.102473   -0.044223
  C     -2.873000   -2.241442    0.011476
  C     -1.490246   -2.116420    0.042919
  C     -0.898993   -0.860988    0.008986
  H     -3.676088    1.054361   -0.098842
  H     -4.748642   -1.194543   -0.066139
  H     -3.331116   -3.224160    0.035946
  H     -0.864841   -2.999708    0.101677
  H      0.176112   -0.759531    0.073651
  H      0.476265    2.859351   -0.788470
  H      0.576119    1.165641   -1.309302
  H      0.906962    1.960612    1.655011

 Total Charge           Charge          ....   -1
 Multiplicity           Mult            ....    1
 Number of Electrons    NEL             ....  102
 Basis Dimension        Dim             ....  943

ORBITAL ENERGIES
----------------

  NO   OCC          E(Eh)            E(eV)
   0   2.0000     -20.418329      -555.6110
   1   2.0000     -20.398160      -555.0622
   2   2.0000     -11.204867      -304.8999
   3   2.0000     -11.149088      -303.3821
   4   2.0000     -11.142571      -303.2048
   5   2.0000     -11.139732      -303.1275
   6   2.0000     -11.138896      -303.1048
   7   2.0000     -11.135150      -303.0028
   8   2.0000     -11.133938      -302.9699
   9   2.0000     -11.122881      -302.6690
  10   2.0000     -11.111473      -302.3585
  11   2.0000     -11.085810      -301.6602
  12   2.0000     -11.033360      -300.2330
  13   2.0000     -10.994845      -299.1850
  14   2.0000      -1.259666       -34.2772
  15   2.0000      -1.212312       -32.9887
  16   2.0000      -1.061829       -28.8938
  17   2.0000      -0.943629       -25.6775
  18   2.0000      -0.923130       -25.1196
  19   2.0000      -0.900411       -24.5014
  20   2.0000      -0.837548       -22.7909
  21   2.0000      -0.781592       -21.2682
  22   2.0000      -0.746684       -20.3183
  23   2.0000      -0.730833       -19.8870
  24   2.0000      -0.696543       -18.9539
  25   2.0000      -0.644343       -17.5335
  26   2.0000      -0.594956       -16.1896
  27   2.0000      -0.546202       -14.8629
  28   2.0000      -0.539787       -14.6884
  29   2.0000      -0.536853       -14.6085
  30   2.0000      -0.518679       -14.1140
  31   2.0000      -0.502366       -13.6701
  32   2.0000      -0.499984       -13.6052
  33   2.0000      -0.491709       -13.3801
  34   2.0000      -0.473295       -12.8790
  35   2.0000      -0.457955       -12.4616
  36   2.0000      -0.429945       -11.6994
  37   2.0000      -0.428271       -11.6539
  38   2.0000      -0.409514       -11.1434
  39   2.0000      -0.399226       -10.8635
  40   2.0000      -0.395243       -10.7551
  41   2.0000      -0.380138       -10.3441
  42   2.0000      -0.368853       -10.0370
  43   2.0000      -0.347696        -9.4613
  44   2.0000      -0.319399        -8.6913
  45   2.0000      -0.294717        -8.0196
  46   2.0000      -0.269211        -7.3256
  47   2.0000      -0.244026        -6.6403
  48   2.0000      -0.242315        -6.5937
  49   2.0000      -0.150829        -4.1043
  50   2.0000      -0.108811        -2.9609
  51   0.0000       0.087477         2.3804
  52   0.0000       0.097906         2.6642
  53   0.0000       0.109179         2.9709
  54   0.0000       0.115466         3.1420
  55   0.0000       0.119658         3.2561

MULLIKEN ATOMIC CHARGES
-----------------------
   0 C :    1.351215
   1 C :    0.713418
   2 C :   -0.040551
   3 O :   -1.143892
   4 C :   -0.445062
   5 C :   -0.844328
   6 C :    0.203398
   7 O :   -0.728951
   8 C :   -0.914466
   9 H :    0.171173
  10 H :    0.384879
  11 H :    0.349690
  12 H :    0.352039
  13 H :    0.302625
  14 C :   -0.986285
  15 C :   -0.502098
  16 C :   -0.141195
  17 C :   -1.321885
  18 C :   -0.501259
  19 H :    0.025985
  20 H :    0.529186
  21 H :    0.499633
  22 H :    0.363726
  23 H :    0.724358
  24 H :    0.325417
  25 H :    0.171515
  26 H :    0.101713
Sum of atomic charges:   -1.0000000

LOEWDIN ATOMIC CHARGES
----------------------
   0 C :   -0.100170
   1 C :   -0.535676
   2 C :    0.197157
   3 O :    0.456661
   4 C :    0.014241
   5 C :    0.056374
   6 C :   -0.158937
   7 O :    0.508066
   8 C :    0.230446
   9 H :   -0.201491
  10 H :   -0.191680
  11 H :   -0.207657
  12 H :   -0.235890
  13 H :   -0.191091
  14 C :    0.196177
  15 C :    0.184840
  16 C :    0.179195
  17 C :    0.206278
  18 C :    0.222731
  19 H :   -0.194736
  20 H :   -0.193517
  21 H :   -0.190336
  22 H :   -0.185911
  23 H :   -0.230394
  24 H :   -0.171518
  25 H :   -0.201980
  26 H :   -0.261180

  Mayer bond orders larger than 0.100000
B(  0-C ,  1-C ) :   0.5629 B(  0-C , 14-C ) :   0.4075 B(  0-C , 15-C ) :   0.1985
B(  0-C , 16-C ) :   0.1010 B(  0-C , 17-C ) :   0.2881 B(  0-C , 18-C ) :   0.5114
B(  0-C , 19-H ) :  -0.2103 B(  0-C , 20-H ) :  -0.1508 B(  0-C , 21-H ) :   0.2958
B(  0-C , 22-H ) :  -0.2005 B(  0-C , 23-H ) :  -0.1176 B(  1-C ,  2-C ) :   0.8312
B(  1-C ,  3-O ) :   0.6096 B(  1-C ,  4-C ) :   0.2553 B(  1-C , 14-C ) :   0.3984
B(  1-C , 16-C ) :   0.2103 B(  1-C , 17-C ) :  -0.1081 B(  1-C , 18-C ) :   0.1270
B(  1-C , 19-H ) :  -0.3099 B(  1-C , 20-H ) :   0.2235 B(  2-C ,  4-C ) :   0.8834
B(  2-C , 24-H ) :   0.9489 B(  2-C , 25-H ) :   1.0250 B(  3-O , 19-H ) :   0.1808
B(  4-C ,  5-C ) :   1.0349 B(  4-C , 25-H ) :   0.1006 B(  4-C , 26-H ) :   1.1081
B(  5-C ,  6-C ) :   0.8423 B(  6-C ,  7-O ) :   0.4532 B(  6-C ,  9-H ) :   0.9588
B(  6-C , 10-H ) :   0.9437 B(  7-O ,  8-C ) :   1.0587 B(  8-C , 11-H ) :   0.9315
B(  8-C , 12-H ) :   0.8489 B(  8-C , 13-H ) :   0.9050 B( 14-C , 15-C ) :   1.0521
B( 14-C , 16-C ) :  -0.2400 B( 14-C , 17-C ) :   0.1581 B( 14-C , 18-C ) :  -0.3824
B( 14-C , 19-H ) :   1.5720 B( 14-C , 20-H ) :  -0.1283 B( 14-C , 21-H ) :   0.1228
B( 15-C , 16-C ) :   1.0302 B( 15-C , 17-C ) :   0.1408 B( 15-C , 19-H ) :  -0.1033
B( 15-C , 20-H ) :   0.6642 B( 15-C , 21-H ) :  -0.1372 B( 16-C , 17-C ) :   1.0714
B( 16-C , 18-C ) :  -0.2153 B( 16-C , 21-H ) :   0.7433 B( 17-C , 18-C ) :   0.8610
B( 17-C , 21-H ) :  -0.1855 B( 17-C , 22-H ) :   0.8970 B( 17-C , 23-H ) :  -0.2777
B( 18-C , 19-H ) :   0.2530 B( 18-C , 21-H ) :  -0.2903 B( 18-C , 22-H ) :   0.1512
B( 18-C , 23-H ) :   0.4950 B( 19-H , 23-H ) :   0.1341 B( 22-H , 23-H ) :   0.1201

MP2 TOTAL ENERGY:     -614.283223030 Eh
FINAL SINGLE POINT ENERGY      -614.283223029875

DIPOLE MOMENT
-------------
                                X             Y             Z
Electronic contribution:     -9.65370       4.34584      -0.31533
Nuclear contribution   :      6.45054      -6.50086      -0.88788
                        -----------------------------------------
Total Dipole Moment    :     -3.20316      -2.15502      -1.20321
                        -----------------------------------------
Magnitude (a.u.)       :      4.04376
Magnitude (Debye)      :     10.27843

Rotational constants in cm-1:     0.035049     0.013032     0.009901
Rotational constants in MHz :  1050.753878   390.684433   296.833655

                             ****ORCA TERMINATED NORMALLY****
TOTAL RUN TIME: 0 days 0 hours 15 minutes 9 seconds 209 msec
