                         Program Version 4.2.1 -  RELEASE  -
|  1> %pal
|  2>  nprocs 32
|  3> end
|  4> !RI-MP2 aug-cc-pVTZ aug-cc-pVTZ/C TightSCF
|  5> %maxcore 4500
|  6> *xyzfile 0 2  04_38TS.xyz
|  7>
|  8>
|  9>                          ****END OF INPUT****

CARTESIAN COORDINATES (ANGSTROEM)
---------------------------------
  C     -0.108393    0.888603    1.015833
  C     -1.430652    1.376399    0.467326
  O     -1.954533    0.242909   -0.241322
  C     -1.544674   -0.952107    0.402846
  C     -0.277378   -0.577969    1.170064
  H      0.348046    1.419133    1.847045
  C     -1.381035    2.562042   -0.467422
  H     -2.103916    1.597930    1.310335
  H     -2.378046    2.767627   -0.858551
  H     -0.702632    2.362026   -1.296844
  H     -1.027875    3.447379    0.064891
  C     -1.315200   -2.023692   -0.644319
  H     -2.299406   -1.290510    1.127425
  O     -0.372385   -1.600540   -1.604886
  H     -2.271074   -2.281784   -1.113283
  H     -0.909836   -2.912703   -0.160055
  H     -0.667791   -0.748973   -1.946923
  O      0.421725   -1.348562    1.776195
  C      3.365575    0.041181    0.378198
  C      2.434276    0.024819   -0.818308
  H      2.807063   -0.123091    1.302060
  H      3.892575    0.994749    0.445024
  H      4.103414   -0.760086    0.292985
  H      3.001746    0.127340   -1.754529
  H      1.881350   -0.917277   -0.899126
  H      0.736597    1.016534    0.077073
  O      1.547027    1.114449   -0.862841

 Total Charge           Charge          ....    0
 Multiplicity           Mult            ....    2
 Number of Electrons    NEL             ....   95
 Basis Dimension        Dim             ....  897

ORBITAL ENERGIES
----------------
                 SPIN UP ORBITALS
  NO   OCC          E(Eh)            E(eV)
   0   1.0000     -20.613482      -560.9214
   1   1.0000     -20.577435      -559.9405
   2   1.0000     -20.563997      -559.5748
   3   1.0000     -20.562065      -559.5222
   4   1.0000     -11.335081      -308.4432
   5   1.0000     -11.301865      -307.5394
   6   1.0000     -11.297530      -307.4214
   7   1.0000     -11.285288      -307.0883
   8   1.0000     -11.275048      -306.8097
   9   1.0000     -11.255949      -306.2899
  10   1.0000     -11.225221      -305.4538
  11   1.0000     -11.213011      -305.1215
  12   1.0000      -1.421783       -38.6887
  13   1.0000      -1.403827       -38.2001
  14   1.0000      -1.400163       -38.1004
  15   1.0000      -1.365821       -37.1659
  16   1.0000      -1.088337       -29.6152
  17   1.0000      -1.050464       -28.5846
  18   1.0000      -1.010800       -27.5053
  19   1.0000      -0.979926       -26.6652
  20   1.0000      -0.879541       -23.9335
  21   1.0000      -0.855863       -23.2892
  22   1.0000      -0.819286       -22.2939
  23   1.0000      -0.769663       -20.9436
  24   1.0000      -0.739586       -20.1252
  25   1.0000      -0.706670       -19.2295
  26   1.0000      -0.696082       -18.9413
  27   1.0000      -0.665723       -18.1152
  28   1.0000      -0.663844       -18.0641
  29   1.0000      -0.645463       -17.5639
  30   1.0000      -0.634911       -17.2768
  31   1.0000      -0.616719       -16.7818
  32   1.0000      -0.600174       -16.3316
  33   1.0000      -0.595415       -16.2021
  34   1.0000      -0.575056       -15.6481
  35   1.0000      -0.565822       -15.3968
  36   1.0000      -0.563248       -15.3268
  37   1.0000      -0.550248       -14.9730
  38   1.0000      -0.535600       -14.5744
  39   1.0000      -0.530073       -14.4240
  40   1.0000      -0.515109       -14.0168
  41   1.0000      -0.507064       -13.7979
  42   1.0000      -0.491592       -13.3769
  43   1.0000      -0.480130       -13.0650
  44   1.0000      -0.465886       -12.6774
  45   1.0000      -0.445541       -12.1238
  46   1.0000      -0.419585       -11.4175
  47   1.0000      -0.404675       -11.0118
  48   0.0000       0.025007         0.6805
  49   0.0000       0.031759         0.8642
  50   0.0000       0.033586         0.9139
  51   0.0000       0.035895         0.9768
  52   0.0000       0.045024         1.2252

                 SPIN DOWN ORBITALS
  NO   OCC          E(Eh)            E(eV)
   0   1.0000     -20.581019      -560.0380
   1   1.0000     -20.577452      -559.9409
   2   1.0000     -20.562062      -559.5222
   3   1.0000     -20.556711      -559.3765
   4   1.0000     -11.339099      -308.5526
   5   1.0000     -11.302981      -307.5698
   6   1.0000     -11.297284      -307.4147
   7   1.0000     -11.285368      -307.0905
   8   1.0000     -11.276793      -306.8571
   9   1.0000     -11.243169      -305.9422
  10   1.0000     -11.224835      -305.4433
  11   1.0000     -11.212901      -305.1186
  12   1.0000      -1.416807       -38.5533
  13   1.0000      -1.389636       -37.8139
  14   1.0000      -1.365787       -37.1650
  15   1.0000      -1.301035       -35.4030
  16   1.0000      -1.074629       -29.2422
  17   1.0000      -1.043184       -28.3865
  18   1.0000      -0.999632       -27.2014
  19   1.0000      -0.974216       -26.5098
  20   1.0000      -0.877306       -23.8727
  21   1.0000      -0.838171       -22.8078
  22   1.0000      -0.808881       -22.0108
  23   1.0000      -0.767061       -20.8728
  24   1.0000      -0.708294       -19.2737
  25   1.0000      -0.694718       -18.9042
  26   1.0000      -0.672828       -18.3086
  27   1.0000      -0.662009       -18.0142
  28   1.0000      -0.642384       -17.4802
  29   1.0000      -0.632964       -17.2238
  30   1.0000      -0.615589       -16.7510
  31   1.0000      -0.597304       -16.2535
  32   1.0000      -0.596987       -16.2448
  33   1.0000      -0.590358       -16.0645
  34   1.0000      -0.565594       -15.3906
  35   1.0000      -0.550977       -14.9928
  36   1.0000      -0.543418       -14.7871
  37   1.0000      -0.533274       -14.5111
  38   1.0000      -0.521037       -14.1781
  39   1.0000      -0.517685       -14.0869
  40   1.0000      -0.505978       -13.7684
  41   1.0000      -0.502818       -13.6824
  42   1.0000      -0.472957       -12.8698
  43   1.0000      -0.447511       -12.1774
  44   1.0000      -0.445809       -12.1311
  45   1.0000      -0.433722       -11.8022
  46   1.0000      -0.403197       -10.9716
  47   0.0000       0.024252         0.6599
  48   0.0000       0.031772         0.8646
  49   0.0000       0.032858         0.8941
  50   0.0000       0.034011         0.9255
  51   0.0000       0.040058         1.0900

MULLIKEN ATOMIC CHARGES AND SPIN POPULATIONS
--------------------------------------------
   0 C :   -0.360186    0.715646
   1 C :    0.120479   -0.109109
   2 O :   -0.913579    0.001993
   3 C :    0.353202    0.033838
   4 C :    0.798657   -0.221460
   5 H :    0.551962    0.001442
   6 C :   -1.062773    0.024390
   7 H :    0.408590    0.022839
   8 H :    0.243352   -0.002864
   9 H :    0.348772   -0.000081
  10 H :    0.262735    0.001044
  11 C :   -0.380468   -0.001414
  12 H :    0.448609   -0.006166
  13 O :   -0.613957   -0.000376
  14 H :    0.284533    0.000189
  15 H :    0.317037   -0.000665
  16 H :    0.177917    0.000623
  17 O :   -1.185861    0.177811
  18 C :   -0.971995    0.014995
  19 C :   -0.318150   -0.118534
  20 H :    0.369109    0.001542
  21 H :    0.250509   -0.002639
  22 H :    0.280213   -0.004359
  23 H :    0.352144    0.073620
  24 H :    0.408842    0.009098
  25 H :    0.443099   -0.449748
  26 O :   -0.612792    0.838346
Sum of atomic charges         :    0.0000000

LOEWDIN ATOMIC CHARGES AND SPIN POPULATIONS
-------------------------------------------
   0 C :    0.280831    0.175253
   1 C :   -0.265246    0.026881
   2 O :    0.606586   -0.001003
   3 C :   -0.250585   -0.010325
   4 C :   -0.509899   -0.023005
   5 H :   -0.115644    0.023064
   6 C :    0.603592    0.001881
   7 H :   -0.124276    0.010368
   8 H :   -0.162719    0.000211
   9 H :   -0.178153   -0.001452
  10 H :   -0.157598    0.000247
  11 C :    0.046112   -0.001178
  12 H :   -0.123282   -0.003034
  13 O :    0.830803   -0.000439
  14 H :   -0.146451   -0.000014
  15 H :   -0.156394   -0.000342
  16 H :   -0.498475   -0.000454
  17 O :    0.495225    0.112598
  18 C :    0.579044   -0.002956
  19 C :   -0.003987    0.048600
  20 H :   -0.191184   -0.000565
  21 H :   -0.173178   -0.000668
  22 H :   -0.169651   -0.000980
  23 H :   -0.156329    0.023043
  24 H :   -0.192688   -0.000247
  25 H :   -0.613062    0.048635
  26 O :    0.746607    0.575880

  Mayer bond orders larger than 0.100000
B(  0-C ,  1-C ) :   1.1966 B(  0-C ,  2-O ) :   0.1103 B(  0-C ,  4-C ) :   0.9080
B(  0-C ,  5-H ) :   0.6959 B(  0-C , 25-H ) :   0.4208 B(  1-C ,  2-O ) :   0.7570
B(  1-C ,  6-C ) :   0.7315 B(  1-C ,  7-H ) :   0.8473 B(  2-O ,  3-C ) :   0.7591
B(  2-O ,  6-C ) :   0.1008 B(  3-C ,  4-C ) :   0.9145 B(  3-C , 11-C ) :   0.8901
B(  3-C , 12-H ) :   0.7713 B(  4-C , 17-O ) :   0.5829 B(  4-C , 25-H ) :   0.1103
B(  6-C ,  8-H ) :   1.0554 B(  6-C ,  9-H ) :   0.8895 B(  6-C , 10-H ) :   1.0030
B( 11-C , 13-O ) :   0.8427 B( 11-C , 14-H ) :   0.9857 B( 11-C , 15-H ) :   0.9842
B( 13-O , 16-H ) :   0.9994 B( 18-C , 19-C ) :   0.9166 B( 18-C , 20-H ) :   0.8625
B( 18-C , 21-H ) :   0.9774 B( 18-C , 22-H ) :   0.9554 B( 19-C , 23-H ) :   0.8921
B( 19-C , 24-H ) :   0.8621 B( 19-C , 26-O ) :   0.7723 B( 25-H , 26-O ) :  -0.1217

MP2 TOTAL ENERGY:     -613.579741836 Eh
FINAL SINGLE POINT ENERGY      -613.579741835938

DIPOLE MOMENT
-------------
                                X             Y             Z
Electronic contribution:     -4.97596      -4.07097       1.72504
Nuclear contribution   :      4.48534       4.75890      -1.60610
                        -----------------------------------------
Total Dipole Moment    :     -0.49062       0.68793       0.11894
                        -----------------------------------------
Magnitude (a.u.)       :      0.85329
Magnitude (Debye)      :      2.16888

Rotational constants in cm-1:     0.034364     0.025472     0.021016
Rotational constants in MHz :  1030.195637   763.617474   630.032139

                             ****ORCA TERMINATED NORMALLY****
TOTAL RUN TIME: 0 days 0 hours 33 minutes 41 seconds 336 msec
