                         Program Version 4.2.1 -  RELEASE  -
|  1> %pal
|  2>  nprocs 32
|  3> end
|  4> !RI-MP2 aug-cc-pVTZ aug-cc-pVTZ/C TightSCF
|  5> %maxcore 4500
|  6> *xyzfile 0 1  06_5R1.xyz
|  7>
|  8>
|  9>                          ****END OF INPUT****

CARTESIAN COORDINATES (ANGSTROEM)
---------------------------------
  C     -2.176900    1.006875   -0.000011
  C     -0.819007    1.294579   -0.000019
  C      0.132485    0.276882   -0.000006
  C     -0.317225   -1.043863    0.000015
  C     -1.672641   -1.334720    0.000023
  C     -2.610734   -0.310485    0.000010
  H     -2.897258    1.816392   -0.000022
  H     -0.489060    2.327585   -0.000036
  H      0.395845   -1.860447    0.000026
  H     -1.998763   -2.368143    0.000040
  H     -3.669525   -0.538752    0.000016
  C      1.578243    0.624128   -0.000014
  C      2.584461   -0.213727    0.748057
  C      2.584460   -0.213755   -0.748056
  H      1.767675    1.691037   -0.000035
  H      2.211131   -1.091574    1.260137
  H      3.384986    0.300041    1.264413
  H      2.211130   -1.091621   -1.260103
  H      3.384984    0.299994   -1.264432

 Total Charge           Charge          ....    0
 Multiplicity           Mult            ....    1
 Number of Electrons    NEL             ....   64
 Basis Dimension        Dim             ....  644

ORBITAL ENERGIES
----------------

  NO   OCC          E(Eh)            E(eV)
   0   2.0000     -11.241114      -305.8863
   1   2.0000     -11.236949      -305.7729
   2   2.0000     -11.231714      -305.6305
   3   2.0000     -11.230936      -305.6093
   4   2.0000     -11.229086      -305.5590
   5   2.0000     -11.228407      -305.5405
   6   2.0000     -11.226922      -305.5001
   7   2.0000     -11.226126      -305.4784
   8   2.0000     -11.225802      -305.4696
   9   2.0000      -1.170115       -31.8405
  10   2.0000      -1.132698       -30.8223
  11   2.0000      -1.017355       -27.6836
  12   2.0000      -1.011955       -27.5367
  13   2.0000      -0.862747       -23.4765
  14   2.0000      -0.826171       -22.4813
  15   2.0000      -0.825045       -22.4506
  16   2.0000      -0.775077       -21.0909
  17   2.0000      -0.704406       -19.1678
  18   2.0000      -0.668074       -18.1792
  19   2.0000      -0.638388       -17.3714
  20   2.0000      -0.619100       -16.8466
  21   2.0000      -0.604619       -16.4525
  22   2.0000      -0.581734       -15.8298
  23   2.0000      -0.537542       -14.6273
  24   2.0000      -0.525441       -14.2980
  25   2.0000      -0.507497       -13.8097
  26   2.0000      -0.496018       -13.4973
  27   2.0000      -0.484604       -13.1868
  28   2.0000      -0.437321       -11.9001
  29   2.0000      -0.426148       -11.5961
  30   2.0000      -0.335336        -9.1250
  31   2.0000      -0.313449        -8.5294
  32   0.0000       0.029067         0.7910
  33   0.0000       0.031618         0.8604
  34   0.0000       0.033490         0.9113
  35   0.0000       0.040149         1.0925
  36   0.0000       0.045426         1.2361

MULLIKEN ATOMIC CHARGES
-----------------------
   0 C :   -0.549009
   1 C :   -0.912003
   2 C :    1.787202
   3 C :   -0.601543
   4 C :   -0.965644
   5 C :   -0.141989
   6 H :    0.631002
   7 H :   -0.238135
   8 H :    0.010774
   9 H :    0.402905
  10 H :    0.417896
  11 C :    0.202602
  12 C :   -0.852028
  13 C :   -0.852032
  14 H :    0.175406
  15 H :    0.339599
  16 H :    0.402701
  17 H :    0.339610
  18 H :    0.402687
Sum of atomic charges:   -0.0000000

LOEWDIN ATOMIC CHARGES
----------------------
   0 C :    0.194118
   1 C :    0.216053
   2 C :   -0.089180
   3 C :    0.212707
   4 C :    0.198376
   5 C :    0.189323
   6 H :   -0.182379
   7 H :   -0.179549
   8 H :   -0.186203
   9 H :   -0.181739
  10 H :   -0.187258
  11 C :    0.031313
  12 C :    0.371563
  13 C :    0.371563
  14 H :   -0.146460
  15 H :   -0.163337
  16 H :   -0.152786
  17 H :   -0.163337
  18 H :   -0.152787

  Mayer bond orders larger than 0.100000
B(  0-C ,  1-C ) :   1.0150 B(  0-C ,  2-C ) :   0.2501 B(  0-C ,  4-C ) :   0.2490
B(  0-C ,  5-C ) :   1.0932 B(  0-C ,  6-H ) :   0.5022 B(  0-C ,  7-H ) :  -0.1852
B(  0-C , 10-H ) :  -0.1754 B(  1-C ,  2-C ) :   0.3840 B(  1-C ,  3-C ) :  -0.3880
B(  1-C ,  4-C ) :   0.1483 B(  1-C ,  5-C ) :  -0.3013 B(  1-C ,  6-H ) :  -0.2340
B(  1-C ,  7-H ) :   2.1900 B(  1-C ,  8-H ) :   0.1537 B(  1-C , 10-H ) :   0.2076
B(  1-C , 11-C ) :   0.1709 B(  2-C ,  3-C ) :   0.5653 B(  2-C ,  7-H ) :  -0.3886
B(  2-C ,  8-H ) :  -0.2861 B(  2-C , 11-C ) :   0.1689 B(  3-C ,  4-C ) :   1.2142
B(  3-C ,  5-C ) :  -0.1795 B(  3-C ,  7-H ) :   0.2953 B(  3-C ,  8-H ) :   1.6229
B(  3-C , 11-C ) :   0.3767 B(  4-C ,  5-C ) :   1.0904 B(  4-C ,  8-H ) :  -0.1581
B(  4-C ,  9-H ) :   0.8674 B(  4-C , 10-H ) :  -0.2180 B(  4-C , 11-C ) :  -0.1818
B(  5-C , 10-H ) :   0.8839 B(  5-C , 11-C ) :   0.1865 B(  7-H ,  8-H ) :   0.1802
B(  7-H , 11-C ) :  -0.2593 B(  7-H , 14-H ) :  -0.1251 B( 11-C , 12-C ) :   0.3998
B( 11-C , 13-C ) :   0.3998 B( 11-C , 14-H ) :   1.0122 B( 12-C , 13-C ) :   1.1748
B( 12-C , 15-H ) :   0.9047 B( 12-C , 16-H ) :   0.7787 B( 13-C , 17-H ) :   0.9046
B( 13-C , 18-H ) :   0.7787

MP2 TOTAL ENERGY:     -348.195341463 Eh
FINAL SINGLE POINT ENERGY      -348.195341463270

DIPOLE MOMENT
-------------
                                X             Y             Z
Electronic contribution:     -4.15913       0.56348      -0.00001
Nuclear contribution   :      4.37458      -0.52429       0.00000
                        -----------------------------------------
Total Dipole Moment    :      0.21545       0.03920      -0.00000
                        -----------------------------------------
Magnitude (a.u.)       :      0.21899
Magnitude (Debye)      :      0.55662

Rotational constants in cm-1:     0.142622     0.037089     0.031629
Rotational constants in MHz :  4275.701898  1111.911443   948.217118

                             ****ORCA TERMINATED NORMALLY****
TOTAL RUN TIME: 0 days 0 hours 4 minutes 14 seconds 531 msec
