                         Program Version 4.2.1 -  RELEASE  -
|  1> %pal
|  2>  nprocs 32
|  3> end
|  4> !RI-MP2 aug-cc-pVTZ aug-cc-pVTZ/C TightSCF
|  5> %maxcore 4500
|  6> *xyzfile 0 1  04_2R1.xyz
|  7>
|  8>
|  9>                          ****END OF INPUT****

CARTESIAN COORDINATES (ANGSTROEM)
---------------------------------
  C     -0.165200   -0.910191   -0.269292
  C      0.944017    0.107248   -0.069242
  O      0.878649    1.271740   -0.353648
  N     -1.463493   -0.352376   -0.535192
  C     -2.067783    0.318765    0.607222
  H     -3.040785    0.715697    0.316409
  H     -1.464433    1.143183    1.009459
  H     -2.235309   -0.410225    1.404048
  H     -1.415033    0.277120   -1.326637
  O      2.054031   -0.456668    0.442721
  H      2.730888    0.232240    0.504997
  H     -0.207287   -1.554767    0.612053
  H      0.148764   -1.552123   -1.098699

 Total Charge           Charge          ....    0
 Multiplicity           Mult            ....    1
 Number of Electrons    NEL             ....   48
 Basis Dimension        Dim             ....  437

ORBITAL ENERGIES
----------------

  NO   OCC          E(Eh)            E(eV)
   0   2.0000     -20.618267      -561.0516
   1   2.0000     -20.554233      -559.3091
   2   2.0000     -15.552352      -423.2010
   3   2.0000     -11.385825      -309.8241
   4   2.0000     -11.275697      -306.8273
   5   2.0000     -11.244863      -305.9883
   6   2.0000      -1.473672       -40.1007
   7   2.0000      -1.369987       -37.2793
   8   2.0000      -1.218479       -33.1565
   9   2.0000      -1.001307       -27.2470
  10   2.0000      -0.898114       -24.4389
  11   2.0000      -0.812047       -22.0969
  12   2.0000      -0.711417       -19.3586
  13   2.0000      -0.709357       -19.3026
  14   2.0000      -0.679712       -18.4959
  15   2.0000      -0.631148       -17.1744
  16   2.0000      -0.610940       -16.6245
  17   2.0000      -0.598930       -16.2977
  18   2.0000      -0.564976       -15.3738
  19   2.0000      -0.526009       -14.3134
  20   2.0000      -0.522285       -14.2121
  21   2.0000      -0.490081       -13.3358
  22   2.0000      -0.465679       -12.6718
  23   2.0000      -0.381920       -10.3926
  24   0.0000       0.027838         0.7575
  25   0.0000       0.036924         1.0048
  26   0.0000       0.040366         1.0984
  27   0.0000       0.043750         1.1905
  28   0.0000       0.058663         1.5963

MULLIKEN ATOMIC CHARGES
-----------------------
   0 C :   -0.034876
   1 C :    0.527474
   2 O :   -0.768178
   3 N :   -0.374729
   4 C :   -0.868672
   5 H :    0.346052
   6 H :    0.339845
   7 H :    0.338067
   8 H :    0.046066
   9 O :   -0.442155
  10 H :    0.245330
  11 H :    0.287822
  12 H :    0.357953
Sum of atomic charges:   -0.0000000

LOEWDIN ATOMIC CHARGES
----------------------
   0 C :    0.134248
   1 C :   -0.793558
   2 O :    0.457188
   3 N :    0.525311
   4 C :    0.451784
   5 H :   -0.169433
   6 H :   -0.174101
   7 H :   -0.173629
   8 H :   -0.313023
   9 O :    0.832371
  10 H :   -0.470425
  11 H :   -0.159016
  12 H :   -0.147716

  Mayer bond orders larger than 0.100000
B(  0-C ,  1-C ) :   0.6022 B(  0-C ,  3-N ) :   0.9022 B(  0-C , 11-H ) :   0.9243
B(  0-C , 12-H ) :   0.8925 B(  1-C ,  2-O ) :   1.4824 B(  1-C ,  9-O ) :   0.9332
B(  3-N ,  4-C ) :   0.8892 B(  3-N ,  8-H ) :   0.9842 B(  4-C ,  5-H ) :   0.9230
B(  4-C ,  6-H ) :   0.8822 B(  4-C ,  7-H ) :   0.8932 B(  9-O , 10-H ) :   0.9517

MP2 TOTAL ENERGY:     -323.194538634 Eh
FINAL SINGLE POINT ENERGY      -323.194538633592

DIPOLE MOMENT
-------------
                                X             Y             Z
Electronic contribution:      5.76459       0.83739      -1.21490
Nuclear contribution   :     -5.50995      -1.15155       1.43668
                        -----------------------------------------
Total Dipole Moment    :      0.25465      -0.31417       0.22178
                        -----------------------------------------
Magnitude (a.u.)       :      0.46123
Magnitude (Debye)      :      1.17235

Rotational constants in cm-1:     0.239494     0.076893     0.068145
Rotational constants in MHz :  7179.847640  2305.184405  2042.939735

                             ****ORCA TERMINATED NORMALLY****
TOTAL RUN TIME: 0 days 0 hours 1 minutes 9 seconds 593 msec
