                         Program Version 4.2.1 -  RELEASE  -
|  1> %pal
|  2>  nprocs 32
|  3> end
|  4> !RI-MP2 aug-cc-pVTZ aug-cc-pVTZ/C TightSCF
|  5> %maxcore 4500
|  6> *xyzfile 0 2  04_19P.xyz
|  7>
|  8>
|  9>                          ****END OF INPUT****

CARTESIAN COORDINATES (ANGSTROEM)
---------------------------------
  C      0.735287    0.520539    1.403523
  H      0.445699    1.079691    2.303968
  C      2.228938    0.699645   -0.675504
  H      1.399667    0.703437   -1.381237
  H      1.169003   -0.416037    1.762598
  H      3.034469    1.285203   -1.119520
  C      1.811725    1.314064    0.654708
  H      2.683828    1.414364    1.305752
  H      1.446622    2.326463    0.452488
  C     -0.459830    0.197843    0.571248
  C     -2.712534   -0.925319   -0.267188
  C     -2.364940    0.231204   -1.189810
  H     -3.042443   -1.799762   -0.827800
  H     -3.490272   -0.637333    0.439712
  H     -1.758985   -0.104762   -2.031499
  H     -3.260004    0.726826   -1.565063
  S     -1.213998   -1.382430    0.668528
  S     -1.412796    1.435646   -0.212126
  S      2.891079   -1.001682   -0.574571
  H      1.711988   -1.630501   -0.430570

 Total Charge           Charge          ....    0
 Multiplicity           Mult            ....    2
 Number of Electrons    NEL             ....   95
 Basis Dimension        Dim             ....  679

ORBITAL ENERGIES
----------------
                 SPIN UP ORBITALS
  NO   OCC          E(Eh)            E(eV)
   0   1.0000     -91.968798     -2502.5982
   1   1.0000     -91.968663     -2502.5946
   2   1.0000     -91.944680     -2501.9419
   3   1.0000     -11.283091      -307.0285
   4   1.0000     -11.279542      -306.9319
   5   1.0000     -11.277761      -306.8835
   6   1.0000     -11.256879      -306.3153
   7   1.0000     -11.238835      -305.8242
   8   1.0000     -11.232785      -305.6596
   9   1.0000      -8.968953      -244.0576
  10   1.0000      -8.968907      -244.0564
  11   1.0000      -8.945832      -243.4285
  12   1.0000      -6.650561      -180.9710
  13   1.0000      -6.650163      -180.9601
  14   1.0000      -6.649430      -180.9402
  15   1.0000      -6.649323      -180.9373
  16   1.0000      -6.648342      -180.9106
  17   1.0000      -6.648181      -180.9062
  18   1.0000      -6.627185      -180.3349
  19   1.0000      -6.626215      -180.3085
  20   1.0000      -6.625252      -180.2823
  21   1.0000      -1.161809       -31.6144
  22   1.0000      -1.096091       -29.8262
  23   1.0000      -1.035045       -28.1650
  24   1.0000      -0.996570       -27.1181
  25   1.0000      -0.968375       -26.3508
  26   1.0000      -0.895992       -24.3812
  27   1.0000      -0.819305       -22.2944
  28   1.0000      -0.805733       -21.9251
  29   1.0000      -0.725953       -19.7542
  30   1.0000      -0.665101       -18.0983
  31   1.0000      -0.647193       -17.6110
  32   1.0000      -0.639351       -17.3976
  33   1.0000      -0.624778       -17.0011
  34   1.0000      -0.570233       -15.5168
  35   1.0000      -0.560755       -15.2589
  36   1.0000      -0.553545       -15.0627
  37   1.0000      -0.540964       -14.7204
  38   1.0000      -0.508996       -13.8505
  39   1.0000      -0.496596       -13.5131
  40   1.0000      -0.489838       -13.3292
  41   1.0000      -0.477309       -12.9882
  42   1.0000      -0.459762       -12.5108
  43   1.0000      -0.440707       -11.9922
  44   1.0000      -0.433489       -11.7958
  45   1.0000      -0.369360       -10.0508
  46   1.0000      -0.351419        -9.5626
  47   1.0000      -0.275310        -7.4916
  48   0.0000       0.025470         0.6931
  49   0.0000       0.033319         0.9066
  50   0.0000       0.036561         0.9949
  51   0.0000       0.039782         1.0825
  52   0.0000       0.046227         1.2579

                 SPIN DOWN ORBITALS
  NO   OCC          E(Eh)            E(eV)
   0   1.0000     -91.968600     -2502.5928
   1   1.0000     -91.968334     -2502.5856
   2   1.0000     -91.944688     -2501.9422
   3   1.0000     -11.279250      -306.9240
   4   1.0000     -11.277783      -306.8841
   5   1.0000     -11.257942      -306.3442
   6   1.0000     -11.256920      -306.3164
   7   1.0000     -11.241787      -305.9046
   8   1.0000     -11.231692      -305.6299
   9   1.0000      -8.968838      -244.0545
  10   1.0000      -8.968421      -244.0432
  11   1.0000      -8.945841      -243.4287
  12   1.0000      -6.651059      -180.9845
  13   1.0000      -6.650682      -180.9743
  14   1.0000      -6.649637      -180.9458
  15   1.0000      -6.649224      -180.9346
  16   1.0000      -6.646684      -180.8655
  17   1.0000      -6.645783      -180.8409
  18   1.0000      -6.627204      -180.3354
  19   1.0000      -6.626232      -180.3089
  20   1.0000      -6.625259      -180.2825
  21   1.0000      -1.143793       -31.1242
  22   1.0000      -1.093070       -29.7439
  23   1.0000      -1.019885       -27.7525
  24   1.0000      -0.992550       -27.0086
  25   1.0000      -0.959965       -26.1220
  26   1.0000      -0.895204       -24.3598
  27   1.0000      -0.817348       -22.2412
  28   1.0000      -0.799484       -21.7551
  29   1.0000      -0.692077       -18.8324
  30   1.0000      -0.660182       -17.9645
  31   1.0000      -0.641084       -17.4448
  32   1.0000      -0.627826       -17.0840
  33   1.0000      -0.622583       -16.9413
  34   1.0000      -0.566249       -15.4084
  35   1.0000      -0.557693       -15.1756
  36   1.0000      -0.548179       -14.9167
  37   1.0000      -0.518222       -14.1015
  38   1.0000      -0.501057       -13.6344
  39   1.0000      -0.488460       -13.2917
  40   1.0000      -0.483264       -13.1503
  41   1.0000      -0.472546       -12.8586
  42   1.0000      -0.440048       -11.9743
  43   1.0000      -0.432076       -11.7574
  44   1.0000      -0.400294       -10.8926
  45   1.0000      -0.351609        -9.5678
  46   1.0000      -0.345496        -9.4014
  47   0.0000       0.025432         0.6920
  48   0.0000       0.032996         0.8979
  49   0.0000       0.036162         0.9840
  50   0.0000       0.039827         1.0838
  51   0.0000       0.046278         1.2593

MULLIKEN ATOMIC CHARGES AND SPIN POPULATIONS
--------------------------------------------
   0 C :   -0.558108   -0.201558
   1 H :    0.357445    0.091683
   2 C :   -0.432512   -0.007123
   3 H :    0.290144   -0.001384
   4 H :    0.160497   -0.013735
   5 H :    0.284857    0.001681
   6 C :   -0.387210    0.034708
   7 H :    0.368228   -0.007293
   8 H :    0.215018   -0.006086
   9 C :    0.858994    1.098052
  10 C :   -0.434870   -0.004514
  11 C :   -0.458015    0.012532
  12 H :    0.283618    0.000151
  13 H :    0.249268   -0.002172
  14 H :    0.223526   -0.001831
  15 H :    0.315500    0.000481
  16 S :   -0.484028    0.024508
  17 S :   -0.578397   -0.023272
  18 S :   -0.487330    0.000401
  19 H :    0.213374    0.004771
Sum of atomic charges         :   -0.0000000

LOEWDIN ATOMIC CHARGES AND SPIN POPULATIONS
-------------------------------------------
   0 C :    0.071775    0.092452
   1 H :   -0.156321    0.022083
   2 C :   -0.109193    0.006515
   3 H :   -0.238036    0.004439
   4 H :   -0.207228    0.001074
   5 H :   -0.229217    0.000403
   6 C :    0.172906    0.014732
   7 H :   -0.155646    0.001720
   8 H :   -0.163715    0.000932
   9 C :   -0.913230    0.549928
  10 C :   -0.119303    0.008510
  11 C :   -0.120753    0.012238
  12 H :   -0.223325   -0.000184
  13 H :   -0.227683    0.003187
  14 H :   -0.220462    0.002496
  15 H :   -0.219958    0.000439
  16 S :    1.174893    0.148404
  17 S :    1.184822    0.129688
  18 S :    1.292553    0.000094
  19 H :   -0.592879    0.000849

  Mayer bond orders larger than 0.100000
B(  0-C ,  1-H ) :   0.8525 B(  0-C ,  4-H ) :   1.0931 B(  0-C ,  6-C ) :   0.9349
B(  0-C ,  9-C ) :   0.6569 B(  2-C ,  3-H ) :   0.9240 B(  2-C ,  5-H ) :   0.9563
B(  2-C ,  6-C ) :   0.9202 B(  2-C , 18-S ) :   0.9496 B(  6-C ,  7-H ) :   0.8702
B(  6-C ,  8-H ) :   0.9518 B(  9-C , 11-C ) :  -0.1160 B(  9-C , 16-S ) :   0.6971
B(  9-C , 17-S ) :   0.7586 B( 10-C , 11-C ) :   1.0102 B( 10-C , 12-H ) :   0.9063
B( 10-C , 13-H ) :   0.9615 B( 10-C , 16-S ) :   1.0041 B( 11-C , 14-H ) :   0.9506
B( 11-C , 15-H ) :   0.9006 B( 11-C , 16-S ) :   0.1026 B( 11-C , 17-S ) :   1.0309
B( 18-S , 19-H ) :   0.9789

MP2 TOTAL ENERGY:    -1427.861950387 Eh
FINAL SINGLE POINT ENERGY     -1427.861950387478

DIPOLE MOMENT
-------------
                                X             Y             Z
Electronic contribution:     -1.31557      -2.60775       0.75572
Nuclear contribution   :      0.32972       2.96163      -1.08196
                        -----------------------------------------
Total Dipole Moment    :     -0.98585       0.35388      -0.32624
                        -----------------------------------------
Magnitude (a.u.)       :      1.09707
Magnitude (Debye)      :      2.78854

Rotational constants in cm-1:     0.052403     0.020875     0.018276
Rotational constants in MHz :  1570.999807   625.821785   547.888354

                             ****ORCA TERMINATED NORMALLY****
TOTAL RUN TIME: 0 days 0 hours 9 minutes 31 seconds 332 msec
