                         Program Version 4.2.1 -  RELEASE  -
|  1> %pal
|  2>  nprocs 32
|  3> end
|  4> !RI-MP2 aug-cc-pVTZ aug-cc-pVTZ/C TightSCF
|  5> %maxcore 4500
|  6> *xyzfile 0 1  06_6R1.xyz
|  7>
|  8>
|  9>                          ****END OF INPUT****

CARTESIAN COORDINATES (ANGSTROEM)
---------------------------------
  C     -0.174093   -1.114216   -0.013617
  C     -1.484520   -0.709645    0.014852
  C     -1.484522    0.709644    0.014859
  C     -0.174096    1.114216   -0.013621
  N      0.621146    0.000001   -0.037627
  H     -2.345530    1.358659    0.023031
  C      2.066363   -0.000001    0.025563
  H      2.453944   -0.883325   -0.481308
  H      2.453916    0.883519   -0.480986
  H      2.421837   -0.000181    1.058950
  H     -2.345528   -1.358663    0.023019
  H      0.259272   -2.101409   -0.023764
  H      0.259269    2.101410   -0.023772

 Total Charge           Charge          ....    0
 Multiplicity           Mult            ....    1
 Number of Electrons    NEL             ....   44
 Basis Dimension        Dim             ....  437

ORBITAL ENERGIES
----------------

  NO   OCC          E(Eh)            E(eV)
   0   2.0000     -15.604382      -424.6168
   1   2.0000     -11.272423      -306.7382
   2   2.0000     -11.245476      -306.0050
   3   2.0000     -11.245435      -306.0038
   4   2.0000     -11.205266      -304.9108
   5   2.0000     -11.204208      -304.8820
   6   2.0000      -1.301251       -35.4088
   7   2.0000      -1.074037       -29.2260
   8   2.0000      -0.975932       -26.5564
   9   2.0000      -0.934079       -25.4176
  10   2.0000      -0.773768       -21.0553
  11   2.0000      -0.750475       -20.4215
  12   2.0000      -0.709355       -19.3025
  13   2.0000      -0.634776       -17.2731
  14   2.0000      -0.603716       -16.4279
  15   2.0000      -0.572279       -15.5725
  16   2.0000      -0.563406       -15.3311
  17   2.0000      -0.528934       -14.3930
  18   2.0000      -0.524847       -14.2818
  19   2.0000      -0.521981       -14.2038
  20   2.0000      -0.334013        -9.0890
  21   2.0000      -0.295435        -8.0392
  22   0.0000       0.027007         0.7349
  23   0.0000       0.035817         0.9746
  24   0.0000       0.038021         1.0346
  25   0.0000       0.044889         1.2215
  26   0.0000       0.049668         1.3515

MULLIKEN ATOMIC CHARGES
-----------------------
   0 C :   -0.598011
   1 C :   -0.687110
   2 C :   -0.687122
   3 C :   -0.597928
   4 N :    0.284582
   5 H :    0.420145
   6 C :   -0.927124
   7 H :    0.347754
   8 H :    0.347798
   9 H :    0.316965
  10 H :    0.420148
  11 H :    0.679935
  12 H :    0.679967
Sum of atomic charges:   -0.0000000

LOEWDIN ATOMIC CHARGES
----------------------
   0 C :    0.102206
   1 C :    0.170786
   2 C :    0.170787
   3 C :    0.102205
   4 N :    0.165733
   5 H :   -0.199832
   6 C :    0.516392
   7 H :   -0.163787
   8 H :   -0.163792
   9 H :   -0.154123
  10 H :   -0.199829
  11 H :   -0.173373
  12 H :   -0.173373

  Mayer bond orders larger than 0.100000
B(  0-C ,  1-C ) :   1.0939 B(  0-C ,  3-C ) :   0.2023 B(  0-C ,  4-N ) :   1.0791
B(  0-C , 11-H ) :   0.4880 B(  1-C ,  2-C ) :   1.4651 B(  1-C ,  4-N ) :  -0.2055
B(  1-C , 10-H ) :   0.9850 B(  2-C ,  3-C ) :   1.0939 B(  2-C ,  4-N ) :  -0.2055
B(  2-C ,  5-H ) :   0.9850 B(  3-C ,  4-N ) :   1.0791 B(  3-C , 12-H ) :   0.4879
B(  4-N ,  6-C ) :   0.8945 B(  6-C ,  7-H ) :   0.9035 B(  6-C ,  8-H ) :   0.9035
B(  6-C ,  9-H ) :   0.9348

MP2 TOTAL ENERGY:     -248.967127333 Eh
FINAL SINGLE POINT ENERGY      -248.967127333443

DIPOLE MOMENT
-------------
                                X             Y             Z
Electronic contribution:     -2.37030      -0.00000      -0.09488
Nuclear contribution   :      3.21995       0.00001       0.09673
                        -----------------------------------------
Total Dipole Moment    :      0.84964       0.00001       0.00185
                        -----------------------------------------
Magnitude (a.u.)       :      0.84964
Magnitude (Debye)      :      2.15962

Rotational constants in cm-1:     0.291887     0.119430     0.086170
Rotational constants in MHz :  8750.556823  3580.420208  2583.319790

                             ****ORCA TERMINATED NORMALLY****
TOTAL RUN TIME: 0 days 0 hours 1 minutes 12 seconds 179 msec
