                         Program Version 4.2.1 -  RELEASE  -
|  1> %pal
|  2>  nprocs 32
|  3> end
|  4> !RI-MP2 aug-cc-pVTZ aug-cc-pVTZ/C TightSCF
|  5> %maxcore 4500
|  6> *xyzfile -1 1  10_47R.xyz
|  7>
|  8>
|  9>                          ****END OF INPUT****

CARTESIAN COORDINATES (ANGSTROEM)
---------------------------------
  C     -0.413066   -0.563227   -0.545527
  C      1.033072   -0.630152   -0.983314
  C     -0.358747    0.653742   -0.014129
  C      1.942262   -1.547024   -0.173167
  H      2.941646   -1.561107   -0.624588
  C      1.143427    0.896579   -0.332539
  C      2.016432   -0.879413    1.213378
  H      1.117748   -1.132172    1.786115
  C      2.046677    0.621903    0.915399
  H      1.752126    1.237969    1.772078
  H      3.051132    0.934049    0.610840
  H      1.600727   -2.589216   -0.112841
  H      2.877715   -1.225198    1.796301
  O      1.471146    1.938834   -1.058887
  C     -1.617073   -1.450619   -0.569257
  H     -1.372956   -2.471842   -0.249863
  H     -2.012869   -1.540835   -1.591327
  C     -1.507714    1.405216    0.565567
  H     -1.411323    1.480489    1.658062
  H     -1.513194    2.431992    0.185186
  C     -2.808947    0.674545    0.193757
  H     -3.648948    1.046119    0.792041
  H     -3.043963    0.893405   -0.854263
  C     -2.685526   -0.848068    0.359538
  H     -2.406811   -1.063121    1.398130
  H     -3.657693   -1.323997    0.187101
  H      1.212718   -0.628088   -2.060102

 Total Charge           Charge          ....   -1
 Multiplicity           Mult            ....    1
 Number of Electrons    NEL             ....   90
 Basis Dimension        Dim             ....  897

ORBITAL ENERGIES
----------------

  NO   OCC          E(Eh)            E(eV)
   0   2.0000     -20.233814      -550.5901
   1   2.0000     -11.105022      -302.1830
   2   2.0000     -11.101353      -302.0832
   3   2.0000     -11.096769      -301.9584
   4   2.0000     -11.086168      -301.6700
   5   2.0000     -11.085481      -301.6513
   6   2.0000     -11.070119      -301.2333
   7   2.0000     -11.069431      -301.2145
   8   2.0000     -11.051357      -300.7227
   9   2.0000     -11.044381      -300.5329
  10   2.0000     -11.043983      -300.5221
  11   2.0000     -11.041183      -300.4459
  12   2.0000      -1.064477       -28.9659
  13   2.0000      -0.993730       -27.0408
  14   2.0000      -0.944309       -25.6959
  15   2.0000      -0.880280       -23.9536
  16   2.0000      -0.871544       -23.7159
  17   2.0000      -0.791787       -21.5456
  18   2.0000      -0.758606       -20.6427
  19   2.0000      -0.688218       -18.7274
  20   2.0000      -0.680551       -18.5187
  21   2.0000      -0.610685       -16.6176
  22   2.0000      -0.578487       -15.7414
  23   2.0000      -0.522273       -14.2118
  24   2.0000      -0.497988       -13.5509
  25   2.0000      -0.479413       -13.0455
  26   2.0000      -0.467537       -12.7223
  27   2.0000      -0.459322       -12.4988
  28   2.0000      -0.444560       -12.0971
  29   2.0000      -0.420983       -11.4555
  30   2.0000      -0.406637       -11.0652
  31   2.0000      -0.398621       -10.8470
  32   2.0000      -0.384011       -10.4495
  33   2.0000      -0.365766        -9.9530
  34   2.0000      -0.345216        -9.3938
  35   2.0000      -0.340512        -9.2658
  36   2.0000      -0.329446        -8.9647
  37   2.0000      -0.318163        -8.6577
  38   2.0000      -0.315352        -8.5812
  39   2.0000      -0.295266        -8.0346
  40   2.0000      -0.277026        -7.5382
  41   2.0000      -0.269787        -7.3413
  42   2.0000      -0.172393        -4.6911
  43   2.0000      -0.137214        -3.7338
  44   2.0000      -0.119686        -3.2568
  45   0.0000       0.097491         2.6529
  46   0.0000       0.107101         2.9144
  47   0.0000       0.111927         3.0457
  48   0.0000       0.118143         3.2148
  49   0.0000       0.121848         3.3157

MULLIKEN ATOMIC CHARGES
-----------------------
   0 C :    0.591751
   1 C :   -0.618717
   2 C :    0.220906
   3 C :   -0.572967
   4 H :    0.175958
   5 C :    1.406762
   6 C :   -0.662186
   7 H :    0.161378
   8 C :   -0.690019
   9 H :    0.305623
  10 H :    0.216214
  11 H :    0.343349
  12 H :    0.346127
  13 O :   -1.661681
  14 C :   -0.825614
  15 H :    0.175408
  16 H :    0.154899
  17 C :   -0.712559
  18 H :    0.142986
  19 H :    0.235607
  20 C :   -0.513430
  21 H :    0.283220
  22 H :    0.164174
  23 C :   -0.521841
  24 H :    0.165371
  25 H :    0.278088
  26 H :    0.411192
Sum of atomic charges:   -1.0000000

LOEWDIN ATOMIC CHARGES
----------------------
   0 C :   -0.064714
   1 C :    0.046822
   2 C :   -0.041210
   3 C :    0.271475
   4 H :   -0.155294
   5 C :   -0.799483
   6 C :    0.257285
   7 H :   -0.159530
   8 C :    0.266285
   9 H :   -0.155566
  10 H :   -0.170495
  11 H :   -0.155346
  12 H :   -0.157537
  13 O :    0.233288
  14 C :    0.288192
  15 H :   -0.154678
  16 H :   -0.151668
  17 C :    0.299494
  18 H :   -0.149257
  19 H :   -0.146740
  20 C :    0.274983
  21 H :   -0.153295
  22 H :   -0.144955
  23 C :    0.270971
  24 H :   -0.146024
  25 H :   -0.153544
  26 H :   -0.149457

  Mayer bond orders larger than 0.100000
B(  0-C ,  1-C ) :   0.8582 B(  0-C ,  2-C ) :   2.0723 B(  0-C ,  5-C ) :  -0.1292
B(  0-C , 14-C ) :   0.4321 B(  0-C , 16-H ) :  -0.1041 B(  0-C , 26-H ) :  -0.1878
B(  1-C ,  3-C ) :   0.8122 B(  1-C ,  5-C ) :   1.3478 B(  1-C , 13-O ) :   0.3003
B(  1-C , 26-H ) :   0.7552 B(  2-C ,  5-C ) :   0.9055 B(  2-C , 13-O ) :   0.3978
B(  2-C , 17-C ) :   0.2922 B(  2-C , 18-H ) :  -0.1214 B(  3-C ,  4-H ) :   1.0848
B(  3-C ,  6-C ) :   0.8845 B(  3-C , 11-H ) :   0.8854 B(  5-C ,  8-C ) :   1.0990
B(  5-C , 13-O ) :  -0.7282 B(  6-C ,  7-H ) :   1.1346 B(  6-C ,  8-C ) :   0.8913
B(  6-C , 12-H ) :   0.8414 B(  8-C ,  9-H ) :   0.8982 B(  8-C , 10-H ) :   1.0344
B(  8-C , 13-O ) :   0.1556 B( 14-C , 15-H ) :   1.0877 B( 14-C , 16-H ) :   1.1493
B( 14-C , 23-C ) :   0.9949 B( 17-C , 18-H ) :   1.1325 B( 17-C , 19-H ) :   1.0893
B( 17-C , 20-C ) :   0.9725 B( 17-C , 23-C ) :   0.1021 B( 20-C , 21-H ) :   0.9494
B( 20-C , 22-H ) :   1.0644 B( 20-C , 23-C ) :   0.8736 B( 23-C , 24-H ) :   1.0558
B( 23-C , 25-H ) :   0.9539

MP2 TOTAL ENERGY:     -502.371227734 Eh
FINAL SINGLE POINT ENERGY      -502.371227734095

DIPOLE MOMENT
-------------
                                X             Y             Z
Electronic contribution:      2.49183       3.40587      -3.43239
Nuclear contribution   :     -4.59828      -5.61222       4.78814
                        -----------------------------------------
Total Dipole Moment    :     -2.10644      -2.20635       1.35575
                        -----------------------------------------
Magnitude (a.u.)       :      3.33814
Magnitude (Debye)      :      8.48488

Rotational constants in cm-1:     0.052528     0.026586     0.022060
Rotational constants in MHz :  1574.752821   797.026481   661.349073

                             ****ORCA TERMINATED NORMALLY****
TOTAL RUN TIME: 0 days 0 hours 14 minutes 1 seconds 231 msec
