                         Program Version 4.2.1 -  RELEASE  -
|  1> %pal
|  2>  nprocs 32
|  3> end
|  4> !RI-MP2 aug-cc-pVTZ aug-cc-pVTZ/C TightSCF
|  5> %maxcore 4500
|  6> *xyzfile -1 1  08_3TS.xyz
|  7>
|  8>
|  9>                          ****END OF INPUT****

CARTESIAN COORDINATES (ANGSTROEM)
---------------------------------
  C      1.092843    1.390814   -0.207725
  N      2.308843    0.865587    0.261595
  C      2.563479   -0.461604    0.369642
  N      1.705393   -1.356335    0.027498
  C      0.486861   -0.930385   -0.438877
  C      0.116185    0.404054   -0.595451
  N     -1.117055    0.750818   -1.061192
  C     -2.696413    0.340552    0.209729
  O     -4.105295    0.150297    1.438136
  H     -3.736689    0.181683    2.324908
  O     -3.081789   -0.811853   -0.447627
  H     -1.943049    0.286072    0.980080
  O      0.961785    2.616732   -0.251263
  N      3.808234   -0.816214    0.921691
  H      4.590689   -0.400872    0.429997
  H      3.891363   -1.824210    0.914063
  H      2.954350    1.547848    0.632135
  H     -1.144807    1.765373   -1.119547
  N     -0.378560   -1.927177   -0.838461
  H     -0.219452   -2.814357   -0.388609
  H     -1.351386   -1.641997   -0.906380
  H     -3.808074   -1.102650    0.132109
  H     -3.096253    1.284363   -0.114540

 Total Charge           Charge          ....   -1
 Multiplicity           Mult            ....    1
 Number of Electrons    NEL             ....  100
 Basis Dimension        Dim             ....  828

ORBITAL ENERGIES
----------------

  NO   OCC          E(Eh)            E(eV)
   0   2.0000     -20.419666      -555.6474
   1   2.0000     -20.376246      -554.4658
   2   2.0000     -20.327884      -553.1498
   3   2.0000     -15.497229      -421.7010
   4   2.0000     -15.488818      -421.4722
   5   2.0000     -15.431250      -419.9057
   6   2.0000     -15.416230      -419.4970
   7   2.0000     -15.325097      -417.0171
   8   2.0000     -11.242907      -305.9351
   9   2.0000     -11.209891      -305.0366
  10   2.0000     -11.206552      -304.9458
  11   2.0000     -11.162479      -303.7465
  12   2.0000     -11.095075      -301.9123
  13   2.0000      -1.253187       -34.1010
  14   2.0000      -1.242426       -33.8081
  15   2.0000      -1.204535       -32.7771
  16   2.0000      -1.114658       -30.3314
  17   2.0000      -1.091040       -29.6887
  18   2.0000      -1.071594       -29.1596
  19   2.0000      -1.033359       -28.1191
  20   2.0000      -0.987188       -26.8628
  21   2.0000      -0.835796       -22.7432
  22   2.0000      -0.754691       -20.5362
  23   2.0000      -0.732598       -19.9350
  24   2.0000      -0.727382       -19.7931
  25   2.0000      -0.642967       -17.4960
  26   2.0000      -0.604983       -16.4624
  27   2.0000      -0.581309       -15.8182
  28   2.0000      -0.561631       -15.2827
  29   2.0000      -0.551068       -14.9953
  30   2.0000      -0.527077       -14.3425
  31   2.0000      -0.514196       -13.9920
  32   2.0000      -0.505420       -13.7532
  33   2.0000      -0.492358       -13.3977
  34   2.0000      -0.467813       -12.7298
  35   2.0000      -0.465190       -12.6585
  36   2.0000      -0.432400       -11.7662
  37   2.0000      -0.410921       -11.1817
  38   2.0000      -0.390655       -10.6303
  39   2.0000      -0.383708       -10.4412
  40   2.0000      -0.331774        -9.0280
  41   2.0000      -0.327336        -8.9073
  42   2.0000      -0.321962        -8.7610
  43   2.0000      -0.305451        -8.3117
  44   2.0000      -0.297759        -8.1024
  45   2.0000      -0.265743        -7.2312
  46   2.0000      -0.261667        -7.1203
  47   2.0000      -0.245900        -6.6913
  48   2.0000      -0.225665        -6.1407
  49   2.0000      -0.081442        -2.2162
  50   0.0000       0.088570         2.4101
  51   0.0000       0.107417         2.9230
  52   0.0000       0.118079         3.2131
  53   0.0000       0.125677         3.4198
  54   0.0000       0.131605         3.5812

MULLIKEN ATOMIC CHARGES
-----------------------
   0 C :    0.079596
   1 N :    0.159415
   2 C :    0.102842
   3 N :   -0.506233
   4 C :    0.570803
   5 C :    1.712533
   6 N :   -1.176354
   7 C :   -0.016412
   8 O :   -0.854982
   9 H :    0.121422
  10 O :   -0.537500
  11 H :    0.360851
  12 O :   -0.994665
  13 N :   -0.543422
  14 H :    0.091714
  15 H :    0.148809
  16 H :    0.115348
  17 H :   -0.058115
  18 N :   -0.682974
  19 H :    0.028251
  20 H :    0.314368
  21 H :    0.167318
  22 H :    0.397387
Sum of atomic charges:   -1.0000000

LOEWDIN ATOMIC CHARGES
----------------------
   0 C :   -0.690863
   1 N :    0.547484
   2 C :   -0.558603
   3 N :    0.394567
   4 C :   -0.439383
   5 C :   -0.370678
   6 N :    0.542991
   7 C :   -0.011329
   8 O :    0.594016
   9 H :   -0.701154
  10 O :    0.837650
  11 H :   -0.219389
  12 O :    0.387787
  13 N :    0.844382
  14 H :   -0.316073
  15 H :   -0.332812
  16 H :   -0.276064
  17 H :   -0.463510
  18 N :    0.847460
  19 H :   -0.320143
  20 H :   -0.459433
  21 H :   -0.623698
  22 H :   -0.213205

  Mayer bond orders larger than 0.100000
B(  0-C ,  1-N ) :   0.8486 B(  0-C ,  2-C ) :  -0.3395 B(  0-C ,  4-C ) :   0.8751
B(  0-C ,  6-N ) :   0.1984 B(  0-C , 12-O ) :   0.8192 B(  1-N ,  2-C ) :   0.9136
B(  1-N , 12-O ) :  -0.1755 B(  1-N , 13-N ) :  -0.1134 B(  1-N , 16-H ) :   1.0704
B(  2-C ,  3-N ) :   1.5824 B(  2-C ,  4-C ) :  -0.5541 B(  2-C ,  5-C ) :   0.1230
B(  2-C , 13-N ) :   0.8281 B(  3-N , 13-N ) :  -0.2151 B(  3-N , 18-N ) :  -0.1286
B(  4-C ,  5-C ) :   0.4811 B(  4-C ,  6-N ) :   0.2190 B(  4-C , 18-N ) :   0.3841
B(  5-C ,  6-N ) :  -0.1297 B(  5-C , 12-O ) :   0.1148 B(  6-N ,  7-C ) :   0.4102
B(  6-N , 17-H ) :   1.1734 B(  7-C ,  8-O ) :   0.2293 B(  7-C , 10-O ) :   0.7303
B(  7-C , 11-H ) :   0.9135 B(  7-C , 22-H ) :   0.8769 B(  8-O ,  9-H ) :   1.0890
B( 10-O , 21-H ) :   0.9789 B( 13-N , 14-H ) :   1.0794 B( 13-N , 15-H ) :   0.9622
B( 18-N , 19-H ) :   1.1738 B( 18-N , 20-H ) :   0.8460

MP2 TOTAL ENERGY:     -694.837015437 Eh
FINAL SINGLE POINT ENERGY      -694.837015436879

DIPOLE MOMENT
-------------
                                X             Y             Z
Electronic contribution:      7.80312       1.38120      -2.05917
Nuclear contribution   :     -3.87764      -2.67036       2.85743
                        -----------------------------------------
Total Dipole Moment    :      3.92548      -1.28916       0.79827
                        -----------------------------------------
Magnitude (a.u.)       :      4.20816
Magnitude (Debye)      :     10.69629

Rotational constants in cm-1:     0.043974     0.014739     0.012610
Rotational constants in MHz :  1318.292701   441.849482   378.030046

                             ****ORCA TERMINATED NORMALLY****
TOTAL RUN TIME: 0 days 0 hours 9 minutes 25 seconds 37 msec
