                         Program Version 4.2.1 -  RELEASE  -
|  1> %pal
|  2>  nprocs 32
|  3> end
|  4> !RI-MP2 aug-cc-pVTZ aug-cc-pVTZ/C TightSCF
|  5> %maxcore 4500
|  6> *xyzfile 0 1  02_11TS.xyz
|  7>
|  8>
|  9>                          ****END OF INPUT****

CARTESIAN COORDINATES (ANGSTROEM)
---------------------------------
  C      3.191570    1.317083    0.169129
  C      1.904868    1.299412    1.017567
  C      1.080846    0.019130    0.864258
  C      1.368862   -0.466226   -1.017196
  C      3.751704   -0.071390   -0.114357
  H      2.223700    1.289748    2.067057
  H      3.936846    1.931719    0.681802
  H      3.000283    1.817886   -0.788609
  H      1.118235    0.538211   -1.347287
  H      3.751969   -0.636434    0.824230
  H      1.587195   -0.874410    1.214057
  H      3.173871   -0.508845   -2.132668
  H      2.986486   -1.873798   -1.044994
  C      2.845298   -0.792529   -1.124895
  C      5.187829   -0.016610   -0.622341
  H      5.857822    0.412030    0.126591
  H      5.256218    0.598040   -1.525152
  H      5.557579   -1.014478   -0.871702
  C     -0.278405    0.010506    1.207632
  C      0.435618   -1.447810   -1.364386
  C     -1.488129   -0.017772   -1.006107
  C     -0.936483   -1.221121   -1.382329
  C     -0.885248   -1.249310    1.578607
  H     -0.831631    0.920628    1.386565
  O     -0.301776   -2.312969    1.392294
  H     -0.869148    0.867447   -1.025752
  C     -2.920399    0.240846   -0.864367
  C     -3.315732    1.498983   -0.618244
  H     -2.532090    2.250054   -0.539685
  C     -3.857605   -0.926318   -1.005474
  H     -3.817846   -1.329959   -2.020733
  H     -4.889782   -0.657533   -0.794008
  H     -3.575917   -1.734872   -0.327991
  C     -4.702742    2.021098   -0.433651
  H     -5.466980    1.249349   -0.505489
  H     -4.927510    2.784590   -1.184816
  H     -4.804400    2.506266    0.542132
  C     -2.253614   -1.219361    2.221678
  H     -2.879161   -0.423689    1.815422
  H     -2.132089   -1.034264    3.292875
  H     -2.738956   -2.186713    2.099233
  C      1.115958    2.585687    0.787230
  H      0.309186    2.716600    1.508963
  H      1.777924    3.450476    0.872355
  H      0.680668    2.608399   -0.216677
  H      0.779506   -2.470190   -1.476204
  H     -1.582945   -2.078282   -1.524391

 Total Charge           Charge          ....    0
 Multiplicity           Mult            ....    1
 Number of Electrons    NEL             ....  144
 Basis Dimension        Dim             .... 1518

ORBITAL ENERGIES
----------------

  NO   OCC          E(Eh)            E(eV)
   0   2.0000     -20.499873      -557.8299
   1   2.0000     -11.293858      -307.3215
   2   2.0000     -11.252647      -306.2001
   3   2.0000     -11.242485      -305.9236
   4   2.0000     -11.241692      -305.9020
   5   2.0000     -11.238740      -305.8217
   6   2.0000     -11.237307      -305.7827
   7   2.0000     -11.235049      -305.7212
   8   2.0000     -11.232115      -305.6414
   9   2.0000     -11.229377      -305.5669
  10   2.0000     -11.224357      -305.4303
  11   2.0000     -11.222826      -305.3886
  12   2.0000     -11.221465      -305.3516
  13   2.0000     -11.219167      -305.2890
  14   2.0000     -11.218863      -305.2808
  15   2.0000     -11.218437      -305.2692
  16   2.0000     -11.212262      -305.1012
  17   2.0000     -11.209781      -305.0336
  18   2.0000     -11.207807      -304.9799
  19   2.0000      -1.342365       -36.5276
  20   2.0000      -1.142225       -31.0815
  21   2.0000      -1.123473       -30.5713
  22   2.0000      -1.082225       -29.4488
  23   2.0000      -1.068396       -29.0725
  24   2.0000      -1.021320       -27.7915
  25   2.0000      -1.013944       -27.5908
  26   2.0000      -0.981714       -26.7138
  27   2.0000      -0.970513       -26.4090
  28   2.0000      -0.933972       -25.4147
  29   2.0000      -0.929559       -25.2946
  30   2.0000      -0.895372       -24.3643
  31   2.0000      -0.862848       -23.4793
  32   2.0000      -0.831862       -22.6361
  33   2.0000      -0.786921       -21.4132
  34   2.0000      -0.751664       -20.4538
  35   2.0000      -0.736075       -20.0296
  36   2.0000      -0.719641       -19.5824
  37   2.0000      -0.696982       -18.9659
  38   2.0000      -0.674284       -18.3482
  39   2.0000      -0.663959       -18.0672
  40   2.0000      -0.636050       -17.3078
  41   2.0000      -0.628682       -17.1073
  42   2.0000      -0.620525       -16.8853
  43   2.0000      -0.610444       -16.6110
  44   2.0000      -0.597676       -16.2636
  45   2.0000      -0.592210       -16.1149
  46   2.0000      -0.578010       -15.7285
  47   2.0000      -0.574862       -15.6428
  48   2.0000      -0.570135       -15.5142
  49   2.0000      -0.565344       -15.3838
  50   2.0000      -0.559089       -15.2136
  51   2.0000      -0.555138       -15.1061
  52   2.0000      -0.547884       -14.9087
  53   2.0000      -0.541131       -14.7249
  54   2.0000      -0.536115       -14.5884
  55   2.0000      -0.532052       -14.4779
  56   2.0000      -0.522290       -14.2122
  57   2.0000      -0.518167       -14.1001
  58   2.0000      -0.506767       -13.7898
  59   2.0000      -0.503796       -13.7090
  60   2.0000      -0.498483       -13.5644
  61   2.0000      -0.489070       -13.3083
  62   2.0000      -0.485112       -13.2006
  63   2.0000      -0.478429       -13.0187
  64   2.0000      -0.467087       -12.7101
  65   2.0000      -0.449047       -12.2192
  66   2.0000      -0.437521       -11.9056
  67   2.0000      -0.431910       -11.7529
  68   2.0000      -0.389136       -10.5889
  69   2.0000      -0.377726       -10.2785
  70   2.0000      -0.318388        -8.6638
  71   2.0000      -0.263046        -7.1578
  72   0.0000       0.022085         0.6010
  73   0.0000       0.026582         0.7233
  74   0.0000       0.030746         0.8367
  75   0.0000       0.031973         0.8700
  76   0.0000       0.037206         1.0124

MULLIKEN ATOMIC CHARGES
-----------------------
   0 C :   -0.541760
   1 C :   -0.112496
   2 C :    0.697575
   3 C :    1.497500
   4 C :    0.503323
   5 H :    0.173085
   6 H :    0.538434
   7 H :    0.068789
   8 H :    0.363574
   9 H :    0.168911
  10 H :   -0.098951
  11 H :    0.219154
  12 H :    0.213633
  13 C :   -1.016037
  14 C :   -1.359159
  15 H :    0.251558
  16 H :    0.232887
  17 H :    0.253779
  18 C :   -0.490353
  19 C :   -1.381955
  20 C :   -0.496872
  21 C :   -0.623523
  22 C :    1.369184
  23 H :    0.143993
  24 O :   -1.445247
  25 H :    0.261458
  26 C :    2.110856
  27 C :   -0.648497
  28 H :    0.334675
  29 C :   -0.857973
  30 H :    0.203799
  31 H :    0.291581
  32 H :    0.318134
  33 C :   -1.273878
  34 H :    0.404323
  35 H :    0.198780
  36 H :    0.188868
  37 C :   -0.963297
  38 H :    0.314811
  39 H :    0.351548
  40 H :    0.244770
  41 C :   -1.085693
  42 H :    0.340778
  43 H :    0.132449
  44 H :    0.236582
  45 H :   -0.134112
  46 H :   -0.098990
Sum of atomic charges:    0.0000000

LOEWDIN ATOMIC CHARGES
----------------------
   0 C :    0.300038
   1 C :    0.009777
   2 C :    0.133998
   3 C :    0.131147
   4 C :   -0.025096
   5 H :   -0.120574
   6 H :   -0.129039
   7 H :   -0.133855
   8 H :   -0.183346
   9 H :   -0.128309
  10 H :   -0.188069
  11 H :   -0.132985
  12 H :   -0.134811
  13 C :    0.313088
  14 C :    0.596159
  15 H :   -0.161047
  16 H :   -0.158168
  17 H :   -0.157332
  18 C :    0.182092
  19 C :    0.236309
  20 C :    0.189871
  21 C :    0.200182
  22 C :   -0.587853
  23 H :   -0.204477
  24 O :    0.479272
  25 H :   -0.217060
  26 C :   -0.104586
  27 C :    0.245263
  28 H :   -0.179282
  29 C :    0.576857
  30 H :   -0.153113
  31 H :   -0.190170
  32 H :   -0.173561
  33 C :    0.577480
  34 H :   -0.198512
  35 H :   -0.168150
  36 H :   -0.168458
  37 C :    0.582887
  38 H :   -0.195646
  39 H :   -0.163408
  40 H :   -0.175566
  41 C :    0.596074
  42 H :   -0.171110
  43 H :   -0.152062
  44 H :   -0.157079
  45 H :   -0.155164
  46 H :   -0.182607

  Mayer bond orders larger than 0.100000
B(  0-C ,  1-C ) :   0.8690 B(  0-C ,  3-C ) :  -0.1628 B(  0-C ,  4-C ) :   0.9577
B(  0-C ,  6-H ) :   0.6954 B(  0-C ,  7-H ) :   1.2600 B(  0-C ,  8-H ) :  -0.1393
B(  0-C , 13-C ) :   0.3071 B(  1-C ,  2-C ) :   0.7577 B(  1-C ,  3-C ) :   0.1570
B(  1-C ,  5-H ) :   0.9801 B(  1-C ,  6-H ) :  -0.1189 B(  1-C , 18-C ) :   0.1645
B(  1-C , 41-C ) :   0.6487 B(  2-C ,  3-C ) :   0.2429 B(  2-C , 10-H ) :   1.1314
B(  2-C , 13-C ) :   0.2678 B(  2-C , 18-C ) :   0.3331 B(  2-C , 19-C ) :   0.1652
B(  2-C , 21-C ) :   0.1531 B(  2-C , 22-C ) :   0.6187 B(  2-C , 26-C ) :   0.1406
B(  2-C , 41-C ) :   0.2525 B(  3-C ,  4-C ) :   0.1275 B(  3-C ,  8-H ) :   1.1045
B(  3-C , 11-H ) :  -0.1615 B(  3-C , 13-C ) :   0.1890 B(  3-C , 19-C ) :  -0.1489
B(  3-C , 22-C ) :   0.1012 B(  3-C , 26-C ) :   0.2269 B(  3-C , 45-H ) :  -0.2518
B(  4-C ,  9-H ) :   1.0296 B(  4-C , 10-H ) :  -0.1112 B(  4-C , 13-C ) :   0.6831
B(  4-C , 14-C ) :   0.3419 B(  4-C , 16-H ) :  -0.1741 B(  8-H , 20-C ) :  -0.2831
B(  8-H , 25-H ) :  -0.1049 B(  8-H , 27-C ) :   0.1317 B(  8-H , 28-H ) :   0.1078
B( 10-H , 18-C ) :  -0.2373 B( 10-H , 21-C ) :  -0.1093 B( 10-H , 22-C ) :   0.1656
B( 10-H , 24-O ) :   0.1581 B( 11-H , 13-C ) :   1.0911 B( 12-H , 13-C ) :   1.2889
B( 13-C , 19-C ) :  -0.1392 B( 14-C , 15-H ) :   1.0793 B( 14-C , 16-H ) :   1.1367
B( 14-C , 17-H ) :   1.0702 B( 18-C , 20-C ) :   0.3625 B( 18-C , 22-C ) :   0.5619
B( 18-C , 23-H ) :   1.1991 B( 18-C , 25-H ) :  -0.1020 B( 18-C , 26-C ) :  -0.1317
B( 18-C , 37-C ) :   0.3869 B( 18-C , 38-H ) :   0.1569 B( 18-C , 41-C ) :  -0.2465
B( 19-C , 20-C ) :  -0.2240 B( 19-C , 21-C ) :   1.1787 B( 19-C , 25-H ) :   0.1684
B( 19-C , 45-H ) :   1.6811 B( 20-C , 21-C ) :   0.5355 B( 20-C , 24-O ) :   0.1421
B( 20-C , 25-H ) :   1.6664 B( 20-C , 26-C ) :   0.2184 B( 20-C , 27-C ) :   0.9592
B( 20-C , 29-C ) :   0.2819 B( 20-C , 31-H ) :   0.1080 B( 20-C , 33-C ) :   0.1241
B( 20-C , 45-H ) :  -0.1248 B( 20-C , 46-H ) :  -0.2184 B( 21-C , 26-C ) :   0.4775
B( 21-C , 29-C ) :  -0.2171 B( 21-C , 45-H ) :  -0.2537 B( 21-C , 46-H ) :   1.8230
B( 22-C , 24-O ) :   0.2067 B( 22-C , 25-H ) :   0.1580 B( 22-C , 37-C ) :   0.3024
B( 25-H , 26-C ) :  -0.4228 B( 25-H , 28-H ) :  -0.1165 B( 25-H , 46-H ) :   0.1492
B( 26-C , 27-C ) :  -0.3124 B( 26-C , 28-H ) :  -0.4276 B( 26-C , 29-C ) :   0.4353
B( 26-C , 33-C ) :   0.3352 B( 27-C , 28-H ) :   1.4749 B( 27-C , 29-C ) :  -0.2461
B( 27-C , 33-C ) :   0.3982 B( 27-C , 35-H ) :  -0.1439 B( 27-C , 36-H ) :  -0.1009
B( 27-C , 46-H ) :  -0.1329 B( 28-H , 33-C ) :  -0.4598 B( 29-C , 30-H ) :   1.1646
B( 29-C , 31-H ) :   0.8886 B( 29-C , 32-H ) :   1.0061 B( 29-C , 46-H ) :  -0.1012
B( 33-C , 34-H ) :   0.8040 B( 33-C , 35-H ) :   1.2016 B( 33-C , 36-H ) :   1.1876
B( 37-C , 38-H ) :   0.9585 B( 37-C , 39-H ) :   0.9220 B( 37-C , 40-H ) :   1.0511
B( 41-C , 42-H ) :   0.9473 B( 41-C , 43-H ) :   1.1894 B( 41-C , 44-H ) :   1.0502

MP2 TOTAL ENERGY:     -776.297907093 Eh
FINAL SINGLE POINT ENERGY      -776.297907093296

DIPOLE MOMENT
-------------
                                X             Y             Z
Electronic contribution:     -1.30288      -8.08053       0.57692
Nuclear contribution   :      0.98061       9.43099      -0.90652
                        -----------------------------------------
Total Dipole Moment    :     -0.32227       1.35046      -0.32960
                        -----------------------------------------
Magnitude (a.u.)       :      1.42697
Magnitude (Debye)      :      3.62706

Rotational constants in cm-1:     0.020830     0.007452     0.007043
Rotational constants in MHz :   624.469364   223.394541   211.128981

                             ****ORCA TERMINATED NORMALLY****
TOTAL RUN TIME: 0 days 1 hours 31 minutes 6 seconds 6 msec
