                         Program Version 4.2.1 -  RELEASE  -
|  1> %pal
|  2>  nprocs 32
|  3> end
|  4> !RI-MP2 aug-cc-pVTZ aug-cc-pVTZ/C TightSCF
|  5> %maxcore 4500
|  6> *xyzfile 0 1  10_35TS.xyz
|  7>
|  8>
|  9>                          ****END OF INPUT****

CARTESIAN COORDINATES (ANGSTROEM)
---------------------------------
  C      0.954223    1.514231    0.721243
  H      0.737886    1.875641    1.744383
  C      1.937795    0.368486    0.787091
  C      0.088967   -1.213774    0.167326
  H     -0.179996   -1.475770   -0.858972
  H     -0.101615   -2.097435    0.783456
  C     -0.812663   -0.064513    0.624312
  H     -0.762112    0.006197    1.728636
  N     -0.276791    1.162158    0.042341
  C      2.442346   -1.618408   -0.527681
  C      3.232475    0.622441    1.221353
  H      3.668913   -0.073066    1.914185
  H      3.528811    1.656554    1.387683
  C      3.728483   -1.242635   -0.905686
  C      4.637862   -0.486730   -0.174748
  C      1.557113   -0.863970    0.250685
  H      4.907817   -0.845492    0.801709
  H      3.970915   -1.430666   -1.952063
  C      5.737437    0.267137   -0.872811
  H      6.030721    1.147760   -0.298310
  H      6.631973   -0.355705   -0.982747
  H      5.428235    0.601731   -1.864100
  C     -1.220785    2.262172    0.033053
  H     -1.589671    2.488489    1.050678
  H     -0.703251    3.153555   -0.328530
  C     -2.260362   -0.316864    0.255838
  C     -3.005155    0.610855   -0.470564
  C     -2.384544    1.920573   -0.876918
  H     -2.019809    1.857587   -1.906681
  H     -3.136694    2.712866   -0.844773
  H      1.430323    2.343852    0.187796
  C     -4.330752    0.322895   -0.790748
  H     -4.904936    1.051487   -1.353462
  C     -2.870296   -1.501753    0.667894
  H     -2.305616   -2.217800    1.253653
  C     -4.922734   -0.863611   -0.395371
  H     -5.954813   -1.069554   -0.652293
  C     -4.187268   -1.779984    0.346222
  H     -4.640846   -2.706982    0.675663
  H      1.968457   -2.377640   -1.145238

 Total Charge           Charge          ....    0
 Multiplicity           Mult            ....    1
 Number of Electrons    NEL             ....  136
 Basis Dimension        Dim             .... 1357

ORBITAL ENERGIES
----------------

  NO   OCC          E(Eh)            E(eV)
   0   2.0000     -15.545097      -423.0036
   1   2.0000     -11.258704      -306.3649
   2   2.0000     -11.251420      -306.1667
   3   2.0000     -11.247843      -306.0694
   4   2.0000     -11.245472      -306.0049
   5   2.0000     -11.233729      -305.6853
   6   2.0000     -11.232500      -305.6519
   7   2.0000     -11.228661      -305.5474
   8   2.0000     -11.227843      -305.5251
   9   2.0000     -11.227722      -305.5218
  10   2.0000     -11.227108      -305.5051
  11   2.0000     -11.226560      -305.4902
  12   2.0000     -11.226126      -305.4784
  13   2.0000     -11.225778      -305.4690
  14   2.0000     -11.225415      -305.4591
  15   2.0000     -11.222897      -305.3905
  16   2.0000     -11.219782      -305.3058
  17   2.0000     -11.219683      -305.3031
  18   2.0000     -11.218952      -305.2832
  19   2.0000      -1.252841       -34.0915
  20   2.0000      -1.155552       -31.4442
  21   2.0000      -1.127321       -30.6760
  22   2.0000      -1.072948       -29.1964
  23   2.0000      -1.058659       -28.8076
  24   2.0000      -1.048132       -28.5211
  25   2.0000      -1.013360       -27.5749
  26   2.0000      -0.995125       -27.0787
  27   2.0000      -0.965612       -26.2756
  28   2.0000      -0.925656       -25.1884
  29   2.0000      -0.888779       -24.1849
  30   2.0000      -0.855897       -23.2901
  31   2.0000      -0.836562       -22.7640
  32   2.0000      -0.823877       -22.4188
  33   2.0000      -0.808478       -21.9998
  34   2.0000      -0.766265       -20.8511
  35   2.0000      -0.744619       -20.2621
  36   2.0000      -0.692984       -18.8571
  37   2.0000      -0.673141       -18.3171
  38   2.0000      -0.666776       -18.1439
  39   2.0000      -0.652051       -17.7432
  40   2.0000      -0.639458       -17.4005
  41   2.0000      -0.628831       -17.1114
  42   2.0000      -0.623263       -16.9598
  43   2.0000      -0.608241       -16.5511
  44   2.0000      -0.592056       -16.1107
  45   2.0000      -0.587078       -15.9752
  46   2.0000      -0.586078       -15.9480
  47   2.0000      -0.571318       -15.5464
  48   2.0000      -0.563645       -15.3376
  49   2.0000      -0.561294       -15.2736
  50   2.0000      -0.548345       -14.9212
  51   2.0000      -0.535675       -14.5765
  52   2.0000      -0.526710       -14.3325
  53   2.0000      -0.524143       -14.2627
  54   2.0000      -0.521548       -14.1920
  55   2.0000      -0.511976       -13.9316
  56   2.0000      -0.500174       -13.6104
  57   2.0000      -0.491902       -13.3853
  58   2.0000      -0.480855       -13.0847
  59   2.0000      -0.474765       -12.9190
  60   2.0000      -0.455313       -12.3897
  61   2.0000      -0.448636       -12.2080
  62   2.0000      -0.429866       -11.6972
  63   2.0000      -0.360756        -9.8167
  64   2.0000      -0.327011        -8.8984
  65   2.0000      -0.320003        -8.7077
  66   2.0000      -0.300417        -8.1748
  67   2.0000      -0.283644        -7.7184
  68   0.0000       0.026160         0.7118
  69   0.0000       0.028864         0.7854
  70   0.0000       0.030475         0.8293
  71   0.0000       0.033305         0.9063
  72   0.0000       0.037819         1.0291

MULLIKEN ATOMIC CHARGES
-----------------------
   0 C :   -0.712608
   1 H :    0.251956
   2 C :    1.201921
   3 C :   -0.551434
   4 H :    0.219726
   5 H :    0.207143
   6 C :   -0.114384
   7 H :    0.210881
   8 N :   -0.359202
   9 C :   -1.127644
  10 C :   -1.373560
  11 H :    0.261669
  12 H :    0.399405
  13 C :   -0.536464
  14 C :    0.222378
  15 C :    0.706930
  16 H :    0.407241
  17 H :    0.168934
  18 C :   -0.860867
  19 H :    0.263467
  20 H :    0.290197
  21 H :    0.288714
  22 C :   -0.596733
  23 H :    0.245622
  24 H :    0.349341
  25 C :    1.405455
  26 C :    1.062048
  27 C :   -0.599888
  28 H :    0.214981
  29 H :    0.221513
  30 H :    0.211638
  31 C :   -1.072858
  32 H :    0.020316
  33 C :   -1.176686
  34 H :   -0.007275
  35 C :   -0.264499
  36 H :    0.636827
  37 C :   -0.582170
  38 H :    0.473762
  39 H :   -0.005790
Sum of atomic charges:   -0.0000000

LOEWDIN ATOMIC CHARGES
----------------------
   0 C :    0.159538
   1 H :   -0.124935
   2 C :   -0.094640
   3 C :    0.299029
   4 H :   -0.135796
   5 H :   -0.144755
   6 C :   -0.115940
   7 H :   -0.107208
   8 N :    0.313982
   9 C :    0.233524
  10 C :    0.514275
  11 H :   -0.226430
  12 H :   -0.172006
  13 C :    0.194894
  14 C :    0.173683
  15 C :   -0.060700
  16 H :   -0.219344
  17 H :   -0.181692
  18 C :    0.574530
  19 H :   -0.175479
  20 H :   -0.167174
  21 H :   -0.175760
  22 C :    0.165713
  23 H :   -0.115016
  24 H :   -0.136058
  25 C :   -0.045645
  26 C :   -0.068410
  27 C :    0.300399
  28 H :   -0.131307
  29 H :   -0.143450
  30 H :   -0.134136
  31 C :    0.222311
  32 H :   -0.173225
  33 C :    0.225419
  34 H :   -0.177471
  35 C :    0.198303
  36 H :   -0.183489
  37 C :    0.203015
  38 H :   -0.183121
  39 H :   -0.185431

  Mayer bond orders larger than 0.100000
B(  0-C ,  1-H ) :   1.1518 B(  0-C ,  2-C ) :   0.7200 B(  0-C ,  3-C ) :   0.1123
B(  0-C ,  8-N ) :   0.9891 B(  0-C , 10-C ) :  -0.1012 B(  0-C , 15-C ) :  -0.1092
B(  0-C , 30-H ) :   1.1378 B(  1-H ,  2-C ) :  -0.1177 B(  2-C ,  3-C ) :   0.2279
B(  2-C ,  6-C ) :   0.1444 B(  2-C ,  8-N ) :  -0.2043 B(  2-C ,  9-C ) :  -0.1958
B(  2-C , 10-C ) :   0.5390 B(  2-C , 11-H ) :  -0.1089 B(  2-C , 13-C ) :   0.2512
B(  2-C , 14-C ) :  -0.2085 B(  2-C , 15-C ) :   1.1814 B(  2-C , 16-H ) :  -0.1433
B(  3-C ,  4-H ) :   1.1369 B(  3-C ,  5-H ) :   1.1426 B(  3-C ,  6-C ) :   0.8714
B(  3-C ,  8-N ) :   0.1814 B(  3-C , 15-C ) :   0.2758 B(  4-H , 15-C ) :  -0.1797
B(  6-C ,  7-H ) :   0.9426 B(  6-C ,  8-N ) :   0.7563 B(  6-C , 22-C ) :   0.1149
B(  6-C , 25-C ) :   0.8134 B(  6-C , 26-C ) :   0.2999 B(  6-C , 33-C ) :   0.6175
B(  8-N , 22-C ) :   0.8749 B(  8-N , 25-C ) :  -0.1768 B(  8-N , 26-C ) :  -0.1058
B(  9-C , 10-C ) :   0.3074 B(  9-C , 13-C ) :   0.9721 B(  9-C , 15-C ) :   0.8557
B(  9-C , 39-H ) :   1.4231 B( 10-C , 11-H ) :   1.1763 B( 10-C , 12-H ) :   0.8012
B( 10-C , 14-C ) :   0.5630 B( 10-C , 15-C ) :   0.1359 B( 10-C , 16-H ) :   0.2254
B( 13-C , 14-C ) :   1.1597 B( 13-C , 15-C ) :   0.2396 B( 13-C , 17-H ) :   1.1716
B( 13-C , 39-H ) :  -0.1297 B( 14-C , 15-C ) :   0.1107 B( 14-C , 16-H ) :   0.8544
B( 14-C , 18-C ) :   0.5845 B( 15-C , 39-H ) :  -0.1687 B( 18-C , 19-H ) :   0.9947
B( 18-C , 20-H ) :   0.9826 B( 18-C , 21-H ) :   0.9749 B( 22-C , 23-H ) :   1.0356
B( 22-C , 24-H ) :   0.8966 B( 22-C , 27-C ) :   1.0577 B( 22-C , 31-C ) :  -0.1029
B( 25-C , 26-C ) :   0.8135 B( 25-C , 27-C ) :   0.2139 B( 25-C , 31-C ) :   0.4388
B( 25-C , 33-C ) :  -0.1095 B( 25-C , 34-H ) :  -0.1688 B( 25-C , 35-C ) :  -0.1508
B( 26-C , 28-H ) :  -0.1225 B( 26-C , 31-C ) :   0.4845 B( 26-C , 33-C ) :  -0.3840
B( 26-C , 35-C ) :   0.2754 B( 26-C , 38-H ) :   0.1076 B( 27-C , 28-H ) :   1.1030
B( 27-C , 29-H ) :   1.0979 B( 27-C , 31-C ) :   0.1912 B( 31-C , 32-H ) :   1.5833
B( 31-C , 33-C ) :   0.1057 B( 31-C , 35-C ) :   0.9051 B( 31-C , 37-C ) :  -0.1012
B( 32-H , 35-C ) :  -0.1336 B( 33-C , 34-H ) :   1.6401 B( 33-C , 35-C ) :   0.1361
B( 33-C , 37-C ) :   1.3153 B( 35-C , 36-H ) :   0.4908 B( 35-C , 37-C ) :   1.0458
B( 37-C , 38-H ) :   0.7433

MP2 TOTAL ENERGY:     -751.644638951 Eh
FINAL SINGLE POINT ENERGY      -751.644638950967

DIPOLE MOMENT
-------------
                                X             Y             Z
Electronic contribution:    -11.97547      -3.92742       0.79918
Nuclear contribution   :     12.19621       4.32086      -0.66968
                        -----------------------------------------
Total Dipole Moment    :      0.22074       0.39344       0.12950
                        -----------------------------------------
Magnitude (a.u.)       :      0.46935
Magnitude (Debye)      :      1.19299

Rotational constants in cm-1:     0.032870     0.006473     0.005869
Rotational constants in MHz :   985.414262   194.066268   175.955089

                             ****ORCA TERMINATED NORMALLY****
TOTAL RUN TIME: 0 days 0 hours 50 minutes 42 seconds 514 msec
