                         Program Version 4.2.1 -  RELEASE  -
|  1> %pal
|  2>  nprocs 32
|  3> end
|  4> !RI-MP2 aug-cc-pVTZ aug-cc-pVTZ/C TightSCF
|  5> %maxcore 4500
|  6> *xyzfile 0 1  03_42R1.xyz
|  7>
|  8>
|  9>                          ****END OF INPUT****

CARTESIAN COORDINATES (ANGSTROEM)
---------------------------------
  O      2.978635    1.447167    0.592667
  C      2.730010    0.389124    0.138882
  C      1.385776   -0.191653   -0.183786
  C      0.241023    0.764244    0.123716
  H      1.306888   -1.129742    0.370676
  H      1.401687   -0.474722   -1.240778
  H      0.235043    0.992768    1.194005
  C     -1.129168    0.228435   -0.291783
  H      0.427266    1.712784   -0.386683
  C     -1.532767   -1.030759    0.482378
  H     -1.084578   -0.032758   -1.358954
  C     -2.196510    1.314033   -0.125470
  H     -2.209746    1.635760    0.923661
  C     -3.588232    0.824464   -0.519933
  H     -1.922623    2.193136   -0.716245
  C     -3.976474   -0.430606    0.258641
  H     -3.601386    0.601412   -1.593417
  H     -4.323944    1.616543   -0.357734
  C     -2.925101   -1.525188    0.091589
  H     -4.955756   -0.792302   -0.065769
  H     -4.071005   -0.180481    1.322047
  H     -2.909056   -1.852361   -0.954837
  H     -3.190079   -2.402585    0.687365
  H     -1.516544   -0.801314    1.555786
  H     -0.805555   -1.831583    0.323536
  Cl     4.078763   -0.757909   -0.252318

 Total Charge           Charge          ....    0
 Multiplicity           Mult            ....    1
 Number of Electrons    NEL             ....   94
 Basis Dimension        Dim             ....  855

ORBITAL ENERGIES
----------------

  NO   OCC          E(Eh)            E(eV)
   0   2.0000    -104.841391     -2852.8793
   1   2.0000     -20.591551      -560.3246
   2   2.0000     -11.404657      -310.3365
   3   2.0000     -11.263798      -306.5035
   4   2.0000     -11.235790      -305.7414
   5   2.0000     -11.234000      -305.6927
   6   2.0000     -11.224873      -305.4443
   7   2.0000     -11.222367      -305.3761
   8   2.0000     -11.222165      -305.3706
   9   2.0000     -11.220919      -305.3367
  10   2.0000     -11.220064      -305.3135
  11   2.0000     -10.565980      -287.5149
  12   2.0000      -8.032579      -218.5776
  13   2.0000      -8.030955      -218.5334
  14   2.0000      -8.030826      -218.5299
  15   2.0000      -1.451611       -39.5003
  16   2.0000      -1.141266       -31.0554
  17   2.0000      -1.125654       -30.6306
  18   2.0000      -1.077665       -29.3247
  19   2.0000      -1.013213       -27.5709
  20   2.0000      -1.009239       -27.4628
  21   2.0000      -0.904952       -24.6250
  22   2.0000      -0.840974       -22.8841
  23   2.0000      -0.808941       -22.0124
  24   2.0000      -0.765346       -20.8261
  25   2.0000      -0.759998       -20.6806
  26   2.0000      -0.683938       -18.6109
  27   2.0000      -0.667140       -18.1538
  28   2.0000      -0.658400       -17.9160
  29   2.0000      -0.646244       -17.5852
  30   2.0000      -0.611720       -16.6458
  31   2.0000      -0.607491       -16.5307
  32   2.0000      -0.604978       -16.4623
  33   2.0000      -0.572035       -15.5659
  34   2.0000      -0.554347       -15.0846
  35   2.0000      -0.533394       -14.5144
  36   2.0000      -0.525796       -14.3076
  37   2.0000      -0.519826       -14.1452
  38   2.0000      -0.498732       -13.5712
  39   2.0000      -0.489273       -13.3138
  40   2.0000      -0.479538       -13.0489
  41   2.0000      -0.463507       -12.6127
  42   2.0000      -0.461657       -12.5623
  43   2.0000      -0.459542       -12.5048
  44   2.0000      -0.447878       -12.1874
  45   2.0000      -0.433722       -11.8022
  46   2.0000      -0.428619       -11.6633
  47   0.0000       0.025546         0.6951
  48   0.0000       0.030462         0.8289
  49   0.0000       0.030697         0.8353
  50   0.0000       0.034813         0.9473
  51   0.0000       0.047338         1.2881

MULLIKEN ATOMIC CHARGES
-----------------------
   0 O :   -0.721707
   1 C :    0.551286
   2 C :   -0.249972
   3 C :   -0.548286
   4 H :    0.282226
   5 H :    0.208107
   6 H :    0.141020
   7 C :    0.699606
   8 H :    0.241803
   9 C :   -0.663346
  10 H :    0.464904
  11 C :   -0.799547
  12 H :    0.200864
  13 C :   -0.557198
  14 H :    0.305083
  15 C :   -0.487398
  16 H :    0.118859
  17 H :    0.327785
  18 C :   -0.584860
  19 H :    0.321773
  20 H :    0.126769
  21 H :    0.096527
  22 H :    0.329746
  23 H :    0.200505
  24 H :    0.326895
  25 Cl:   -0.331443
Sum of atomic charges:    0.0000000

LOEWDIN ATOMIC CHARGES
----------------------
   0 O :    0.413460
   1 C :   -1.082650
   2 C :    0.175369
   3 C :    0.277128
   4 H :   -0.178691
   5 H :   -0.158753
   6 H :   -0.130697
   7 C :   -0.010271
   8 H :   -0.140014
   9 C :    0.300446
  10 H :   -0.117446
  11 C :    0.299392
  12 H :   -0.128879
  13 C :    0.295647
  14 H :   -0.133599
  15 C :    0.289655
  16 H :   -0.137250
  17 H :   -0.138851
  18 C :    0.297347
  19 H :   -0.139929
  20 H :   -0.137883
  21 H :   -0.136350
  22 H :   -0.138534
  23 H :   -0.126752
  24 H :   -0.148134
  25 Cl:    0.836240

  Mayer bond orders larger than 0.100000
B(  0-O ,  1-C ) :   1.3437 B(  1-C ,  2-C ) :   0.6484 B(  1-C , 25-Cl) :   0.7839
B(  2-C ,  3-C ) :   0.9881 B(  2-C ,  4-H ) :   0.9565 B(  2-C ,  5-H ) :   0.9843
B(  3-C ,  5-H ) :   0.1069 B(  3-C ,  6-H ) :   1.0525 B(  3-C ,  7-C ) :   0.6871
B(  3-C ,  8-H ) :   0.9433 B(  3-C ,  9-C ) :   0.1013 B(  7-C ,  9-C ) :   0.6331
B(  7-C , 10-H ) :   0.7969 B(  7-C , 11-C ) :   0.7095 B(  9-C , 11-C ) :   0.2427
B(  9-C , 18-C ) :   0.9706 B(  9-C , 23-H ) :   1.0449 B(  9-C , 24-H ) :   0.9068
B( 11-C , 12-H ) :   1.0461 B( 11-C , 13-C ) :   1.0075 B( 11-C , 14-H ) :   0.9302
B( 13-C , 15-C ) :   0.8661 B( 13-C , 16-H ) :   1.0974 B( 13-C , 17-H ) :   0.9032
B( 15-C , 18-C ) :   0.8843 B( 15-C , 19-H ) :   0.9061 B( 15-C , 20-H ) :   1.0723
B( 18-C , 21-H ) :   1.1272 B( 18-C , 22-H ) :   0.8935

MP2 TOTAL ENERGY:     -886.087321025 Eh
FINAL SINGLE POINT ENERGY      -886.087321025227

DIPOLE MOMENT
-------------
                                X             Y             Z
Electronic contribution:     32.05814      -0.85881      -0.35599
Nuclear contribution   :    -33.36071       0.36554       0.07376
                        -----------------------------------------
Total Dipole Moment    :     -1.30257      -0.49326      -0.28222
                        -----------------------------------------
Magnitude (a.u.)       :      1.42114
Magnitude (Debye)      :      3.61226

Rotational constants in cm-1:     0.085434     0.011030     0.010141
Rotational constants in MHz :  2561.232976   330.671136   304.030601

                             ****ORCA TERMINATED NORMALLY****
TOTAL RUN TIME: 0 days 0 hours 11 minutes 8 seconds 150 msec
