                         Program Version 4.2.1 -  RELEASE  -
|  1> %pal
|  2>  nprocs 32
|  3> end
|  4> !RI-MP2 aug-cc-pVTZ aug-cc-pVTZ/C TightSCF
|  5> %maxcore 4500
|  6> *xyzfile 0 1  10_43P.xyz
|  7>
|  8>
|  9>                          ****END OF INPUT****

CARTESIAN COORDINATES (ANGSTROEM)
---------------------------------
  C     -0.288069   -2.561065    0.162216
  H     -0.459806   -3.176339   -0.744858
  C      0.985207   -1.791261   -0.001450
  C     -0.284057    0.310431   -0.229357
  H     -0.476904    0.879251    0.685973
  H     -0.194689    1.036861   -1.038633
  C     -1.481342   -0.600092   -0.499148
  H     -1.382892   -0.991827   -1.531078
  N     -1.425849   -1.710278    0.443635
  C      2.298408    0.263500   -0.140547
  C      2.270083   -2.569684    0.040912
  C      3.400277   -0.432402   -0.457251
  C      3.350625   -1.899124   -0.801327
  C      1.002524   -0.461104   -0.122892
  C      4.706944   -2.577430   -0.647279
  H      4.656392   -3.630653   -0.933197
  H      5.462182   -2.096211   -1.273302
  H      5.050090   -2.526704    0.389781
  C     -2.662995   -2.461191    0.519032
  H     -2.971917   -2.832473   -0.475778
  H     -2.495976   -3.335571    1.152015
  C     -2.791014    0.161608   -0.427355
  C     -3.861459   -0.291183    0.342909
  C     -3.748912   -1.582570    1.108621
  H     -3.503963   -1.374077    2.154545
  H     -4.708929   -2.105052    1.096468
  H     -0.170016   -3.267896    0.991731
  C     -5.040952    0.450613    0.378642
  H     -5.869551    0.089746    0.979030
  C     -2.939987    1.335339   -1.166786
  H     -2.124273    1.683501   -1.789332
  C     -5.172944    1.624363   -0.341883
  H     -6.097923    2.186935   -0.302533
  C     -4.114926    2.065650   -1.126690
  H     -4.206838    2.974964   -1.708327
  Si     2.468291    2.068890    0.382352
  C      1.877828    2.253319    2.156763
  H      2.461208    1.616223    2.825837
  H      1.985469    3.286453    2.498145
  H      0.827890    1.975401    2.269256
  C      4.278177    2.563843    0.290473
  H      4.670322    2.493624   -0.726878
  H      4.389666    3.602244    0.613793
  H      4.905723    1.948663    0.938907
  C      1.492639    3.240199   -0.722427
  H      1.679612    3.038572   -1.780116
  H      0.417153    3.175945   -0.550127
  H      1.794563    4.272521   -0.524597
  H      2.104822   -3.594455   -0.306084
  H      2.611642   -2.645973    1.084500
  H      3.042251   -1.975382   -1.855273
  H      4.373218    0.048638   -0.489292

 Total Charge           Charge          ....    0
 Multiplicity           Mult            ....    1
 Number of Electrons    NEL             ....  176
 Basis Dimension        Dim             .... 1729

ORBITAL ENERGIES
----------------

  NO   OCC          E(Eh)            E(eV)
   0   2.0000     -68.747802     -1870.7228
   1   2.0000     -15.545080      -423.0031
   2   2.0000     -11.258490      -306.3591
   3   2.0000     -11.251104      -306.1581
   4   2.0000     -11.247938      -306.0720
   5   2.0000     -11.233641      -305.6829
   6   2.0000     -11.232418      -305.6496
   7   2.0000     -11.228010      -305.5297
   8   2.0000     -11.227729      -305.5220
   9   2.0000     -11.227010      -305.5025
  10   2.0000     -11.225984      -305.4746
  11   2.0000     -11.225267      -305.4550
  12   2.0000     -11.224837      -305.4433
  13   2.0000     -11.222854      -305.3894
  14   2.0000     -11.221924      -305.3641
  15   2.0000     -11.221132      -305.3425
  16   2.0000     -11.219507      -305.2983
  17   2.0000     -11.218799      -305.2790
  18   2.0000     -11.214604      -305.1649
  19   2.0000     -11.205141      -304.9074
  20   2.0000     -11.191748      -304.5430
  21   2.0000     -11.191425      -304.5341
  22   2.0000     -11.188869      -304.4646
  23   2.0000      -6.094904      -165.8508
  24   2.0000      -4.201263      -114.3222
  25   2.0000      -4.201162      -114.3194
  26   2.0000      -4.201083      -114.3173
  27   2.0000      -1.252519       -34.0828
  28   2.0000      -1.155851       -31.4523
  29   2.0000      -1.139865       -31.0173
  30   2.0000      -1.077538       -29.3213
  31   2.0000      -1.056738       -28.7553
  32   2.0000      -1.040708       -28.3191
  33   2.0000      -1.016765       -27.6676
  34   2.0000      -0.993263       -27.0281
  35   2.0000      -0.970900       -26.4195
  36   2.0000      -0.957574       -26.0569
  37   2.0000      -0.928395       -25.2629
  38   2.0000      -0.918171       -24.9847
  39   2.0000      -0.916873       -24.9494
  40   2.0000      -0.877779       -23.8856
  41   2.0000      -0.858859       -23.3707
  42   2.0000      -0.840188       -22.8627
  43   2.0000      -0.814352       -22.1597
  44   2.0000      -0.808596       -22.0030
  45   2.0000      -0.762075       -20.7371
  46   2.0000      -0.742643       -20.2084
  47   2.0000      -0.692762       -18.8510
  48   2.0000      -0.674201       -18.3459
  49   2.0000      -0.665615       -18.1123
  50   2.0000      -0.648765       -17.6538
  51   2.0000      -0.643191       -17.5021
  52   2.0000      -0.635162       -17.2836
  53   2.0000      -0.623042       -16.9538
  54   2.0000      -0.615956       -16.7610
  55   2.0000      -0.599372       -16.3097
  56   2.0000      -0.591598       -16.0982
  57   2.0000      -0.586544       -15.9607
  58   2.0000      -0.578114       -15.7313
  59   2.0000      -0.576089       -15.6762
  60   2.0000      -0.563913       -15.3449
  61   2.0000      -0.557171       -15.1614
  62   2.0000      -0.556046       -15.1308
  63   2.0000      -0.549598       -14.9553
  64   2.0000      -0.542761       -14.7693
  65   2.0000      -0.538576       -14.6554
  66   2.0000      -0.535839       -14.5809
  67   2.0000      -0.532562       -14.4917
  68   2.0000      -0.527635       -14.3577
  69   2.0000      -0.525525       -14.3003
  70   2.0000      -0.521093       -14.1797
  71   2.0000      -0.519072       -14.1247
  72   2.0000      -0.511435       -13.9168
  73   2.0000      -0.497856       -13.5474
  74   2.0000      -0.492676       -13.4064
  75   2.0000      -0.486077       -13.2268
  76   2.0000      -0.477542       -12.9946
  77   2.0000      -0.472688       -12.8625
  78   2.0000      -0.455090       -12.3836
  79   2.0000      -0.435491       -11.8503
  80   2.0000      -0.429043       -11.6748
  81   2.0000      -0.421987       -11.4829
  82   2.0000      -0.405941       -11.0462
  83   2.0000      -0.387608       -10.5473
  84   2.0000      -0.359079        -9.7710
  85   2.0000      -0.326592        -8.8870
  86   2.0000      -0.319490        -8.6938
  87   2.0000      -0.292535        -7.9603
  88   0.0000       0.023275         0.6333
  89   0.0000       0.027641         0.7521
  90   0.0000       0.028106         0.7648
  91   0.0000       0.031311         0.8520
  92   0.0000       0.035653         0.9702

MULLIKEN ATOMIC CHARGES
-----------------------
   0 C :   -0.583681
   1 H :    0.171671
   2 C :    0.346943
   3 C :   -1.399034
   4 H :    0.536936
   5 H :    0.007596
   6 C :   -0.213053
   7 H :    0.129727
   8 N :   -0.461645
   9 C :    1.185895
  10 C :   -0.432945
  11 C :   -1.348723
  12 C :    0.101979
  13 C :    1.227705
  14 C :   -1.126527
  15 H :    0.245543
  16 H :    0.261906
  17 H :    0.251331
  18 C :   -0.688677
  19 H :    0.241388
  20 H :    0.366201
  21 C :    1.235234
  22 C :    1.046565
  23 C :   -0.549379
  24 H :    0.198819
  25 H :    0.228173
  26 H :    0.269773
  27 C :   -1.101909
  28 H :    0.009697
  29 C :   -0.980560
  30 H :    0.112458
  31 C :   -0.311574
  32 H :    0.695823
  33 C :   -0.622692
  34 H :    0.401640
  35 Si:    2.278650
  36 C :   -1.430115
  37 H :    0.260746
  38 H :    0.166955
  39 H :    0.420675
  40 C :   -1.762390
  41 H :    0.214440
  42 H :    0.041756
  43 H :    0.269844
  44 C :   -1.404044
  45 H :    0.275895
  46 H :    0.451793
  47 H :    0.011950
  48 H :    0.322675
  49 H :    0.233178
  50 H :    0.188307
  51 H :    0.007080
Sum of atomic charges:   -0.0000000

LOEWDIN ATOMIC CHARGES
----------------------
   0 C :    0.166502
   1 H :   -0.115903
   2 C :   -0.030082
   3 C :    0.286648
   4 H :   -0.137184
   5 H :   -0.179242
   6 C :   -0.105404
   7 H :   -0.102268
   8 N :    0.317086
   9 C :   -0.033693
  10 C :    0.292637
  11 C :    0.201947
  12 C :   -0.046359
  13 C :   -0.078028
  14 C :    0.589711
  15 H :   -0.160970
  16 H :   -0.164019
  17 H :   -0.159147
  18 C :    0.166255
  19 H :   -0.114615
  20 H :   -0.136523
  21 C :   -0.038627
  22 C :   -0.067483
  23 C :    0.300361
  24 H :   -0.131741
  25 H :   -0.143154
  26 H :   -0.132650
  27 C :    0.222121
  28 H :   -0.172869
  29 C :    0.227455
  30 H :   -0.179020
  31 C :    0.198583
  32 H :   -0.183231
  33 C :    0.204103
  34 H :   -0.182753
  35 Si:    0.502200
  36 C :    0.592079
  37 H :   -0.224456
  38 H :   -0.226157
  39 H :   -0.238647
  40 C :    0.572949
  41 H :   -0.224058
  42 H :   -0.226741
  43 H :   -0.225871
  44 C :    0.586564
  45 H :   -0.222042
  46 H :   -0.243193
  47 H :   -0.226859
  48 H :   -0.134397
  49 H :   -0.121502
  50 H :   -0.119385
  51 H :   -0.198929

  Mayer bond orders larger than 0.100000
B(  0-C ,  1-H ) :   1.3143 B(  0-C ,  2-C ) :  -0.1256 B(  0-C ,  8-N ) :   0.7669
B(  0-C ,  9-C ) :  -0.6912 B(  0-C , 11-C ) :   0.3030 B(  0-C , 13-C ) :   0.4042
B(  0-C , 20-H ) :  -0.1131 B(  0-C , 26-H ) :   1.1637 B(  0-C , 51-H ) :   0.1296
B(  1-H ,  2-C ) :  -0.1950 B(  1-H ,  8-N ) :  -0.1347 B(  2-C ,  5-H ) :  -0.1291
B(  2-C ,  6-C ) :   0.2876 B(  2-C ,  9-C ) :   1.1597 B(  2-C , 11-C ) :   0.4329
B(  2-C , 12-C ) :   0.1499 B(  2-C , 13-C ) :   1.9975 B(  2-C , 26-H ) :  -0.1814
B(  2-C , 35-Si) :  -0.3157 B(  2-C , 40-C ) :   0.1048 B(  2-C , 48-H ) :  -0.2035
B(  2-C , 49-H ) :  -0.1139 B(  2-C , 51-H ) :   0.1438 B(  3-C ,  4-H ) :   0.7139
B(  3-C ,  5-H ) :   1.4866 B(  3-C ,  6-C ) :   1.3267 B(  3-C ,  8-N ) :   0.6169
B(  3-C ,  9-C ) :   0.5633 B(  3-C , 10-C ) :  -0.1238 B(  3-C , 11-C ) :  -0.3750
B(  3-C , 13-C ) :   0.4490 B(  3-C , 21-C ) :   0.5165 B(  3-C , 22-C ) :  -0.1760
B(  3-C , 29-C ) :  -0.1741 B(  3-C , 35-Si) :   0.2207 B(  4-H ,  5-H ) :  -0.1052
B(  4-H , 21-C ) :  -0.2249 B(  4-H , 29-C ) :  -0.1209 B(  5-H ,  6-C ) :   0.1094
B(  5-H , 13-C ) :  -0.1332 B(  5-H , 29-C ) :   0.1088 B(  6-C ,  7-H ) :   0.9854
B(  6-C ,  8-N ) :   0.4682 B(  6-C , 21-C ) :   0.7495 B(  6-C , 22-C ) :   0.5561
B(  6-C , 23-C ) :  -0.1335 B(  6-C , 27-C ) :  -0.1524 B(  6-C , 29-C ) :   0.8520
B(  6-C , 30-H ) :  -0.1015 B(  8-N , 13-C ) :  -0.4113 B(  8-N , 18-C ) :   0.8770
B(  8-N , 21-C ) :  -0.1577 B(  8-N , 22-C ) :  -0.1359 B(  9-C , 11-C ) :   0.3248
B(  9-C , 13-C ) :   0.1743 B(  9-C , 35-Si) :   0.2303 B(  9-C , 36-C ) :   0.1123
B(  9-C , 40-C ) :  -0.1588 B(  9-C , 42-H ) :  -0.1545 B(  9-C , 43-H ) :   0.1138
B(  9-C , 44-C ) :   0.2643 B(  9-C , 51-H ) :  -0.4363 B( 10-C , 11-C ) :   0.3941
B( 10-C , 12-C ) :   0.9771 B( 10-C , 48-H ) :   0.9769 B( 10-C , 49-H ) :   1.1238
B( 11-C , 12-C ) :   0.8587 B( 11-C , 14-C ) :  -0.2366 B( 11-C , 35-Si) :   0.5483
B( 11-C , 40-C ) :   0.2455 B( 11-C , 51-H ) :   1.3792 B( 12-C , 13-C ) :   0.1408
B( 12-C , 14-C ) :   0.7715 B( 12-C , 50-H ) :   0.9602 B( 12-C , 51-H ) :  -0.1176
B( 13-C , 26-H ) :   0.1025 B( 13-C , 35-Si) :   0.4008 B( 13-C , 44-C ) :  -0.2223
B( 14-C , 15-H ) :   1.0380 B( 14-C , 16-H ) :   1.0118 B( 14-C , 17-H ) :   1.0465
B( 18-C , 19-H ) :   1.0485 B( 18-C , 20-H ) :   0.9038 B( 18-C , 23-C ) :   1.0536
B( 21-C , 22-C ) :   0.5129 B( 21-C , 23-C ) :   0.2195 B( 21-C , 27-C ) :   0.5880
B( 21-C , 28-H ) :   0.1015 B( 21-C , 29-C ) :  -0.1265 B( 21-C , 31-C ) :  -0.1742
B( 21-C , 32-H ) :   0.1057 B( 22-C , 24-H ) :  -0.1190 B( 22-C , 27-C ) :   0.3700
B( 22-C , 29-C ) :  -0.2270 B( 22-C , 31-C ) :   0.3050 B( 23-C , 24-H ) :   1.1331
B( 23-C , 25-H ) :   1.0974 B( 23-C , 27-C ) :   0.1488 B( 23-C , 29-C ) :  -0.1035
B( 27-C , 28-H ) :   1.6117 B( 27-C , 31-C ) :   0.9292 B( 27-C , 33-C ) :  -0.1192
B( 28-H , 31-C ) :  -0.1606 B( 29-C , 30-H ) :   1.3125 B( 29-C , 31-C ) :   0.2274
B( 29-C , 33-C ) :   1.3392 B( 31-C , 32-H ) :   0.3770 B( 31-C , 33-C ) :   1.0576
B( 33-C , 34-H ) :   0.8714 B( 35-Si, 36-C ) :   0.3127 B( 35-Si, 40-C ) :  -0.7875
B( 35-Si, 42-H ) :  -0.1963 B( 35-Si, 44-C ) :   0.3972 B( 35-Si, 46-H ) :   0.1032
B( 35-Si, 47-H ) :  -0.1067 B( 35-Si, 51-H ) :   0.3070 B( 36-C , 37-H ) :   1.0113
B( 36-C , 38-H ) :   1.1100 B( 36-C , 39-H ) :   0.8650 B( 36-C , 40-C ) :   0.1820
B( 36-C , 44-C ) :   0.2608 B( 40-C , 41-H ) :   1.1085 B( 40-C , 42-H ) :   1.3183
B( 40-C , 43-H ) :   1.0158 B( 40-C , 44-C ) :   0.1703 B( 44-C , 45-H ) :   1.0078
B( 44-C , 46-H ) :   0.8017 B( 44-C , 47-H ) :   1.2271

MP2 TOTAL ENERGY:    -1159.681598556 Eh
FINAL SINGLE POINT ENERGY     -1159.681598556245

DIPOLE MOMENT
-------------
                                X             Y             Z
Electronic contribution:    -15.86675      -1.07518      -1.81504
Nuclear contribution   :     15.94730       0.63471       1.66515
                        -----------------------------------------
Total Dipole Moment    :      0.08055      -0.44047      -0.14988
                        -----------------------------------------
Magnitude (a.u.)       :      0.47219
Magnitude (Debye)      :      1.20022

Rotational constants in cm-1:     0.012389     0.005249     0.004038
Rotational constants in MHz :   371.423897   157.359813   121.063175

                             ****ORCA TERMINATED NORMALLY****
TOTAL RUN TIME: 0 days 1 hours 57 minutes 46 seconds 203 msec
