                         Program Version 4.2.1 -  RELEASE  -
|  1> %pal
|  2>  nprocs 32
|  3> end
|  4> !RI-MP2 aug-cc-pVTZ aug-cc-pVTZ/C TightSCF
|  5> %maxcore 4500
|  6> *xyzfile 0 1  04_10P2.xyz
|  7>
|  8>
|  9>                          ****END OF INPUT****

CARTESIAN COORDINATES (ANGSTROEM)
---------------------------------
  N      0.095468   -1.118930    0.000000
  N     -0.249057    1.206146    0.000000
  N      0.000000    0.112115    0.000000
  H      1.075123   -1.395321    0.000000

 Total Charge           Charge          ....    0
 Multiplicity           Mult            ....    1
 Number of Electrons    NEL             ....   22
 Basis Dimension        Dim             ....  161

ORBITAL ENERGIES
----------------

  NO   OCC          E(Eh)            E(eV)
   0   2.0000     -15.793472      -429.7622
   1   2.0000     -15.675563      -426.5538
   2   2.0000     -15.611435      -424.8087
   3   2.0000      -1.518709       -41.3262
   4   2.0000      -1.292805       -35.1790
   5   2.0000      -0.827836       -22.5266
   6   2.0000      -0.712303       -19.3827
   7   2.0000      -0.708796       -19.2873
   8   2.0000      -0.673021       -18.3138
   9   2.0000      -0.471522       -12.8308
  10   2.0000      -0.404367       -11.0034
  11   0.0000       0.028587         0.7779
  12   0.0000       0.079041         2.1508
  13   0.0000       0.089424         2.4333
  14   0.0000       0.102871         2.7993
  15   0.0000       0.110100         2.9960

MULLIKEN ATOMIC CHARGES
-----------------------
   0 N :   -0.773744
   1 N :   -0.573215
   2 N :    1.094972
   3 H :    0.251987
Sum of atomic charges:    0.0000000

LOEWDIN ATOMIC CHARGES
----------------------
   0 N :    0.465508
   1 N :    0.273318
   2 N :   -0.276941
   3 H :   -0.461885

  Mayer bond orders larger than 0.100000
B(  0-N ,  1-N ) :   0.4181 B(  0-N ,  2-N ) :   0.9866 B(  0-N ,  3-H ) :   0.8736
B(  1-N ,  2-N ) :   1.7787

MP2 TOTAL ENERGY:     -164.527575601 Eh
FINAL SINGLE POINT ENERGY      -164.527575600898

DIPOLE MOMENT
-------------
                                X             Y             Z
Electronic contribution:     -0.37551       1.28241      -0.00000
Nuclear contribution   :      1.03150      -1.33870       0.00000
                        -----------------------------------------
Total Dipole Moment    :      0.65599      -0.05630      -0.00000
                        -----------------------------------------
Magnitude (a.u.)       :      0.65840
Magnitude (Debye)      :      1.67353

Rotational constants in cm-1:    20.582074     0.407937     0.400009
Rotational constants in MHz : 617035.044166 12229.655017 11991.973701

                             ****ORCA TERMINATED NORMALLY****
TOTAL RUN TIME: 0 days 0 hours 0 minutes 11 seconds 779 msec
