                         Program Version 4.2.1 -  RELEASE  -
|  1> %pal
|  2>  nprocs 32
|  3> end
|  4> !RI-MP2 aug-cc-pVTZ aug-cc-pVTZ/C TightSCF
|  5> %maxcore 4500
|  6> *xyzfile 1 1  10_14TS.xyz
|  7>
|  8>
|  9>                          ****END OF INPUT****

CARTESIAN COORDINATES (ANGSTROEM)
---------------------------------
  C      1.997595   -0.769859   -0.148105
  N      0.648090   -0.788404   -0.152068
  N     -0.100142    0.162264   -0.229425
  C     -1.489546    0.019540   -0.084929
  C     -2.235694    1.180981   -0.272573
  C     -2.100259   -1.196756    0.233463
  C     -3.612765    1.127390   -0.142262
  H     -1.731981    2.106745   -0.519093
  C     -3.472845   -1.235501    0.361226
  H     -1.499143   -2.085869    0.372632
  C     -4.226743   -0.076948    0.173840
  H     -4.206057    2.020617   -0.286383
  H     -3.965582   -2.167168    0.607138
  H     -5.303971   -0.118976    0.276385
  C      2.685350   -0.625230    1.206390
  C      2.668383   -1.553769   -1.231369
  H      2.228291   -1.352696   -2.207708
  H      3.734694   -1.332858   -1.249826
  H      2.554212   -2.618989   -1.009172
  C      2.619916    1.176760   -0.319751
  C      1.480290    1.925968   -0.280479
  H      3.134907    1.114886   -1.272814
  H      1.055512    2.343457   -1.183335
  H      1.058671    2.271366    0.656398
  C      3.370902    0.724573    0.934414
  H      1.945049   -0.557039    2.002318
  H      3.351396   -1.460819    1.421084
  H      3.267960    1.426659    1.760588
  H      4.432910    0.610769    0.723046

 Total Charge           Charge          ....    1
 Multiplicity           Mult            ....    1
 Number of Electrons    NEL             ....  100
 Basis Dimension        Dim             ....  989

ORBITAL ENERGIES
----------------

  NO   OCC          E(Eh)            E(eV)
   0   2.0000     -15.822712      -430.5579
   1   2.0000     -15.806009      -430.1034
   2   2.0000     -11.512677      -313.2759
   3   2.0000     -11.428906      -310.9963
   4   2.0000     -11.406653      -310.3908
   5   2.0000     -11.395384      -310.0842
   6   2.0000     -11.390389      -309.9482
   7   2.0000     -11.386933      -309.8542
   8   2.0000     -11.383797      -309.7689
   9   2.0000     -11.377149      -309.5880
  10   2.0000     -11.373501      -309.4887
  11   2.0000     -11.367101      -309.3145
  12   2.0000     -11.359179      -309.0990
  13   2.0000     -11.358277      -309.0744
  14   2.0000      -1.576458       -42.8976
  15   2.0000      -1.337408       -36.3927
  16   2.0000      -1.287260       -35.0281
  17   2.0000      -1.236006       -33.6334
  18   2.0000      -1.181314       -32.1452
  19   2.0000      -1.155224       -31.4352
  20   2.0000      -1.149285       -31.2736
  21   2.0000      -1.101852       -29.9829
  22   2.0000      -1.035165       -28.1683
  23   2.0000      -0.989707       -26.9313
  24   2.0000      -0.965651       -26.2767
  25   2.0000      -0.934759       -25.4361
  26   2.0000      -0.890019       -24.2187
  27   2.0000      -0.860517       -23.4159
  28   2.0000      -0.831563       -22.6280
  29   2.0000      -0.824001       -22.4222
  30   2.0000      -0.807869       -21.9832
  31   2.0000      -0.786688       -21.4069
  32   2.0000      -0.764380       -20.7998
  33   2.0000      -0.745494       -20.2859
  34   2.0000      -0.743767       -20.2389
  35   2.0000      -0.739736       -20.1292
  36   2.0000      -0.723913       -19.6987
  37   2.0000      -0.721943       -19.6451
  38   2.0000      -0.716683       -19.5019
  39   2.0000      -0.709111       -19.2959
  40   2.0000      -0.665842       -18.1185
  41   2.0000      -0.646872       -17.6023
  42   2.0000      -0.646121       -17.5818
  43   2.0000      -0.633062       -17.2265
  44   2.0000      -0.629506       -17.1297
  45   2.0000      -0.613296       -16.6886
  46   2.0000      -0.560349       -15.2479
  47   2.0000      -0.516595       -14.0573
  48   2.0000      -0.469630       -12.7793
  49   2.0000      -0.466309       -12.6889
  50   0.0000      -0.101020        -2.7489
  51   0.0000      -0.085584        -2.3289
  52   0.0000      -0.064401        -1.7524
  53   0.0000      -0.055831        -1.5192
  54   0.0000      -0.053794        -1.4638

MULLIKEN ATOMIC CHARGES
-----------------------
   0 C :    0.955058
   1 N :   -1.525437
   2 N :    0.820677
   3 C :    0.912991
   4 C :   -0.557401
   5 C :   -0.278396
   6 C :   -0.796760
   7 H :    0.559365
   8 C :   -0.883235
   9 H :    0.524426
  10 C :   -0.349823
  11 H :    0.394260
  12 H :    0.478965
  13 H :    0.496129
  14 C :   -0.729834
  15 C :   -0.913042
  16 H :    0.280591
  17 H :    0.328674
  18 H :    0.316288
  19 C :   -0.333903
  20 C :   -0.821722
  21 H :    0.535814
  22 H :    0.435334
  23 H :    0.554301
  24 C :   -0.624195
  25 H :    0.245468
  26 H :    0.399264
  27 H :    0.359708
  28 H :    0.216435
Sum of atomic charges:    1.0000000

LOEWDIN ATOMIC CHARGES
----------------------
   0 C :   -0.254181
   1 N :    0.298022
   2 N :    0.279991
   3 C :   -0.262058
   4 C :    0.216600
   5 C :    0.230225
   6 C :    0.230451
   7 H :   -0.169677
   8 C :    0.231082
   9 H :   -0.173982
  10 C :    0.237777
  11 H :   -0.169678
  12 H :   -0.168728
  13 H :   -0.161768
  14 C :    0.359786
  15 C :    0.644430
  16 H :   -0.139187
  17 H :   -0.145596
  18 H :   -0.131923
  19 C :    0.161046
  20 C :    0.550654
  21 H :   -0.157973
  22 H :   -0.158599
  23 H :   -0.154992
  24 C :    0.327065
  25 H :   -0.132592
  26 H :   -0.121752
  27 H :   -0.132457
  28 H :   -0.131985

  Mayer bond orders larger than 0.100000
B(  0-C ,  1-N ) :   1.0476 B(  0-C ,  3-C ) :   0.1143 B(  0-C , 14-C ) :   0.7744
B(  0-C , 15-C ) :   0.3622 B(  0-C , 19-C ) :   0.4594 B(  0-C , 20-C ) :   0.2357
B(  0-C , 24-C ) :  -0.1227 B(  1-N ,  2-N ) :  -0.2874 B(  1-N ,  3-C ) :   0.5376
B(  1-N ,  4-C ) :   0.1258 B(  1-N ,  5-C ) :   0.2774 B(  1-N ,  9-H ) :  -0.2602
B(  1-N , 15-C ) :  -0.1076 B(  2-N ,  4-C ) :  -0.3902 B(  2-N ,  5-C ) :  -0.7928
B(  2-N ,  6-C ) :   0.1281 B(  2-N ,  9-H ) :   0.1822 B(  3-C ,  4-C ) :   0.6196
B(  3-C ,  5-C ) :   0.7376 B(  3-C ,  6-C ) :  -0.3157 B(  3-C ,  8-C ) :  -0.1934
B(  3-C , 10-C ) :  -0.1326 B(  4-C ,  6-C ) :   1.3335 B(  4-C ,  7-H ) :   0.5685
B(  4-C , 10-C ) :   0.1944 B(  5-C ,  8-C ) :   1.2323 B(  5-C ,  9-H ) :   0.7732
B(  5-C , 10-C ) :   0.1081 B(  6-C , 10-C ) :   1.1711 B(  6-C , 11-H ) :   0.9116
B(  8-C , 10-C ) :   1.1482 B(  8-C , 12-H ) :   0.7655 B( 10-C , 13-H ) :   0.7619
B( 14-C , 24-C ) :   1.2130 B( 14-C , 25-H ) :   0.9645 B( 14-C , 26-H ) :   0.8108
B( 15-C , 16-H ) :   1.0291 B( 15-C , 17-H ) :   0.9657 B( 15-C , 18-H ) :   0.9841
B( 19-C , 20-C ) :   1.3894 B( 19-C , 21-H ) :   0.5901 B( 19-C , 24-C ) :   1.1447
B( 20-C , 22-H ) :   0.8031 B( 20-C , 23-H ) :   0.6404 B( 21-H , 24-C ) :  -0.1280
B( 24-C , 27-H ) :   0.8194 B( 24-C , 28-H ) :   1.0541

MP2 TOTAL ENERGY:     -574.272254048 Eh
FINAL SINGLE POINT ENERGY      -574.272254047892

DIPOLE MOMENT
-------------
                                X             Y             Z
Electronic contribution:     -8.63191      -0.13352      -0.16168
Nuclear contribution   :     10.19005       0.19895       0.09017
                        -----------------------------------------
Total Dipole Moment    :      1.55814       0.06542      -0.07151
                        -----------------------------------------
Magnitude (a.u.)       :      1.56115
Magnitude (Debye)      :      3.96814

Rotational constants in cm-1:     0.055219     0.012462     0.011181
Rotational constants in MHz :  1655.425961   373.614460   335.204743

                             ****ORCA TERMINATED NORMALLY****
TOTAL RUN TIME: 0 days 0 hours 20 minutes 54 seconds 698 msec
