                         Program Version 4.2.1 -  RELEASE  -
|  1> %pal
|  2>  nprocs 32
|  3> end
|  4> !RI-MP2 aug-cc-pVTZ aug-cc-pVTZ/C TightSCF
|  5> %maxcore 4500
|  6> *xyzfile 1 1  05_39P1.xyz
|  7>
|  8>
|  9>                          ****END OF INPUT****

CARTESIAN COORDINATES (ANGSTROEM)
---------------------------------
  C     -0.186931   -0.517847    0.000057
  C      1.191655   -0.209312    0.000022
  C      1.649863    1.123321   -0.000124
  C      2.105858   -1.278997    0.000139
  C      3.002827    1.368628   -0.000151
  H      0.934966    1.935806   -0.000213
  C      3.460420   -1.019301    0.000110
  H      1.744054   -2.300907    0.000251
  C      3.902716    0.299939   -0.000035
  H      3.372571    2.385488   -0.000263
  H      4.173419   -1.832858    0.000199
  O     -1.075449    0.375587   -0.000039
  C     -2.575791    0.032940   -0.000002
  H      4.966905    0.503392   -0.000057
  C     -2.856135   -0.744689   -1.269137
  H     -2.372713   -1.723401   -1.276731
  H     -3.930851   -0.917904   -1.338596
  H     -2.548485   -0.182870   -2.151709
  C     -3.211845    1.404159   -0.000137
  H     -2.925425    1.967945    0.887786
  H     -2.925424    1.967771   -0.888171
  H     -4.296934    1.293928   -0.000127
  C     -2.856132   -0.744438    1.269287
  H     -2.372714   -1.723151    1.277071
  H     -2.548475   -0.182447    2.151746
  H     -3.930848   -0.917635    1.338786
  H     -0.495481   -1.564274    0.000170

 Total Charge           Charge          ....    1
 Multiplicity           Mult            ....    1
 Number of Electrons    NEL             ....   88
 Basis Dimension        Dim             ....  897

ORBITAL ENERGIES
----------------

  NO   OCC          E(Eh)            E(eV)
   0   2.0000     -20.795670      -565.8790
   1   2.0000     -11.542404      -314.0848
   2   2.0000     -11.466539      -312.0204
   3   2.0000     -11.414427      -310.6023
   4   2.0000     -11.407365      -310.4102
   5   2.0000     -11.405248      -310.3526
   6   2.0000     -11.404738      -310.3387
   7   2.0000     -11.381399      -309.7036
   8   2.0000     -11.381092      -309.6953
   9   2.0000     -11.365678      -309.2758
  10   2.0000     -11.365664      -309.2755
  11   2.0000     -11.353876      -308.9547
  12   2.0000      -1.634799       -44.4851
  13   2.0000      -1.327391       -36.1201
  14   2.0000      -1.263141       -34.3718
  15   2.0000      -1.208498       -32.8849
  16   2.0000      -1.181005       -32.1368
  17   2.0000      -1.101251       -29.9666
  18   2.0000      -1.097908       -29.8756
  19   2.0000      -1.072956       -29.1966
  20   2.0000      -0.999669       -27.2024
  21   2.0000      -0.977553       -26.6006
  22   2.0000      -0.939990       -25.5784
  23   2.0000      -0.886888       -24.1335
  24   2.0000      -0.847639       -23.0654
  25   2.0000      -0.828058       -22.5326
  26   2.0000      -0.810604       -22.0577
  27   2.0000      -0.782713       -21.2987
  28   2.0000      -0.770756       -20.9733
  29   2.0000      -0.750748       -20.4289
  30   2.0000      -0.747648       -20.3445
  31   2.0000      -0.740429       -20.1481
  32   2.0000      -0.728299       -19.8180
  33   2.0000      -0.684541       -18.6273
  34   2.0000      -0.683014       -18.5858
  35   2.0000      -0.674012       -18.3408
  36   2.0000      -0.665977       -18.1222
  37   2.0000      -0.659670       -17.9505
  38   2.0000      -0.658949       -17.9309
  39   2.0000      -0.651144       -17.7185
  40   2.0000      -0.629838       -17.1388
  41   2.0000      -0.628986       -17.1156
  42   2.0000      -0.507703       -13.8153
  43   2.0000      -0.495279       -13.4772
  44   0.0000      -0.125713        -3.4208
  45   0.0000      -0.070734        -1.9248
  46   0.0000      -0.057499        -1.5646
  47   0.0000      -0.052759        -1.4356
  48   0.0000      -0.052673        -1.4333

MULLIKEN ATOMIC CHARGES
-----------------------
   0 C :    0.076548
   1 C :    2.289783
   2 C :   -0.598475
   3 C :   -0.881383
   4 C :   -1.030260
   5 H :    0.087957
   6 C :   -0.760827
   7 H :   -0.234559
   8 C :   -0.000436
   9 H :    0.639575
  10 H :    0.709093
  11 O :   -0.735537
  12 C :    1.657092
  13 H :    0.329763
  14 C :   -1.137649
  15 H :    0.323390
  16 H :    0.274814
  17 H :    0.292411
  18 C :   -1.284873
  19 H :    0.254681
  20 H :    0.254687
  21 H :    0.279183
  22 C :   -1.137642
  23 H :    0.323388
  24 H :    0.292406
  25 H :    0.274817
  26 H :    0.442056
Sum of atomic charges:    1.0000000

LOEWDIN ATOMIC CHARGES
----------------------
   0 C :    0.027071
   1 C :   -0.103670
   2 C :    0.255283
   3 C :    0.243001
   4 C :    0.254238
   5 H :   -0.156487
   6 C :    0.253203
   7 H :   -0.153630
   8 C :    0.263561
   9 H :   -0.165300
  10 H :   -0.166079
  11 O :    0.682464
  12 C :   -0.473101
  13 H :   -0.148592
  14 C :    0.614904
  15 H :   -0.159231
  16 H :   -0.137027
  17 H :   -0.142713
  18 C :    0.610071
  19 H :   -0.148000
  20 H :   -0.148000
  21 H :   -0.141533
  22 C :    0.614904
  23 H :   -0.159231
  24 H :   -0.142714
  25 H :   -0.137027
  26 H :   -0.136363

  Mayer bond orders larger than 0.100000
B(  0-C ,  2-C ) :   0.3997 B(  0-C ,  3-C ) :   0.2932 B(  0-C ,  5-H ) :  -0.2017
B(  0-C ,  6-C ) :   0.2891 B(  0-C ,  7-H ) :  -0.6641 B(  0-C ,  8-C ) :   0.1797
B(  0-C ,  9-H ) :   0.2609 B(  0-C , 10-H ) :   0.3053 B(  0-C , 11-O ) :   1.6722
B(  0-C , 12-C ) :  -0.2586 B(  0-C , 13-H ) :  -0.1625 B(  0-C , 26-H ) :   0.7889
B(  1-C ,  2-C ) :   0.1596 B(  1-C ,  5-H ) :  -0.4923 B(  1-C ,  7-H ) :  -0.2630
B(  1-C , 11-O ) :  -0.5083 B(  1-C , 26-H ) :  -0.1266 B(  2-C ,  3-C ) :  -0.5788
B(  2-C ,  4-C ) :   1.3018 B(  2-C ,  5-H ) :   1.6367 B(  2-C ,  7-H ) :   0.3032
B(  2-C ,  8-C ) :  -0.1393 B(  2-C , 13-H ) :   0.1197 B(  3-C ,  4-C ) :   0.1182
B(  3-C ,  5-H ) :   0.3300 B(  3-C ,  6-C ) :   1.2372 B(  3-C ,  7-H ) :   2.3574
B(  3-C ,  8-C ) :  -0.2585 B(  3-C ,  9-H ) :  -0.1484 B(  3-C , 10-H ) :  -0.1793
B(  3-C , 13-H ) :   0.2482 B(  4-C ,  6-C ) :   0.3244 B(  4-C ,  8-C ) :   0.9927
B(  4-C ,  9-H ) :   0.3989 B(  4-C , 13-H ) :  -0.1746 B(  5-H ,  6-C ) :  -0.1194
B(  5-H ,  7-H ) :   0.2456 B(  5-H , 10-H ) :  -0.1172 B(  5-H , 13-H ) :   0.1014
B(  6-C ,  7-H ) :  -0.1458 B(  6-C ,  8-C ) :   1.0570 B(  6-C , 10-H ) :   0.3574
B(  6-C , 13-H ) :  -0.1653 B(  7-H ,  9-H ) :  -0.1418 B(  7-H , 10-H ) :  -0.1111
B(  7-H , 13-H ) :   0.1094 B(  7-H , 26-H ) :  -0.1172 B(  8-C , 13-H ) :   0.9856
B( 12-C , 14-C ) :   0.6158 B( 12-C , 18-C ) :   0.4714 B( 12-C , 22-C ) :   0.6158
B( 14-C , 15-H ) :   0.9476 B( 14-C , 16-H ) :   1.0050 B( 14-C , 17-H ) :   0.9827
B( 14-C , 22-C ) :   0.1074 B( 18-C , 19-H ) :   1.0607 B( 18-C , 20-H ) :   1.0607
B( 18-C , 21-H ) :   1.0357 B( 22-C , 23-H ) :   0.9476 B( 22-C , 24-H ) :   0.9827
B( 22-C , 25-H ) :   1.0050

MP2 TOTAL ENERGY:     -502.142775136 Eh
FINAL SINGLE POINT ENERGY      -502.142775135553

DIPOLE MOMENT
-------------
                                X             Y             Z
Electronic contribution:     13.28050       0.73137      -0.00008
Nuclear contribution   :    -13.48778      -1.31597       0.00014
                        -----------------------------------------
Total Dipole Moment    :     -0.20727      -0.58460       0.00006
                        -----------------------------------------
Magnitude (a.u.)       :      0.62025
Magnitude (Debye)      :      1.57656

Rotational constants in cm-1:     0.080816     0.014513     0.013410
Rotational constants in MHz :  2422.805460   435.080626   402.011055

                             ****ORCA TERMINATED NORMALLY****
TOTAL RUN TIME: 0 days 0 hours 11 minutes 45 seconds 333 msec
