                         Program Version 4.2.1 -  RELEASE  -
|  1> %pal
|  2>  nprocs 32
|  3> end
|  4> !RI-MP2 aug-cc-pVTZ aug-cc-pVTZ/C TightSCF
|  5> %maxcore 4500
|  6> *xyzfile 0 1  04_70R1.xyz
|  7>
|  8>
|  9>                          ****END OF INPUT****

CARTESIAN COORDINATES (ANGSTROEM)
---------------------------------
  C     -3.399985   -1.252621   -0.000137
  H     -3.173227   -1.852276   -0.887500
  H     -4.466861   -1.043790   -0.000301
  N     -2.671396    0.000000   -0.000017
  C     -1.305559    0.000000   -0.000009
  C     -0.576286   -1.208731   -0.000022
  C     -0.576286    1.208730    0.000013
  C      0.800991   -1.205486   -0.000015
  H     -1.091283   -2.157351   -0.000026
  C      0.800991    1.205486    0.000018
  H     -1.091283    2.157351    0.000016
  C      1.486844    0.000000    0.000004
  H      1.358055   -2.131769   -0.000019
  H      1.358055    2.131769    0.000028
  H     -3.173494   -1.852316    0.887270
  C     -3.399985    1.252621    0.000129
  N      2.941848    0.000000    0.000011
  O      3.513507   -1.077405    0.000038
  O      3.513506    1.077405   -0.000016
  H     -4.466861    1.043791    0.000260
  H     -3.173474    1.852343   -0.887255
  H     -3.173246    1.852249    0.887514

 Total Charge           Charge          ....    0
 Multiplicity           Mult            ....    1
 Number of Electrons    NEL             ....   88
 Basis Dimension        Dim             ....  782

ORBITAL ENERGIES
----------------

  NO   OCC          E(Eh)            E(eV)
   0   2.0000     -20.582817      -560.0869
   1   2.0000     -20.582765      -560.0855
   2   2.0000     -15.837349      -430.9562
   3   2.0000     -15.599010      -424.4707
   4   2.0000     -11.312438      -307.8271
   5   2.0000     -11.280488      -306.9577
   6   2.0000     -11.279046      -306.9185
   7   2.0000     -11.279027      -306.9179
   8   2.0000     -11.266241      -306.5700
   9   2.0000     -11.266171      -306.5681
  10   2.0000     -11.243797      -305.9593
  11   2.0000     -11.243781      -305.9588
  12   2.0000      -1.594272       -43.3824
  13   2.0000      -1.384603       -37.6770
  14   2.0000      -1.290779       -35.1239
  15   2.0000      -1.181067       -32.1385
  16   2.0000      -1.075875       -29.2760
  17   2.0000      -1.047786       -28.5117
  18   2.0000      -0.995732       -27.0952
  19   2.0000      -0.971733       -26.4422
  20   2.0000      -0.886436       -24.1212
  21   2.0000      -0.854641       -23.2560
  22   2.0000      -0.800553       -21.7842
  23   2.0000      -0.770695       -20.9717
  24   2.0000      -0.719513       -19.5789
  25   2.0000      -0.716637       -19.5007
  26   2.0000      -0.707445       -19.2506
  27   2.0000      -0.676180       -18.3998
  28   2.0000      -0.664374       -18.0785
  29   2.0000      -0.648480       -17.6460
  30   2.0000      -0.616585       -16.7781
  31   2.0000      -0.603892       -16.4327
  32   2.0000      -0.598145       -16.2764
  33   2.0000      -0.585993       -15.9457
  34   2.0000      -0.563800       -15.3418
  35   2.0000      -0.555601       -15.1187
  36   2.0000      -0.532331       -14.4855
  37   2.0000      -0.508058       -13.8250
  38   2.0000      -0.481487       -13.1019
  39   2.0000      -0.476918       -12.9776
  40   2.0000      -0.441605       -12.0167
  41   2.0000      -0.438651       -11.9363
  42   2.0000      -0.366117        -9.9625
  43   2.0000      -0.309883        -8.4324
  44   0.0000       0.017446         0.4747
  45   0.0000       0.026891         0.7317
  46   0.0000       0.033053         0.8994
  47   0.0000       0.035321         0.9611
  48   0.0000       0.043929         1.1954

MULLIKEN ATOMIC CHARGES
-----------------------
   0 C :   -1.163099
   1 H :    0.325609
   2 H :    0.406652
   3 N :   -0.222570
   4 C :    1.159303
   5 C :   -0.333215
   6 C :   -0.333153
   7 C :   -0.652924
   8 H :    0.130618
   9 C :   -0.652954
  10 H :    0.130561
  11 C :    0.726140
  12 H :    0.512633
  13 H :    0.512627
  14 H :    0.325665
  15 C :   -1.163128
  16 N :    0.625785
  17 O :   -0.696239
  18 O :   -0.696244
  19 H :    0.406653
  20 H :    0.325668
  21 H :    0.325612
Sum of atomic charges:    0.0000000

LOEWDIN ATOMIC CHARGES
----------------------
   0 C :    0.487838
   1 H :   -0.152364
   2 H :   -0.173562
   3 N :    0.255242
   4 C :   -0.202596
   5 C :    0.243385
   6 C :    0.243384
   7 C :    0.210778
   8 H :   -0.206585
   9 C :    0.210778
  10 H :   -0.206584
  11 C :   -0.232046
  12 H :   -0.185504
  13 H :   -0.185504
  14 H :   -0.152349
  15 C :    0.487839
  16 N :   -0.736176
  17 O :    0.386151
  18 O :    0.386151
  19 H :   -0.173562
  20 H :   -0.152351
  21 H :   -0.152363

  Mayer bond orders larger than 0.100000
B(  0-C ,  1-H ) :   0.9749 B(  0-C ,  2-H ) :   0.8643 B(  0-C ,  3-N ) :   1.0866
B(  0-C ,  5-C ) :  -0.2384 B(  0-C , 14-H ) :   0.9748 B(  3-N ,  4-C ) :   0.6606
B(  3-N ,  5-C ) :  -0.5063 B(  3-N ,  6-C ) :  -0.5062 B(  3-N , 15-C ) :   1.0866
B(  4-C ,  5-C ) :   0.7965 B(  4-C ,  6-C ) :   0.7964 B(  4-C ,  8-H ) :  -0.1463
B(  4-C , 10-H ) :  -0.1463 B(  4-C , 11-C ) :   0.2170 B(  5-C ,  7-C ) :   1.3067
B(  5-C ,  8-H ) :   1.2667 B(  6-C ,  9-C ) :   1.3066 B(  6-C , 10-H ) :   1.2667
B(  6-C , 15-C ) :  -0.2384 B(  7-C , 11-C ) :   0.6119 B(  7-C , 12-H ) :   0.6635
B(  7-C , 16-N ) :  -0.1610 B(  9-C , 11-C ) :   0.6119 B(  9-C , 13-H ) :   0.6635
B(  9-C , 16-N ) :  -0.1610 B( 11-C , 16-N ) :   1.2825 B( 11-C , 17-O ) :   0.4138
B( 11-C , 18-O ) :   0.4139 B( 15-C , 19-H ) :   0.8643 B( 15-C , 20-H ) :   0.9748
B( 15-C , 21-H ) :   0.9749 B( 16-N , 17-O ) :   0.9978 B( 16-N , 18-O ) :   0.9978

MP2 TOTAL ENERGY:     -569.685485783 Eh
FINAL SINGLE POINT ENERGY      -569.685485782932

DIPOLE MOMENT
-------------
                                X             Y             Z
Electronic contribution:     17.66039      -0.00000       0.00001
Nuclear contribution   :    -20.86642       0.00000      -0.00001
                        -----------------------------------------
Total Dipole Moment    :     -3.20602       0.00000      -0.00000
                        -----------------------------------------
Magnitude (a.u.)       :      3.20602
Magnitude (Debye)      :      8.14907

Rotational constants in cm-1:     0.092325     0.016027     0.013727
Rotational constants in MHz :  2767.831329   480.489386   411.532748

                             ****ORCA TERMINATED NORMALLY****
TOTAL RUN TIME: 0 days 0 hours 8 minutes 18 seconds 962 msec
