                         Program Version 4.2.1 -  RELEASE  -
|  1> %pal
|  2>  nprocs 32
|  3> end
|  4> !RI-MP2 aug-cc-pVTZ aug-cc-pVTZ/C TightSCF
|  5> %maxcore 4500
|  6> *xyzfile 0 1  10_8P.xyz
|  7>
|  8>
|  9>                          ****END OF INPUT****

CARTESIAN COORDINATES (ANGSTROEM)
---------------------------------
  C      1.702747    0.482681   -0.042240
  C      1.918772   -0.785728    0.514928
  C      3.065621   -1.481922    0.119810
  C      3.990988   -0.953271   -0.759981
  C      3.789132    0.318125   -1.278541
  C      2.652515    1.015982   -0.922138
  H      3.238267   -2.468486    0.536413
  H      4.866312   -1.528912   -1.036004
  H      4.504749    0.756730   -1.963012
  H      2.470607    2.003798   -1.325794
  C      0.513457    1.326194    0.180563
  C     -0.820445    1.022387    0.018237
  C     -1.479899   -0.260104   -0.239430
  C     -2.306330   -0.441581   -1.347018
  C     -1.242488   -1.319501    0.642483
  C     -2.896768   -1.670566   -1.589329
  H     -2.467559    0.381570   -2.033001
  C     -1.841398   -2.548588    0.382833
  C     -2.660041   -2.728332   -0.721377
  H     -3.532412   -1.805456   -2.455657
  H     -1.669018   -3.374413    1.064525
  H     -3.116956   -3.693474   -0.903848
  C     -0.361348   -1.128718    1.847579
  H     -3.424234    1.704828    0.647103
  C     -2.870704    2.505317    0.158967
  N     -1.453408    2.208575    0.193354
  H     -3.018929    3.441062    0.692036
  H     -3.222082    2.614030   -0.867553
  N     -0.570735    3.184702    0.435090
  N      0.611650    2.662009    0.419661
  H     -0.455785   -0.108912    2.220322
  H     -0.713968   -1.785066    2.647203
  C      1.113343   -1.467242    1.610644
  H      1.182677   -2.543518    1.430892
  H      1.642846   -1.291583    2.553709

 Total Charge           Charge          ....    0
 Multiplicity           Mult            ....    1
 Number of Electrons    NEL             ....  138
 Basis Dimension        Dim             .... 1265

ORBITAL ENERGIES
----------------

  NO   OCC          E(Eh)            E(eV)
   0   2.0000     -15.655342      -426.0035
   1   2.0000     -15.629134      -425.2903
   2   2.0000     -15.585619      -424.1062
   3   2.0000     -11.282609      -307.0154
   4   2.0000     -11.278785      -306.9113
   5   2.0000     -11.257577      -306.3342
   6   2.0000     -11.253874      -306.2335
   7   2.0000     -11.251696      -306.1742
   8   2.0000     -11.250408      -306.1392
   9   2.0000     -11.247530      -306.0608
  10   2.0000     -11.244425      -305.9764
  11   2.0000     -11.243663      -305.9556
  12   2.0000     -11.242431      -305.9221
  13   2.0000     -11.241883      -305.9072
  14   2.0000     -11.237550      -305.7893
  15   2.0000     -11.236178      -305.7520
  16   2.0000     -11.229412      -305.5678
  17   2.0000     -11.226460      -305.4875
  18   2.0000     -11.225426      -305.4594
  19   2.0000     -11.224414      -305.4318
  20   2.0000      -1.438961       -39.1561
  21   2.0000      -1.221665       -33.2432
  22   2.0000      -1.184026       -32.2190
  23   2.0000      -1.158495       -31.5242
  24   2.0000      -1.103041       -30.0153
  25   2.0000      -1.085303       -29.5326
  26   2.0000      -1.039873       -28.2964
  27   2.0000      -1.034276       -28.1441
  28   2.0000      -1.008416       -27.4404
  29   2.0000      -0.985274       -26.8107
  30   2.0000      -0.975669       -26.5493
  31   2.0000      -0.897157       -24.4129
  32   2.0000      -0.863487       -23.4967
  33   2.0000      -0.847245       -23.0547
  34   2.0000      -0.820977       -22.3399
  35   2.0000      -0.811143       -22.0723
  36   2.0000      -0.792044       -21.5526
  37   2.0000      -0.764106       -20.7924
  38   2.0000      -0.725319       -19.7369
  39   2.0000      -0.689584       -18.7645
  40   2.0000      -0.681703       -18.5501
  41   2.0000      -0.674638       -18.3578
  42   2.0000      -0.657189       -17.8830
  43   2.0000      -0.642648       -17.4873
  44   2.0000      -0.634365       -17.2620
  45   2.0000      -0.625133       -17.0107
  46   2.0000      -0.611110       -16.6291
  47   2.0000      -0.599734       -16.3196
  48   2.0000      -0.595328       -16.1997
  49   2.0000      -0.582573       -15.8526
  50   2.0000      -0.577491       -15.7143
  51   2.0000      -0.574255       -15.6263
  52   2.0000      -0.563394       -15.3307
  53   2.0000      -0.551081       -14.9957
  54   2.0000      -0.528833       -14.3903
  55   2.0000      -0.514875       -14.0105
  56   2.0000      -0.506934       -13.7944
  57   2.0000      -0.503021       -13.6879
  58   2.0000      -0.496353       -13.5065
  59   2.0000      -0.486306       -13.2331
  60   2.0000      -0.479333       -13.0433
  61   2.0000      -0.474612       -12.9148
  62   2.0000      -0.433364       -11.7924
  63   2.0000      -0.402193       -10.9442
  64   2.0000      -0.378662       -10.3039
  65   2.0000      -0.347210        -9.4481
  66   2.0000      -0.338882        -9.2214
  67   2.0000      -0.325174        -8.8484
  68   2.0000      -0.302262        -8.2250
  69   0.0000       0.021527         0.5858
  70   0.0000       0.026362         0.7173
  71   0.0000       0.031040         0.8446
  72   0.0000       0.032037         0.8718
  73   0.0000       0.039985         1.0881

MULLIKEN ATOMIC CHARGES
-----------------------
   0 C :    1.089557
   1 C :    1.109158
   2 C :   -1.192757
   3 C :   -0.335210
   4 C :   -0.366968
   5 C :   -1.079969
   6 H :    0.011718
   7 H :    0.545037
   8 H :    0.466691
   9 H :   -0.125333
  10 C :    1.371473
  11 C :   -1.036893
  12 C :    1.850599
  13 C :   -1.323827
  14 C :    0.665702
  15 C :   -0.436401
  16 H :   -0.137491
  17 C :   -1.293316
  18 C :   -0.173863
  19 H :    0.529164
  20 H :    0.087397
  21 H :    0.647548
  22 C :   -0.548500
  23 H :    0.454971
  24 C :   -1.118080
  25 N :    0.801991
  26 H :    0.335125
  27 H :    0.372136
  28 N :   -0.975082
  29 N :   -0.661990
  30 H :    0.111232
  31 H :    0.323545
  32 C :   -0.415009
  33 H :    0.154688
  34 H :    0.292957
Sum of atomic charges:    0.0000000

LOEWDIN ATOMIC CHARGES
----------------------
   0 C :   -0.077151
   1 C :   -0.048942
   2 C :    0.211136
   3 C :    0.203075
   4 C :    0.205675
   5 C :    0.212297
   6 H :   -0.177290
   7 H :   -0.180247
   8 H :   -0.181661
   9 H :   -0.180364
  10 C :   -0.303717
  11 C :   -0.211147
  12 C :   -0.076879
  13 C :    0.224329
  14 C :   -0.073197
  15 C :    0.210498
  16 H :   -0.169625
  17 C :    0.234970
  18 C :    0.211228
  19 H :   -0.180738
  20 H :   -0.168509
  21 H :   -0.177889
  22 C :    0.300565
  23 H :   -0.156815
  24 C :    0.530282
  25 N :    0.048343
  26 H :   -0.165973
  27 H :   -0.155720
  28 N :    0.156708
  29 N :    0.216979
  30 H :   -0.158293
  31 H :   -0.141410
  32 C :    0.309529
  33 H :   -0.158421
  34 H :   -0.131628

  Mayer bond orders larger than 0.100000
B(  0-C ,  1-C ) :   0.6946 B(  0-C ,  2-C ) :   0.2089 B(  0-C ,  3-C ) :  -0.1237
B(  0-C ,  4-C ) :  -0.1365 B(  0-C ,  5-C ) :   0.7952 B(  0-C ,  7-H ) :   0.1646
B(  0-C ,  8-H ) :  -0.1428 B(  0-C , 10-C ) :   0.8700 B(  0-C , 11-C ) :  -0.2018
B(  0-C , 13-C ) :  -0.1200 B(  0-C , 14-C ) :   0.1983 B(  0-C , 15-C ) :   0.1158
B(  0-C , 29-N ) :  -0.1236 B(  1-C ,  2-C ) :   0.7109 B(  1-C ,  3-C ) :   0.2237
B(  1-C ,  4-C ) :   0.1107 B(  1-C ,  5-C ) :  -0.3622 B(  1-C ,  7-H ) :  -0.2479
B(  1-C ,  8-H ) :   0.1698 B(  1-C , 10-C ) :   0.3913 B(  1-C , 22-C ) :   0.1470
B(  1-C , 34-H ) :  -0.1407 B(  2-C ,  3-C ) :   0.9735 B(  2-C ,  5-C ) :   0.2313
B(  2-C ,  6-H ) :   1.5236 B(  2-C , 11-C ) :   0.1170 B(  2-C , 14-C ) :  -0.1236
B(  2-C , 22-C ) :  -0.1173 B(  2-C , 32-C ) :   0.1473 B(  3-C ,  4-C ) :   1.1177
B(  3-C ,  6-H ) :  -0.1236 B(  3-C ,  7-H ) :   0.6615 B(  3-C , 10-C ) :   0.1576
B(  3-C , 14-C ) :   0.1156 B(  4-C ,  5-C ) :   1.0667 B(  4-C ,  8-H ) :   0.7896
B(  4-C ,  9-H ) :  -0.1440 B(  4-C , 10-C ) :   0.2307 B(  4-C , 29-N ) :  -0.1145
B(  5-C ,  9-H ) :   1.8677 B(  5-C , 10-C ) :  -0.1699 B(  5-C , 11-C ) :   0.1125
B(  8-H , 10-C ) :   0.1744 B(  8-H , 11-C ) :  -0.1214 B(  9-H , 10-C ) :  -0.7267
B(  9-H , 11-C ) :   0.2650 B(  9-H , 29-N ) :   0.1955 B( 10-C , 11-C ) :   1.6417
B( 10-C , 13-C ) :  -0.1501 B( 10-C , 25-N ) :  -0.6020 B( 10-C , 28-N ) :   0.2964
B( 10-C , 32-C ) :  -0.1099 B( 11-C , 12-C ) :   0.9093 B( 11-C , 14-C ) :   0.1228
B( 11-C , 15-C ) :   0.2811 B( 11-C , 16-H ) :  -0.4838 B( 11-C , 19-H ) :  -0.1143
B( 11-C , 20-H ) :  -0.2656 B( 11-C , 21-H ) :   0.1904 B( 11-C , 22-C ) :   0.1208
B( 11-C , 25-N ) :   1.4196 B( 11-C , 28-N ) :   0.6701 B( 11-C , 29-N ) :   0.4121
B( 12-C , 13-C ) :   0.6621 B( 12-C , 14-C ) :   0.4823 B( 12-C , 15-C ) :  -0.1337
B( 12-C , 16-H ) :  -0.1222 B( 12-C , 20-H ) :   0.1867 B( 12-C , 22-C ) :  -0.1383
B( 12-C , 24-C ) :  -0.1495 B( 12-C , 25-N ) :  -0.4829 B( 12-C , 28-N ) :  -0.2222
B( 13-C , 14-C ) :  -0.1841 B( 13-C , 15-C ) :   1.3589 B( 13-C , 16-H ) :   2.0315
B( 13-C , 17-C ) :   0.2896 B( 13-C , 18-C ) :  -0.1840 B( 14-C , 16-H ) :   0.2987
B( 14-C , 17-C ) :   0.5574 B( 14-C , 18-C ) :   0.1178 B( 14-C , 19-H ) :   0.1086
B( 14-C , 21-H ) :  -0.2139 B( 14-C , 22-C ) :   0.3747 B( 14-C , 32-C ) :   0.1498
B( 15-C , 16-H ) :  -0.1308 B( 15-C , 18-C ) :   1.0731 B( 15-C , 19-H ) :   0.6662
B( 15-C , 21-H ) :  -0.1154 B( 17-C , 18-C ) :   1.1636 B( 17-C , 20-H ) :   1.4457
B( 17-C , 21-H ) :  -0.1042 B( 17-C , 22-C ) :   0.2975 B( 18-C , 21-H ) :   0.5271
B( 22-C , 30-H ) :   1.1617 B( 22-C , 31-H ) :   0.9971 B( 22-C , 32-C ) :   0.8953
B( 23-H , 24-C ) :   0.8377 B( 24-C , 25-N ) :   0.9127 B( 24-C , 26-H ) :   0.9637
B( 24-C , 27-H ) :   0.9171 B( 24-C , 28-N ) :  -0.1155 B( 25-N , 28-N ) :  -0.1213
B( 28-N , 29-N ) :   0.3086 B( 32-C , 33-H ) :   1.1267 B( 32-C , 34-H ) :   0.9973

MP2 TOTAL ENERGY:     -819.441452679 Eh
FINAL SINGLE POINT ENERGY      -819.441452679174

DIPOLE MOMENT
-------------
                                X             Y             Z
Electronic contribution:      2.36502       6.17661      -1.36756
Nuclear contribution   :     -3.69308      -7.58746       1.20348
                        -----------------------------------------
Total Dipole Moment    :     -1.32807      -1.41085      -0.16407
                        -----------------------------------------
Magnitude (a.u.)       :      1.94453
Magnitude (Debye)      :      4.94260

Rotational constants in cm-1:     0.016110     0.011266     0.008062
Rotational constants in MHz :   482.969751   337.747974   241.681325

                             ****ORCA TERMINATED NORMALLY****
TOTAL RUN TIME: 0 days 0 hours 40 minutes 35 seconds 249 msec
