                         Program Version 4.2.1 -  RELEASE  -
|  1> %pal
|  2>  nprocs 32
|  3> end
|  4> !RI-MP2 aug-cc-pVTZ aug-cc-pVTZ/C TightSCF
|  5> %maxcore 4500
|  6> *xyzfile -1 1  09_17P.xyz
|  7>
|  8>
|  9>                          ****END OF INPUT****

CARTESIAN COORDINATES (ANGSTROEM)
---------------------------------
  C      1.149311    0.580615    0.054989
  C      0.138867    1.684130   -0.053265
  O      0.335159    2.603055   -0.835435
  C     -1.070464    1.673194    0.849588
  C     -1.902592    0.419511    0.628969
  C     -2.257234   -0.339820    1.734478
  C     -2.109520    0.152093   -0.706813
  O     -2.816738   -0.986313   -1.114978
  C     -2.008450   -2.141191   -1.113287
  H     -2.027505    0.009373    2.734665
  H     -2.877255   -1.221693    1.636613
  H     -2.655339   -2.998346   -1.326948
  H     -1.227779   -2.078597   -1.883399
  H     -1.525437   -2.285819   -0.140727
  C      1.113226   -0.385124    1.062832
  C      2.099275   -1.359727    1.129862
  C      3.137341   -1.379860    0.207786
  C      3.181589   -0.415805   -0.795433
  C      2.197608    0.554771   -0.867587
  H      0.280824   -0.411623    1.755628
  H      2.048154   -2.114798    1.906726
  H      3.907702   -2.141094    0.267966
  H      3.986176   -0.426052   -1.522978
  H      2.210469    1.312661   -1.640647
  H     -1.638007    2.578200    0.626559
  H     -0.751320    1.727941    1.894598
  H     -1.891790    0.859174   -1.497467

 Total Charge           Charge          ....   -1
 Multiplicity           Mult            ....    1
 Number of Electrons    NEL             ....  102
 Basis Dimension        Dim             ....  943

ORBITAL ENERGIES
----------------

  NO   OCC          E(Eh)            E(eV)
   0   2.0000     -20.409451      -555.3694
   1   2.0000     -20.394920      -554.9740
   2   2.0000     -11.201355      -304.8044
   3   2.0000     -11.137925      -303.0784
   4   2.0000     -11.131157      -302.8942
   5   2.0000     -11.127970      -302.8075
   6   2.0000     -11.126984      -302.7806
   7   2.0000     -11.124956      -302.7254
   8   2.0000     -11.121451      -302.6301
   9   2.0000     -11.120435      -302.6024
  10   2.0000     -11.090861      -301.7977
  11   2.0000     -11.071959      -301.2833
  12   2.0000     -11.054530      -300.8091
  13   2.0000     -11.002089      -299.3821
  14   2.0000      -1.250944       -34.0399
  15   2.0000      -1.207977       -32.8707
  16   2.0000      -1.049624       -28.5617
  17   2.0000      -0.946520       -25.7561
  18   2.0000      -0.913748       -24.8643
  19   2.0000      -0.907754       -24.7012
  20   2.0000      -0.813415       -22.1342
  21   2.0000      -0.780456       -21.2373
  22   2.0000      -0.738142       -20.0859
  23   2.0000      -0.718672       -19.5561
  24   2.0000      -0.701244       -19.0818
  25   2.0000      -0.639463       -17.4007
  26   2.0000      -0.588349       -16.0098
  27   2.0000      -0.556430       -15.1412
  28   2.0000      -0.530013       -14.4224
  29   2.0000      -0.526495       -14.3267
  30   2.0000      -0.508457       -13.8358
  31   2.0000      -0.503494       -13.7008
  32   2.0000      -0.482751       -13.1363
  33   2.0000      -0.479532       -13.0487
  34   2.0000      -0.467007       -12.7079
  35   2.0000      -0.445679       -12.1275
  36   2.0000      -0.434275       -11.8172
  37   2.0000      -0.424647       -11.5552
  38   2.0000      -0.406535       -11.0624
  39   2.0000      -0.398385       -10.8406
  40   2.0000      -0.383321       -10.4307
  41   2.0000      -0.369574       -10.0566
  42   2.0000      -0.368834       -10.0365
  43   2.0000      -0.352837        -9.6012
  44   2.0000      -0.323646        -8.8069
  45   2.0000      -0.284417        -7.7394
  46   2.0000      -0.269966        -7.3461
  47   2.0000      -0.237585        -6.4650
  48   2.0000      -0.231426        -6.2974
  49   2.0000      -0.209379        -5.6975
  50   2.0000      -0.048882        -1.3302
  51   0.0000       0.091977         2.5028
  52   0.0000       0.102254         2.7825
  53   0.0000       0.111504         3.0342
  54   0.0000       0.117385         3.1942
  55   0.0000       0.120980         3.2920

MULLIKEN ATOMIC CHARGES
-----------------------
   0 C :    1.928581
   1 C :    0.900456
   2 O :   -1.272275
   3 C :   -0.266680
   4 C :    1.246004
   5 C :   -1.750559
   6 C :   -0.511815
   7 O :   -0.847113
   8 C :   -0.856316
   9 H :    0.157736
  10 H :    0.300361
  11 H :    0.308592
  12 H :    0.291601
  13 H :    0.424281
  14 C :   -0.513374
  15 C :   -1.085931
  16 C :   -0.232802
  17 C :   -0.540153
  18 C :   -1.252367
  19 H :    0.182731
  20 H :    0.382361
  21 H :    0.493751
  22 H :    0.501441
  23 H :    0.062490
  24 H :    0.371367
  25 H :    0.206010
  26 H :    0.371622
Sum of atomic charges:   -1.0000000

LOEWDIN ATOMIC CHARGES
----------------------
   0 C :   -0.104046
   1 C :   -0.535639
   2 O :    0.461744
   3 C :    0.214240
   4 C :   -0.304345
   5 C :    0.412890
   6 C :   -0.111408
   7 O :    0.489057
   8 C :    0.263271
   9 H :   -0.294838
  10 H :   -0.282998
  11 H :   -0.201162
  12 H :   -0.187928
  13 H :   -0.207962
  14 C :    0.211591
  15 C :    0.197409
  16 C :    0.176202
  17 C :    0.181931
  18 C :    0.195906
  19 H :   -0.224665
  20 H :   -0.187993
  21 H :   -0.192397
  22 H :   -0.194652
  23 H :   -0.197272
  24 H :   -0.160430
  25 H :   -0.169230
  26 H :   -0.247276

  Mayer bond orders larger than 0.100000
B(  0-C ,  1-C ) :   0.7000 B(  0-C ,  6-C ) :   0.1481 B(  0-C , 14-C ) :   0.2259
B(  0-C , 15-C ) :  -0.1915 B(  0-C , 17-C ) :   0.1132 B(  0-C , 18-C ) :   0.3195
B(  0-C , 19-H ) :  -0.1140 B(  0-C , 21-H ) :   0.1208 B(  0-C , 23-H ) :  -0.2890
B(  1-C ,  2-O ) :   0.3162 B(  1-C ,  3-C ) :   0.9122 B(  1-C ,  4-C ) :   0.2027
B(  1-C , 14-C ) :   0.1833 B(  1-C , 16-C ) :   0.1321 B(  1-C , 18-C ) :   0.1894
B(  1-C , 19-H ) :  -0.1632 B(  1-C , 22-H ) :   0.1715 B(  1-C , 23-H ) :  -0.2153
B(  2-O , 23-H ) :   0.1407 B(  3-C ,  4-C ) :   0.7621 B(  3-C , 24-H ) :   0.8763
B(  3-C , 25-H ) :   1.0774 B(  4-C ,  5-C ) :   0.3787 B(  4-C ,  6-C ) :   1.2913
B(  4-C ,  9-H ) :  -0.1462 B(  4-C , 10-H ) :  -0.1032 B(  5-C ,  7-O ) :   0.1099
B(  5-C ,  9-H ) :   1.2626 B(  5-C , 10-H ) :   0.9704 B(  5-C , 19-H ) :   0.2097
B(  6-C ,  7-O ) :   0.3779 B(  6-C , 26-H ) :   0.8577 B(  7-O ,  8-C ) :   0.9892
B(  7-O , 26-H ) :  -0.1176 B(  8-C , 11-H ) :   0.9782 B(  8-C , 12-H ) :   0.9153
B(  8-C , 13-H ) :   0.8003 B( 14-C , 15-C ) :   1.1009 B( 14-C , 16-C ) :  -0.1108
B( 14-C , 18-C ) :  -0.4328 B( 14-C , 19-H ) :   1.4009 B( 14-C , 23-H ) :   0.2522
B( 15-C , 16-C ) :   1.1995 B( 15-C , 17-C ) :   0.1911 B( 15-C , 18-C ) :   0.1491
B( 15-C , 20-H ) :   0.8729 B( 15-C , 21-H ) :  -0.1696 B( 16-C , 17-C ) :   1.0897
B( 16-C , 18-C ) :  -0.1777 B( 16-C , 21-H ) :   0.7491 B( 17-C , 18-C ) :   1.2808
B( 17-C , 21-H ) :  -0.2047 B( 17-C , 22-H ) :   0.7485 B( 17-C , 23-H ) :  -0.1109
B( 18-C , 19-H ) :   0.1101 B( 18-C , 21-H ) :   0.1289 B( 18-C , 22-H ) :  -0.1137
B( 18-C , 23-H ) :   1.5306 B( 19-H , 23-H ) :   0.1672

MP2 TOTAL ENERGY:     -614.313300266 Eh
FINAL SINGLE POINT ENERGY      -614.313300266339

DIPOLE MOMENT
-------------
                                X             Y             Z
Electronic contribution:      5.38476       6.41834      -2.82570
Nuclear contribution   :     -2.20547      -7.18228       2.78647
                        -----------------------------------------
Total Dipole Moment    :      3.17929      -0.76393      -0.03923
                        -----------------------------------------
Magnitude (a.u.)       :      3.27002
Magnitude (Debye)      :      8.31172

Rotational constants in cm-1:     0.031804     0.017148     0.014650
Rotational constants in MHz :   953.467782   514.079638   439.195530

                             ****ORCA TERMINATED NORMALLY****
TOTAL RUN TIME: 0 days 0 hours 17 minutes 31 seconds 679 msec
