                         Program Version 4.2.1 -  RELEASE  -
|  1> %pal
|  2>  nprocs 32
|  3> end
|  4> !RI-MP2 aug-cc-pVTZ aug-cc-pVTZ/C TightSCF
|  5> %maxcore 4500
|  6> *xyzfile 0 1  05_34R1.xyz
|  7>
|  8>
|  9>                          ****END OF INPUT****

CARTESIAN COORDINATES (ANGSTROEM)
---------------------------------
  C      0.649350    0.927362   -0.000007
  C     -0.649351    0.927364    0.000029
  C      0.000002    2.279387    0.000014
  C     -1.930629    0.272175    0.000016
  C     -3.098308    1.038242   -0.000036
  C     -2.037374   -1.122594    0.000054
  C     -4.342013    0.426308   -0.000057
  H     -3.015538    2.118269   -0.000062
  C     -3.280352   -1.730874    0.000035
  H     -1.138068   -1.725201    0.000101
  C     -4.436935   -0.958749   -0.000022
  H     -5.240436    1.031617   -0.000100
  H     -3.350913   -2.811942    0.000065
  H     -5.408754   -1.437211   -0.000037
  C      1.930628    0.272173   -0.000007
  C      3.098306    1.038242    0.000020
  C      2.037374   -1.122596   -0.000034
  C      4.342012    0.426309    0.000026
  H      3.015535    2.118269    0.000038
  C      3.280353   -1.730875   -0.000029
  H      1.138069   -1.725204   -0.000060
  C      4.436935   -0.958748    0.000001
  H      5.240434    1.031619    0.000048
  H      3.350915   -2.811942   -0.000050
  H      5.408755   -1.437208    0.000005
  H      0.000026    2.875086    0.914394
  H     -0.000021    2.875090   -0.914363

 Total Charge           Charge          ....    0
 Multiplicity           Mult            ....    1
 Number of Electrons    NEL             ....  102
 Basis Dimension        Dim             ....  966

ORBITAL ENERGIES
----------------

  NO   OCC          E(Eh)            E(eV)
   0   2.0000     -11.252522      -306.1967
   1   2.0000     -11.252521      -306.1967
   2   2.0000     -11.244400      -305.9757
   3   2.0000     -11.242292      -305.9183
   4   2.0000     -11.241065      -305.8849
   5   2.0000     -11.241064      -305.8849
   6   2.0000     -11.239964      -305.8550
   7   2.0000     -11.239964      -305.8550
   8   2.0000     -11.239105      -305.8316
   9   2.0000     -11.239105      -305.8316
  10   2.0000     -11.238281      -305.8092
  11   2.0000     -11.238280      -305.8092
  12   2.0000     -11.237408      -305.7854
  13   2.0000     -11.237407      -305.7854
  14   2.0000     -11.231941      -305.6366
  15   2.0000      -1.187349       -32.3094
  16   2.0000      -1.163264       -31.6540
  17   2.0000      -1.145085       -31.1594
  18   2.0000      -1.039693       -28.2915
  19   2.0000      -1.025339       -27.9009
  20   2.0000      -1.022783       -27.8313
  21   2.0000      -1.022433       -27.8218
  22   2.0000      -0.865447       -23.5500
  23   2.0000      -0.862441       -23.4682
  24   2.0000      -0.836815       -22.7709
  25   2.0000      -0.831362       -22.6225
  26   2.0000      -0.792361       -21.5612
  27   2.0000      -0.746388       -20.3102
  28   2.0000      -0.723060       -19.6755
  29   2.0000      -0.674901       -18.3650
  30   2.0000      -0.663825       -18.0636
  31   2.0000      -0.637919       -17.3586
  32   2.0000      -0.633994       -17.2519
  33   2.0000      -0.614024       -16.7084
  34   2.0000      -0.609713       -16.5911
  35   2.0000      -0.604139       -16.4395
  36   2.0000      -0.595170       -16.1954
  37   2.0000      -0.590636       -16.0720
  38   2.0000      -0.523946       -14.2573
  39   2.0000      -0.522106       -14.2072
  40   2.0000      -0.515954       -14.0398
  41   2.0000      -0.514551       -14.0016
  42   2.0000      -0.508070       -13.8253
  43   2.0000      -0.497539       -13.5387
  44   2.0000      -0.469033       -12.7630
  45   2.0000      -0.415875       -11.3165
  46   2.0000      -0.408688       -11.1210
  47   2.0000      -0.358379        -9.7520
  48   2.0000      -0.344607        -9.3772
  49   2.0000      -0.343551        -9.3485
  50   2.0000      -0.278427        -7.5764
  51   0.0000       0.025860         0.7037
  52   0.0000       0.027935         0.7602
  53   0.0000       0.030988         0.8432
  54   0.0000       0.037560         1.0221
  55   0.0000       0.038019         1.0346

MULLIKEN ATOMIC CHARGES
-----------------------
   0 C :    1.256930
   1 C :    1.256519
   2 C :   -1.476111
   3 C :    2.570428
   4 C :   -1.218927
   5 C :   -1.151597
   6 C :   -0.687179
   7 H :   -0.494233
   8 C :   -0.997882
   9 H :   -0.184439
  10 C :   -0.124555
  11 H :    0.633402
  12 H :    0.552960
  13 H :    0.353374
  14 C :    2.570429
  15 C :   -1.218606
  16 C :   -1.151411
  17 C :   -0.687209
  18 H :   -0.494240
  19 C :   -0.997909
  20 H :   -0.184414
  21 C :   -0.124439
  22 H :    0.633338
  23 H :    0.552902
  24 H :    0.353359
  25 H :    0.229758
  26 H :    0.229751
Sum of atomic charges:    0.0000000

LOEWDIN ATOMIC CHARGES
----------------------
   0 C :   -0.027545
   1 C :   -0.027544
   2 C :    0.350584
   3 C :   -0.107846
   4 C :    0.217220
   5 C :    0.221927
   6 C :    0.202141
   7 H :   -0.171241
   8 C :    0.203493
   9 H :   -0.188980
  10 C :    0.197277
  11 H :   -0.181811
  12 H :   -0.181493
  13 H :   -0.182794
  14 C :   -0.107846
  15 C :    0.217220
  16 C :    0.221927
  17 C :    0.202141
  18 H :   -0.171241
  19 C :    0.203494
  20 H :   -0.188980
  21 C :    0.197277
  22 H :   -0.181812
  23 H :   -0.181494
  24 H :   -0.182794
  25 H :   -0.175640
  26 H :   -0.175640

  Mayer bond orders larger than 0.100000
B(  0-C ,  1-C ) :   2.1659 B(  0-C ,  2-C ) :   0.2431 B(  0-C ,  3-C ) :   0.1190
B(  0-C ,  5-C ) :   0.2480 B(  0-C ,  6-C ) :  -0.2266 B(  0-C ,  7-H ) :  -0.6138
B(  0-C ,  8-C ) :  -0.3499 B(  0-C ,  9-H ) :  -0.3029 B(  0-C , 10-C ) :   0.3555
B(  0-C , 11-H ) :   0.4840 B(  0-C , 13-H ) :  -0.1619 B(  0-C , 14-C ) :   0.1153
B(  0-C , 15-C ) :   0.1912 B(  0-C , 16-C ) :   0.3452 B(  0-C , 17-C ) :   0.2238
B(  0-C , 18-H ) :  -1.2460 B(  0-C , 20-H ) :  -0.7777 B(  0-C , 21-C ) :   0.2830
B(  0-C , 22-H ) :   0.5282 B(  0-C , 23-H ) :   0.3959 B(  0-C , 24-H ) :  -0.4095
B(  1-C ,  2-C ) :   0.2433 B(  1-C ,  3-C ) :   0.1153 B(  1-C ,  4-C ) :   0.1909
B(  1-C ,  5-C ) :   0.3453 B(  1-C ,  6-C ) :   0.2239 B(  1-C ,  7-H ) :  -1.2460
B(  1-C ,  9-H ) :  -0.7774 B(  1-C , 10-C ) :   0.2831 B(  1-C , 11-H ) :   0.5279
B(  1-C , 12-H ) :   0.3958 B(  1-C , 13-H ) :  -0.4094 B(  1-C , 14-C ) :   0.1194
B(  1-C , 16-C ) :   0.2481 B(  1-C , 17-C ) :  -0.2264 B(  1-C , 18-H ) :  -0.6136
B(  1-C , 19-C ) :  -0.3500 B(  1-C , 20-H ) :  -0.3022 B(  1-C , 21-C ) :   0.3556
B(  1-C , 22-H ) :   0.4835 B(  1-C , 24-H ) :  -0.1617 B(  2-C ,  3-C ) :  -0.1082
B(  2-C , 14-C ) :  -0.1085 B(  2-C , 25-H ) :   1.1102 B(  2-C , 26-H ) :   1.1102
B(  3-C ,  4-C ) :  -0.2120 B(  3-C ,  5-C ) :  -0.2227 B(  3-C ,  6-C ) :   0.1081
B(  3-C ,  7-H ) :  -0.4210 B(  3-C ,  8-C ) :  -0.1630 B(  3-C ,  9-H ) :  -0.2374
B(  3-C , 11-H ) :  -0.3721 B(  3-C , 12-H ) :  -0.2502 B(  3-C , 13-H ) :   0.3811
B(  3-C , 14-C ) :   0.3160 B(  4-C ,  5-C ) :  -0.8881 B(  4-C ,  6-C ) :   1.2451
B(  4-C ,  7-H ) :   2.9321 B(  4-C ,  8-C ) :   0.1729 B(  4-C ,  9-H ) :   0.3834
B(  4-C , 10-C ) :  -0.5039 B(  4-C , 11-H ) :  -0.2732 B(  4-C , 13-H ) :   0.2771
B(  5-C ,  6-C ) :   0.2645 B(  5-C ,  7-H ) :   0.5388 B(  5-C ,  8-C ) :   1.2740
B(  5-C ,  9-H ) :   2.3365 B(  5-C , 10-C ) :  -0.4006 B(  5-C , 11-H ) :  -0.1647
B(  6-C ,  8-C ) :   0.3780 B(  6-C ,  9-H ) :  -0.1013 B(  6-C , 10-C ) :   1.0203
B(  6-C , 11-H ) :   0.4418 B(  6-C , 13-H ) :  -0.2027 B(  7-H ,  9-H ) :   0.8189
B(  7-H , 10-C ) :  -0.2119 B(  7-H , 11-H ) :  -0.1679 B(  7-H , 12-H ) :  -0.1663
B(  7-H , 20-H ) :   0.1203 B(  8-C , 10-C ) :   1.0800 B(  8-C , 12-H ) :   0.4164
B(  8-C , 13-H ) :  -0.1609 B(  9-H , 10-C ) :  -0.3114 B(  9-H , 11-H ) :  -0.3093
B(  9-H , 13-H ) :   0.1983 B(  9-H , 18-H ) :   0.1203 B( 10-C , 11-H ) :   0.1357
B( 10-C , 12-H ) :   0.1313 B( 10-C , 13-H ) :   0.9664 B( 14-C , 15-C ) :  -0.2120
B( 14-C , 16-C ) :  -0.2221 B( 14-C , 17-C ) :   0.1078 B( 14-C , 18-H ) :  -0.4210
B( 14-C , 19-C ) :  -0.1634 B( 14-C , 20-H ) :  -0.2371 B( 14-C , 22-H ) :  -0.3720
B( 14-C , 23-H ) :  -0.2501 B( 14-C , 24-H ) :   0.3811 B( 15-C , 16-C ) :  -0.8880
B( 15-C , 17-C ) :   1.2451 B( 15-C , 18-H ) :   2.9319 B( 15-C , 19-C ) :   0.1729
B( 15-C , 20-H ) :   0.3830 B( 15-C , 21-C ) :  -0.5039 B( 15-C , 22-H ) :  -0.2731
B( 15-C , 24-H ) :   0.2770 B( 16-C , 17-C ) :   0.2644 B( 16-C , 18-H ) :   0.5387
B( 16-C , 19-C ) :   1.2743 B( 16-C , 20-H ) :   2.3360 B( 16-C , 21-C ) :  -0.4005
B( 16-C , 22-H ) :  -0.1647 B( 17-C , 19-C ) :   0.3779 B( 17-C , 20-H ) :  -0.1012
B( 17-C , 21-C ) :   1.0202 B( 17-C , 22-H ) :   0.4419 B( 17-C , 24-H ) :  -0.2027
B( 18-H , 20-H ) :   0.8189 B( 18-H , 21-C ) :  -0.2120 B( 18-H , 22-H ) :  -0.1679
B( 18-H , 23-H ) :  -0.1663 B( 19-C , 21-C ) :   1.0800 B( 19-C , 23-H ) :   0.4164
B( 19-C , 24-H ) :  -0.1609 B( 20-H , 21-C ) :  -0.3116 B( 20-H , 22-H ) :  -0.3093
B( 20-H , 24-H ) :   0.1983 B( 21-C , 22-H ) :   0.1357 B( 21-C , 23-H ) :   0.1313
B( 21-C , 24-H ) :   0.9664

MP2 TOTAL ENERGY:     -577.522290531 Eh
FINAL SINGLE POINT ENERGY      -577.522290531075

DIPOLE MOMENT
-------------
                                X             Y             Z
Electronic contribution:     -0.00000      -0.39152       0.00002
Nuclear contribution   :      0.00000       0.10087      -0.00002
                        -----------------------------------------
Total Dipole Moment    :      0.00000      -0.29064      -0.00001
                        -----------------------------------------
Magnitude (a.u.)       :      0.29064
Magnitude (Debye)      :      0.73876

Rotational constants in cm-1:     0.057131     0.009503     0.008161
Rotational constants in MHz :  1712.734818   284.901431   244.667653

                             ****ORCA TERMINATED NORMALLY****
TOTAL RUN TIME: 0 days 0 hours 15 minutes 20 seconds 604 msec
