                         Program Version 4.2.1 -  RELEASE  -
|  1> %pal
|  2>  nprocs 32
|  3> end
|  4> !RI-MP2 aug-cc-pVTZ aug-cc-pVTZ/C TightSCF
|  5> %maxcore 4500
|  6> *xyzfile 1 1  10_12TS.xyz
|  7>
|  8>
|  9>                          ****END OF INPUT****

CARTESIAN COORDINATES (ANGSTROEM)
---------------------------------
  C      2.006923   -1.077392    0.030090
  N      0.689198   -0.905608   -0.028744
  N     -0.019978    0.059216   -0.215865
  C     -1.416552   -0.053792   -0.107389
  C     -2.128204    1.111609   -0.382552
  C     -2.067876   -1.235835    0.256020
  C     -3.509875    1.098010   -0.294002
  H     -1.591624    2.008816   -0.663337
  C     -3.444212   -1.236309    0.341130
  H     -1.495139   -2.130757    0.462924
  C     -4.162979   -0.072356    0.066983
  H     -4.076074    1.995317   -0.505957
  H     -3.967862   -2.141409    0.620198
  H     -5.243630   -0.084126    0.136234
  C      2.584321   -1.111440    1.416451
  H      2.188247   -0.308331    2.036022
  H      2.321172   -2.066198    1.880547
  H      3.670142   -1.052995    1.372571
  C      2.607903   -1.962473   -1.020242
  H      2.150180   -1.803002   -1.994847
  H      3.681890   -1.794318   -1.079529
  H      2.450649   -3.004833   -0.726996
  C      2.840486    0.910740   -0.751729
  C      1.895077    1.829998   -0.447904
  H      3.690122    0.774462   -0.092939
  H      2.952432    0.575030   -1.774566
  C      1.803054    2.553065    0.848885
  H      2.493375    2.157418    1.594161
  H      2.051993    3.606797    0.687684
  H      0.787637    2.532915    1.249487
  H      1.203554    2.137011   -1.223834

 Total Charge           Charge          ....    1
 Multiplicity           Mult            ....    1
 Number of Electrons    NEL             ....  102
 Basis Dimension        Dim             .... 1035

ORBITAL ENERGIES
----------------

  NO   OCC          E(Eh)            E(eV)
   0   2.0000     -15.820682      -430.5026
   1   2.0000     -15.807652      -430.1481
   2   2.0000     -11.524316      -313.5926
   3   2.0000     -11.410704      -310.5011
   4   2.0000     -11.404605      -310.3351
   5   2.0000     -11.394301      -310.0547
   6   2.0000     -11.392492      -310.0055
   7   2.0000     -11.375982      -309.5562
   8   2.0000     -11.373467      -309.4878
   9   2.0000     -11.366895      -309.3089
  10   2.0000     -11.361389      -309.1591
  11   2.0000     -11.359050      -309.0955
  12   2.0000     -11.357515      -309.0537
  13   2.0000     -11.357218      -309.0456
  14   2.0000      -1.574745       -42.8510
  15   2.0000      -1.335415       -36.3385
  16   2.0000      -1.279152       -34.8075
  17   2.0000      -1.219422       -33.1822
  18   2.0000      -1.184614       -32.2350
  19   2.0000      -1.153273       -31.3822
  20   2.0000      -1.127479       -30.6803
  21   2.0000      -1.103586       -30.0301
  22   2.0000      -1.080204       -29.3939
  23   2.0000      -0.996855       -27.1258
  24   2.0000      -0.964499       -26.2454
  25   2.0000      -0.914244       -24.8778
  26   2.0000      -0.890102       -24.2209
  27   2.0000      -0.854075       -23.2406
  28   2.0000      -0.830606       -22.6019
  29   2.0000      -0.808407       -21.9979
  30   2.0000      -0.807527       -21.9739
  31   2.0000      -0.786940       -21.4137
  32   2.0000      -0.764301       -20.7977
  33   2.0000      -0.744825       -20.2677
  34   2.0000      -0.739684       -20.1278
  35   2.0000      -0.727596       -19.7989
  36   2.0000      -0.720111       -19.5952
  37   2.0000      -0.716784       -19.5047
  38   2.0000      -0.712481       -19.3876
  39   2.0000      -0.707395       -19.2492
  40   2.0000      -0.700422       -19.0595
  41   2.0000      -0.683576       -18.6011
  42   2.0000      -0.662342       -18.0233
  43   2.0000      -0.646276       -17.5861
  44   2.0000      -0.642381       -17.4801
  45   2.0000      -0.628844       -17.1117
  46   2.0000      -0.618842       -16.8395
  47   2.0000      -0.558347       -15.1934
  48   2.0000      -0.503846       -13.7104
  49   2.0000      -0.469041       -12.7633
  50   2.0000      -0.466476       -12.6935
  51   0.0000      -0.097568        -2.6550
  52   0.0000      -0.084787        -2.3072
  53   0.0000      -0.064844        -1.7645
  54   0.0000      -0.054395        -1.4802
  55   0.0000      -0.052448        -1.4272

MULLIKEN ATOMIC CHARGES
-----------------------
   0 C :    0.918021
   1 N :   -1.069825
   2 N :    0.695990
   3 C :    0.832989
   4 C :   -0.511898
   5 C :   -0.191079
   6 C :   -0.832027
   7 H :    0.553566
   8 C :   -0.941844
   9 H :    0.531202
  10 C :   -0.337486
  11 H :    0.387065
  12 H :    0.493087
  13 H :    0.493767
  14 C :   -0.926040
  15 H :    0.333919
  16 H :    0.279926
  17 H :    0.270773
  18 C :   -1.082626
  19 H :    0.315104
  20 H :    0.316577
  21 H :    0.253872
  22 C :   -0.794998
  23 C :   -0.313836
  24 H :    0.354398
  25 H :    0.386461
  26 C :   -0.858043
  27 H :    0.286796
  28 H :    0.251356
  29 H :    0.349611
  30 H :    0.555224
Sum of atomic charges:    1.0000000

LOEWDIN ATOMIC CHARGES
----------------------
   0 C :   -0.248178
   1 N :    0.275586
   2 N :    0.298075
   3 C :   -0.270411
   4 C :    0.215123
   5 C :    0.228341
   6 C :    0.230943
   7 H :   -0.168658
   8 C :    0.230578
   9 H :   -0.174514
  10 C :    0.237553
  11 H :   -0.169800
  12 H :   -0.169080
  13 H :   -0.161732
  14 C :    0.631243
  15 H :   -0.151794
  16 H :   -0.132350
  17 H :   -0.149741
  18 C :    0.629202
  19 H :   -0.144953
  20 H :   -0.147092
  21 H :   -0.132717
  22 C :    0.479773
  23 C :    0.193862
  24 H :   -0.196007
  25 H :   -0.191594
  26 C :    0.596574
  27 H :   -0.168774
  28 H :   -0.149471
  29 H :   -0.162533
  30 H :   -0.157452

  Mayer bond orders larger than 0.100000
B(  0-C ,  1-N ) :   1.4411 B(  0-C ,  3-C ) :   0.2569 B(  0-C , 14-C ) :   0.4914
B(  0-C , 18-C ) :   0.3967 B(  0-C , 22-C ) :   0.3587 B(  0-C , 23-C ) :   0.1321
B(  1-N ,  3-C ) :   0.6501 B(  1-N ,  4-C ) :   0.2256 B(  1-N ,  5-C ) :   0.3294
B(  1-N ,  9-H ) :  -0.2561 B(  2-N ,  4-C ) :  -0.4859 B(  2-N ,  5-C ) :  -0.8634
B(  2-N ,  6-C ) :   0.1895 B(  2-N ,  8-C ) :   0.1265 B(  2-N ,  9-H ) :   0.1425
B(  2-N , 22-C ) :   0.1066 B(  3-C ,  4-C ) :   0.6819 B(  3-C ,  5-C ) :   0.7407
B(  3-C ,  6-C ) :  -0.2908 B(  3-C ,  8-C ) :  -0.1444 B(  3-C , 10-C ) :  -0.1225
B(  4-C ,  5-C ) :  -0.1050 B(  4-C ,  6-C ) :   1.3435 B(  4-C ,  7-H ) :   0.5739
B(  4-C , 10-C ) :   0.1906 B(  5-C ,  8-C ) :   1.1907 B(  5-C ,  9-H ) :   0.7913
B(  6-C ,  7-H ) :  -0.1077 B(  6-C , 10-C ) :   1.1883 B(  6-C , 11-H ) :   0.9317
B(  8-C , 10-C ) :   1.1471 B(  8-C , 12-H ) :   0.7263 B( 10-C , 13-H ) :   0.7696
B( 14-C , 15-H ) :   0.9305 B( 14-C , 16-H ) :   0.9958 B( 14-C , 17-H ) :   1.0142
B( 18-C , 19-H ) :   0.9842 B( 18-C , 20-H ) :   0.9593 B( 18-C , 21-H ) :   1.0626
B( 22-C , 23-C ) :   1.5096 B( 22-C , 24-H ) :   0.9423 B( 22-C , 25-H ) :   0.8207
B( 23-C , 26-C ) :   0.8050 B( 23-C , 30-H ) :   0.6713 B( 26-C , 27-H ) :   0.9700
B( 26-C , 28-H ) :   1.0086 B( 26-C , 29-H ) :   0.9065

MP2 TOTAL ENERGY:     -575.476176174 Eh
FINAL SINGLE POINT ENERGY      -575.476176174112

DIPOLE MOMENT
-------------
                                X             Y             Z
Electronic contribution:    -11.99138      -1.86754      -1.85074
Nuclear contribution   :     13.56262       1.42752       2.01982
                        -----------------------------------------
Total Dipole Moment    :      1.57124      -0.44001       0.16908
                        -----------------------------------------
Magnitude (a.u.)       :      1.64043
Magnitude (Debye)      :      4.16963

Rotational constants in cm-1:     0.038696     0.013397     0.011080
Rotational constants in MHz :  1160.076969   401.631820   332.164175

                             ****ORCA TERMINATED NORMALLY****
TOTAL RUN TIME: 0 days 0 hours 23 minutes 50 seconds 668 msec
