                         Program Version 4.2.1 -  RELEASE  -
|  1> %pal
|  2>  nprocs 32
|  3> end
|  4> !RI-MP2 aug-cc-pVTZ aug-cc-pVTZ/C TightSCF
|  5> %maxcore 4500
|  6> *xyzfile 0 1  04_57R1.xyz
|  7>
|  8>
|  9>                          ****END OF INPUT****

CARTESIAN COORDINATES (ANGSTROEM)
---------------------------------
  C     -0.905783    0.021795   -0.350035
  C     -0.179565    1.200812   -0.230010
  C      1.192509    1.187540   -0.016615
  C      1.863325   -0.023441    0.079759
  C      1.158753   -1.214073   -0.039769
  C     -0.208962   -1.181660   -0.251636
  C     -2.401847    0.040863   -0.532115
  C     -3.157566   -0.025708    0.797214
  H     -2.701611   -0.800598   -1.162883
  H     -2.690501    0.948186   -1.069580
  H     -2.905127   -0.937471    1.343159
  H     -4.238324   -0.013368    0.638263
  H     -2.897779    0.822335    1.434759
  O      3.210830   -0.104959    0.285558
  H     -0.691569    2.154036   -0.307312
  H      1.739406    2.121181    0.069805
  H     -0.749147   -2.117686   -0.347315
  H      1.696308   -2.151084    0.031007
  H      3.586527    0.777374    0.344880

 Total Charge           Charge          ....    0
 Multiplicity           Mult            ....    1
 Number of Electrons    NEL             ....   66
 Basis Dimension        Dim             ....  644

ORBITAL ENERGIES
----------------

  NO   OCC          E(Eh)            E(eV)
   0   2.0000     -20.587506      -560.2145
   1   2.0000     -11.296424      -307.3913
   2   2.0000     -11.234921      -305.7178
   3   2.0000     -11.233349      -305.6750
   4   2.0000     -11.230634      -305.6011
   5   2.0000     -11.228167      -305.5340
   6   2.0000     -11.225901      -305.4723
   7   2.0000     -11.225002      -305.4478
   8   2.0000     -11.214370      -305.1585
   9   2.0000      -1.403552       -38.1926
  10   2.0000      -1.154566       -31.4173
  11   2.0000      -1.058821       -28.8120
  12   2.0000      -1.019024       -27.7290
  13   2.0000      -0.977240       -26.5921
  14   2.0000      -0.863510       -23.4973
  15   2.0000      -0.844014       -22.9668
  16   2.0000      -0.793998       -21.6058
  17   2.0000      -0.733334       -19.9550
  18   2.0000      -0.673752       -18.3337
  19   2.0000      -0.647671       -17.6240
  20   2.0000      -0.613358       -16.6903
  21   2.0000      -0.596833       -16.2407
  22   2.0000      -0.589791       -16.0490
  23   2.0000      -0.586865       -15.9694
  24   2.0000      -0.569525       -15.4976
  25   2.0000      -0.555947       -15.1281
  26   2.0000      -0.523934       -14.2570
  27   2.0000      -0.497605       -13.5405
  28   2.0000      -0.480231       -13.0678
  29   2.0000      -0.477965       -13.0061
  30   2.0000      -0.469510       -12.7760
  31   2.0000      -0.341582        -9.2949
  32   2.0000      -0.305867        -8.3231
  33   0.0000       0.026666         0.7256
  34   0.0000       0.031444         0.8556
  35   0.0000       0.035260         0.9595
  36   0.0000       0.042242         1.1495
  37   0.0000       0.044336         1.2064

MULLIKEN ATOMIC CHARGES
-----------------------
   0 C :    1.439456
   1 C :   -0.905031
   2 C :   -0.817100
   3 C :    1.032848
   4 C :   -0.850723
   5 C :   -0.760135
   6 C :   -0.401786
   7 C :   -0.917279
   8 H :    0.238354
   9 H :    0.243762
  10 H :    0.286188
  11 H :    0.289323
  12 H :    0.281027
  13 O :   -0.824891
  14 H :    0.202176
  15 H :    0.457885
  16 H :    0.235081
  17 H :    0.604398
  18 H :    0.166445
Sum of atomic charges:   -0.0000000

LOEWDIN ATOMIC CHARGES
----------------------
   0 C :   -0.125925
   1 C :    0.208335
   2 C :    0.213746
   3 C :   -0.384557
   4 C :    0.214929
   5 C :    0.209520
   6 C :    0.247355
   7 C :    0.583273
   8 H :   -0.153510
   9 H :   -0.155440
  10 H :   -0.168706
  11 H :   -0.170787
  12 H :   -0.168057
  13 O :    0.836831
  14 H :   -0.170469
  15 H :   -0.183120
  16 H :   -0.168928
  17 H :   -0.180147
  18 H :   -0.484344

  Mayer bond orders larger than 0.100000
B(  0-C ,  1-C ) :   0.3930 B(  0-C ,  2-C ) :   0.1257 B(  0-C ,  3-C ) :   0.1013
B(  0-C ,  4-C ) :   0.1664 B(  0-C ,  5-C ) :   0.5184 B(  0-C ,  6-C ) :   0.6352
B(  0-C , 14-H ) :  -0.1206 B(  0-C , 16-H ) :  -0.1406 B(  1-C ,  2-C ) :   1.2666
B(  1-C , 14-H ) :   1.2006 B(  2-C ,  3-C ) :   1.0257 B(  2-C ,  4-C ) :   0.3382
B(  2-C , 15-H ) :   0.7093 B(  3-C ,  4-C ) :   1.0462 B(  3-C ,  5-C ) :  -0.2194
B(  3-C , 13-O ) :   0.4799 B(  4-C ,  5-C ) :   1.3496 B(  4-C , 17-H ) :   0.4733
B(  5-C , 14-H ) :   0.1139 B(  5-C , 16-H ) :   1.1227 B(  6-C ,  7-C ) :   0.8539
B(  6-C ,  8-H ) :   0.9998 B(  6-C ,  9-H ) :   0.9915 B(  7-C , 10-H ) :   0.9470
B(  7-C , 11-H ) :   0.9431 B(  7-C , 12-H ) :   0.9572 B( 13-O , 18-H ) :   1.0564

MP2 TOTAL ENERGY:     -385.331523564 Eh
FINAL SINGLE POINT ENERGY      -385.331523563850

DIPOLE MOMENT
-------------
                                X             Y             Z
Electronic contribution:      9.72848      -0.28980      -1.00904
Nuclear contribution   :     -9.94447       0.81296       0.99360
                        -----------------------------------------
Total Dipole Moment    :     -0.21600       0.52317      -0.01544
                        -----------------------------------------
Magnitude (a.u.)       :      0.56621
Magnitude (Debye)      :      1.43920

Rotational constants in cm-1:     0.148533     0.031744     0.028112
Rotational constants in MHz :  4452.906724   951.646766   842.766473

                             ****ORCA TERMINATED NORMALLY****
TOTAL RUN TIME: 0 days 0 hours 4 minutes 23 seconds 475 msec
