                         Program Version 4.2.1 -  RELEASE  -
|  1> %pal
|  2>  nprocs 32
|  3> end
|  4> !RI-MP2 aug-cc-pVTZ aug-cc-pVTZ/C TightSCF
|  5> %maxcore 4500
|  6> *xyzfile 0 1  02_28P.xyz
|  7>
|  8>
|  9>                          ****END OF INPUT****

CARTESIAN COORDINATES (ANGSTROEM)
---------------------------------
  C     -1.186560    2.125575   -0.356004
  C      0.935885    0.754070   -0.130400
  C     -0.047583    2.604897   -1.236224
  C     -0.674565    2.018053    1.067873
  C      0.436337    1.306624    1.192560
  C      1.063523    1.890703   -1.128082
  N      2.021258   -0.198491   -0.070506
  C      3.301871    0.197734    0.368637
  C      1.600685   -1.463716   -0.475788
  O      2.297448   -2.460178   -0.520070
  C      0.168861   -1.359965   -0.835306
  C     -0.218153   -0.099298   -0.648214
  C     -1.500620    0.648748   -0.834502
  H     -0.167047    3.450262   -1.900700
  H     -1.201380    2.475883    1.893624
  H      0.961484    1.087608    2.111127
  H      1.984058    2.043756   -1.672335
  C     -2.710878    0.057548   -0.145433
  C     -2.618931   -0.668546    1.038419
  C     -3.971068    0.277846   -0.696095
  C     -3.760754   -1.156359    1.658193
  H     -1.647718   -0.858260    1.476117
  C     -5.114606   -0.207476   -0.078789
  H     -4.056670    0.834097   -1.623829
  C     -5.012141   -0.926956    1.103679
  H     -3.670712   -1.722239    2.577755
  H     -6.085542   -0.028310   -0.524838
  H     -5.901943   -1.311665    1.586962
  O      3.497453    1.353345    0.695153
  N      4.228687   -0.775276    0.387963
  H      3.945661   -1.703042    0.092920
  C      5.580099   -0.485963    0.819150
  H      6.042514    0.271397    0.183478
  H      5.595205   -0.118908    1.847021
  H      6.163098   -1.403429    0.760619
  C     -0.592837   -2.546589   -1.313783
  H     -0.130624   -2.961794   -2.212122
  H     -0.585742   -3.337209   -0.559901
  H     -1.627748   -2.288362   -1.533853
  H     -1.718199    0.698246   -1.904610
  H     -2.078904    2.741436   -0.439657

 Total Charge           Charge          ....    0
 Multiplicity           Mult            ....    1
 Number of Electrons    NEL             ....  162
 Basis Dimension        Dim             .... 1472

ORBITAL ENERGIES
----------------

  NO   OCC          E(Eh)            E(eV)
   0   2.0000     -20.541915      -558.9739
   1   2.0000     -20.515163      -558.2460
   2   2.0000     -15.608182      -424.7202
   3   2.0000     -15.573594      -423.7790
   4   2.0000     -11.379746      -309.6586
   5   2.0000     -11.367781      -309.3330
   6   2.0000     -11.300135      -307.4923
   7   2.0000     -11.271140      -306.7033
   8   2.0000     -11.265797      -306.5579
   9   2.0000     -11.257120      -306.3218
  10   2.0000     -11.255387      -306.2746
  11   2.0000     -11.251333      -306.1643
  12   2.0000     -11.245947      -306.0178
  13   2.0000     -11.242322      -305.9191
  14   2.0000     -11.241067      -305.8850
  15   2.0000     -11.240765      -305.8768
  16   2.0000     -11.239012      -305.8291
  17   2.0000     -11.238869      -305.8252
  18   2.0000     -11.237802      -305.7961
  19   2.0000     -11.237468      -305.7871
  20   2.0000     -11.235204      -305.7254
  21   2.0000     -11.234797      -305.7144
  22   2.0000     -11.228406      -305.5404
  23   2.0000      -1.417899       -38.5830
  24   2.0000      -1.389779       -37.8178
  25   2.0000      -1.285448       -34.9788
  26   2.0000      -1.231703       -33.5163
  27   2.0000      -1.190059       -32.3832
  28   2.0000      -1.161151       -31.5965
  29   2.0000      -1.109489       -30.1907
  30   2.0000      -1.063965       -28.9520
  31   2.0000      -1.036089       -28.1934
  32   2.0000      -1.024257       -27.8714
  33   2.0000      -1.009609       -27.4728
  34   2.0000      -0.986195       -26.8357
  35   2.0000      -0.959144       -26.0996
  36   2.0000      -0.931500       -25.3474
  37   2.0000      -0.859732       -23.3945
  38   2.0000      -0.847238       -23.0545
  39   2.0000      -0.833678       -22.6855
  40   2.0000      -0.811924       -22.0936
  41   2.0000      -0.799754       -21.7624
  42   2.0000      -0.785472       -21.3738
  43   2.0000      -0.767518       -20.8852
  44   2.0000      -0.737220       -20.0608
  45   2.0000      -0.706176       -19.2160
  46   2.0000      -0.696341       -18.9484
  47   2.0000      -0.669532       -18.2189
  48   2.0000      -0.661489       -18.0000
  49   2.0000      -0.649670       -17.6784
  50   2.0000      -0.648034       -17.6339
  51   2.0000      -0.643900       -17.5214
  52   2.0000      -0.634367       -17.2620
  53   2.0000      -0.628519       -17.1029
  54   2.0000      -0.613394       -16.6913
  55   2.0000      -0.610558       -16.6141
  56   2.0000      -0.594941       -16.1892
  57   2.0000      -0.591786       -16.1033
  58   2.0000      -0.586267       -15.9531
  59   2.0000      -0.579349       -15.7649
  60   2.0000      -0.575886       -15.6707
  61   2.0000      -0.569352       -15.4928
  62   2.0000      -0.553996       -15.0750
  63   2.0000      -0.550880       -14.9902
  64   2.0000      -0.543354       -14.7854
  65   2.0000      -0.534429       -14.5425
  66   2.0000      -0.525076       -14.2881
  67   2.0000      -0.519913       -14.1476
  68   2.0000      -0.503956       -13.7133
  69   2.0000      -0.499190       -13.5837
  70   2.0000      -0.489080       -13.3085
  71   2.0000      -0.474271       -12.9056
  72   2.0000      -0.454448       -12.3662
  73   2.0000      -0.433356       -11.7922
  74   2.0000      -0.409548       -11.1444
  75   2.0000      -0.390709       -10.6317
  76   2.0000      -0.381719       -10.3871
  77   2.0000      -0.377515       -10.2727
  78   2.0000      -0.351689        -9.5700
  79   2.0000      -0.341727        -9.2989
  80   2.0000      -0.329945        -8.9783
  81   0.0000       0.020546         0.5591
  82   0.0000       0.027255         0.7416
  83   0.0000       0.030014         0.8167
  84   0.0000       0.031973         0.8700
  85   0.0000       0.035809         0.9744

MULLIKEN ATOMIC CHARGES
-----------------------
   0 C :   -0.040939
   1 C :    0.991690
   2 C :   -0.544135
   3 C :   -0.425413
   4 C :   -0.644295
   5 C :   -0.861609
   6 N :    0.248386
   7 C :    0.123082
   8 C :    0.412501
   9 O :   -1.282839
  10 C :    1.762717
  11 C :   -0.829876
  12 C :    0.050640
  13 H :    0.430703
  14 H :    0.382621
  15 H :    0.458224
  16 H :    0.466336
  17 C :    2.073551
  18 C :   -0.134420
  19 C :   -1.340999
  20 C :   -1.230772
  21 H :    0.058881
  22 C :   -0.699462
  23 H :   -0.190317
  24 C :   -0.067892
  25 H :    0.311540
  26 H :    0.516243
  27 H :    0.724056
  28 O :   -1.017473
  29 N :   -0.039428
  30 H :    0.223378
  31 C :   -1.176822
  32 H :    0.364333
  33 H :    0.363179
  34 H :    0.324915
  35 C :   -1.081352
  36 H :    0.219375
  37 H :    0.227440
  38 H :    0.387769
  39 H :    0.148379
  40 H :    0.338100
Sum of atomic charges:    0.0000000

LOEWDIN ATOMIC CHARGES
----------------------
   0 C :    0.021886
   1 C :   -0.440417
   2 C :    0.267780
   3 C :    0.262854
   4 C :    0.278398
   5 C :    0.284940
   6 N :    0.296235
   7 C :   -0.778834
   8 C :   -0.590714
   9 O :    0.520956
  10 C :   -0.035166
  11 C :   -0.046667
  12 C :    0.040650
  13 H :   -0.159990
  14 H :   -0.153390
  15 H :   -0.147916
  16 H :   -0.151118
  17 C :   -0.095327
  18 C :    0.222709
  19 C :    0.224017
  20 C :    0.212029
  21 H :   -0.177023
  22 C :    0.203698
  23 H :   -0.168234
  24 C :    0.197967
  25 H :   -0.178465
  26 H :   -0.180659
  27 H :   -0.182491
  28 O :    0.477650
  29 N :    0.547753
  30 H :   -0.430171
  31 C :    0.499196
  32 H :   -0.165600
  33 H :   -0.165731
  34 H :   -0.168386
  35 C :    0.603047
  36 H :   -0.159592
  37 H :   -0.157213
  38 H :   -0.170050
  39 H :   -0.128346
  40 H :   -0.130262

  Mayer bond orders larger than 0.100000
B(  0-C ,  1-C ) :   0.4160 B(  0-C ,  2-C ) :   0.6774 B(  0-C ,  3-C ) :   0.8063
B(  0-C ,  4-C ) :   0.2572 B(  0-C ,  5-C ) :   0.3878 B(  0-C , 10-C ) :  -0.2875
B(  0-C , 12-C ) :   1.1805 B(  0-C , 16-H ) :  -0.1505 B(  0-C , 40-H ) :   1.1153
B(  1-C ,  2-C ) :  -0.6161 B(  1-C ,  3-C ) :  -0.2232 B(  1-C ,  4-C ) :   1.1240
B(  1-C ,  5-C ) :   0.9446 B(  1-C ,  6-N ) :  -0.2014 B(  1-C ,  7-C ) :  -0.7597
B(  1-C ,  8-C ) :   0.2872 B(  1-C ,  9-O ) :   0.4496 B(  1-C , 11-C ) :   1.1481
B(  1-C , 12-C ) :  -0.5177 B(  1-C , 13-H ) :  -0.1676 B(  1-C , 16-H ) :   0.1216
B(  1-C , 28-O ) :   0.2851 B(  1-C , 39-H ) :   0.1150 B(  1-C , 40-H ) :   0.2868
B(  2-C ,  3-C ) :   0.3082 B(  2-C ,  5-C ) :   1.5771 B(  2-C , 10-C ) :   0.2320
B(  2-C , 11-C ) :  -0.3486 B(  2-C , 12-C ) :   0.1159 B(  2-C , 13-H ) :   0.8554
B(  2-C , 40-H ) :  -0.2329 B(  3-C ,  4-C ) :   1.3182 B(  3-C ,  5-C ) :  -0.2171
B(  3-C , 10-C ) :   0.1185 B(  3-C , 11-C ) :  -0.1217 B(  3-C , 12-C ) :   0.2635
B(  3-C , 14-H ) :   0.8914 B(  3-C , 17-C ) :  -0.1272 B(  3-C , 40-H ) :  -0.1816
B(  4-C ,  5-C ) :   0.2068 B(  4-C ,  6-N ) :  -0.2408 B(  4-C , 11-C ) :   0.6016
B(  4-C , 15-H ) :   0.8573 B(  4-C , 16-H ) :  -0.1273 B(  5-C , 10-C ) :  -0.1959
B(  5-C , 11-C ) :   0.4629 B(  5-C , 12-C ) :  -0.1600 B(  5-C , 16-H ) :   0.8089
B(  6-N ,  7-C ) :   1.1790 B(  6-N ,  8-C ) :   1.2812 B(  6-N ,  9-O ) :  -0.2146
B(  6-N , 12-C ) :   0.1168 B(  6-N , 15-H ) :   0.1232 B(  6-N , 28-O ) :  -0.2388
B(  6-N , 29-N ) :  -0.1238 B(  7-C ,  8-C ) :  -0.5601 B(  7-C , 10-C ) :   0.2716
B(  7-C , 11-C ) :   0.1092 B(  7-C , 28-O ) :   1.6131 B(  7-C , 29-N ) :   1.2222
B(  7-C , 31-C ) :  -0.1401 B(  8-C ,  9-O ) :   0.2867 B(  8-C , 10-C ) :  -0.9812
B(  8-C , 11-C ) :   0.4635 B(  8-C , 29-N ) :  -0.1288 B(  8-C , 35-C ) :  -0.2125
B(  9-O , 10-C ) :  -0.1413 B(  9-O , 11-C ) :   0.2831 B( 10-C , 11-C ) :   0.8154
B( 10-C , 12-C ) :  -0.6309 B( 10-C , 17-C ) :  -0.2228 B( 10-C , 18-C ) :   0.1322
B( 10-C , 21-H ) :   0.1777 B( 10-C , 36-H ) :  -0.1685 B( 10-C , 37-H ) :  -0.1332
B( 11-C , 12-C ) :   1.3825 B( 11-C , 14-H ) :   0.1043 B( 11-C , 15-H ) :  -0.2490
B( 11-C , 16-H ) :  -0.1966 B( 11-C , 17-C ) :   0.4014 B( 11-C , 18-C ) :  -0.1297
B( 11-C , 19-C ) :   0.1302 B( 11-C , 23-H ) :   0.1802 B( 11-C , 35-C ) :   0.6139
B( 11-C , 40-H ) :  -0.2428 B( 12-C , 16-H ) :   0.1325 B( 12-C , 17-C ) :   0.5846
B( 12-C , 18-C ) :   0.3590 B( 12-C , 20-C ) :   0.1269 B( 12-C , 23-H ) :  -0.5916
B( 12-C , 24-C ) :   0.1152 B( 12-C , 39-H ) :   1.2540 B( 14-H , 21-H ) :   0.1454
B( 17-C , 18-C ) :   0.4653 B( 17-C , 19-C ) :   0.1256 B( 17-C , 20-C ) :   0.1206
B( 17-C , 21-H ) :  -0.4174 B( 17-C , 23-H ) :  -0.2894 B( 17-C , 39-H ) :  -0.3951
B( 17-C , 40-H ) :  -0.1119 B( 18-C , 19-C ) :  -0.8953 B( 18-C , 20-C ) :   1.2487
B( 18-C , 21-H ) :   1.4534 B( 18-C , 23-H ) :   0.1350 B( 18-C , 27-H ) :  -0.1320
B( 19-C , 20-C ) :   0.1061 B( 19-C , 21-H ) :   0.2473 B( 19-C , 22-C ) :   1.4373
B( 19-C , 23-H ) :   2.1137 B( 19-C , 26-H ) :  -0.1056 B( 19-C , 27-H ) :   0.1005
B( 20-C , 22-C ) :   0.1563 B( 20-C , 23-H ) :  -0.1223 B( 20-C , 24-C ) :   1.1998
B( 20-C , 25-H ) :   1.0340 B( 20-C , 27-H ) :  -0.2488 B( 21-H , 22-C ) :  -0.1174
B( 21-H , 23-H ) :   0.2855 B( 21-H , 24-C ) :  -0.1152 B( 22-C , 24-C ) :   1.0746
B( 22-C , 26-H ) :   0.6528 B( 22-C , 27-H ) :  -0.1026 B( 24-C , 27-H ) :   0.4121
B( 28-O , 29-N ) :  -0.1820 B( 29-N , 30-H ) :   0.8991 B( 29-N , 31-C ) :   0.9471
B( 31-C , 32-H ) :   0.9086 B( 31-C , 33-H ) :   0.9127 B( 31-C , 34-H ) :   0.9693
B( 35-C , 36-H ) :   1.0938 B( 35-C , 37-H ) :   1.1528 B( 35-C , 38-H ) :   0.8504

MP2 TOTAL ENERGY:     -992.902341947 Eh
FINAL SINGLE POINT ENERGY      -992.902341946828

DIPOLE MOMENT
-------------
                                X             Y             Z
Electronic contribution:      2.71668       2.17643      -0.43503
Nuclear contribution   :     -4.02417      -2.13881       0.16128
                        -----------------------------------------
Total Dipole Moment    :     -1.30749       0.03762      -0.27375
                        -----------------------------------------
Magnitude (a.u.)       :      1.33637
Magnitude (Debye)      :      3.39677

Rotational constants in cm-1:     0.019326     0.005933     0.005234
Rotational constants in MHz :   579.384023   177.869821   156.919621

                             ****ORCA TERMINATED NORMALLY****
TOTAL RUN TIME: 0 days 1 hours 15 minutes 49 seconds 557 msec
