                         Program Version 4.2.1 -  RELEASE  -
|  1> %pal
|  2>  nprocs 32
|  3> end
|  4> !RI-MP2 aug-cc-pVTZ aug-cc-pVTZ/C TightSCF
|  5> %maxcore 4500
|  6> *xyzfile 0 1  02_25P.xyz
|  7>
|  8>
|  9>                          ****END OF INPUT****

CARTESIAN COORDINATES (ANGSTROEM)
---------------------------------
  C     -1.001355    0.951491    0.059226
  C     -0.328733   -0.407639    0.274185
  C      1.092932   -0.321131    0.894225
  C      1.649167    1.115376    0.975288
  C      1.180723    1.991274   -0.160839
  C     -0.074306    1.926306   -0.597928
  C     -2.329128    0.563127   -0.587972
  C     -2.705783   -0.774679    0.108767
  C     -1.453211   -1.208479    0.915331
  H     -3.095907    1.330026   -0.468710
  H     -2.972669   -1.530923   -0.631076
  H     -1.555041   -0.921819    1.965923
  C      0.263877   -1.073445   -1.010644
  H     -0.126646   -2.060221   -1.267323
  H      0.270624   -0.446288   -1.904757
  C      1.616195   -1.087808   -0.318514
  O      2.689854   -1.530999   -0.603204
  H     -2.189902    0.410553   -1.661668
  H     -3.571321   -0.658409    0.762299
  H     -1.284487   -2.286765    0.887244
  H     -0.424828    2.562486   -1.404087
  H      1.888338    2.684870   -0.601078
  H     -1.224714    1.335845    1.066271
  H      1.320735    1.557152    1.923626
  H      2.739273    1.073992    1.013400
  H      1.245455   -0.848863    1.838822

 Total Charge           Charge          ....    0
 Multiplicity           Mult            ....    1
 Number of Electrons    NEL             ....   88
 Basis Dimension        Dim             ....  874

ORBITAL ENERGIES
----------------

  NO   OCC          E(Eh)            E(eV)
   0   2.0000     -20.547184      -559.1173
   1   2.0000     -11.321581      -308.0759
   2   2.0000     -11.241397      -305.8940
   3   2.0000     -11.239835      -305.8515
   4   2.0000     -11.238469      -305.8143
   5   2.0000     -11.233191      -305.6707
   6   2.0000     -11.231626      -305.6281
   7   2.0000     -11.229651      -305.5743
   8   2.0000     -11.229368      -305.5666
   9   2.0000     -11.227940      -305.5278
  10   2.0000     -11.227392      -305.5129
  11   2.0000     -11.226773      -305.4960
  12   2.0000      -1.390024       -37.8245
  13   2.0000      -1.186751       -32.2931
  14   2.0000      -1.094251       -29.7761
  15   2.0000      -1.079156       -29.3653
  16   2.0000      -0.995939       -27.1009
  17   2.0000      -0.955099       -25.9896
  18   2.0000      -0.933189       -25.3934
  19   2.0000      -0.868957       -23.6455
  20   2.0000      -0.794828       -21.6284
  21   2.0000      -0.775899       -21.1133
  22   2.0000      -0.741147       -20.1676
  23   2.0000      -0.686830       -18.6896
  24   2.0000      -0.677378       -18.4324
  25   2.0000      -0.654814       -17.8184
  26   2.0000      -0.652233       -17.7482
  27   2.0000      -0.638854       -17.3841
  28   2.0000      -0.606569       -16.5056
  29   2.0000      -0.600056       -16.3284
  30   2.0000      -0.572674       -15.5832
  31   2.0000      -0.565162       -15.3788
  32   2.0000      -0.553567       -15.0633
  33   2.0000      -0.548005       -14.9120
  34   2.0000      -0.525150       -14.2901
  35   2.0000      -0.501096       -13.6355
  36   2.0000      -0.487784       -13.2733
  37   2.0000      -0.475400       -12.9363
  38   2.0000      -0.466184       -12.6855
  39   2.0000      -0.454900       -12.3785
  40   2.0000      -0.443856       -12.0779
  41   2.0000      -0.429596       -11.6899
  42   2.0000      -0.390523       -10.6267
  43   2.0000      -0.353567        -9.6210
  44   0.0000       0.024480         0.6661
  45   0.0000       0.030677         0.8348
  46   0.0000       0.031002         0.8436
  47   0.0000       0.035860         0.9758
  48   0.0000       0.043823         1.1925

MULLIKEN ATOMIC CHARGES
-----------------------
   0 C :    0.365777
   1 C :    1.758809
   2 C :   -0.864328
   3 C :   -0.168668
   4 C :   -0.669011
   5 C :   -1.106564
   6 C :   -0.806340
   7 C :   -0.643414
   8 C :   -0.893450
   9 H :    0.322061
  10 H :    0.251449
  11 H :    0.156620
  12 C :   -0.722375
  13 H :    0.300373
  14 H :    0.262775
  15 C :    0.742692
  16 O :   -1.059497
  17 H :    0.126000
  18 H :    0.251977
  19 H :    0.392680
  20 H :    0.323284
  21 H :    0.588370
  22 H :    0.397932
  23 H :    0.191833
  24 H :    0.122032
  25 H :    0.378983
Sum of atomic charges:    0.0000000

LOEWDIN ATOMIC CHARGES
----------------------
   0 C :   -0.029803
   1 C :   -0.281773
   2 C :    0.080738
   3 C :    0.303494
   4 C :    0.250172
   5 C :    0.254437
   6 C :    0.333036
   7 C :    0.344201
   8 C :    0.331042
   9 H :   -0.136438
  10 H :   -0.145845
  11 H :   -0.133951
  12 C :    0.376446
  13 H :   -0.132414
  14 H :   -0.139918
  15 C :   -0.460922
  16 O :    0.459931
  17 H :   -0.141372
  18 H :   -0.146281
  19 H :   -0.135374
  20 H :   -0.163915
  21 H :   -0.173361
  22 H :   -0.113806
  23 H :   -0.139385
  24 H :   -0.145580
  25 H :   -0.113362

  Mayer bond orders larger than 0.100000
B(  0-C ,  1-C ) :   0.8795 B(  0-C ,  5-C ) :   0.5391 B(  0-C ,  6-C ) :   0.8342
B(  0-C , 22-H ) :   0.9166 B(  1-C ,  2-C ) :   0.5883 B(  1-C ,  4-C ) :   0.1079
B(  1-C ,  5-C ) :   0.4797 B(  1-C ,  6-C ) :  -0.2710 B(  1-C ,  7-C ) :  -0.3160
B(  1-C ,  8-C ) :   0.2120 B(  1-C , 12-C ) :   0.4233 B(  1-C , 15-C ) :  -0.8451
B(  1-C , 16-O ) :   0.1095 B(  1-C , 22-H ) :  -0.1101 B(  2-C ,  3-C ) :   0.8896
B(  2-C ,  4-C ) :   0.1122 B(  2-C ,  5-C ) :  -0.1319 B(  2-C ,  8-C ) :  -0.2006
B(  2-C , 12-C ) :   0.1259 B(  2-C , 15-C ) :   1.4823 B(  2-C , 16-O ) :   0.2171
B(  2-C , 25-H ) :   0.7486 B(  3-C ,  4-C ) :   0.6065 B(  3-C , 15-C ) :   0.1117
B(  3-C , 23-H ) :   1.0550 B(  3-C , 24-H ) :   1.0318 B(  4-C ,  5-C ) :   1.6860
B(  4-C , 21-H ) :   0.4810 B(  5-C ,  6-C ) :  -0.1061 B(  5-C , 12-C ) :  -0.1338
B(  5-C , 20-H ) :   0.9798 B(  5-C , 22-H ) :  -0.1138 B(  6-C ,  7-C ) :   1.0699
B(  6-C ,  8-C ) :   0.2682 B(  6-C ,  9-H ) :   0.8827 B(  6-C , 17-H ) :   1.2000
B(  7-C ,  8-C ) :   1.1751 B(  7-C , 10-H ) :   1.0123 B(  7-C , 18-H ) :   0.9600
B(  8-C , 10-H ) :   0.1041 B(  8-C , 11-H ) :   1.1669 B(  8-C , 19-H ) :   0.8922
B( 12-C , 13-H ) :   0.9148 B( 12-C , 14-H ) :   1.0240 B( 12-C , 15-C ) :   1.2206
B( 15-C , 16-O ) :   0.4905 B( 16-O , 24-H ) :   0.1052

MP2 TOTAL ENERGY:     -501.762612578 Eh
FINAL SINGLE POINT ENERGY      -501.762612578028

DIPOLE MOMENT
-------------
                                X             Y             Z
Electronic contribution:      7.81197      -1.65392      -1.10217
Nuclear contribution   :     -9.10610       2.21828       1.53765
                        -----------------------------------------
Total Dipole Moment    :     -1.29413       0.56436       0.43547
                        -----------------------------------------
Magnitude (a.u.)       :      1.47747
Magnitude (Debye)      :      3.75544

Rotational constants in cm-1:     0.050209     0.030858     0.023725
Rotational constants in MHz :  1505.230586   925.099948   711.259792

                             ****ORCA TERMINATED NORMALLY****
TOTAL RUN TIME: 0 days 0 hours 13 minutes 48 seconds 685 msec
