                         Program Version 4.2.1 -  RELEASE  -
|  1> %pal
|  2>  nprocs 32
|  3> end
|  4> !RI-MP2 aug-cc-pVTZ aug-cc-pVTZ/C TightSCF
|  5> %maxcore 4500
|  6> *xyzfile 1 1  03_16P2.xyz
|  7>
|  8>
|  9>                          ****END OF INPUT****

CARTESIAN COORDINATES (ANGSTROEM)
---------------------------------
  C      0.000000   -1.817884    0.000000
  C      0.000000   -1.124983    1.205530
  C      0.000000    0.251864    1.193572
  N      0.000000    0.853443    0.000000
  C      0.000000    0.251864   -1.193572
  C      0.000000   -1.124983   -1.205530
  F      0.000001    2.199176    0.000000
  H      0.000001   -2.900678    0.000000
  H     -0.000001   -1.639272    2.156841
  H      0.000000    0.898636    2.060973
  H      0.000000    0.898636   -2.060973
  H     -0.000001   -1.639272   -2.156841

 Total Charge           Charge          ....    1
 Multiplicity           Mult            ....    1
 Number of Electrons    NEL             ....   50
 Basis Dimension        Dim             ....  437

ORBITAL ENERGIES
----------------

  NO   OCC          E(Eh)            E(eV)
   0   2.0000     -26.568679      -722.9705
   1   2.0000     -15.962182      -434.3531
   2   2.0000     -11.524961      -313.6101
   3   2.0000     -11.524929      -313.6093
   4   2.0000     -11.477999      -312.3322
   5   2.0000     -11.458920      -311.8131
   6   2.0000     -11.458870      -311.8117
   7   2.0000      -1.892312       -51.4924
   8   2.0000      -1.525213       -41.5031
   9   2.0000      -1.313322       -35.7373
  10   2.0000      -1.296624       -35.2829
  11   2.0000      -1.127111       -30.6703
  12   2.0000      -1.099591       -29.9214
  13   2.0000      -1.001507       -27.2524
  14   2.0000      -0.962476       -26.1903
  15   2.0000      -0.939654       -25.5693
  16   2.0000      -0.915903       -24.9230
  17   2.0000      -0.868587       -23.6355
  18   2.0000      -0.857331       -23.3292
  19   2.0000      -0.834597       -22.7105
  20   2.0000      -0.787711       -21.4347
  21   2.0000      -0.754710       -20.5367
  22   2.0000      -0.748202       -20.3596
  23   2.0000      -0.616317       -16.7708
  24   2.0000      -0.577814       -15.7231
  25   0.0000      -0.136574        -3.7164
  26   0.0000      -0.095143        -2.5890
  27   0.0000      -0.086927        -2.3654
  28   0.0000      -0.070894        -1.9291
  29   0.0000      -0.067544        -1.8380

MULLIKEN ATOMIC CHARGES
-----------------------
   0 C :   -0.500443
   1 C :   -0.200375
   2 C :   -0.421012
   3 N :    0.415281
   4 C :   -0.421012
   5 C :   -0.200375
   6 F :   -0.359439
   7 H :    0.638707
   8 H :    0.337485
   9 H :    0.686849
  10 H :    0.686849
  11 H :    0.337485
Sum of atomic charges:    1.0000000

LOEWDIN ATOMIC CHARGES
----------------------
   0 C :    0.284827
   1 C :    0.281922
   2 C :    0.204995
   3 N :   -0.125107
   4 C :    0.204995
   5 C :    0.281922
   6 F :    0.546081
   7 H :   -0.133080
   8 H :   -0.150881
   9 H :   -0.122396
  10 H :   -0.122396
  11 H :   -0.150881

  Mayer bond orders larger than 0.100000
B(  0-C ,  1-C ) :   1.2458 B(  0-C ,  2-C ) :   0.1460 B(  0-C ,  3-N ) :   0.1035
B(  0-C ,  4-C ) :   0.1460 B(  0-C ,  5-C ) :   1.2458 B(  0-C ,  7-H ) :   0.5710
B(  1-C ,  2-C ) :   0.9402 B(  1-C ,  3-N ) :  -0.2477 B(  1-C ,  8-H ) :   1.0161
B(  2-C ,  3-N ) :   1.3785 B(  2-C ,  4-C ) :   0.1787 B(  2-C ,  9-H ) :   0.4623
B(  3-N ,  4-C ) :   1.3785 B(  3-N ,  5-C ) :  -0.2477 B(  3-N ,  6-F ) :   0.5459
B(  4-C ,  5-C ) :   0.9402 B(  4-C , 10-H ) :   0.4623 B(  5-C , 11-H ) :   1.0161

MP2 TOTAL ENERGY:     -347.180227683 Eh
FINAL SINGLE POINT ENERGY      -347.180227682747

DIPOLE MOMENT
-------------
                                X             Y             Z
Electronic contribution:      0.00000       5.42801       0.00000
Nuclear contribution   :     -0.00000      -6.39406       0.00000
                        -----------------------------------------
Total Dipole Moment    :     -0.00000      -0.96606       0.00000
                        -----------------------------------------
Magnitude (a.u.)       :      0.96606
Magnitude (Debye)      :      2.45552

Rotational constants in cm-1:     0.193599     0.089290     0.061107
Rotational constants in MHz :  5803.965875  2676.839375  1831.935049

                             ****ORCA TERMINATED NORMALLY****
TOTAL RUN TIME: 0 days 0 hours 1 minutes 21 seconds 133 msec
