                         Program Version 4.2.1 -  RELEASE  -
|  1> %pal
|  2>  nprocs 32
|  3> end
|  4> !RI-MP2 aug-cc-pVTZ aug-cc-pVTZ/C TightSCF
|  5> %maxcore 4500
|  6> *xyzfile -1 1  09_20P.xyz
|  7>
|  8>
|  9>                          ****END OF INPUT****

CARTESIAN COORDINATES (ANGSTROEM)
---------------------------------
  C      0.177114   -0.160690    1.748036
  N     -0.334291    1.157945    1.383286
  C      0.280459    1.870915    0.528104
  C      1.513216    1.394336   -0.220430
  O      1.947296    2.084183   -1.123536
  C      2.033691    0.049072    0.152418
  C      2.951088   -0.581243   -0.889515
  C     -0.279707    3.193571    0.105282
  H     -1.132908    3.444997    0.732803
  H     -0.595741    3.145157   -0.939088
  H      0.481643    3.973479    0.169690
  C      0.857201   -0.919377    0.591225
  H      0.918601   -0.056591    2.544880
  H     -0.647109   -0.755840    2.139055
  O      1.334375   -2.107454    0.982329
  C     -0.142700   -1.045105   -0.603560
  O     -1.473969   -1.414956   -0.202244
  H      0.224062   -1.870275   -1.212890
  H     -0.199313   -0.146543   -1.219810
  C     -2.540484   -0.547705   -0.329147
  O     -3.645629   -1.367626   -0.546777
  O     -2.820644    0.210963    0.785659
  O     -2.381680    0.345386   -1.409359
  O      3.470265   -1.796621   -0.411600
  H      2.730573   -2.165573    0.168358
  H     -4.387000   -0.913442   -0.135058
  H     -2.331214   -0.192106   -2.207001
  H     -2.035937    0.739525    1.059492
  H      3.777316    0.095663   -1.128260
  H      2.388784   -0.724977   -1.826713
  H      2.608903    0.167270    1.081294

 Total Charge           Charge          ....   -1
 Multiplicity           Mult            ....    1
 Number of Electrons    NEL             ....  132
 Basis Dimension        Dim             .... 1104

ORBITAL ENERGIES
----------------

  NO   OCC          E(Eh)            E(eV)
   0   2.0000     -20.468863      -556.9861
   1   2.0000     -20.464643      -556.8713
   2   2.0000     -20.449875      -556.4694
   3   2.0000     -20.449418      -556.4570
   4   2.0000     -20.444644      -556.3270
   5   2.0000     -20.377705      -554.5056
   6   2.0000     -20.288714      -552.0840
   7   2.0000     -15.466428      -420.8629
   8   2.0000     -11.334352      -308.4234
   9   2.0000     -11.225331      -305.4568
  10   2.0000     -11.187457      -304.4262
  11   2.0000     -11.142982      -303.2160
  12   2.0000     -11.135431      -303.0105
  13   2.0000     -11.134666      -302.9897
  14   2.0000     -11.128995      -302.8353
  15   2.0000     -11.116516      -302.4958
  16   2.0000     -11.099627      -302.0362
  17   2.0000      -1.380774       -37.5728
  18   2.0000      -1.290102       -35.1055
  19   2.0000      -1.248023       -33.9604
  20   2.0000      -1.239104       -33.7177
  21   2.0000      -1.235218       -33.6120
  22   2.0000      -1.192375       -32.4462
  23   2.0000      -1.148097       -31.2413
  24   2.0000      -1.108348       -30.1597
  25   2.0000      -0.934910       -25.4402
  26   2.0000      -0.918899       -25.0045
  27   2.0000      -0.852273       -23.1915
  28   2.0000      -0.816434       -22.2163
  29   2.0000      -0.780169       -21.2295
  30   2.0000      -0.743827       -20.2406
  31   2.0000      -0.692030       -18.8311
  32   2.0000      -0.662201       -18.0194
  33   2.0000      -0.648153       -17.6371
  34   2.0000      -0.632501       -17.2112
  35   2.0000      -0.605607       -16.4794
  36   2.0000      -0.579910       -15.7801
  37   2.0000      -0.560782       -15.2597
  38   2.0000      -0.549699       -14.9581
  39   2.0000      -0.527954       -14.3664
  40   2.0000      -0.526524       -14.3275
  41   2.0000      -0.517971       -14.0947
  42   2.0000      -0.499903       -13.6031
  43   2.0000      -0.486837       -13.2475
  44   2.0000      -0.470928       -12.8146
  45   2.0000      -0.462267       -12.5789
  46   2.0000      -0.452653       -12.3173
  47   2.0000      -0.450975       -12.2716
  48   2.0000      -0.440337       -11.9822
  49   2.0000      -0.440241       -11.9796
  50   2.0000      -0.429761       -11.6944
  51   2.0000      -0.416744       -11.3402
  52   2.0000      -0.410158       -11.1610
  53   2.0000      -0.397945       -10.8286
  54   2.0000      -0.390947       -10.6382
  55   2.0000      -0.377018       -10.2592
  56   2.0000      -0.372804       -10.1445
  57   2.0000      -0.359834        -9.7916
  58   2.0000      -0.352727        -9.5982
  59   2.0000      -0.345532        -9.4024
  60   2.0000      -0.321131        -8.7384
  61   2.0000      -0.307229        -8.3601
  62   2.0000      -0.287143        -7.8136
  63   2.0000      -0.271977        -7.4009
  64   2.0000      -0.203107        -5.5268
  65   2.0000      -0.193092        -5.2543
  66   0.0000       0.096774         2.6334
  67   0.0000       0.104453         2.8423
  68   0.0000       0.110349         3.0027
  69   0.0000       0.116283         3.1642
  70   0.0000       0.121163         3.2970

MULLIKEN ATOMIC CHARGES
-----------------------
   0 C :   -0.640853
   1 N :   -0.960353
   2 C :    0.898741
   3 C :    0.873142
   4 O :   -1.274595
   5 C :    0.066085
   6 C :   -0.299546
   7 C :   -1.183199
   8 H :    0.282484
   9 H :    0.270570
  10 H :    0.320511
  11 C :    2.291358
  12 H :    0.262872
  13 H :    0.214908
  14 O :   -1.635535
  15 C :   -0.638114
  16 O :   -0.712960
  17 H :    0.083727
  18 H :    0.371339
  19 C :    1.544614
  20 O :   -0.634726
  21 O :   -0.712151
  22 O :   -0.618195
  23 O :   -0.948879
  24 H :    0.257400
  25 H :    0.160186
  26 H :    0.099857
  27 H :    0.348056
  28 H :    0.295007
  29 H :    0.174871
  30 H :    0.443378
Sum of atomic charges:   -1.0000000

LOEWDIN ATOMIC CHARGES
----------------------
   0 C :    0.134152
   1 N :    0.451805
   2 C :   -0.247565
   3 C :   -0.489900
   4 O :    0.493594
   5 C :   -0.030485
   6 C :   -0.003214
   7 C :    0.561241
   8 H :   -0.181546
   9 H :   -0.168616
  10 H :   -0.178149
  11 C :   -0.746548
  12 H :   -0.154494
  13 H :   -0.167366
  14 O :    0.438853
  15 C :    0.061794
  16 O :    0.609387
  17 H :   -0.163878
  18 H :   -0.223431
  19 C :   -1.355014
  20 O :    0.815766
  21 O :    0.858640
  22 O :    0.823682
  23 O :    0.788199
  24 H :   -0.779653
  25 H :   -0.518762
  26 H :   -0.485431
  27 H :   -0.673808
  28 H :   -0.170045
  29 H :   -0.158330
  30 H :   -0.140878

  Mayer bond orders larger than 0.100000
B(  0-C ,  1-N ) :   0.6672 B(  0-C ,  2-C ) :   0.1076 B(  0-C , 11-C ) :   0.6968
B(  0-C , 12-H ) :   0.9757 B(  0-C , 13-H ) :   1.0710 B(  0-C , 14-O ) :   0.3003
B(  1-N ,  2-C ) :   0.6407 B(  1-N ,  3-C ) :   0.1676 B(  1-N ,  7-C ) :   0.1146
B(  1-N , 27-H ) :   0.1482 B(  2-C ,  3-C ) :   0.9847 B(  2-C ,  7-C ) :   0.4955
B(  2-C , 11-C ) :  -0.1224 B(  3-C ,  4-O ) :   0.4299 B(  3-C ,  5-C ) :   1.1092
B(  3-C , 30-H ) :  -0.1883 B(  4-O ,  6-C ) :   0.1059 B(  5-C ,  6-C ) :   0.6635
B(  5-C , 11-C ) :   0.8200 B(  5-C , 14-O ) :   0.2248 B(  5-C , 29-H ) :  -0.1103
B(  5-C , 30-H ) :   0.8950 B(  6-C , 23-O ) :   0.6407 B(  6-C , 28-H ) :   1.0204
B(  6-C , 29-H ) :   1.1363 B(  7-C ,  8-H ) :   0.9761 B(  7-C ,  9-H ) :   1.0518
B(  7-C , 10-H ) :   0.9679 B( 11-C , 14-O ) :  -1.1593 B( 11-C , 15-C ) :   0.6524
B( 14-O , 15-C ) :   0.4538 B( 14-O , 17-H ) :   0.1555 B( 14-O , 24-H ) :   0.3256
B( 15-C , 16-O ) :   0.6150 B( 15-C , 17-H ) :   1.2015 B( 15-C , 18-H ) :   0.9889
B( 16-O , 18-H ) :  -0.1078 B( 16-O , 19-C ) :   0.9771 B( 19-C , 20-O ) :   0.5840
B( 19-C , 21-O ) :   0.8101 B( 19-C , 22-O ) :   0.5191 B( 20-O , 21-O ) :  -0.1057
B( 20-O , 25-H ) :   1.0630 B( 21-O , 27-H ) :   0.5975 B( 22-O , 26-H ) :   1.0320
B( 23-O , 24-H ) :   0.7070

MP2 TOTAL ENERGY:     -931.238430193 Eh
FINAL SINGLE POINT ENERGY      -931.238430193378

DIPOLE MOMENT
-------------
                                X             Y             Z
Electronic contribution:     -3.61394      -2.01869       0.24105
Nuclear contribution   :      1.72709       4.64256      -0.78849
                        -----------------------------------------
Total Dipole Moment    :     -1.88685       2.62386      -0.54744
                        -----------------------------------------
Magnitude (a.u.)       :      3.27788
Magnitude (Debye)      :      8.33172

Rotational constants in cm-1:     0.022677     0.013103     0.010344
Rotational constants in MHz :   679.839835   392.832992   310.119638

                             ****ORCA TERMINATED NORMALLY****
TOTAL RUN TIME: 0 days 0 hours 27 minutes 39 seconds 226 msec
