                         Program Version 4.2.1 -  RELEASE  -
|  1> %pal
|  2>  nprocs 32
|  3> end
|  4> !RI-MP2 aug-cc-pVTZ aug-cc-pVTZ/C TightSCF
|  5> %maxcore 4500
|  6> *xyzfile -1 1  07_2TS.xyz
|  7>
|  8>
|  9>                          ****END OF INPUT****

CARTESIAN COORDINATES (ANGSTROEM)
---------------------------------
  O      2.320508    0.733853   -0.000022
  H      1.444652    1.565034    0.000001
  O      2.264558   -1.504860   -0.000051
  O      0.356313    2.062090    0.000023
  C      1.708776   -0.412726   -0.000029
  C      0.207256   -0.302110   -0.000007
  C     -0.390631    0.984991    0.000019
  C     -1.797874    1.060467    0.000039
  H     -2.253398    2.044270    0.000058
  C     -2.566259   -0.088114    0.000034
  H     -3.649140   -0.001944    0.000050
  C     -1.973405   -1.351995    0.000009
  C     -0.588921   -1.439026   -0.000011
  H     -2.584452   -2.247331    0.000006
  H     -0.082341   -2.397603   -0.000031

 Total Charge           Charge          ....   -1
 Multiplicity           Mult            ....    1
 Number of Electrons    NEL             ....   72
 Basis Dimension        Dim             ....  575

ORBITAL ENERGIES
----------------

  NO   OCC          E(Eh)            E(eV)
   0   2.0000     -20.374792      -554.4263
   1   2.0000     -20.370954      -554.3218
   2   2.0000     -20.347803      -553.6919
   3   2.0000     -11.194032      -304.6051
   4   2.0000     -11.156748      -303.5905
   5   2.0000     -11.115380      -302.4649
   6   2.0000     -11.104346      -302.1646
   7   2.0000     -11.089691      -301.7658
   8   2.0000     -11.086000      -301.6654
   9   2.0000     -11.078081      -301.4499
  10   2.0000      -1.251783       -34.0627
  11   2.0000      -1.203185       -32.7403
  12   2.0000      -1.139984       -31.0205
  13   2.0000      -1.005909       -27.3722
  14   2.0000      -0.888132       -24.1673
  15   2.0000      -0.855916       -23.2907
  16   2.0000      -0.716807       -19.5053
  17   2.0000      -0.674525       -18.3548
  18   2.0000      -0.623326       -16.9616
  19   2.0000      -0.563792       -15.3416
  20   2.0000      -0.540057       -14.6957
  21   2.0000      -0.513128       -13.9629
  22   2.0000      -0.470936       -12.8148
  23   2.0000      -0.458040       -12.4639
  24   2.0000      -0.449652       -12.2356
  25   2.0000      -0.444286       -12.0896
  26   2.0000      -0.409463       -11.1421
  27   2.0000      -0.394620       -10.7382
  28   2.0000      -0.392319       -10.6755
  29   2.0000      -0.353944        -9.6313
  30   2.0000      -0.331539        -9.0216
  31   2.0000      -0.269062        -7.3215
  32   2.0000      -0.266468        -7.2510
  33   2.0000      -0.255406        -6.9500
  34   2.0000      -0.208429        -5.6716
  35   2.0000      -0.155884        -4.2418
  36   0.0000       0.104331         2.8390
  37   0.0000       0.111179         3.0253
  38   0.0000       0.123175         3.3518
  39   0.0000       0.135609         3.6901
  40   0.0000       0.146208         3.9785

MULLIKEN ATOMIC CHARGES
-----------------------
   0 O :   -0.634672
   1 H :    0.271317
   2 O :   -0.897868
   3 O :   -1.026018
   4 C :    0.406778
   5 C :    1.418436
   6 C :    0.444363
   7 C :   -0.839367
   8 H :    0.546240
   9 C :   -0.318054
  10 H :    0.340418
  11 C :   -0.485520
  12 C :   -0.905381
  13 H :    0.562632
  14 H :    0.116696
Sum of atomic charges:   -1.0000000

LOEWDIN ATOMIC CHARGES
----------------------
   0 O :    0.631126
   1 H :   -0.899083
   2 O :    0.342188
   3 O :    0.654327
   4 C :   -0.948384
   5 C :   -0.130196
   6 C :   -0.469141
   7 C :    0.184771
   8 H :   -0.205837
   9 C :    0.137137
  10 H :   -0.195707
  11 C :    0.153623
  12 C :    0.156975
  13 H :   -0.215600
  14 H :   -0.196200

  Mayer bond orders larger than 0.100000
B(  0-O ,  1-H ) :   0.4635 B(  0-O ,  4-C ) :   1.1888 B(  1-H ,  3-O ) :   0.5685
B(  2-O ,  4-C ) :   1.3298 B(  3-O ,  5-C ) :  -0.1827 B(  3-O ,  6-C ) :   0.7176
B(  3-O ,  7-C ) :   0.1732 B(  4-C ,  5-C ) :   0.3459 B(  4-C ,  6-C ) :   0.1671
B(  5-C ,  6-C ) :   0.8722 B(  5-C , 12-C ) :   0.6000 B(  5-C , 14-H ) :  -0.1630
B(  6-C ,  7-C ) :   1.2523 B(  6-C ,  9-C ) :  -0.2365 B(  6-C , 10-H ) :   0.2058
B(  6-C , 11-C ) :   0.1095 B(  6-C , 12-C ) :  -0.1247 B(  6-C , 14-H ) :   0.1095
B(  7-C ,  8-H ) :   0.5370 B(  7-C ,  9-C ) :   1.2285 B(  7-C , 10-H ) :  -0.1403
B(  7-C , 11-C ) :   0.1085 B(  7-C , 12-C ) :   0.1140 B(  9-C , 10-H ) :   0.9531
B(  9-C , 11-C ) :   1.1410 B(  9-C , 12-C ) :  -0.1757 B( 10-H , 11-C ) :  -0.2072
B( 10-H , 12-C ) :   0.1516 B( 11-C , 12-C ) :   1.1746 B( 11-C , 13-H ) :   0.6569
B( 11-C , 14-H ) :  -0.1173 B( 12-C , 13-H ) :  -0.2220 B( 12-C , 14-H ) :   1.4035

MP2 TOTAL ENERGY:     -494.672686215 Eh
FINAL SINGLE POINT ENERGY      -494.672686215152

DIPOLE MOMENT
-------------
                                X             Y             Z
Electronic contribution:      4.44448       0.76267      -0.00005
Nuclear contribution   :     -6.85299      -0.98925       0.00008
                        -----------------------------------------
Total Dipole Moment    :     -2.40851      -0.22657       0.00003
                        -----------------------------------------
Magnitude (a.u.)       :      2.41914
Magnitude (Debye)      :      6.14897

Rotational constants in cm-1:     0.081995     0.041767     0.027672
Rotational constants in MHz :  2458.157431  1252.152853   829.577206

                             ****ORCA TERMINATED NORMALLY****
TOTAL RUN TIME: 0 days 0 hours 3 minutes 25 seconds 498 msec
