                         Program Version 4.2.1 -  RELEASE  -
|  1> %pal
|  2>  nprocs 32
|  3> end
|  4> !RI-MP2 aug-cc-pVTZ aug-cc-pVTZ/C TightSCF
|  5> %maxcore 4500
|  6> *xyzfile 0 1  10_53P.xyz
|  7>
|  8>
|  9>                          ****END OF INPUT****

CARTESIAN COORDINATES (ANGSTROEM)
---------------------------------
  C      0.166942    1.373663    1.284477
  N     -0.412046    0.058528    1.077348
  C      0.379465   -1.095988    1.453088
  C      1.421455   -1.551286    0.427723
  C      2.686376   -0.703281    0.378821
  C      2.686401    0.704638   -0.354184
  C      1.406383    1.261261   -0.962245
  C      0.570262    2.102397   -0.000852
  C      3.706800   -1.104369   -0.667223
  C      3.689007    0.068275   -1.295132
  C     -1.611218   -0.090850    0.401623
  C     -2.488915    0.994400    0.235730
  C     -3.699773    0.840699   -0.417273
  C     -4.087032   -0.388372   -0.933196
  C     -3.226754   -1.465652   -0.782149
  C     -2.009149   -1.327105   -0.135182
  H     -0.513373    2.006803    1.865585
  H      1.049234    1.231290    1.909913
  H      0.885436   -0.861481    2.395514
  H     -0.301295   -1.918153    1.677845
  H      0.965411   -1.609579   -0.563959
  H      1.725100   -2.572906    0.685167
  H      1.680084    1.890114   -1.815452
  H      0.799409    0.450599   -1.373375
  H      1.130368    2.998801    0.287833
  H     -0.321881    2.450112   -0.525561
  H     -2.232705    1.965117    0.634995
  H     -4.352487    1.700281   -0.518525
  H     -5.033976   -0.501780   -1.444982
  H     -3.497830   -2.435621   -1.183121
  H     -1.360451   -2.188196   -0.064032
  H      4.215419    0.461808   -2.157143
  H      4.253153   -2.027458   -0.822989
  H      3.106641   -0.635246    1.389792
  H      3.146549    1.475212    0.276902

 Total Charge           Charge          ....    0
 Multiplicity           Mult            ....    1
 Number of Electrons    NEL             ....  116
 Basis Dimension        Dim             .... 1173

ORBITAL ENERGIES
----------------

  NO   OCC          E(Eh)            E(eV)
   0   2.0000     -15.558847      -423.3777
   1   2.0000     -11.273821      -306.7763
   2   2.0000     -11.256090      -306.2938
   3   2.0000     -11.256043      -306.2925
   4   2.0000     -11.233140      -305.6693
   5   2.0000     -11.230984      -305.6106
   6   2.0000     -11.227533      -305.5167
   7   2.0000     -11.227472      -305.5150
   8   2.0000     -11.225724      -305.4675
   9   2.0000     -11.223970      -305.4198
  10   2.0000     -11.219879      -305.3084
  11   2.0000     -11.217037      -305.2311
  12   2.0000     -11.215166      -305.1802
  13   2.0000     -11.214823      -305.1708
  14   2.0000     -11.214503      -305.1621
  15   2.0000     -11.210184      -305.0446
  16   2.0000      -1.258047       -34.2332
  17   2.0000      -1.161124       -31.5958
  18   2.0000      -1.133311       -30.8390
  19   2.0000      -1.065931       -29.0055
  20   2.0000      -1.032131       -28.0857
  21   2.0000      -1.007525       -27.4162
  22   2.0000      -0.990009       -26.9395
  23   2.0000      -0.951614       -25.8947
  24   2.0000      -0.895139       -24.3580
  25   2.0000      -0.864561       -23.5259
  26   2.0000      -0.824671       -22.4404
  27   2.0000      -0.808925       -22.0120
  28   2.0000      -0.801210       -21.8020
  29   2.0000      -0.762771       -20.7560
  30   2.0000      -0.708450       -19.2779
  31   2.0000      -0.694530       -18.8991
  32   2.0000      -0.684463       -18.6252
  33   2.0000      -0.656806       -17.8726
  34   2.0000      -0.648985       -17.6598
  35   2.0000      -0.632024       -17.1982
  36   2.0000      -0.619617       -16.8606
  37   2.0000      -0.604638       -16.4530
  38   2.0000      -0.594819       -16.1858
  39   2.0000      -0.581728       -15.8296
  40   2.0000      -0.576866       -15.6973
  41   2.0000      -0.566795       -15.4233
  42   2.0000      -0.553086       -15.0502
  43   2.0000      -0.533031       -14.5045
  44   2.0000      -0.526273       -14.3206
  45   2.0000      -0.507313       -13.8047
  46   2.0000      -0.500916       -13.6306
  47   2.0000      -0.497186       -13.5291
  48   2.0000      -0.491658       -13.3787
  49   2.0000      -0.479912       -13.0591
  50   2.0000      -0.472676       -12.8622
  51   2.0000      -0.458026       -12.4635
  52   2.0000      -0.435931       -11.8623
  53   2.0000      -0.425352       -11.5744
  54   2.0000      -0.396623       -10.7927
  55   2.0000      -0.351438        -9.5631
  56   2.0000      -0.331862        -9.0304
  57   2.0000      -0.274719        -7.4755
  58   0.0000       0.026285         0.7152
  59   0.0000       0.029217         0.7950
  60   0.0000       0.031605         0.8600
  61   0.0000       0.031810         0.8656
  62   0.0000       0.039912         1.0861

MULLIKEN ATOMIC CHARGES
-----------------------
   0 C :   -0.606570
   1 N :   -0.313414
   2 C :   -0.747823
   3 C :   -0.223907
   4 C :    0.243937
   5 C :    0.276968
   6 C :   -0.399880
   7 C :   -0.451069
   8 C :   -1.186509
   9 C :   -1.353519
  10 C :    1.411358
  11 C :   -0.317783
  12 C :   -0.975878
  13 C :   -0.352983
  14 C :   -0.903739
  15 C :   -0.175616
  16 H :    0.207415
  17 H :    0.130671
  18 H :    0.289790
  19 H :    0.202123
  20 H :    0.148708
  21 H :    0.434121
  22 H :    0.396263
  23 H :    0.158378
  24 H :    0.257413
  25 H :    0.287412
  26 H :    0.249016
  27 H :    0.310127
  28 H :    0.634329
  29 H :    0.357221
  30 H :    0.063074
  31 H :    0.518475
  32 H :    0.536721
  33 H :    0.387456
  34 H :    0.507710
Sum of atomic charges:    0.0000000

LOEWDIN ATOMIC CHARGES
----------------------
   0 C :    0.202698
   1 N :    0.299768
   2 C :    0.202446
   3 C :    0.313380
   4 C :    0.004238
   5 C :    0.003749
   6 C :    0.306120
   7 C :    0.310842
   8 C :    0.280173
   9 C :    0.282170
  10 C :   -0.200817
  11 C :    0.222413
  12 C :    0.189715
  13 C :    0.183201
  14 C :    0.188353
  15 C :    0.226835
  16 H :   -0.139057
  17 H :   -0.150102
  18 H :   -0.138732
  19 H :   -0.160942
  20 H :   -0.154040
  21 H :   -0.133024
  22 H :   -0.134404
  23 H :   -0.152018
  24 H :   -0.135708
  25 H :   -0.158288
  26 H :   -0.208834
  27 H :   -0.178824
  28 H :   -0.194396
  29 H :   -0.179293
  30 H :   -0.207099
  31 H :   -0.166003
  32 H :   -0.166331
  33 H :   -0.129296
  34 H :   -0.128892

  Mayer bond orders larger than 0.100000
B(  0-C ,  1-N ) :   1.1936 B(  0-C ,  2-C ) :  -0.1717 B(  0-C ,  7-C ) :   0.8055
B(  0-C , 16-H ) :   1.0357 B(  0-C , 17-H ) :   1.1654 B(  1-N ,  2-C ) :   1.1394
B(  1-N ,  3-C ) :  -0.1327 B(  1-N , 10-C ) :   0.5082 B(  1-N , 11-C ) :  -0.2543
B(  1-N , 15-C ) :  -0.4838 B(  1-N , 17-H ) :  -0.1179 B(  1-N , 18-H ) :  -0.1410
B(  1-N , 30-H ) :  -0.1300 B(  2-C ,  3-C ) :   0.8294 B(  2-C , 10-C ) :  -0.3190
B(  2-C , 11-C ) :   0.1277 B(  2-C , 18-H ) :   0.9777 B(  2-C , 19-H ) :   1.1793
B(  3-C ,  4-C ) :   0.7771 B(  3-C ,  9-C ) :   0.1040 B(  3-C , 20-H ) :   1.1621
B(  3-C , 21-H ) :   0.7993 B(  4-C ,  5-C ) :   1.0674 B(  4-C ,  8-C ) :   0.7094
B(  4-C , 21-H ) :  -0.1075 B(  4-C , 33-H ) :   0.9053 B(  5-C ,  6-C ) :   0.7516
B(  5-C ,  8-C ) :  -0.2224 B(  5-C ,  9-C ) :   0.5355 B(  5-C , 34-H ) :   0.8872
B(  6-C ,  7-C ) :   0.8716 B(  6-C , 22-H ) :   0.8479 B(  6-C , 23-H ) :   1.1497
B(  7-C , 22-H ) :  -0.1055 B(  7-C , 24-H ) :   0.9324 B(  7-C , 25-H ) :   1.0259
B(  8-C ,  9-C ) :   1.6128 B(  8-C , 32-H ) :   0.8127 B(  8-C , 33-H ) :  -0.2217
B(  9-C , 31-H ) :   0.8369 B(  9-C , 34-H ) :  -0.3493 B( 10-C , 11-C ) :   0.8724
B( 10-C , 13-C ) :  -0.1611 B( 10-C , 15-C ) :   0.7003 B( 10-C , 26-H ) :  -0.2869
B( 10-C , 30-H ) :  -0.2256 B( 11-C , 12-C ) :   1.0210 B( 11-C , 13-C ) :   0.1041
B( 11-C , 15-C ) :  -0.4178 B( 11-C , 26-H ) :   1.2313 B( 12-C , 13-C ) :   1.1400
B( 12-C , 14-C ) :   0.1090 B( 12-C , 27-H ) :   0.9861 B( 12-C , 28-H ) :  -0.1140
B( 13-C , 14-C ) :   1.1886 B( 13-C , 15-C ) :   0.1066 B( 13-C , 28-H ) :   0.5124
B( 14-C , 15-C ) :   1.1395 B( 14-C , 28-H ) :  -0.1573 B( 14-C , 29-H ) :   0.9044
B( 15-C , 30-H ) :   1.5477

MP2 TOTAL ENERGY:     -636.383116785 Eh
FINAL SINGLE POINT ENERGY      -636.383116784533

DIPOLE MOMENT
-------------
                                X             Y             Z
Electronic contribution:     -4.83996      -1.81934      -0.45057
Nuclear contribution   :      5.45386       1.92001       0.67477
                        -----------------------------------------
Total Dipole Moment    :      0.61390       0.10067       0.22420
                        -----------------------------------------
Magnitude (a.u.)       :      0.66126
Magnitude (Debye)      :      1.68079

Rotational constants in cm-1:     0.036879     0.011291     0.010341
Rotational constants in MHz :  1105.617273   338.491002   310.008187

                             ****ORCA TERMINATED NORMALLY****
TOTAL RUN TIME: 0 days 0 hours 33 minutes 32 seconds 696 msec
