                         Program Version 4.2.1 -  RELEASE  -
|  1> %pal
|  2>  nprocs 32
|  3> end
|  4> !RI-MP2 aug-cc-pVTZ aug-cc-pVTZ/C TightSCF
|  5> %maxcore 4500
|  6> *xyzfile 0 1  02_34P.xyz
|  7>
|  8>
|  9>                          ****END OF INPUT****

CARTESIAN COORDINATES (ANGSTROEM)
---------------------------------
  C     -0.014285   -0.112511    2.016472
  C     -1.920039   -0.370631    0.602299
  C      0.500411    1.053005    1.201300
  C     -1.580044    0.755934   -0.065234
  C     -2.601022    1.009616   -1.132694
  C     -1.123228   -0.794882    1.726801
  C     -3.145130   -0.899349    0.041109
  C      1.889278    0.790829    0.567977
  C      2.949553    0.685135    1.673936
  H      2.836848   -0.224972    2.266132
  H      2.888149    1.534855    2.361730
  H      2.138359    1.688782   -0.011990
  H      3.957941    0.678303    1.257675
  N     -0.497727    1.497909    0.200214
  C     -0.229067    2.734471   -0.501819
  H      0.213676    3.453329    0.191594
  H      0.460328    2.598351   -1.340325
  H     -1.155515    3.162572   -0.882743
  O     -3.798368   -1.859390    0.331384
  O     -3.522668   -0.061418   -1.003094
  H     -2.162296    0.992599   -2.134057
  H     -3.131659    1.955346   -0.992929
  Si     2.065693   -0.647341   -0.678612
  C      0.736712   -0.614439   -2.005974
  C      3.730433   -0.394508   -1.519421
  C      2.055236   -2.319409    0.169863
  H      1.000992   -1.315205   -2.802417
  H     -0.235367   -0.916670   -1.614373
  H      0.635781    0.372960   -2.463716
  H      3.790602    0.582378   -2.007055
  H      4.562935   -0.466971   -0.815983
  H      3.887835   -1.154701   -2.289016
  H      2.819271   -2.385935    0.947949
  H      1.088127   -2.528882    0.628435
  H      2.260432   -3.109104   -0.558054
  H      0.639847    1.907340    1.883022
  H      0.588430   -0.383558    2.873577
  H     -1.444893   -1.636503    2.327605

 Total Charge           Charge          ....    0
 Multiplicity           Mult            ....    1
 Number of Electrons    NEL             ....  136
 Basis Dimension        Dim             .... 1269

ORBITAL ENERGIES
----------------

  NO   OCC          E(Eh)            E(eV)
   0   2.0000     -68.755856     -1870.9419
   1   2.0000     -20.589741      -560.2753
   2   2.0000     -20.517760      -558.3166
   3   2.0000     -15.612688      -424.8428
   4   2.0000     -11.361655      -309.1664
   5   2.0000     -11.314233      -307.8759
   6   2.0000     -11.312989      -307.8421
   7   2.0000     -11.295271      -307.3600
   8   2.0000     -11.288363      -307.1720
   9   2.0000     -11.244239      -305.9713
  10   2.0000     -11.233838      -305.6883
  11   2.0000     -11.230300      -305.5920
  12   2.0000     -11.223700      -305.4124
  13   2.0000     -11.217238      -305.2366
  14   2.0000     -11.202010      -304.8222
  15   2.0000     -11.201047      -304.7960
  16   2.0000     -11.195966      -304.6577
  17   2.0000      -6.103470      -166.0839
  18   2.0000      -4.209722      -114.5524
  19   2.0000      -4.209620      -114.5496
  20   2.0000      -4.209570      -114.5482
  21   2.0000      -1.443670       -39.2843
  22   2.0000      -1.351440       -36.7745
  23   2.0000      -1.304382       -35.4940
  24   2.0000      -1.119522       -30.4637
  25   2.0000      -1.099635       -29.9226
  26   2.0000      -1.032035       -28.0831
  27   2.0000      -0.985451       -26.8155
  28   2.0000      -0.976117       -26.5615
  29   2.0000      -0.968139       -26.3444
  30   2.0000      -0.930484       -25.3197
  31   2.0000      -0.925725       -25.1902
  32   2.0000      -0.922176       -25.0937
  33   2.0000      -0.840968       -22.8839
  34   2.0000      -0.820347       -22.3228
  35   2.0000      -0.782785       -21.3007
  36   2.0000      -0.714240       -19.4355
  37   2.0000      -0.707260       -19.2455
  38   2.0000      -0.697812       -18.9884
  39   2.0000      -0.687534       -18.7088
  40   2.0000      -0.653415       -17.7803
  41   2.0000      -0.643254       -17.5038
  42   2.0000      -0.636852       -17.3296
  43   2.0000      -0.619518       -16.8579
  44   2.0000      -0.608028       -16.5453
  45   2.0000      -0.604205       -16.4412
  46   2.0000      -0.589670       -16.0457
  47   2.0000      -0.577238       -15.7074
  48   2.0000      -0.572119       -15.5682
  49   2.0000      -0.568129       -15.4596
  50   2.0000      -0.560325       -15.2472
  51   2.0000      -0.557278       -15.1643
  52   2.0000      -0.553942       -15.0735
  53   2.0000      -0.543856       -14.7991
  54   2.0000      -0.539621       -14.6838
  55   2.0000      -0.538782       -14.6610
  56   2.0000      -0.535558       -14.5733
  57   2.0000      -0.522794       -14.2260
  58   2.0000      -0.513730       -13.9793
  59   2.0000      -0.493066       -13.4170
  60   2.0000      -0.476882       -12.9766
  61   2.0000      -0.443534       -12.0692
  62   2.0000      -0.432930       -11.7806
  63   2.0000      -0.429577       -11.6894
  64   2.0000      -0.428903       -11.6710
  65   2.0000      -0.414227       -11.2717
  66   2.0000      -0.409018       -11.1299
  67   2.0000      -0.287293        -7.8176
  68   0.0000       0.015392         0.4188
  69   0.0000       0.024471         0.6659
  70   0.0000       0.025803         0.7021
  71   0.0000       0.031232         0.8499
  72   0.0000       0.038983         1.0608

MULLIKEN ATOMIC CHARGES
-----------------------
   0 C :   -0.273561
   1 C :    1.170770
   2 C :    0.172919
   3 C :    0.602713
   4 C :   -0.105040
   5 C :   -1.219794
   6 C :    0.471282
   7 C :    0.599887
   8 C :   -1.396331
   9 H :    0.341562
  10 H :    0.169185
  11 H :    0.081845
  12 H :    0.273553
  13 N :    0.045660
  14 C :   -1.392400
  15 H :    0.287999
  16 H :    0.383409
  17 H :    0.288884
  18 O :   -1.062888
  19 O :   -0.572669
  20 H :    0.241861
  21 H :    0.278281
  22 Si:    2.678728
  23 C :   -1.440683
  24 C :   -1.742502
  25 C :   -1.439113
  26 H :    0.077684
  27 H :    0.344149
  28 H :    0.205508
  29 H :    0.242751
  30 H :    0.192089
  31 H :    0.189987
  32 H :    0.192043
  33 H :    0.411747
  34 H :    0.091274
  35 H :    0.315988
  36 H :    0.189680
  37 H :    0.103542
Sum of atomic charges:    0.0000000

LOEWDIN ATOMIC CHARGES
----------------------
   0 C :    0.253147
   1 C :   -0.136997
   2 C :   -0.113687
   3 C :   -0.231694
   4 C :    0.073017
   5 C :    0.231164
   6 C :   -0.815443
   7 C :    0.022721
   8 C :    0.543550
   9 H :   -0.177829
  10 H :   -0.154910
  11 H :   -0.204637
  12 H :   -0.169480
  13 N :    0.317638
  14 C :    0.512342
  15 H :   -0.142981
  16 H :   -0.153971
  17 H :   -0.165396
  18 O :    0.421512
  19 O :    0.588630
  20 H :   -0.137733
  21 H :   -0.142164
  22 Si:    0.534173
  23 C :    0.598901
  24 C :    0.587361
  25 C :    0.595728
  26 H :   -0.216318
  27 H :   -0.248397
  28 H :   -0.227039
  29 H :   -0.223360
  30 H :   -0.232272
  31 H :   -0.226614
  32 H :   -0.226207
  33 H :   -0.236096
  34 H :   -0.222573
  35 H :   -0.139301
  36 H :   -0.174128
  37 H :   -0.160658

  Mayer bond orders larger than 0.100000
B(  0-C ,  1-C ) :  -0.1233 B(  0-C ,  2-C ) :   0.5760 B(  0-C ,  3-C ) :   0.3770
B(  0-C ,  5-C ) :   1.6376 B(  0-C ,  6-C ) :  -0.1344 B(  0-C ,  7-C ) :   0.2258
B(  0-C , 22-Si) :   0.1409 B(  0-C , 35-H ) :  -0.1807 B(  0-C , 36-H ) :   1.0587
B(  0-C , 37-H ) :  -0.1485 B(  1-C ,  2-C ) :   0.1984 B(  1-C ,  3-C ) :   0.2161
B(  1-C ,  6-C ) :   0.7184 B(  1-C , 19-O ) :  -0.2009 B(  1-C , 37-H ) :  -0.1210
B(  2-C ,  6-C ) :  -0.1231 B(  2-C ,  7-C ) :   1.0950 B(  2-C , 13-N ) :   0.8908
B(  2-C , 22-Si) :   0.1729 B(  2-C , 35-H ) :   0.9417 B(  3-C ,  4-C ) :   0.4802
B(  3-C ,  5-C ) :   0.5874 B(  3-C ,  6-C ) :  -0.2945 B(  3-C , 13-N ) :   0.9077
B(  3-C , 14-C ) :  -0.3051 B(  3-C , 18-O ) :   0.1283 B(  3-C , 20-H ) :  -0.1179
B(  3-C , 36-H ) :   0.1250 B(  4-C ,  5-C ) :  -0.1235 B(  4-C ,  6-C ) :   0.1269
B(  4-C , 13-N ) :  -0.1670 B(  4-C , 19-O ) :   0.5112 B(  4-C , 20-H ) :   1.1157
B(  4-C , 21-H ) :   1.0621 B(  5-C ,  6-C ) :   0.3088 B(  5-C , 36-H ) :  -0.1150
B(  5-C , 37-H ) :   1.3407 B(  6-C , 18-O ) :   0.8155 B(  6-C , 19-O ) :   1.0313
B(  7-C ,  8-C ) :   0.2800 B(  7-C ,  9-H ) :  -0.1355 B(  7-C , 11-H ) :   1.0105
B(  7-C , 13-N ) :  -0.2690 B(  7-C , 22-Si) :   1.2597 B(  7-C , 23-C ) :   0.2446
B(  7-C , 25-C ) :   0.1049 B(  8-C ,  9-H ) :   1.0455 B(  8-C , 10-H ) :   1.1343
B(  8-C , 12-H ) :   1.0909 B(  8-C , 22-Si) :  -0.1211 B( 11-H , 22-Si) :  -0.1292
B( 13-N , 14-C ) :   1.0668 B( 14-C , 15-H ) :   1.0525 B( 14-C , 16-H ) :   0.9420
B( 14-C , 17-H ) :   0.9878 B( 18-O , 19-O ) :  -0.1252 B( 18-O , 37-H ) :   0.1501
B( 22-Si, 23-C ) :   0.1227 B( 22-Si, 24-C ) :  -0.4465 B( 22-Si, 27-H ) :   0.1019
B( 22-Si, 31-H ) :  -0.1206 B( 23-C , 24-C ) :   0.2063 B( 23-C , 25-C ) :   0.1288
B( 23-C , 26-H ) :   1.1011 B( 23-C , 27-H ) :   0.9124 B( 23-C , 28-H ) :   1.0883
B( 24-C , 25-C ) :   0.1928 B( 24-C , 29-H ) :   1.0449 B( 24-C , 30-H ) :   1.1368
B( 24-C , 31-H ) :   1.1686 B( 25-C , 32-H ) :   1.0970 B( 25-C , 33-H ) :   0.8935
B( 25-C , 34-H ) :   1.2179

MP2 TOTAL ENERGY:    -1000.917370718 Eh
FINAL SINGLE POINT ENERGY     -1000.917370718095

DIPOLE MOMENT
-------------
                                X             Y             Z
Electronic contribution:    -23.58284      -2.70703       2.99384
Nuclear contribution   :     25.80177       4.89915      -3.19336
                        -----------------------------------------
Total Dipole Moment    :      2.21893       2.19212      -0.19953
                        -----------------------------------------
Magnitude (a.u.)       :      3.12552
Magnitude (Debye)      :      7.94443

Rotational constants in cm-1:     0.023010     0.010070     0.009720
Rotational constants in MHz :   689.832193   301.884581   291.396693

                             ****ORCA TERMINATED NORMALLY****
TOTAL RUN TIME: 0 days 0 hours 51 minutes 6 seconds 575 msec
