                         Program Version 4.2.1 -  RELEASE  -
|  1> %pal
|  2>  nprocs 32
|  3> end
|  4> !RI-MP2 aug-cc-pVTZ aug-cc-pVTZ/C TightSCF
|  5> %maxcore 4500
|  6> *xyzfile 0 1  08_4R1.xyz
|  7>
|  8>
|  9>                          ****END OF INPUT****

CARTESIAN COORDINATES (ANGSTROEM)
---------------------------------
  C      0.017002   -1.340961    0.113846
  S      1.489084   -0.305596   -0.150637
  S     -1.504008   -0.318402    0.028260
  C      0.688534    1.238736    0.372295
  C     -0.679396    1.279110   -0.280191
  H      1.320196    2.060715    0.033047
  H      0.608918    1.276970    1.459111
  H     -0.591310    1.453121   -1.351840
  H     -1.309074    2.054063    0.158923
  H      0.050857   -1.822555    1.088718
  H      0.002358   -2.099646   -0.665627

 Total Charge           Charge          ....    0
 Multiplicity           Mult            ....    1
 Number of Electrons    NEL             ....   56
 Basis Dimension        Dim             ....  376

ORBITAL ENERGIES
----------------

  NO   OCC          E(Eh)            E(eV)
   0   2.0000     -91.957860     -2502.3006
   1   2.0000     -91.954753     -2502.2160
   2   2.0000     -11.287494      -307.1483
   3   2.0000     -11.271428      -306.7111
   4   2.0000     -11.269453      -306.6574
   5   2.0000      -8.958351      -243.7691
   6   2.0000      -8.955151      -243.6820
   7   2.0000      -6.639513      -180.6703
   8   2.0000      -6.638642      -180.6466
   9   2.0000      -6.637578      -180.6177
  10   2.0000      -6.636322      -180.5835
  11   2.0000      -6.635440      -180.5595
  12   2.0000      -6.634404      -180.5313
  13   2.0000      -1.132047       -30.8046
  14   2.0000      -1.004142       -27.3241
  15   2.0000      -0.979259       -26.6470
  16   2.0000      -0.803136       -21.8544
  17   2.0000      -0.797022       -21.6881
  18   2.0000      -0.655172       -17.8281
  19   2.0000      -0.623174       -16.9574
  20   2.0000      -0.609557       -16.5869
  21   2.0000      -0.552558       -15.0359
  22   2.0000      -0.511030       -13.9058
  23   2.0000      -0.499169       -13.5831
  24   2.0000      -0.473453       -12.8833
  25   2.0000      -0.420917       -11.4537
  26   2.0000      -0.354472        -9.6457
  27   2.0000      -0.342835        -9.3290
  28   0.0000       0.029660         0.8071
  29   0.0000       0.038154         1.0382
  30   0.0000       0.040228         1.0947
  31   0.0000       0.044983         1.2240
  32   0.0000       0.056975         1.5504

MULLIKEN ATOMIC CHARGES
-----------------------
   0 C :   -0.332413
   1 S :   -0.278508
   2 S :   -0.275932
   3 C :   -0.385913
   4 C :   -0.390444
   5 H :    0.313723
   6 H :    0.261922
   7 H :    0.276293
   8 H :    0.292645
   9 H :    0.240468
  10 H :    0.278158
Sum of atomic charges:    0.0000000

LOEWDIN ATOMIC CHARGES
----------------------
   0 C :   -0.420201
   1 S :    1.138514
   2 S :    1.132907
   3 C :   -0.157414
   4 C :   -0.158367
   5 H :   -0.225630
   6 H :   -0.223382
   7 H :   -0.231898
   8 H :   -0.229366
   9 H :   -0.310429
  10 H :   -0.314734

  Mayer bond orders larger than 0.100000
B(  0-C ,  1-S ) :   0.9858 B(  0-C ,  2-S ) :   0.9668 B(  0-C ,  9-H ) :   0.9494
B(  0-C , 10-H ) :   0.9404 B(  1-S ,  2-S ) :   0.1026 B(  1-S ,  3-C ) :   0.9658
B(  2-S ,  4-C ) :   0.9548 B(  3-C ,  4-C ) :   0.9914 B(  3-C ,  5-H ) :   0.8922
B(  3-C ,  6-H ) :   0.9352 B(  4-C ,  7-H ) :   0.9356 B(  4-C ,  8-H ) :   0.9088

MP2 TOTAL ENERGY:     -913.108081449 Eh
FINAL SINGLE POINT ENERGY      -913.108081448945

DIPOLE MOMENT
-------------
                                X             Y             Z
Electronic contribution:     -0.01979      -2.45601      -0.57753
Nuclear contribution   :      0.08161       2.91342       0.71907
                        -----------------------------------------
Total Dipole Moment    :      0.06182       0.45741       0.14154
                        -----------------------------------------
Magnitude (a.u.)       :      0.48278
Magnitude (Debye)      :      1.22714

Rotational constants in cm-1:     0.177277     0.100205     0.068800
Rotational constants in MHz :  5314.631230  3004.071157  2062.576214

                             ****ORCA TERMINATED NORMALLY****
TOTAL RUN TIME: 0 days 0 hours 0 minutes 59 seconds 41 msec
