                         Program Version 4.2.1 -  RELEASE  -
|  1> %pal
|  2>  nprocs 32
|  3> end
|  4> !RI-MP2 aug-cc-pVTZ aug-cc-pVTZ/C TightSCF
|  5> %maxcore 4500
|  6> *xyzfile 0 2  01_30P.xyz
|  7>
|  8>
|  9>                          ****END OF INPUT****

CARTESIAN COORDINATES (ANGSTROEM)
---------------------------------
  C      0.697063    0.000359    0.609280
  C      0.560062    0.000316    2.061087
  H      1.448630    0.000685    2.678513
  H     -0.391951   -0.000077    2.568154
  C     -0.343725   -0.753690   -0.255468
  C     -0.344472    0.753342   -0.255486
  C      0.127014    1.522570   -1.474199
  H      0.922825    1.036346   -2.031138
  H      0.488367    2.511426   -1.178426
  H     -0.709153    1.673139   -2.163838
  C     -1.459367    1.515875    0.432620
  H     -2.300860    1.648776   -0.253848
  H     -1.109111    2.510233    0.722364
  H     -1.839554    1.033246    1.328277
  C     -1.457854   -1.517319    0.432663
  H     -1.838467   -1.035083    1.328352
  H     -1.106620   -2.511344    0.722368
  H     -2.299247   -1.651019   -0.253772
  C      0.128523   -1.522480   -1.474161
  H      0.923750   -1.035414   -2.031198
  H     -0.707529   -1.674018   -2.163727
  H      0.490989   -2.510918   -1.178350
  C      2.158066    0.001069    0.190922
  H      2.661806    0.883662    0.593364
  H      2.311566    0.001053   -0.884156
  H      2.662698   -0.880946    0.593512

 Total Charge           Charge          ....    0
 Multiplicity           Mult            ....    2
 Number of Electrons    NEL             ....   71
 Basis Dimension        Dim             ....  805

ORBITAL ENERGIES
----------------
                 SPIN UP ORBITALS
  NO   OCC          E(Eh)            E(eV)
   0   1.0000     -11.232359      -305.6480
   1   1.0000     -11.231661      -305.6290
   2   1.0000     -11.227262      -305.5093
   3   1.0000     -11.219525      -305.2988
   4   1.0000     -11.210624      -305.0566
   5   1.0000     -11.210617      -305.0564
   6   1.0000     -11.210175      -305.0444
   7   1.0000     -11.209291      -305.0203
   8   1.0000     -11.209285      -305.0201
   9   1.0000      -1.172200       -31.8972
  10   1.0000      -1.019889       -27.7526
  11   1.0000      -1.017111       -27.6770
  12   1.0000      -0.958065       -26.0703
  13   1.0000      -0.914686       -24.8899
  14   1.0000      -0.913634       -24.8612
  15   1.0000      -0.901886       -24.5416
  16   1.0000      -0.706969       -19.2376
  17   1.0000      -0.703118       -19.1328
  18   1.0000      -0.655825       -17.8459
  19   1.0000      -0.617073       -16.7914
  20   1.0000      -0.611566       -16.6415
  21   1.0000      -0.599195       -16.3049
  22   1.0000      -0.555696       -15.1213
  23   1.0000      -0.551954       -15.0194
  24   1.0000      -0.540534       -14.7087
  25   1.0000      -0.540130       -14.6977
  26   1.0000      -0.537400       -14.6234
  27   1.0000      -0.526965       -14.3394
  28   1.0000      -0.526842       -14.3361
  29   1.0000      -0.515683       -14.0324
  30   1.0000      -0.512228       -13.9384
  31   1.0000      -0.470316       -12.7979
  32   1.0000      -0.457272       -12.4430
  33   1.0000      -0.428130       -11.6500
  34   1.0000      -0.379215       -10.3190
  35   1.0000      -0.299065        -8.1380
  36   0.0000       0.027591         0.7508
  37   0.0000       0.033004         0.8981
  38   0.0000       0.033453         0.9103
  39   0.0000       0.033459         0.9105
  40   0.0000       0.047554         1.2940

                 SPIN DOWN ORBITALS
  NO   OCC          E(Eh)            E(eV)
   0   1.0000     -11.231984      -305.6378
   1   1.0000     -11.229270      -305.5640
   2   1.0000     -11.228637      -305.5467
   3   1.0000     -11.210688      -305.0583
   4   1.0000     -11.210681      -305.0582
   5   1.0000     -11.209811      -305.0345
   6   1.0000     -11.209488      -305.0257
   7   1.0000     -11.209482      -305.0255
   8   1.0000     -11.197082      -304.6881
   9   1.0000      -1.164581       -31.6898
  10   1.0000      -1.014240       -27.5989
  11   1.0000      -1.006284       -27.3824
  12   1.0000      -0.951029       -25.8788
  13   1.0000      -0.914509       -24.8850
  14   1.0000      -0.905641       -24.6437
  15   1.0000      -0.858856       -23.3707
  16   1.0000      -0.697308       -18.9747
  17   1.0000      -0.695242       -18.9185
  18   1.0000      -0.652520       -17.7560
  19   1.0000      -0.613556       -16.6957
  20   1.0000      -0.607777       -16.5385
  21   1.0000      -0.592684       -16.1278
  22   1.0000      -0.551692       -15.0123
  23   1.0000      -0.548822       -14.9342
  24   1.0000      -0.540260       -14.7012
  25   1.0000      -0.539745       -14.6872
  26   1.0000      -0.535421       -14.5695
  27   1.0000      -0.524315       -14.2673
  28   1.0000      -0.524289       -14.2666
  29   1.0000      -0.514280       -13.9943
  30   1.0000      -0.511820       -13.9273
  31   1.0000      -0.466026       -12.6812
  32   1.0000      -0.455935       -12.4066
  33   1.0000      -0.374007       -10.1773
  34   1.0000      -0.370546       -10.0831
  35   0.0000       0.027755         0.7552
  36   0.0000       0.033168         0.9025
  37   0.0000       0.033218         0.9039
  38   0.0000       0.033621         0.9149
  39   0.0000       0.047172         1.2836

MULLIKEN ATOMIC CHARGES AND SPIN POPULATIONS
--------------------------------------------
   0 C :    0.807009   -0.427635
   1 C :   -1.233354    1.330965
   2 H :    0.326559   -0.130537
   3 H :    0.189097   -0.018769
   4 C :    1.209289    0.124539
   5 C :    1.209449    0.124537
   6 C :   -1.197091   -0.003077
   7 H :    0.311207   -0.000611
   8 H :    0.162402    0.001604
   9 H :    0.172100    0.008984
  10 C :   -1.212915   -0.013609
  11 H :    0.184244    0.001609
  12 H :    0.169851    0.002580
  13 H :    0.317601   -0.005327
  14 C :   -1.212855   -0.013607
  15 H :    0.317610   -0.005333
  16 H :    0.169841    0.002579
  17 H :    0.184247    0.001610
  18 C :   -1.197094   -0.003088
  19 H :    0.311171   -0.000615
  20 H :    0.172144    0.008989
  21 H :    0.162417    0.001613
  22 C :   -1.011039    0.037286
  23 H :    0.148140   -0.011666
  24 H :    0.391853   -0.001354
  25 H :    0.148114   -0.011667
Sum of atomic charges         :   -0.0000000

LOEWDIN ATOMIC CHARGES AND SPIN POPULATIONS
-------------------------------------------
   0 C :   -0.244715    0.096363
   1 C :    0.618322    0.529381
   2 H :   -0.205777    0.118562
   3 H :   -0.226146    0.115332
   4 C :   -0.228826    0.047864
   5 C :   -0.228830    0.047854
   6 C :    0.606774    0.008527
   7 H :   -0.200912    0.000194
   8 H :   -0.146700    0.000078
   9 H :   -0.147262    0.003277
  10 C :    0.601387    0.007456
  11 H :   -0.147389    0.000808
  12 H :   -0.148153    0.000583
  13 H :   -0.203249    0.001220
  14 C :    0.601386    0.007458
  15 H :   -0.203247    0.001222
  16 H :   -0.148153    0.000583
  17 H :   -0.147390    0.000808
  18 C :    0.606773    0.008529
  19 H :   -0.200912    0.000194
  20 H :   -0.147264    0.003278
  21 H :   -0.146697    0.000078
  22 C :    0.591356    0.000531
  23 H :   -0.150252    0.000012
  24 H :   -0.203867   -0.000204
  25 H :   -0.150257    0.000012

  Mayer bond orders larger than 0.100000
B(  0-C ,  1-C ) :   0.1704 B(  0-C ,  4-C ) :   0.9107 B(  0-C ,  5-C ) :   0.9110
B(  0-C ,  6-C ) :  -0.1065 B(  0-C , 18-C ) :  -0.1064 B(  0-C , 22-C ) :   0.1862
B(  0-C , 23-H ) :  -0.1803 B(  0-C , 25-H ) :  -0.1804 B(  1-C ,  2-H ) :   0.8937
B(  1-C ,  3-H ) :   1.2677 B(  4-C ,  5-C ) :   0.6860 B(  4-C ,  6-C ) :  -0.1581
B(  4-C , 10-C ) :  -0.1706 B(  4-C , 16-H ) :  -0.1940 B(  4-C , 17-H ) :  -0.1777
B(  4-C , 20-H ) :  -0.1888 B(  4-C , 21-H ) :  -0.2180 B(  5-C ,  8-H ) :  -0.2181
B(  5-C ,  9-H ) :  -0.1889 B(  5-C , 11-H ) :  -0.1777 B(  5-C , 12-H ) :  -0.1940
B(  5-C , 14-C ) :  -0.1706 B(  5-C , 18-C ) :  -0.1580 B(  6-C ,  7-H ) :   1.0467
B(  6-C ,  8-H ) :   1.2520 B(  6-C ,  9-H ) :   1.2116 B(  6-C , 10-C ) :   0.1775
B( 10-C , 11-H ) :   1.1907 B( 10-C , 12-H ) :   1.2336 B( 10-C , 13-H ) :   1.0461
B( 14-C , 15-H ) :   1.0461 B( 14-C , 16-H ) :   1.2336 B( 14-C , 17-H ) :   1.1907
B( 14-C , 18-C ) :   0.1775 B( 18-C , 19-H ) :   1.0467 B( 18-C , 20-H ) :   1.2115
B( 18-C , 21-H ) :   1.2519 B( 22-C , 23-H ) :   1.2515 B( 22-C , 24-H ) :   0.8993
B( 22-C , 25-H ) :   1.2516 B( 23-H , 25-H ) :   0.1185

MP2 TOTAL ENERGY:     -352.322365106 Eh
FINAL SINGLE POINT ENERGY      -352.322365106267

DIPOLE MOMENT
-------------
                                X             Y             Z
Electronic contribution:      0.38070       0.00025       1.57347
Nuclear contribution   :     -0.41723      -0.00027      -1.70737
                        -----------------------------------------
Total Dipole Moment    :     -0.03653      -0.00002      -0.13390
                        -----------------------------------------
Magnitude (a.u.)       :      0.13879
Magnitude (Debye)      :      0.35279

Rotational constants in cm-1:     0.052706     0.052521     0.050636
Rotational constants in MHz :  1580.089819  1574.543809  1518.036277

                             ****ORCA TERMINATED NORMALLY****
TOTAL RUN TIME: 0 days 0 hours 16 minutes 29 seconds 520 msec
