                         Program Version 4.2.1 -  RELEASE  -
|  1> %pal
|  2>  nprocs 32
|  3> end
|  4> !RI-MP2 aug-cc-pVTZ aug-cc-pVTZ/C TightSCF
|  5> %maxcore 4500
|  6> *xyzfile 0 1  10_7P.xyz
|  7>
|  8>
|  9>                          ****END OF INPUT****

CARTESIAN COORDINATES (ANGSTROEM)
---------------------------------
  C     -0.270436   -0.982540    0.360558
  C     -0.792882    0.288106    0.253878
  C      1.089047   -1.499298    0.713272
  H      1.449010   -1.058388    1.646541
  H      0.949723   -2.563405    0.909901
  C     -0.255867    1.662282    0.479913
  H     -0.710799    2.084485    1.383229
  H     -0.573753    2.307326   -0.347115
  C      2.147572   -1.339025   -0.390635
  H      2.899386   -2.122187   -0.256994
  H      1.672219   -1.535656   -1.356781
  C      2.884121   -0.000701   -0.444258
  H      3.471458    0.125078    0.473343
  H      3.612345   -0.058788   -1.258867
  C      1.264245    1.732577    0.600829
  H      1.525752    2.771709    0.812642
  H      1.584707    1.165707    1.477379
  C      2.026093    1.250699   -0.650701
  H      2.681669    2.055019   -0.992745
  H      1.320629    1.072540   -1.469464
  N     -1.252551   -1.865595    0.026978
  N     -2.334061   -1.226484   -0.270855
  N     -2.075337    0.079104   -0.140594
  C     -3.110285    1.052374   -0.406389
  H     -3.305690    1.658715    0.479086
  H     -2.825538    1.702903   -1.234662
  H     -4.007113    0.498922   -0.672997

 Total Charge           Charge          ....    0
 Multiplicity           Mult            ....    1
 Number of Electrons    NEL             ....   90
 Basis Dimension        Dim             ....  897

ORBITAL ENERGIES
----------------

  NO   OCC          E(Eh)            E(eV)
   0   2.0000     -15.644604      -425.7113
   1   2.0000     -15.620320      -425.0505
   2   2.0000     -15.575516      -423.8313
   3   2.0000     -11.280297      -306.9525
   4   2.0000     -11.269085      -306.6474
   5   2.0000     -11.249168      -306.1054
   6   2.0000     -11.240486      -305.8692
   7   2.0000     -11.232148      -305.6423
   8   2.0000     -11.223716      -305.4128
   9   2.0000     -11.222990      -305.3931
  10   2.0000     -11.220246      -305.3184
  11   2.0000     -11.217897      -305.2545
  12   2.0000      -1.430273       -38.9197
  13   2.0000      -1.212109       -32.9832
  14   2.0000      -1.125773       -30.6338
  15   2.0000      -1.068462       -29.0743
  16   2.0000      -1.056610       -28.7518
  17   2.0000      -0.986952       -26.8563
  18   2.0000      -0.960577       -26.1386
  19   2.0000      -0.920895       -25.0588
  20   2.0000      -0.828556       -22.5462
  21   2.0000      -0.806317       -21.9410
  22   2.0000      -0.787887       -21.4395
  23   2.0000      -0.763405       -20.7733
  24   2.0000      -0.689468       -18.7614
  25   2.0000      -0.673991       -18.3402
  26   2.0000      -0.630642       -17.1607
  27   2.0000      -0.623252       -16.9595
  28   2.0000      -0.617614       -16.8061
  29   2.0000      -0.602042       -16.3824
  30   2.0000      -0.599404       -16.3106
  31   2.0000      -0.580048       -15.7839
  32   2.0000      -0.570253       -15.5174
  33   2.0000      -0.546384       -14.8679
  34   2.0000      -0.533660       -14.5216
  35   2.0000      -0.520073       -14.1519
  36   2.0000      -0.511541       -13.9197
  37   2.0000      -0.497036       -13.5250
  38   2.0000      -0.482638       -13.1333
  39   2.0000      -0.464163       -12.6305
  40   2.0000      -0.456928       -12.4336
  41   2.0000      -0.445541       -12.1238
  42   2.0000      -0.418407       -11.3854
  43   2.0000      -0.385138       -10.4801
  44   2.0000      -0.327713        -8.9175
  45   0.0000       0.022042         0.5998
  46   0.0000       0.029742         0.8093
  47   0.0000       0.032261         0.8779
  48   0.0000       0.034913         0.9500
  49   0.0000       0.045290         1.2324

MULLIKEN ATOMIC CHARGES
-----------------------
   0 C :    0.643753
   1 C :   -0.485879
   2 C :   -0.103542
   3 H :    0.161676
   4 H :    0.209047
   5 C :   -0.096027
   6 H :    0.396129
   7 H :    0.212913
   8 C :   -0.520181
   9 H :    0.268144
  10 H :    0.189383
  11 C :   -0.412622
  12 H :    0.148724
  13 H :    0.272206
  14 C :   -0.419417
  15 H :    0.227016
  16 H :    0.187168
  17 C :   -0.515272
  18 H :    0.243509
  19 H :    0.141158
  20 N :   -0.633047
  21 N :   -0.663530
  22 N :    0.456836
  23 C :   -1.014649
  24 H :    0.335475
  25 H :    0.327459
  26 H :    0.443570
Sum of atomic charges:   -0.0000000

LOEWDIN ATOMIC CHARGES
----------------------
   0 C :   -0.281158
   1 C :   -0.170212
   2 C :    0.288290
   3 H :   -0.156735
   4 H :   -0.161299
   5 C :    0.297673
   6 H :   -0.135069
   7 H :   -0.147589
   8 C :    0.300747
   9 H :   -0.144931
  10 H :   -0.140546
  11 C :    0.291586
  12 H :   -0.142264
  13 H :   -0.144768
  14 C :    0.307997
  15 H :   -0.139782
  16 H :   -0.164107
  17 C :    0.311331
  18 H :   -0.146330
  19 H :   -0.146256
  20 N :    0.207009
  21 N :    0.143797
  22 N :    0.033420
  23 C :    0.521750
  24 H :   -0.154431
  25 H :   -0.157621
  26 H :   -0.170504

  Mayer bond orders larger than 0.100000
B(  0-C ,  1-C ) :   1.7578 B(  0-C ,  2-C ) :   0.8564 B(  0-C ,  8-C ) :   0.1119
B(  0-C , 20-N ) :   0.3707 B(  0-C , 21-N ) :   0.1834 B(  0-C , 22-N ) :  -0.2873
B(  1-C ,  5-C ) :   0.5123 B(  1-C ,  6-H ) :  -0.1717 B(  1-C , 20-N ) :   0.1874
B(  1-C , 21-N ) :   0.1026 B(  1-C , 22-N ) :   1.2007 B(  1-C , 23-C ) :  -0.1416
B(  2-C ,  3-H ) :   1.0443 B(  2-C ,  4-H ) :   0.9422 B(  2-C ,  8-C ) :   0.8789
B(  5-C ,  6-H ) :   0.9346 B(  5-C ,  7-H ) :   1.0390 B(  5-C , 14-C ) :   0.9283
B(  5-C , 17-C ) :   0.1130 B(  5-C , 22-N ) :  -0.2858 B(  8-C ,  9-H ) :   0.9691
B(  8-C , 10-H ) :   1.0463 B(  8-C , 11-C ) :   0.8213 B( 11-C , 12-H ) :   1.0794
B( 11-C , 13-H ) :   0.9696 B( 11-C , 17-C ) :   0.8835 B( 14-C , 15-H ) :   0.9917
B( 14-C , 16-H ) :   1.0835 B( 14-C , 17-C ) :   0.7943 B( 17-C , 18-H ) :   0.9789
B( 17-C , 19-H ) :   1.0864 B( 20-N , 21-N ) :   0.5895 B( 21-N , 22-N ) :   0.3076
B( 21-N , 23-C ) :  -0.1155 B( 22-N , 23-C ) :   0.9711 B( 23-C , 24-H ) :   0.9535
B( 23-C , 25-H ) :   0.9529 B( 23-C , 26-H ) :   0.8223

MP2 TOTAL ENERGY:     -515.191581061 Eh
FINAL SINGLE POINT ENERGY      -515.191581061497

DIPOLE MOMENT
-------------
                                X             Y             Z
Electronic contribution:     -9.47889      -6.38551       0.54711
Nuclear contribution   :      9.93330       8.27160      -0.41915
                        -----------------------------------------
Total Dipole Moment    :      0.45441       1.88609       0.12796
                        -----------------------------------------
Magnitude (a.u.)       :      1.94427
Magnitude (Debye)      :      4.94195

Rotational constants in cm-1:     0.052342     0.025641     0.018984
Rotational constants in MHz :  1569.182080   768.704983   569.124331

                             ****ORCA TERMINATED NORMALLY****
TOTAL RUN TIME: 0 days 0 hours 13 minutes 25 seconds 622 msec
