                         Program Version 4.2.1 -  RELEASE  -
|  1> %pal
|  2>  nprocs 32
|  3> end
|  4> !RI-MP2 aug-cc-pVTZ aug-cc-pVTZ/C TightSCF
|  5> %maxcore 4500
|  6> *xyzfile 0 1  04_47P2.xyz
|  7>
|  8>
|  9>                          ****END OF INPUT****

CARTESIAN COORDINATES (ANGSTROEM)
---------------------------------
  C     -0.306272   -1.204069   -0.003346
  C      1.080685   -1.193753   -0.009953
  C      1.797090   -0.000001   -0.010084
  C      1.080685    1.193753   -0.009954
  C     -0.306271    1.204069   -0.003345
  C     -0.989481   -0.000000    0.000825
  H     -0.853503   -2.137435   -0.005041
  H     -0.853502    2.137435   -0.005040
  H      1.614222    2.137627   -0.017025
  H      1.614221   -2.137628   -0.017025
  C      3.301139    0.000001    0.014234
  Cl    -2.738379    0.000000    0.005625
  H      3.705812    0.883215   -0.482042
  H      3.705815   -0.883192   -0.482077
  H      3.673922   -0.000019    1.042361

 Total Charge           Charge          ....    0
 Multiplicity           Mult            ....    1
 Number of Electrons    NEL             ....   66
 Basis Dimension        Dim             ....  533

ORBITAL ENERGIES
----------------

  NO   OCC          E(Eh)            E(eV)
   0   2.0000    -104.837587     -2852.7758
   1   2.0000     -11.297782      -307.4283
   2   2.0000     -11.250724      -306.1478
   3   2.0000     -11.247449      -306.0586
   4   2.0000     -11.247413      -306.0577
   5   2.0000     -11.242194      -305.9157
   6   2.0000     -11.242101      -305.9131
   7   2.0000     -11.231672      -305.6293
   8   2.0000     -10.561294      -287.3874
   9   2.0000      -8.028186      -218.4581
  10   2.0000      -8.026332      -218.4076
  11   2.0000      -8.026315      -218.4071
  12   2.0000      -1.190549       -32.3965
  13   2.0000      -1.124162       -30.5900
  14   2.0000      -1.032559       -28.0973
  15   2.0000      -1.030968       -28.0541
  16   2.0000      -0.929049       -25.2807
  17   2.0000      -0.848056       -23.0768
  18   2.0000      -0.801755       -21.8169
  19   2.0000      -0.687120       -18.6975
  20   2.0000      -0.660682       -17.9781
  21   2.0000      -0.641551       -17.4575
  22   2.0000      -0.600825       -16.3493
  23   2.0000      -0.586452       -15.9582
  24   2.0000      -0.568991       -15.4830
  25   2.0000      -0.553281       -15.0556
  26   2.0000      -0.536062       -14.5870
  27   2.0000      -0.505724       -13.7615
  28   2.0000      -0.502975       -13.6866
  29   2.0000      -0.460383       -12.5277
  30   2.0000      -0.451523       -12.2866
  31   2.0000      -0.351291        -9.5591
  32   2.0000      -0.327128        -8.9016
  33   0.0000       0.027405         0.7457
  34   0.0000       0.033056         0.8995
  35   0.0000       0.035896         0.9768
  36   0.0000       0.043777         1.1912
  37   0.0000       0.048680         1.3247

MULLIKEN ATOMIC CHARGES
-----------------------
   0 C :   -0.852494
   1 C :   -0.697875
   2 C :    1.264237
   3 C :   -0.697865
   4 C :   -0.852491
   5 C :    0.777111
   6 H :    0.510746
   7 H :    0.510747
   8 H :    0.310482
   9 H :    0.310488
  10 C :   -0.912171
  11 Cl:   -0.513577
  12 H :    0.266724
  13 H :    0.266725
  14 H :    0.309215
Sum of atomic charges:    0.0000000

LOEWDIN ATOMIC CHARGES
----------------------
   0 C :    0.108009
   1 C :    0.204814
   2 C :   -0.128546
   3 C :    0.204814
   4 C :    0.108009
   5 C :   -0.772917
   6 H :   -0.199248
   7 H :   -0.199248
   8 H :   -0.174911
   9 H :   -0.174910
  10 C :    0.578963
  11 Cl:    0.955026
  12 H :   -0.174002
  13 H :   -0.174002
  14 H :   -0.161851

  Mayer bond orders larger than 0.100000
B(  0-C ,  1-C ) :   1.2426 B(  0-C ,  4-C ) :   0.1744 B(  0-C ,  5-C ) :   1.1857
B(  0-C ,  6-H ) :   0.7396 B(  1-C ,  2-C ) :   0.6704 B(  1-C ,  5-C ) :  -0.1265
B(  1-C ,  9-H ) :   1.0341 B(  2-C ,  3-C ) :   0.6704 B(  2-C , 10-C ) :   0.4721
B(  3-C ,  4-C ) :   1.2426 B(  3-C ,  5-C ) :  -0.1265 B(  3-C ,  8-H ) :   1.0341
B(  4-C ,  5-C ) :   1.1857 B(  4-C ,  7-H ) :   0.7396 B(  5-C , 11-Cl) :   0.5986
B( 10-C , 12-H ) :   1.0025 B( 10-C , 13-H ) :   1.0025 B( 10-C , 14-H ) :   0.9491

MP2 TOTAL ENERGY:     -730.098431854 Eh
FINAL SINGLE POINT ENERGY      -730.098431854495

DIPOLE MOMENT
-------------
                                X             Y             Z
Electronic contribution:    -15.20925      -0.00000      -0.01523
Nuclear contribution   :     16.18093       0.00000       0.02552
                        -----------------------------------------
Total Dipole Moment    :      0.97168      -0.00000       0.01029
                        -----------------------------------------
Magnitude (a.u.)       :      0.97173
Magnitude (Debye)      :      2.46995

Rotational constants in cm-1:     0.186014     0.032106     0.027521
Rotational constants in MHz :  5576.556742   962.528140   825.059966

                             ****ORCA TERMINATED NORMALLY****
TOTAL RUN TIME: 0 days 0 hours 2 minutes 33 seconds 386 msec
