                         Program Version 4.2.1 -  RELEASE  -
|  1> %pal
|  2>  nprocs 32
|  3> end
|  4> !RI-MP2 aug-cc-pVTZ aug-cc-pVTZ/C TightSCF
|  5> %maxcore 4500
|  6> *xyzfile 0 1  10_86P.xyz
|  7>
|  8>
|  9>                          ****END OF INPUT****

CARTESIAN COORDINATES (ANGSTROEM)
---------------------------------
  O     -2.417453   -0.778002    0.053560
  C     -2.028048    0.334111   -0.182519
  C     -0.592903    0.771521   -0.113440
  C      0.382002   -0.338439    0.265235
  C      1.787574    0.164953    0.384861
  C      2.807028   -0.246025   -0.354955
  H     -2.747607    1.126457   -0.476136
  H      0.060754   -0.776631    1.214887
  H      0.330111   -1.140155   -0.474358
  H     -0.545706    1.607132    0.596990
  H     -0.335744    1.211475   -1.084731
  H      1.959080    0.929997    1.140254
  H      2.680957   -1.007674   -1.117698
  H      3.803871    0.156684   -0.222774

 Total Charge           Charge          ....    0
 Multiplicity           Mult            ....    1
 Number of Electrons    NEL             ....   46
 Basis Dimension        Dim             ....  460

ORBITAL ENERGIES
----------------

  NO   OCC          E(Eh)            E(eV)
   0   2.0000     -20.560603      -559.4825
   1   2.0000     -11.334048      -308.4151
   2   2.0000     -11.247683      -306.0650
   3   2.0000     -11.238600      -305.8178
   4   2.0000     -11.234712      -305.7121
   5   2.0000     -11.225075      -305.4498
   6   2.0000      -1.401155       -38.1274
   7   2.0000      -1.100582       -29.9483
   8   2.0000      -1.026817       -27.9411
   9   2.0000      -0.913308       -24.8524
  10   2.0000      -0.784963       -21.3599
  11   2.0000      -0.763276       -20.7698
  12   2.0000      -0.682190       -18.5633
  13   2.0000      -0.656740       -17.8708
  14   2.0000      -0.635968       -17.3056
  15   2.0000      -0.617397       -16.8002
  16   2.0000      -0.575360       -15.6563
  17   2.0000      -0.536801       -14.6071
  18   2.0000      -0.522910       -14.2291
  19   2.0000      -0.497252       -13.5309
  20   2.0000      -0.492019       -13.3885
  21   2.0000      -0.427586       -11.6352
  22   2.0000      -0.367768       -10.0075
  23   0.0000       0.026518         0.7216
  24   0.0000       0.033267         0.9052
  25   0.0000       0.036394         0.9903
  26   0.0000       0.043665         1.1882
  27   0.0000       0.050460         1.3731

MULLIKEN ATOMIC CHARGES
-----------------------
   0 O :   -0.728056
   1 C :   -0.176876
   2 C :   -0.339754
   3 C :   -0.024572
   4 C :   -0.259392
   5 C :   -1.019731
   6 H :    0.502652
   7 H :    0.288326
   8 H :    0.187350
   9 H :    0.268744
  10 H :    0.315056
  11 H :    0.229395
  12 H :    0.237250
  13 H :    0.519608
Sum of atomic charges:   -0.0000000

LOEWDIN ATOMIC CHARGES
----------------------
   0 O :    0.450235
   1 C :   -0.211707
   2 C :    0.248645
   3 C :    0.224140
   4 C :    0.174167
   5 C :    0.524822
   6 H :   -0.175581
   7 H :   -0.148966
   8 H :   -0.155920
   9 H :   -0.152301
  10 H :   -0.150275
  11 H :   -0.182328
  12 H :   -0.218224
  13 H :   -0.226706

  Mayer bond orders larger than 0.100000
B(  0-O ,  1-C ) :   1.5980 B(  1-C ,  2-C ) :   0.7979 B(  1-C ,  6-H ) :   0.6955
B(  2-C ,  3-C ) :   0.9862 B(  2-C ,  9-H ) :   0.9546 B(  2-C , 10-H ) :   0.9363
B(  3-C ,  4-C ) :   0.7907 B(  3-C ,  7-H ) :   0.9289 B(  3-C ,  8-H ) :   0.9844
B(  4-C ,  5-C ) :   1.4137 B(  4-C , 11-H ) :   1.0727 B(  5-C , 12-H ) :   1.1152
B(  5-C , 13-H ) :   0.6299

MP2 TOTAL ENERGY:     -270.002433735 Eh
FINAL SINGLE POINT ENERGY      -270.002433735138

DIPOLE MOMENT
-------------
                                X             Y             Z
Electronic contribution:     -4.82841      -1.13564       0.28071
Nuclear contribution   :      5.30726       2.15164      -0.43415
                        -----------------------------------------
Total Dipole Moment    :      0.47886       1.01600      -0.15344
                        -----------------------------------------
Magnitude (a.u.)       :      1.13363
Magnitude (Debye)      :      2.88145

Rotational constants in cm-1:     0.416111     0.051662     0.048833
Rotational constants in MHz : 12474.687140  1548.782934  1463.981697

                             ****ORCA TERMINATED NORMALLY****
TOTAL RUN TIME: 0 days 0 hours 1 minutes 20 seconds 410 msec
