                         Program Version 4.2.1 -  RELEASE  -
|  1> %pal
|  2>  nprocs 32
|  3> end
|  4> !RI-MP2 aug-cc-pVTZ aug-cc-pVTZ/C TightSCF
|  5> %maxcore 4500
|  6> *xyzfile 1 1  10_26P.xyz
|  7>
|  8>
|  9>                          ****END OF INPUT****

CARTESIAN COORDINATES (ANGSTROEM)
---------------------------------
  C     -0.957880   -2.934999   -0.839709
  C     -0.234062   -1.871110   -0.007405
  C     -2.353839   -1.514663    0.522283
  C     -2.449676   -2.629421   -0.523803
  H     -0.718777   -2.839568   -1.896446
  H     -0.677954   -3.936303   -0.511920
  H     -3.022900   -2.320813   -1.400579
  H     -2.967686   -3.485038   -0.091802
  C     -1.069253   -1.841253    1.276643
  H     -0.764242   -1.086454    2.000297
  H     -1.130551   -2.809154    1.771325
  H      0.838180   -1.995212    0.087374
  H     -3.258672   -1.285827    1.079287
  N     -1.899843   -0.262393   -0.215002
  N     -0.539895   -0.571240   -0.657824
  C      0.273677    0.651225   -0.425422
  C      1.728895    0.345960   -0.171188
  C      2.223867    0.044792    1.096090
  C      2.604169    0.340645   -1.253050
  C      3.564898   -0.259563    1.274115
  H      1.571543    0.044278    1.960956
  C      3.946707    0.036486   -1.077787
  H      2.231854    0.578715   -2.243158
  C      4.429026   -0.264986    0.187060
  H      3.937996   -0.486809    2.264916
  H      4.615913    0.040957   -1.928904
  H      5.477042   -0.497351    0.328460
  C     -1.908249    1.010650    0.622180
  C     -0.449296    1.495490    0.642189
  C     -0.517757    2.978602    0.251063
  H     -0.685230    3.592814    1.138541
  H      0.410498    3.319868   -0.208789
  C     -2.747528    2.130759   -0.007421
  H     -3.261506    2.661379    0.795955
  C     -1.730338    3.059527   -0.680488
  H     -2.109700    4.073122   -0.801508
  H     -1.474561    2.694547   -1.679447
  H     -3.527598    1.758107   -0.677146
  H      0.227220    1.202815   -1.367119
  H      0.001126    1.348792    1.620920
  H     -2.276434    0.716821    1.601815
  H     -2.477552   -0.123091   -1.045351

 Total Charge           Charge          ....    1
 Multiplicity           Mult            ....    1
 Number of Electrons    NEL             ....  138
 Basis Dimension        Dim             .... 1403

ORBITAL ENERGIES
----------------

  NO   OCC          E(Eh)            E(eV)
   0   2.0000     -15.845867      -431.1880
   1   2.0000     -15.744734      -428.4360
   2   2.0000     -11.436865      -311.2129
   3   2.0000     -11.427906      -310.9691
   4   2.0000     -11.406032      -310.3739
   5   2.0000     -11.402403      -310.2752
   6   2.0000     -11.374203      -309.5078
   7   2.0000     -11.371600      -309.4370
   8   2.0000     -11.370039      -309.3945
   9   2.0000     -11.367840      -309.3347
  10   2.0000     -11.354921      -308.9831
  11   2.0000     -11.352930      -308.9289
  12   2.0000     -11.348497      -308.8083
  13   2.0000     -11.347134      -308.7712
  14   2.0000     -11.344809      -308.7080
  15   2.0000     -11.341744      -308.6246
  16   2.0000     -11.338221      -308.5287
  17   2.0000     -11.336329      -308.4772
  18   2.0000     -11.335080      -308.4432
  19   2.0000      -1.530289       -41.6413
  20   2.0000      -1.310649       -35.6646
  21   2.0000      -1.304208       -35.4893
  22   2.0000      -1.258929       -34.2572
  23   2.0000      -1.252034       -34.0696
  24   2.0000      -1.163649       -31.6645
  25   2.0000      -1.127601       -30.6836
  26   2.0000      -1.123260       -30.5655
  27   2.0000      -1.118167       -30.4269
  28   2.0000      -1.115046       -30.3419
  29   2.0000      -1.071558       -29.1586
  30   2.0000      -1.007072       -27.4038
  31   2.0000      -0.969936       -26.3933
  32   2.0000      -0.952773       -25.9263
  33   2.0000      -0.941721       -25.6255
  34   2.0000      -0.926700       -25.2168
  35   2.0000      -0.909576       -24.7508
  36   2.0000      -0.909018       -24.7356
  37   2.0000      -0.857197       -23.3255
  38   2.0000      -0.842320       -22.9207
  39   2.0000      -0.828670       -22.5492
  40   2.0000      -0.801900       -21.8208
  41   2.0000      -0.792996       -21.5785
  42   2.0000      -0.779355       -21.2073
  43   2.0000      -0.763080       -20.7645
  44   2.0000      -0.740953       -20.1624
  45   2.0000      -0.739109       -20.1122
  46   2.0000      -0.733651       -19.9637
  47   2.0000      -0.716604       -19.4998
  48   2.0000      -0.701340       -19.0844
  49   2.0000      -0.695208       -18.9176
  50   2.0000      -0.691402       -18.8140
  51   2.0000      -0.686544       -18.6818
  52   2.0000      -0.667927       -18.1752
  53   2.0000      -0.653924       -17.7942
  54   2.0000      -0.649608       -17.6767
  55   2.0000      -0.634846       -17.2750
  56   2.0000      -0.629206       -17.1216
  57   2.0000      -0.622285       -16.9332
  58   2.0000      -0.619117       -16.8470
  59   2.0000      -0.612909       -16.6781
  60   2.0000      -0.610937       -16.6244
  61   2.0000      -0.607113       -16.5204
  62   2.0000      -0.604010       -16.4359
  63   2.0000      -0.602179       -16.3861
  64   2.0000      -0.590413       -16.0660
  65   2.0000      -0.588122       -16.0036
  66   2.0000      -0.524945       -14.2845
  67   2.0000      -0.444753       -12.1024
  68   2.0000      -0.443995       -12.0817
  69   0.0000      -0.068325        -1.8592
  70   0.0000      -0.061018        -1.6604
  71   0.0000      -0.051355        -1.3974
  72   0.0000      -0.050721        -1.3802
  73   0.0000      -0.039023        -1.0619

MULLIKEN ATOMIC CHARGES
-----------------------
   0 C :   -1.111721
   1 C :   -0.129521
   2 C :   -0.365701
   3 C :   -0.699340
   4 H :    0.332909
   5 H :    0.222659
   6 H :    0.258093
   7 H :    0.291241
   8 C :   -0.590752
   9 H :    0.080009
  10 H :    0.491841
  11 H :    0.847180
  12 H :    0.501496
  13 N :    0.616647
  14 N :   -0.967275
  15 C :    1.560677
  16 C :    1.876302
  17 C :   -0.284293
  18 C :   -1.234167
  19 C :   -1.145000
  20 H :    0.075679
  21 C :   -0.689260
  22 H :   -0.104829
  23 C :   -0.206505
  24 H :    0.370618
  25 H :    0.566118
  26 H :    0.681091
  27 C :    0.538892
  28 C :   -0.048266
  29 C :   -0.904519
  30 H :    0.185697
  31 H :    0.304856
  32 C :   -1.047303
  33 H :    0.067877
  34 C :   -0.603426
  35 H :    0.464584
  36 H :    0.125032
  37 H :    0.332315
  38 H :   -0.084460
  39 H :    0.191265
  40 H :    0.429802
  41 H :   -0.196544
Sum of atomic charges:    1.0000000

LOEWDIN ATOMIC CHARGES
----------------------
   0 C :    0.369966
   1 C :   -0.047756
   2 C :    0.042301
   3 C :    0.378367
   4 H :   -0.131303
   5 H :   -0.126291
   6 H :   -0.127861
   7 H :   -0.122966
   8 C :    0.380250
   9 H :   -0.132368
  10 H :   -0.104683
  11 H :   -0.128119
  12 H :   -0.088476
  13 N :    0.460026
  14 N :    0.394124
  15 C :   -0.052073
  16 C :   -0.092692
  17 C :    0.217999
  18 C :    0.239824
  19 C :    0.228144
  20 H :   -0.181923
  21 C :    0.227517
  22 H :   -0.163082
  23 C :    0.222378
  24 H :   -0.170907
  25 H :   -0.170333
  26 H :   -0.169858
  27 C :    0.068220
  28 C :    0.081870
  29 C :    0.355351
  30 H :   -0.121280
  31 H :   -0.118822
  32 C :    0.373655
  33 H :   -0.123250
  34 C :    0.337152
  35 H :   -0.124388
  36 H :   -0.137288
  37 H :   -0.126147
  38 H :   -0.160322
  39 H :   -0.143596
  40 H :   -0.115944
  41 H :   -0.195415

  Mayer bond orders larger than 0.100000
B(  0-C ,  1-C ) :   0.7459 B(  0-C ,  3-C ) :   1.2292 B(  0-C ,  4-H ) :   0.9736
B(  0-C ,  5-H ) :   1.0929 B(  0-C ,  8-C ) :   0.1501 B(  0-C , 11-H ) :  -0.2987
B(  0-C , 14-N ) :  -0.1429 B(  1-C ,  3-C ) :  -0.1051 B(  1-C ,  8-C ) :   0.9113
B(  1-C , 11-H ) :   0.4544 B(  1-C , 14-N ) :   1.2652 B(  2-C ,  3-C ) :   0.9289
B(  2-C ,  8-C ) :   1.0210 B(  2-C , 12-H ) :   0.6971 B(  2-C , 13-N ) :   1.0221
B(  2-C , 27-C ) :  -0.1179 B(  3-C ,  6-H ) :   0.9951 B(  3-C ,  7-H ) :   0.9761
B(  3-C , 13-N ) :  -0.1218 B(  4-H , 14-N ) :  -0.1044 B(  8-C ,  9-H ) :   1.1701
B(  8-C , 10-H ) :   0.7497 B( 11-H , 14-N ) :  -0.1100 B( 11-H , 17-C ) :  -0.1082
B( 13-N , 14-N ) :   0.6084 B( 13-N , 15-C ) :   0.1308 B( 13-N , 27-C ) :   1.1702
B( 13-N , 28-C ) :   0.2004 B( 13-N , 41-H ) :   0.9203 B( 14-N , 15-C ) :   0.1669
B( 14-N , 18-C ) :   0.1716 B( 14-N , 27-C ) :  -0.1249 B( 14-N , 38-H ) :   0.1859
B( 15-C , 16-C ) :  -0.1655 B( 15-C , 17-C ) :   0.1170 B( 15-C , 18-C ) :  -0.1749
B( 15-C , 19-C ) :   0.1264 B( 15-C , 20-H ) :  -0.1683 B( 15-C , 21-C ) :   0.1839
B( 15-C , 22-H ) :  -0.2858 B( 15-C , 28-C ) :   0.6304 B( 15-C , 34-C ) :  -0.1194
B( 15-C , 36-H ) :  -0.1532 B( 15-C , 38-H ) :   1.2256 B( 15-C , 39-H ) :  -0.1255
B( 16-C , 17-C ) :   0.5862 B( 16-C , 18-C ) :  -0.1240 B( 16-C , 20-H ) :  -0.1376
B( 16-C , 22-H ) :  -0.2260 B( 16-C , 28-C ) :   0.2373 B( 16-C , 38-H ) :  -0.3412
B( 17-C , 18-C ) :  -0.3653 B( 17-C , 19-C ) :   1.2750 B( 17-C , 20-H ) :   1.5092
B( 17-C , 22-H ) :   0.2184 B( 17-C , 23-C ) :   0.1040 B( 17-C , 26-H ) :  -0.1016
B( 18-C , 20-H ) :   0.1760 B( 18-C , 21-C ) :   1.3440 B( 18-C , 22-H ) :   1.7595
B( 18-C , 25-H ) :  -0.1027 B( 19-C , 20-H ) :  -0.2060 B( 19-C , 21-C ) :   0.1460
B( 19-C , 23-C ) :   1.1690 B( 19-C , 24-H ) :   0.9209 B( 19-C , 26-H ) :  -0.1678
B( 20-H , 21-C ) :  -0.1396 B( 20-H , 22-H ) :   0.1061 B( 21-C , 23-C ) :   1.2021
B( 21-C , 25-H ) :   0.6016 B( 21-C , 26-H ) :  -0.1570 B( 23-C , 26-H ) :   0.4181
B( 27-C , 28-C ) :   1.0633 B( 27-C , 32-C ) :   0.6124 B( 27-C , 39-H ) :  -0.1552
B( 27-C , 40-H ) :   0.7905 B( 28-C , 29-C ) :   0.5998 B( 28-C , 32-C ) :  -0.1202
B( 28-C , 39-H ) :   0.9721 B( 29-C , 30-H ) :   1.1114 B( 29-C , 31-H ) :   0.9681
B( 29-C , 32-C ) :   0.1583 B( 29-C , 34-C ) :   1.0416 B( 29-C , 39-H ) :  -0.1675
B( 32-C , 33-H ) :   1.3074 B( 32-C , 34-C ) :   1.0179 B( 32-C , 37-H ) :   0.8930
B( 32-C , 40-H ) :  -0.2180 B( 34-C , 35-H ) :   0.7736 B( 34-C , 36-H ) :   1.1592

MP2 TOTAL ENERGY:     -769.321520468 Eh
FINAL SINGLE POINT ENERGY      -769.321520468265

DIPOLE MOMENT
-------------
                                X             Y             Z
Electronic contribution:      7.09056      -1.56098      -0.48759
Nuclear contribution   :     -9.25728       1.18748       0.81014
                        -----------------------------------------
Total Dipole Moment    :     -2.16671      -0.37350       0.32255
                        -----------------------------------------
Magnitude (a.u.)       :      2.22220
Magnitude (Debye)      :      5.64839

Rotational constants in cm-1:     0.018379     0.011468     0.008261
Rotational constants in MHz :   550.974240   343.797883   247.662119

                             ****ORCA TERMINATED NORMALLY****
TOTAL RUN TIME: 0 days 0 hours 57 minutes 4 seconds 778 msec
