                         Program Version 4.2.1 -  RELEASE  -
|  1> %pal
|  2>  nprocs 32
|  3> end
|  4> !RI-MP2 aug-cc-pVTZ aug-cc-pVTZ/C TightSCF
|  5> %maxcore 4500
|  6> *xyzfile 0 1  03_1R1.xyz
|  7>
|  8>
|  9>                          ****END OF INPUT****

CARTESIAN COORDINATES (ANGSTROEM)
---------------------------------
  C      0.000001    0.000001   -0.006963
  C     -1.335246    0.578142   -0.433795
  C      0.166927   -1.445466   -0.433661
  C      1.168342    0.867254   -0.433762
  H     -2.153240   -0.032974   -0.049415
  H     -1.406917    0.609127   -1.523041
  H     -1.449253    1.592851   -0.049495
  H     -0.654800   -2.051519   -0.049233
  H      1.105199   -1.848263   -0.049307
  H      0.175851   -1.523145   -1.522898
  H      1.048097    1.881235   -0.049434
  H      1.231079    0.913787   -1.523005
  H      2.104076    0.458627   -0.049381
  F     -0.000026    0.000076    1.412699

 Total Charge           Charge          ....    0
 Multiplicity           Mult            ....    1
 Number of Electrons    NEL             ....   42
 Basis Dimension        Dim             ....  437

ORBITAL ENERGIES
----------------

  NO   OCC          E(Eh)            E(eV)
   0   2.0000     -26.258014      -714.5169
   1   2.0000     -11.312977      -307.8418
   2   2.0000     -11.220405      -305.3228
   3   2.0000     -11.220405      -305.3228
   4   2.0000     -11.220385      -305.3222
   5   2.0000      -1.566092       -42.6155
   6   2.0000      -1.089383       -29.6436
   7   2.0000      -0.951109       -25.8810
   8   2.0000      -0.951109       -25.8810
   9   2.0000      -0.784275       -21.3412
  10   2.0000      -0.666968       -18.1491
  11   2.0000      -0.666968       -18.1491
  12   2.0000      -0.659746       -17.9526
  13   2.0000      -0.585557       -15.9338
  14   2.0000      -0.585555       -15.9338
  15   2.0000      -0.551554       -15.0085
  16   2.0000      -0.537214       -14.6183
  17   2.0000      -0.537213       -14.6183
  18   2.0000      -0.524014       -14.2591
  19   2.0000      -0.475203       -12.9309
  20   2.0000      -0.475202       -12.9309
  21   0.0000       0.028856         0.7852
  22   0.0000       0.038075         1.0361
  23   0.0000       0.038075         1.0361
  24   0.0000       0.044676         1.2157
  25   0.0000       0.059486         1.6187

MULLIKEN ATOMIC CHARGES
-----------------------
   0 C :    1.381777
   1 C :   -1.094566
   2 C :   -1.094572
   3 C :   -1.094569
   4 H :    0.279343
   5 H :    0.301770
   6 H :    0.279346
   7 H :    0.279342
   8 H :    0.279344
   9 H :    0.301770
  10 H :    0.279343
  11 H :    0.301770
  12 H :    0.279343
  13 F :   -0.679439
Sum of atomic charges:   -0.0000000

LOEWDIN ATOMIC CHARGES
----------------------
   0 C :   -0.723755
   1 C :    0.574832
   2 C :    0.574831
   3 C :    0.574830
   4 H :   -0.164093
   5 H :   -0.159734
   6 H :   -0.164097
   7 H :   -0.164096
   8 H :   -0.164092
   9 H :   -0.159733
  10 H :   -0.164092
  11 H :   -0.159733
  12 H :   -0.164096
  13 F :    0.463028

  Mayer bond orders larger than 0.100000
B(  0-C ,  1-C ) :   0.7754 B(  0-C ,  2-C ) :   0.7754 B(  0-C ,  3-C ) :   0.7754
B(  1-C ,  4-H ) :   0.9711 B(  1-C ,  5-H ) :   0.9318 B(  1-C ,  6-H ) :   0.9711
B(  1-C , 13-F ) :   0.1506 B(  2-C ,  7-H ) :   0.9711 B(  2-C ,  8-H ) :   0.9711
B(  2-C ,  9-H ) :   0.9318 B(  2-C , 13-F ) :   0.1506 B(  3-C , 10-H ) :   0.9711
B(  3-C , 11-H ) :   0.9318 B(  3-C , 12-H ) :   0.9711 B(  3-C , 13-F ) :   0.1506

MP2 TOTAL ENERGY:     -257.236030734 Eh
FINAL SINGLE POINT ENERGY      -257.236030733569

DIPOLE MOMENT
-------------
                                X             Y             Z
Electronic contribution:     -0.00011       0.00032       5.62592
Nuclear contribution   :      0.00012      -0.00036      -6.48780
                        -----------------------------------------
Total Dipole Moment    :      0.00001      -0.00005      -0.86188
                        -----------------------------------------
Magnitude (a.u.)       :      0.86188
Magnitude (Debye)      :      2.19073

Rotational constants in cm-1:     0.157642     0.157642     0.151265
Rotational constants in MHz :  4725.987509  4725.973494  4534.824088

                             ****ORCA TERMINATED NORMALLY****
TOTAL RUN TIME: 0 days 0 hours 1 minutes 2 seconds 233 msec
