                         Program Version 4.2.1 -  RELEASE  -
|  1> %pal
|  2>  nprocs 32
|  3> end
|  4> !RI-MP2 aug-cc-pVTZ aug-cc-pVTZ/C TightSCF
|  5> %maxcore 4500
|  6> *xyzfile 0 1  10_74TS.xyz
|  7>
|  8>
|  9>                          ****END OF INPUT****

CARTESIAN COORDINATES (ANGSTROEM)
---------------------------------
  C     -0.793699    1.308530   -0.565377
  C     -2.066450    1.564057   -0.169966
  C      0.262868    0.790813    0.234079
  C      1.489251    0.468520   -0.383431
  C      1.736724   -1.435483   -0.725219
  C      2.820622    0.632855    0.315665
  H      1.550865    0.784337   -1.425001
  C     -3.262815   -0.951650   -0.332428
  C     -2.406683   -1.648750    0.455699
  H     -2.903796   -0.660185   -1.313581
  C     -4.681334   -0.587894   -0.064953
  C     -1.061033   -1.802351   -0.004994
  C     -0.028744   -2.383137    0.695829
  C      1.314156   -2.208217    0.367624
  C      3.223776   -1.347786   -0.977733
  H      1.145538   -1.497228   -1.632046
  N      3.751359   -0.339356   -0.243720
  H      2.719785    0.508140    1.397423
  C      3.550461    1.958869    0.058634
  C     -3.109649    2.052176   -1.050309
  H     -2.337798    1.406673    0.866048
  C     -4.932665    0.920485    0.238504
  H     -5.084039   -1.135401    0.785520
  O     -5.528665   -0.957959   -1.159411
  C     -4.410674    1.807698   -0.853530
  H     -4.451096    1.150522    1.191751
  O     -6.318841    1.099747    0.446501
  H     -0.559482    1.454395   -1.618689
  C      0.153179    0.683558    1.725230
  C     -2.764076   -2.146662    1.830454
  H     -0.856265   -1.399726   -0.988160
  H     -0.247899   -2.886007    1.631423
  H      2.062976   -2.550220    1.074364
  H     -5.104920   -0.690421   -1.981269
  H     -6.770142    0.578088   -0.229447
  H     -2.803333    2.617359   -1.926386
  H     -5.152262    2.209651   -1.535178
  C      5.121877    0.167727   -0.380574
  O      3.850759   -2.071136   -1.726364
  H     -3.823276   -2.035109    2.050231
  H     -2.205406   -1.605977    2.599118
  H     -2.514420   -3.204668    1.934457
  H      0.649672   -0.224943    2.076256
  H     -0.879727    0.656152    2.065757
  H      0.647159    1.526721    2.218851
  C      5.013406    1.572831    0.229979
  O      3.196875    2.990022    0.953903
  H      3.364619    2.270626   -0.977638
  H      5.350234    0.226281   -1.449862
  C      6.145382   -0.731569    0.290724
  H      5.232235    1.540873    1.301286
  H      5.695240    2.286318   -0.231488
  H      6.144163   -1.717796   -0.173364
  H      5.918705   -0.841191    1.353899
  H      7.146224   -0.304301    0.193866
  H      2.322629    3.319420    0.727443

 Total Charge           Charge          ....    0
 Multiplicity           Mult            ....    1
 Number of Electrons    NEL             ....  200
 Basis Dimension        Dim             .... 1909

ORBITAL ENERGIES
----------------

  NO   OCC          E(Eh)            E(eV)
   0   2.0000     -20.576992      -559.9284
   1   2.0000     -20.574539      -559.8617
   2   2.0000     -20.556129      -559.3607
   3   2.0000     -20.521867      -558.4284
   4   2.0000     -15.585436      -424.1013
   5   2.0000     -11.350332      -308.8582
   6   2.0000     -11.299149      -307.4655
   7   2.0000     -11.297886      -307.4311
   8   2.0000     -11.292375      -307.2812
   9   2.0000     -11.282860      -307.0222
  10   2.0000     -11.275908      -306.8331
  11   2.0000     -11.267169      -306.5952
  12   2.0000     -11.266907      -306.5881
  13   2.0000     -11.265540      -306.5509
  14   2.0000     -11.254023      -306.2375
  15   2.0000     -11.246795      -306.0408
  16   2.0000     -11.245374      -306.0022
  17   2.0000     -11.245351      -306.0016
  18   2.0000     -11.244748      -305.9851
  19   2.0000     -11.244623      -305.9817
  20   2.0000     -11.244301      -305.9730
  21   2.0000     -11.241761      -305.9039
  22   2.0000     -11.236830      -305.7697
  23   2.0000     -11.235723      -305.7396
  24   2.0000     -11.235066      -305.7217
  25   2.0000     -11.234182      -305.6976
  26   2.0000     -11.217749      -305.2505
  27   2.0000      -1.390035       -37.8248
  28   2.0000      -1.389646       -37.8142
  29   2.0000      -1.383350       -37.6429
  30   2.0000      -1.356175       -36.9034
  31   2.0000      -1.279070       -34.8053
  32   2.0000      -1.153600       -31.3910
  33   2.0000      -1.130707       -30.7681
  34   2.0000      -1.118830       -30.4449
  35   2.0000      -1.092415       -29.7261
  36   2.0000      -1.075830       -29.2748
  37   2.0000      -1.055070       -28.7099
  38   2.0000      -1.025365       -27.9016
  39   2.0000      -1.003688       -27.3117
  40   2.0000      -0.985812       -26.8253
  41   2.0000      -0.966708       -26.3054
  42   2.0000      -0.947124       -25.7725
  43   2.0000      -0.930310       -25.3150
  44   2.0000      -0.898217       -24.4417
  45   2.0000      -0.871921       -23.7262
  46   2.0000      -0.856137       -23.2967
  47   2.0000      -0.828349       -22.5405
  48   2.0000      -0.817083       -22.2340
  49   2.0000      -0.785594       -21.3771
  50   2.0000      -0.763930       -20.7876
  51   2.0000      -0.749901       -20.4058
  52   2.0000      -0.737357       -20.0645
  53   2.0000      -0.733008       -19.9462
  54   2.0000      -0.724960       -19.7272
  55   2.0000      -0.708136       -19.2694
  56   2.0000      -0.686201       -18.6725
  57   2.0000      -0.684461       -18.6251
  58   2.0000      -0.679844       -18.4995
  59   2.0000      -0.674948       -18.3663
  60   2.0000      -0.659153       -17.9365
  61   2.0000      -0.652646       -17.7594
  62   2.0000      -0.640881       -17.4393
  63   2.0000      -0.629924       -17.1411
  64   2.0000      -0.618384       -16.8271
  65   2.0000      -0.617367       -16.7994
  66   2.0000      -0.613470       -16.6934
  67   2.0000      -0.605439       -16.4748
  68   2.0000      -0.595790       -16.2123
  69   2.0000      -0.588070       -16.0022
  70   2.0000      -0.582656       -15.8549
  71   2.0000      -0.579532       -15.7699
  72   2.0000      -0.571888       -15.5619
  73   2.0000      -0.561961       -15.2917
  74   2.0000      -0.561060       -15.2672
  75   2.0000      -0.557728       -15.1766
  76   2.0000      -0.550929       -14.9916
  77   2.0000      -0.544208       -14.8087
  78   2.0000      -0.542250       -14.7554
  79   2.0000      -0.541535       -14.7359
  80   2.0000      -0.536267       -14.5926
  81   2.0000      -0.525569       -14.3015
  82   2.0000      -0.524249       -14.2655
  83   2.0000      -0.515699       -14.0329
  84   2.0000      -0.510385       -13.8883
  85   2.0000      -0.502284       -13.6678
  86   2.0000      -0.498118       -13.5545
  87   2.0000      -0.493831       -13.4378
  88   2.0000      -0.484591       -13.1864
  89   2.0000      -0.479003       -13.0343
  90   2.0000      -0.475558       -12.9406
  91   2.0000      -0.464689       -12.6448
  92   2.0000      -0.451025       -12.2730
  93   2.0000      -0.432621       -11.7722
  94   2.0000      -0.428829       -11.6690
  95   2.0000      -0.407101       -11.0778
  96   2.0000      -0.381277       -10.3751
  97   2.0000      -0.369251       -10.0478
  98   2.0000      -0.310988        -8.4624
  99   2.0000      -0.239947        -6.5293
 100   0.0000       0.019240         0.5235
 101   0.0000       0.021655         0.5893
 102   0.0000       0.023219         0.6318
 103   0.0000       0.027157         0.7390
 104   0.0000       0.031104         0.8464

MULLIKEN ATOMIC CHARGES
-----------------------
   0 C :   -1.087296
   1 C :    0.903478
   2 C :    1.425738
   3 C :   -0.133311
   4 C :    1.305551
   5 C :    0.201793
   6 H :    0.177185
   7 C :   -0.599224
   8 C :    1.942541
   9 H :   -0.154472
  10 C :    0.406550
  11 C :   -0.127113
  12 C :   -0.362099
  13 C :   -0.806096
  14 C :   -0.359963
  15 H :    0.595355
  16 N :    0.354604
  17 H :   -0.017111
  18 C :    0.528344
  19 C :   -0.766587
  20 H :    0.501647
  21 C :    0.948162
  22 H :    0.291609
  23 O :   -0.896033
  24 C :   -0.979044
  25 H :    0.356356
  26 O :   -0.948624
  27 H :   -0.621969
  28 C :   -0.973143
  29 C :   -1.124448
  30 H :   -0.387183
  31 H :   -0.234381
  32 H :    0.401856
  33 H :    0.163735
  34 H :    0.160090
  35 H :    0.153379
  36 H :    0.555338
  37 C :   -0.110006
  38 O :   -1.264826
  39 H :    0.283113
  40 H :    0.252797
  41 H :    0.221638
  42 H :    0.261913
  43 H :    0.121539
  44 H :    0.085359
  45 C :   -0.670213
  46 O :   -0.943341
  47 H :    0.273014
  48 H :    0.311306
  49 C :   -1.129235
  50 H :    0.139878
  51 H :    0.377799
  52 H :    0.318278
  53 H :    0.241023
  54 H :    0.264298
  55 H :    0.170453
Sum of atomic charges:   -0.0000000

LOEWDIN ATOMIC CHARGES
----------------------
   0 C :    0.212041
   1 C :    0.182603
   2 C :   -0.073370
   3 C :    0.144267
   4 C :    0.118588
   5 C :   -0.082952
   6 H :   -0.153722
   7 C :    0.245791
   8 C :   -0.089387
   9 H :   -0.189784
  10 C :   -0.221217
  11 C :    0.211299
  12 C :    0.199309
  13 C :    0.222109
  14 C :   -0.664070
  15 H :   -0.156671
  16 N :    0.308054
  17 H :   -0.126901
  18 C :   -0.220938
  19 C :    0.197496
  20 H :   -0.207951
  21 C :   -0.263206
  22 H :   -0.172787
  23 O :    0.852813
  24 C :    0.235423
  25 H :   -0.156025
  26 O :    0.839239
  27 H :   -0.169487
  28 C :    0.587816
  29 C :    0.590825
  30 H :   -0.203281
  31 H :   -0.182250
  32 H :   -0.162598
  33 H :   -0.483093
  34 H :   -0.528528
  35 H :   -0.177110
  36 H :   -0.178191
  37 C :   -0.090919
  38 O :    0.460597
  39 H :   -0.188236
  40 H :   -0.156484
  41 H :   -0.159763
  42 H :   -0.178984
  43 H :   -0.181921
  44 H :   -0.143000
  45 C :    0.339598
  46 O :    0.855700
  47 H :   -0.116917
  48 H :   -0.118203
  49 C :    0.612843
  50 H :   -0.135349
  51 H :   -0.125008
  52 H :   -0.167321
  53 H :   -0.160346
  54 H :   -0.157436
  55 H :   -0.473006

  Mayer bond orders larger than 0.100000
B(  0-C ,  2-C ) :  -0.3014 B(  0-C ,  3-C ) :   0.2535 B(  0-C ,  6-H ) :  -0.1704
B(  0-C ,  7-C ) :  -0.2714 B(  0-C , 12-C ) :   0.1359 B(  0-C , 13-C ) :  -0.1151
B(  0-C , 19-C ) :   0.4412 B(  0-C , 20-H ) :  -0.1746 B(  0-C , 24-C ) :   0.4154
B(  0-C , 27-H ) :   2.6278 B(  0-C , 28-C ) :  -0.2535 B(  1-C ,  2-C ) :   0.6911
B(  1-C ,  3-C ) :  -0.1789 B(  1-C ,  8-C ) :   0.2209 B(  1-C ,  9-H ) :  -0.2492
B(  1-C , 11-C ) :   0.1215 B(  1-C , 13-C ) :   0.1237 B(  1-C , 20-H ) :   0.9009
B(  1-C , 24-C ) :  -0.4320 B(  1-C , 27-H ) :  -0.1883 B(  1-C , 30-H ) :   0.1407
B(  2-C ,  3-C ) :   1.3877 B(  2-C ,  4-C ) :   0.2333 B(  2-C ,  6-H ) :  -0.1395
B(  2-C ,  7-C ) :   0.2320 B(  2-C , 11-C ) :   0.2412 B(  2-C , 12-C ) :  -0.1958
B(  2-C , 13-C ) :   0.4363 B(  2-C , 19-C ) :   0.1398 B(  2-C , 24-C ) :  -0.1094
B(  2-C , 27-H ) :  -0.1855 B(  2-C , 28-C ) :   0.2725 B(  2-C , 42-H ) :  -0.1408
B(  2-C , 44-H ) :  -0.3206 B(  2-C , 46-O ) :  -0.1166 B(  3-C ,  4-C ) :   0.2302
B(  3-C ,  5-C ) :   1.5609 B(  3-C ,  6-H ) :   1.1010 B(  3-C ,  7-C ) :  -0.1467
B(  3-C , 12-C ) :   0.1800 B(  3-C , 14-C ) :  -0.1575 B(  3-C , 15-H ) :   0.1828
B(  3-C , 16-N ) :  -0.3211 B(  3-C , 27-H ) :  -0.2766 B(  3-C , 28-C ) :   0.3601
B(  4-C ,  5-C ) :   0.1096 B(  4-C ,  7-C ) :   0.1381 B(  4-C , 11-C ) :  -0.1715
B(  4-C , 13-C ) :   1.0368 B(  4-C , 14-C ) :  -0.7838 B(  4-C , 15-H ) :   0.7974
B(  4-C , 30-H ) :  -0.1988 B(  4-C , 32-H ) :  -0.1050 B(  4-C , 38-O ) :  -0.2205
B(  5-C ,  6-H ) :  -0.1275 B(  5-C , 14-C ) :   0.1972 B(  5-C , 16-N ) :   0.6598
B(  5-C , 17-H ) :   0.8973 B(  5-C , 18-C ) :   0.6762 B(  5-C , 37-C ) :  -0.1213
B(  5-C , 46-O ) :   0.2816 B(  5-C , 47-H ) :  -0.1459 B(  6-H , 27-H ) :  -0.2054
B(  7-C ,  8-C ) :   0.7363 B(  7-C ,  9-H ) :   2.0649 B(  7-C , 10-C ) :   0.8342
B(  7-C , 11-C ) :   0.2500 B(  7-C , 12-C ) :   0.2137 B(  7-C , 13-C ) :   0.2564
B(  7-C , 22-H ) :  -0.1299 B(  7-C , 23-O ) :  -0.1417 B(  7-C , 24-C ) :   0.2622
B(  7-C , 29-C ) :  -0.2537 B(  7-C , 30-H ) :  -0.2493 B(  7-C , 31-H ) :  -0.2488
B(  7-C , 32-H ) :   0.2763 B(  8-C ,  9-H ) :  -0.5656 B(  8-C , 11-C ) :   0.4325
B(  8-C , 12-C ) :   0.2464 B(  8-C , 19-C ) :   0.1479 B(  8-C , 24-C ) :  -0.2178
B(  8-C , 29-C ) :   0.5002 B(  8-C , 30-H ) :  -0.3221 B(  8-C , 31-H ) :  -0.1252
B(  8-C , 40-H ) :  -0.1053 B(  8-C , 41-H ) :  -0.1375 B(  9-H , 11-C ) :  -0.3035
B(  9-H , 13-C ) :   0.1597 B(  9-H , 19-C ) :  -0.1496 B(  9-H , 30-H ) :  -0.1623
B( 10-C , 11-C ) :  -0.1036 B( 10-C , 13-C ) :   0.1189 B( 10-C , 21-C ) :   0.9255
B( 10-C , 22-H ) :   0.9733 B( 10-C , 23-O ) :   0.2161 B( 10-C , 24-C ) :   0.2375
B( 10-C , 26-O ) :   0.1427 B( 11-C , 12-C ) :   0.4965 B( 11-C , 13-C ) :  -0.1971
B( 11-C , 15-H ) :  -0.1184 B( 11-C , 30-H ) :   2.6119 B( 11-C , 31-H ) :  -0.2051
B( 12-C , 13-C ) :   0.7629 B( 12-C , 14-C ) :  -0.1203 B( 12-C , 29-C ) :  -0.1699
B( 12-C , 30-H ) :  -0.1890 B( 12-C , 31-H ) :   1.8712 B( 12-C , 32-H ) :  -0.2140
B( 13-C , 16-N ) :  -0.1746 B( 13-C , 31-H ) :  -0.2124 B( 13-C , 32-H ) :   0.8035
B( 13-C , 38-O ) :   0.1184 B( 14-C , 15-H ) :  -0.7361 B( 14-C , 16-N ) :   1.4863
B( 14-C , 38-O ) :   0.4200 B( 15-H , 30-H ) :  -0.2031 B( 16-N , 17-H ) :   0.1966
B( 16-N , 37-C ) :   0.7033 B( 16-N , 49-C ) :  -0.1233 B( 18-C , 45-C ) :   0.9589
B( 18-C , 47-H ) :   1.0605 B( 19-C , 20-H ) :  -0.1635 B( 19-C , 24-C ) :   1.6202
B( 19-C , 35-H ) :   1.1358 B( 20-H , 24-C ) :   0.1635 B( 20-H , 43-H ) :  -0.1149
B( 21-C , 23-O ) :   0.2113 B( 21-C , 24-C ) :   0.8281 B( 21-C , 25-H ) :   0.9731
B( 21-C , 26-O ) :  -0.2600 B( 22-H , 23-O ) :  -0.1519 B( 23-O , 33-H ) :   1.0736
B( 24-C , 26-O ) :   0.1863 B( 24-C , 35-H ) :  -0.1161 B( 24-C , 36-H ) :   0.4052
B( 26-O , 34-H ) :   1.0645 B( 26-O , 36-H ) :   0.1341 B( 27-H , 35-H ) :  -0.2044
B( 28-C , 42-H ) :   1.1136 B( 28-C , 43-H ) :   1.1827 B( 28-C , 44-H ) :   1.1213
B( 29-C , 39-H ) :   0.9544 B( 29-C , 40-H ) :   1.1204 B( 29-C , 41-H ) :   1.2057
B( 30-H , 31-H ) :   0.3253 B( 30-H , 32-H ) :  -0.2916 B( 37-C , 45-C ) :   1.0417
B( 37-C , 48-H ) :   0.9602 B( 37-C , 49-C ) :   0.6551 B( 43-H , 44-H ) :  -0.1314
B( 45-C , 46-O ) :   0.1619 B( 45-C , 50-H ) :   1.1150 B( 45-C , 51-H ) :   0.8654
B( 46-O , 55-H ) :   1.0213 B( 49-C , 52-H ) :   0.9763 B( 49-C , 53-H ) :   1.0305
B( 49-C , 54-H ) :   1.0406

MP2 TOTAL ENERGY:    -1209.058023081 Eh
FINAL SINGLE POINT ENERGY     -1209.058023080591

DIPOLE MOMENT
-------------
                                X             Y             Z
Electronic contribution:     -4.01709      -0.93794      -7.82499
Nuclear contribution   :      4.24935       1.81713       8.04940
                        -----------------------------------------
Total Dipole Moment    :      0.23226       0.87919       0.22441
                        -----------------------------------------
Magnitude (a.u.)       :      0.93663
Magnitude (Debye)      :      2.38073

Rotational constants in cm-1:     0.014112     0.003209     0.002874
Rotational constants in MHz :   423.061746    96.217923    86.153475

                             ****ORCA TERMINATED NORMALLY****
TOTAL RUN TIME: 0 days 2 hours 54 minutes 37 seconds 851 msec
