                         Program Version 4.2.1 -  RELEASE  -
|  1> %pal
|  2>  nprocs 32
|  3> end
|  4> !RI-MP2 aug-cc-pVTZ aug-cc-pVTZ/C TightSCF
|  5> %maxcore 4500
|  6> *xyzfile 0 1  08_8P2.xyz
|  7>
|  8>
|  9>                          ****END OF INPUT****

CARTESIAN COORDINATES (ANGSTROEM)
---------------------------------
  S     -2.965708   -0.392257   -0.297509
  C     -1.405753   -1.056978    0.356953
  C     -3.023551    1.244802    0.481841
  C     -0.203604   -0.766945   -0.520549
  H     -1.531435   -2.138204    0.412944
  H     -1.240626   -0.681832    1.366132
  C      0.309180    0.663811   -0.528120
  O      0.898881   -1.565668   -0.057066
  H     -0.437369   -1.054905   -1.551647
  C      2.125156   -0.856156   -0.146648
  C      1.781929    0.456216   -0.888622
  O      2.589289    1.533368   -0.488777
  H      1.877494    0.309150   -1.967586
  O      0.216363    1.228562    0.767572
  H     -0.222504    1.280175   -1.258414
  N      2.717654   -0.559796    1.132717
  H      2.835982   -1.462570   -0.711027
  H      0.848745    1.958690    0.785577
  H      3.137038    1.191113    0.238943
  H      2.004212   -0.251573    1.786206
  H      3.196450   -1.361200    1.521256
  H     -3.954131    1.706269    0.152854
  H     -2.183797    1.868300    0.185623
  H     -3.038723    1.152688    1.567290

 Total Charge           Charge          ....    0
 Multiplicity           Mult            ....    1
 Number of Electrons    NEL             ....   96
 Basis Dimension        Dim             ....  809

ORBITAL ENERGIES
----------------

  NO   OCC          E(Eh)            E(eV)
   0   2.0000     -91.943036     -2501.8972
   1   2.0000     -20.569109      -559.7139
   2   2.0000     -20.565511      -559.6160
   3   2.0000     -20.563676      -559.5661
   4   2.0000     -15.562905      -423.4882
   5   2.0000     -11.320965      -308.0591
   6   2.0000     -11.290470      -307.2293
   7   2.0000     -11.290104      -307.2193
   8   2.0000     -11.287794      -307.1565
   9   2.0000     -11.252098      -306.1852
  10   2.0000     -11.244467      -305.9775
  11   2.0000      -8.943250      -243.3582
  12   2.0000      -6.624611      -180.2648
  13   2.0000      -6.623615      -180.2377
  14   2.0000      -6.622734      -180.2138
  15   2.0000      -1.413140       -38.4535
  16   2.0000      -1.377769       -37.4910
  17   2.0000      -1.363185       -37.0941
  18   2.0000      -1.196961       -32.5710
  19   2.0000      -1.081319       -29.4242
  20   2.0000      -1.037908       -28.2429
  21   2.0000      -0.997049       -27.1311
  22   2.0000      -0.922181       -25.0938
  23   2.0000      -0.829485       -22.5714
  24   2.0000      -0.822178       -22.3726
  25   2.0000      -0.784940       -21.3593
  26   2.0000      -0.753529       -20.5046
  27   2.0000      -0.707941       -19.2640
  28   2.0000      -0.683532       -18.5999
  29   2.0000      -0.674397       -18.3513
  30   2.0000      -0.663238       -18.0476
  31   2.0000      -0.632062       -17.1993
  32   2.0000      -0.600500       -16.3404
  33   2.0000      -0.594202       -16.1691
  34   2.0000      -0.587870       -15.9968
  35   2.0000      -0.581511       -15.8237
  36   2.0000      -0.572789       -15.5864
  37   2.0000      -0.565637       -15.3918
  38   2.0000      -0.533533       -14.5182
  39   2.0000      -0.522019       -14.2049
  40   2.0000      -0.496994       -13.5239
  41   2.0000      -0.475485       -12.9386
  42   2.0000      -0.467290       -12.7156
  43   2.0000      -0.454494       -12.3674
  44   2.0000      -0.441894       -12.0245
  45   2.0000      -0.425160       -11.5692
  46   2.0000      -0.416024       -11.3206
  47   2.0000      -0.336561        -9.1583
  48   0.0000       0.026079         0.7096
  49   0.0000       0.032360         0.8806
  50   0.0000       0.032980         0.8974
  51   0.0000       0.039543         1.0760
  52   0.0000       0.044973         1.2238

MULLIKEN ATOMIC CHARGES
-----------------------
   0 S :   -0.404940
   1 C :   -0.335762
   2 C :   -0.765586
   3 C :    0.348997
   4 H :    0.284157
   5 H :    0.233259
   6 C :    0.080704
   7 O :   -0.976350
   8 H :    0.425269
   9 C :    0.553217
  10 C :    0.227972
  11 O :   -0.898509
  12 H :    0.367060
  13 O :   -0.648354
  14 H :    0.443361
  15 N :   -0.678658
  16 H :    0.454992
  17 H :    0.062602
  18 H :    0.208589
  19 H :    0.143964
  20 H :    0.033676
  21 H :    0.290513
  22 H :    0.284043
  23 H :    0.265785
Sum of atomic charges:    0.0000000

LOEWDIN ATOMIC CHARGES
----------------------
   0 S :    1.196723
   1 C :   -0.062723
   2 C :    0.222930
   3 C :   -0.320689
   4 H :   -0.223402
   5 H :   -0.223853
   6 C :   -0.251809
   7 O :    0.614307
   8 H :   -0.147862
   9 C :   -0.333928
  10 C :   -0.218668
  11 O :    0.855676
  12 H :   -0.128469
  13 O :    0.851759
  14 H :   -0.127549
  15 N :    0.864460
  16 H :   -0.133287
  17 H :   -0.504374
  18 H :   -0.565029
  19 H :   -0.306367
  20 H :   -0.294706
  21 H :   -0.255759
  22 H :   -0.269884
  23 H :   -0.237498

  Mayer bond orders larger than 0.100000
B(  0-S ,  1-C ) :   0.8146 B(  0-S ,  2-C ) :   0.9103 B(  1-C ,  3-C ) :   0.9476
B(  1-C ,  4-H ) :   0.9556 B(  1-C ,  5-H ) :   0.9740 B(  1-C ,  7-O ) :   0.1059
B(  2-C , 21-H ) :   0.9561 B(  2-C , 22-H ) :   0.8996 B(  2-C , 23-H ) :   0.9306
B(  3-C ,  6-C ) :   0.9575 B(  3-C ,  7-O ) :   0.4723 B(  3-C ,  8-H ) :   0.8295
B(  3-C , 13-O ) :   0.1227 B(  6-C , 10-C ) :   1.0823 B(  6-C , 11-O ) :   0.1055
B(  6-C , 13-O ) :   0.5134 B(  6-C , 14-H ) :   0.8104 B(  7-O ,  9-C ) :   0.6738
B(  7-O , 10-C ) :   0.1360 B(  9-C , 10-C ) :   1.0987 B(  9-C , 11-O ) :   0.1129
B(  9-C , 15-N ) :   0.3823 B(  9-C , 16-H ) :   0.8529 B( 10-C , 11-O ) :   0.2747
B( 10-C , 12-H ) :   0.9618 B( 10-C , 15-N ) :   0.1700 B( 11-O , 18-H ) :   0.9550
B( 13-O , 17-H ) :   1.0454 B( 15-N , 19-H ) :   0.9266 B( 15-N , 20-H ) :   1.0747

MP2 TOTAL ENERGY:     -913.712997747 Eh
FINAL SINGLE POINT ENERGY      -913.712997747355

DIPOLE MOMENT
-------------
                                X             Y             Z
Electronic contribution:     -0.79789      -2.50826      -2.27132
Nuclear contribution   :      1.46582       2.55883       2.56256
                        -----------------------------------------
Total Dipole Moment    :      0.66794       0.05057       0.29123
                        -----------------------------------------
Magnitude (a.u.)       :      0.73042
Magnitude (Debye)      :      1.85658

Rotational constants in cm-1:     0.063664     0.019181     0.016930
Rotational constants in MHz :  1908.585264   575.027705   507.553735

                             ****ORCA TERMINATED NORMALLY****
TOTAL RUN TIME: 0 days 0 hours 9 minutes 23 seconds 527 msec
