                         Program Version 4.2.1 -  RELEASE  -
|  1> %pal
|  2>  nprocs 32
|  3> end
|  4> !RI-MP2 aug-cc-pVTZ aug-cc-pVTZ/C TightSCF
|  5> %maxcore 4500
|  6> *xyzfile 0 1  10_9TS.xyz
|  7>
|  8>
|  9>                          ****END OF INPUT****

CARTESIAN COORDINATES (ANGSTROEM)
---------------------------------
  C      1.323707    0.161025    0.138253
  C      0.423527    1.104460    0.400241
  N      0.016316   -1.458064   -0.640124
  N     -0.991308   -0.919779   -0.494933
  N     -1.487491    0.194069   -0.212268
  C     -2.706635    0.219679    0.583919
  H     -2.604953   -0.344340    1.516270
  H     -2.900998    1.264160    0.819716
  H     -3.558412   -0.165367    0.019201
  H      0.020850    1.717338    1.187593
  C      1.180839    1.254350   -0.878850
  H      1.949939    2.026195   -0.952328
  H      0.676615    1.052491   -1.823050
  C      2.386766   -0.674211    0.746827
  H      2.041762   -1.127250    1.678079
  H      2.700917   -1.471721    0.072702
  H      3.262440   -0.056898    0.970751

 Total Charge           Charge          ....    0
 Multiplicity           Mult            ....    1
 Number of Electrons    NEL             ....   60
 Basis Dimension        Dim             ....  575

ORBITAL ENERGIES
----------------

  NO   OCC          E(Eh)            E(eV)
   0   2.0000     -15.727642      -427.9709
   1   2.0000     -15.656256      -426.0284
   2   2.0000     -15.610694      -424.7886
   3   2.0000     -11.272046      -306.7280
   4   2.0000     -11.241651      -305.9009
   5   2.0000     -11.232271      -305.6456
   6   2.0000     -11.225207      -305.4534
   7   2.0000     -11.223100      -305.3961
   8   2.0000      -1.476406       -40.1750
   9   2.0000      -1.249821       -34.0094
  10   2.0000      -1.154316       -31.4105
  11   2.0000      -0.986765       -26.8512
  12   2.0000      -0.972242       -26.4560
  13   2.0000      -0.811573       -22.0840
  14   2.0000      -0.750396       -20.4193
  15   2.0000      -0.731999       -19.9187
  16   2.0000      -0.698193       -18.9988
  17   2.0000      -0.677741       -18.4423
  18   2.0000      -0.655021       -17.8240
  19   2.0000      -0.622686       -16.9441
  20   2.0000      -0.588157       -16.0046
  21   2.0000      -0.576669       -15.6920
  22   2.0000      -0.570968       -15.5368
  23   2.0000      -0.568611       -15.4727
  24   2.0000      -0.545831       -14.8528
  25   2.0000      -0.458660       -12.4808
  26   2.0000      -0.439836       -11.9685
  27   2.0000      -0.400356       -10.8942
  28   2.0000      -0.367551       -10.0016
  29   2.0000      -0.311103        -8.4655
  30   0.0000       0.026135         0.7112
  31   0.0000       0.034184         0.9302
  32   0.0000       0.037824         1.0293
  33   0.0000       0.039661         1.0792
  34   0.0000       0.051263         1.3949

MULLIKEN ATOMIC CHARGES
-----------------------
   0 C :    0.624349
   1 C :   -0.610339
   2 N :   -0.741740
   3 N :    0.568881
   4 N :   -0.194806
   5 C :   -0.780271
   6 H :    0.339525
   7 H :    0.367888
   8 H :    0.325948
   9 H :    0.537525
  10 C :   -1.372126
  11 H :    0.310096
  12 H :    0.360903
  13 C :   -0.573513
  14 H :    0.267290
  15 H :    0.251214
  16 H :    0.319175
Sum of atomic charges:   -0.0000000

LOEWDIN ATOMIC CHARGES
----------------------
   0 C :   -0.212631
   1 C :    0.170181
   2 N :    0.356548
   3 N :   -0.184957
   4 N :    0.204451
   5 C :    0.412258
   6 H :   -0.178451
   7 H :   -0.188688
   8 H :   -0.184409
   9 H :   -0.169855
  10 C :    0.314636
  11 H :   -0.175199
  12 H :   -0.192207
  13 C :    0.564025
  14 H :   -0.175890
  15 H :   -0.186588
  16 H :   -0.173225

  Mayer bond orders larger than 0.100000
B(  0-C ,  1-C ) :   0.7122 B(  0-C ,  2-N ) :   0.2246 B(  0-C , 10-C ) :   0.7225
B(  0-C , 13-C ) :   0.4508 B(  1-C ,  4-N ) :   0.3030 B(  1-C ,  9-H ) :   0.6149
B(  1-C , 10-C ) :   1.2890 B(  2-N ,  3-N ) :   1.4060 B(  2-N ,  4-N ) :   0.3523
B(  3-N ,  4-N ) :   1.1457 B(  4-N ,  5-C ) :   0.7773 B(  5-C ,  6-H ) :   0.8994
B(  5-C ,  7-H ) :   0.8708 B(  5-C ,  8-H ) :   0.9133 B( 10-C , 11-H ) :   0.9128
B( 10-C , 12-H ) :   0.8410 B( 10-C , 13-C ) :  -0.3188 B( 13-C , 14-H ) :   1.0101
B( 13-C , 15-H ) :   0.9985 B( 13-C , 16-H ) :   0.9744

MP2 TOTAL ENERGY:     -359.328844162 Eh
FINAL SINGLE POINT ENERGY      -359.328844161879

DIPOLE MOMENT
-------------
                                X             Y             Z
Electronic contribution:     -2.12543      -2.72201      -2.80484
Nuclear contribution   :      1.59546       2.92162       3.52914
                        -----------------------------------------
Total Dipole Moment    :     -0.52997       0.19961       0.72431
                        -----------------------------------------
Magnitude (a.u.)       :      0.91942
Magnitude (Debye)      :      2.33698

Rotational constants in cm-1:     0.120648     0.049576     0.043067
Rotational constants in MHz :  3616.936049  1486.249585  1291.120853

                             ****ORCA TERMINATED NORMALLY****
TOTAL RUN TIME: 0 days 0 hours 3 minutes 37 seconds 77 msec
