                         Program Version 4.2.1 -  RELEASE  -
|  1> %pal
|  2>  nprocs 32
|  3> end
|  4> !RI-MP2 aug-cc-pVTZ aug-cc-pVTZ/C TightSCF
|  5> %maxcore 4500
|  6> *xyzfile 0 1  08_9P1.xyz
|  7>
|  8>
|  9>                          ****END OF INPUT****

CARTESIAN COORDINATES (ANGSTROEM)
---------------------------------
  C      0.112654   -0.631063   -0.507512
  C     -1.012663   -1.464056    0.057494
  O     -0.397333    0.679659   -0.589966
  C     -1.675189   -0.491743    1.061728
  C     -1.288429    0.915878    0.528983
  C     -2.437357    1.751323    0.011515
  H     -0.742141    1.480074    1.289172
  O      1.185504   -0.686443    0.421506
  P      2.573969    0.101351    0.159836
  O      3.558557   -0.108968    1.215008
  O      2.124771    1.599479   -0.103366
  O      3.011073   -0.413059   -1.301136
  O     -3.255349    1.021004   -0.890754
  H     -2.043289    2.655214   -0.462421
  H     -3.078920    2.050306    0.840693
  H     -2.694876    0.643309   -1.579994
  O     -3.054724   -0.719700    1.197251
  H     -1.236532   -0.643126    2.046518
  H     -3.499963   -0.310061    0.437426
  O     -1.876926   -1.763167   -1.014571
  H     -0.635330   -2.368215    0.537745
  H     -2.686796   -2.131286   -0.643752
  H      1.223851    1.667041   -0.468823
  H      3.782678   -0.989189   -1.277043
  H      0.443088   -0.926810   -1.502075

 Total Charge           Charge          ....    0
 Multiplicity           Mult            ....    1
 Number of Electrons    NEL             ....  120
 Basis Dimension        Dim             ....  901

ORBITAL ENERGIES
----------------

  NO   OCC          E(Eh)            E(eV)
   0   2.0000     -80.114774     -2180.0338
   1   2.0000     -20.614889      -560.9597
   2   2.0000     -20.612381      -560.8914
   3   2.0000     -20.611019      -560.8544
   4   2.0000     -20.602270      -560.6163
   5   2.0000     -20.591452      -560.3219
   6   2.0000     -20.590871      -560.3061
   7   2.0000     -20.577696      -559.9476
   8   2.0000     -20.517275      -558.3034
   9   2.0000     -11.378894      -309.6355
  10   2.0000     -11.320083      -308.0351
  11   2.0000     -11.312555      -307.8303
  12   2.0000     -11.311464      -307.8006
  13   2.0000     -11.307834      -307.7018
  14   2.0000      -7.631109      -207.6530
  15   2.0000      -5.529582      -150.4676
  16   2.0000      -5.529201      -150.4572
  17   2.0000      -5.528291      -150.4324
  18   2.0000      -1.488659       -40.5085
  19   2.0000      -1.443881       -39.2900
  20   2.0000      -1.410029       -38.3688
  21   2.0000      -1.398486       -38.0548
  22   2.0000      -1.390315       -37.8324
  23   2.0000      -1.384351       -37.6701
  24   2.0000      -1.375773       -37.4367
  25   2.0000      -1.306980       -35.5647
  26   2.0000      -1.073674       -29.2162
  27   2.0000      -1.059615       -28.8336
  28   2.0000      -0.949990       -25.8505
  29   2.0000      -0.869335       -23.6558
  30   2.0000      -0.849279       -23.1101
  31   2.0000      -0.838265       -22.8104
  32   2.0000      -0.779895       -21.2220
  33   2.0000      -0.776538       -21.1307
  34   2.0000      -0.757308       -20.6074
  35   2.0000      -0.733410       -19.9571
  36   2.0000      -0.711556       -19.3624
  37   2.0000      -0.706007       -19.2114
  38   2.0000      -0.686422       -18.6785
  39   2.0000      -0.666289       -18.1307
  40   2.0000      -0.659663       -17.9503
  41   2.0000      -0.650997       -17.7145
  42   2.0000      -0.636914       -17.3313
  43   2.0000      -0.621071       -16.9002
  44   2.0000      -0.609799       -16.5935
  45   2.0000      -0.599998       -16.3268
  46   2.0000      -0.593678       -16.1548
  47   2.0000      -0.571829       -15.5603
  48   2.0000      -0.567791       -15.4504
  49   2.0000      -0.559169       -15.2158
  50   2.0000      -0.542072       -14.7505
  51   2.0000      -0.535002       -14.5582
  52   2.0000      -0.532890       -14.5007
  53   2.0000      -0.518980       -14.1222
  54   2.0000      -0.497933       -13.5494
  55   2.0000      -0.494935       -13.4679
  56   2.0000      -0.482185       -13.1209
  57   2.0000      -0.475987       -12.9523
  58   2.0000      -0.465146       -12.6573
  59   2.0000      -0.445547       -12.1239
  60   0.0000       0.024115         0.6562
  61   0.0000       0.028625         0.7789
  62   0.0000       0.032846         0.8938
  63   0.0000       0.034824         0.9476
  64   0.0000       0.044723         1.2170

MULLIKEN ATOMIC CHARGES
-----------------------
   0 C :    0.383097
   1 C :    0.110377
   2 O :   -0.764791
   3 C :    0.439361
   4 C :    0.082157
   5 C :   -0.250585
   6 H :    0.354420
   7 O :   -0.664487
   8 P :    1.691156
   9 O :   -1.018907
  10 O :   -0.624843
  11 O :   -0.476678
  12 O :   -0.668202
  13 H :    0.253964
  14 H :    0.330275
  15 H :    0.172474
  16 O :   -0.947195
  17 H :    0.438762
  18 H :    0.308948
  19 O :   -0.752178
  20 H :    0.449288
  21 H :    0.117707
  22 H :    0.320530
  23 H :    0.139693
  24 H :    0.575656
Sum of atomic charges:   -0.0000000

LOEWDIN ATOMIC CHARGES
----------------------
   0 C :   -0.548042
   1 C :   -0.225668
   2 O :    0.624098
   3 C :   -0.192089
   4 C :   -0.175037
   5 C :    0.077862
   6 H :   -0.127820
   7 O :    0.401136
   8 P :   -0.212226
   9 O :    0.007643
  10 O :    0.653948
  11 O :    0.636181
  12 O :    0.859570
  13 H :   -0.141607
  14 H :   -0.146191
  15 H :   -0.475049
  16 O :    0.864737
  17 H :   -0.137281
  18 H :   -0.622214
  19 O :    0.849579
  20 H :   -0.125450
  21 H :   -0.485363
  22 H :   -0.673122
  23 H :   -0.541919
  24 H :   -0.145675

  Mayer bond orders larger than 0.100000
B(  0-C ,  1-C ) :   1.0165 B(  0-C ,  2-O ) :   0.8220 B(  0-C ,  7-O ) :   0.5434
B(  0-C , 24-H ) :   0.7793 B(  1-C ,  3-C ) :   1.1429 B(  1-C , 16-O ) :   0.1714
B(  1-C , 19-O ) :   0.4486 B(  1-C , 20-H ) :   0.7979 B(  2-O ,  4-C ) :   0.5686
B(  3-C ,  4-C ) :   1.0616 B(  3-C , 16-O ) :   0.1046 B(  3-C , 17-H ) :   0.8770
B(  4-C ,  5-C ) :   0.8942 B(  4-C ,  6-H ) :   0.7696 B(  4-C ,  7-O ) :   0.1008
B(  4-C , 16-O ) :   0.1453 B(  5-C , 12-O ) :   0.7180 B(  5-C , 13-H ) :   1.0303
B(  5-C , 14-H ) :   0.9558 B(  7-O ,  8-P ) :   1.0804 B(  7-O , 10-O ) :   0.1314
B(  8-P ,  9-O ) :   1.2711 B(  8-P , 10-O ) :   0.8994 B(  8-P , 11-O ) :   0.8686
B( 10-O , 22-H ) :   0.7443 B( 11-O , 23-H ) :   1.0274 B( 12-O , 15-H ) :   1.0062
B( 16-O , 17-H ) :  -0.1030 B( 16-O , 18-H ) :   0.8464 B( 19-O , 21-H ) :   1.0297

MP2 TOTAL ENERGY:    -1138.786004828 Eh
FINAL SINGLE POINT ENERGY     -1138.786004827808

DIPOLE MOMENT
-------------
                                X             Y             Z
Electronic contribution:     12.21199      -1.17957       0.01811
Nuclear contribution   :    -13.31904       1.00346      -0.93198
                        -----------------------------------------
Total Dipole Moment    :     -1.10705      -0.17611      -0.91387
                        -----------------------------------------
Magnitude (a.u.)       :      1.44628
Magnitude (Debye)      :      3.67616

Rotational constants in cm-1:     0.043226     0.012323     0.011507
Rotational constants in MHz :  1295.886009   369.445758   344.986002

                             ****ORCA TERMINATED NORMALLY****
TOTAL RUN TIME: 0 days 0 hours 11 minutes 48 seconds 891 msec
