                         Program Version 4.2.1 -  RELEASE  -
|  1> %pal
|  2>  nprocs 32
|  3> end
|  4> !RI-MP2 aug-cc-pVTZ aug-cc-pVTZ/C TightSCF
|  5> %maxcore 4500
|  6> *xyzfile 1 1  10_30P.xyz
|  7>
|  8>
|  9>                          ****END OF INPUT****

CARTESIAN COORDINATES (ANGSTROEM)
---------------------------------
  C     -1.835240    3.288153   -0.032049
  C     -1.555667    1.830317    0.349853
  C      0.450931    2.748729    0.516893
  C     -0.416505    3.920726    0.042715
  H     -2.282072    3.357333   -1.021574
  H     -2.515779    3.749097    0.683640
  H     -0.073026    4.331794   -0.909347
  H     -0.359403    4.727114    0.773183
  C     -0.485277    1.977845    1.435889
  H     -0.084441    1.041589    1.815679
  H     -0.811369    2.594226    2.272497
  H     -2.428634    1.229847    0.576346
  H      1.448582    2.997069    0.858084
  N      0.529964    1.799199   -0.679059
  N     -0.822940    1.234448   -0.795398
  C     -0.646020   -0.241864   -0.883637
  C     -1.832957   -0.997350   -0.341546
  C     -1.887609   -1.482863    0.962221
  C     -2.927073   -1.195651   -1.180081
  C     -3.018114   -2.145247    1.419505
  H     -1.049214   -1.360141    1.636113
  C     -4.060157   -1.851835   -0.723498
  H     -2.889787   -0.832107   -2.201004
  C     -4.107611   -2.327321    0.579552
  H     -3.045131   -2.524987    2.433238
  H     -4.902461   -1.999361   -1.387664
  H     -4.987838   -2.846645    0.937148
  C      0.728006   -0.573897   -0.290301
  C      1.554057    0.642054   -0.689180
  C      1.217776   -1.925862   -0.828976
  H      0.322022   -2.511290   -1.048483
  H      1.720879   -1.782141   -1.791465
  C      2.796569    1.009818    0.100672
  H      2.563010    1.059556    1.168037
  H      3.100108    2.015600   -0.206596
  C      4.003417    0.086784   -0.108793
  H      4.097039   -0.170405   -1.169093
  H      4.882843    0.690823    0.120627
  C      4.070938   -1.185269    0.751645
  H      5.118656   -1.330901    1.021808
  H      3.548441   -1.020518    1.701219
  C      2.090120   -2.769104    0.103161
  H      1.959074   -3.812667   -0.192634
  H      1.696199   -2.703322    1.124068
  C      3.590519   -2.490338    0.114348
  H      4.061538   -3.312684    0.658663
  H      3.979172   -2.555719   -0.908490
  H     -0.587977   -0.460798   -1.954736
  H      0.672479   -0.623066    0.798391
  H      1.819557    0.546363   -1.745662
  H      0.697743    2.363859   -1.511146

 Total Charge           Charge          ....    1
 Multiplicity           Mult            ....    1
 Number of Electrons    NEL             ....  162
 Basis Dimension        Dim             .... 1679

ORBITAL ENERGIES
----------------

  NO   OCC          E(Eh)            E(eV)
   0   2.0000     -15.839820      -431.0234
   1   2.0000     -15.742182      -428.3666
   2   2.0000     -11.429984      -311.0257
   3   2.0000     -11.428308      -310.9801
   4   2.0000     -11.401082      -310.2392
   5   2.0000     -11.398043      -310.1565
   6   2.0000     -11.368353      -309.3486
   7   2.0000     -11.367894      -309.3361
   8   2.0000     -11.367420      -309.3232
   9   2.0000     -11.364366      -309.2401
  10   2.0000     -11.352471      -308.9164
  11   2.0000     -11.350598      -308.8655
  12   2.0000     -11.342493      -308.6449
  13   2.0000     -11.339167      -308.5544
  14   2.0000     -11.338326      -308.5315
  15   2.0000     -11.337976      -308.5220
  16   2.0000     -11.336338      -308.4774
  17   2.0000     -11.334789      -308.4353
  18   2.0000     -11.333396      -308.3974
  19   2.0000     -11.321494      -308.0735
  20   2.0000     -11.321322      -308.0688
  21   2.0000     -11.314752      -307.8901
  22   2.0000      -1.521712       -41.4079
  23   2.0000      -1.304836       -35.5064
  24   2.0000      -1.296136       -35.2697
  25   2.0000      -1.256553       -34.1926
  26   2.0000      -1.234460       -33.5914
  27   2.0000      -1.183949       -32.2169
  28   2.0000      -1.170422       -31.8488
  29   2.0000      -1.141792       -31.0698
  30   2.0000      -1.123129       -30.5619
  31   2.0000      -1.118822       -30.4447
  32   2.0000      -1.091669       -29.7058
  33   2.0000      -1.062728       -28.9183
  34   2.0000      -1.038508       -28.2592
  35   2.0000      -0.993101       -27.0237
  36   2.0000      -0.967841       -26.3363
  37   2.0000      -0.943290       -25.6682
  38   2.0000      -0.933823       -25.4106
  39   2.0000      -0.915393       -24.9091
  40   2.0000      -0.911838       -24.8124
  41   2.0000      -0.903801       -24.5937
  42   2.0000      -0.886783       -24.1306
  43   2.0000      -0.854512       -23.2525
  44   2.0000      -0.848590       -23.0913
  45   2.0000      -0.820491       -22.3267
  46   2.0000      -0.796430       -21.6720
  47   2.0000      -0.773102       -21.0372
  48   2.0000      -0.770118       -20.9560
  49   2.0000      -0.747106       -20.3298
  50   2.0000      -0.743740       -20.2382
  51   2.0000      -0.739362       -20.1191
  52   2.0000      -0.727583       -19.7985
  53   2.0000      -0.720574       -19.6078
  54   2.0000      -0.716547       -19.4982
  55   2.0000      -0.703107       -19.1325
  56   2.0000      -0.698583       -19.0094
  57   2.0000      -0.690973       -18.8023
  58   2.0000      -0.688099       -18.7241
  59   2.0000      -0.680940       -18.5293
  60   2.0000      -0.667768       -18.1709
  61   2.0000      -0.661914       -18.0116
  62   2.0000      -0.657109       -17.8808
  63   2.0000      -0.647091       -17.6082
  64   2.0000      -0.629632       -17.1332
  65   2.0000      -0.627823       -17.0839
  66   2.0000      -0.618175       -16.8214
  67   2.0000      -0.614099       -16.7105
  68   2.0000      -0.609621       -16.5886
  69   2.0000      -0.606076       -16.4922
  70   2.0000      -0.604521       -16.4499
  71   2.0000      -0.600864       -16.3503
  72   2.0000      -0.594600       -16.1799
  73   2.0000      -0.585891       -15.9429
  74   2.0000      -0.585146       -15.9226
  75   2.0000      -0.566965       -15.4279
  76   2.0000      -0.551405       -15.0045
  77   2.0000      -0.542491       -14.7619
  78   2.0000      -0.521666       -14.1953
  79   2.0000      -0.443340       -12.0639
  80   2.0000      -0.441754       -12.0207
  81   0.0000      -0.068386        -1.8609
  82   0.0000      -0.058545        -1.5931
  83   0.0000      -0.049420        -1.3448
  84   0.0000      -0.046065        -1.2535
  85   0.0000      -0.038967        -1.0603

MULLIKEN ATOMIC CHARGES
-----------------------
   0 C :   -1.014902
   1 C :   -0.252628
   2 C :   -0.201998
   3 C :   -0.869201
   4 H :    0.344915
   5 H :    0.247320
   6 H :    0.272163
   7 H :    0.265629
   8 C :   -0.624414
   9 H :    0.077918
  10 H :    0.558299
  11 H :    0.881176
  12 H :    0.508718
  13 N :    0.513296
  14 N :   -1.012944
  15 C :   -0.008602
  16 C :    2.402713
  17 C :   -0.302722
  18 C :   -1.488666
  19 C :   -1.101468
  20 H :    0.019997
  21 C :   -0.599972
  22 H :   -0.164610
  23 C :   -0.209023
  24 H :    0.376726
  25 H :    0.561671
  26 H :    0.721789
  27 C :    1.910564
  28 C :    0.776461
  29 C :   -0.957735
  30 H :    0.116849
  31 H :    0.197955
  32 C :   -0.356251
  33 H :    0.067914
  34 H :    0.169723
  35 C :   -0.595135
  36 H :    0.102111
  37 H :    0.215329
  38 C :   -0.477109
  39 H :    0.271283
  40 H :    0.149299
  41 C :   -0.549317
  42 H :    0.264365
  43 H :    0.094999
  44 C :   -0.436759
  45 H :    0.246301
  46 H :    0.110218
  47 H :   -0.288455
  48 H :    0.054452
  49 H :    0.238153
  50 H :   -0.226394
Sum of atomic charges:    1.0000000

LOEWDIN ATOMIC CHARGES
----------------------
   0 C :    0.371928
   1 C :   -0.050001
   2 C :    0.043382
   3 C :    0.378935
   4 H :   -0.131268
   5 H :   -0.126066
   6 H :   -0.127321
   7 H :   -0.121982
   8 C :    0.388552
   9 H :   -0.145922
  10 H :   -0.103029
  11 H :   -0.126105
  12 H :   -0.123932
  13 N :    0.488113
  14 N :    0.399231
  15 C :   -0.068317
  16 C :   -0.104168
  17 C :    0.228774
  18 C :    0.238839
  19 C :    0.228682
  20 H :   -0.181264
  21 C :    0.227414
  22 H :   -0.160228
  23 C :    0.222005
  24 H :   -0.170946
  25 H :   -0.170226
  26 H :   -0.170180
  27 C :    0.052336
  28 C :    0.069607
  29 C :    0.350496
  30 H :   -0.141085
  31 H :   -0.122848
  32 C :    0.333010
  33 H :   -0.135367
  34 H :   -0.134097
  35 C :    0.339375
  36 H :   -0.136054
  37 H :   -0.138393
  38 C :    0.322331
  39 H :   -0.141889
  40 H :   -0.140233
  41 C :    0.322636
  42 H :   -0.135149
  43 H :   -0.135978
  44 C :    0.308856
  45 H :   -0.139198
  46 H :   -0.137941
  47 H :   -0.129219
  48 H :   -0.172305
  49 H :   -0.102786
  50 H :   -0.191007

  Mayer bond orders larger than 0.100000
B(  0-C ,  1-C ) :   0.8125 B(  0-C ,  3-C ) :   1.2489 B(  0-C ,  4-H ) :   0.9459
B(  0-C ,  5-H ) :   1.0775 B(  0-C , 11-H ) :  -0.2194 B(  1-C ,  8-C ) :   0.9167
B(  1-C , 11-H ) :   0.3571 B(  1-C , 14-N ) :   1.2079 B(  1-C , 15-C ) :   0.1386
B(  2-C ,  3-C ) :   0.8254 B(  2-C ,  8-C ) :   0.9832 B(  2-C , 12-H ) :   0.6829
B(  2-C , 13-N ) :   1.1808 B(  2-C , 14-N ) :  -0.1902 B(  3-C ,  6-H ) :   0.9842
B(  3-C ,  7-H ) :   1.0576 B(  3-C , 12-H ) :  -0.1210 B(  3-C , 13-N ) :  -0.2608
B(  3-C , 14-N ) :   0.1609 B(  6-H , 13-N ) :  -0.1133 B(  8-C ,  9-H ) :   1.2686
B(  8-C , 10-H ) :   0.6537 B(  8-C , 27-C ) :  -0.1445 B(  9-H , 27-C ) :  -0.1477
B( 11-H , 14-N ) :  -0.1639 B( 13-N , 14-N ) :   0.2575 B( 13-N , 15-C ) :   0.2541
B( 13-N , 27-C ) :   0.1303 B( 13-N , 28-C ) :   0.9372 B( 13-N , 47-H ) :   0.1590
B( 13-N , 50-H ) :   0.9706 B( 14-N , 15-C ) :   0.3552 B( 14-N , 16-C ) :  -0.1096
B( 14-N , 28-C ) :  -0.1567 B( 15-C , 16-C ) :   0.1961 B( 15-C , 17-C ) :   0.5596
B( 15-C , 18-C ) :  -0.1078 B( 15-C , 20-H ) :  -0.1597 B( 15-C , 21-C ) :   0.1022
B( 15-C , 22-H ) :  -0.4009 B( 15-C , 27-C ) :   0.3037 B( 15-C , 28-C ) :   0.5247
B( 15-C , 29-C ) :   0.2773 B( 15-C , 47-H ) :   1.5891 B( 15-C , 49-H ) :   0.1382
B( 16-C , 17-C ) :   0.3620 B( 16-C , 18-C ) :  -0.4978 B( 16-C , 20-H ) :  -0.1342
B( 16-C , 21-C ) :   0.2611 B( 16-C , 22-H ) :  -0.3950 B( 16-C , 23-C ) :  -0.1562
B( 16-C , 27-C ) :   0.2580 B( 16-C , 29-C ) :  -0.2246 B( 16-C , 47-H ) :  -0.4092
B( 17-C , 18-C ) :  -0.6670 B( 17-C , 19-C ) :   1.3255 B( 17-C , 20-H ) :   1.6616
B( 17-C , 21-C ) :  -0.1307 B( 17-C , 22-H ) :   0.2390 B( 17-C , 23-C ) :   0.2814
B( 17-C , 26-H ) :  -0.1120 B( 17-C , 27-C ) :  -0.2848 B( 17-C , 30-H ) :  -0.1114
B( 17-C , 48-H ) :   0.1667 B( 18-C , 20-H ) :   0.1841 B( 18-C , 21-C ) :   1.3733
B( 18-C , 22-H ) :   1.9722 B( 18-C , 23-C ) :   0.1245 B( 18-C , 25-H ) :  -0.1148
B( 18-C , 27-C ) :   0.3289 B( 19-C , 20-H ) :  -0.1084 B( 19-C , 21-C ) :   0.1847
B( 19-C , 22-H ) :  -0.1209 B( 19-C , 23-C ) :   1.1088 B( 19-C , 24-H ) :   0.9013
B( 19-C , 26-H ) :  -0.1699 B( 19-C , 48-H ) :  -0.1155 B( 20-H , 21-C ) :  -0.2010
B( 20-H , 22-H ) :   0.2222 B( 20-H , 23-C ) :  -0.1176 B( 20-H , 48-H ) :  -0.2150
B( 21-C , 23-C ) :   1.1010 B( 21-C , 25-H ) :   0.5957 B( 21-C , 26-H ) :  -0.1367
B( 23-C , 26-H ) :   0.3575 B( 27-C , 28-C ) :   0.6557 B( 27-C , 29-C ) :  -0.1903
B( 27-C , 30-H ) :  -0.2508 B( 27-C , 38-C ) :  -0.1273 B( 27-C , 47-H ) :  -0.3348
B( 27-C , 48-H ) :   0.9740 B( 27-C , 49-H ) :  -0.2121 B( 28-C , 29-C ) :  -0.2260
B( 28-C , 32-C ) :   0.6213 B( 28-C , 33-H ) :  -0.1046 B( 28-C , 34-H ) :  -0.1017
B( 28-C , 47-H ) :   0.1640 B( 28-C , 48-H ) :  -0.1372 B( 28-C , 49-H ) :   0.7631
B( 29-C , 30-H ) :   1.2228 B( 29-C , 31-H ) :   1.2995 B( 29-C , 41-C ) :   0.8756
B( 29-C , 43-H ) :   0.1342 B( 32-C , 33-H ) :   1.2863 B( 32-C , 34-H ) :   1.0608
B( 32-C , 35-C ) :   0.8099 B( 33-H , 34-H ) :   0.1048 B( 35-C , 36-H ) :   1.2253
B( 35-C , 37-H ) :   0.9965 B( 35-C , 38-C ) :   0.7767 B( 38-C , 39-H ) :   0.9666
B( 38-C , 40-H ) :   1.0925 B( 38-C , 44-C ) :   0.8646 B( 41-C , 42-H ) :   0.9885
B( 41-C , 43-H ) :   1.1283 B( 41-C , 44-C ) :   0.8480 B( 41-C , 48-H ) :   0.1294
B( 44-C , 45-H ) :   0.9883 B( 44-C , 46-H ) :   1.1344

MP2 TOTAL ENERGY:     -886.993601598 Eh
FINAL SINGLE POINT ENERGY      -886.993601598206

DIPOLE MOMENT
-------------
                                X             Y             Z
Electronic contribution:    -15.41237       1.03957      -2.66517
Nuclear contribution   :     16.12463       0.90081       2.59562
                        -----------------------------------------
Total Dipole Moment    :      0.71227       1.94038      -0.06955
                        -----------------------------------------
Magnitude (a.u.)       :      2.06815
Magnitude (Debye)      :      5.25681

Rotational constants in cm-1:     0.012135     0.008591     0.005684
Rotational constants in MHz :   363.805922   257.560670   170.400173

                             ****ORCA TERMINATED NORMALLY****
TOTAL RUN TIME: 0 days 2 hours 2 minutes 31 seconds 760 msec
