                         Program Version 4.2.1 -  RELEASE  -
|  1> %pal
|  2>  nprocs 32
|  3> end
|  4> !RI-MP2 aug-cc-pVTZ aug-cc-pVTZ/C TightSCF
|  5> %maxcore 4500
|  6> *xyzfile -1 1  09_20TS.xyz
|  7>
|  8>
|  9>                          ****END OF INPUT****

CARTESIAN COORDINATES (ANGSTROEM)
---------------------------------
  C      0.212408   -0.346665    1.750241
  N     -0.298956    0.989530    1.483324
  C      0.253278    1.770955    0.636110
  C      1.371054    1.371211   -0.307443
  O      1.279446    1.818204   -1.473283
  C      2.246873    0.375035    0.129798
  C      3.265154   -0.209449   -0.801681
  C     -0.370851    3.108136    0.382806
  H     -1.165238    3.293963    1.104299
  H     -0.768311    3.124246   -0.632690
  H      0.384967    3.895592    0.440383
  C      0.714276   -1.151692    0.551240
  H      1.015066   -0.317051    2.488582
  H     -0.605248   -0.922964    2.194337
  O      1.360805   -2.194009    0.767089
  C     -0.169627   -1.101985   -0.704482
  O     -1.521631   -1.486178   -0.401272
  H      0.213383   -1.868981   -1.376495
  H     -0.154659   -0.140266   -1.208410
  C     -2.541911   -0.542201   -0.324354
  O     -3.686920   -1.260001   -0.657651
  O     -2.749882   -0.002371    0.920816
  O     -2.340892    0.525674   -1.210181
  O      3.835402   -1.405005   -0.279790
  H      3.102825   -1.925770    0.088644
  H     -4.405394   -0.821452   -0.191697
  H     -2.233788    0.159190   -2.094227
  H     -1.985479    0.568391    1.185744
  H      4.101679    0.476463   -0.983566
  H      2.799043   -0.390375   -1.779104
  H      2.499305    0.331731    1.181700

 Total Charge           Charge          ....   -1
 Multiplicity           Mult            ....    1
 Number of Electrons    NEL             ....  132
 Basis Dimension        Dim             .... 1104

ORBITAL ENERGIES
----------------

  NO   OCC          E(Eh)            E(eV)
   0   2.0000     -20.470502      -557.0307
   1   2.0000     -20.468547      -556.9775
   2   2.0000     -20.458087      -556.6929
   3   2.0000     -20.450798      -556.4945
   4   2.0000     -20.401709      -555.1587
   5   2.0000     -20.377154      -554.4905
   6   2.0000     -20.368064      -554.2432
   7   2.0000     -15.446889      -420.3312
   8   2.0000     -11.338384      -308.5331
   9   2.0000     -11.205044      -304.9047
  10   2.0000     -11.176602      -304.1308
  11   2.0000     -11.170499      -303.9647
  12   2.0000     -11.160233      -303.6854
  13   2.0000     -11.137247      -303.0599
  14   2.0000     -11.133224      -302.9504
  15   2.0000     -11.112098      -302.3756
  16   2.0000     -11.062169      -301.0169
  17   2.0000      -1.385758       -37.7084
  18   2.0000      -1.253626       -34.1129
  19   2.0000      -1.248875       -33.9836
  20   2.0000      -1.237299       -33.6686
  21   2.0000      -1.222953       -33.2783
  22   2.0000      -1.207835       -32.8669
  23   2.0000      -1.202326       -32.7170
  24   2.0000      -1.125361       -30.6226
  25   2.0000      -0.921029       -25.0625
  26   2.0000      -0.896105       -24.3843
  27   2.0000      -0.869745       -23.6670
  28   2.0000      -0.822745       -22.3880
  29   2.0000      -0.772741       -21.0274
  30   2.0000      -0.749309       -20.3897
  31   2.0000      -0.671605       -18.2753
  32   2.0000      -0.666023       -18.1234
  33   2.0000      -0.644685       -17.5428
  34   2.0000      -0.634551       -17.2670
  35   2.0000      -0.608465       -16.5572
  36   2.0000      -0.583624       -15.8812
  37   2.0000      -0.545200       -14.8357
  38   2.0000      -0.542993       -14.7756
  39   2.0000      -0.531926       -14.4744
  40   2.0000      -0.522871       -14.2280
  41   2.0000      -0.515223       -14.0199
  42   2.0000      -0.490159       -13.3379
  43   2.0000      -0.477211       -12.9856
  44   2.0000      -0.468399       -12.7458
  45   2.0000      -0.463695       -12.6178
  46   2.0000      -0.458967       -12.4891
  47   2.0000      -0.453397       -12.3376
  48   2.0000      -0.448954       -12.2167
  49   2.0000      -0.434793       -11.8313
  50   2.0000      -0.431560       -11.7434
  51   2.0000      -0.426707       -11.6113
  52   2.0000      -0.411975       -11.2104
  53   2.0000      -0.398819       -10.8524
  54   2.0000      -0.394948       -10.7471
  55   2.0000      -0.381532       -10.3820
  56   2.0000      -0.373564       -10.1652
  57   2.0000      -0.371321       -10.1042
  58   2.0000      -0.348160        -9.4739
  59   2.0000      -0.342086        -9.3086
  60   2.0000      -0.335718        -9.1353
  61   2.0000      -0.306259        -8.3337
  62   2.0000      -0.297662        -8.0998
  63   2.0000      -0.266406        -7.2493
  64   2.0000      -0.240348        -6.5402
  65   2.0000      -0.151864        -4.1324
  66   0.0000       0.100199         2.7266
  67   0.0000       0.105655         2.8750
  68   0.0000       0.113772         3.0959
  69   0.0000       0.116738         3.1766
  70   0.0000       0.121495         3.3060

MULLIKEN ATOMIC CHARGES
-----------------------
   0 C :   -0.438522
   1 N :   -0.957115
   2 C :    0.883219
   3 C :    1.194566
   4 O :   -1.366164
   5 C :   -0.423938
   6 C :   -0.210121
   7 C :   -1.195062
   8 H :    0.281325
   9 H :    0.316913
  10 H :    0.291439
  11 C :    1.922046
  12 H :    0.180578
  13 H :    0.276446
  14 O :   -1.594684
  15 C :   -0.436521
  16 O :   -0.704045
  17 H :    0.117597
  18 H :    0.425713
  19 C :    1.542963
  20 O :   -0.640598
  21 O :   -0.737220
  22 O :   -0.580562
  23 O :   -0.857385
  24 H :    0.259293
  25 H :    0.167586
  26 H :    0.076887
  27 H :    0.350936
  28 H :    0.343817
  29 H :    0.185593
  30 H :    0.325021
Sum of atomic charges:   -1.0000000

LOEWDIN ATOMIC CHARGES
----------------------
   0 C :    0.116705
   1 N :    0.436020
   2 C :   -0.267289
   3 C :   -0.634795
   4 O :    0.406174
   5 C :    0.098892
   6 C :   -0.013832
   7 C :    0.563176
   8 H :   -0.183997
   9 H :   -0.181840
  10 H :   -0.171243
  11 C :   -0.578565
  12 H :   -0.169313
  13 H :   -0.165928
  14 O :    0.481012
  15 C :    0.061847
  16 O :    0.597434
  17 H :   -0.161935
  18 H :   -0.262806
  19 C :   -1.357461
  20 O :    0.814652
  21 O :    0.855955
  22 O :    0.837406
  23 O :    0.804502
  24 H :   -0.690769
  25 H :   -0.515869
  26 H :   -0.474707
  27 H :   -0.677558
  28 H :   -0.170313
  29 H :   -0.171845
  30 H :   -0.223710

  Mayer bond orders larger than 0.100000
B(  0-C ,  1-N ) :   0.7387 B(  0-C , 11-C ) :   0.8472 B(  0-C , 12-H ) :   1.0032
B(  0-C , 13-H ) :   0.9790 B(  0-C , 14-O ) :   0.1978 B(  1-N ,  2-C ) :   0.6460
B(  1-N ,  7-C ) :   0.1239 B(  1-N , 13-H ) :  -0.1006 B(  1-N , 27-H ) :   0.2367
B(  2-C ,  3-C ) :   0.8133 B(  2-C ,  5-C ) :   0.1710 B(  2-C ,  7-C ) :   0.4030
B(  3-C ,  4-O ) :   0.2988 B(  3-C ,  5-C ) :   1.4417 B(  3-C ,  7-C ) :   0.1214
B(  5-C ,  6-C ) :   0.7139 B(  5-C , 11-C ) :   0.2772 B(  5-C , 14-O ) :   0.1780
B(  5-C , 30-H ) :   0.8575 B(  6-C , 23-O ) :   0.6149 B(  6-C , 28-H ) :   0.9660
B(  6-C , 29-H ) :   1.1103 B(  7-C ,  8-H ) :   0.9372 B(  7-C ,  9-H ) :   1.0166
B(  7-C , 10-H ) :   1.0176 B( 11-C , 14-O ) :  -0.6765 B( 11-C , 15-C ) :   0.8407
B( 11-C , 30-H ) :   0.1520 B( 14-O , 15-C ) :   0.3030 B( 14-O , 17-H ) :   0.1221
B( 14-O , 24-H ) :   0.1447 B( 15-C , 16-O ) :   0.5950 B( 15-C , 17-H ) :   1.1358
B( 15-C , 18-H ) :   0.9244 B( 16-O , 18-H ) :  -0.1137 B( 16-O , 19-C ) :   0.9136
B( 19-C , 20-O ) :   0.5938 B( 19-C , 21-O ) :   0.8370 B( 19-C , 22-O ) :   0.5493
B( 20-O , 25-H ) :   1.0476 B( 21-O , 27-H ) :   0.5334 B( 22-O , 26-H ) :   1.0584
B( 23-O , 24-H ) :   0.8048

MP2 TOTAL ENERGY:     -931.224655407 Eh
FINAL SINGLE POINT ENERGY      -931.224655407356

DIPOLE MOMENT
-------------
                                X             Y             Z
Electronic contribution:     -4.71920      -4.21614      -0.12444
Nuclear contribution   :      2.71205       5.35786       0.38598
                        -----------------------------------------
Total Dipole Moment    :     -2.00715       1.14172       0.26154
                        -----------------------------------------
Magnitude (a.u.)       :      2.32391
Magnitude (Debye)      :      5.90692

Rotational constants in cm-1:     0.023617     0.012574     0.010361
Rotational constants in MHz :   708.006791   376.946771   310.614105

                             ****ORCA TERMINATED NORMALLY****
TOTAL RUN TIME: 0 days 0 hours 27 minutes 43 seconds 683 msec
