                         Program Version 4.2.1 -  RELEASE  -
|  1> %pal
|  2>  nprocs 32
|  3> end
|  4> !RI-MP2 aug-cc-pVTZ aug-cc-pVTZ/C TightSCF
|  5> %maxcore 4500
|  6> *xyzfile 0 1  10_2R1.xyz
|  7>
|  8>
|  9>                          ****END OF INPUT****

CARTESIAN COORDINATES (ANGSTROEM)
---------------------------------
  C     -2.573466   -0.149838   -1.328218
  C     -1.191320    0.453713   -1.099891
  C     -0.408574   -0.157516    0.100551
  C     -1.331480   -0.369160    1.324830
  C     -2.743895   -0.845195    1.066575
  C     -3.454401   -0.126080   -0.082137
  C      0.617556    0.911558    0.427247
  C      0.132625    2.213614   -0.120438
  C     -1.174096    1.962495   -0.844572
  O      0.675514    3.283150   -0.005457
  C      0.130433   -1.573702   -0.200899
  C      1.071706   -1.743232   -1.407579
  C      2.239532   -0.815100   -1.554606
  N      3.174594   -0.621806   -0.678555
  O      4.122992    0.214005   -0.826028
  C      1.763318    0.877188    1.102319
  C      2.450072   -0.315656    1.695403
  C      3.125548   -1.252691    0.648961
  O     -0.910890   -0.240805    2.447037
  C     -4.822991   -0.741659   -0.347254
  H     -0.588612    0.276523   -1.995144
  H     -1.981346    2.273152   -0.172598
  H     -1.248393    2.570756   -1.745616
  H     -2.471428   -1.188200   -1.665730
  H     -3.068024    0.386132   -2.143640
  H     -0.719725   -2.236830   -0.380854
  H      0.601179   -1.953926    0.704164
  H     -3.293350   -0.760392    2.004972
  H     -2.683920   -1.915111    0.828380
  H     -3.609730    0.915826    0.217590
  H     -4.725218   -1.786365   -0.657405
  H     -5.348069   -0.205097   -1.140551
  H     -5.449446   -0.715877    0.547046
  H      1.415194   -2.784562   -1.399448
  H      0.490594   -1.645213   -2.325680
  H      1.734565   -0.895738    2.279419
  H      3.216894    0.035536    2.383381
  H      2.611115   -2.207113    0.571745
  H      4.164140   -1.433037    0.910115
  H      2.366727   -0.229860   -2.455488
  H      2.280366    1.828817    1.179055

 Total Charge           Charge          ....    0
 Multiplicity           Mult            ....    1
 Number of Electrons    NEL             ....  148
 Basis Dimension        Dim             .... 1403

ORBITAL ENERGIES
----------------

  NO   OCC          E(Eh)            E(eV)
   0   2.0000     -20.560050      -559.4674
   1   2.0000     -20.536259      -558.8200
   2   2.0000     -20.501116      -557.8637
   3   2.0000     -15.711469      -427.5308
   4   2.0000     -11.341358      -308.6140
   5   2.0000     -11.323485      -308.1277
   6   2.0000     -11.288792      -307.1837
   7   2.0000     -11.287313      -307.1434
   8   2.0000     -11.271958      -306.7256
   9   2.0000     -11.270064      -306.6740
  10   2.0000     -11.264229      -306.5153
  11   2.0000     -11.257978      -306.3452
  12   2.0000     -11.254458      -306.2494
  13   2.0000     -11.253189      -306.2148
  14   2.0000     -11.249030      -306.1017
  15   2.0000     -11.248531      -306.0881
  16   2.0000     -11.246331      -306.0282
  17   2.0000     -11.240479      -305.8690
  18   2.0000     -11.234654      -305.7105
  19   2.0000     -11.233907      -305.6902
  20   2.0000      -1.439951       -39.1830
  21   2.0000      -1.407314       -38.2950
  22   2.0000      -1.382265       -37.6133
  23   2.0000      -1.189087       -32.3567
  24   2.0000      -1.165036       -31.7022
  25   2.0000      -1.120678       -30.4952
  26   2.0000      -1.097395       -29.8616
  27   2.0000      -1.071867       -29.1670
  28   2.0000      -1.030158       -28.0320
  29   2.0000      -1.012649       -27.5556
  30   2.0000      -0.980675       -26.6855
  31   2.0000      -0.970146       -26.3990
  32   2.0000      -0.916558       -24.9408
  33   2.0000      -0.885247       -24.0888
  34   2.0000      -0.849957       -23.1285
  35   2.0000      -0.812519       -22.1098
  36   2.0000      -0.805220       -21.9111
  37   2.0000      -0.767996       -20.8982
  38   2.0000      -0.738436       -20.0939
  39   2.0000      -0.722260       -19.6537
  40   2.0000      -0.699366       -19.0307
  41   2.0000      -0.687705       -18.7134
  42   2.0000      -0.670963       -18.2578
  43   2.0000      -0.662320       -18.0226
  44   2.0000      -0.662098       -18.0166
  45   2.0000      -0.655286       -17.8312
  46   2.0000      -0.639060       -17.3897
  47   2.0000      -0.634178       -17.2569
  48   2.0000      -0.626215       -17.0402
  49   2.0000      -0.618627       -16.8337
  50   2.0000      -0.610927       -16.6242
  51   2.0000      -0.603428       -16.4201
  52   2.0000      -0.586340       -15.9551
  53   2.0000      -0.583052       -15.8657
  54   2.0000      -0.570217       -15.5164
  55   2.0000      -0.561730       -15.2855
  56   2.0000      -0.558578       -15.1997
  57   2.0000      -0.551347       -15.0029
  58   2.0000      -0.537045       -14.6137
  59   2.0000      -0.533582       -14.5195
  60   2.0000      -0.523613       -14.2482
  61   2.0000      -0.520542       -14.1647
  62   2.0000      -0.509530       -13.8650
  63   2.0000      -0.508444       -13.8355
  64   2.0000      -0.499741       -13.5987
  65   2.0000      -0.498393       -13.5620
  66   2.0000      -0.481737       -13.1087
  67   2.0000      -0.469037       -12.7631
  68   2.0000      -0.461381       -12.5548
  69   2.0000      -0.414557       -11.2807
  70   2.0000      -0.409201       -11.1349
  71   2.0000      -0.397154       -10.8071
  72   2.0000      -0.366022        -9.9600
  73   2.0000      -0.328143        -8.9292
  74   0.0000       0.013868         0.3774
  75   0.0000       0.021987         0.5983
  76   0.0000       0.024436         0.6649
  77   0.0000       0.030175         0.8211
  78   0.0000       0.037533         1.0213

MULLIKEN ATOMIC CHARGES
-----------------------
   0 C :   -0.361816
   1 C :   -0.428922
   2 C :    2.559720
   3 C :    1.069519
   4 C :   -0.549595
   5 C :    0.354889
   6 C :   -0.140349
   7 C :    0.674742
   8 C :   -0.635479
   9 O :   -1.356367
  10 C :   -0.714654
  11 C :   -0.138956
  12 C :   -0.516557
  13 N :    0.126889
  14 O :   -1.026002
  15 C :   -0.628982
  16 C :   -0.233912
  17 C :   -0.433307
  18 O :   -1.569993
  19 C :   -1.273795
  20 H :    0.144509
  21 H :    0.227457
  22 H :    0.234043
  23 H :    0.097666
  24 H :    0.406993
  25 H :    0.240402
  26 H :    0.058329
  27 H :    0.481858
  28 H :    0.056742
  29 H :    0.342778
  30 H :    0.244581
  31 H :    0.240813
  32 H :    0.234888
  33 H :    0.309433
  34 H :    0.153082
  35 H :    0.215648
  36 H :    0.353780
  37 H :    0.169857
  38 H :    0.492280
  39 H :    0.683473
  40 H :   -0.165684
Sum of atomic charges:   -0.0000000

LOEWDIN ATOMIC CHARGES
----------------------
   0 C :    0.325259
   1 C :    0.024843
   2 C :   -0.234382
   3 C :   -0.452092
   4 C :    0.321424
   5 C :   -0.027622
   6 C :   -0.069084
   7 C :   -0.494414
   8 C :    0.342220
   9 O :    0.486057
  10 C :    0.327050
  11 C :    0.319732
  12 C :    0.190328
  13 N :   -0.281770
  14 O :    0.312449
  15 C :    0.264648
  16 C :    0.347155
  17 C :    0.254716
  18 O :    0.527862
  19 C :    0.604838
  20 H :   -0.134833
  21 H :   -0.143378
  22 H :   -0.124712
  23 H :   -0.130053
  24 H :   -0.119631
  25 H :   -0.141295
  26 H :   -0.181252
  27 H :   -0.140586
  28 H :   -0.136034
  29 H :   -0.134452
  30 H :   -0.156178
  31 H :   -0.156350
  32 H :   -0.156326
  33 H :   -0.133193
  34 H :   -0.157188
  35 H :   -0.163060
  36 H :   -0.145327
  37 H :   -0.176076
  38 H :   -0.143144
  39 H :   -0.152257
  40 H :   -0.163892

  Mayer bond orders larger than 0.100000
B(  0-C ,  1-C ) :   0.7751 B(  0-C ,  2-C ) :  -0.1239 B(  0-C ,  5-C ) :   0.9435
B(  0-C , 23-H ) :   1.2286 B(  0-C , 24-H ) :   0.8345 B(  1-C ,  2-C ) :   0.5699
B(  1-C ,  7-C ) :   0.5420 B(  1-C ,  8-C ) :   0.8347 B(  1-C , 10-C ) :   0.1423
B(  1-C , 12-C ) :  -0.1356 B(  1-C , 18-O ) :   0.1010 B(  1-C , 20-H ) :   1.0497
B(  1-C , 24-H ) :  -0.1110 B(  2-C ,  3-C ) :   1.2126 B(  2-C ,  5-C ) :   0.2083
B(  2-C ,  6-C ) :   0.1894 B(  2-C ,  7-C ) :  -0.8198 B(  2-C , 10-C ) :   0.4524
B(  2-C , 12-C ) :   0.2768 B(  2-C , 16-C ) :  -0.1595 B(  2-C , 18-O ) :  -0.2475
B(  2-C , 23-H ) :  -0.1053 B(  2-C , 25-H ) :  -0.2742 B(  2-C , 26-H ) :  -0.2080
B(  2-C , 28-H ) :  -0.1869 B(  2-C , 35-H ) :  -0.1150 B(  2-C , 40-H ) :   0.1319
B(  3-C ,  4-C ) :   1.0873 B(  3-C ,  6-C ) :  -0.2218 B(  3-C ,  7-C ) :  -0.1810
B(  3-C , 10-C ) :   0.1047 B(  3-C , 18-O ) :  -0.1283 B(  3-C , 25-H ) :   0.1946
B(  3-C , 26-H ) :  -0.1395 B(  4-C ,  5-C ) :   0.8413 B(  4-C , 18-O ) :   0.1037
B(  4-C , 27-H ) :   0.6749 B(  4-C , 28-H ) :   1.2651 B(  5-C , 19-C ) :   0.5653
B(  5-C , 29-H ) :   0.8246 B(  5-C , 30-H ) :  -0.1152 B(  6-C ,  7-C ) :   1.2948
B(  6-C ,  8-C ) :   0.1766 B(  6-C ,  9-O ) :   0.5797 B(  6-C , 13-N ) :   0.1104
B(  6-C , 15-C ) :   0.5447 B(  6-C , 16-C ) :   0.2748 B(  6-C , 18-O ) :   0.3793
B(  6-C , 35-H ) :   0.1523 B(  6-C , 40-H ) :  -0.2067 B(  7-C ,  8-C ) :   0.8142
B(  7-C ,  9-O ) :  -0.3812 B(  7-C , 15-C ) :   0.5012 B(  8-C , 21-H ) :   1.0914
B(  8-C , 22-H ) :   1.0328 B(  9-O , 15-C ) :   0.1940 B(  9-O , 40-H ) :   0.1356
B( 10-C , 11-C ) :   0.8652 B( 10-C , 12-C ) :   0.1247 B( 10-C , 15-C ) :   0.1279
B( 10-C , 25-H ) :   1.0466 B( 10-C , 26-H ) :   1.2003 B( 11-C , 12-C ) :   0.6435
B( 11-C , 13-N ) :  -0.1276 B( 11-C , 25-H ) :  -0.1186 B( 11-C , 26-H ) :   0.1346
B( 11-C , 33-H ) :   0.9983 B( 11-C , 34-H ) :   1.0314 B( 12-C , 13-N ) :   1.7104
B( 12-C , 33-H ) :  -0.1389 B( 12-C , 39-H ) :   0.4788 B( 13-N , 14-O ) :   0.7022
B( 13-N , 17-C ) :   0.9758 B( 13-N , 37-H ) :   0.2188 B( 13-N , 38-H ) :  -0.1375
B( 13-N , 39-H ) :  -0.1370 B( 15-C , 16-C ) :   0.5898 B( 15-C , 40-H ) :   1.4421
B( 16-C , 17-C ) :   0.9450 B( 16-C , 35-H ) :   1.0140 B( 16-C , 36-H ) :   0.8769
B( 16-C , 40-H ) :  -0.1591 B( 17-C , 37-H ) :   1.0472 B( 17-C , 38-H ) :   0.8277
B( 19-C , 30-H ) :   1.0877 B( 19-C , 31-H ) :   1.0478 B( 19-C , 32-H ) :   1.0664

MP2 TOTAL ENERGY:     -900.976820495 Eh
FINAL SINGLE POINT ENERGY      -900.976820495014

DIPOLE MOMENT
-------------
                                X             Y             Z
Electronic contribution:     14.00184       9.16152       3.75280
Nuclear contribution   :    -16.38019     -11.73293      -4.47679
                        -----------------------------------------
Total Dipole Moment    :     -2.37835      -2.57141      -0.72398
                        -----------------------------------------
Magnitude (a.u.)       :      3.57671
Magnitude (Debye)      :      9.09127

Rotational constants in cm-1:     0.020482     0.008749     0.008242
Rotational constants in MHz :   614.021630   262.284160   247.088565

                             ****ORCA TERMINATED NORMALLY****
TOTAL RUN TIME: 0 days 1 hours 16 minutes 38 seconds 998 msec
