                         Program Version 4.2.1 -  RELEASE  -
|  1> %pal
|  2>  nprocs 32
|  3> end
|  4> !RI-MP2 aug-cc-pVTZ aug-cc-pVTZ/C TightSCF
|  5> %maxcore 4500
|  6> *xyzfile 0 1  04_32P2.xyz
|  7>
|  8>
|  9>                          ****END OF INPUT****

CARTESIAN COORDINATES (ANGSTROEM)
---------------------------------
  C      1.392626    0.000993   -0.000254
  C      0.706547    1.203472   -0.002816
  C     -0.679594    1.199832   -0.007145
  C     -1.381727   -0.001272    0.005564
  C     -0.676549   -1.201534    0.010568
  C      0.708770   -1.203402    0.004210
  S     -3.156021   -0.078807   -0.018036
  H      1.251133    2.138280   -0.007590
  H     -1.209127    2.144470   -0.020720
  H     -1.209832   -2.144260    0.025794
  H      1.255226   -2.137056    0.008471
  Cl     3.138984    0.002952   -0.000913
  H     -3.374229    1.220754    0.237376

 Total Charge           Charge          ....    0
 Multiplicity           Mult            ....    1
 Number of Electrons    NEL             ....   74
 Basis Dimension        Dim             ....  491

ORBITAL ENERGIES
----------------

  NO   OCC          E(Eh)            E(eV)
   0   2.0000    -104.844702     -2852.9694
   1   2.0000     -91.977162     -2502.8258
   2   2.0000     -11.306244      -307.6585
   3   2.0000     -11.289166      -307.1938
   4   2.0000     -11.259106      -306.3759
   5   2.0000     -11.258569      -306.3612
   6   2.0000     -11.257348      -306.3280
   7   2.0000     -11.255816      -306.2863
   8   2.0000     -10.568390      -287.5805
   9   2.0000      -8.978105      -244.3067
  10   2.0000      -8.035289      -218.6513
  11   2.0000      -8.033408      -218.6001
  12   2.0000      -8.033389      -218.5996
  13   2.0000      -6.659470      -181.2134
  14   2.0000      -6.658452      -181.1857
  15   2.0000      -6.657413      -181.1574
  16   2.0000      -1.202229       -32.7143
  17   2.0000      -1.136306       -30.9204
  18   2.0000      -1.045603       -28.4523
  19   2.0000      -1.044155       -28.4129
  20   2.0000      -0.945271       -25.7221
  21   2.0000      -0.861255       -23.4360
  22   2.0000      -0.814176       -22.1548
  23   2.0000      -0.697565       -18.9817
  24   2.0000      -0.670101       -18.2344
  25   2.0000      -0.652472       -17.7547
  26   2.0000      -0.613671       -16.6988
  27   2.0000      -0.583154       -15.8684
  28   2.0000      -0.558677       -15.2024
  29   2.0000      -0.539431       -14.6787
  30   2.0000      -0.524139       -14.2626
  31   2.0000      -0.491908       -13.3855
  32   2.0000      -0.479869       -13.0579
  33   2.0000      -0.458702       -12.4819
  34   2.0000      -0.413131       -11.2419
  35   2.0000      -0.363451        -9.8900
  36   2.0000      -0.314904        -8.5690
  37   0.0000       0.027675         0.7531
  38   0.0000       0.033178         0.9028
  39   0.0000       0.037716         1.0263
  40   0.0000       0.049172         1.3380
  41   0.0000       0.055269         1.5040

MULLIKEN ATOMIC CHARGES
-----------------------
   0 C :    0.749844
   1 C :   -0.729133
   2 C :   -0.691027
   3 C :    0.993703
   4 C :   -0.697976
   5 C :   -0.739427
   6 S :   -0.527632
   7 H :    0.538688
   8 H :    0.439713
   9 H :    0.534143
  10 H :    0.534460
  11 Cl:   -0.504990
  12 H :    0.099635
Sum of atomic charges:    0.0000000

LOEWDIN ATOMIC CHARGES
----------------------
   0 C :   -0.775256
   1 C :    0.099506
   2 C :    0.116168
   3 C :   -0.566598
   4 C :    0.101527
   5 C :    0.098944
   6 S :    1.322110
   7 H :   -0.197464
   8 H :   -0.200054
   9 H :   -0.196118
  10 H :   -0.197332
  11 Cl:    0.963346
  12 H :   -0.568780

  Mayer bond orders larger than 0.100000
B(  0-C ,  1-C ) :   1.1540 B(  0-C ,  2-C ) :  -0.1152 B(  0-C ,  5-C ) :   1.1936
B(  0-C , 11-Cl) :   0.6086 B(  1-C ,  2-C ) :   1.2899 B(  1-C ,  3-C ) :  -0.1346
B(  1-C ,  4-C ) :   0.1152 B(  1-C ,  5-C ) :   0.1363 B(  1-C ,  7-H ) :   0.6742
B(  2-C ,  3-C ) :   0.9511 B(  2-C ,  8-H ) :   0.8236 B(  3-C ,  4-C ) :   1.1213
B(  3-C ,  6-S ) :   0.5456 B(  4-C ,  5-C ) :   1.2296 B(  4-C ,  6-S ) :   0.1347
B(  4-C ,  9-H ) :   0.6771 B(  5-C , 10-H ) :   0.6932 B(  6-S , 12-H ) :   1.1113

MP2 TOTAL ENERGY:    -1088.591600992 Eh
FINAL SINGLE POINT ENERGY     -1088.591600991664

DIPOLE MOMENT
-------------
                                X             Y             Z
Electronic contribution:      6.98170      -0.86302      -0.17308
Nuclear contribution   :     -7.38064       1.17279       0.23563
                        -----------------------------------------
Total Dipole Moment    :     -0.39894       0.30977       0.06254
                        -----------------------------------------
Magnitude (a.u.)       :      0.50894
Magnitude (Debye)      :      1.29362

Rotational constants in cm-1:     0.188062     0.022321     0.019956
Rotational constants in MHz :  5637.959631   669.160257   598.263524

                             ****ORCA TERMINATED NORMALLY****
TOTAL RUN TIME: 0 days 0 hours 2 minutes 17 seconds 789 msec
