                         Program Version 4.2.1 -  RELEASE  -
|  1> %pal
|  2>  nprocs 32
|  3> end
|  4> !RI-MP2 aug-cc-pVTZ aug-cc-pVTZ/C TightSCF
|  5> %maxcore 4500
|  6> *xyzfile 0 1  02_34TS.xyz
|  7>
|  8>
|  9>                          ****END OF INPUT****

CARTESIAN COORDINATES (ANGSTROEM)
---------------------------------
  C     -0.034324   -1.010743   -0.775456
  C     -2.263689   -0.731982    0.097381
  C      0.427816    0.075260   -0.018041
  H      0.124582    0.068704    1.022531
  C     -2.232378    0.688608    0.032345
  C     -3.678467    1.138138    0.033077
  C     -1.293806   -1.518049   -0.520080
  H     -1.609789   -2.470198   -0.936478
  H      0.544440   -1.383594   -1.610931
  C     -3.652207   -1.150873    0.261253
  C      1.705790    0.782420   -0.279915
  C      1.877737    2.039324    0.582492
  H      1.890977    1.786860    1.646341
  H      1.064859    2.747228    0.431556
  H      1.770271    1.041596   -1.342940
  H      2.811780    2.552906    0.353458
  N     -1.188348    1.430587   -0.094211
  C     -1.299390    2.794302   -0.571164
  H     -1.180923    3.500132    0.256574
  H     -0.492433    2.985370   -1.281312
  H     -2.244249    3.008171   -1.080576
  O     -4.124657   -2.248088    0.337180
  O     -4.445645   -0.024339    0.311194
  H     -3.976994    1.541823   -0.938388
  H     -3.875351    1.886072    0.803556
  Si     3.180534   -0.417506    0.048196
  C      3.286188   -1.755996   -1.261545
  C      4.760728    0.595842   -0.013255
  C      2.971640   -1.189560    1.743261
  H      4.235826   -2.288636   -1.161435
  H      2.486307   -2.490970   -1.166421
  H      3.250165   -1.340974   -2.272041
  H      4.849226    1.147233   -0.953086
  H      4.824026    1.315008    0.805396
  H      5.628635   -0.064562    0.061697
  H      2.911644   -0.434317    2.530473
  H      2.066629   -1.799420    1.791251
  H      3.819913   -1.838192    1.976392

 Total Charge           Charge          ....    0
 Multiplicity           Mult            ....    1
 Number of Electrons    NEL             ....  136
 Basis Dimension        Dim             .... 1269

ORBITAL ENERGIES
----------------

  NO   OCC          E(Eh)            E(eV)
   0   2.0000     -68.770032     -1871.3277
   1   2.0000     -20.588119      -560.2312
   2   2.0000     -20.516528      -558.2831
   3   2.0000     -15.567461      -423.6121
   4   2.0000     -11.357898      -309.0641
   5   2.0000     -11.306837      -307.6747
   6   2.0000     -11.303954      -307.5962
   7   2.0000     -11.301500      -307.5295
   8   2.0000     -11.267416      -306.6020
   9   2.0000     -11.265881      -306.5602
  10   2.0000     -11.236577      -305.7628
  11   2.0000     -11.233503      -305.6792
  12   2.0000     -11.218069      -305.2592
  13   2.0000     -11.214301      -305.1566
  14   2.0000     -11.209845      -305.0354
  15   2.0000     -11.207425      -304.9695
  16   2.0000     -11.207291      -304.9659
  17   2.0000      -6.117273      -166.4595
  18   2.0000      -4.223519      -114.9278
  19   2.0000      -4.223368      -114.9237
  20   2.0000      -4.223303      -114.9219
  21   2.0000      -1.443695       -39.2849
  22   2.0000      -1.349328       -36.7171
  23   2.0000      -1.251123       -34.0448
  24   2.0000      -1.128423       -30.7059
  25   2.0000      -1.088732       -29.6259
  26   2.0000      -1.026873       -27.9426
  27   2.0000      -0.985421       -26.8147
  28   2.0000      -0.976042       -26.5595
  29   2.0000      -0.953628       -25.9495
  30   2.0000      -0.936495       -25.4833
  31   2.0000      -0.935159       -25.4470
  32   2.0000      -0.917190       -24.9580
  33   2.0000      -0.839460       -22.8429
  34   2.0000      -0.802104       -21.8264
  35   2.0000      -0.763193       -20.7675
  36   2.0000      -0.726215       -19.7613
  37   2.0000      -0.691700       -18.8221
  38   2.0000      -0.682979       -18.5848
  39   2.0000      -0.665339       -18.1048
  40   2.0000      -0.657854       -17.9011
  41   2.0000      -0.635343       -17.2886
  42   2.0000      -0.625867       -17.0307
  43   2.0000      -0.611888       -16.6503
  44   2.0000      -0.606500       -16.5037
  45   2.0000      -0.600941       -16.3524
  46   2.0000      -0.593805       -16.1582
  47   2.0000      -0.577307       -15.7093
  48   2.0000      -0.574335       -15.6284
  49   2.0000      -0.568271       -15.4634
  50   2.0000      -0.559884       -15.2352
  51   2.0000      -0.554388       -15.0857
  52   2.0000      -0.551204       -14.9990
  53   2.0000      -0.546074       -14.8594
  54   2.0000      -0.543430       -14.7875
  55   2.0000      -0.541323       -14.7301
  56   2.0000      -0.532885       -14.5005
  57   2.0000      -0.515427       -14.0255
  58   2.0000      -0.509449       -13.8628
  59   2.0000      -0.491863       -13.3843
  60   2.0000      -0.467851       -12.7309
  61   2.0000      -0.442250       -12.0342
  62   2.0000      -0.441043       -12.0014
  63   2.0000      -0.438742       -11.9388
  64   2.0000      -0.427998       -11.6464
  65   2.0000      -0.407994       -11.1021
  66   2.0000      -0.366593        -9.9755
  67   2.0000      -0.292940        -7.9713
  68   0.0000       0.017629         0.4797
  69   0.0000       0.023928         0.6511
  70   0.0000       0.026691         0.7263
  71   0.0000       0.030272         0.8238
  72   0.0000       0.038042         1.0352

MULLIKEN ATOMIC CHARGES
-----------------------
   0 C :   -0.454236
   1 C :    1.015091
   2 C :    0.136378
   3 H :    0.498109
   4 C :   -0.501233
   5 C :    0.151146
   6 C :   -0.817781
   7 H :   -0.174760
   8 H :    0.392688
   9 C :    0.371197
  10 C :    0.577802
  11 C :   -1.370447
  12 H :    0.245761
  13 H :    0.506629
  14 H :    0.312713
  15 H :    0.215252
  16 N :   -0.260094
  17 C :   -0.995333
  18 H :    0.357031
  19 H :    0.333919
  20 H :    0.293750
  21 O :   -0.932202
  22 O :   -0.504317
  23 H :    0.321205
  24 H :    0.304423
  25 Si:    2.334526
  26 C :   -1.468062
  27 C :   -1.579830
  28 C :   -1.299912
  29 H :    0.103345
  30 H :    0.330694
  31 H :    0.229593
  32 H :    0.231804
  33 H :    0.250914
  34 H :    0.118621
  35 H :    0.227898
  36 H :    0.345799
  37 H :    0.151917
Sum of atomic charges:   -0.0000000

LOEWDIN ATOMIC CHARGES
----------------------
   0 C :    0.208390
   1 C :   -0.117784
   2 C :    0.076794
   3 H :   -0.170818
   4 C :   -0.279597
   5 C :    0.074828
   6 C :    0.227249
   7 H :   -0.151131
   8 H :   -0.203961
   9 C :   -0.838082
  10 C :    0.020532
  11 C :    0.553203
  12 H :   -0.154574
  13 H :   -0.205011
  14 H :   -0.170865
  15 H :   -0.172733
  16 N :    0.405567
  17 C :    0.432943
  18 H :   -0.165264
  19 H :   -0.171970
  20 H :   -0.183309
  21 O :    0.424214
  22 O :    0.582814
  23 H :   -0.148209
  24 H :   -0.140791
  25 Si:    0.526442
  26 C :    0.588658
  27 C :    0.587637
  28 C :    0.595274
  29 H :   -0.224420
  30 H :   -0.241132
  31 H :   -0.219049
  32 H :   -0.219118
  33 H :   -0.230745
  34 H :   -0.224894
  35 H :   -0.225134
  36 H :   -0.223662
  37 H :   -0.222292

  Mayer bond orders larger than 0.100000
B(  0-C ,  1-C ) :   0.3382 B(  0-C ,  2-C ) :   1.0020 B(  0-C ,  3-H ) :   0.2840
B(  0-C ,  6-C ) :   0.7261 B(  0-C ,  7-H ) :  -0.1150 B(  0-C ,  8-H ) :   0.9298
B(  0-C ,  9-C ) :  -0.1097 B(  1-C ,  2-C ) :   0.1894 B(  1-C ,  4-C ) :   0.5518
B(  1-C ,  5-C ) :   0.1035 B(  1-C ,  6-C ) :   0.6493 B(  1-C ,  7-H ) :  -0.3747
B(  1-C ,  9-C ) :   0.2795 B(  1-C , 16-N ) :  -0.1692 B(  1-C , 22-O ) :  -0.1659
B(  2-C ,  3-H ) :   0.5636 B(  2-C ,  6-C ) :   0.1129 B(  2-C , 10-C ) :   1.3311
B(  2-C , 14-H ) :  -0.1973 B(  2-C , 16-N ) :   0.1945 B(  2-C , 25-Si) :   0.5940
B(  2-C , 26-C ) :   0.1311 B(  2-C , 28-C ) :  -0.2425 B(  4-C ,  5-C ) :   0.2547
B(  4-C ,  6-C ) :   0.2528 B(  4-C ,  7-H ) :   0.2168 B(  4-C ,  8-H ) :  -0.1174
B(  4-C , 16-N ) :   1.8310 B(  4-C , 23-H ) :  -0.1067 B(  5-C , 22-O ) :   0.5673
B(  5-C , 23-H ) :   1.0145 B(  5-C , 24-H ) :   1.0456 B(  6-C ,  7-H ) :   1.7587
B(  6-C ,  8-H ) :  -0.1009 B(  6-C ,  9-C ) :   0.2705 B(  7-H , 21-O ) :   0.1923
B(  9-C , 21-O ) :   1.0505 B(  9-C , 22-O ) :   1.0318 B( 10-C , 11-C ) :   0.6734
B( 10-C , 12-H ) :  -0.1236 B( 10-C , 14-H ) :   0.9064 B( 10-C , 25-Si) :   0.8723
B( 10-C , 28-C ) :   0.2114 B( 11-C , 12-H ) :   1.1156 B( 11-C , 13-H ) :   0.7863
B( 11-C , 15-H ) :   1.1239 B( 14-H , 25-Si) :  -0.1121 B( 16-N , 17-C ) :   0.8547
B( 17-C , 18-H ) :   0.8987 B( 17-C , 19-H ) :   0.9420 B( 17-C , 20-H ) :   0.9822
B( 21-O , 22-O ) :  -0.1266 B( 25-Si, 27-C ) :  -0.1421 B( 25-Si, 28-C ) :   0.2177
B( 25-Si, 34-H ) :  -0.1157 B( 26-C , 27-C ) :   0.2337 B( 26-C , 28-C ) :   0.1570
B( 26-C , 29-H ) :   1.1513 B( 26-C , 30-H ) :   0.9519 B( 26-C , 31-H ) :   1.0488
B( 27-C , 28-C ) :   0.2000 B( 27-C , 32-H ) :   1.0535 B( 27-C , 33-H ) :   1.0235
B( 27-C , 34-H ) :   1.1881 B( 28-C , 35-H ) :   1.0388 B( 28-C , 36-H ) :   0.9066
B( 28-C , 37-H ) :   1.1045

MP2 TOTAL ENERGY:    -1000.869193901 Eh
FINAL SINGLE POINT ENERGY     -1000.869193900627

DIPOLE MOMENT
-------------
                                X             Y             Z
Electronic contribution:    -26.58804      -7.66833       0.52282
Nuclear contribution   :     29.02067       9.61941      -1.07453
                        -----------------------------------------
Total Dipole Moment    :      2.43264       1.95108      -0.55171
                        -----------------------------------------
Magnitude (a.u.)       :      3.16683
Magnitude (Debye)      :      8.04944

Rotational constants in cm-1:     0.027661     0.007406     0.006355
Rotational constants in MHz :   829.258108   222.021080   190.510773

                             ****ORCA TERMINATED NORMALLY****
TOTAL RUN TIME: 0 days 0 hours 49 minutes 50 seconds 233 msec
