                         Program Version 4.2.1 -  RELEASE  -
|  1> %pal
|  2>  nprocs 32
|  3> end
|  4> !RI-MP2 aug-cc-pVTZ aug-cc-pVTZ/C TightSCF
|  5> %maxcore 4500
|  6> *xyzfile 0 1  10_69P.xyz
|  7>
|  8>
|  9>                          ****END OF INPUT****

CARTESIAN COORDINATES (ANGSTROEM)
---------------------------------
  C     -0.643265    1.187208   -0.137089
  C      0.772278    0.886355   -0.542848
  C     -1.181829    2.410238   -0.152119
  C      1.659184    1.543854    0.479107
  C     -0.436272    3.617130   -0.414861
  C      1.717948    2.876814    0.596785
  C      0.860011    3.820147   -0.084425
  H      2.275946    0.919344    1.112708
  H      2.448786    3.302321    1.277686
  H      1.254599    4.822602   -0.218928
  H     -0.999626    4.465384   -0.789829
  C      1.575630   -1.802724    1.305369
  C      0.857854   -0.658932   -0.659387
  H      0.973613    1.354055   -1.513125
  C      2.061483   -1.293954    0.018132
  C     -0.360032   -1.217474    0.120020
  H      0.799852   -0.931686   -1.712253
  C      0.248604   -1.722021    1.401055
  C      3.306447   -1.341420   -0.467569
  C      4.452165   -1.980736    0.262886
  C      3.679109   -0.731899   -1.788278
  H      2.824083   -0.327922   -2.327614
  H      4.171180   -1.469144   -2.430370
  H      4.395121    0.083648   -1.641123
  H      4.162463   -2.418652    1.215794
  H      5.242995   -1.247570    0.452003
  H      4.898794   -2.771780   -0.347736
  C     -1.401180   -0.077433    0.224015
  C     -2.024708    0.044432    1.550084
  N     -2.482514    0.196740    2.589955
  C     -3.295813   -1.260301   -0.676608
  O     -3.216455   -2.094898    0.179513
  O     -2.437088   -0.215852   -0.778148
  C     -4.328767   -1.197812   -1.759601
  H     -3.852814   -1.053707   -2.729538
  H     -4.914649   -2.113162   -1.752189
  H     -4.982455   -0.342180   -1.580920
  H     -0.831505   -2.055009   -0.394430
  H     -0.349353   -2.039236    2.244566
  H      2.215823   -2.198364    2.081584
  H     -2.239983    2.521039    0.065098

 Total Charge           Charge          ....    0
 Multiplicity           Mult            ....    1
 Number of Electrons    NEL             ....  156
 Basis Dimension        Dim             .... 1449

ORBITAL ENERGIES
----------------

  NO   OCC          E(Eh)            E(eV)
   0   2.0000     -20.621807      -561.1479
   1   2.0000     -20.558255      -559.4186
   2   2.0000     -15.566097      -423.5750
   3   2.0000     -11.393393      -310.0300
   4   2.0000     -11.355521      -308.9994
   5   2.0000     -11.267624      -306.6076
   6   2.0000     -11.255038      -306.2652
   7   2.0000     -11.254322      -306.2457
   8   2.0000     -11.249998      -306.1280
   9   2.0000     -11.248791      -306.0952
  10   2.0000     -11.246262      -306.0263
  11   2.0000     -11.245611      -306.0086
  12   2.0000     -11.243366      -305.9476
  13   2.0000     -11.242478      -305.9234
  14   2.0000     -11.241469      -305.8959
  15   2.0000     -11.241382      -305.8936
  16   2.0000     -11.238121      -305.8048
  17   2.0000     -11.235940      -305.7455
  18   2.0000     -11.234356      -305.7024
  19   2.0000     -11.231006      -305.6112
  20   2.0000     -11.226722      -305.4946
  21   2.0000     -11.226479      -305.4880
  22   2.0000      -1.481038       -40.3011
  23   2.0000      -1.381183       -37.5839
  24   2.0000      -1.223690       -33.2983
  25   2.0000      -1.194961       -32.5165
  26   2.0000      -1.145180       -31.1619
  27   2.0000      -1.107024       -30.1237
  28   2.0000      -1.075542       -29.2670
  29   2.0000      -1.060319       -28.8528
  30   2.0000      -1.040049       -28.3012
  31   2.0000      -1.004632       -27.3374
  32   2.0000      -0.987925       -26.8828
  33   2.0000      -0.947429       -25.7809
  34   2.0000      -0.941643       -25.6234
  35   2.0000      -0.896186       -24.3865
  36   2.0000      -0.862041       -23.4573
  37   2.0000      -0.834075       -22.6963
  38   2.0000      -0.817028       -22.2325
  39   2.0000      -0.780825       -21.2473
  40   2.0000      -0.752243       -20.4696
  41   2.0000      -0.739488       -20.1225
  42   2.0000      -0.708504       -19.2794
  43   2.0000      -0.701289       -19.0831
  44   2.0000      -0.695634       -18.9292
  45   2.0000      -0.681423       -18.5425
  46   2.0000      -0.672322       -18.2948
  47   2.0000      -0.661515       -18.0007
  48   2.0000      -0.649606       -17.6767
  49   2.0000      -0.629775       -17.1371
  50   2.0000      -0.604801       -16.4575
  51   2.0000      -0.603279       -16.4161
  52   2.0000      -0.597034       -16.2461
  53   2.0000      -0.591949       -16.1077
  54   2.0000      -0.587021       -15.9736
  55   2.0000      -0.577666       -15.7191
  56   2.0000      -0.571993       -15.5647
  57   2.0000      -0.569182       -15.4882
  58   2.0000      -0.558002       -15.1840
  59   2.0000      -0.554555       -15.0902
  60   2.0000      -0.543169       -14.7804
  61   2.0000      -0.537488       -14.6258
  62   2.0000      -0.527086       -14.3427
  63   2.0000      -0.523728       -14.2514
  64   2.0000      -0.513436       -13.9713
  65   2.0000      -0.505051       -13.7431
  66   2.0000      -0.501061       -13.6346
  67   2.0000      -0.486795       -13.2464
  68   2.0000      -0.483819       -13.1654
  69   2.0000      -0.479556       -13.0494
  70   2.0000      -0.464189       -12.6312
  71   2.0000      -0.458071       -12.4648
  72   2.0000      -0.449118       -12.2211
  73   2.0000      -0.439893       -11.9701
  74   2.0000      -0.420277       -11.4363
  75   2.0000      -0.361333        -9.8324
  76   2.0000      -0.318101        -8.6560
  77   2.0000      -0.304352        -8.2818
  78   0.0000       0.020616         0.5610
  79   0.0000       0.025277         0.6878
  80   0.0000       0.027763         0.7555
  81   0.0000       0.031774         0.8646
  82   0.0000       0.037097         1.0095

MULLIKEN ATOMIC CHARGES
-----------------------
   0 C :    0.534799
   1 C :    0.275987
   2 C :   -0.406465
   3 C :   -0.757492
   4 C :   -0.593875
   5 C :   -0.533321
   6 C :   -0.096202
   7 H :    0.432913
   8 H :    0.289594
   9 H :    0.275082
  10 H :    0.411831
  11 C :   -1.126157
  12 C :   -0.401347
  13 H :    0.112660
  14 C :    1.421205
  15 C :    0.400902
  16 H :   -0.111916
  17 C :   -1.281084
  18 C :    1.100405
  19 C :   -1.415499
  20 C :   -1.229591
  21 H :    0.381680
  22 H :    0.244029
  23 H :    0.210327
  24 H :    0.371647
  25 H :    0.228998
  26 H :    0.228243
  27 C :    1.150311
  28 C :    1.242768
  29 N :   -1.249390
  30 C :    0.507183
  31 O :   -0.918982
  32 O :   -0.689222
  33 C :   -0.810059
  34 H :    0.250973
  35 H :    0.380301
  36 H :    0.298260
  37 H :    0.321433
  38 H :    0.427242
  39 H :    0.089688
  40 H :    0.032136
Sum of atomic charges:    0.0000000

LOEWDIN ATOMIC CHARGES
----------------------
   0 C :   -0.068973
   1 C :    0.018300
   2 C :    0.238909
   3 C :    0.268555
   4 C :    0.220866
   5 C :    0.215093
   6 C :    0.211702
   7 H :   -0.184368
   8 H :   -0.186130
   9 H :   -0.186963
  10 H :   -0.187771
  11 C :    0.254742
  12 C :    0.052962
  13 H :   -0.125089
  14 C :   -0.082199
  15 C :    0.019899
  16 H :   -0.124867
  17 C :    0.284045
  18 C :   -0.073881
  19 C :    0.581244
  20 C :    0.585365
  21 H :   -0.187571
  22 H :   -0.157573
  23 H :   -0.154291
  24 H :   -0.193620
  25 H :   -0.158794
  26 H :   -0.160374
  27 C :   -0.530163
  28 C :   -0.237273
  29 N :    0.321781
  30 C :   -0.815813
  31 O :    0.498598
  32 O :    0.615700
  33 C :    0.597524
  34 H :   -0.173319
  35 H :   -0.178777
  36 H :   -0.167425
  37 H :   -0.153862
  38 H :   -0.158506
  39 H :   -0.172642
  40 H :   -0.165043

  Mayer bond orders larger than 0.100000
B(  0-C ,  1-C ) :   0.7856 B(  0-C ,  2-C ) :   0.3852 B(  0-C ,  3-C ) :   0.6144
B(  0-C ,  4-C ) :   0.2145 B(  0-C , 11-C ) :   0.1111 B(  0-C , 12-C ) :  -0.4391
B(  0-C , 13-H ) :   0.1539 B(  0-C , 14-C ) :   0.1108 B(  0-C , 15-C ) :   0.3990
B(  0-C , 27-C ) :   0.4289 B(  0-C , 28-C ) :   0.4919 B(  0-C , 29-N ) :   0.4442
B(  0-C , 40-H ) :  -0.2237 B(  1-C ,  2-C ) :  -0.1072 B(  1-C ,  3-C ) :   0.9406
B(  1-C ,  4-C ) :   0.1233 B(  1-C ,  5-C ) :  -0.3898 B(  1-C ,  6-C ) :   0.1745
B(  1-C , 12-C ) :   0.8981 B(  1-C , 13-H ) :   1.0331 B(  1-C , 40-H ) :   0.1982
B(  2-C ,  4-C ) :   0.5091 B(  2-C ,  7-H ) :  -0.1055 B(  2-C , 12-C ) :   0.2744
B(  2-C , 15-C ) :  -0.2240 B(  2-C , 27-C ) :   0.3425 B(  2-C , 28-C ) :   0.1590
B(  2-C , 40-H ) :   1.3950 B(  3-C ,  4-C ) :   0.2387 B(  3-C ,  5-C ) :   1.5654
B(  3-C ,  6-C ) :   0.3247 B(  3-C ,  7-H ) :   0.8590 B(  3-C ,  9-H ) :   0.1063
B(  3-C , 13-H ) :  -0.1472 B(  3-C , 14-C ) :  -0.2473 B(  3-C , 18-C ) :   0.1134
B(  3-C , 28-C ) :   0.1334 B(  4-C ,  6-C ) :   1.4374 B(  4-C ,  9-H ) :  -0.1753
B(  4-C , 10-H ) :   0.8102 B(  4-C , 13-H ) :  -0.1124 B(  4-C , 27-C ) :   0.1347
B(  4-C , 40-H ) :  -0.2135 B(  5-C ,  6-C ) :   0.6577 B(  5-C ,  8-H ) :   0.8947
B(  5-C ,  9-H ) :  -0.1961 B(  5-C , 13-H ) :  -0.1586 B(  5-C , 18-C ) :  -0.1056
B(  5-C , 27-C ) :   0.1918 B(  6-C ,  8-H ) :  -0.1307 B(  6-C ,  9-H ) :   1.0347
B(  6-C , 13-H ) :  -0.1890 B(  7-H , 14-C ) :  -0.1158 B( 11-C , 12-C ) :   0.4281
B( 11-C , 14-C ) :  -0.3986 B( 11-C , 15-C ) :  -0.2761 B( 11-C , 17-C ) :   1.8385
B( 11-C , 18-C ) :   0.6566 B( 11-C , 19-C ) :   0.1546 B( 11-C , 27-C ) :  -0.1028
B( 11-C , 39-H ) :   1.6733 B( 12-C , 14-C ) :   1.1834 B( 12-C , 15-C ) :   1.0259
B( 12-C , 16-H ) :   1.3908 B( 12-C , 17-C ) :   0.3033 B( 12-C , 18-C ) :   0.2054
B( 12-C , 32-O ) :   0.1227 B( 12-C , 38-H ) :  -0.1569 B( 12-C , 39-H ) :   0.3733
B( 13-H , 14-C ) :  -0.1432 B( 13-H , 18-C ) :   0.1345 B( 14-C , 15-C ) :  -0.1730
B( 14-C , 16-H ) :  -0.3694 B( 14-C , 17-C ) :   0.4445 B( 14-C , 18-C ) :   0.7051
B( 14-C , 19-C ) :   0.1504 B( 14-C , 20-C ) :   0.1222 B( 14-C , 24-H ) :   0.1272
B( 14-C , 38-H ) :   0.2427 B( 14-C , 39-H ) :  -0.2932 B( 15-C , 16-H ) :  -0.3083
B( 15-C , 17-C ) :   0.7180 B( 15-C , 27-C ) :   0.6736 B( 15-C , 29-N ) :  -0.1816
B( 15-C , 31-O ) :  -0.1764 B( 15-C , 32-O ) :   0.1687 B( 15-C , 37-H ) :   1.0478
B( 15-C , 39-H ) :  -0.1797 B( 17-C , 18-C ) :  -0.2135 B( 17-C , 29-N ) :   0.1138
B( 17-C , 31-O ) :   0.1584 B( 17-C , 37-H ) :  -0.1768 B( 17-C , 38-H ) :   0.7561
B( 18-C , 19-C ) :   0.1020 B( 18-C , 20-C ) :   0.3829 B( 18-C , 25-H ) :  -0.1212
B( 18-C , 26-H ) :  -0.1537 B( 18-C , 38-H ) :  -0.1650 B( 18-C , 39-H ) :  -0.2251
B( 19-C , 24-H ) :   0.9006 B( 19-C , 25-H ) :   1.1396 B( 19-C , 26-H ) :   1.1942
B( 20-C , 21-H ) :   0.9167 B( 20-C , 22-H ) :   1.1209 B( 20-C , 23-H ) :   1.1547
B( 27-C , 28-C ) :   0.7878 B( 27-C , 29-N ) :   0.4968 B( 27-C , 31-O ) :   0.1559
B( 27-C , 32-O ) :  -0.5111 B( 27-C , 40-H ) :  -0.1572 B( 28-C , 29-N ) :   0.8392
B( 30-C , 31-O ) :   1.4316 B( 30-C , 32-O ) :   1.1357 B( 30-C , 33-C ) :   0.8247
B( 30-C , 37-H ) :  -0.1344 B( 32-O , 33-C ) :  -0.1474 B( 33-C , 34-H ) :   1.0299
B( 33-C , 35-H ) :   0.8947 B( 33-C , 36-H ) :   0.9697

MP2 TOTAL ENERGY:     -938.752150942 Eh
FINAL SINGLE POINT ENERGY      -938.752150941817

DIPOLE MOMENT
-------------
                                X             Y             Z
Electronic contribution:    -16.35595       1.80155       7.10309
Nuclear contribution   :     17.36626      -1.53327      -8.97101
                        -----------------------------------------
Total Dipole Moment    :      1.01030       0.26829      -1.86792
                        -----------------------------------------
Magnitude (a.u.)       :      2.14052
Magnitude (Debye)      :      5.44076

Rotational constants in cm-1:     0.013108     0.008263     0.006313
Rotational constants in MHz :   392.958887   247.705633   189.245449

                             ****ORCA TERMINATED NORMALLY****
TOTAL RUN TIME: 0 days 1 hours 15 minutes 20 seconds 126 msec
