                         Program Version 4.2.1 -  RELEASE  -
|  1> %pal
|  2>  nprocs 32
|  3> end
|  4> !RI-MP2 aug-cc-pVTZ aug-cc-pVTZ/C TightSCF
|  5> %maxcore 4500
|  6> *xyzfile 0 1  02_20R.xyz
|  7>
|  8>
|  9>                          ****END OF INPUT****

CARTESIAN COORDINATES (ANGSTROEM)
---------------------------------
  C     -0.639472   -1.701097   -0.463042
  C      0.422831    1.532521    0.335071
  C     -1.935844   -1.866879   -0.207269
  C      0.354941   -1.795463    0.613274
  C     -0.624395    1.938650   -0.397371
  C      1.830257    1.964438    0.226814
  C     -1.981361    1.401399   -0.206584
  C     -2.597549    1.026394    0.917057
  C     -4.006472    0.477196    0.944599
  C     -2.003408    1.142119    2.293078
  C     -3.015110   -1.798786   -1.239710
  H     -2.786683    1.372022    3.020568
  H     -1.546731    0.194753    2.598036
  H     -1.239552    1.916390    2.347969
  C     -4.699511    0.027358   -0.349062
  H     -4.623910    1.248732    1.422000
  H     -4.024680   -0.360296    1.654423
  C     -4.414462   -1.431073   -0.738782
  H     -2.706427   -1.133378   -2.050978
  H     -3.087773   -2.798010   -1.687511
  C     -6.212227    0.203440   -0.190810
  H     -4.384829    0.671562   -1.175533
  H     -5.118541   -1.699133   -1.532076
  H     -4.668206   -2.074185    0.113344
  C     -0.521107    2.938383   -1.519937
  H      0.421170    3.481863   -1.498181
  H     -0.596917    2.438753   -2.491242
  H     -1.345077    3.654085   -1.462788
  H     -6.589511   -0.404740    0.637377
  H     -6.467935    1.244365    0.018716
  H     -6.745230   -0.099544   -1.094874
  C      2.436369    2.380277    1.541730
  H      1.930020    3.267252    1.932988
  H      2.298120    1.588211    2.284570
  H      3.500579    2.601657    1.476538
  C      2.483893    1.927697   -0.936841
  C      3.898121    2.329752   -1.215296
  H      3.929772    3.112090   -1.979782
  H      4.423104    2.706077   -0.337979
  H      4.466536    1.483756   -1.613988
  H      1.942387    1.542408   -1.795243
  C      1.797412   -1.708641    0.239200
  O      0.060517   -1.931526    1.789123
  C      2.792499   -1.846007    1.114763
  C      2.390244   -1.458760   -1.118245
  H      2.666723   -2.026964    2.173630
  C      4.130117   -1.706432    0.455913
  N      3.741954   -1.478435   -0.920402
  H      4.383871   -1.326497   -1.680578
  O      1.833983   -1.274572   -2.180952
  C      4.976744   -0.579091    1.040699
  H      5.916834   -0.481746    0.494187
  H      5.214183   -0.784822    2.086275
  H      4.437514    0.365506    0.979487
  H      4.676083   -2.654553    0.546450
  H     -2.538057    1.317333   -1.135330
  H      0.235896    0.821849    1.131981
  H     -0.272236   -1.465475   -1.454158
  H     -2.225245   -2.105861    0.813659

 Total Charge           Charge          ....    0
 Multiplicity           Mult            ....    1
 Number of Electrons    NEL             ....  194
 Basis Dimension        Dim             .... 1955

ORBITAL ENERGIES
----------------

  NO   OCC          E(Eh)            E(eV)
   0   2.0000     -20.526924      -558.5660
   1   2.0000     -20.518294      -558.3312
   2   2.0000     -15.584005      -424.0623
   3   2.0000     -11.353372      -308.9410
   4   2.0000     -11.327590      -308.2394
   5   2.0000     -11.295710      -307.3719
   6   2.0000     -11.271205      -306.7051
   7   2.0000     -11.245462      -306.0046
   8   2.0000     -11.243782      -305.9589
   9   2.0000     -11.238769      -305.8224
  10   2.0000     -11.228241      -305.5360
  11   2.0000     -11.227050      -305.5036
  12   2.0000     -11.226630      -305.4921
  13   2.0000     -11.224954      -305.4465
  14   2.0000     -11.224270      -305.4279
  15   2.0000     -11.221090      -305.3414
  16   2.0000     -11.219118      -305.2877
  17   2.0000     -11.217630      -305.2472
  18   2.0000     -11.216367      -305.2128
  19   2.0000     -11.212927      -305.1193
  20   2.0000     -11.210861      -305.0630
  21   2.0000     -11.206979      -304.9574
  22   2.0000     -11.206136      -304.9345
  23   2.0000     -11.204937      -304.9018
  24   2.0000     -11.204623      -304.8933
  25   2.0000     -11.204023      -304.8770
  26   2.0000      -1.385886       -37.7119
  27   2.0000      -1.372696       -37.3530
  28   2.0000      -1.268077       -34.5061
  29   2.0000      -1.125258       -30.6198
  30   2.0000      -1.108609       -30.1668
  31   2.0000      -1.092543       -29.7296
  32   2.0000      -1.083272       -29.4773
  33   2.0000      -1.065815       -29.0023
  34   2.0000      -1.042319       -28.3629
  35   2.0000      -1.032843       -28.1051
  36   2.0000      -0.991544       -26.9813
  37   2.0000      -0.984860       -26.7994
  38   2.0000      -0.930243       -25.3132
  39   2.0000      -0.923645       -25.1336
  40   2.0000      -0.920044       -25.0357
  41   2.0000      -0.918045       -24.9813
  42   2.0000      -0.884543       -24.0696
  43   2.0000      -0.878102       -23.8944
  44   2.0000      -0.842402       -22.9229
  45   2.0000      -0.820477       -22.3263
  46   2.0000      -0.783324       -21.3153
  47   2.0000      -0.767873       -20.8949
  48   2.0000      -0.759327       -20.6623
  49   2.0000      -0.723297       -19.6819
  50   2.0000      -0.710565       -19.3355
  51   2.0000      -0.698163       -18.9980
  52   2.0000      -0.676391       -18.4055
  53   2.0000      -0.663180       -18.0460
  54   2.0000      -0.655808       -17.8455
  55   2.0000      -0.647571       -17.6213
  56   2.0000      -0.636303       -17.3147
  57   2.0000      -0.625297       -17.0152
  58   2.0000      -0.620772       -16.8921
  59   2.0000      -0.614766       -16.7286
  60   2.0000      -0.610582       -16.6148
  61   2.0000      -0.601866       -16.3776
  62   2.0000      -0.590168       -16.0593
  63   2.0000      -0.587768       -15.9940
  64   2.0000      -0.583942       -15.8899
  65   2.0000      -0.577514       -15.7150
  66   2.0000      -0.567865       -15.4524
  67   2.0000      -0.566683       -15.4202
  68   2.0000      -0.557264       -15.1639
  69   2.0000      -0.555019       -15.1028
  70   2.0000      -0.553195       -15.0532
  71   2.0000      -0.551300       -15.0016
  72   2.0000      -0.546233       -14.8638
  73   2.0000      -0.540144       -14.6981
  74   2.0000      -0.534445       -14.5430
  75   2.0000      -0.531753       -14.4697
  76   2.0000      -0.531287       -14.4570
  77   2.0000      -0.526372       -14.3233
  78   2.0000      -0.523107       -14.2345
  79   2.0000      -0.517704       -14.0874
  80   2.0000      -0.514178       -13.9915
  81   2.0000      -0.504455       -13.7269
  82   2.0000      -0.491936       -13.3863
  83   2.0000      -0.488572       -13.2947
  84   2.0000      -0.482447       -13.1281
  85   2.0000      -0.461019       -12.5450
  86   2.0000      -0.457163       -12.4400
  87   2.0000      -0.454846       -12.3770
  88   2.0000      -0.435505       -11.8507
  89   2.0000      -0.426175       -11.5968
  90   2.0000      -0.410735       -11.1767
  91   2.0000      -0.399476       -10.8703
  92   2.0000      -0.394101       -10.7240
  93   2.0000      -0.385781       -10.4976
  94   2.0000      -0.354727        -9.6526
  95   2.0000      -0.332280        -9.0418
  96   2.0000      -0.285674        -7.7736
  97   0.0000       0.019893         0.5413
  98   0.0000       0.026788         0.7289
  99   0.0000       0.029142         0.7930
 100   0.0000       0.031031         0.8444
 101   0.0000       0.035930         0.9777

MULLIKEN ATOMIC CHARGES
-----------------------
   0 C :   -0.132673
   1 C :    0.015458
   2 C :   -0.386936
   3 C :    1.777577
   4 C :    0.997554
   5 C :    0.705850
   6 C :   -0.194029
   7 C :    0.967209
   8 C :   -0.630355
   9 C :   -1.297701
  10 C :   -0.340174
  11 H :    0.127636
  12 H :    0.264568
  13 H :    0.295898
  14 C :    0.497660
  15 H :    0.586184
  16 H :    0.029558
  17 C :   -0.542022
  18 H :    0.013539
  19 H :    0.397187
  20 C :   -1.459061
  21 H :    0.441353
  22 H :    0.263327
  23 H :    0.122043
  24 C :   -1.295661
  25 H :    0.361106
  26 H :    0.280997
  27 H :    0.088640
  28 H :    0.216712
  29 H :    0.240425
  30 H :    0.268699
  31 C :   -1.238994
  32 H :    0.178836
  33 H :    0.185652
  34 H :    0.242684
  35 C :   -0.416540
  36 C :   -1.059092
  37 H :    0.267219
  38 H :    0.321725
  39 H :    0.227384
  40 H :   -0.024822
  41 C :    0.925259
  42 O :   -1.602179
  43 C :   -0.876084
  44 C :    0.974740
  45 H :    0.339551
  46 C :   -0.001571
  47 N :    0.174455
  48 H :   -0.039548
  49 O :   -1.316971
  50 C :   -1.031049
  51 H :    0.267303
  52 H :    0.191684
  53 H :    0.567073
  54 H :    0.248550
  55 H :   -0.599097
  56 H :    0.237552
  57 H :    0.264008
  58 H :   -0.088295
Sum of atomic charges:    0.0000000

LOEWDIN ATOMIC CHARGES
----------------------
   0 C :    0.215458
   1 C :    0.207129
   2 C :    0.232978
   3 C :   -0.569700
   4 C :   -0.085661
   5 C :   -0.115013
   6 C :    0.224469
   7 C :   -0.063371
   8 C :    0.291118
   9 C :    0.584057
  10 C :    0.298928
  11 H :   -0.162051
  12 H :   -0.160864
  13 H :   -0.183300
  14 C :   -0.008627
  15 H :   -0.145700
  16 H :   -0.140991
  17 C :    0.303042
  18 H :   -0.142160
  19 H :   -0.137482
  20 C :    0.591903
  21 H :   -0.155944
  22 H :   -0.146808
  23 H :   -0.135810
  24 C :    0.578899
  25 H :   -0.192261
  26 H :   -0.155115
  27 H :   -0.163443
  28 H :   -0.151751
  29 H :   -0.161622
  30 H :   -0.163075
  31 C :    0.577733
  32 H :   -0.154782
  33 H :   -0.161850
  34 H :   -0.198789
  35 C :    0.210185
  36 C :    0.566764
  37 H :   -0.166165
  38 H :   -0.197023
  39 H :   -0.176489
  40 H :   -0.186401
  41 C :   -0.069740
  42 O :    0.480177
  43 C :    0.279129
  44 C :   -0.668562
  45 H :   -0.133864
  46 C :   -0.129045
  47 N :    0.571792
  48 H :   -0.248971
  49 O :    0.469116
  50 C :    0.616744
  51 H :   -0.154463
  52 H :   -0.155290
  53 H :   -0.193254
  54 H :   -0.118082
  55 H :   -0.208752
  56 H :   -0.228185
  57 H :   -0.245913
  58 H :   -0.163253

  Mayer bond orders larger than 0.100000
B(  0-C ,  1-C ) :   0.1342 B(  0-C ,  2-C ) :   0.8626 B(  0-C ,  3-C ) :   1.0830
B(  0-C ,  4-C ) :  -0.2085 B(  0-C ,  6-C ) :  -0.1120 B(  0-C , 10-C ) :   0.2128
B(  0-C , 41-C ) :  -0.1465 B(  0-C , 42-O ) :   0.1029 B(  0-C , 44-C ) :  -0.1917
B(  0-C , 57-H ) :   1.3209 B(  0-C , 58-H ) :  -0.4137 B(  1-C ,  2-C ) :   0.1774
B(  1-C ,  4-C ) :   1.7482 B(  1-C ,  5-C ) :   0.8265 B(  1-C ,  7-C ) :   0.3182
B(  1-C ,  9-C ) :  -0.1789 B(  1-C , 21-H ) :   0.1153 B(  1-C , 24-C ) :  -0.1071
B(  1-C , 35-C ) :  -0.4034 B(  1-C , 40-H ) :  -0.2291 B(  1-C , 41-C ) :   0.1181
B(  1-C , 42-O ) :   0.1241 B(  1-C , 44-C ) :   0.1185 B(  1-C , 55-H ) :  -0.1815
B(  1-C , 56-H ) :   0.8198 B(  2-C ,  3-C ) :   0.1463 B(  2-C ,  8-C ) :   0.1183
B(  2-C , 10-C ) :   0.3879 B(  2-C , 14-C ) :  -0.1065 B(  2-C , 18-H ) :   0.1458
B(  2-C , 19-H ) :  -0.2200 B(  2-C , 44-C ) :   0.1007 B(  2-C , 58-H ) :   1.7756
B(  3-C , 41-C ) :   1.0553 B(  3-C , 42-O ) :  -0.6480 B(  3-C , 43-C ) :   0.3302
B(  3-C , 44-C ) :   0.3489 B(  3-C , 56-H ) :  -0.1238 B(  3-C , 58-H ) :  -0.1719
B(  4-C ,  5-C ) :   0.2319 B(  4-C ,  6-C ) :   0.7182 B(  4-C ,  7-C ) :   0.5309
B(  4-C , 13-H ) :   0.1375 B(  4-C , 24-C ) :   0.2119 B(  4-C , 26-H ) :  -0.2293
B(  4-C , 27-H ) :  -0.1558 B(  4-C , 41-C ) :  -0.1705 B(  4-C , 55-H ) :  -0.3096
B(  4-C , 56-H ) :   0.1750 B(  4-C , 58-H ) :   0.1195 B(  5-C ,  6-C ) :  -0.1994
B(  5-C , 31-C ) :   0.3120 B(  5-C , 33-H ) :  -0.1670 B(  5-C , 35-C ) :   0.8532
B(  5-C , 36-C ) :   0.2194 B(  5-C , 38-H ) :   0.1360 B(  5-C , 40-H ) :  -0.3445
B(  5-C , 56-H ) :   0.2370 B(  6-C ,  7-C ) :   1.2580 B(  6-C ,  9-C ) :  -0.1121
B(  6-C , 14-C ) :  -0.1113 B(  6-C , 21-H ) :  -0.3438 B(  6-C , 24-C ) :   0.3295
B(  6-C , 26-H ) :   0.1322 B(  6-C , 55-H ) :   2.4022 B(  6-C , 58-H ) :   0.1564
B(  7-C ,  9-C ) :   0.7372 B(  7-C , 10-C ) :   0.1001 B(  7-C , 11-H ) :  -0.1231
B(  7-C , 14-C ) :   0.2666 B(  7-C , 15-H ) :  -0.2568 B(  7-C , 16-H ) :  -0.2222
B(  7-C , 55-H ) :  -0.4796 B(  7-C , 58-H ) :  -0.1456 B(  8-C ,  9-C ) :   0.1001
B(  8-C , 14-C ) :   0.9076 B(  8-C , 15-H ) :   0.6626 B(  8-C , 16-H ) :   1.4400
B(  8-C , 21-H ) :   0.1086 B(  8-C , 55-H ) :  -0.1030 B(  9-C , 11-H ) :   1.1773
B(  9-C , 12-H ) :   1.0455 B(  9-C , 13-H ) :   0.9964 B(  9-C , 15-H ) :  -0.1161
B(  9-C , 56-H ) :  -0.1004 B(  9-C , 58-H ) :  -0.1297 B( 10-C , 17-C ) :   0.8606
B( 10-C , 18-H ) :   1.2086 B( 10-C , 19-H ) :   0.9101 B( 14-C , 17-C ) :   0.8054
B( 14-C , 20-C ) :   0.2884 B( 14-C , 21-H ) :   0.9227 B( 14-C , 28-H ) :  -0.1738
B( 14-C , 55-H ) :  -0.1302 B( 17-C , 20-C ) :   0.1480 B( 17-C , 22-H ) :   0.9764
B( 17-C , 23-H ) :   1.1582 B( 20-C , 21-H ) :  -0.1694 B( 20-C , 28-H ) :   1.1738
B( 20-C , 29-H ) :   1.0758 B( 20-C , 30-H ) :   1.0534 B( 21-H , 55-H ) :  -0.1088
B( 24-C , 25-H ) :   0.8382 B( 24-C , 26-H ) :   1.1487 B( 24-C , 27-H ) :   1.2933
B( 31-C , 32-H ) :   1.1211 B( 31-C , 33-H ) :   1.2629 B( 31-C , 34-H ) :   0.9709
B( 31-C , 35-C ) :  -0.2193 B( 31-C , 40-H ) :   0.1187 B( 35-C , 36-C ) :   0.4120
B( 35-C , 40-H ) :   1.7931 B( 35-C , 56-H ) :   0.1246 B( 36-C , 37-H ) :   1.0077
B( 36-C , 38-H ) :   0.9729 B( 36-C , 39-H ) :   1.1162 B( 41-C , 42-O ) :   0.3397
B( 41-C , 43-C ) :   0.8918 B( 41-C , 44-C ) :   0.5404 B( 41-C , 47-N ) :  -0.3889
B( 41-C , 49-O ) :   0.5396 B( 43-C , 44-C ) :   0.2645 B( 43-C , 45-H ) :   1.0294
B( 43-C , 46-C ) :   1.2134 B( 44-C , 45-H ) :   0.1037 B( 44-C , 47-N ) :   1.1868
B( 44-C , 49-O ) :   0.1930 B( 46-C , 47-N ) :   0.9393 B( 46-C , 50-C ) :   0.7615
B( 46-C , 54-H ) :   0.8760 B( 47-N , 48-H ) :   1.1101 B( 47-N , 49-O ) :  -0.2343
B( 49-O , 57-H ) :  -0.1300 B( 50-C , 51-H ) :   0.9822 B( 50-C , 52-H ) :   1.0822
B( 50-C , 53-H ) :   0.7675 B( 55-H , 56-H ) :   0.1395 B( 56-H , 58-H ) :  -0.1033

MP2 TOTAL ENERGY:    -1099.243883778 Eh
FINAL SINGLE POINT ENERGY     -1099.243883777934

DIPOLE MOMENT
-------------
                                X             Y             Z
Electronic contribution:     11.75327     -15.88543      -2.52381
Nuclear contribution   :    -10.73286      15.94030       2.79815
                        -----------------------------------------
Total Dipole Moment    :      1.02042       0.05487       0.27434
                        -----------------------------------------
Magnitude (a.u.)       :      1.05807
Magnitude (Debye)      :      2.68941

Rotational constants in cm-1:     0.011270     0.004438     0.003893
Rotational constants in MHz :   337.858010   133.036299   116.712487

                             ****ORCA TERMINATED NORMALLY****
TOTAL RUN TIME: 0 days 3 hours 11 minutes 18 seconds 772 msec
