                         Program Version 4.2.1 -  RELEASE  -
|  1> %pal
|  2>  nprocs 32
|  3> end
|  4> !RI-MP2 aug-cc-pVTZ aug-cc-pVTZ/C TightSCF
|  5> %maxcore 4500
|  6> *xyzfile 0 1  03_34R1.xyz
|  7>
|  8>
|  9>                          ****END OF INPUT****

CARTESIAN COORDINATES (ANGSTROEM)
---------------------------------
  Cl     2.814985   -0.816210   -0.995123
  C      2.007584    0.312431    0.230458
  C      0.507511    0.114292    0.128286
  C      2.475865    1.715332   -0.121152
  C      2.525266   -0.091920    1.606060
  C     -0.362669    1.165414   -0.108491
  C     -0.047444   -1.156472    0.320222
  H      2.156449    2.005229   -1.121608
  H      3.563767    1.758797   -0.082856
  H      2.080994    2.433763    0.600953
  H      2.265249   -1.122153    1.843974
  H      2.072802    0.557059    2.359990
  H      3.609656    0.013233    1.654244
  C     -1.743590    0.978887   -0.150316
  C     -2.270709   -0.288210    0.045267
  C     -1.407735   -1.360323    0.279654
  H      0.604824   -2.005906    0.480069
  H     -2.383040    1.829482   -0.338256
  O     -3.594817   -0.584798    0.024084
  H     -1.833140   -2.345752    0.420014
  H      0.016068    2.165689   -0.266953
  C     -4.510668    0.461716   -0.224097
  H     -5.499127    0.008824   -0.201349
  H     -4.341785    0.913267   -1.206430
  H     -4.449388    1.235529    0.547288

 Total Charge           Charge          ....    0
 Multiplicity           Mult            ....    1
 Number of Electrons    NEL             ....   98
 Basis Dimension        Dim             ....  855

ORBITAL ENERGIES
----------------

  NO   OCC          E(Eh)            E(eV)
   0   2.0000    -104.808145     -2851.9746
   1   2.0000     -20.588852      -560.2512
   2   2.0000     -11.311870      -307.8116
   3   2.0000     -11.302350      -307.5526
   4   2.0000     -11.287162      -307.1393
   5   2.0000     -11.242872      -305.9341
   6   2.0000     -11.239798      -305.8504
   7   2.0000     -11.238621      -305.8184
   8   2.0000     -11.232236      -305.6447
   9   2.0000     -11.229407      -305.5677
  10   2.0000     -11.229062      -305.5583
  11   2.0000     -11.228212      -305.5352
  12   2.0000     -10.532659      -286.6082
  13   2.0000      -7.999283      -217.6716
  14   2.0000      -7.997688      -217.6281
  15   2.0000      -7.997673      -217.6277
  16   2.0000      -1.417357       -38.5682
  17   2.0000      -1.177282       -32.0355
  18   2.0000      -1.131466       -30.7888
  19   2.0000      -1.036020       -28.1915
  20   2.0000      -1.023451       -27.8495
  21   2.0000      -1.005122       -27.3508
  22   2.0000      -0.954098       -25.9623
  23   2.0000      -0.945965       -25.7410
  24   2.0000      -0.845978       -23.0202
  25   2.0000      -0.830175       -22.5902
  26   2.0000      -0.764222       -20.7955
  27   2.0000      -0.724577       -19.7167
  28   2.0000      -0.676051       -18.3963
  29   2.0000      -0.660635       -17.9768
  30   2.0000      -0.658980       -17.9317
  31   2.0000      -0.631045       -17.1716
  32   2.0000      -0.617870       -16.8131
  33   2.0000      -0.600830       -16.3494
  34   2.0000      -0.595857       -16.2141
  35   2.0000      -0.577260       -15.7080
  36   2.0000      -0.567735       -15.4489
  37   2.0000      -0.550850       -14.9894
  38   2.0000      -0.532018       -14.4769
  39   2.0000      -0.528112       -14.3707
  40   2.0000      -0.511228       -13.9112
  41   2.0000      -0.507808       -13.8182
  42   2.0000      -0.487746       -13.2722
  43   2.0000      -0.479635       -13.0515
  44   2.0000      -0.463646       -12.6165
  45   2.0000      -0.426498       -11.6056
  46   2.0000      -0.422647       -11.5008
  47   2.0000      -0.345601        -9.4043
  48   2.0000      -0.312870        -8.5136
  49   0.0000       0.024432         0.6648
  50   0.0000       0.030939         0.8419
  51   0.0000       0.034179         0.9301
  52   0.0000       0.039811         1.0833
  53   0.0000       0.041668         1.1338

MULLIKEN ATOMIC CHARGES
-----------------------
   0 Cl:   -0.589027
   1 C :    0.986362
   2 C :    1.771866
   3 C :   -1.109769
   4 C :   -1.144504
   5 C :   -0.752767
   6 C :   -0.597722
   7 H :    0.324308
   8 H :    0.289972
   9 H :    0.273388
  10 H :    0.307499
  11 H :    0.316641
  12 H :    0.231230
  13 C :   -0.522539
  14 C :    1.194306
  15 C :   -0.975438
  16 H :    0.238770
  17 H :    0.284669
  18 O :   -0.866271
  19 H :    0.518511
  20 H :   -0.366837
  21 C :   -0.921365
  22 H :    0.381031
  23 H :    0.363413
  24 H :    0.364274
Sum of atomic charges:    0.0000000

LOEWDIN ATOMIC CHARGES
----------------------
   0 Cl:    0.960976
   1 C :   -0.819168
   2 C :   -0.181918
   3 C :    0.480085
   4 C :    0.502425
   5 C :    0.212683
   6 C :    0.178727
   7 H :   -0.172338
   8 H :   -0.176663
   9 H :   -0.161902
  10 H :   -0.184490
  11 H :   -0.153003
  12 H :   -0.173068
  13 C :    0.221919
  14 C :   -0.384636
  15 C :    0.226862
  16 H :   -0.190205
  17 H :   -0.203604
  18 O :    0.576188
  19 H :   -0.176227
  20 H :   -0.195306
  21 C :    0.337479
  22 H :   -0.179363
  23 H :   -0.172469
  24 H :   -0.172982

  Mayer bond orders larger than 0.100000
B(  0-Cl,  1-C ) :   0.4455 B(  1-C ,  2-C ) :   0.7946 B(  1-C ,  3-C ) :   0.5627
B(  1-C ,  4-C ) :   0.6650 B(  1-C ,  6-C ) :   0.1716 B(  1-C , 20-H ) :  -0.1301
B(  2-C ,  4-C ) :   0.1061 B(  2-C ,  5-C ) :  -0.2270 B(  2-C ,  6-C ) :   0.3510
B(  2-C , 13-C ) :   0.4712 B(  2-C , 15-C ) :   0.1382 B(  2-C , 16-H ) :  -0.2102
B(  2-C , 20-H ) :  -0.6056 B(  3-C ,  7-H ) :   0.9855 B(  3-C ,  8-H ) :   0.9998
B(  3-C ,  9-H ) :   0.9873 B(  4-C , 10-H ) :   0.9793 B(  4-C , 11-H ) :   0.9232
B(  4-C , 12-H ) :   1.0420 B(  5-C ,  6-C ) :  -0.4333 B(  5-C , 13-C ) :   0.8122
B(  5-C , 16-H ) :   0.1567 B(  5-C , 17-H ) :  -0.2477 B(  5-C , 20-H ) :   2.4991
B(  6-C , 13-C ) :  -0.1305 B(  6-C , 14-C ) :  -0.2361 B(  6-C , 15-C ) :   1.4182
B(  6-C , 16-H ) :   1.2060 B(  6-C , 20-H ) :   0.1456 B( 13-C , 14-C ) :   1.3132
B( 13-C , 15-C ) :   0.2831 B( 13-C , 17-H ) :   1.0173 B( 13-C , 18-O ) :  -0.3003
B( 13-C , 20-H ) :  -0.3161 B( 14-C , 15-C ) :   0.8204 B( 14-C , 17-H ) :   0.1134
B( 14-C , 18-O ) :   0.3623 B( 15-C , 18-O ) :   0.2237 B( 15-C , 19-H ) :   0.6084
B( 16-H , 20-H ) :   0.1045 B( 17-H , 21-C ) :  -0.1248 B( 18-O , 21-C ) :   1.0241
B( 21-C , 22-H ) :   0.9206 B( 21-C , 23-H ) :   0.8881 B( 21-C , 24-H ) :   0.8853

MP2 TOTAL ENERGY:     -922.896233645 Eh
FINAL SINGLE POINT ENERGY      -922.896233645482

DIPOLE MOMENT
-------------
                                X             Y             Z
Electronic contribution:      5.51496      -7.57277      -5.55444
Nuclear contribution   :     -6.19990       8.57691       6.09278
                        -----------------------------------------
Total Dipole Moment    :     -0.68494       1.00414       0.53834
                        -----------------------------------------
Magnitude (a.u.)       :      1.32938
Magnitude (Debye)      :      3.37901

Rotational constants in cm-1:     0.065993     0.013311     0.012472
Rotational constants in MHz :  1978.411396   399.055383   373.904620

                             ****ORCA TERMINATED NORMALLY****
TOTAL RUN TIME: 0 days 0 hours 11 minutes 24 seconds 217 msec
