                         Program Version 4.2.1 -  RELEASE  -
|  1> %pal
|  2>  nprocs 32
|  3> end
|  4> !RI-MP2 aug-cc-pVTZ aug-cc-pVTZ/C TightSCF
|  5> %maxcore 4500
|  6> *xyzfile 0 2  04_41TS.xyz
|  7>
|  8>
|  9>                          ****END OF INPUT****

CARTESIAN COORDINATES (ANGSTROEM)
---------------------------------
  N      0.567390    0.009357   -0.737660
  S     -0.479765   -1.163387   -0.226520
  O     -1.309237   -0.507705    1.011069
  C     -2.427565    0.354059    0.718037
  C     -1.987132    1.761949    0.345566
  H     -2.999688    0.361120    1.643842
  H     -3.027116   -0.102199   -0.071218
  C     -1.244142    1.851003   -0.961906
  H     -1.388072    2.178426    1.159207
  H     -2.894998    2.375590    0.283698
  H     -0.248847    1.027614   -0.940594
  H     -1.786350    1.466346   -1.825049
  C      1.755950    0.406256    0.063306
  C      2.841057   -0.647430   -0.199557
  C      1.505955    0.553117    1.565073
  C      2.208932    1.743603   -0.524783
  H      2.327497    1.667954   -1.606643
  H      3.167863    2.027792   -0.089217
  H      1.492671    2.537383   -0.305321
  H      2.553265   -1.616002    0.204074
  H      3.771158   -0.327921    0.275800
  H      3.013030   -0.752618   -1.271462
  H      1.197654   -0.389222    2.016031
  H      0.737336    1.299394    1.769507
  H      2.429498    0.877106    2.048965
  O      0.258500   -2.247388    0.365249
  O     -1.422500   -1.373492   -1.298523
  H     -0.772825    2.811264   -1.160440

 Total Charge           Charge          ....    0
 Multiplicity           Mult            ....    2
 Number of Electrons    NEL             ....  105
 Basis Dimension        Dim             ....  924

ORBITAL ENERGIES
----------------
                 SPIN UP ORBITALS
  NO   OCC          E(Eh)            E(eV)
   0   1.0000     -92.230802     -2509.7277
   1   1.0000     -20.612879      -560.9050
   2   1.0000     -20.555795      -559.3516
   3   1.0000     -20.552219      -559.2543
   4   1.0000     -15.618884      -425.0114
   5   1.0000     -11.307574      -307.6947
   6   1.0000     -11.291118      -307.2469
   7   1.0000     -11.267163      -306.5951
   8   1.0000     -11.255539      -306.2788
   9   1.0000     -11.229514      -305.5706
  10   1.0000     -11.221553      -305.3540
  11   1.0000     -11.215766      -305.1965
  12   1.0000      -9.190964      -250.0988
  13   1.0000      -6.877031      -187.1335
  14   1.0000      -6.875766      -187.0991
  15   1.0000      -6.875492      -187.0917
  16   1.0000      -1.503163       -40.9031
  17   1.0000      -1.384318       -37.6692
  18   1.0000      -1.354443       -36.8563
  19   1.0000      -1.252825       -34.0911
  20   1.0000      -1.098778       -29.8993
  21   1.0000      -1.079658       -29.3790
  22   1.0000      -0.975092       -26.5336
  23   1.0000      -0.953120       -25.9357
  24   1.0000      -0.944659       -25.7055
  25   1.0000      -0.882418       -24.0118
  26   1.0000      -0.829378       -22.5685
  27   1.0000      -0.775762       -21.1096
  28   1.0000      -0.741599       -20.1799
  29   1.0000      -0.701084       -19.0775
  30   1.0000      -0.694604       -18.9011
  31   1.0000      -0.668763       -18.1980
  32   1.0000      -0.654495       -17.8097
  33   1.0000      -0.643582       -17.5128
  34   1.0000      -0.624189       -16.9851
  35   1.0000      -0.617133       -16.7930
  36   1.0000      -0.602544       -16.3961
  37   1.0000      -0.573992       -15.6191
  38   1.0000      -0.568083       -15.4583
  39   1.0000      -0.564387       -15.3578
  40   1.0000      -0.563709       -15.3393
  41   1.0000      -0.541392       -14.7320
  42   1.0000      -0.531294       -14.4573
  43   1.0000      -0.528081       -14.3698
  44   1.0000      -0.518517       -14.1096
  45   1.0000      -0.510254       -13.8847
  46   1.0000      -0.495674       -13.4880
  47   1.0000      -0.493689       -13.4340
  48   1.0000      -0.489022       -13.3070
  49   1.0000      -0.479795       -13.0559
  50   1.0000      -0.475093       -12.9279
  51   1.0000      -0.438815       -11.9408
  52   1.0000      -0.397049       -10.8043
  53   0.0000       0.020170         0.5489
  54   0.0000       0.028682         0.7805
  55   0.0000       0.032018         0.8712
  56   0.0000       0.037460         1.0193
  57   0.0000       0.044341         1.2066

                 SPIN DOWN ORBITALS
  NO   OCC          E(Eh)            E(eV)
   0   1.0000     -92.231193     -2509.7384
   1   1.0000     -20.613092      -560.9107
   2   1.0000     -20.554163      -559.3072
   3   1.0000     -20.552499      -559.2619
   4   1.0000     -15.595209      -424.3672
   5   1.0000     -11.307252      -307.6860
   6   1.0000     -11.292313      -307.2795
   7   1.0000     -11.256862      -306.3148
   8   1.0000     -11.250884      -306.1521
   9   1.0000     -11.229205      -305.5622
  10   1.0000     -11.221503      -305.3526
  11   1.0000     -11.214631      -305.1656
  12   1.0000      -9.191494      -250.1133
  13   1.0000      -6.877256      -187.1397
  14   1.0000      -6.876758      -187.1261
  15   1.0000      -6.875979      -187.1049
  16   1.0000      -1.500942       -40.8427
  17   1.0000      -1.383543       -37.6481
  18   1.0000      -1.352812       -36.8119
  19   1.0000      -1.204547       -32.7774
  20   1.0000      -1.083509       -29.4838
  21   1.0000      -1.065302       -28.9883
  22   1.0000      -0.952976       -25.9318
  23   1.0000      -0.951576       -25.8937
  24   1.0000      -0.938490       -25.5376
  25   1.0000      -0.864123       -23.5140
  26   1.0000      -0.820241       -22.3199
  27   1.0000      -0.772678       -21.0256
  28   1.0000      -0.718028       -19.5385
  29   1.0000      -0.691186       -18.8081
  30   1.0000      -0.681112       -18.5340
  31   1.0000      -0.648284       -17.6407
  32   1.0000      -0.643635       -17.5142
  33   1.0000      -0.636180       -17.3113
  34   1.0000      -0.619857       -16.8672
  35   1.0000      -0.612559       -16.6686
  36   1.0000      -0.593269       -16.1437
  37   1.0000      -0.566540       -15.4163
  38   1.0000      -0.563512       -15.3339
  39   1.0000      -0.557641       -15.1742
  40   1.0000      -0.552855       -15.0439
  41   1.0000      -0.530996       -14.4491
  42   1.0000      -0.527822       -14.3628
  43   1.0000      -0.514478       -13.9996
  44   1.0000      -0.510250       -13.8846
  45   1.0000      -0.501811       -13.6550
  46   1.0000      -0.492070       -13.3899
  47   1.0000      -0.487420       -13.2634
  48   1.0000      -0.486036       -13.2257
  49   1.0000      -0.475824       -12.9478
  50   1.0000      -0.459853       -12.5132
  51   1.0000      -0.412058       -11.2127
  52   0.0000       0.019914         0.5419
  53   0.0000       0.028601         0.7783
  54   0.0000       0.029174         0.7939
  55   0.0000       0.035645         0.9700
  56   0.0000       0.041890         1.1399

MULLIKEN ATOMIC CHARGES AND SPIN POPULATIONS
--------------------------------------------
   0 N :   -0.701335    0.813329
   1 S :    2.311448   -0.072215
   2 O :   -0.791394   -0.003491
   3 C :   -0.400239    0.025891
   4 C :   -0.331787   -0.100520
   5 H :    0.337671   -0.003417
   6 H :    0.355713   -0.000639
   7 C :   -0.674285    0.742065
   8 H :    0.200417   -0.000968
   9 H :    0.330368    0.040614
  10 H :    0.444671   -0.376830
  11 H :    0.253250   -0.025751
  12 C :    1.983083   -0.108859
  13 C :   -1.440970    0.036596
  14 C :   -1.215241    0.011030
  15 C :   -1.364930    0.023959
  16 H :    0.277533    0.000471
  17 H :    0.200741   -0.004672
  18 H :    0.338871    0.001495
  19 H :    0.327893    0.000834
  20 H :    0.245577    0.005971
  21 H :    0.242128   -0.000424
  22 H :    0.300932   -0.001659
  23 H :    0.508346   -0.002629
  24 H :    0.148471   -0.002570
  25 O :   -1.062765    0.031474
  26 O :   -1.069798   -0.005404
  27 H :    0.245632   -0.023681
Sum of atomic charges         :   -0.0000000

LOEWDIN ATOMIC CHARGES AND SPIN POPULATIONS
-------------------------------------------
   0 N :    0.367933    0.410954
   1 S :   -0.038694    0.017069
   2 O :    0.369677   -0.005075
   3 C :    0.010959    0.000691
   4 C :    0.271493    0.041485
   5 H :   -0.158830   -0.000256
   6 H :   -0.189543   -0.000157
   7 C :    0.575395    0.276533
   8 H :   -0.156970    0.000211
   9 H :   -0.140048    0.015795
  10 H :   -0.513244    0.091699
  11 H :   -0.139239    0.040928
  12 C :   -0.519429    0.029046
  13 C :    0.577965    0.017316
  14 C :    0.576352   -0.002860
  15 C :    0.577357   -0.002463
  16 H :   -0.149109   -0.000626
  17 H :   -0.152976   -0.000525
  18 H :   -0.172436   -0.001274
  19 H :   -0.203783    0.000281
  20 H :   -0.157394    0.005134
  21 H :   -0.156183    0.000883
  22 H :   -0.180997   -0.000216
  23 H :   -0.176072   -0.000263
  24 H :   -0.152884   -0.000841
  25 O :    0.094038    0.026853
  26 O :    0.082744   -0.006525
  27 H :   -0.146079    0.046201

  Mayer bond orders larger than 0.100000
B(  0-N ,  1-S ) :   1.0729 B(  0-N ,  2-O ) :   0.1496 B(  0-N , 10-H ) :   0.1443
B(  0-N , 13-C ) :   0.1473 B(  1-S ,  2-O ) :   0.7164 B(  1-S , 25-O ) :   1.1072
B(  1-S , 26-O ) :   1.1477 B(  2-O ,  3-C ) :   0.7961 B(  3-C ,  4-C ) :   0.9205
B(  3-C ,  5-H ) :   0.8961 B(  3-C ,  6-H ) :   0.9779 B(  4-C ,  7-C ) :   0.8221
B(  4-C ,  8-H ) :   1.0031 B(  4-C ,  9-H ) :   0.8895 B(  7-C , 10-H ) :   0.3352
B(  7-C , 11-H ) :   1.0116 B(  7-C , 27-H ) :   1.0156 B( 10-H , 12-C ) :   0.1073
B( 12-C , 13-C ) :   0.1841 B( 12-C , 14-C ) :   0.6010 B( 12-C , 15-C ) :   0.2687
B( 12-C , 17-H ) :  -0.1242 B( 13-C , 19-H ) :   1.0018 B( 13-C , 20-H ) :   1.0795
B( 13-C , 21-H ) :   1.0964 B( 14-C , 22-H ) :   1.0091 B( 14-C , 23-H ) :   0.7821
B( 14-C , 24-H ) :   1.1527 B( 15-C , 16-H ) :   1.0434 B( 15-C , 17-H ) :   1.1438
B( 15-C , 18-H ) :   0.9686

MP2 TOTAL ENERGY:     -953.420684490 Eh
FINAL SINGLE POINT ENERGY      -953.420684490027

DIPOLE MOMENT
-------------
                                X             Y             Z
Electronic contribution:     -7.75376     -13.33545      -1.70076
Nuclear contribution   :      7.66506      15.64525       2.16725
                        -----------------------------------------
Total Dipole Moment    :     -0.08870       2.30980       0.46649
                        -----------------------------------------
Magnitude (a.u.)       :      2.35811
Magnitude (Debye)      :      5.99384

Rotational constants in cm-1:     0.036818     0.025932     0.019993
Rotational constants in MHz :  1103.764834   777.435738   599.373409

                             ****ORCA TERMINATED NORMALLY****
TOTAL RUN TIME: 0 days 0 hours 34 minutes 17 seconds 561 msec
