                         Program Version 4.2.1 -  RELEASE  -
|  1> %pal
|  2>  nprocs 32
|  3> end
|  4> !RI-MP2 aug-cc-pVTZ aug-cc-pVTZ/C TightSCF
|  5> %maxcore 4500
|  6> *xyzfile 1 1  04_7R1.xyz
|  7>
|  8>
|  9>                          ****END OF INPUT****

CARTESIAN COORDINATES (ANGSTROEM)
---------------------------------
  N     -1.768298    0.057398   -0.208546
  H     -1.604608    1.029275    0.088965
  C     -0.622765   -0.788159    0.287124
  H     -2.670693   -0.264017    0.151036
  H     -1.817525    0.063766   -1.231631
  C      0.682742   -0.063658    0.029832
  O      0.461930    1.267870    0.121375
  N      1.812323   -0.539790   -0.191436
  H      1.299568    1.745065    0.015400
  H      1.855244   -1.552837   -0.248232
  H     -0.660625   -1.755290   -0.208620
  H     -0.764844   -0.921283    1.360226

 Total Charge           Charge          ....    1
 Multiplicity           Mult            ....    1
 Number of Electrons    NEL             ....   40
 Basis Dimension        Dim             ....  391

ORBITAL ENERGIES
----------------

  NO   OCC          E(Eh)            E(eV)
   0   2.0000     -20.775398      -565.3273
   1   2.0000     -15.904847      -432.7929
   2   2.0000     -15.713519      -427.5866
   3   2.0000     -11.525329      -313.6201
   4   2.0000     -11.507250      -313.1282
   5   2.0000      -1.609865       -43.8067
   6   2.0000      -1.519719       -41.3537
   7   2.0000      -1.378016       -37.4977
   8   2.0000      -1.201285       -32.6886
   9   2.0000      -1.028753       -27.9938
  10   2.0000      -0.982623       -26.7385
  11   2.0000      -0.967881       -26.3374
  12   2.0000      -0.891734       -24.2653
  13   2.0000      -0.882613       -24.0171
  14   2.0000      -0.822830       -22.3904
  15   2.0000      -0.797862       -21.7109
  16   2.0000      -0.763708       -20.7816
  17   2.0000      -0.755577       -20.5603
  18   2.0000      -0.607954       -16.5433
  19   2.0000      -0.587121       -15.9764
  20   0.0000      -0.119254        -3.2451
  21   0.0000      -0.083997        -2.2857
  22   0.0000      -0.082181        -2.2363
  23   0.0000      -0.074027        -2.0144
  24   0.0000      -0.050861        -1.3840

MULLIKEN ATOMIC CHARGES
-----------------------
   0 N :    0.116155
   1 H :    0.204657
   2 C :   -0.006125
   3 H :    0.118327
   4 H :    0.143812
   5 C :    0.351700
   6 O :   -0.395737
   7 N :   -0.673957
   8 H :    0.251697
   9 H :    0.157277
  10 H :    0.355453
  11 H :    0.376742
Sum of atomic charges:    1.0000000

LOEWDIN ATOMIC CHARGES
----------------------
   0 N :    1.100772
   1 H :   -0.206349
   2 C :    0.361394
   3 H :   -0.124602
   4 H :   -0.125457
   5 C :   -0.520481
   6 O :    0.860745
   7 N :    0.700025
   8 H :   -0.420543
   9 H :   -0.397425
  10 H :   -0.119119
  11 H :   -0.108959

  Mayer bond orders larger than 0.100000
B(  0-N ,  1-H ) :   0.9745 B(  0-N ,  2-C ) :   0.8318 B(  0-N ,  3-H ) :   1.0530
B(  0-N ,  4-H ) :   0.9749 B(  2-C ,  5-C ) :   0.6323 B(  2-C , 10-H ) :   0.8954
B(  2-C , 11-H ) :   0.8668 B(  5-C ,  6-O ) :   0.9906 B(  5-C ,  7-N ) :   1.3436
B(  6-O ,  8-H ) :   0.9172 B(  7-N ,  9-H ) :   0.9671

MP2 TOTAL ENERGY:     -264.441437903 Eh
FINAL SINGLE POINT ENERGY      -264.441437903361

DIPOLE MOMENT
-------------
                                X             Y             Z
Electronic contribution:      1.55666       1.23208      -0.11778
Nuclear contribution   :     -4.46674      -1.67983      -0.07516
                        -----------------------------------------
Total Dipole Moment    :     -2.91007      -0.44776      -0.19293
                        -----------------------------------------
Magnitude (a.u.)       :      2.95063
Magnitude (Debye)      :      7.49991

Rotational constants in cm-1:     0.313269     0.131262     0.098888
Rotational constants in MHz :  9391.564532  3935.131421  2964.575321

                             ****ORCA TERMINATED NORMALLY****
TOTAL RUN TIME: 0 days 0 hours 0 minutes 50 seconds 78 msec
