                         Program Version 4.2.1 -  RELEASE  -
|  1> %pal
|  2>  nprocs 32
|  3> end
|  4> !RI-MP2 aug-cc-pVTZ aug-cc-pVTZ/C TightSCF
|  5> %maxcore 4500
|  6> *xyzfile 0 2  01_10P.xyz
|  7>
|  8>
|  9>                          ****END OF INPUT****

CARTESIAN COORDINATES (ANGSTROEM)
---------------------------------
  N     -0.254725    0.601302   -0.238062
  C     -1.044349   -0.455355    0.104983
  C     -0.162277   -1.690337    0.158865
  C      1.128822   -1.265313   -0.537360
  H     -0.667428   -2.533086   -0.309893
  H     -0.006642   -1.942967    1.210868
  C      1.161190    0.280141   -0.361715
  H      1.077288   -1.497493   -1.602659
  H      2.022447   -1.735797   -0.130440
  C      1.954023    0.735575    0.813547
  O     -2.233292   -0.402322    0.340484
  C     -0.742158    1.958527   -0.279253
  H     -1.822256    1.929412   -0.147214
  H     -0.507562    2.421962   -1.241218
  H     -0.299954    2.563650    0.517220
  H      3.021961    0.889453    0.726916
  H      1.496820    0.790877    1.793818
  H      1.563221    0.744024   -1.269235

 Total Charge           Charge          ....    0
 Multiplicity           Mult            ....    2
 Number of Electrons    NEL             ....   61
 Basis Dimension        Dim             ....  598

ORBITAL ENERGIES
----------------
                 SPIN UP ORBITALS
  NO   OCC          E(Eh)            E(eV)
   0   1.0000     -20.509710      -558.0976
   1   1.0000     -15.582224      -424.0139
   2   1.0000     -11.337796      -308.5171
   3   1.0000     -11.282564      -307.0142
   4   1.0000     -11.255213      -306.2699
   5   1.0000     -11.245530      -306.0064
   6   1.0000     -11.243028      -305.9383
   7   1.0000     -11.237130      -305.7779
   8   1.0000      -1.377203       -37.4756
   9   1.0000      -1.264592       -34.4113
  10   1.0000      -1.086571       -29.5671
  11   1.0000      -1.030898       -28.0522
  12   1.0000      -0.942785       -25.6545
  13   1.0000      -0.908811       -24.7300
  14   1.0000      -0.819957       -22.3122
  15   1.0000      -0.732293       -19.9267
  16   1.0000      -0.690856       -18.7992
  17   1.0000      -0.670957       -18.2577
  18   1.0000      -0.643067       -17.4987
  19   1.0000      -0.611350       -16.6357
  20   1.0000      -0.595268       -16.1981
  21   1.0000      -0.574375       -15.6295
  22   1.0000      -0.565676       -15.3928
  23   1.0000      -0.553794       -15.0695
  24   1.0000      -0.535924       -14.5832
  25   1.0000      -0.526717       -14.3327
  26   1.0000      -0.517207       -14.0739
  27   1.0000      -0.482203       -13.1214
  28   1.0000      -0.410156       -11.1609
  29   1.0000      -0.377839       -10.2815
  30   1.0000      -0.368052       -10.0152
  31   0.0000       0.024126         0.6565
  32   0.0000       0.033156         0.9022
  33   0.0000       0.034129         0.9287
  34   0.0000       0.039243         1.0679
  35   0.0000       0.051237         1.3942

                 SPIN DOWN ORBITALS
  NO   OCC          E(Eh)            E(eV)
   0   1.0000     -20.509744      -558.0985
   1   1.0000     -15.581698      -423.9995
   2   1.0000     -11.337822      -308.5178
   3   1.0000     -11.285815      -307.1026
   4   1.0000     -11.255147      -306.2681
   5   1.0000     -11.240477      -305.8689
   6   1.0000     -11.237204      -305.7799
   7   1.0000     -11.222112      -305.3692
   8   1.0000      -1.377124       -37.4735
   9   1.0000      -1.262715       -34.3602
  10   1.0000      -1.080555       -29.4034
  11   1.0000      -1.002849       -27.2889
  12   1.0000      -0.941749       -25.6263
  13   1.0000      -0.869927       -23.6719
  14   1.0000      -0.803813       -21.8729
  15   1.0000      -0.729417       -19.8484
  16   1.0000      -0.686522       -18.6812
  17   1.0000      -0.665323       -18.1044
  18   1.0000      -0.641588       -17.4585
  19   1.0000      -0.607507       -16.5311
  20   1.0000      -0.588875       -16.0241
  21   1.0000      -0.568906       -15.4807
  22   1.0000      -0.562115       -15.2959
  23   1.0000      -0.550342       -14.9756
  24   1.0000      -0.530706       -14.4412
  25   1.0000      -0.524649       -14.2764
  26   1.0000      -0.499789       -13.6000
  27   1.0000      -0.479562       -13.0495
  28   1.0000      -0.409493       -11.1429
  29   1.0000      -0.372538       -10.1373
  30   0.0000       0.024421         0.6645
  31   0.0000       0.032316         0.8794
  32   0.0000       0.033917         0.9229
  33   0.0000       0.039341         1.0705
  34   0.0000       0.050946         1.3863

MULLIKEN ATOMIC CHARGES AND SPIN POPULATIONS
--------------------------------------------
   0 N :    0.266123    0.017162
   1 C :    0.231586    0.000364
   2 C :   -0.231181   -0.001720
   3 C :   -0.600859    0.061283
   4 H :    0.318676    0.000619
   5 H :    0.199797    0.001036
   6 C :    0.315972   -0.198783
   7 H :    0.220728    0.006597
   8 H :    0.345677   -0.010313
   9 C :   -1.096385    1.253422
  10 O :   -0.913093   -0.000704
  11 C :   -1.092347    0.003734
  12 H :    0.409915   -0.000234
  13 H :    0.326084    0.000338
  14 H :    0.332385   -0.005101
  15 H :    0.372893   -0.077178
  16 H :    0.327946   -0.075600
  17 H :    0.266084    0.025080
Sum of atomic charges         :    0.0000000

LOEWDIN ATOMIC CHARGES AND SPIN POPULATIONS
-------------------------------------------
   0 N :    0.243506    0.006587
   1 C :   -0.661658    0.000102
   2 C :    0.315903    0.004857
   3 C :    0.317823    0.038412
   4 H :   -0.144816    0.000941
   5 H :   -0.139946    0.001046
   6 C :   -0.154405    0.113018
   7 H :   -0.141845    0.005883
   8 H :   -0.144642    0.008518
   9 C :    0.620913    0.560749
  10 O :    0.441022   -0.000710
  11 C :    0.501597    0.006476
  12 H :   -0.184194    0.000325
  13 H :   -0.156528    0.000138
  14 H :   -0.158807    0.005659
  15 H :   -0.212804    0.119098
  16 H :   -0.206114    0.119309
  17 H :   -0.135004    0.009591

  Mayer bond orders larger than 0.100000
B(  0-N ,  1-C ) :   1.0636 B(  0-N ,  6-C ) :   0.8954 B(  0-N , 10-O ) :  -0.1171
B(  0-N , 11-C ) :   0.9175 B(  1-C ,  2-C ) :   0.5109 B(  1-C ,  3-C ) :   0.1526
B(  1-C ,  6-C ) :  -0.1450 B(  1-C , 10-O ) :   1.2122 B(  2-C ,  3-C ) :   0.9981
B(  2-C ,  4-H ) :   0.9371 B(  2-C ,  5-H ) :   0.9751 B(  3-C ,  6-C ) :   0.9023
B(  3-C ,  7-H ) :   0.9930 B(  3-C ,  8-H ) :   0.9196 B(  6-C ,  9-C ) :   0.5898
B(  6-C , 17-H ) :   0.9606 B(  9-C , 15-H ) :   0.8311 B(  9-C , 16-H ) :   0.9733
B( 11-C , 12-H ) :   0.8381 B( 11-C , 13-H ) :   0.9383 B( 11-C , 14-H ) :   0.9460

MP2 TOTAL ENERGY:     -363.880574024 Eh
FINAL SINGLE POINT ENERGY      -363.880574024294

DIPOLE MOMENT
-------------
                                X             Y             Z
Electronic contribution:     -4.27995      -1.51434       0.13608
Nuclear contribution   :      5.96674       1.66220      -0.45749
                        -----------------------------------------
Total Dipole Moment    :      1.68679       0.14786      -0.32141
                        -----------------------------------------
Magnitude (a.u.)       :      1.72349
Magnitude (Debye)      :      4.38077

Rotational constants in cm-1:     0.094092     0.073332     0.047862
Rotational constants in MHz :  2820.810135  2198.443852  1434.871498

                             ****ORCA TERMINATED NORMALLY****
TOTAL RUN TIME: 0 days 0 hours 5 minutes 32 seconds 816 msec
