                         Program Version 4.2.1 -  RELEASE  -
|  1> %pal
|  2>  nprocs 32
|  3> end
|  4> !RI-MP2 aug-cc-pVTZ aug-cc-pVTZ/C TightSCF
|  5> %maxcore 4500
|  6> *xyzfile 0 1  04_71P2.xyz
|  7>
|  8>
|  9>                          ****END OF INPUT****

CARTESIAN COORDINATES (ANGSTROEM)
---------------------------------
  O      1.952760    0.092609   -0.135673
  H      2.397563   -0.740908   -0.330779
  O      0.733396   -0.072371   -0.873797
  C     -0.387436   -0.000028    0.033931
  C     -1.568395   -0.143869   -0.915318
  C     -0.396199    1.353279    0.731890
  C     -0.333656   -1.150164    1.031009
  H     -0.289252   -2.107596    0.507337
  H     -1.225727   -1.145003    1.660463
  H      0.538254   -1.060279    1.679207
  H     -0.417427    2.158163   -0.004595
  H      0.493416    1.472549    1.349782
  H     -1.276966    1.441883    1.371436
  H     -1.561171    0.655412   -1.657523
  H     -2.502238   -0.088963   -0.353309
  H     -1.531578   -1.102464   -1.435330

 Total Charge           Charge          ....    0
 Multiplicity           Mult            ....    1
 Number of Electrons    NEL             ....   50
 Basis Dimension        Dim             ....  506

ORBITAL ENERGIES
----------------

  NO   OCC          E(Eh)            E(eV)
   0   2.0000     -20.614563      -560.9508
   1   2.0000     -20.612172      -560.8857
   2   2.0000     -11.289721      -307.2089
   3   2.0000     -11.216958      -305.2289
   4   2.0000     -11.215571      -305.1912
   5   2.0000     -11.210235      -305.0460
   6   2.0000      -1.470990       -40.0277
   7   2.0000      -1.226067       -33.3630
   8   2.0000      -1.056044       -28.7364
   9   2.0000      -0.943476       -25.6733
  10   2.0000      -0.941390       -25.6165
  11   2.0000      -0.764920       -20.8145
  12   2.0000      -0.710862       -19.3435
  13   2.0000      -0.657558       -17.8931
  14   2.0000      -0.645853       -17.5746
  15   2.0000      -0.608982       -16.5712
  16   2.0000      -0.578814       -15.7503
  17   2.0000      -0.551611       -15.0101
  18   2.0000      -0.543372       -14.7859
  19   2.0000      -0.532868       -14.5001
  20   2.0000      -0.518370       -14.1056
  21   2.0000      -0.505714       -13.7612
  22   2.0000      -0.482820       -13.1382
  23   2.0000      -0.462135       -12.5753
  24   2.0000      -0.432865       -11.7788
  25   0.0000       0.029068         0.7910
  26   0.0000       0.035736         0.9724
  27   0.0000       0.038782         1.0553
  28   0.0000       0.041144         1.1196
  29   0.0000       0.056779         1.5450

MULLIKEN ATOMIC CHARGES
-----------------------
   0 O :   -0.353868
   1 H :    0.195665
   2 O :   -0.628824
   3 C :    1.675082
   4 C :   -1.088717
   5 C :   -1.135452
   6 C :   -1.190699
   7 H :    0.255683
   8 H :    0.257514
   9 H :    0.313642
  10 H :    0.264813
  11 H :    0.315792
  12 H :    0.268409
  13 H :    0.280670
  14 H :    0.296813
  15 H :    0.273478
Sum of atomic charges:   -0.0000000

LOEWDIN ATOMIC CHARGES
----------------------
   0 O :    0.590095
   1 H :   -0.538265
   2 O :    0.380948
   3 C :   -0.655817
   4 C :    0.565641
   5 C :    0.571563
   6 C :    0.569947
   7 H :   -0.162385
   8 H :   -0.160369
   9 H :   -0.176320
  10 H :   -0.160605
  11 H :   -0.179458
  12 H :   -0.160644
  13 H :   -0.162885
  14 H :   -0.158572
  15 H :   -0.162873

  Mayer bond orders larger than 0.100000
B(  0-O ,  1-H ) :   1.0020 B(  0-O ,  2-O ) :   0.8593 B(  0-O ,  3-C ) :  -0.1212
B(  2-O ,  3-C ) :   0.1374 B(  2-O ,  5-C ) :   0.1176 B(  2-O ,  6-C ) :   0.1247
B(  3-C ,  4-C ) :   0.4902 B(  3-C ,  5-C ) :   0.6881 B(  3-C ,  6-C ) :   0.6665
B(  4-C , 13-H ) :   0.9968 B(  4-C , 14-H ) :   0.9825 B(  4-C , 15-H ) :   1.0058
B(  5-C ,  6-C ) :   0.1240 B(  5-C , 10-H ) :   0.9978 B(  5-C , 11-H ) :   0.9509
B(  5-C , 12-H ) :   0.9694 B(  6-C ,  7-H ) :   1.0020 B(  6-C ,  8-H ) :   0.9899
B(  6-C ,  9-H ) :   0.9514

MP2 TOTAL ENERGY:     -308.252174583 Eh
FINAL SINGLE POINT ENERGY      -308.252174582823

DIPOLE MOMENT
-------------
                                X             Y             Z
Electronic contribution:      5.24757       0.04280      -2.55871
Nuclear contribution   :     -5.55655      -0.53858       2.88704
                        -----------------------------------------
Total Dipole Moment    :     -0.30898      -0.49577       0.32833
                        -----------------------------------------
Magnitude (a.u.)       :      0.67012
Magnitude (Debye)      :      1.70332

Rotational constants in cm-1:     0.149485     0.093063     0.092953
Rotational constants in MHz :  4481.451686  2789.971160  2786.647363

                             ****ORCA TERMINATED NORMALLY****
TOTAL RUN TIME: 0 days 0 hours 2 minutes 0 seconds 782 msec
