                         Program Version 4.2.1 -  RELEASE  -
|  1> %pal
|  2>  nprocs 32
|  3> end
|  4> !RI-MP2 aug-cc-pVTZ aug-cc-pVTZ/C TightSCF
|  5> %maxcore 4500
|  6> *xyzfile 0 1  02_28R.xyz
|  7>
|  8>
|  9>                          ****END OF INPUT****

CARTESIAN COORDINATES (ANGSTROEM)
---------------------------------
  C      1.106195   -2.749293   -0.741013
  C     -0.926828   -0.942901   -0.268226
  C      0.197715   -2.448768   -1.748367
  C      0.976090   -2.166921    0.511900
  C     -0.048741   -1.266842    0.752516
  C     -0.827920   -1.548740   -1.509967
  N     -1.972982    0.015557   -0.028809
  C     -3.186258   -0.581052    0.484615
  C     -1.800633    1.362942   -0.285220
  O     -2.695786    2.175058   -0.101205
  C     -0.495528    1.900518   -0.799448
  C      0.608047    1.235162   -1.018510
  C      1.780232    0.722453   -1.264415
  H      1.681905   -2.403068    1.298171
  H     -0.164243   -0.800942    1.722989
  C      2.855412    0.561133   -0.274419
  C      4.027834   -0.098090   -0.638579
  C      2.727947    1.029787    1.034128
  C      5.046702   -0.292966    0.282196
  H      4.135427   -0.469847   -1.651342
  C      3.744268    0.835166    1.953439
  H      1.821391    1.545294    1.328487
  C      4.907967    0.170613    1.582635
  H      5.950706   -0.809804   -0.016864
  H      3.630376    1.203385    2.966063
  H      5.701661    0.018243    2.303723
  O     -3.212788   -1.779208    0.667710
  N     -4.216536    0.241038    0.730189
  H     -4.092366    1.226635    0.534466
  C     -5.456677   -0.301841    1.244336
  H     -5.299483   -0.800315    2.202474
  H     -6.159580    0.518527    1.379409
  H     -5.884297   -1.029933    0.552583
  C     -0.523939    3.392519   -1.052318
  H     -1.288929    3.639085   -1.789932
  H     -0.777061    3.929813   -0.137618
  H      0.446455    3.728691   -1.412840
  H      1.967398    0.332146   -2.261014
  H     -1.545964   -1.301699   -2.281923
  H      0.287547   -2.919486   -2.719787
  H      1.912951   -3.446965   -0.930444

 Total Charge           Charge          ....    0
 Multiplicity           Mult            ....    1
 Number of Electrons    NEL             ....  162
 Basis Dimension        Dim             .... 1472

ORBITAL ENERGIES
----------------

  NO   OCC          E(Eh)            E(eV)
   0   2.0000     -20.545687      -559.0766
   1   2.0000     -20.512730      -558.1798
   2   2.0000     -15.618059      -424.9890
   3   2.0000     -15.571035      -423.7094
   4   2.0000     -11.384215      -309.7802
   5   2.0000     -11.379092      -309.6408
   6   2.0000     -11.278051      -306.8914
   7   2.0000     -11.273352      -306.7635
   8   2.0000     -11.267074      -306.5927
   9   2.0000     -11.256489      -306.3046
  10   2.0000     -11.255153      -306.2683
  11   2.0000     -11.253469      -306.2225
  12   2.0000     -11.242749      -305.9308
  13   2.0000     -11.242392      -305.9210
  14   2.0000     -11.241251      -305.8900
  15   2.0000     -11.240119      -305.8592
  16   2.0000     -11.239992      -305.8557
  17   2.0000     -11.239743      -305.8490
  18   2.0000     -11.238908      -305.8262
  19   2.0000     -11.237955      -305.8003
  20   2.0000     -11.237618      -305.7911
  21   2.0000     -11.236389      -305.7577
  22   2.0000     -11.228378      -305.5397
  23   2.0000      -1.422911       -38.7194
  24   2.0000      -1.392534       -37.8928
  25   2.0000      -1.263921       -34.3930
  26   2.0000      -1.226790       -33.3827
  27   2.0000      -1.172532       -31.9062
  28   2.0000      -1.152485       -31.3607
  29   2.0000      -1.121523       -30.5182
  30   2.0000      -1.063256       -28.9327
  31   2.0000      -1.026521       -27.9331
  32   2.0000      -1.025366       -27.9016
  33   2.0000      -1.018653       -27.7190
  34   2.0000      -0.989012       -26.9124
  35   2.0000      -0.957177       -26.0461
  36   2.0000      -0.918508       -24.9939
  37   2.0000      -0.868414       -23.6307
  38   2.0000      -0.842030       -22.9128
  39   2.0000      -0.840718       -22.8771
  40   2.0000      -0.834170       -22.6989
  41   2.0000      -0.820972       -22.3398
  42   2.0000      -0.792221       -21.5574
  43   2.0000      -0.755508       -20.5584
  44   2.0000      -0.732308       -19.9271
  45   2.0000      -0.718291       -19.5457
  46   2.0000      -0.685028       -18.6406
  47   2.0000      -0.679904       -18.5011
  48   2.0000      -0.665673       -18.1139
  49   2.0000      -0.653354       -17.7787
  50   2.0000      -0.650988       -17.7143
  51   2.0000      -0.633536       -17.2394
  52   2.0000      -0.624120       -16.9832
  53   2.0000      -0.619731       -16.8637
  54   2.0000      -0.613485       -16.6938
  55   2.0000      -0.606905       -16.5147
  56   2.0000      -0.596212       -16.2237
  57   2.0000      -0.595256       -16.1977
  58   2.0000      -0.591506       -16.0957
  59   2.0000      -0.588762       -16.0210
  60   2.0000      -0.580076       -15.7847
  61   2.0000      -0.563287       -15.3278
  62   2.0000      -0.549150       -14.9431
  63   2.0000      -0.544033       -14.8039
  64   2.0000      -0.533959       -14.5298
  65   2.0000      -0.531921       -14.4743
  66   2.0000      -0.520225       -14.1560
  67   2.0000      -0.513354       -13.9691
  68   2.0000      -0.506554       -13.7840
  69   2.0000      -0.505856       -13.7650
  70   2.0000      -0.500561       -13.6210
  71   2.0000      -0.465668       -12.6715
  72   2.0000      -0.444087       -12.0842
  73   2.0000      -0.418754       -11.3949
  74   2.0000      -0.414587       -11.2815
  75   2.0000      -0.390503       -10.6261
  76   2.0000      -0.382275       -10.4022
  77   2.0000      -0.353368        -9.6156
  78   2.0000      -0.349028        -9.4975
  79   2.0000      -0.339435        -9.2365
  80   2.0000      -0.304967        -8.2986
  81   0.0000       0.022308         0.6070
  82   0.0000       0.027044         0.7359
  83   0.0000       0.028522         0.7761
  84   0.0000       0.033548         0.9129
  85   0.0000       0.036492         0.9930

MULLIKEN ATOMIC CHARGES
-----------------------
   0 C :   -0.338242
   1 C :    1.499458
   2 C :   -0.489068
   3 C :   -0.415584
   4 C :   -0.775790
   5 C :   -0.746939
   6 N :    0.336537
   7 C :    0.102412
   8 C :    0.365765
   9 O :   -1.141473
  10 C :    1.232206
  11 C :    1.050129
  12 C :   -0.975812
  13 H :    0.398045
  14 H :    0.020833
  15 C :    1.442573
  16 C :   -1.064563
  17 C :   -0.170393
  18 C :   -0.648110
  19 H :    0.055111
  20 C :   -1.254540
  21 H :    0.258553
  22 C :   -0.027096
  23 H :    0.505208
  24 H :    0.395577
  25 H :    0.507698
  26 O :   -0.967703
  27 N :    0.057764
  28 H :    0.257108
  29 C :   -1.222120
  30 H :    0.354523
  31 H :    0.318502
  32 H :    0.354286
  33 C :   -1.268431
  34 H :    0.282507
  35 H :    0.300490
  36 H :    0.252094
  37 H :    0.060432
  38 H :    0.121917
  39 H :    0.513578
  40 H :    0.462559
Sum of atomic charges:    0.0000000

LOEWDIN ATOMIC CHARGES
----------------------
   0 C :    0.205199
   1 C :   -0.320133
   2 C :    0.209060
   3 C :    0.204148
   4 C :    0.218721
   5 C :    0.223363
   6 N :    0.283084
   7 C :   -0.763758
   8 C :   -0.587593
   9 O :    0.557061
  10 C :   -0.108318
  11 C :    0.141872
  12 C :    0.188645
  13 H :   -0.166792
  14 H :   -0.150177
  15 C :   -0.157776
  16 C :    0.207831
  17 C :    0.208629
  18 C :    0.200003
  19 H :   -0.173425
  20 C :    0.204027
  21 H :   -0.174628
  22 C :    0.196804
  23 H :   -0.180449
  24 H :   -0.179278
  25 H :   -0.182981
  26 O :    0.483671
  27 N :    0.544139
  28 H :   -0.472725
  29 C :    0.497775
  30 H :   -0.166344
  31 H :   -0.168660
  32 H :   -0.165882
  33 C :    0.547615
  34 H :   -0.169709
  35 H :   -0.172088
  36 H :   -0.176200
  37 H :   -0.178220
  38 H :   -0.155079
  39 H :   -0.176557
  40 H :   -0.174876

  Mayer bond orders larger than 0.100000
B(  0-C ,  1-C ) :  -0.2164 B(  0-C ,  2-C ) :   1.4400 B(  0-C ,  3-C ) :   1.4956
B(  0-C , 40-H ) :   0.7684 B(  1-C ,  2-C ) :   0.1458 B(  1-C ,  3-C ) :   0.2502
B(  1-C ,  4-C ) :   0.4885 B(  1-C ,  5-C ) :   0.4791 B(  1-C ,  6-N ) :   0.7964
B(  1-C ,  7-C ) :  -0.5909 B(  1-C ,  9-O ) :   0.3457 B(  1-C , 14-H ) :  -0.1292
B(  1-C , 38-H ) :  -0.1823 B(  2-C ,  3-C ) :  -0.2084 B(  2-C ,  4-C ) :   0.1171
B(  2-C ,  5-C ) :   1.1842 B(  2-C , 38-H ) :  -0.1850 B(  2-C , 39-H ) :   0.7646
B(  3-C ,  4-C ) :   1.1428 B(  3-C , 13-H ) :   1.0053 B(  3-C , 14-H ) :  -0.1781
B(  4-C ,  5-C ) :   0.3135 B(  4-C ,  6-N ) :  -0.1219 B(  4-C , 12-C ) :   0.1408
B(  4-C , 14-H ) :   1.4694 B(  5-C ,  6-N ) :  -0.2691 B(  5-C , 10-C ) :  -0.1747
B(  5-C , 11-C ) :   0.1077 B(  5-C , 38-H ) :   1.3906 B(  6-N ,  7-C ) :   0.9951
B(  6-N ,  8-C ) :   1.0157 B(  6-N ,  9-O ) :  -0.1006 B(  6-N , 10-C ) :   0.1402
B(  6-N , 11-C ) :  -0.1246 B(  6-N , 12-C ) :   0.1388 B(  6-N , 26-O ) :  -0.2480
B(  7-C ,  8-C ) :  -0.3759 B(  7-C , 26-O ) :   1.7020 B(  7-C , 27-N ) :   1.0259
B(  7-C , 29-C ) :  -0.1839 B(  8-C ,  9-O ) :   0.7474 B(  8-C , 10-C ) :  -0.3137
B(  8-C , 11-C ) :   0.3201 B(  8-C , 12-C ) :  -0.3041 B(  8-C , 37-H ) :   0.1029
B(  9-O , 10-C ) :  -0.2067 B(  9-O , 27-N ) :  -0.1722 B(  9-O , 28-H ) :   0.1086
B( 10-C , 11-C ) :   1.2895 B( 10-C , 15-C ) :   0.1346 B( 10-C , 17-C ) :  -0.1626
B( 10-C , 19-H ) :  -0.1004 B( 10-C , 21-H ) :  -0.1432 B( 10-C , 33-C ) :   0.2729
B( 11-C , 12-C ) :   0.7883 B( 11-C , 15-C ) :  -0.1312 B( 11-C , 17-C ) :   0.3105
B( 11-C , 20-C ) :  -0.1606 B( 11-C , 21-H ) :   0.1725 B( 11-C , 24-H ) :  -0.1280
B( 11-C , 25-H ) :   0.1239 B( 11-C , 33-C ) :   0.2094 B( 11-C , 37-H ) :  -0.2429
B( 12-C , 15-C ) :   0.7947 B( 12-C , 16-C ) :   0.5033 B( 12-C , 17-C ) :   0.1553
B( 12-C , 20-C ) :   0.1374 B( 12-C , 37-H ) :   1.3281 B( 15-C , 16-C ) :   0.1322
B( 15-C , 17-C ) :   0.9384 B( 15-C , 18-C ) :   0.2815 B( 15-C , 19-H ) :  -0.2302
B( 15-C , 20-C ) :   0.1302 B( 16-C , 17-C ) :  -0.5176 B( 16-C , 18-C ) :   1.3133
B( 16-C , 19-H ) :   1.6070 B( 16-C , 20-C ) :   0.1266 B( 16-C , 21-H ) :   0.1415
B( 16-C , 22-C ) :  -0.1533 B( 16-C , 25-H ) :   0.1222 B( 17-C , 19-H ) :   0.1439
B( 17-C , 20-C ) :   1.1612 B( 17-C , 21-H ) :   1.1140 B( 17-C , 22-C ) :  -0.1457
B( 18-C , 19-H ) :  -0.1646 B( 18-C , 20-C ) :   0.2480 B( 18-C , 22-C ) :   1.0363
B( 18-C , 23-H ) :   0.7528 B( 18-C , 25-H ) :  -0.1837 B( 20-C , 22-C ) :   1.0745
B( 20-C , 24-H ) :   0.8144 B( 20-C , 25-H ) :  -0.1759 B( 22-C , 25-H ) :   0.7292
B( 26-O , 27-N ) :  -0.2445 B( 27-N , 28-H ) :   0.8539 B( 27-N , 29-C ) :   0.9885
B( 29-C , 30-H ) :   0.9181 B( 29-C , 31-H ) :   0.9704 B( 29-C , 32-H ) :   0.9177
B( 33-C , 34-H ) :   1.0373 B( 33-C , 35-H ) :   1.0224 B( 33-C , 36-H ) :   1.0061

MP2 TOTAL ENERGY:     -992.876509201 Eh
FINAL SINGLE POINT ENERGY      -992.876509200796

DIPOLE MOMENT
-------------
                                X             Y             Z
Electronic contribution:     -1.02331      -1.78300      -1.41245
Nuclear contribution   :      2.17926       2.15253       1.09205
                        -----------------------------------------
Total Dipole Moment    :      1.15595       0.36953      -0.32040
                        -----------------------------------------
Magnitude (a.u.)       :      1.25516
Magnitude (Debye)      :      3.19036

Rotational constants in cm-1:     0.015802     0.005811     0.005071
Rotational constants in MHz :   473.738621   174.205515   152.014084

                             ****ORCA TERMINATED NORMALLY****
TOTAL RUN TIME: 0 days 1 hours 9 minutes 42 seconds 155 msec
