                         Program Version 4.2.1 -  RELEASE  -
|  1> %pal
|  2>  nprocs 32
|  3> end
|  4> !RI-MP2 aug-cc-pVTZ aug-cc-pVTZ/C TightSCF
|  5> %maxcore 4500
|  6> *xyzfile 0 2  04_4TS.xyz
|  7>
|  8>
|  9>                          ****END OF INPUT****

CARTESIAN COORDINATES (ANGSTROEM)
---------------------------------
  C     -1.577597    0.171599   -0.293843
  H     -2.611440    0.425027   -0.029407
  H     -1.534900    0.161820   -1.387508
  C     -0.643560    1.261683    0.241174
  H     -1.033735    2.235720   -0.066435
  C      1.563290   -0.073494    0.277998
  H      2.624336    0.014023    0.016478
  O      1.159308   -1.284082   -0.308387
  H     -0.671150    1.254174    1.337750
  H      1.507203   -0.129333    1.375017
  C      0.809589    1.152717   -0.226500
  C     -1.258011   -1.203285    0.235097
  H     -0.051414   -1.423467   -0.042088
  H     -1.774207   -2.026332   -0.257531
  H     -1.293345   -1.292341    1.321842
  H      0.849790    1.158234   -1.320755
  H      1.352130    2.039810    0.116181

 Total Charge           Charge          ....    0
 Multiplicity           Mult            ....    2
 Number of Electrons    NEL             ....   49
 Basis Dimension        Dim             ....  529

ORBITAL ENERGIES
----------------
                 SPIN UP ORBITALS
  NO   OCC          E(Eh)            E(eV)
   0   1.0000     -20.589744      -560.2754
   1   1.0000     -11.273041      -306.7550
   2   1.0000     -11.231540      -305.6257
   3   1.0000     -11.223665      -305.4114
   4   1.0000     -11.222902      -305.3907
   5   1.0000     -11.222516      -305.3802
   6   1.0000      -1.382287       -37.6139
   7   1.0000      -1.086664       -29.5696
   8   1.0000      -1.022243       -27.8166
   9   1.0000      -0.915987       -24.9253
  10   1.0000      -0.855186       -23.2708
  11   1.0000      -0.775473       -21.1017
  12   1.0000      -0.712674       -19.3928
  13   1.0000      -0.643990       -17.5239
  14   1.0000      -0.624992       -17.0069
  15   1.0000      -0.604474       -16.4486
  16   1.0000      -0.594425       -16.1751
  17   1.0000      -0.586215       -15.9517
  18   1.0000      -0.539939       -14.6925
  19   1.0000      -0.517993       -14.0953
  20   1.0000      -0.490567       -13.3490
  21   1.0000      -0.469290       -12.7700
  22   1.0000      -0.462276       -12.5792
  23   1.0000      -0.442435       -12.0393
  24   1.0000      -0.402113       -10.9420
  25   0.0000       0.029005         0.7893
  26   0.0000       0.035250         0.9592
  27   0.0000       0.037694         1.0257
  28   0.0000       0.039894         1.0856
  29   0.0000       0.052602         1.4314

                 SPIN DOWN ORBITALS
  NO   OCC          E(Eh)            E(eV)
   0   1.0000     -20.557733      -559.4044
   1   1.0000     -11.274711      -306.8005
   2   1.0000     -11.224287      -305.4284
   3   1.0000     -11.223184      -305.3984
   4   1.0000     -11.222306      -305.3745
   5   1.0000     -11.217066      -305.2319
   6   1.0000      -1.285734       -34.9866
   7   1.0000      -1.077694       -29.3255
   8   1.0000      -1.004869       -27.3439
   9   1.0000      -0.892799       -24.2943
  10   1.0000      -0.832314       -22.6484
  11   1.0000      -0.768713       -20.9177
  12   1.0000      -0.642433       -17.4815
  13   1.0000      -0.632389       -17.2082
  14   1.0000      -0.616981       -16.7889
  15   1.0000      -0.582087       -15.8394
  16   1.0000      -0.576056       -15.6753
  17   1.0000      -0.553125       -15.0513
  18   1.0000      -0.511808       -13.9270
  19   1.0000      -0.498135       -13.5549
  20   1.0000      -0.480298       -13.0696
  21   1.0000      -0.467239       -12.7142
  22   1.0000      -0.429157       -11.6779
  23   1.0000      -0.420660       -11.4467
  24   0.0000       0.029074         0.7911
  25   0.0000       0.035314         0.9609
  26   0.0000       0.037675         1.0252
  27   0.0000       0.039983         1.0880
  28   0.0000       0.052169         1.4196

MULLIKEN ATOMIC CHARGES AND SPIN POPULATIONS
--------------------------------------------
   0 C :   -0.427226   -0.089705
   1 H :    0.268449    0.031256
   2 H :    0.234969    0.000772
   3 C :   -0.395093    0.019557
   4 H :    0.251372   -0.001314
   5 C :   -0.192670   -0.101649
   6 H :    0.330103    0.048897
   7 O :   -0.638083    0.787915
   8 H :    0.223905    0.000050
   9 H :    0.238257    0.001305
  10 C :   -0.525842    0.021286
  11 C :   -0.727428    0.720139
  12 H :    0.312469   -0.411363
  13 H :    0.273907    0.000759
  14 H :    0.268978   -0.023597
  15 H :    0.240983   -0.000089
  16 H :    0.262948   -0.004218
Sum of atomic charges         :    0.0000000

LOEWDIN ATOMIC CHARGES AND SPIN POPULATIONS
-------------------------------------------
   0 C :    0.267519    0.031202
   1 H :   -0.146315    0.011986
   2 H :   -0.144034   -0.000143
   3 C :    0.276980    0.000695
   4 H :   -0.146559    0.000370
   5 C :    0.004890    0.034483
   6 H :   -0.162157    0.017781
   7 O :    0.716361    0.547958
   8 H :   -0.143840   -0.000045
   9 H :   -0.152197   -0.002809
  10 C :    0.278499   -0.001996
  11 C :    0.570166    0.228791
  12 H :   -0.626417    0.063060
  13 H :   -0.149959    0.036787
  14 H :   -0.149286    0.033120
  15 H :   -0.144794   -0.000668
  16 H :   -0.148856   -0.000571

  Mayer bond orders larger than 0.100000
B(  0-C ,  1-H ) :   0.9547 B(  0-C ,  2-H ) :   0.9646 B(  0-C ,  3-C ) :   0.8834
B(  0-C , 11-C ) :   0.8974 B(  3-C ,  4-H ) :   0.9730 B(  3-C ,  8-H ) :   0.9777
B(  3-C , 10-C ) :   0.8468 B(  5-C ,  6-H ) :   0.9087 B(  5-C ,  7-O ) :   0.7078
B(  5-C ,  9-H ) :   0.9931 B(  5-C , 10-C ) :   0.9520 B(  7-O , 12-H ) :   0.2264
B( 10-C , 15-H ) :   0.9578 B( 10-C , 16-H ) :   0.9539 B( 11-C , 12-H ) :   0.4218
B( 11-C , 13-H ) :   0.9964 B( 11-C , 14-H ) :   0.9766

MP2 TOTAL ENERGY:     -271.729061959 Eh
FINAL SINGLE POINT ENERGY      -271.729061958871

DIPOLE MOMENT
-------------
                                X             Y             Z
Electronic contribution:      2.51251      -1.91147      -0.84686
Nuclear contribution   :     -2.76520       2.53143       1.11801
                        -----------------------------------------
Total Dipole Moment    :     -0.25269       0.61996       0.27115
                        -----------------------------------------
Magnitude (a.u.)       :      0.72231
Magnitude (Debye)      :      1.83595

Rotational constants in cm-1:     0.148250     0.108677     0.070397
Rotational constants in MHz :  4444.434484  3258.058298  2110.445911

                             ****ORCA TERMINATED NORMALLY****
TOTAL RUN TIME: 0 days 0 hours 5 minutes 36 seconds 32 msec
