                         Program Version 4.2.1 -  RELEASE  -
|  1> %pal
|  2>  nprocs 32
|  3> end
|  4> !RI-MP2 aug-cc-pVTZ aug-cc-pVTZ/C TightSCF
|  5> %maxcore 4500
|  6> *xyzfile 0 1  10_90R.xyz
|  7>
|  8>
|  9>                          ****END OF INPUT****

CARTESIAN COORDINATES (ANGSTROEM)
---------------------------------
  C      0.214505   -2.142936   -0.144175
  C     -1.156470   -2.083306   -0.130873
  C     -1.833493   -0.856593   -0.054683
  C     -1.053235    0.296788    0.001811
  C      0.335458    0.263054   -0.013644
  C      0.974919   -0.964059   -0.083309
  C     -3.274098   -0.709947   -0.032825
  C     -2.981591    1.726383    0.096623
  C     -3.798578    0.528323    0.039495
  O     -1.613706    1.532676    0.073665
  O     -3.385427    2.853576    0.161767
  O      2.312244   -1.157162   -0.119518
  C      3.289647   -0.116136    0.136710
  C      3.192099    0.952962   -0.925262
  C      3.373446    2.251829   -0.748882
  C      3.162275    0.385734    1.569529
  C      4.612958   -0.856479   -0.044858
  C     -4.148899   -1.923937   -0.090735
  H      0.738722   -3.087438   -0.200409
  H     -1.724740   -3.003269   -0.177407
  H     -4.866007    0.699974    0.059032
  H      3.193588   -0.466211    2.249746
  H      3.998569    1.042336    1.811568
  H      2.237322    0.932529    1.744134
  H      4.690841   -1.249078   -1.059284
  H      5.448034   -0.178847    0.134161
  H      4.668496   -1.691605    0.655070
  H     -3.964715   -2.491829   -1.005869
  H     -3.946344   -2.588968    0.752239
  H     -5.201291   -1.645889   -0.064478
  H      3.006892    0.563083   -1.923021
  H      3.557208    2.685612    0.227055
  H      3.337637    2.937156   -1.586405
  H      0.867249    1.199639    0.007022

 Total Charge           Charge          ....    0
 Multiplicity           Mult            ....    1
 Number of Electrons    NEL             ....  130
 Basis Dimension        Dim             .... 1196

ORBITAL ENERGIES
----------------

  NO   OCC          E(Eh)            E(eV)
   0   2.0000     -20.620002      -561.0988
   1   2.0000     -20.592315      -560.3454
   2   2.0000     -20.529173      -558.6272
   3   2.0000     -11.377228      -309.5901
   4   2.0000     -11.325444      -308.1810
   5   2.0000     -11.321564      -308.0754
   6   2.0000     -11.315354      -307.9064
   7   2.0000     -11.285241      -307.0870
   8   2.0000     -11.259652      -306.3907
   9   2.0000     -11.246484      -306.0324
  10   2.0000     -11.246366      -306.0292
  11   2.0000     -11.245175      -305.9968
  12   2.0000     -11.237000      -305.7743
  13   2.0000     -11.235357      -305.7296
  14   2.0000     -11.234430      -305.7044
  15   2.0000     -11.234218      -305.6986
  16   2.0000     -11.228816      -305.5516
  17   2.0000     -11.227280      -305.5098
  18   2.0000      -1.471479       -40.0410
  19   2.0000      -1.422367       -38.7046
  20   2.0000      -1.367538       -37.2126
  21   2.0000      -1.178922       -32.0801
  22   2.0000      -1.132489       -30.8166
  23   2.0000      -1.109325       -30.1863
  24   2.0000      -1.037534       -28.2327
  25   2.0000      -1.032587       -28.0981
  26   2.0000      -1.005467       -27.3601
  27   2.0000      -0.991142       -26.9703
  28   2.0000      -0.956472       -26.0269
  29   2.0000      -0.885672       -24.1004
  30   2.0000      -0.882511       -24.0144
  31   2.0000      -0.843017       -22.9397
  32   2.0000      -0.828038       -22.5321
  33   2.0000      -0.783614       -21.3232
  34   2.0000      -0.734418       -19.9845
  35   2.0000      -0.730131       -19.8679
  36   2.0000      -0.705982       -19.2107
  37   2.0000      -0.694720       -18.9043
  38   2.0000      -0.662501       -18.0276
  39   2.0000      -0.656380       -17.8610
  40   2.0000      -0.647280       -17.6134
  41   2.0000      -0.637724       -17.3534
  42   2.0000      -0.628772       -17.1098
  43   2.0000      -0.610849       -16.6221
  44   2.0000      -0.605155       -16.4671
  45   2.0000      -0.597814       -16.2673
  46   2.0000      -0.594538       -16.1782
  47   2.0000      -0.592860       -16.1325
  48   2.0000      -0.572327       -15.5738
  49   2.0000      -0.563340       -15.3293
  50   2.0000      -0.559280       -15.2188
  51   2.0000      -0.553694       -15.0668
  52   2.0000      -0.544540       -14.8177
  53   2.0000      -0.535417       -14.5694
  54   2.0000      -0.523678       -14.2500
  55   2.0000      -0.522166       -14.2089
  56   2.0000      -0.501715       -13.6524
  57   2.0000      -0.493145       -13.4191
  58   2.0000      -0.482597       -13.1321
  59   2.0000      -0.470243       -12.7960
  60   2.0000      -0.442511       -12.0413
  61   2.0000      -0.404502       -11.0070
  62   2.0000      -0.382191       -10.3999
  63   2.0000      -0.345305        -9.3962
  64   2.0000      -0.304616        -8.2890
  65   0.0000       0.021574         0.5871
  66   0.0000       0.025600         0.6966
  67   0.0000       0.031721         0.8632
  68   0.0000       0.032574         0.8864
  69   0.0000       0.037844         1.0298

MULLIKEN ATOMIC CHARGES
-----------------------
   0 C :   -1.021385
   1 C :   -0.793198
   2 C :    1.822979
   3 C :    0.097040
   4 C :   -0.586734
   5 C :    1.351704
   6 C :    0.762807
   7 C :    0.639068
   8 C :   -0.563507
   9 O :   -0.892056
  10 O :   -1.059078
  11 O :   -1.213631
  12 C :    2.104898
  13 C :   -0.139762
  14 C :   -1.110311
  15 C :   -1.330176
  16 C :   -1.333218
  17 C :   -0.955606
  18 H :    0.513256
  19 H :   -0.256911
  20 H :    0.278118
  21 H :    0.233474
  22 H :    0.237516
  23 H :    0.422967
  24 H :    0.276839
  25 H :    0.302651
  26 H :    0.238728
  27 H :    0.262996
  28 H :    0.257831
  29 H :    0.271905
  30 H :   -0.035964
  31 H :    0.142663
  32 H :    0.510712
  33 H :    0.563384
Sum of atomic charges:   -0.0000000

LOEWDIN ATOMIC CHARGES
----------------------
   0 C :    0.230315
   1 C :    0.217189
   2 C :   -0.100053
   3 C :   -0.348024
   4 C :    0.244143
   5 C :   -0.368679
   6 C :   -0.107353
   7 C :   -0.800989
   8 C :    0.229354
   9 O :    0.615346
  10 O :    0.429296
  11 O :    0.627238
  12 C :   -0.572212
  13 C :    0.178288
  14 C :    0.548415
  15 C :    0.587009
  16 C :    0.583687
  17 C :    0.592653
  18 H :   -0.179929
  19 H :   -0.177911
  20 H :   -0.190598
  21 H :   -0.148712
  22 H :   -0.160419
  23 H :   -0.175695
  24 H :   -0.157895
  25 H :   -0.156031
  26 H :   -0.157376
  27 H :   -0.156212
  28 H :   -0.156247
  29 H :   -0.168885
  30 H :   -0.162127
  31 H :   -0.212165
  32 H :   -0.209274
  33 H :   -0.216147

  Mayer bond orders larger than 0.100000
B(  0-C ,  1-C ) :   1.2571 B(  0-C ,  3-C ) :   0.4492 B(  0-C ,  5-C ) :   0.5644
B(  0-C ,  6-C ) :   0.2283 B(  0-C , 18-H ) :   0.5846 B(  0-C , 19-H ) :  -0.1331
B(  0-C , 33-H ) :   0.1087 B(  1-C ,  2-C ) :   0.2968 B(  1-C ,  3-C ) :  -0.8063
B(  1-C ,  5-C ) :  -0.1661 B(  1-C ,  6-C ) :   0.6695 B(  1-C ,  7-C ) :  -0.1181
B(  1-C , 17-C ) :  -0.1198 B(  1-C , 19-H ) :   2.4949 B(  1-C , 33-H ) :  -0.1147
B(  2-C ,  3-C ) :   0.6134 B(  2-C ,  5-C ) :  -0.1603 B(  2-C ,  7-C ) :  -0.6550
B(  2-C ,  8-C ) :   0.2032 B(  2-C ,  9-O ) :  -0.2909 B(  2-C , 17-C ) :   0.2265
B(  2-C , 18-H ) :  -0.1819 B(  2-C , 19-H ) :  -0.3243 B(  2-C , 33-H ) :  -0.1270
B(  3-C ,  4-C ) :   0.5794 B(  3-C ,  5-C ) :   0.4259 B(  3-C ,  6-C ) :   0.3375
B(  3-C ,  7-C ) :   0.4862 B(  3-C , 12-C ) :   0.1095 B(  4-C ,  5-C ) :   0.6549
B(  4-C ,  6-C ) :  -0.1610 B(  4-C ,  7-C ) :   0.1847 B(  4-C ,  9-O ) :   0.7183
B(  4-C , 10-O ) :   0.1209 B(  4-C , 11-O ) :  -0.4173 B(  4-C , 12-C ) :  -0.1110
B(  4-C , 15-C ) :  -0.1149 B(  4-C , 30-H ) :   0.1191 B(  4-C , 33-H ) :   0.9459
B(  5-C , 11-O ) :   0.6476 B(  5-C , 13-C ) :  -0.1419 B(  5-C , 19-H ) :  -0.1003
B(  5-C , 30-H ) :  -0.1190 B(  6-C ,  7-C ) :   0.1544 B(  6-C ,  8-C ) :   1.2315
B(  6-C , 17-C ) :   0.5181 B(  6-C , 18-H ) :   0.2467 B(  6-C , 19-H ) :  -0.3756
B(  6-C , 27-H ) :  -0.1008 B(  6-C , 33-H ) :   0.1318 B(  7-C ,  8-C ) :   0.8227
B(  7-C ,  9-O ) :   1.4038 B(  7-C , 10-O ) :   0.9226 B(  8-C ,  9-O ) :  -0.1297
B(  8-C , 10-O ) :  -0.1357 B(  8-C , 17-C ) :  -0.1089 B(  8-C , 20-H ) :   0.9058
B(  9-O , 10-O ) :  -0.1012 B( 10-O , 20-H ) :   0.1422 B( 11-O , 12-C ) :  -0.1042
B( 11-O , 13-C ) :   0.2196 B( 11-O , 15-C ) :   0.1598 B( 11-O , 18-H ) :  -0.1032
B( 12-C , 13-C ) :   0.7725 B( 12-C , 15-C ) :   0.3881 B( 12-C , 24-H ) :  -0.1097
B( 12-C , 25-H ) :  -0.1108 B( 12-C , 26-H ) :  -0.1037 B( 12-C , 30-H ) :  -0.1112
B( 13-C , 14-C ) :   1.1148 B( 13-C , 15-C ) :   0.2126 B( 13-C , 30-H ) :   1.2889
B( 13-C , 31-H ) :  -0.1418 B( 14-C , 31-H ) :   1.4210 B( 14-C , 32-H ) :   0.5268
B( 15-C , 21-H ) :   1.1006 B( 15-C , 22-H ) :   1.0666 B( 15-C , 23-H ) :   0.9019
B( 16-C , 24-H ) :   1.0912 B( 16-C , 25-H ) :   1.0403 B( 16-C , 26-H ) :   1.1067
B( 17-C , 27-H ) :   1.0562 B( 17-C , 28-H ) :   1.0604 B( 17-C , 29-H ) :   0.9775
B( 30-H , 31-H ) :   0.1059

MP2 TOTAL ENERGY:     -805.358500154 Eh
FINAL SINGLE POINT ENERGY      -805.358500154476

DIPOLE MOMENT
-------------
                                X             Y             Z
Electronic contribution:    -14.99987       4.45765      -1.59999
Nuclear contribution   :     15.98990      -6.28828       1.62405
                        -----------------------------------------
Total Dipole Moment    :      0.99003      -1.83063       0.02406
                        -----------------------------------------
Magnitude (a.u.)       :      2.08133
Magnitude (Debye)      :      5.29033

Rotational constants in cm-1:     0.027269     0.008147     0.006615
Rotational constants in MHz :   817.493263   244.255066   198.308238

                             ****ORCA TERMINATED NORMALLY****
TOTAL RUN TIME: 0 days 0 hours 36 minutes 14 seconds 665 msec
