                         Program Version 4.2.1 -  RELEASE  -
|  1> %pal
|  2>  nprocs 32
|  3> end
|  4> !RI-MP2 aug-cc-pVTZ aug-cc-pVTZ/C TightSCF
|  5> %maxcore 4500
|  6> *xyzfile 0 1  02_8TS.xyz
|  7>
|  8>
|  9>                          ****END OF INPUT****

CARTESIAN COORDINATES (ANGSTROEM)
---------------------------------
  C      2.122964    0.519120   -1.910335
  C      0.891906    1.174468   -2.110603
  C      0.431781    2.166710   -1.308421
  C      0.774900    0.277508    0.820338
  C      2.071058   -0.255281    0.612826
  C      2.957386    0.739354   -0.821943
  C      2.323412   -1.731881    0.342500
  C      3.814954   -2.032438    0.178495
  C      4.379545    0.214421   -0.817530
  C      4.480674   -1.298518   -0.977886
  C      1.764667   -2.548357    1.512539
  C     -0.903097    2.804393   -1.460879
  C      0.699746    1.449067    1.671230
  C     -1.717381    0.206732    0.698969
  C     -1.722928    1.224296    1.581354
  N     -0.582183    1.836547    2.031172
  O      1.663534    2.095011    2.072773
  C     -0.417511   -0.324345    0.241620
  O     -0.344518   -1.229271   -0.591807
  C     -2.987208   -0.347279    0.184207
  C     -4.044578    0.501168   -0.147656
  C     -3.167958   -1.723316    0.029434
  C     -5.257745   -0.006045   -0.591542
  C     -4.378059   -2.229402   -0.416987
  C     -5.429456   -1.375542   -0.726400
  H      2.771489    0.162315    1.335763
  H      2.842364    1.687899   -0.306795
  H      1.096236    2.619962   -0.582544
  H      1.787003   -2.025626   -0.557882
  H      4.335302   -1.779494    1.111481
  H      3.933931   -3.111126    0.043654
  H      4.941823    0.721679   -1.607393
  H      4.850439    0.504035    0.126390
  H      5.534570   -1.582333   -1.037567
  H      4.027544   -1.612339   -1.924044
  H      2.218442   -2.239279    2.458749
  H      0.685075   -2.432659    1.595236
  H      1.983048   -3.608859    1.366277
  H     -1.403137    2.887768   -0.493514
  H     -0.789309    3.824565   -1.843109
  H     -1.547651    2.244378   -2.138593
  H      0.242121    0.792690   -2.890512
  H      2.369648   -0.281545   -2.599654
  H     -2.646334    1.627076    1.977863
  H     -0.634613    2.612275    2.673871
  H     -3.909935    1.574463   -0.076500
  H     -2.349237   -2.392423    0.251869
  H     -6.064406    0.671958   -0.844232
  H     -4.500976   -3.300429   -0.526434
  H     -6.372719   -1.775689   -1.078283

 Total Charge           Charge          ....    0
 Multiplicity           Mult            ....    1
 Number of Electrons    NEL             ....  180
 Basis Dimension        Dim             .... 1725

ORBITAL ENERGIES
----------------

  NO   OCC          E(Eh)            E(eV)
   0   2.0000     -20.505126      -557.9728
   1   2.0000     -20.496264      -557.7317
   2   2.0000     -15.605022      -424.6342
   3   2.0000     -11.342807      -308.6535
   4   2.0000     -11.307453      -307.6914
   5   2.0000     -11.295805      -307.3745
   6   2.0000     -11.278036      -306.8910
   7   2.0000     -11.276930      -306.8609
   8   2.0000     -11.272771      -306.7477
   9   2.0000     -11.249861      -306.1243
  10   2.0000     -11.238590      -305.8176
  11   2.0000     -11.237860      -305.7977
  12   2.0000     -11.237304      -305.7826
  13   2.0000     -11.233979      -305.6921
  14   2.0000     -11.227313      -305.5107
  15   2.0000     -11.227266      -305.5094
  16   2.0000     -11.226071      -305.4769
  17   2.0000     -11.225458      -305.4602
  18   2.0000     -11.224457      -305.4330
  19   2.0000     -11.224242      -305.4272
  20   2.0000     -11.223060      -305.3950
  21   2.0000     -11.218924      -305.2824
  22   2.0000     -11.218480      -305.2704
  23   2.0000     -11.212156      -305.0983
  24   2.0000     -11.205708      -304.9228
  25   2.0000      -1.375574       -37.4313
  26   2.0000      -1.345598       -36.6156
  27   2.0000      -1.262410       -34.3519
  28   2.0000      -1.152619       -31.3644
  29   2.0000      -1.151955       -31.3463
  30   2.0000      -1.112735       -30.2791
  31   2.0000      -1.079617       -29.3779
  32   2.0000      -1.069156       -29.0932
  33   2.0000      -1.052147       -28.6304
  34   2.0000      -1.016813       -27.6689
  35   2.0000      -1.008022       -27.4297
  36   2.0000      -0.988354       -26.8945
  37   2.0000      -0.969191       -26.3730
  38   2.0000      -0.920678       -25.0529
  39   2.0000      -0.904696       -24.6180
  40   2.0000      -0.864601       -23.5270
  41   2.0000      -0.842381       -22.9223
  42   2.0000      -0.828187       -22.5361
  43   2.0000      -0.818846       -22.2819
  44   2.0000      -0.811120       -22.0717
  45   2.0000      -0.790729       -21.5168
  46   2.0000      -0.774356       -21.0713
  47   2.0000      -0.733708       -19.9652
  48   2.0000      -0.723821       -19.6962
  49   2.0000      -0.703158       -19.1339
  50   2.0000      -0.686879       -18.6909
  51   2.0000      -0.680729       -18.5236
  52   2.0000      -0.658879       -17.9290
  53   2.0000      -0.646948       -17.6044
  54   2.0000      -0.631235       -17.1768
  55   2.0000      -0.629402       -17.1269
  56   2.0000      -0.623107       -16.9556
  57   2.0000      -0.616993       -16.7892
  58   2.0000      -0.609486       -16.5849
  59   2.0000      -0.606360       -16.4999
  60   2.0000      -0.598803       -16.2943
  61   2.0000      -0.586579       -15.9616
  62   2.0000      -0.579108       -15.7583
  63   2.0000      -0.577842       -15.7239
  64   2.0000      -0.574417       -15.6307
  65   2.0000      -0.569983       -15.5100
  66   2.0000      -0.561518       -15.2797
  67   2.0000      -0.549785       -14.9604
  68   2.0000      -0.544854       -14.8262
  69   2.0000      -0.539305       -14.6752
  70   2.0000      -0.529426       -14.4064
  71   2.0000      -0.517151       -14.0724
  72   2.0000      -0.515421       -14.0253
  73   2.0000      -0.504189       -13.7197
  74   2.0000      -0.501905       -13.6575
  75   2.0000      -0.492524       -13.4023
  76   2.0000      -0.490155       -13.3378
  77   2.0000      -0.486235       -13.2311
  78   2.0000      -0.484430       -13.1820
  79   2.0000      -0.470967       -12.8157
  80   2.0000      -0.461734       -12.5644
  81   2.0000      -0.456236       -12.4148
  82   2.0000      -0.434868       -11.8334
  83   2.0000      -0.422262       -11.4903
  84   2.0000      -0.388730       -10.5779
  85   2.0000      -0.364831        -9.9276
  86   2.0000      -0.356277        -9.6948
  87   2.0000      -0.329105        -8.9554
  88   2.0000      -0.296857        -8.0779
  89   2.0000      -0.288197        -7.8423
  90   0.0000       0.021345         0.5808
  91   0.0000       0.023311         0.6343
  92   0.0000       0.027687         0.7534
  93   0.0000       0.030580         0.8321
  94   0.0000       0.032637         0.8881

MULLIKEN ATOMIC CHARGES
-----------------------
   0 C :   -0.650771
   1 C :   -0.515968
   2 C :    0.006783
   3 C :    0.746942
   4 C :   -0.083993
   5 C :    0.812513
   6 C :    0.483723
   7 C :   -0.997051
   8 C :   -0.883371
   9 C :   -0.537781
  10 C :   -1.610446
  11 C :   -0.876268
  12 C :   -0.269917
  13 C :    0.302460
  14 C :   -0.600388
  15 N :   -0.182186
  16 O :   -1.385163
  17 C :    2.869777
  18 O :   -1.888585
  19 C :    2.481159
  20 C :   -0.639578
  21 C :   -1.043013
  22 C :   -1.096905
  23 C :   -0.873701
  24 C :   -0.022938
  25 H :    0.180157
  26 H :    0.476300
  27 H :    0.258158
  28 H :    0.133423
  29 H :    0.109774
  30 H :    0.374540
  31 H :    0.343585
  32 H :    0.093713
  33 H :    0.356786
  34 H :    0.045793
  35 H :    0.186417
  36 H :    0.463952
  37 H :    0.157271
  38 H :    0.348614
  39 H :    0.272682
  40 H :    0.324677
  41 H :   -0.174035
  42 H :    0.461368
  43 H :    0.640375
  44 H :    0.046500
  45 H :   -0.159689
  46 H :    0.099563
  47 H :    0.427149
  48 H :    0.370756
  49 H :    0.616837
Sum of atomic charges:    0.0000000

LOEWDIN ATOMIC CHARGES
----------------------
   0 C :    0.268394
   1 C :    0.225482
   2 C :    0.245112
   3 C :   -0.113245
   4 C :    0.141126
   5 C :    0.144700
   6 C :   -0.014442
   7 C :    0.300886
   8 C :    0.306190
   9 C :    0.301029
  10 C :    0.608370
  11 C :    0.600077
  12 C :   -0.697323
  13 C :   -0.098790
  14 C :    0.131565
  15 N :    0.556478
  16 O :    0.458936
  17 C :   -0.577580
  18 O :    0.508611
  19 C :   -0.132336
  20 C :    0.200942
  21 C :    0.218872
  22 C :    0.194499
  23 C :    0.203189
  24 C :    0.189643
  25 H :   -0.173087
  26 H :   -0.179831
  27 H :   -0.187909
  28 H :   -0.181965
  29 H :   -0.129107
  30 H :   -0.133958
  31 H :   -0.132982
  32 H :   -0.134940
  33 H :   -0.134289
  34 H :   -0.146771
  35 H :   -0.148376
  36 H :   -0.175299
  37 H :   -0.154215
  38 H :   -0.190831
  39 H :   -0.153644
  40 H :   -0.159502
  41 H :   -0.167287
  42 H :   -0.144469
  43 H :   -0.144729
  44 H :   -0.261925
  45 H :   -0.186910
  46 H :   -0.195262
  47 H :   -0.184969
  48 H :   -0.182131
  49 H :   -0.185994

  Mayer bond orders larger than 0.100000
B(  0-C ,  1-C ) :   0.6140 B(  0-C ,  2-C ) :   0.4386 B(  0-C ,  4-C ) :   0.2588
B(  0-C ,  5-C ) :   1.1911 B(  0-C ,  8-C ) :  -0.2771 B(  0-C , 26-H ) :  -0.2199
B(  0-C , 41-H ) :  -0.2810 B(  0-C , 42-H ) :   0.7947 B(  1-C ,  2-C ) :   1.1866
B(  1-C ,  3-C ) :  -0.1042 B(  1-C ,  4-C ) :   0.1019 B(  1-C ,  5-C ) :  -0.2530
B(  1-C ,  8-C ) :   0.1064 B(  1-C , 12-C ) :   0.1224 B(  1-C , 41-H ) :   1.6515
B(  1-C , 42-H ) :  -0.2212 B(  2-C ,  4-C ) :   0.1726 B(  2-C ,  5-C ) :  -0.1238
B(  2-C , 11-C ) :   0.4508 B(  2-C , 16-O ) :   0.1457 B(  2-C , 26-H ) :  -0.1360
B(  2-C , 27-H ) :   1.2290 B(  3-C ,  5-C ) :  -0.3921 B(  3-C ,  6-C ) :   0.4233
B(  3-C , 10-C ) :  -0.1542 B(  3-C , 12-C ) :  -1.4570 B(  3-C , 13-C ) :   1.2904
B(  3-C , 15-N ) :  -0.6955 B(  3-C , 16-O ) :  -0.1498 B(  3-C , 17-C ) :   0.3676
B(  3-C , 18-O ) :   0.2292 B(  3-C , 19-C ) :  -0.1061 B(  3-C , 20-C ) :   0.1224
B(  3-C , 25-H ) :  -0.2617 B(  3-C , 26-H ) :  -0.1331 B(  3-C , 27-H ) :   0.1427
B(  3-C , 32-H ) :  -0.1129 B(  3-C , 45-H ) :  -0.1384 B(  4-C ,  5-C ) :   0.3302
B(  4-C ,  6-C ) :   0.9234 B(  4-C ,  8-C ) :   0.1612 B(  4-C , 10-C ) :   0.1581
B(  4-C , 12-C ) :   1.2367 B(  4-C , 13-C ) :  -0.2197 B(  4-C , 15-N ) :   0.2242
B(  4-C , 16-O ) :   0.2185 B(  4-C , 17-C ) :   0.4316 B(  4-C , 25-H ) :   0.9921
B(  4-C , 26-H ) :   0.1222 B(  4-C , 27-H ) :  -0.1163 B(  4-C , 28-H ) :   0.1687
B(  4-C , 29-H ) :  -0.1001 B(  5-C ,  6-C ) :   0.1527 B(  5-C ,  8-C ) :   0.7632
B(  5-C , 16-O ) :   0.1027 B(  5-C , 17-C ) :   0.1132 B(  5-C , 26-H ) :   0.7928
B(  5-C , 27-H ) :  -0.1299 B(  6-C ,  7-C ) :   0.5385 B(  6-C , 10-C ) :   0.3020
B(  6-C , 12-C ) :  -0.2684 B(  6-C , 25-H ) :  -0.1469 B(  6-C , 28-H ) :   1.1069
B(  6-C , 29-H ) :  -0.1137 B(  6-C , 35-H ) :  -0.1093 B(  7-C ,  8-C ) :   0.1005
B(  7-C ,  9-C ) :   0.9431 B(  7-C , 10-C ) :   0.1101 B(  7-C , 29-H ) :   1.2903
B(  7-C , 30-H ) :   0.8604 B(  8-C ,  9-C ) :   0.9789 B(  8-C , 26-H ) :  -0.2597
B(  8-C , 31-H ) :   0.9219 B(  8-C , 32-H ) :   1.1873 B(  9-C , 33-H ) :   0.8636
B(  9-C , 34-H ) :   1.1646 B( 10-C , 12-C ) :   0.1270 B( 10-C , 17-C ) :  -0.2253
B( 10-C , 35-H ) :   1.2012 B( 10-C , 36-H ) :   0.7893 B( 10-C , 37-H ) :   1.2017
B( 11-C , 13-C ) :  -0.1811 B( 11-C , 38-H ) :   0.9923 B( 11-C , 39-H ) :   0.9670
B( 11-C , 40-H ) :   1.0190 B( 12-C , 13-C ) :  -0.1982 B( 12-C , 14-C ) :  -0.1372
B( 12-C , 15-N ) :   1.7320 B( 12-C , 16-O ) :   0.2962 B( 12-C , 17-C ) :  -0.9143
B( 12-C , 18-O ) :  -0.1203 B( 12-C , 25-H ) :   0.1675 B( 12-C , 28-H ) :  -0.1737
B( 13-C , 14-C ) :   1.2907 B( 13-C , 15-N ) :  -0.1412 B( 13-C , 17-C ) :  -0.2314
B( 13-C , 18-O ) :   0.3010 B( 13-C , 19-C ) :  -0.4974 B( 13-C , 21-C ) :   0.8686
B( 13-C , 22-C ) :   0.1798 B( 13-C , 24-C ) :   0.2114 B( 13-C , 27-H ) :  -0.1386
B( 13-C , 28-H ) :   0.1572 B( 13-C , 45-H ) :  -0.5755 B( 13-C , 47-H ) :   0.1388
B( 14-C , 15-N ) :   0.9268 B( 14-C , 17-C ) :  -0.1675 B( 14-C , 19-C ) :  -0.2162
B( 14-C , 21-C ) :  -0.2407 B( 14-C , 22-C ) :  -0.1546 B( 14-C , 23-C ) :   0.1362
B( 14-C , 43-H ) :   0.4054 B( 14-C , 44-H ) :  -0.1186 B( 14-C , 45-H ) :   0.1287
B( 14-C , 47-H ) :  -0.1821 B( 14-C , 49-H ) :   0.1932 B( 15-N , 16-O ) :  -0.2606
B( 15-N , 17-C ) :  -0.1058 B( 15-N , 43-H ) :  -0.1449 B( 15-N , 44-H ) :   1.1570
B( 17-C , 18-O ) :  -0.4257 B( 17-C , 19-C ) :   0.6142 B( 17-C , 20-C ) :  -0.1141
B( 17-C , 21-C ) :   0.1770 B( 17-C , 22-C ) :   0.1131 B( 17-C , 24-C ) :  -0.1772
B( 17-C , 26-H ) :   0.1008 B( 17-C , 28-H ) :  -0.3072 B( 17-C , 45-H ) :   0.1993
B( 17-C , 46-H ) :   0.1807 B( 17-C , 48-H ) :  -0.1919 B( 18-O , 19-C ) :  -0.2201
B( 18-O , 28-H ) :   0.1143 B( 19-C , 20-C ) :   0.3993 B( 19-C , 23-C ) :  -0.2703
B( 19-C , 45-H ) :  -0.3068 B( 19-C , 46-H ) :  -0.2166 B( 20-C , 21-C ) :  -0.7221
B( 20-C , 22-C ) :   1.4191 B( 20-C , 24-C ) :  -0.2038 B( 20-C , 45-H ) :   2.0599
B( 20-C , 46-H ) :   0.1343 B( 21-C , 22-C ) :   0.1609 B( 21-C , 23-C ) :   1.3554
B( 21-C , 24-C ) :  -0.1012 B( 21-C , 45-H ) :   0.1612 B( 21-C , 46-H ) :   1.5432
B( 22-C , 23-C ) :   0.2652 B( 22-C , 24-C ) :   1.1970 B( 22-C , 46-H ) :  -0.1427
B( 22-C , 47-H ) :   0.7725 B( 22-C , 49-H ) :  -0.2520 B( 23-C , 24-C ) :   1.1404
B( 23-C , 46-H ) :  -0.1110 B( 23-C , 48-H ) :   0.8944 B( 23-C , 49-H ) :  -0.2038
B( 24-C , 45-H ) :  -0.1348 B( 24-C , 49-H ) :   0.5894 B( 45-H , 46-H ) :   0.2513

MP2 TOTAL ENERGY:    -1056.460787925 Eh
FINAL SINGLE POINT ENERGY     -1056.460787924725

DIPOLE MOMENT
-------------
                                X             Y             Z
Electronic contribution:    -13.42846       4.94841       4.94990
Nuclear contribution   :     13.52234      -4.21884      -5.57360
                        -----------------------------------------
Total Dipole Moment    :      0.09388       0.72958      -0.62371
                        -----------------------------------------
Magnitude (a.u.)       :      0.96442
Magnitude (Debye)      :      2.45136

Rotational constants in cm-1:     0.013196     0.005199     0.004752
Rotational constants in MHz :   395.603483   155.862749   142.475723

                             ****ORCA TERMINATED NORMALLY****
TOTAL RUN TIME: 0 days 2 hours 20 minutes 53 seconds 34 msec
