                         Program Version 4.2.1 -  RELEASE  -
|  1> %pal
|  2>  nprocs 32
|  3> end
|  4> !RI-MP2 aug-cc-pVTZ aug-cc-pVTZ/C TightSCF
|  5> %maxcore 4500
|  6> *xyzfile 0 1  02_21TS.xyz
|  7>
|  8>
|  9>                          ****END OF INPUT****

CARTESIAN COORDINATES (ANGSTROEM)
---------------------------------
  C      1.465811    1.056322    0.487723
  C      0.690934   -1.012736    0.633134
  C     -0.690934   -1.012736    0.633134
  C     -1.465811    1.056322    0.487723
  C      0.697246    1.619518   -0.509498
  C     -0.697246    1.619518   -0.509498
  C      1.630879   -1.322658   -0.491047
  H      1.153235   -1.170320    1.603255
  C      2.864654    0.622736    0.164180
  H      1.166637    1.142207    1.523634
  O      2.903908   -0.768518   -0.210718
  H      1.231577   -0.974177   -1.451726
  H      1.811728   -2.397635   -0.571601
  H      3.547449    0.731605    1.007742
  H      3.251737    1.211144   -0.673797
  C     -1.630879   -1.322658   -0.491047
  H     -1.153235   -1.170320    1.603255
  O     -2.903908   -0.768518   -0.210718
  H     -1.183751    1.826223   -1.458711
  H      1.183751    1.826223   -1.458711
  C     -2.864654    0.622736    0.164180
  H     -1.231577   -0.974177   -1.451726
  H     -1.811728   -2.397635   -0.571601
  H     -3.251737    1.211144   -0.673797
  H     -3.547449    0.731605    1.007742
  H     -1.166637    1.142207    1.523634

 Total Charge           Charge          ....    0
 Multiplicity           Mult            ....    1
 Number of Electrons    NEL             ....   90
 Basis Dimension        Dim             ....  874

ORBITAL ENERGIES
----------------

  NO   OCC          E(Eh)            E(eV)
   0   2.0000     -20.553684      -559.2942
   1   2.0000     -20.553684      -559.2942
   2   2.0000     -11.280482      -306.9575
   3   2.0000     -11.280482      -306.9575
   4   2.0000     -11.280283      -306.9521
   5   2.0000     -11.280278      -306.9520
   6   2.0000     -11.248263      -306.0808
   7   2.0000     -11.248245      -306.0803
   8   2.0000     -11.244214      -305.9706
   9   2.0000     -11.242902      -305.9349
  10   2.0000     -11.232774      -305.6593
  11   2.0000     -11.231580      -305.6268
  12   2.0000      -1.371487       -37.3201
  13   2.0000      -1.370658       -37.2975
  14   2.0000      -1.120640       -30.4942
  15   2.0000      -1.074926       -29.2502
  16   2.0000      -1.044935       -28.4341
  17   2.0000      -0.980522       -26.6814
  18   2.0000      -0.973188       -26.4818
  19   2.0000      -0.870671       -23.6922
  20   2.0000      -0.856977       -23.3195
  21   2.0000      -0.813704       -22.1420
  22   2.0000      -0.765660       -20.8347
  23   2.0000      -0.723268       -19.6811
  24   2.0000      -0.692069       -18.8322
  25   2.0000      -0.682703       -18.5773
  26   2.0000      -0.667086       -18.1523
  27   2.0000      -0.661165       -17.9912
  28   2.0000      -0.624306       -16.9882
  29   2.0000      -0.623251       -16.9595
  30   2.0000      -0.605084       -16.4652
  31   2.0000      -0.602425       -16.3928
  32   2.0000      -0.572709       -15.5842
  33   2.0000      -0.550115       -14.9694
  34   2.0000      -0.549456       -14.9515
  35   2.0000      -0.526770       -14.3341
  36   2.0000      -0.525813       -14.3081
  37   2.0000      -0.493517       -13.4293
  38   2.0000      -0.479697       -13.0532
  39   2.0000      -0.475040       -12.9265
  40   2.0000      -0.461120       -12.5477
  41   2.0000      -0.427710       -11.6386
  42   2.0000      -0.417281       -11.3548
  43   2.0000      -0.316753        -8.6193
  44   2.0000      -0.308237        -8.3876
  45   0.0000       0.026965         0.7337
  46   0.0000       0.031265         0.8508
  47   0.0000       0.032735         0.8908
  48   0.0000       0.035583         0.9683
  49   0.0000       0.045901         1.2490

MULLIKEN ATOMIC CHARGES
-----------------------
   0 C :   -0.023792
   1 C :   -0.380024
   2 C :   -0.380025
   3 C :   -0.023792
   4 C :   -0.565970
   5 C :   -0.565971
   6 C :   -0.151088
   7 H :    0.347752
   8 C :   -0.434663
   9 H :    0.500114
  10 O :   -0.784482
  11 H :    0.268424
  12 H :    0.388764
  13 H :    0.276167
  14 H :    0.268725
  15 C :   -0.151088
  16 H :    0.347752
  17 O :   -0.784482
  18 H :    0.290073
  19 H :    0.290073
  20 C :   -0.434663
  21 H :    0.268424
  22 H :    0.388764
  23 H :    0.268725
  24 H :    0.276167
  25 H :    0.500114
Sum of atomic charges:   -0.0000000

LOEWDIN ATOMIC CHARGES
----------------------
   0 C :    0.145234
   1 C :    0.163608
   2 C :    0.163608
   3 C :    0.145234
   4 C :    0.189888
   5 C :    0.189888
   6 C :    0.009663
   7 H :   -0.160997
   8 C :    0.057156
   9 H :   -0.171768
  10 O :    0.574891
  11 H :   -0.154550
  12 H :   -0.153542
  13 H :   -0.158379
  14 H :   -0.164736
  15 C :    0.009663
  16 H :   -0.160997
  17 O :    0.574891
  18 H :   -0.176469
  19 H :   -0.176469
  20 C :    0.057156
  21 H :   -0.154550
  22 H :   -0.153542
  23 H :   -0.164736
  24 H :   -0.158379
  25 H :   -0.171768

  Mayer bond orders larger than 0.100000
B(  0-C ,  1-C ) :   0.2317 B(  0-C ,  3-C ) :   0.1763 B(  0-C ,  4-C ) :   1.2019
B(  0-C ,  8-C ) :   1.1786 B(  0-C ,  9-H ) :   0.6706 B(  0-C , 19-H ) :  -0.1101
B(  1-C ,  2-C ) :   1.1411 B(  1-C ,  5-C ) :   0.1329 B(  1-C ,  6-C ) :   0.8640
B(  1-C ,  7-H ) :   0.9521 B(  1-C , 16-H ) :  -0.1421 B(  2-C ,  3-C ) :   0.2317
B(  2-C ,  4-C ) :   0.1329 B(  2-C ,  7-H ) :  -0.1421 B(  2-C , 15-C ) :   0.8640
B(  2-C , 16-H ) :   0.9521 B(  3-C ,  5-C ) :   1.2019 B(  3-C , 18-H ) :  -0.1101
B(  3-C , 20-C ) :   1.1786 B(  3-C , 25-H ) :   0.6706 B(  4-C ,  5-C ) :   0.9727
B(  4-C , 19-H ) :   0.8833 B(  5-C , 18-H ) :   0.8833 B(  6-C ,  8-C ) :   0.1077
B(  6-C , 10-O ) :   0.7433 B(  6-C , 11-H ) :   1.0473 B(  6-C , 12-H ) :   0.8732
B(  8-C , 10-O ) :   0.8635 B(  8-C , 13-H ) :   0.9969 B(  8-C , 14-H ) :   0.9818
B( 15-C , 17-O ) :   0.7433 B( 15-C , 20-C ) :   0.1077 B( 15-C , 21-H ) :   1.0473
B( 15-C , 22-H ) :   0.8732 B( 17-O , 20-C ) :   0.8635 B( 20-C , 23-H ) :   0.9818
B( 20-C , 24-H ) :   0.9969

MP2 TOTAL ENERGY:     -538.773343965 Eh
FINAL SINGLE POINT ENERGY      -538.773343965075

DIPOLE MOMENT
-------------
                                X             Y             Z
Electronic contribution:     -0.00000      -0.37839       0.28751
Nuclear contribution   :     -0.00000       0.72592      -0.04988
                        -----------------------------------------
Total Dipole Moment    :     -0.00000       0.34752       0.23763
                        -----------------------------------------
Magnitude (a.u.)       :      0.42100
Magnitude (Debye)      :      1.07010

Rotational constants in cm-1:     0.063422     0.023359     0.019058
Rotational constants in MHz :  1901.357160   700.276394   571.333147

                             ****ORCA TERMINATED NORMALLY****
TOTAL RUN TIME: 0 days 0 hours 14 minutes 10 seconds 502 msec
