                         Program Version 4.2.1 -  RELEASE  -
|  1> %pal
|  2>  nprocs 32
|  3> end
|  4> !RI-MP2 aug-cc-pVTZ aug-cc-pVTZ/C TightSCF
|  5> %maxcore 4500
|  6> *xyzfile 0 1  02_29TS.xyz
|  7>
|  8>
|  9>                          ****END OF INPUT****

CARTESIAN COORDINATES (ANGSTROEM)
---------------------------------
  C     -1.738383    1.264662    0.077693
  C     -1.806233   -1.224319   -0.052850
  C      0.217600   -0.697091   -0.509213
  H      0.074365   -1.143972   -1.488195
  C      0.231627    0.697811   -0.467355
  H      0.085309    1.201451   -1.418389
  N     -2.417464   -0.539508   -1.084079
  N     -2.386986    0.724936   -1.016582
  N     -1.881933   -0.677945    1.204993
  N     -1.846580    0.594381    1.272389
  C      1.099882    1.448755    0.510962
  H      1.213511    0.876479    1.431003
  H      0.640861    2.393532    0.797038
  C      0.988485   -1.557486    0.467107
  H      0.524336   -2.541919    0.508309
  H      0.919838   -1.150740    1.477219
  C      2.474085    1.766652   -0.093800
  H      2.349381    2.521807   -0.877215
  H      3.082058    2.235080    0.686906
  C      2.460134   -1.779958    0.086282
  H      2.511394   -2.116753   -0.955737
  H      2.821655   -2.617982    0.689710
  C      3.429475   -0.610397    0.275437
  H      4.437950   -1.009508    0.138619
  H      3.388607   -0.265842    1.315098
  C      3.237859    0.578938   -0.678434
  H      4.216351    0.946521   -0.998214
  H      2.742035    0.232261   -1.590816
  C     -1.886624   -2.717244   -0.144974
  C     -1.743565    2.761189    0.143404
  H     -1.164210    3.195915   -0.671686
  H     -1.353037    3.102455    1.099496
  H     -2.771444    3.113968    0.045517
  H     -1.515156   -3.176447    0.768347
  H     -1.328506   -3.091933   -1.003580
  H     -2.930605   -3.006488   -0.276036

 Total Charge           Charge          ....    0
 Multiplicity           Mult            ....    1
 Number of Electrons    NEL             ....  120
 Basis Dimension        Dim             .... 1196

ORBITAL ENERGIES
----------------

  NO   OCC          E(Eh)            E(eV)
   0   2.0000     -15.620519      -425.0559
   1   2.0000     -15.619329      -425.0235
   2   2.0000     -15.617232      -424.9665
   3   2.0000     -15.616114      -424.9361
   4   2.0000     -11.315990      -307.9238
   5   2.0000     -11.315229      -307.9030
   6   2.0000     -11.260961      -306.4263
   7   2.0000     -11.258774      -306.3668
   8   2.0000     -11.233384      -305.6759
   9   2.0000     -11.232264      -305.6455
  10   2.0000     -11.231245      -305.6177
  11   2.0000     -11.231204      -305.6166
  12   2.0000     -11.229779      -305.5778
  13   2.0000     -11.229019      -305.5571
  14   2.0000     -11.225098      -305.4504
  15   2.0000     -11.223707      -305.4126
  16   2.0000      -1.420819       -38.6625
  17   2.0000      -1.319843       -35.9148
  18   2.0000      -1.162583       -31.6355
  19   2.0000      -1.132263       -30.8104
  20   2.0000      -1.065795       -29.0017
  21   2.0000      -1.059672       -28.8352
  22   2.0000      -1.029246       -28.0072
  23   2.0000      -0.960136       -26.1266
  24   2.0000      -0.947008       -25.7694
  25   2.0000      -0.943936       -25.6858
  26   2.0000      -0.926106       -25.2006
  27   2.0000      -0.869530       -23.6611
  28   2.0000      -0.820588       -22.3293
  29   2.0000      -0.794392       -21.6165
  30   2.0000      -0.757776       -20.6201
  31   2.0000      -0.740948       -20.1622
  32   2.0000      -0.689819       -18.7709
  33   2.0000      -0.671599       -18.2751
  34   2.0000      -0.658158       -17.9094
  35   2.0000      -0.629080       -17.1181
  36   2.0000      -0.627959       -17.0876
  37   2.0000      -0.616803       -16.7841
  38   2.0000      -0.600893       -16.3511
  39   2.0000      -0.595301       -16.1990
  40   2.0000      -0.582682       -15.8556
  41   2.0000      -0.572230       -15.5712
  42   2.0000      -0.570218       -15.5164
  43   2.0000      -0.558913       -15.2088
  44   2.0000      -0.551315       -15.0020
  45   2.0000      -0.537285       -14.6203
  46   2.0000      -0.525911       -14.3108
  47   2.0000      -0.516357       -14.0508
  48   2.0000      -0.514658       -14.0046
  49   2.0000      -0.499990       -13.6054
  50   2.0000      -0.495493       -13.4830
  51   2.0000      -0.491989       -13.3877
  52   2.0000      -0.483120       -13.1464
  53   2.0000      -0.476179       -12.9575
  54   2.0000      -0.461514       -12.5584
  55   2.0000      -0.456647       -12.4260
  56   2.0000      -0.452143       -12.3034
  57   2.0000      -0.368252       -10.0206
  58   2.0000      -0.358496        -9.7552
  59   2.0000      -0.350039        -9.5250
  60   0.0000       0.023191         0.6311
  61   0.0000       0.026528         0.7219
  62   0.0000       0.031592         0.8597
  63   0.0000       0.032823         0.8932
  64   0.0000       0.039327         1.0701

MULLIKEN ATOMIC CHARGES
-----------------------
   0 C :    2.234225
   1 C :    2.264582
   2 C :   -0.134334
   3 H :    0.106423
   4 C :   -0.035296
   5 H :   -0.088908
   6 N :   -0.863338
   7 N :   -0.834518
   8 N :   -0.787903
   9 N :   -0.778787
  10 C :   -0.337749
  11 H :   -0.021609
  12 H :    0.495761
  13 C :   -0.165591
  14 H :    0.327222
  15 H :    0.050036
  16 C :   -0.531345
  17 H :    0.193760
  18 H :    0.158519
  19 C :   -0.546011
  20 H :    0.087608
  21 H :    0.254726
  22 C :   -0.457526
  23 H :    0.231319
  24 H :    0.083578
  25 C :   -0.454993
  26 H :    0.345869
  27 H :    0.072236
  28 C :   -1.230259
  29 C :   -1.261095
  30 H :    0.245760
  31 H :    0.275884
  32 H :    0.292861
  33 H :    0.280084
  34 H :    0.238275
  35 H :    0.290536
Sum of atomic charges:   -0.0000000

LOEWDIN ATOMIC CHARGES
----------------------
   0 C :   -0.566690
   1 C :   -0.564362
   2 C :    0.167088
   3 H :   -0.154458
   4 C :    0.151257
   5 H :   -0.153924
   6 N :    0.239412
   7 N :    0.238578
   8 N :    0.238782
   9 N :    0.242412
  10 C :    0.296340
  11 H :   -0.159185
  12 H :   -0.179714
  13 C :    0.296884
  14 H :   -0.185370
  15 H :   -0.149468
  16 C :    0.308938
  17 H :   -0.135920
  18 H :   -0.135455
  19 C :    0.314958
  20 H :   -0.137090
  21 H :   -0.140888
  22 C :    0.308424
  23 H :   -0.145781
  24 H :   -0.142021
  25 C :    0.302298
  26 H :   -0.142917
  27 H :   -0.150475
  28 C :    0.564845
  29 C :    0.565224
  30 H :   -0.160170
  31 H :   -0.176420
  32 H :   -0.158737
  33 H :   -0.176186
  34 H :   -0.161193
  35 H :   -0.159016

  Mayer bond orders larger than 0.100000
B(  0-C ,  4-C ) :   0.6317 B(  0-C ,  6-N ) :   0.2469 B(  0-C ,  7-N ) :  -0.1284
B(  0-C ,  8-N ) :   0.1985 B(  0-C , 10-C ) :  -0.1031 B(  0-C , 12-H ) :  -0.1121
B(  0-C , 29-C ) :  -0.1365 B(  0-C , 30-H ) :  -0.1192 B(  0-C , 31-H ) :  -0.1182
B(  0-C , 32-H ) :  -0.1052 B(  1-C ,  2-C ) :   0.4316 B(  1-C ,  6-N ) :  -0.1072
B(  1-C ,  7-N ) :   0.2144 B(  1-C ,  9-N ) :   0.1912 B(  1-C , 14-H ) :  -0.1033
B(  1-C , 34-H ) :  -0.1266 B(  1-C , 35-H ) :  -0.1035 B(  2-C ,  3-H ) :   0.9417
B(  2-C ,  4-C ) :   0.9919 B(  2-C ,  7-N ) :   0.1265 B(  2-C ,  8-N ) :   0.3675
B(  2-C , 10-C ) :   0.1604 B(  2-C , 13-C ) :   0.8113 B(  3-H ,  6-N ) :   0.1086
B(  3-H , 15-H ) :   0.1129 B(  4-C ,  5-H ) :   1.0044 B(  4-C ,  7-N ) :   0.1372
B(  4-C ,  9-N ) :   0.2563 B(  4-C , 10-C ) :   0.7181 B(  5-H , 11-H ) :   0.1382
B(  6-N ,  7-N ) :  -0.1811 B(  6-N ,  8-N ) :   0.2711 B(  6-N ,  9-N ) :   0.1589
B(  6-N , 28-C ) :   0.1454 B(  7-N ,  8-N ) :   0.1731 B(  7-N ,  9-N ) :   0.2714
B(  7-N , 29-C ) :   0.1652 B(  8-N ,  9-N ) :  -0.3278 B(  8-N , 28-C ) :   0.2075
B(  9-N , 29-C ) :   0.2053 B( 10-C , 11-H ) :   1.2425 B( 10-C , 12-H ) :   0.7329
B( 10-C , 16-C ) :   0.8296 B( 11-H , 16-C ) :   0.1434 B( 12-H , 16-C ) :  -0.1907
B( 13-C , 14-H ) :   0.8745 B( 13-C , 15-H ) :   1.1866 B( 13-C , 19-C ) :   0.8192
B( 14-H , 19-C ) :  -0.1167 B( 16-C , 17-H ) :   1.0850 B( 16-C , 18-H ) :   1.0894
B( 16-C , 25-C ) :   0.7780 B( 19-C , 20-H ) :   1.1610 B( 19-C , 21-H ) :   0.9935
B( 19-C , 22-C ) :   0.8282 B( 22-C , 23-H ) :   0.9791 B( 22-C , 24-H ) :   1.1687
B( 22-C , 25-C ) :   0.8768 B( 25-C , 26-H ) :   0.8916 B( 25-C , 27-H ) :   1.2011
B( 28-C , 33-H ) :   1.0486 B( 28-C , 34-H ) :   1.1520 B( 28-C , 35-H ) :   0.9905
B( 29-C , 30-H ) :   1.1359 B( 29-C , 31-H ) :   1.0587 B( 29-C , 32-H ) :   0.9965

MP2 TOTAL ENERGY:     -686.849216157 Eh
FINAL SINGLE POINT ENERGY      -686.849216156849

DIPOLE MOMENT
-------------
                                X             Y             Z
Electronic contribution:    -16.82343       0.27548       0.10325
Nuclear contribution   :     18.30467      -0.30843      -0.32774
                        -----------------------------------------
Total Dipole Moment    :      1.48125      -0.03294      -0.22448
                        -----------------------------------------
Magnitude (a.u.)       :      1.49852
Magnitude (Debye)      :      3.80894

Rotational constants in cm-1:     0.027882     0.015611     0.011566
Rotational constants in MHz :   835.894296   468.003230   346.725589

                             ****ORCA TERMINATED NORMALLY****
TOTAL RUN TIME: 0 days 0 hours 44 minutes 34 seconds 738 msec
