                         Program Version 4.2.1 -  RELEASE  -
|  1> %pal
|  2>  nprocs 32
|  3> end
|  4> !RI-MP2 aug-cc-pVTZ aug-cc-pVTZ/C TightSCF
|  5> %maxcore 4500
|  6> *xyzfile 0 2  04_85TS.xyz
|  7>
|  8>
|  9>                          ****END OF INPUT****

CARTESIAN COORDINATES (ANGSTROEM)
---------------------------------
  O      1.028531    0.092391   -1.009408
  C     -0.361465   -0.019441   -0.634614
  C     -0.372581   -0.610180    0.784327
  C      0.999977   -0.196964    1.312831
  C      1.856673   -0.358911    0.050573
  C     -1.085397   -0.830585   -1.667593
  H     -0.764232    0.999775   -0.602851
  H     -0.793789   -1.877447   -1.689629
  H     -1.096049   -0.372306   -2.654352
  O     -0.388002   -2.016289    0.810961
  O      1.436315   -0.941348    2.405918
  N      3.079229    0.394415    0.047877
  H      2.141925   -1.405199   -0.082728
  C      4.343069   -0.116356   -0.139740
  C      3.236538    1.757786    0.173896
  H      0.989871    0.854903    1.608898
  H     -1.190551   -0.201652    1.385183
  H     -1.310681   -2.323133    0.760507
  H      1.105404   -1.840998    2.274776
  O     -3.082490   -2.495518    0.610550
  C     -3.944150   -1.978183   -0.061072
  O     -5.206325   -2.382215    0.032155
  C     -3.700520   -0.860837   -1.037462
  C     -4.014513    0.535722   -0.535451
  H     -2.381465   -0.869485   -1.329133
  H     -4.163769   -1.078355   -1.999228
  C     -5.433446    0.670698    0.059495
  H     -3.900746    1.234773   -1.369343
  H     -3.302010    0.842024    0.232040
  C     -5.773146    2.136931    0.254144
  O     -4.938147    2.725942    1.123081
  N     -6.416268   -0.032089   -0.756957
  N      4.473949    2.148885    0.095242
  C      5.188017    0.982259   -0.099647
  C      6.555603    0.718102   -0.261252
  N      6.946597   -0.545295   -0.443026
  C      6.017561   -1.506702   -0.464534
  N      4.705873   -1.384781   -0.321270
  N      7.483113    1.697045   -0.243381
  H      7.208742    2.649672   -0.078109
  H      8.453236    1.450659   -0.335924
  H      6.392069   -2.513309   -0.618345
  H      2.387986    2.410969    0.306902
  H     -5.793346   -1.736124   -0.437089
  H     -5.433325    0.208863    1.051284
  H     -6.443104    0.356949   -1.695203
  H     -7.348200    0.099804   -0.376367
  H     -5.194669    3.655886    1.206283
  O     -6.667890    2.712844   -0.299554

 Total Charge           Charge          ....    0
 Multiplicity           Mult            ....    2
 Number of Electrons    NEL             ....  209
 Basis Dimension        Dim             .... 1771

ORBITAL ENERGIES
----------------
                 SPIN UP ORBITALS
  NO   OCC          E(Eh)            E(eV)
   0   1.0000     -20.649442      -561.8999
   1   1.0000     -20.613547      -560.9231
   2   1.0000     -20.587643      -560.2183
   3   1.0000     -20.572415      -559.8039
   4   1.0000     -20.565741      -559.6223
   5   1.0000     -20.558795      -559.4332
   6   1.0000     -20.557626      -559.4014
   7   1.0000     -15.615570      -424.9213
   8   1.0000     -15.606715      -424.6803
   9   1.0000     -15.574839      -423.8129
  10   1.0000     -15.556563      -423.3156
  11   1.0000     -15.543367      -422.9565
  12   1.0000     -15.537900      -422.8077
  13   1.0000     -11.419292      -310.7347
  14   1.0000     -11.405570      -310.3613
  15   1.0000     -11.327163      -308.2278
  16   1.0000     -11.325936      -308.1944
  17   1.0000     -11.325649      -308.1866
  18   1.0000     -11.308135      -307.7100
  19   1.0000     -11.302155      -307.5473
  20   1.0000     -11.300826      -307.5111
  21   1.0000     -11.297905      -307.4316
  22   1.0000     -11.294568      -307.3408
  23   1.0000     -11.291309      -307.2521
  24   1.0000     -11.287514      -307.1489
  25   1.0000     -11.286788      -307.1291
  26   1.0000     -11.252381      -306.1928
  27   1.0000     -11.237402      -305.7853
  28   1.0000      -1.507127       -41.0110
  29   1.0000      -1.479017       -40.2461
  30   1.0000      -1.418323       -38.5945
  31   1.0000      -1.404040       -38.2059
  32   1.0000      -1.384959       -37.6867
  33   1.0000      -1.379103       -37.5273
  34   1.0000      -1.359955       -37.0063
  35   1.0000      -1.352679       -36.8083
  36   1.0000      -1.293885       -35.2084
  37   1.0000      -1.256767       -34.1984
  38   1.0000      -1.240207       -33.7477
  39   1.0000      -1.190950       -32.4074
  40   1.0000      -1.147024       -31.2121
  41   1.0000      -1.120608       -30.4933
  42   1.0000      -1.068070       -29.0637
  43   1.0000      -1.040652       -28.3176
  44   1.0000      -1.027698       -27.9651
  45   1.0000      -1.021915       -27.8077
  46   1.0000      -0.950864       -25.8743
  47   1.0000      -0.919861       -25.0307
  48   1.0000      -0.886394       -24.1200
  49   1.0000      -0.868202       -23.6250
  50   1.0000      -0.855080       -23.2679
  51   1.0000      -0.849168       -23.1070
  52   1.0000      -0.836757       -22.7693
  53   1.0000      -0.817944       -22.2574
  54   1.0000      -0.787947       -21.4411
  55   1.0000      -0.767255       -20.8781
  56   1.0000      -0.759921       -20.6785
  57   1.0000      -0.748541       -20.3688
  58   1.0000      -0.744083       -20.2475
  59   1.0000      -0.737847       -20.0778
  60   1.0000      -0.731697       -19.9105
  61   1.0000      -0.723685       -19.6925
  62   1.0000      -0.703852       -19.1528
  63   1.0000      -0.696632       -18.9563
  64   1.0000      -0.691426       -18.8147
  65   1.0000      -0.676314       -18.4034
  66   1.0000      -0.671869       -18.2825
  67   1.0000      -0.660586       -17.9754
  68   1.0000      -0.657220       -17.8839
  69   1.0000      -0.655376       -17.8337
  70   1.0000      -0.650599       -17.7037
  71   1.0000      -0.640326       -17.4242
  72   1.0000      -0.632360       -17.2074
  73   1.0000      -0.630662       -17.1612
  74   1.0000      -0.621532       -16.9127
  75   1.0000      -0.610981       -16.6256
  76   1.0000      -0.608733       -16.5645
  77   1.0000      -0.597444       -16.2573
  78   1.0000      -0.591573       -16.0975
  79   1.0000      -0.587203       -15.9786
  80   1.0000      -0.575421       -15.6580
  81   1.0000      -0.571316       -15.5463
  82   1.0000      -0.564965       -15.3735
  83   1.0000      -0.552351       -15.0302
  84   1.0000      -0.549848       -14.9621
  85   1.0000      -0.544159       -14.8073
  86   1.0000      -0.543184       -14.7808
  87   1.0000      -0.529725       -14.4145
  88   1.0000      -0.521452       -14.1894
  89   1.0000      -0.505046       -13.7430
  90   1.0000      -0.494694       -13.4613
  91   1.0000      -0.493610       -13.4318
  92   1.0000      -0.489546       -13.3212
  93   1.0000      -0.483222       -13.1491
  94   1.0000      -0.475033       -12.9263
  95   1.0000      -0.467227       -12.7139
  96   1.0000      -0.465182       -12.6582
  97   1.0000      -0.443414       -12.0659
  98   1.0000      -0.437891       -11.9156
  99   1.0000      -0.434235       -11.8161
 100   1.0000      -0.401234       -10.9181
 101   1.0000      -0.398421       -10.8416
 102   1.0000      -0.363836        -9.9005
 103   1.0000      -0.353959        -9.6317
 104   1.0000      -0.299864        -8.1597
 105   0.0000       0.011101         0.3021
 106   0.0000       0.017819         0.4849
 107   0.0000       0.023129         0.6294
 108   0.0000       0.032943         0.8964
 109   0.0000       0.034791         0.9467

                 SPIN DOWN ORBITALS
  NO   OCC          E(Eh)            E(eV)
   0   1.0000     -20.649464      -561.9005
   1   1.0000     -20.612651      -560.8988
   2   1.0000     -20.587469      -560.2135
   3   1.0000     -20.570328      -559.7471
   4   1.0000     -20.565185      -559.6071
   5   1.0000     -20.558797      -559.4333
   6   1.0000     -20.557662      -559.4024
   7   1.0000     -15.615476      -424.9187
   8   1.0000     -15.606722      -424.6805
   9   1.0000     -15.574840      -423.8130
  10   1.0000     -15.556569      -423.3158
  11   1.0000     -15.543357      -422.9562
  12   1.0000     -15.537891      -422.8075
  13   1.0000     -11.419316      -310.7354
  14   1.0000     -11.407026      -310.4010
  15   1.0000     -11.327126      -308.2268
  16   1.0000     -11.325654      -308.1867
  17   1.0000     -11.324868      -308.1653
  18   1.0000     -11.308131      -307.7099
  19   1.0000     -11.302155      -307.5473
  20   1.0000     -11.302137      -307.5468
  21   1.0000     -11.297913      -307.4318
  22   1.0000     -11.294426      -307.3369
  23   1.0000     -11.291348      -307.2532
  24   1.0000     -11.288752      -307.1826
  25   1.0000     -11.267741      -306.6108
  26   1.0000     -11.237391      -305.7849
  27   1.0000     -11.234031      -305.6935
  28   1.0000      -1.507037       -41.0086
  29   1.0000      -1.476830       -40.1866
  30   1.0000      -1.415310       -38.5126
  31   1.0000      -1.403770       -38.1985
  32   1.0000      -1.383330       -37.6423
  33   1.0000      -1.377580       -37.4859
  34   1.0000      -1.359418       -36.9916
  35   1.0000      -1.352186       -36.7948
  36   1.0000      -1.293787       -35.2057
  37   1.0000      -1.255705       -34.1695
  38   1.0000      -1.240191       -33.7473
  39   1.0000      -1.190448       -32.3937
  40   1.0000      -1.146887       -31.2084
  41   1.0000      -1.101871       -29.9834
  42   1.0000      -1.054851       -28.7040
  43   1.0000      -1.035373       -28.1739
  44   1.0000      -1.020312       -27.7641
  45   1.0000      -1.008341       -27.4383
  46   1.0000      -0.928762       -25.2729
  47   1.0000      -0.912911       -24.8416
  48   1.0000      -0.886354       -24.1189
  49   1.0000      -0.868176       -23.6243
  50   1.0000      -0.850935       -23.1551
  51   1.0000      -0.846494       -23.0343
  52   1.0000      -0.833212       -22.6729
  53   1.0000      -0.809482       -22.0271
  54   1.0000      -0.787079       -21.4175
  55   1.0000      -0.765672       -20.8350
  56   1.0000      -0.756096       -20.5744
  57   1.0000      -0.745542       -20.2872
  58   1.0000      -0.742766       -20.2117
  59   1.0000      -0.731286       -19.8993
  60   1.0000      -0.727278       -19.7902
  61   1.0000      -0.721884       -19.6435
  62   1.0000      -0.701883       -19.0992
  63   1.0000      -0.690676       -18.7942
  64   1.0000      -0.684909       -18.6373
  65   1.0000      -0.674438       -18.3524
  66   1.0000      -0.670901       -18.2561
  67   1.0000      -0.657559       -17.8931
  68   1.0000      -0.655090       -17.8259
  69   1.0000      -0.651187       -17.7197
  70   1.0000      -0.646063       -17.5803
  71   1.0000      -0.639065       -17.3899
  72   1.0000      -0.631727       -17.1902
  73   1.0000      -0.620402       -16.8820
  74   1.0000      -0.618016       -16.8171
  75   1.0000      -0.609368       -16.5818
  76   1.0000      -0.604530       -16.4501
  77   1.0000      -0.588839       -16.0231
  78   1.0000      -0.586689       -15.9646
  79   1.0000      -0.579310       -15.7638
  80   1.0000      -0.571459       -15.5502
  81   1.0000      -0.566784       -15.4230
  82   1.0000      -0.561388       -15.2761
  83   1.0000      -0.547320       -14.8933
  84   1.0000      -0.545319       -14.8389
  85   1.0000      -0.539546       -14.6818
  86   1.0000      -0.529631       -14.4120
  87   1.0000      -0.524215       -14.2646
  88   1.0000      -0.506819       -13.7913
  89   1.0000      -0.503412       -13.6985
  90   1.0000      -0.492482       -13.4011
  91   1.0000      -0.489456       -13.3188
  92   1.0000      -0.487772       -13.2730
  93   1.0000      -0.482040       -13.1170
  94   1.0000      -0.470532       -12.8038
  95   1.0000      -0.465663       -12.6713
  96   1.0000      -0.462425       -12.5832
  97   1.0000      -0.442128       -12.0309
  98   1.0000      -0.436743       -11.8844
  99   1.0000      -0.432340       -11.7646
 100   1.0000      -0.399827       -10.8798
 101   1.0000      -0.398370       -10.8402
 102   1.0000      -0.358095        -9.7443
 103   1.0000      -0.299833        -8.1589
 104   0.0000       0.010958         0.2982
 105   0.0000       0.017912         0.4874
 106   0.0000       0.023101         0.6286
 107   0.0000       0.032896         0.8951
 108   0.0000       0.034791         0.9467

MULLIKEN ATOMIC CHARGES AND SPIN POPULATIONS
--------------------------------------------
   0 O :   -1.106431    0.013068
   1 C :    0.504067   -0.053814
   2 C :    0.740037    0.015756
   3 C :    0.278529   -0.000882
   4 C :    0.921331    0.002931
   5 C :   -1.118863    0.889298
   6 H :    0.360686    0.011383
   7 H :    0.148829   -0.009762
   8 H :    0.222736    0.002216
   9 O :   -0.986871   -0.000479
  10 O :   -0.999077   -0.000200
  11 N :    0.119669    0.005939
  12 H :    0.629728   -0.001855
  13 C :   -0.259322    0.000222
  14 C :   -0.341606   -0.001452
  15 H :    0.201037   -0.000385
  16 H :    0.515199   -0.002732
  17 H :    0.284572    0.002551
  18 H :    0.181021    0.000143
  19 O :   -0.836729    0.012201
  20 C :    0.848582   -0.071530
  21 O :   -0.735389    0.019414
  22 C :    0.143209    0.912094
  23 C :   -0.428152   -0.113791
  24 H :    0.268866   -0.705345
  25 H :    0.102259    0.012466
  26 C :    0.921175    0.043183
  27 H :    0.280290    0.001549
  28 H :    0.436444    0.023952
  29 C :    0.203139   -0.000930
  30 O :   -0.475959   -0.000366
  31 N :   -0.421376   -0.003751
  32 N :   -1.200887   -0.000002
  33 C :    1.879284    0.000593
  34 C :   -0.132443   -0.000195
  35 N :   -0.421392    0.000274
  36 C :   -0.913657   -0.000483
  37 N :   -0.794742    0.000475
  38 N :   -0.551386   -0.000048
  39 H :    0.105474    0.000002
  40 H :    0.080347    0.000002
  41 H :    0.627962    0.000020
  42 H :    0.708356   -0.000624
  43 H :    0.308519   -0.006281
  44 H :    0.385420    0.001126
  45 H :    0.037155    0.000363
  46 H :   -0.027595   -0.000119
  47 H :    0.228043    0.000060
  48 O :   -0.920086    0.003743
Sum of atomic charges         :    0.0000000

LOEWDIN ATOMIC CHARGES AND SPIN POPULATIONS
-------------------------------------------
   0 O :    0.624387    0.028797
   1 C :   -0.230719    0.039322
   2 C :   -0.210497   -0.001025
   3 C :   -0.242744   -0.000647
   4 C :   -0.308488    0.001748
   5 C :    0.589615    0.306558
   6 H :   -0.135874   -0.000430
   7 H :   -0.150113    0.043881
   8 H :   -0.143368    0.043179
   9 O :    0.886818   -0.000602
  10 O :    0.861494   -0.000128
  11 N :    0.285330    0.001657
  12 H :   -0.136505   -0.000234
  13 C :   -0.434038    0.000156
  14 C :   -0.041000    0.000251
  15 H :   -0.139537   -0.000036
  16 H :   -0.119865   -0.000325
  17 H :   -0.686300   -0.000298
  18 H :   -0.528766   -0.000004
  19 O :    0.554864    0.006287
  20 C :   -0.733360    0.032172
  21 O :    0.867335    0.014080
  22 C :    0.264078    0.296902
  23 C :    0.300940    0.028316
  24 H :   -0.371055    0.100357
  25 H :   -0.133919    0.033920
  26 C :   -0.126513    0.013002
  27 H :   -0.125111   -0.001154
  28 H :   -0.151219    0.000864
  29 C :   -0.773842    0.001975
  30 O :    0.853998   -0.000465
  31 N :    0.872036    0.002997
  32 N :    0.401901   -0.000017
  33 C :   -0.304055    0.000185
  34 C :   -0.419750   -0.000025
  35 N :    0.389855    0.000110
  36 C :   -0.174452   -0.000114
  37 N :    0.409704    0.000124
  38 N :    0.870248   -0.000043
  39 H :   -0.288255   -0.000003
  40 H :   -0.288177   -0.000003
  41 H :   -0.202369   -0.000033
  42 H :   -0.159186    0.000039
  43 H :   -0.622217    0.004123
  44 H :   -0.131075    0.001015
  45 H :   -0.270439    0.000528
  46 H :   -0.269605    0.000218
  47 H :   -0.450900    0.000041
  48 O :    0.470709    0.002785

  Mayer bond orders larger than 0.100000
B(  0-O ,  1-C ) :   0.2482 B(  0-O ,  3-C ) :   0.1453 B(  0-O ,  4-C ) :   0.6494
B(  0-O ,  5-C ) :   0.1001 B(  0-O ,  6-H ) :  -0.1242 B(  0-O , 11-N ) :   0.1696
B(  1-C ,  2-C ) :   0.8048 B(  1-C ,  3-C ) :   0.1626 B(  1-C ,  5-C ) :   0.7588
B(  1-C ,  6-H ) :   0.8898 B(  1-C ,  9-O ) :   0.2576 B(  2-C ,  3-C ) :   1.0850
B(  2-C ,  4-C ) :   0.1447 B(  2-C , 10-O ) :   0.2692 B(  2-C , 16-H ) :   0.7528
B(  3-C ,  4-C ) :   0.9550 B(  3-C ,  9-O ) :   0.1712 B(  3-C , 10-O ) :  -0.2531
B(  3-C , 15-H ) :   1.1036 B(  3-C , 16-H ) :  -0.1425 B(  4-C , 10-O ) :   0.1419
B(  4-C , 11-N ) :   0.7981 B(  4-C , 12-H ) :   0.8379 B(  4-C , 13-C ) :  -0.3799
B(  4-C , 33-C ) :  -0.1354 B(  4-C , 37-N ) :  -0.2916 B(  5-C ,  7-H ) :   1.1703
B(  5-C ,  8-H ) :   1.0233 B(  5-C , 24-H ) :   0.1323 B(  9-O , 17-H ) :   0.8375
B(  9-O , 19-O ) :  -0.1735 B( 10-O , 11-N ) :   0.1170 B( 10-O , 18-H ) :   1.0197
B( 11-N , 12-H ) :  -0.2310 B( 11-N , 13-C ) :   0.8634 B( 11-N , 14-C ) :   0.9903
B( 11-N , 33-C ) :  -0.1098 B( 11-N , 34-C ) :  -0.1125 B( 12-H , 37-N ) :  -0.1186
B( 13-C , 14-C ) :  -0.5399 B( 13-C , 32-N ) :   0.5351 B( 13-C , 33-C ) :   1.0354
B( 13-C , 34-C ) :   1.5557 B( 13-C , 36-C ) :  -0.6740 B( 13-C , 37-N ) :   0.6363
B( 14-C , 32-N ) :   0.8013 B( 14-C , 42-H ) :   0.3794 B( 19-O , 20-C ) :   0.9034
B( 19-O , 21-O ) :  -0.1400 B( 19-O , 24-H ) :   0.1096 B( 20-C , 21-O ) :   0.7055
B( 20-C , 22-C ) :   0.6299 B( 20-C , 23-C ) :   0.1541 B( 21-O , 43-H ) :   0.7333
B( 22-C , 23-C ) :   0.7780 B( 22-C , 24-H ) :   0.4093 B( 22-C , 25-H ) :   1.0336
B( 22-C , 31-N ) :  -0.1031 B( 23-C , 26-C ) :   0.7924 B( 23-C , 27-H ) :   0.9439
B( 23-C , 28-H ) :   0.8439 B( 23-C , 29-C ) :   0.2106 B( 23-C , 30-O ) :   0.1113
B( 23-C , 48-O ) :   0.1066 B( 26-C , 31-N ) :   0.5325 B( 26-C , 44-H ) :   0.9995
B( 26-C , 48-O ) :  -0.1338 B( 29-C , 30-O ) :   0.9878 B( 29-C , 31-N ) :   0.1729
B( 29-C , 44-H ) :  -0.1987 B( 29-C , 48-O ) :   1.3058 B( 30-O , 47-H ) :   0.9726
B( 31-N , 43-H ) :   0.1765 B( 31-N , 45-H ) :   1.0508 B( 31-N , 46-H ) :   1.1127
B( 32-N , 34-C ) :   0.1052 B( 32-N , 42-H ) :  -0.1872 B( 33-C , 34-C ) :  -1.4956
B( 33-C , 37-N ) :  -0.4807 B( 33-C , 38-N ) :  -0.3541 B( 34-C , 35-N ) :   0.2937
B( 34-C , 36-C ) :  -0.3573 B( 34-C , 37-N ) :   0.3889 B( 34-C , 38-N ) :   1.1600
B( 34-C , 40-H ) :  -0.1019 B( 35-N , 36-C ) :   1.0630 B( 35-N , 38-N ) :  -0.2023
B( 36-C , 37-N ) :   1.8246 B( 36-C , 41-H ) :   0.4423 B( 38-N , 39-H ) :   1.1128
B( 38-N , 40-H ) :   1.1487

MP2 TOTAL ENERGY:    -1436.857685605 Eh
FINAL SINGLE POINT ENERGY     -1436.857685605437

DIPOLE MOMENT
-------------
                                X             Y             Z
Electronic contribution:     17.13690       1.38746       3.58728
Nuclear contribution   :    -20.34714       0.51693      -4.34039
                        -----------------------------------------
Total Dipole Moment    :     -3.21024       1.90439      -0.75311
                        -----------------------------------------
Magnitude (a.u.)       :      3.80783
Magnitude (Debye)      :      9.67872

Rotational constants in cm-1:     0.014017     0.002056     0.001908
Rotational constants in MHz :   420.205044    61.637955    57.191881

                             ****ORCA TERMINATED NORMALLY****
TOTAL RUN TIME: 0 days 2 hours 51 minutes 0 seconds 746 msec
