                         Program Version 4.2.1 -  RELEASE  -
|  1> %pal
|  2>  nprocs 32
|  3> end
|  4> !RI-MP2 aug-cc-pVTZ aug-cc-pVTZ/C TightSCF
|  5> %maxcore 4500
|  6> *xyzfile 0 1  02_19R.xyz
|  7>
|  8>
|  9>                          ****END OF INPUT****

CARTESIAN COORDINATES (ANGSTROEM)
---------------------------------
  C     -1.318626   -1.939251    0.907596
  C      0.813161    1.599720    0.462998
  C     -2.248540   -1.496549    1.751621
  C      0.104635   -1.867661    1.285852
  C      0.333204    1.452292   -0.781595
  C      2.204522    1.780465    0.909681
  C     -1.106753    1.266502   -1.027033
  C     -2.136123    1.984581   -0.570988
  C     -3.547298    1.578867   -0.960622
  C     -2.012473    3.212788    0.282605
  C     -3.713184   -1.400693    1.478350
  H     -2.608759    4.025229   -0.144281
  H     -2.408084    3.034055    1.288601
  H     -0.981503    3.547999    0.380481
  C     -3.912959    0.145625   -0.554157
  H     -4.269973    2.270540   -0.514130
  H     -3.662405    1.679616   -2.044862
  C     -4.066955    0.011779    0.967315
  H     -4.018686   -2.147565    0.741291
  H     -4.261515   -1.611130    2.399985
  C     -5.176267   -0.325601   -1.270202
  H     -3.086926   -0.498319   -0.867252
  H     -5.095583    0.261986    1.245467
  H     -3.424888    0.736214    1.475819
  C      1.172323    1.381566   -2.029219
  H      1.159883    2.337872   -2.561790
  H      2.210327    1.130624   -1.817955
  H      0.754916    0.633052   -2.706265
  H     -6.017193    0.340127   -1.052227
  H     -5.033740   -0.342967   -2.353076
  H     -5.462589   -1.332874   -0.957266
  C      2.503442    1.124961    2.234270
  H      2.130198    0.099986    2.261996
  H      3.564273    1.118833    2.477740
  H      1.983804    1.660021    3.035854
  C      3.084978    2.520383    0.224735
  C      4.518715    2.791403    0.560171
  H      4.678571    3.858582    0.743540
  H      4.865201    2.249772    1.438872
  H      5.169061    2.520873   -0.278189
  H      2.729837    3.016205   -0.672453
  C      1.131457   -2.021685    0.217972
  O      0.476376   -1.680250    2.430484
  C      2.433101   -2.173478    0.460542
  C      0.925577   -1.975294   -1.265978
  H      2.882835   -2.228649    1.442248
  C      3.226185   -2.221524   -0.808315
  N      2.177575   -2.083403   -1.799400
  H      2.326825   -2.072303   -2.794912
  O     -0.108025   -1.858056   -1.893442
  C      4.288258   -1.126811   -0.884336
  H      4.783317   -1.140108   -1.857294
  H      5.048696   -1.286347   -0.117250
  H      3.837803   -0.145986   -0.728104
  H      3.708514   -3.203074   -0.901048
  H      0.091898    1.516572    1.272139
  H     -1.324560    0.439600   -1.699958
  H     -1.902695   -1.097732    2.702632
  H     -1.558971   -2.294760   -0.086477

 Total Charge           Charge          ....    0
 Multiplicity           Mult            ....    1
 Number of Electrons    NEL             ....  194
 Basis Dimension        Dim             .... 1955

ORBITAL ENERGIES
----------------

  NO   OCC          E(Eh)            E(eV)
   0   2.0000     -20.532150      -558.7082
   1   2.0000     -20.522977      -558.4586
   2   2.0000     -15.588013      -424.1714
   3   2.0000     -11.357455      -309.0521
   4   2.0000     -11.331553      -308.3472
   5   2.0000     -11.298013      -307.4346
   6   2.0000     -11.274497      -306.7947
   7   2.0000     -11.248380      -306.0840
   8   2.0000     -11.245316      -306.0006
   9   2.0000     -11.238621      -305.8184
  10   2.0000     -11.227093      -305.5047
  11   2.0000     -11.226682      -305.4935
  12   2.0000     -11.225891      -305.4720
  13   2.0000     -11.222059      -305.3678
  14   2.0000     -11.218921      -305.2824
  15   2.0000     -11.217560      -305.2453
  16   2.0000     -11.216985      -305.2297
  17   2.0000     -11.215278      -305.1832
  18   2.0000     -11.214895      -305.1728
  19   2.0000     -11.211947      -305.0926
  20   2.0000     -11.208950      -305.0110
  21   2.0000     -11.208193      -304.9904
  22   2.0000     -11.207207      -304.9636
  23   2.0000     -11.206153      -304.9349
  24   2.0000     -11.205239      -304.9101
  25   2.0000     -11.200657      -304.7854
  26   2.0000      -1.390308       -37.8322
  27   2.0000      -1.378289       -37.5051
  28   2.0000      -1.271721       -34.6053
  29   2.0000      -1.123479       -30.5714
  30   2.0000      -1.109451       -30.1897
  31   2.0000      -1.095736       -29.8165
  32   2.0000      -1.085873       -29.5481
  33   2.0000      -1.062633       -28.9157
  34   2.0000      -1.044071       -28.4106
  35   2.0000      -1.029212       -28.0063
  36   2.0000      -0.988822       -26.9072
  37   2.0000      -0.983178       -26.7536
  38   2.0000      -0.928916       -25.2771
  39   2.0000      -0.924467       -25.1560
  40   2.0000      -0.919034       -25.0082
  41   2.0000      -0.914279       -24.8788
  42   2.0000      -0.885810       -24.1041
  43   2.0000      -0.875605       -23.8264
  44   2.0000      -0.845320       -23.0023
  45   2.0000      -0.823447       -22.4071
  46   2.0000      -0.780023       -21.2255
  47   2.0000      -0.764522       -20.8037
  48   2.0000      -0.759457       -20.6659
  49   2.0000      -0.726315       -19.7640
  50   2.0000      -0.712374       -19.3847
  51   2.0000      -0.702469       -19.1152
  52   2.0000      -0.674655       -18.3583
  53   2.0000      -0.668997       -18.2043
  54   2.0000      -0.658431       -17.9168
  55   2.0000      -0.643545       -17.5118
  56   2.0000      -0.637083       -17.3359
  57   2.0000      -0.625467       -17.0198
  58   2.0000      -0.622831       -16.9481
  59   2.0000      -0.614436       -16.7197
  60   2.0000      -0.610517       -16.6130
  61   2.0000      -0.604028       -16.4364
  62   2.0000      -0.598457       -16.2848
  63   2.0000      -0.591508       -16.0957
  64   2.0000      -0.579979       -15.7820
  65   2.0000      -0.576516       -15.6878
  66   2.0000      -0.568797       -15.4778
  67   2.0000      -0.561793       -15.2872
  68   2.0000      -0.558765       -15.2048
  69   2.0000      -0.555500       -15.1159
  70   2.0000      -0.550711       -14.9856
  71   2.0000      -0.549313       -14.9476
  72   2.0000      -0.542655       -14.7664
  73   2.0000      -0.541229       -14.7276
  74   2.0000      -0.537864       -14.6360
  75   2.0000      -0.532873       -14.5002
  76   2.0000      -0.529545       -14.4097
  77   2.0000      -0.522038       -14.2054
  78   2.0000      -0.517327       -14.0772
  79   2.0000      -0.511705       -13.9242
  80   2.0000      -0.508284       -13.8311
  81   2.0000      -0.506245       -13.7756
  82   2.0000      -0.499499       -13.5921
  83   2.0000      -0.485139       -13.2013
  84   2.0000      -0.480572       -13.0770
  85   2.0000      -0.460230       -12.5235
  86   2.0000      -0.454225       -12.3601
  87   2.0000      -0.450626       -12.2622
  88   2.0000      -0.433856       -11.8058
  89   2.0000      -0.432020       -11.7559
  90   2.0000      -0.414538       -11.2801
  91   2.0000      -0.402382       -10.9494
  92   2.0000      -0.394086       -10.7236
  93   2.0000      -0.383210       -10.4277
  94   2.0000      -0.359368        -9.7789
  95   2.0000      -0.341807        -9.3010
  96   2.0000      -0.281668        -7.6646
  97   0.0000       0.018729         0.5096
  98   0.0000       0.027522         0.7489
  99   0.0000       0.028595         0.7781
 100   0.0000       0.030417         0.8277
 101   0.0000       0.035860         0.9758

MULLIKEN ATOMIC CHARGES
-----------------------
   0 C :   -0.366104
   1 C :   -1.334764
   2 C :   -0.350572
   3 C :    1.713972
   4 C :    1.571426
   5 C :    1.600718
   6 C :   -0.561450
   7 C :    1.398017
   8 C :   -0.577332
   9 C :   -1.371478
  10 C :   -0.321489
  11 H :    0.054501
  12 H :    0.215366
  13 H :    0.508018
  14 C :    1.072647
  15 H :    0.258781
  16 H :    0.180628
  17 C :   -0.854491
  18 H :    0.103006
  19 H :    0.328846
  20 C :   -1.502391
  21 H :    0.393848
  22 H :    0.158099
  23 H :    0.439495
  24 C :   -1.352617
  25 H :    0.163993
  26 H :    0.583966
  27 H :    0.042939
  28 H :    0.256248
  29 H :    0.238727
  30 H :    0.273396
  31 C :   -1.139756
  32 H :    0.468624
  33 H :    0.269931
  34 H :    0.226995
  35 C :   -0.424746
  36 C :   -0.974595
  37 H :    0.202305
  38 H :    0.368465
  39 H :    0.213082
  40 H :    0.127734
  41 C :    0.737975
  42 O :   -1.517001
  43 C :   -0.605245
  44 C :    0.810959
  45 H :    0.374313
  46 C :    0.136734
  47 N :    0.105239
  48 H :   -0.042456
  49 O :   -1.224079
  50 C :   -1.079296
  51 H :    0.209374
  52 H :    0.214368
  53 H :    0.643122
  54 H :    0.241746
  55 H :   -0.606717
  56 H :   -0.684809
  57 H :   -0.113716
  58 H :    0.097501
Sum of atomic charges:   -0.0000000

LOEWDIN ATOMIC CHARGES
----------------------
   0 C :    0.227238
   1 C :    0.208686
   2 C :    0.241222
   3 C :   -0.551121
   4 C :   -0.103453
   5 C :   -0.108218
   6 C :    0.223633
   7 C :   -0.066957
   8 C :    0.290312
   9 C :    0.582656
  10 C :    0.299067
  11 H :   -0.161255
  12 H :   -0.159090
  13 H :   -0.189131
  14 C :   -0.028768
  15 H :   -0.141876
  16 H :   -0.135341
  17 C :    0.310122
  18 H :   -0.153782
  19 H :   -0.143562
  20 C :    0.598601
  21 H :   -0.169660
  22 H :   -0.134545
  23 H :   -0.155243
  24 C :    0.572279
  25 H :   -0.147761
  26 H :   -0.208839
  27 H :   -0.181670
  28 H :   -0.156603
  29 H :   -0.157848
  30 H :   -0.163333
  31 C :    0.581431
  32 H :   -0.226472
  33 H :   -0.192243
  34 H :   -0.149996
  35 C :    0.220342
  36 C :    0.567913
  37 H :   -0.169085
  38 H :   -0.201776
  39 H :   -0.171716
  40 H :   -0.196222
  41 C :   -0.073093
  42 O :    0.493436
  43 C :    0.273868
  44 C :   -0.670093
  45 H :   -0.131295
  46 C :   -0.123441
  47 N :    0.577226
  48 H :   -0.244753
  49 O :    0.473024
  50 C :    0.620102
  51 H :   -0.154125
  52 H :   -0.154908
  53 H :   -0.190331
  54 H :   -0.117629
  55 H :   -0.179266
  56 H :   -0.201281
  57 H :   -0.167410
  58 H :   -0.227966

  Mayer bond orders larger than 0.100000
B(  0-C ,  2-C ) :   0.8938 B(  0-C ,  3-C ) :   0.7164 B(  0-C , 10-C ) :   0.1702
B(  0-C , 42-O ) :   0.1440 B(  0-C , 57-H ) :  -0.1697 B(  0-C , 58-H ) :   1.4437
B(  1-C ,  4-C ) :   1.0675 B(  1-C ,  5-C ) :   0.6310 B(  1-C ,  6-C ) :   0.1917
B(  1-C ,  7-C ) :  -0.4630 B(  1-C ,  8-C ) :  -0.1107 B(  1-C ,  9-C ) :  -0.1176
B(  1-C , 24-C ) :  -0.4460 B(  1-C , 35-C ) :   0.3289 B(  1-C , 55-H ) :   2.2896
B(  1-C , 56-H ) :   0.3618 B(  2-C ,  3-C ) :   0.1339 B(  2-C , 10-C ) :   0.5325
B(  2-C , 17-C ) :   0.1118 B(  2-C , 19-H ) :  -0.1595 B(  2-C , 41-C ) :   0.1282
B(  2-C , 57-H ) :   1.4880 B(  2-C , 58-H ) :  -0.1338 B(  3-C ,  6-C ) :  -0.1364
B(  3-C , 35-C ) :   0.1001 B(  3-C , 41-C ) :   0.9495 B(  3-C , 42-O ) :  -0.1410
B(  3-C , 43-C ) :   0.2757 B(  3-C , 44-C ) :   0.2185 B(  3-C , 57-H ) :  -0.2093
B(  3-C , 58-H ) :  -0.2263 B(  4-C ,  5-C ) :   0.4447 B(  4-C ,  6-C ) :   1.0764
B(  4-C ,  7-C ) :   0.1008 B(  4-C ,  9-C ) :   0.1207 B(  4-C , 25-H ) :  -0.1615
B(  4-C , 27-H ) :  -0.2258 B(  4-C , 35-C ) :  -0.1144 B(  4-C , 40-H ) :  -0.2048
B(  4-C , 43-C ) :   0.1412 B(  4-C , 55-H ) :  -0.4651 B(  4-C , 56-H ) :  -0.2493
B(  5-C ,  6-C ) :   0.2296 B(  5-C , 24-C ) :   0.1524 B(  5-C , 31-C ) :   0.5551
B(  5-C , 35-C ) :   1.0981 B(  5-C , 40-H ) :  -0.1514 B(  6-C ,  7-C ) :   2.0317
B(  6-C , 14-C ) :  -0.1578 B(  6-C , 15-H ) :  -0.1057 B(  6-C , 17-C ) :  -0.1037
B(  6-C , 24-C ) :   0.4708 B(  6-C , 56-H ) :   2.5465 B(  7-C ,  8-C ) :   0.4681
B(  7-C ,  9-C ) :   0.2134 B(  7-C , 11-H ) :  -0.2414 B(  7-C , 14-C ) :   0.2380
B(  7-C , 55-H ) :  -0.1566 B(  7-C , 56-H ) :  -0.9436 B(  8-C , 14-C ) :   0.6236
B(  8-C , 15-H ) :   1.1622 B(  8-C , 16-H ) :   1.1351 B(  8-C , 17-C ) :   0.1022
B(  8-C , 20-C ) :   0.1298 B(  8-C , 56-H ) :  -0.2328 B(  9-C , 11-H ) :   1.4033
B(  9-C , 12-H ) :   1.1991 B(  9-C , 13-H ) :   0.6784 B( 10-C , 17-C ) :   0.9985
B( 10-C , 18-H ) :   1.1648 B( 10-C , 19-H ) :   0.9585 B( 14-C , 17-C ) :   0.6474
B( 14-C , 21-H ) :   0.8215 B( 14-C , 28-H ) :  -0.1825 B( 14-C , 29-H ) :  -0.1362
B( 14-C , 30-H ) :  -0.1095 B( 14-C , 56-H ) :  -0.2028 B( 17-C , 20-C ) :   0.2212
B( 17-C , 22-H ) :   1.1303 B( 17-C , 23-H ) :   0.8542 B( 20-C , 21-H ) :  -0.1627
B( 20-C , 28-H ) :   1.1189 B( 20-C , 29-H ) :   1.1326 B( 20-C , 30-H ) :   1.0603
B( 24-C , 25-H ) :   1.1415 B( 24-C , 26-H ) :   0.5949 B( 24-C , 27-H ) :   1.4905
B( 24-C , 55-H ) :   0.1201 B( 31-C , 32-H ) :   0.8133 B( 31-C , 33-H ) :   0.9945
B( 31-C , 34-H ) :   1.1123 B( 35-C , 36-C ) :   0.4320 B( 35-C , 37-H ) :  -0.1323
B( 35-C , 40-H ) :   1.3822 B( 35-C , 43-C ) :  -0.1382 B( 35-C , 55-H ) :  -0.1414
B( 36-C , 37-H ) :   1.1567 B( 36-C , 38-H ) :   0.8322 B( 36-C , 39-H ) :   1.1055
B( 36-C , 40-H ) :  -0.1225 B( 41-C , 43-C ) :   1.0429 B( 41-C , 44-C ) :   0.5334
B( 41-C , 46-C ) :   0.1668 B( 41-C , 47-N ) :  -0.4612 B( 41-C , 49-O ) :   0.4526
B( 42-O , 57-H ) :   0.2199 B( 43-C , 44-C ) :   0.2144 B( 43-C , 45-H ) :   0.9517
B( 43-C , 46-C ) :   0.9697 B( 43-C , 50-C ) :   0.1027 B( 44-C , 47-N ) :   1.1563
B( 44-C , 49-O ) :   0.3756 B( 46-C , 47-N ) :   0.9692 B( 46-C , 50-C ) :   0.7394
B( 46-C , 54-H ) :   0.9034 B( 47-N , 48-H ) :   1.1664 B( 47-N , 49-O ) :  -0.2170
B( 50-C , 51-H ) :   1.0767 B( 50-C , 52-H ) :   1.0631 B( 50-C , 53-H ) :   0.5995
B( 55-H , 56-H ) :   0.2819

MP2 TOTAL ENERGY:    -1099.248235883 Eh
FINAL SINGLE POINT ENERGY     -1099.248235882676

DIPOLE MOMENT
-------------
                                X             Y             Z
Electronic contribution:      4.34587     -17.58238       0.83711
Nuclear contribution   :     -3.25229      17.43008      -1.28125
                        -----------------------------------------
Total Dipole Moment    :      1.09357      -0.15230      -0.44414
                        -----------------------------------------
Magnitude (a.u.)       :      1.19011
Magnitude (Debye)      :      3.02502

Rotational constants in cm-1:     0.009348     0.005109     0.004362
Rotational constants in MHz :   280.260261   153.165352   130.755443

                             ****ORCA TERMINATED NORMALLY****
TOTAL RUN TIME: 0 days 3 hours 7 minutes 44 seconds 938 msec
