                         Program Version 4.2.1 -  RELEASE  -
|  1> %pal
|  2>  nprocs 32
|  3> end
|  4> !RI-MP2 aug-cc-pVTZ aug-cc-pVTZ/C TightSCF
|  5> %maxcore 4500
|  6> *xyzfile 0 2  04_82P1.xyz
|  7>
|  8>
|  9>                          ****END OF INPUT****

CARTESIAN COORDINATES (ANGSTROEM)
---------------------------------
  O     -2.711645   -1.284800   -0.000027
  C     -2.427919   -0.105145   -0.000005
  O     -3.371096    0.863941   -0.000006
  C     -1.083819    0.416781    0.000026
  C      0.059025   -0.519560    0.000039
  H     -0.915001    1.484744    0.000041
  C      1.395983    0.177152    0.000007
  H      0.014396   -1.195981   -0.861907
  H      0.014418   -1.195929    0.862028
  C      3.718817   -0.172173   -0.000021
  H      3.878024    0.438718   -0.888093
  H      4.384736   -1.030443   -0.000016
  H      3.878048    0.438746    0.888026
  O      1.565527    1.366587   -0.000013
  H     -4.231573    0.423523   -0.000027
  O      2.392769   -0.713941    0.000005

 Total Charge           Charge          ....    0
 Multiplicity           Mult            ....    2
 Number of Electrons    NEL             ....   69
 Basis Dimension        Dim             ....  575

ORBITAL ENERGIES
----------------
                 SPIN UP ORBITALS
  NO   OCC          E(Eh)            E(eV)
   0   1.0000     -20.614663      -560.9535
   1   1.0000     -20.611991      -560.8808
   2   1.0000     -20.563792      -559.5692
   3   1.0000     -20.556419      -559.3686
   4   1.0000     -11.391217      -309.9708
   5   1.0000     -11.383534      -309.7617
   6   1.0000     -11.293500      -307.3118
   7   1.0000     -11.277934      -306.8882
   8   1.0000     -11.262987      -306.4815
   9   1.0000      -1.477325       -40.2000
  10   1.0000      -1.470547       -40.0156
  11   1.0000      -1.374716       -37.4079
  12   1.0000      -1.373219       -37.3672
  13   1.0000      -1.115445       -30.3528
  14   1.0000      -1.010759       -27.5042
  15   1.0000      -0.943600       -25.6767
  16   1.0000      -0.814992       -22.1771
  17   1.0000      -0.775239       -21.0953
  18   1.0000      -0.741333       -20.1727
  19   1.0000      -0.711584       -19.3632
  20   1.0000      -0.694803       -18.9065
  21   1.0000      -0.686339       -18.6762
  22   1.0000      -0.681745       -18.5512
  23   1.0000      -0.658613       -17.9218
  24   1.0000      -0.613684       -16.6992
  25   1.0000      -0.608849       -16.5676
  26   1.0000      -0.578205       -15.7337
  27   1.0000      -0.572903       -15.5895
  28   1.0000      -0.543672       -14.7941
  29   1.0000      -0.537814       -14.6347
  30   1.0000      -0.517627       -14.0854
  31   1.0000      -0.476457       -12.9650
  32   1.0000      -0.475258       -12.9324
  33   1.0000      -0.463498       -12.6124
  34   1.0000      -0.395864       -10.7720
  35   0.0000       0.026697         0.7265
  36   0.0000       0.032450         0.8830
  37   0.0000       0.041083         1.1179
  38   0.0000       0.041395         1.1264
  39   0.0000       0.045384         1.2350

                 SPIN DOWN ORBITALS
  NO   OCC          E(Eh)            E(eV)
   0   1.0000     -20.614555      -560.9505
   1   1.0000     -20.612127      -560.8845
   2   1.0000     -20.556816      -559.3794
   3   1.0000     -20.552595      -559.2645
   4   1.0000     -11.390907      -309.9623
   5   1.0000     -11.389008      -309.9107
   6   1.0000     -11.293521      -307.3123
   7   1.0000     -11.265730      -306.5561
   8   1.0000     -11.256708      -306.3106
   9   1.0000      -1.477282       -40.1989
  10   1.0000      -1.464777       -39.8586
  11   1.0000      -1.375178       -37.4205
  12   1.0000      -1.355410       -36.8826
  13   1.0000      -1.084510       -29.5110
  14   1.0000      -0.992123       -26.9970
  15   1.0000      -0.933068       -25.3901
  16   1.0000      -0.806923       -21.9575
  17   1.0000      -0.765867       -20.8403
  18   1.0000      -0.733336       -19.9551
  19   1.0000      -0.704616       -19.1736
  20   1.0000      -0.690263       -18.7830
  21   1.0000      -0.685188       -18.6449
  22   1.0000      -0.677265       -18.4293
  23   1.0000      -0.630029       -17.1440
  24   1.0000      -0.604709       -16.4550
  25   1.0000      -0.603422       -16.4200
  26   1.0000      -0.574761       -15.6400
  27   1.0000      -0.562086       -15.2951
  28   1.0000      -0.537696       -14.6315
  29   1.0000      -0.536168       -14.5899
  30   1.0000      -0.475588       -12.9414
  31   1.0000      -0.466790       -12.7020
  32   1.0000      -0.461007       -12.5446
  33   1.0000      -0.460336       -12.5264
  34   0.0000       0.026773         0.7285
  35   0.0000       0.032547         0.8857
  36   0.0000       0.040707         1.1077
  37   0.0000       0.041464         1.1283
  38   0.0000       0.045592         1.2406

MULLIKEN ATOMIC CHARGES AND SPIN POPULATIONS
--------------------------------------------
   0 O :   -0.780252    0.248440
   1 C :    0.563110   -0.222256
   2 O :   -0.441616    0.003787
   3 C :   -0.418822    1.143331
   4 C :    0.371877   -0.198381
   5 H :    0.405159   -0.053581
   6 C :    0.294349    0.009405
   7 H :    0.283144    0.041170
   8 H :    0.283138    0.041174
   9 C :   -0.753908   -0.001358
  10 H :    0.361831    0.000120
  11 H :    0.357696   -0.000061
  12 H :    0.361832    0.000120
  13 O :   -0.766306   -0.007763
  14 H :    0.259668   -0.005700
  15 O :   -0.380900    0.001554
Sum of atomic charges         :   -0.0000000

LOEWDIN ATOMIC CHARGES AND SPIN POPULATIONS
-------------------------------------------
   0 O :    0.452235    0.179674
   1 C :   -0.837323    0.084549
   2 O :    0.818653   -0.007319
   3 C :    0.261804    0.488803
   4 C :    0.235526    0.111973
   5 H :   -0.197219    0.102740
   6 C :   -0.825892    0.005661
   7 H :   -0.147227    0.019114
   8 H :   -0.147224    0.019116
   9 C :    0.362794   -0.000065
  10 H :   -0.179095    0.000018
  11 H :   -0.184799   -0.000048
  12 H :   -0.179097    0.000018
  13 O :    0.476257   -0.005838
  14 H :   -0.477903   -0.001214
  15 O :    0.568511    0.002817

  Mayer bond orders larger than 0.100000
B(  0-O ,  1-C ) :   1.4336 B(  0-O ,  4-C ) :  -0.1072 B(  1-C ,  2-O ) :   0.9174
B(  1-C ,  3-C ) :   0.6083 B(  2-O , 14-H ) :   0.9641 B(  3-C ,  4-C ) :   0.6625
B(  3-C ,  5-H ) :   0.8344 B(  3-C ,  6-C ) :   0.1431 B(  4-C ,  6-C ) :   0.6018
B(  4-C ,  7-H ) :   0.9033 B(  4-C ,  8-H ) :   0.9033 B(  6-C , 13-O ) :   1.3805
B(  6-C , 15-O ) :   1.0908 B(  9-C , 10-H ) :   0.8786 B(  9-C , 11-H ) :   0.9015
B(  9-C , 12-H ) :   0.8786 B(  9-C , 15-O ) :   0.7985

MP2 TOTAL ENERGY:     -494.802863610 Eh
FINAL SINGLE POINT ENERGY      -494.802863609549

DIPOLE MOMENT
-------------
                                X             Y             Z
Electronic contribution:     -6.37755       0.49229      -0.00002
Nuclear contribution   :      6.90852      -0.62563       0.00005
                        -----------------------------------------
Total Dipole Moment    :      0.53097      -0.13335       0.00003
                        -----------------------------------------
Magnitude (a.u.)       :      0.54746
Magnitude (Debye)      :      1.39153

Rotational constants in cm-1:     0.182477     0.021722     0.019550
Rotational constants in MHz :  5470.523468   651.198687   586.095068

                             ****ORCA TERMINATED NORMALLY****
TOTAL RUN TIME: 0 days 0 hours 5 minutes 13 seconds 271 msec
