                         Program Version 4.2.1 -  RELEASE  -
|  1> %pal
|  2>  nprocs 32
|  3> end
|  4> !RI-MP2 aug-cc-pVTZ aug-cc-pVTZ/C TightSCF
|  5> %maxcore 4500
|  6> *xyzfile 0 1  04_3R1.xyz
|  7>
|  8>
|  9>                          ****END OF INPUT****

CARTESIAN COORDINATES (ANGSTROEM)
---------------------------------
  S     -1.778498   -0.045127   -0.073963
  C     -0.065708    0.567489    0.077838
  C      1.001740   -0.506897   -0.069665
  C      2.410742    0.072427    0.009394
  H      0.041099    1.097601    1.025515
  H      0.029325    1.310446   -0.716727
  H      0.857714   -1.024763   -1.021155
  H      0.866911   -1.258603    0.714251
  H      2.580635    0.575205    0.965003
  H      2.582274    0.803084   -0.785289
  H      3.164174   -0.710920   -0.092095
  H     -1.746811   -0.868134    0.988497

 Total Charge           Charge          ....    0
 Multiplicity           Mult            ....    1
 Number of Electrons    NEL             ....   42
 Basis Dimension        Dim             ....  372

ORBITAL ENERGIES
----------------

  NO   OCC          E(Eh)            E(eV)
   0   2.0000     -91.949229     -2502.0657
   1   2.0000     -11.259949      -306.3988
   2   2.0000     -11.230389      -305.5944
   3   2.0000     -11.220859      -305.3351
   4   2.0000      -8.950320      -243.5506
   5   2.0000      -6.631685      -180.4573
   6   2.0000      -6.630651      -180.4292
   7   2.0000      -6.629664      -180.4023
   8   2.0000      -1.086779       -29.5728
   9   2.0000      -0.993207       -27.0265
  10   2.0000      -0.878408       -23.9027
  11   2.0000      -0.806798       -21.9541
  12   2.0000      -0.651615       -17.7313
  13   2.0000      -0.596698       -16.2370
  14   2.0000      -0.568106       -15.4589
  15   2.0000      -0.555366       -15.1123
  16   2.0000      -0.515177       -14.0187
  17   2.0000      -0.494010       -13.4427
  18   2.0000      -0.483109       -13.1461
  19   2.0000      -0.442077       -12.0295
  20   2.0000      -0.354284        -9.6406
  21   0.0000       0.029575         0.8048
  22   0.0000       0.037609         1.0234
  23   0.0000       0.039191         1.0665
  24   0.0000       0.042675         1.1612
  25   0.0000       0.057964         1.5773

MULLIKEN ATOMIC CHARGES
-----------------------
   0 S :   -0.397628
   1 C :   -0.369821
   2 C :   -0.417684
   3 C :   -0.937711
   4 H :    0.284873
   5 H :    0.312494
   6 H :    0.296229
   7 H :    0.269057
   8 H :    0.281226
   9 H :    0.278724
  10 H :    0.283325
  11 H :    0.116917
Sum of atomic charges:   -0.0000000

LOEWDIN ATOMIC CHARGES
----------------------
   0 S :    1.269039
   1 C :   -0.130093
   2 C :    0.168480
   3 C :    0.568506
   4 H :   -0.219976
   5 H :   -0.230898
   6 H :   -0.166288
   7 H :   -0.165775
   8 H :   -0.171093
   9 H :   -0.170926
  10 H :   -0.172214
  11 H :   -0.578763

  Mayer bond orders larger than 0.100000
B(  0-S ,  1-C ) :   0.9804 B(  0-S , 11-H ) :   1.0524 B(  1-C ,  2-C ) :   0.9366
B(  1-C ,  4-H ) :   0.9152 B(  1-C ,  5-H ) :   0.9163 B(  2-C ,  3-C ) :   0.8700
B(  2-C ,  6-H ) :   0.9337 B(  2-C ,  7-H ) :   0.9436 B(  3-C ,  8-H ) :   0.9401
B(  3-C ,  9-H ) :   0.9464 B(  3-C , 10-H ) :   0.9525

MP2 TOTAL ENERGY:     -516.580411113 Eh
FINAL SINGLE POINT ENERGY      -516.580411113283

DIPOLE MOMENT
-------------
                                X             Y             Z
Electronic contribution:     -8.04590       0.06518      -0.85121
Nuclear contribution   :      8.73152      -0.07736       1.11890
                        -----------------------------------------
Total Dipole Moment    :      0.68562      -0.01218       0.26769
                        -----------------------------------------
Magnitude (a.u.)       :      0.73612
Magnitude (Debye)      :      1.87107

Rotational constants in cm-1:     0.806301     0.077879     0.074763
Rotational constants in MHz : 24172.298801  2334.749372  2241.345514

                             ****ORCA TERMINATED NORMALLY****
TOTAL RUN TIME: 0 days 0 hours 0 minutes 44 seconds 285 msec
