                         Program Version 4.2.1 -  RELEASE  -
|  1> %pal
|  2>  nprocs 32
|  3> end
|  4> !RI-MP2 aug-cc-pVTZ aug-cc-pVTZ/C TightSCF
|  5> %maxcore 4500
|  6> *xyzfile 1 1  05_38TS.xyz
|  7>
|  8>
|  9>                          ****END OF INPUT****

CARTESIAN COORDINATES (ANGSTROEM)
---------------------------------
  C      0.935413   -0.438753   -0.966781
  C      1.371574    0.087307    1.590542
  C      2.869076    0.058895    1.267172
  C      3.236928   -0.832556    0.083775
  C      2.456765   -0.385107   -1.149664
  H      3.206536    1.070332    1.040189
  H      3.398203   -0.270971    2.163559
  H      2.986440   -1.870370    0.315353
  H      2.759420    0.633589   -1.392754
  H      2.711928   -1.016896   -2.002525
  N      0.603194    0.231986    0.321968
  O     -0.539869    0.776931    0.412814
  C      0.259467    0.339182   -2.093249
  H      0.611368   -0.057429   -3.045959
  H     -0.824790    0.239856   -2.063392
  H      0.516139    1.397699   -2.046260
  C      0.418274   -1.886887   -0.967628
  H      0.921325   -2.520535   -0.240281
  H      0.595571   -2.309691   -1.957445
  H     -0.652955   -1.923112   -0.777520
  C      1.074366    1.301138    2.469507
  H      0.049650    1.299203    2.839526
  H      1.744291    1.277407    3.329457
  H      1.250544    2.228764    1.924572
  C      0.910825   -1.191017    2.310144
  H      1.232526   -2.099602    1.805577
  H     -0.176283   -1.218394    2.408409
  H      1.331181   -1.195408    3.316514
  C     -2.781130   -0.158091    0.948389
  H     -2.728499   -0.171154    2.041629
  H     -1.458017    0.060164    0.724598
  C     -3.000123   -1.433077    0.280027
  C     -3.443461   -1.484377   -1.045824
  C     -2.722031   -2.617221    0.971382
  C     -3.613765   -2.709615   -1.662398
  H     -3.663045   -0.563571   -1.570093
  C     -2.894419   -3.839396    0.346226
  H     -2.387904   -2.577397    2.002157
  C     -3.337812   -3.885728   -0.970204
  H     -3.967780   -2.754532   -2.684453
  H     -2.693139   -4.756513    0.884759
  O     -3.327865    0.917513    0.401819
  C     -3.358896    2.133954    1.195192
  H     -2.420611    2.204446    1.751167
  H     -4.191918    2.038954    1.895434
  H     -3.476333   -4.842497   -1.458176
  C     -3.535394    3.307100    0.263135
  H     -3.686330    4.194831    0.885674
  H     -4.458726    3.169450   -0.307491
  C     -2.355399    3.526914   -0.679105
  H     -1.441480    3.648198   -0.087139
  H     -2.208370    2.631835   -1.289013
  C     -2.552336    4.739582   -1.580169
  H     -2.670338    5.653881   -0.993756
  H     -1.699405    4.881095   -2.245725
  H     -3.443655    4.627980   -2.202310
  N      4.674113   -0.830782   -0.158231
  C      5.388586    0.286252   -0.487444
  C      6.866754    0.084574   -0.699889
  H      7.407315    0.725215   -0.002643
  H      7.193289   -0.946799   -0.566397
  H      7.119574    0.413558   -1.708132
  O      4.861015    1.377505   -0.601123
  H      5.167309   -1.704045   -0.080154

 Total Charge           Charge          ....    1
 Multiplicity           Mult            ....    1
 Number of Electrons    NEL             ....  206
 Basis Dimension        Dim             .... 2093

ORBITAL ENERGIES
----------------

  NO   OCC          E(Eh)            E(eV)
   0   2.0000     -20.807056      -566.1888
   1   2.0000     -20.731909      -564.1439
   2   2.0000     -20.599441      -560.5393
   3   2.0000     -15.800577      -429.9556
   4   2.0000     -15.676743      -426.5859
   5   2.0000     -11.484898      -312.5200
   6   2.0000     -11.434900      -311.1594
   7   2.0000     -11.405387      -310.3563
   8   2.0000     -11.405057      -310.3474
   9   2.0000     -11.401554      -310.2521
  10   2.0000     -11.378964      -309.6373
  11   2.0000     -11.377297      -309.5920
  12   2.0000     -11.372083      -309.4501
  13   2.0000     -11.365337      -309.2665
  14   2.0000     -11.363329      -309.2119
  15   2.0000     -11.355358      -308.9950
  16   2.0000     -11.354281      -308.9657
  17   2.0000     -11.341518      -308.6184
  18   2.0000     -11.332162      -308.3638
  19   2.0000     -11.330218      -308.3109
  20   2.0000     -11.329945      -308.3035
  21   2.0000     -11.328388      -308.2611
  22   2.0000     -11.325222      -308.1750
  23   2.0000     -11.323829      -308.1370
  24   2.0000     -11.311449      -307.8002
  25   2.0000     -11.311002      -307.7880
  26   2.0000     -11.292522      -307.2851
  27   2.0000      -1.642470       -44.6939
  28   2.0000      -1.564627       -42.5757
  29   2.0000      -1.469845       -39.9965
  30   2.0000      -1.333400       -36.2837
  31   2.0000      -1.300990       -35.4017
  32   2.0000      -1.292146       -35.1611
  33   2.0000      -1.225993       -33.3610
  34   2.0000      -1.203000       -32.7353
  35   2.0000      -1.167860       -31.7791
  36   2.0000      -1.158009       -31.5110
  37   2.0000      -1.146706       -31.2034
  38   2.0000      -1.115189       -30.3458
  39   2.0000      -1.097518       -29.8650
  40   2.0000      -1.074984       -29.2518
  41   2.0000      -1.065509       -28.9940
  42   2.0000      -1.053648       -28.6712
  43   2.0000      -1.044754       -28.4292
  44   2.0000      -1.043040       -28.3826
  45   2.0000      -0.979102       -26.6427
  46   2.0000      -0.962451       -26.1896
  47   2.0000      -0.952791       -25.9268
  48   2.0000      -0.944637       -25.7049
  49   2.0000      -0.937062       -25.4988
  50   2.0000      -0.908914       -24.7328
  51   2.0000      -0.894816       -24.3492
  52   2.0000      -0.867348       -23.6017
  53   2.0000      -0.844101       -22.9692
  54   2.0000      -0.827744       -22.5241
  55   2.0000      -0.815799       -22.1990
  56   2.0000      -0.808446       -21.9989
  57   2.0000      -0.804461       -21.8905
  58   2.0000      -0.791502       -21.5379
  59   2.0000      -0.786277       -21.3957
  60   2.0000      -0.777621       -21.1601
  61   2.0000      -0.745422       -20.2840
  62   2.0000      -0.742552       -20.2059
  63   2.0000      -0.738218       -20.0879
  64   2.0000      -0.729681       -19.8556
  65   2.0000      -0.727644       -19.8002
  66   2.0000      -0.718426       -19.5494
  67   2.0000      -0.715537       -19.4708
  68   2.0000      -0.705979       -19.2107
  69   2.0000      -0.701710       -19.0945
  70   2.0000      -0.698469       -19.0063
  71   2.0000      -0.689729       -18.7685
  72   2.0000      -0.686714       -18.6864
  73   2.0000      -0.685939       -18.6654
  74   2.0000      -0.683975       -18.6119
  75   2.0000      -0.670149       -18.2357
  76   2.0000      -0.663951       -18.0670
  77   2.0000      -0.655795       -17.8451
  78   2.0000      -0.649820       -17.6825
  79   2.0000      -0.647973       -17.6322
  80   2.0000      -0.639614       -17.4048
  81   2.0000      -0.638207       -17.3665
  82   2.0000      -0.637110       -17.3367
  83   2.0000      -0.629325       -17.1248
  84   2.0000      -0.627154       -17.0657
  85   2.0000      -0.624230       -16.9862
  86   2.0000      -0.623299       -16.9608
  87   2.0000      -0.617966       -16.8157
  88   2.0000      -0.609621       -16.5886
  89   2.0000      -0.607380       -16.5276
  90   2.0000      -0.597999       -16.2724
  91   2.0000      -0.596658       -16.2359
  92   2.0000      -0.585854       -15.9419
  93   2.0000      -0.575182       -15.6515
  94   2.0000      -0.573761       -15.6128
  95   2.0000      -0.567007       -15.4291
  96   2.0000      -0.561688       -15.2843
  97   2.0000      -0.560071       -15.2403
  98   2.0000      -0.505143       -13.7456
  99   2.0000      -0.497671       -13.5423
 100   2.0000      -0.483394       -13.1538
 101   2.0000      -0.465064       -12.6550
 102   2.0000      -0.429307       -11.6820
 103   0.0000      -0.141804        -3.8587
 104   0.0000      -0.057431        -1.5628
 105   0.0000      -0.049973        -1.3598
 106   0.0000      -0.044989        -1.2242
 107   0.0000      -0.041531        -1.1301

MULLIKEN ATOMIC CHARGES
-----------------------
   0 C :    2.007906
   1 C :    2.050255
   2 C :   -0.949890
   3 C :    0.786561
   4 C :   -1.122762
   5 H :    0.297680
   6 H :    0.358173
   7 H :    0.115452
   8 H :    0.275799
   9 H :    0.379795
  10 N :    0.857566
  11 O :   -0.477195
  12 C :   -2.094596
  13 H :   -0.072213
  14 H :    0.635575
  15 H :    0.173655
  16 C :   -1.896880
  17 H :    0.318075
  18 H :   -0.016699
  19 H :    1.145008
  20 C :   -1.888937
  21 H :    0.317500
  22 H :    0.002874
  23 H :    0.253529
  24 C :   -1.554389
  25 H :    0.299931
  26 H :    0.553195
  27 H :    0.025682
  28 C :    0.405569
  29 H :    0.623696
  30 H :    0.439475
  31 C :    0.602133
  32 C :   -0.251758
  33 C :   -0.529908
  34 C :   -0.865760
  35 H :    0.412407
  36 C :   -0.612448
  37 H :    0.201054
  38 C :   -0.187143
  39 H :    0.491470
  40 H :    0.415800
  41 O :   -0.707352
  42 C :   -0.523264
  43 H :    0.443449
  44 H :    0.311436
  45 H :    0.600413
  46 C :   -0.515308
  47 H :    0.260710
  48 H :    0.180198
  49 C :   -0.312205
  50 H :    0.212207
  51 H :    0.292951
  52 C :   -1.132295
  53 H :    0.275304
  54 H :    0.272941
  55 H :    0.269456
  56 N :   -0.551512
  57 C :    0.819062
  58 C :   -0.947567
  59 H :    0.326783
  60 H :    0.278564
  61 H :    0.327583
  62 O :   -1.047531
  63 H :   -0.059263
Sum of atomic charges:    1.0000000

LOEWDIN ATOMIC CHARGES
----------------------
   0 C :   -0.361974
   1 C :   -0.368558
   2 C :    0.334741
   3 C :   -0.064598
   4 C :    0.334107
   5 H :   -0.168804
   6 H :   -0.113491
   7 H :   -0.136226
   8 H :   -0.164157
   9 H :   -0.114842
  10 N :    0.113430
  11 O :    0.744761
  12 C :    0.604752
  13 H :   -0.141288
  14 H :   -0.165141
  15 H :   -0.143913
  16 C :    0.634249
  17 H :   -0.175991
  18 H :   -0.133020
  19 H :   -0.200031
  20 C :    0.603073
  21 H :   -0.163832
  22 H :   -0.142658
  23 H :   -0.143945
  24 C :    0.625669
  25 H :   -0.176357
  26 H :   -0.165086
  27 H :   -0.138710
  28 C :   -0.036761
  29 H :   -0.106241
  30 H :   -0.522921
  31 C :   -0.116286
  32 C :    0.237422
  33 C :    0.224040
  34 C :    0.236302
  35 H :   -0.164243
  36 C :    0.232546
  37 H :   -0.160777
  38 C :    0.237022
  39 H :   -0.166996
  40 H :   -0.168176
  41 O :    0.661004
  42 C :    0.119136
  43 H :   -0.151359
  44 H :   -0.129331
  45 H :   -0.161675
  46 C :    0.288050
  47 H :   -0.132972
  48 H :   -0.133656
  49 C :    0.249315
  50 H :   -0.145333
  51 H :   -0.159741
  52 C :    0.591932
  53 H :   -0.163902
  54 H :   -0.166593
  55 H :   -0.163904
  56 N :    0.600461
  57 C :   -0.653460
  58 C :    0.613540
  59 H :   -0.164461
  60 H :   -0.178906
  61 H :   -0.164540
  62 O :    0.487088
  63 H :   -0.277786

  Mayer bond orders larger than 0.100000
B(  0-C ,  1-C ) :  -0.1200 B(  0-C ,  8-H ) :  -0.1340 B(  0-C , 10-N ) :   0.8694
B(  0-C , 11-O ) :   0.1574 B(  0-C , 13-H ) :  -0.3033 B(  0-C , 15-H ) :  -0.1507
B(  0-C , 16-C ) :   0.2402 B(  0-C , 18-H ) :  -0.1670 B(  0-C , 30-H ) :   0.1075
B(  0-C , 62-O ) :  -0.1351 B(  1-C ,  2-C ) :   0.1099 B(  1-C , 10-N ) :   0.5600
B(  1-C , 11-O ) :   0.3400 B(  1-C , 12-C ) :  -0.1002 B(  1-C , 22-H ) :  -0.2459
B(  1-C , 23-H ) :  -0.1641 B(  1-C , 27-H ) :  -0.2376 B(  1-C , 30-H ) :   0.1562
B(  2-C ,  3-C ) :   0.8524 B(  2-C ,  5-H ) :   1.2213 B(  2-C ,  6-H ) :   0.8340
B(  2-C ,  7-H ) :   0.1360 B(  2-C , 20-C ) :  -0.1108 B(  2-C , 56-N ) :   0.1185
B(  3-C ,  4-C ) :   0.9373 B(  3-C ,  7-H ) :   0.8274 B(  3-C , 10-N ) :  -0.1313
B(  3-C , 56-N ) :  -0.2412 B(  3-C , 57-C ) :  -0.4751 B(  3-C , 58-C ) :   0.1713
B(  3-C , 62-O ) :   0.1332 B(  4-C ,  7-H ) :   0.1727 B(  4-C ,  8-H ) :   1.2874
B(  4-C ,  9-H ) :   0.7901 B(  4-C , 10-N ) :  -0.1025 B(  4-C , 56-N ) :   0.1180
B(  5-H , 62-O ) :  -0.1167 B(  7-H , 56-N ) :  -0.1009 B(  7-H , 57-C ) :   0.1227
B( 10-N , 12-C ) :  -0.4149 B( 10-N , 14-H ) :   0.1024 B( 10-N , 15-H ) :  -0.1838
B( 10-N , 16-C ) :   0.3896 B( 10-N , 20-C ) :  -0.2569 B( 10-N , 23-H ) :  -0.2128
B( 10-N , 24-C ) :   0.3378 B( 10-N , 28-C ) :   0.1870 B( 10-N , 29-H ) :   0.1077
B( 10-N , 30-H ) :   0.1416 B( 10-N , 31-C ) :   0.1633 B( 10-N , 35-H ) :  -0.1945
B( 10-N , 62-O ) :   0.1120 B( 11-O , 12-C ) :   0.1546 B( 11-O , 16-C ) :  -0.1145
B( 11-O , 28-C ) :  -0.1699 B( 11-O , 29-H ) :  -0.1250 B( 11-O , 30-H ) :   0.2858
B( 11-O , 31-C ) :   0.1709 B( 11-O , 35-H ) :   0.1721 B( 11-O , 42-C ) :  -0.1097
B( 11-O , 49-C ) :  -0.1488 B( 12-C , 13-H ) :   1.7263 B( 12-C , 14-H ) :   0.4877
B( 12-C , 15-H ) :   1.4000 B( 12-C , 16-C ) :   0.1436 B( 12-C , 19-H ) :  -0.1108
B( 13-H , 14-H ) :  -0.1027 B( 16-C , 17-H ) :   1.0825 B( 16-C , 18-H ) :   1.5029
B( 18-H , 19-H ) :  -0.1048 B( 19-H , 32-C ) :   0.1230 B( 19-H , 34-C ) :  -0.1045
B( 19-H , 36-C ) :  -0.1218 B( 19-H , 38-C ) :  -0.1308 B( 20-C , 21-H ) :   0.9272
B( 20-C , 22-H ) :   1.5552 B( 20-C , 23-H ) :   1.2468 B( 20-C , 24-C ) :   0.1540
B( 24-C , 25-H ) :   1.0874 B( 24-C , 26-H ) :   0.6737 B( 24-C , 27-H ) :   1.4400
B( 24-C , 30-H ) :  -0.1185 B( 28-C , 29-H ) :   0.8272 B( 28-C , 30-H ) :   0.5122
B( 28-C , 31-C ) :   0.5678 B( 28-C , 33-C ) :   0.1272 B( 28-C , 41-O ) :   1.0379
B( 29-H , 30-H ) :  -0.1551 B( 29-H , 31-C ) :  -0.2006 B( 30-H , 31-C ) :   0.4592
B( 30-H , 33-C ) :   0.1107 B( 30-H , 41-O ) :  -0.1596 B( 31-C , 32-C ) :   0.9383
B( 31-C , 33-C ) :   0.7454 B( 31-C , 34-C ) :   0.2326 B( 31-C , 36-C ) :   0.1027
B( 31-C , 40-H ) :  -0.1036 B( 31-C , 45-H ) :   0.1127 B( 32-C , 34-C ) :   1.2914
B( 32-C , 35-H ) :   0.8591 B( 33-C , 36-C ) :   1.3303 B( 33-C , 37-H ) :   1.1684
B( 33-C , 38-C ) :   0.1224 B( 34-C , 35-H ) :  -0.1061 B( 34-C , 38-C ) :   1.1226
B( 34-C , 39-H ) :   0.7326 B( 34-C , 45-H ) :  -0.1059 B( 36-C , 37-H ) :  -0.1400
B( 36-C , 38-C ) :   1.1291 B( 36-C , 40-H ) :   0.9109 B( 38-C , 45-H ) :   0.5823
B( 41-O , 42-C ) :   0.7659 B( 42-C , 43-H ) :   0.8165 B( 42-C , 44-H ) :   0.9237
B( 42-C , 46-C ) :   1.0035 B( 46-C , 47-H ) :   0.9718 B( 46-C , 48-H ) :   1.0474
B( 46-C , 49-C ) :   0.8552 B( 46-C , 50-H ) :   0.1325 B( 49-C , 50-H ) :   1.0023
B( 49-C , 51-H ) :   0.9635 B( 49-C , 52-C ) :   0.6447 B( 52-C , 53-H ) :   1.0207
B( 52-C , 54-H ) :   0.9956 B( 52-C , 55-H ) :   1.0304 B( 56-N , 57-C ) :   1.2773
B( 56-N , 58-C ) :   0.1067 B( 56-N , 63-H ) :   1.1798 B( 57-C , 58-C ) :   0.3459
B( 57-C , 62-O ) :   1.5180 B( 57-C , 63-H ) :  -0.1682 B( 58-C , 59-H ) :   0.9933
B( 58-C , 60-H ) :   0.9952 B( 58-C , 61-H ) :   0.9934 B( 58-C , 62-O ) :  -0.1197

MP2 TOTAL ENERGY:    -1193.164492954 Eh
FINAL SINGLE POINT ENERGY     -1193.164492954155

DIPOLE MOMENT
-------------
                                X             Y             Z
Electronic contribution:     -2.98543     -12.00021       0.38657
Nuclear contribution   :      2.05905       9.92880       0.62943
                        -----------------------------------------
Total Dipole Moment    :     -0.92638      -2.07141       1.01601
                        -----------------------------------------
Magnitude (a.u.)       :      2.48620
Magnitude (Debye)      :      6.31942

Rotational constants in cm-1:     0.007873     0.003875     0.003136
Rotational constants in MHz :   236.032292   116.181635    94.016895

                             ****ORCA TERMINATED NORMALLY****
TOTAL RUN TIME: 0 days 4 hours 32 minutes 9 seconds 289 msec
