                         Program Version 4.2.1 -  RELEASE  -
|  1> %pal
|  2>  nprocs 32
|  3> end
|  4> !RI-MP2 aug-cc-pVTZ aug-cc-pVTZ/C TightSCF
|  5> %maxcore 4500
|  6> *xyzfile 0 1  02_24P.xyz
|  7>
|  8>
|  9>                          ****END OF INPUT****

CARTESIAN COORDINATES (ANGSTROEM)
---------------------------------
  C      2.297962   -0.821276    0.482272
  C      1.069199   -0.920454   -0.419383
  C      0.050519   -1.972612   -0.135897
  C     -1.245476   -1.693198   -0.137762
  C     -1.824090   -0.316386   -0.346569
  C     -0.772067    0.774125   -0.238134
  C     -1.254459    2.189902   -0.089584
  H     -0.437431    2.905774   -0.173834
  H     -1.746739    2.352592    0.872831
  C      0.519090    0.470457   -0.276060
  C     -2.988674   -0.098281    0.630480
  H     -3.712070   -0.911426    0.542617
  H     -3.517149    0.834995    0.434323
  H     -1.965026   -2.489979    0.027212
  C      1.706959    1.365000   -0.017988
  H      1.545293    2.009522    0.853033
  H      1.971971    1.997897   -0.869805
  H      3.088449   -1.535269    0.251243
  H      2.010924   -0.928621    1.537026
  H      0.390619   -2.991294    0.023087
  H     -2.628196   -0.079215    1.662085
  H     -1.986482    2.432429   -0.866291
  O      2.805201    0.483479    0.225758
  H      1.440267   -1.048936   -1.446834
  H     -2.249813   -0.279966   -1.361004

 Total Charge           Charge          ....    0
 Multiplicity           Mult            ....    1
 Number of Electrons    NEL             ....   82
 Basis Dimension        Dim             ....  828

ORBITAL ENERGIES
----------------

  NO   OCC          E(Eh)            E(eV)
   0   2.0000     -20.549826      -559.1892
   1   2.0000     -11.273194      -306.7592
   2   2.0000     -11.270936      -306.6978
   3   2.0000     -11.239545      -305.8436
   4   2.0000     -11.231606      -305.6275
   5   2.0000     -11.230566      -305.5992
   6   2.0000     -11.227530      -305.5166
   7   2.0000     -11.225690      -305.4666
   8   2.0000     -11.222943      -305.3918
   9   2.0000     -11.222659      -305.3841
  10   2.0000     -11.218797      -305.2790
  11   2.0000      -1.374136       -37.3922
  12   2.0000      -1.147605       -31.2279
  13   2.0000      -1.060674       -28.8624
  14   2.0000      -1.048694       -28.5364
  15   2.0000      -0.980478       -26.6802
  16   2.0000      -0.961825       -26.1726
  17   2.0000      -0.901885       -24.5415
  18   2.0000      -0.836147       -22.7527
  19   2.0000      -0.814531       -22.1645
  20   2.0000      -0.769304       -20.9338
  21   2.0000      -0.686896       -18.6914
  22   2.0000      -0.672655       -18.3039
  23   2.0000      -0.652882       -17.7658
  24   2.0000      -0.640322       -17.4240
  25   2.0000      -0.611442       -16.6382
  26   2.0000      -0.607517       -16.5314
  27   2.0000      -0.578405       -15.7392
  28   2.0000      -0.567332       -15.4379
  29   2.0000      -0.554660       -15.0931
  30   2.0000      -0.542726       -14.7683
  31   2.0000      -0.540932       -14.7195
  32   2.0000      -0.535494       -14.5715
  33   2.0000      -0.522835       -14.2271
  34   2.0000      -0.507184       -13.8012
  35   2.0000      -0.476765       -12.9734
  36   2.0000      -0.472456       -12.8562
  37   2.0000      -0.436244       -11.8708
  38   2.0000      -0.417550       -11.3621
  39   2.0000      -0.355465        -9.6727
  40   2.0000      -0.330428        -8.9914
  41   0.0000       0.027896         0.7591
  42   0.0000       0.031599         0.8598
  43   0.0000       0.034279         0.9328
  44   0.0000       0.037006         1.0070
  45   0.0000       0.045226         1.2307

MULLIKEN ATOMIC CHARGES
-----------------------
   0 C :   -0.366622
   1 C :    0.230640
   2 C :   -0.805947
   3 C :   -0.923693
   4 C :    0.293760
   5 C :    1.089626
   6 C :   -1.240903
   7 H :    0.200297
   8 H :    0.221816
   9 C :    0.182393
  10 C :   -1.005604
  11 H :    0.228184
  12 H :    0.237830
  13 H :    0.352749
  14 C :   -0.509812
  15 H :    0.204786
  16 H :    0.261502
  17 H :    0.344713
  18 H :    0.293610
  19 H :    0.505936
  20 H :    0.318135
  21 H :    0.254216
  22 O :   -0.787304
  23 H :    0.244751
  24 H :    0.174940
Sum of atomic charges:   -0.0000000

LOEWDIN ATOMIC CHARGES
----------------------
   0 C :    0.060953
   1 C :   -0.048433
   2 C :    0.258236
   3 C :    0.246918
   4 C :   -0.038786
   5 C :   -0.043061
   6 C :    0.579072
   7 H :   -0.179327
   8 H :   -0.164824
   9 C :   -0.058645
  10 C :    0.580906
  11 H :   -0.165562
  12 H :   -0.174574
  13 H :   -0.174961
  14 C :    0.058639
  15 H :   -0.152637
  16 H :   -0.148215
  17 H :   -0.149572
  18 H :   -0.138932
  19 H :   -0.170234
  20 H :   -0.150363
  21 H :   -0.155069
  22 O :    0.575908
  23 H :   -0.120235
  24 H :   -0.127202

  Mayer bond orders larger than 0.100000
B(  0-C ,  1-C ) :   0.9370 B(  0-C ,  9-C ) :  -0.1310 B(  0-C , 17-H ) :   0.9440
B(  0-C , 18-H ) :   0.9866 B(  0-C , 22-O ) :   0.8040 B(  1-C ,  2-C ) :   0.4495
B(  1-C ,  9-C ) :   1.0522 B(  1-C , 22-O ) :   0.1278 B(  1-C , 23-H ) :   0.9315
B(  2-C ,  3-C ) :   1.5355 B(  2-C ,  5-C ) :  -0.3089 B(  2-C ,  9-C ) :   0.4663
B(  2-C , 13-H ) :  -0.1232 B(  2-C , 19-H ) :   0.7036 B(  3-C ,  4-C ) :   0.6929
B(  3-C ,  5-C ) :   0.2633 B(  3-C ,  9-C ) :  -0.1754 B(  3-C , 13-H ) :   0.9918
B(  4-C ,  5-C ) :   0.9596 B(  4-C , 10-C ) :   0.7269 B(  4-C , 24-H ) :   1.0582
B(  5-C ,  6-C ) :   0.5410 B(  5-C ,  8-H ) :  -0.1415 B(  5-C ,  9-C ) :   1.4348
B(  5-C , 10-C ) :   0.1244 B(  5-C , 14-C ) :  -0.4048 B(  5-C , 21-H ) :  -0.1245
B(  6-C ,  7-H ) :   1.0392 B(  6-C ,  8-H ) :   1.1344 B(  6-C ,  9-C ) :  -0.1733
B(  6-C , 21-H ) :   1.0903 B(  9-C , 14-C ) :   1.1399 B( 10-C , 11-H ) :   1.0526
B( 10-C , 12-H ) :   1.0081 B( 10-C , 20-H ) :   0.9568 B( 14-C , 15-H ) :   1.0591
B( 14-C , 16-H ) :   1.0479 B( 14-C , 22-O ) :   0.6995

MP2 TOTAL ENERGY:     -463.728487246 Eh
FINAL SINGLE POINT ENERGY      -463.728487245937

DIPOLE MOMENT
-------------
                                X             Y             Z
Electronic contribution:      7.16266      -2.41946      -1.60461
Nuclear contribution   :     -7.94625       2.33341       1.52673
                        -----------------------------------------
Total Dipole Moment    :     -0.78360      -0.08604      -0.07787
                        -----------------------------------------
Magnitude (a.u.)       :      0.79215
Magnitude (Debye)      :      2.01347

Rotational constants in cm-1:     0.062356     0.031708     0.022524
Rotational constants in MHz :  1869.377427   950.574834   675.260644

                             ****ORCA TERMINATED NORMALLY****
TOTAL RUN TIME: 0 days 0 hours 10 minutes 12 seconds 766 msec
