                         Program Version 4.2.1 -  RELEASE  -
|  1> %pal
|  2>  nprocs 32
|  3> end
|  4> !RI-MP2 aug-cc-pVTZ aug-cc-pVTZ/C TightSCF
|  5> %maxcore 4500
|  6> *xyzfile -1 1  05_11P2.xyz
|  7>
|  8>
|  9>                          ****END OF INPUT****

CARTESIAN COORDINATES (ANGSTROEM)
---------------------------------
  C      1.431395   -1.067462    0.068260
  N      1.618570    0.256136   -0.456377
  C      0.941459    1.381205   -0.069438
  N     -0.146468    1.157037    0.731137
  C     -0.777680   -0.154251    0.859306
  C      0.187869   -1.287515    0.666762
  O      1.294747    2.509665   -0.393104
  C     -1.970984   -0.224434   -0.131541
  H     -1.236443   -0.197796    1.852787
  O     -2.881790    0.570609   -0.130471
  O     -1.887655   -1.245679   -0.965819
  H      2.509076    0.415879   -0.901504
  H     -0.753991    1.959248    0.803003
  O      2.375786   -1.851741   -0.093056
  H     -1.007521   -1.668954   -0.693615
  H      0.103100   -2.148673    1.315513

 Total Charge           Charge          ....   -1
 Multiplicity           Mult            ....    1
 Number of Electrons    NEL             ....   82
 Basis Dimension        Dim             ....  621

ORBITAL ENERGIES
----------------

  NO   OCC          E(Eh)            E(eV)
   0   2.0000     -20.465711      -556.9003
   1   2.0000     -20.410572      -555.3999
   2   2.0000     -20.387044      -554.7597
   3   2.0000     -20.350332      -553.7607
   4   2.0000     -15.458040      -420.6346
   5   2.0000     -15.451174      -420.4478
   6   2.0000     -11.251101      -306.1580
   7   2.0000     -11.240947      -305.8817
   8   2.0000     -11.193335      -304.5861
   9   2.0000     -11.161848      -303.7293
  10   2.0000     -11.041866      -300.4645
  11   2.0000      -1.324869       -36.0515
  12   2.0000      -1.268614       -34.5207
  13   2.0000      -1.227082       -33.3906
  14   2.0000      -1.208224       -32.8774
  15   2.0000      -1.124075       -30.5876
  16   2.0000      -1.064044       -28.9541
  17   2.0000      -0.905347       -24.6357
  18   2.0000      -0.794483       -21.6190
  19   2.0000      -0.717387       -19.5211
  20   2.0000      -0.677603       -18.4385
  21   2.0000      -0.620310       -16.8795
  22   2.0000      -0.612405       -16.6644
  23   2.0000      -0.575690       -15.6653
  24   2.0000      -0.544106       -14.8059
  25   2.0000      -0.521675       -14.1955
  26   2.0000      -0.503559       -13.7025
  27   2.0000      -0.490972       -13.3600
  28   2.0000      -0.478274       -13.0145
  29   2.0000      -0.464172       -12.6308
  30   2.0000      -0.442047       -12.0287
  31   2.0000      -0.424521       -11.5518
  32   2.0000      -0.401453       -10.9241
  33   2.0000      -0.388109       -10.5610
  34   2.0000      -0.345213        -9.3937
  35   2.0000      -0.335073        -9.1178
  36   2.0000      -0.319232        -8.6867
  37   2.0000      -0.278910        -7.5895
  38   2.0000      -0.271385        -7.3848
  39   2.0000      -0.262491        -7.1428
  40   2.0000      -0.158715        -4.3188
  41   0.0000       0.113705         3.0941
  42   0.0000       0.125010         3.4017
  43   0.0000       0.130273         3.5449
  44   0.0000       0.138720         3.7748
  45   0.0000       0.140503         3.8233

MULLIKEN ATOMIC CHARGES
-----------------------
   0 C :    0.255846
   1 N :    0.244164
   2 C :    0.174376
   3 N :   -0.059668
   4 C :    0.229500
   5 C :   -0.172936
   6 O :   -0.859561
   7 C :    0.606044
   8 H :    0.280689
   9 O :   -0.846915
  10 O :   -0.598309
  11 H :    0.119853
  12 H :    0.039942
  13 O :   -0.995000
  14 H :    0.362917
  15 H :    0.219058
Sum of atomic charges:   -1.0000000

LOEWDIN ATOMIC CHARGES
----------------------
   0 C :   -0.766187
   1 N :    0.530209
   2 C :   -0.831985
   3 N :    0.552942
   4 C :   -0.169499
   5 C :    0.142097
   6 O :    0.390242
   7 C :   -0.818684
   8 H :   -0.152505
   9 O :    0.389800
  10 O :    0.811783
  11 H :   -0.307674
  12 H :   -0.298011
  13 O :    0.340734
  14 H :   -0.589697
  15 H :   -0.223566

  Mayer bond orders larger than 0.100000
B(  0-C ,  1-N ) :   0.7956 B(  0-C ,  2-C ) :  -0.1582 B(  0-C ,  4-C ) :   0.2198
B(  0-C ,  5-C ) :   0.7287 B(  0-C , 13-O ) :   1.0841 B(  1-N ,  2-C ) :   1.0016
B(  1-N ,  6-O ) :  -0.1049 B(  1-N , 11-H ) :   1.0414 B(  1-N , 13-O ) :  -0.1315
B(  2-C ,  3-N ) :   0.9899 B(  2-C ,  6-O ) :   1.5256 B(  3-N ,  4-C ) :   0.8137
B(  3-N ,  6-O ) :  -0.1210 B(  3-N , 12-H ) :   1.0830 B(  4-C ,  5-C ) :   0.9024
B(  4-C ,  7-C ) :   0.7239 B(  4-C ,  8-H ) :   0.8954 B(  5-C , 14-H ) :   0.1688
B(  5-C , 15-H ) :   1.0350 B(  7-C ,  9-O ) :   1.2903 B(  7-C , 10-O ) :   0.9369
B( 10-O , 14-H ) :   0.6693

MP2 TOTAL ENERGY:     -603.086765492 Eh
FINAL SINGLE POINT ENERGY      -603.086765492130

DIPOLE MOMENT
-------------
                                X             Y             Z
Electronic contribution:     -0.26120       1.75593      -1.55164
Nuclear contribution   :     -0.38195      -1.58052       2.27825
                        -----------------------------------------
Total Dipole Moment    :     -0.64315       0.17541       0.72661
                        -----------------------------------------
Magnitude (a.u.)       :      0.98609
Magnitude (Debye)      :      2.50645

Rotational constants in cm-1:     0.052018     0.034196     0.023498
Rotational constants in MHz :  1559.459078  1025.185259   704.455626

                             ****ORCA TERMINATED NORMALLY****
TOTAL RUN TIME: 0 days 0 hours 3 minutes 50 seconds 197 msec
