                         Program Version 4.2.1 -  RELEASE  -
|  1> %pal
|  2>  nprocs 32
|  3> end
|  4> !RI-MP2 aug-cc-pVTZ aug-cc-pVTZ/C TightSCF
|  5> %maxcore 4500
|  6> *xyzfile 0 1  02_22TS.xyz
|  7>
|  8>
|  9>                          ****END OF INPUT****

CARTESIAN COORDINATES (ANGSTROEM)
---------------------------------
  C     -0.840884   -0.209070    2.844695
  C     -1.200928   -0.385840    1.407835
  C     -2.040957    0.434891    0.702683
  C     -2.040957    0.434891   -0.702683
  C     -1.200928   -0.385840   -1.407835
  C      0.778527    0.210062   -0.615242
  C      1.298430    0.415058   -1.979498
  N      0.600196   -0.401284   -2.963234
  H      2.362176    0.165892   -2.019170
  H      1.205656    1.491924   -2.218810
  C      0.778527    0.210062    0.615242
  C     -0.840884   -0.209070   -2.844695
  H     -1.151168    0.792743   -3.193155
  H     -1.331691   -0.951687   -3.481596
  H     -0.928925   -1.352574   -1.001003
  H     -2.503190    1.275396   -1.211823
  H     -0.928925   -1.352574    1.001003
  C      1.298430    0.415058    1.979498
  N      0.600196   -0.401284    2.963234
  H      1.205656    1.491924    2.218810
  H      2.362176    0.165892    2.019170
  C      1.087017   -0.173258    4.305376
  H      2.154372   -0.395950    4.358219
  H      0.569347   -0.835569    5.001327
  H      0.934825    0.867754    4.642623
  C      1.087017   -0.173258   -4.305376
  H      2.154372   -0.395950   -4.358219
  H      0.934825    0.867754   -4.642623
  H      0.569347   -0.835569   -5.001327
  H     -1.331691   -0.951687    3.481596
  H     -1.151168    0.792743    3.193155
  H     -2.503190    1.275396    1.211823

 Total Charge           Charge          ....    0
 Multiplicity           Mult            ....    1
 Number of Electrons    NEL             ....  104
 Basis Dimension        Dim             .... 1058

ORBITAL ENERGIES
----------------

  NO   OCC          E(Eh)            E(eV)
   0   2.0000     -15.551129      -423.1677
   1   2.0000     -15.551129      -423.1677
   2   2.0000     -11.268966      -306.6441
   3   2.0000     -11.268965      -306.6441
   4   2.0000     -11.251678      -306.1737
   5   2.0000     -11.251678      -306.1737
   6   2.0000     -11.245272      -305.9994
   7   2.0000     -11.245272      -305.9994
   8   2.0000     -11.232797      -305.6600
   9   2.0000     -11.232777      -305.6594
  10   2.0000     -11.221193      -305.3442
  11   2.0000     -11.217986      -305.2569
  12   2.0000     -11.216243      -305.2095
  13   2.0000     -11.215118      -305.1789
  14   2.0000      -1.243823       -33.8461
  15   2.0000      -1.241770       -33.7903
  16   2.0000      -1.103726       -30.0339
  17   2.0000      -1.049744       -28.5650
  18   2.0000      -1.032028       -28.0829
  19   2.0000      -0.986621       -26.8473
  20   2.0000      -0.972876       -26.4733
  21   2.0000      -0.923705       -25.1353
  22   2.0000      -0.907165       -24.6852
  23   2.0000      -0.830909       -22.6102
  24   2.0000      -0.810885       -22.0653
  25   2.0000      -0.795590       -21.6491
  26   2.0000      -0.729413       -19.8483
  27   2.0000      -0.677940       -18.4477
  28   2.0000      -0.667999       -18.1772
  29   2.0000      -0.660592       -17.9756
  30   2.0000      -0.657681       -17.8964
  31   2.0000      -0.653133       -17.7726
  32   2.0000      -0.623152       -16.9568
  33   2.0000      -0.611304       -16.6344
  34   2.0000      -0.592398       -16.1200
  35   2.0000      -0.572512       -15.5788
  36   2.0000      -0.562268       -15.3001
  37   2.0000      -0.556503       -15.1432
  38   2.0000      -0.546437       -14.8693
  39   2.0000      -0.540777       -14.7153
  40   2.0000      -0.533948       -14.5295
  41   2.0000      -0.516069       -14.0429
  42   2.0000      -0.515155       -14.0181
  43   2.0000      -0.505962       -13.7679
  44   2.0000      -0.487119       -13.2552
  45   2.0000      -0.485916       -13.2225
  46   2.0000      -0.467091       -12.7102
  47   2.0000      -0.372413       -10.1339
  48   2.0000      -0.361226        -9.8295
  49   2.0000      -0.349421        -9.5082
  50   2.0000      -0.309021        -8.4089
  51   2.0000      -0.293900        -7.9974
  52   0.0000       0.028478         0.7749
  53   0.0000       0.029337         0.7983
  54   0.0000       0.035262         0.9595
  55   0.0000       0.037879         1.0307
  56   0.0000       0.042717         1.1624

MULLIKEN ATOMIC CHARGES
-----------------------
   0 C :   -0.110265
   1 C :    0.389223
   2 C :   -0.837254
   3 C :   -0.837236
   4 C :    0.389170
   5 C :    0.689885
   6 C :   -0.689341
   7 N :   -0.295018
   8 H :    0.177281
   9 H :    0.164600
  10 C :    0.689799
  11 C :   -0.110224
  12 H :    0.201009
  13 H :    0.432067
  14 H :    0.120319
  15 H :    0.047472
  16 H :    0.120273
  17 C :   -0.689300
  18 N :   -0.295015
  19 H :    0.164596
  20 H :    0.177284
  21 C :   -1.203566
  22 H :    0.295716
  23 H :    0.307183
  24 H :    0.310709
  25 C :   -1.203560
  26 H :    0.295716
  27 H :    0.310705
  28 H :    0.307187
  29 H :    0.432056
  30 H :    0.201002
  31 H :    0.047526
Sum of atomic charges:   -0.0000000

LOEWDIN ATOMIC CHARGES
----------------------
   0 C :    0.143042
   1 C :    0.137473
   2 C :    0.198197
   3 C :    0.198197
   4 C :    0.137473
   5 C :    0.097476
   6 C :    0.119173
   7 N :    0.248231
   8 H :   -0.148775
   9 H :   -0.132390
  10 C :    0.097476
  11 C :    0.143042
  12 H :   -0.132004
  13 H :   -0.136570
  14 H :   -0.182687
  15 H :   -0.177424
  16 H :   -0.182687
  17 C :    0.119173
  18 N :    0.248231
  19 H :   -0.132390
  20 H :   -0.148775
  21 C :    0.446627
  22 H :   -0.164937
  23 H :   -0.164745
  24 H :   -0.150687
  25 C :    0.446627
  26 H :   -0.164937
  27 H :   -0.150687
  28 H :   -0.164745
  29 H :   -0.136570
  30 H :   -0.132004
  31 H :   -0.177424

  Mayer bond orders larger than 0.100000
B(  0-C ,  1-C ) :   0.5846 B(  0-C , 10-C ) :   0.1988 B(  0-C , 18-N ) :   0.6975
B(  0-C , 29-H ) :   0.8758 B(  0-C , 30-H ) :   1.1442 B(  1-C ,  2-C ) :   0.9014
B(  1-C , 10-C ) :   0.3562 B(  1-C , 16-H ) :   1.1511 B(  1-C , 18-N ) :   0.1288
B(  1-C , 29-H ) :  -0.1302 B(  1-C , 31-H ) :  -0.1509 B(  2-C ,  3-C ) :   0.7805
B(  2-C , 15-H ) :  -0.1785 B(  2-C , 31-H ) :   1.4648 B(  3-C ,  4-C ) :   0.9014
B(  3-C , 15-H ) :   1.4649 B(  3-C , 31-H ) :  -0.1785 B(  4-C ,  5-C ) :   0.3563
B(  4-C ,  7-N ) :   0.1288 B(  4-C , 11-C ) :   0.5846 B(  4-C , 13-H ) :  -0.1302
B(  4-C , 14-H ) :   1.1511 B(  4-C , 15-H ) :  -0.1510 B(  5-C ,  6-C ) :   0.8197
B(  5-C ,  7-N ) :  -0.1818 B(  5-C ,  9-H ) :  -0.1163 B(  5-C , 10-C ) :   1.5866
B(  5-C , 11-C ) :   0.1988 B(  5-C , 17-C ) :  -0.3893 B(  5-C , 20-H ) :  -0.1132
B(  6-C ,  7-N ) :   0.9616 B(  6-C ,  8-H ) :   1.1675 B(  6-C ,  9-H ) :   1.2509
B(  6-C , 10-C ) :  -0.3893 B(  7-N , 11-C ) :   0.6975 B(  7-N , 25-C ) :   1.1194
B(  8-H , 10-C ) :  -0.1131 B( 10-C , 17-C ) :   0.8196 B( 10-C , 18-N ) :  -0.1818
B( 10-C , 19-H ) :  -0.1163 B( 11-C , 12-H ) :   1.1442 B( 11-C , 13-H ) :   0.8758
B( 14-H , 15-H ) :   0.1440 B( 16-H , 31-H ) :   0.1440 B( 17-C , 18-N ) :   0.9616
B( 17-C , 19-H ) :   1.2509 B( 17-C , 20-H ) :   1.1675 B( 18-N , 21-C ) :   1.1194
B( 21-C , 22-H ) :   0.9881 B( 21-C , 23-H ) :   0.9590 B( 21-C , 24-H ) :   0.9392
B( 25-C , 26-H ) :   0.9881 B( 25-C , 27-H ) :   0.9392 B( 25-C , 28-H ) :   0.9590

MP2 TOTAL ENERGY:     -576.272228540 Eh
FINAL SINGLE POINT ENERGY      -576.272228540498

DIPOLE MOMENT
-------------
                                X             Y             Z
Electronic contribution:     -2.39283      -1.62522       0.00000
Nuclear contribution   :      2.69936       2.16695       0.00000
                        -----------------------------------------
Total Dipole Moment    :      0.30653       0.54173       0.00000
                        -----------------------------------------
Magnitude (a.u.)       :      0.62244
Magnitude (Debye)      :      1.58211

Rotational constants in cm-1:     0.051210     0.013108     0.010944
Rotational constants in MHz :  1535.241320   392.967447   328.082800

                             ****ORCA TERMINATED NORMALLY****
TOTAL RUN TIME: 0 days 0 hours 21 minutes 21 seconds 637 msec
