                         Program Version 4.2.1 -  RELEASE  -
|  1> %pal
|  2>  nprocs 32
|  3> end
|  4> !RI-MP2 aug-cc-pVTZ aug-cc-pVTZ/C TightSCF
|  5> %maxcore 4500
|  6> *xyzfile 0 1  06_23R1.xyz
|  7>
|  8>
|  9>                          ****END OF INPUT****

CARTESIAN COORDINATES (ANGSTROEM)
---------------------------------
  C     -5.572372   -0.294702    0.582032
  C     -4.592949   -0.250964   -0.309682
  C     -3.339593    0.557604   -0.177003
  C     -2.075429   -0.304491   -0.177187
  C      0.469788   -0.337531   -0.086075
  C     -0.793620    0.515560   -0.089388
  C      1.752914    0.480807    0.004572
  C      3.016542   -0.371820    0.007972
  C      4.301025    0.445211    0.098797
  C      5.557678   -0.417706    0.101572
  H     -5.528984    0.286316    1.497833
  H     -6.452502   -0.908143    0.431255
  H     -4.676399   -0.852492   -1.213309
  H     -3.279861    1.268373   -1.010183
  H     -3.381989    1.152602    0.740557
  H     -2.121893   -1.006736    0.661861
  H     -2.054238   -0.916127   -1.086551
  H      0.494919   -0.950774   -0.994582
  H      0.429059   -1.041136    0.753671
  H     -0.818061    1.129681    0.818526
  H     -0.754580    1.218176   -0.930237
  H      1.793469    1.184686   -0.835148
  H      1.727579    1.093929    0.913206
  H      2.976577   -1.075975    0.847649
  H      3.042542   -0.985305   -0.900587
  H      4.340219    1.148119   -0.740485
  H      4.274219    1.057594    1.006688
  H      6.462552    0.190211    0.167228
  H      5.558494   -1.107970    0.949463
  H      5.624975   -1.016842   -0.810513

 Total Charge           Charge          ....    0
 Multiplicity           Mult            ....    1
 Number of Electrons    NEL             ....   80
 Basis Dimension        Dim             ....  920

ORBITAL ENERGIES
----------------

  NO   OCC          E(Eh)            E(eV)
   0   2.0000     -11.228850      -305.5525
   1   2.0000     -11.221861      -305.3624
   2   2.0000     -11.217185      -305.2351
   3   2.0000     -11.215508      -305.1895
   4   2.0000     -11.214681      -305.1670
   5   2.0000     -11.214585      -305.1644
   6   2.0000     -11.213441      -305.1332
   7   2.0000     -11.212776      -305.1151
   8   2.0000     -11.212141      -305.0979
   9   2.0000     -11.209071      -305.0143
  10   2.0000      -1.099717       -29.9248
  11   2.0000      -1.080033       -29.3892
  12   2.0000      -1.046616       -28.4799
  13   2.0000      -1.001336       -27.2478
  14   2.0000      -0.945736       -25.7348
  15   2.0000      -0.881803       -23.9951
  16   2.0000      -0.819537       -22.3007
  17   2.0000      -0.787573       -21.4309
  18   2.0000      -0.784811       -21.3558
  19   2.0000      -0.753210       -20.4959
  20   2.0000      -0.661047       -17.9880
  21   2.0000      -0.643968       -17.5233
  22   2.0000      -0.621991       -16.9252
  23   2.0000      -0.600417       -16.3382
  24   2.0000      -0.588028       -16.0010
  25   2.0000      -0.581364       -15.8197
  26   2.0000      -0.569242       -15.4899
  27   2.0000      -0.543156       -14.7800
  28   2.0000      -0.541118       -14.7246
  29   2.0000      -0.518838       -14.1183
  30   2.0000      -0.502062       -13.6618
  31   2.0000      -0.495535       -13.4842
  32   2.0000      -0.483082       -13.1453
  33   2.0000      -0.473566       -12.8864
  34   2.0000      -0.468972       -12.7614
  35   2.0000      -0.461026       -12.5452
  36   2.0000      -0.458238       -12.4693
  37   2.0000      -0.457991       -12.4626
  38   2.0000      -0.433112       -11.7856
  39   2.0000      -0.357888        -9.7386
  40   0.0000       0.030224         0.8224
  41   0.0000       0.031043         0.8447
  42   0.0000       0.034222         0.9312
  43   0.0000       0.035366         0.9624
  44   0.0000       0.039982         1.0880

MULLIKEN ATOMIC CHARGES
-----------------------
   0 C :   -1.056453
   1 C :   -0.263864
   2 C :   -0.068995
   3 C :   -0.496570
   4 C :   -0.328233
   5 C :   -0.328148
   6 C :   -0.341959
   7 C :   -0.305474
   8 C :   -0.520754
   9 C :   -1.013108
  10 H :    0.218929
  11 H :    0.499367
  12 H :    0.183546
  13 H :    0.233184
  14 H :    0.160882
  15 H :    0.239541
  16 H :    0.202922
  17 H :    0.212440
  18 H :    0.209872
  19 H :    0.208302
  20 H :    0.225530
  21 H :    0.223932
  22 H :    0.219707
  23 H :    0.226415
  24 H :    0.228247
  25 H :    0.220266
  26 H :    0.219573
  27 H :    0.272963
  28 H :    0.259143
  29 H :    0.258798
Sum of atomic charges:    0.0000000

LOEWDIN ATOMIC CHARGES
----------------------
   0 C :    0.521353
   1 C :    0.176164
   2 C :    0.241427
   3 C :    0.268657
   4 C :    0.274367
   5 C :    0.272833
   6 C :    0.272195
   7 C :    0.263545
   8 C :    0.251206
   9 C :    0.574765
  10 H :   -0.221237
  11 H :   -0.229462
  12 H :   -0.181191
  13 H :   -0.145344
  14 H :   -0.154439
  15 H :   -0.137709
  16 H :   -0.140157
  17 H :   -0.136947
  18 H :   -0.136767
  19 H :   -0.136576
  20 H :   -0.137543
  21 H :   -0.137442
  22 H :   -0.137444
  23 H :   -0.139013
  24 H :   -0.139052
  25 H :   -0.146065
  26 H :   -0.146051
  27 H :   -0.173157
  28 H :   -0.170446
  29 H :   -0.170467

  Mayer bond orders larger than 0.100000
B(  0-C ,  1-C ) :   1.3422 B(  0-C , 10-H ) :   1.1487 B(  0-C , 11-H ) :   0.6569
B(  1-C ,  2-C ) :   0.6653 B(  1-C , 12-H ) :   1.1487 B(  2-C ,  3-C ) :   1.0003
B(  2-C , 13-H ) :   0.9767 B(  2-C , 14-H ) :   1.0011 B(  3-C ,  5-C ) :   0.9429
B(  3-C , 15-H ) :   0.9779 B(  3-C , 16-H ) :   0.9677 B(  4-C ,  5-C ) :   0.9714
B(  4-C ,  6-C ) :   0.9599 B(  4-C , 17-H ) :   0.9566 B(  4-C , 18-H ) :   0.9585
B(  5-C , 19-H ) :   0.9670 B(  5-C , 20-H ) :   0.9523 B(  6-C ,  7-C ) :   0.9736
B(  6-C , 21-H ) :   0.9567 B(  6-C , 22-H ) :   0.9627 B(  7-C ,  8-C ) :   0.9211
B(  7-C , 23-H ) :   0.9635 B(  7-C , 24-H ) :   0.9654 B(  8-C ,  9-C ) :   0.9392
B(  8-C , 25-H ) :   0.9798 B(  8-C , 26-H ) :   0.9805 B(  9-C , 27-H ) :   0.9945
B(  9-C , 28-H ) :   0.9756 B(  9-C , 29-H ) :   0.9758

MP2 TOTAL ENERGY:     -392.209055085 Eh
FINAL SINGLE POINT ENERGY      -392.209055084817

DIPOLE MOMENT
-------------
                                X             Y             Z
Electronic contribution:     -8.01899       0.18866      -0.33729
Nuclear contribution   :      8.20059      -0.14119       0.28528
                        -----------------------------------------
Total Dipole Moment    :      0.18160       0.04747      -0.05201
                        -----------------------------------------
Magnitude (a.u.)       :      0.19478
Magnitude (Debye)      :      0.49509

Rotational constants in cm-1:     0.264053     0.008972     0.008887
Rotational constants in MHz :  7916.100843   268.988762   266.423163

                             ****ORCA TERMINATED NORMALLY****
TOTAL RUN TIME: 0 days 0 hours 8 minutes 17 seconds 884 msec
