                         Program Version 4.2.1 -  RELEASE  -
|  1> %pal
|  2>  nprocs 32
|  3> end
|  4> !RI-MP2 aug-cc-pVTZ aug-cc-pVTZ/C TightSCF
|  5> %maxcore 4500
|  6> *xyzfile -1 1  09_7P.xyz
|  7>
|  8>
|  9>                          ****END OF INPUT****

CARTESIAN COORDINATES (ANGSTROEM)
---------------------------------
  C     -1.784944    1.588583   -0.066194
  C     -2.354329    0.192346    0.067273
  O     -3.504459   -0.040566   -0.260647
  C     -1.419416   -0.865517    0.569164
  C     -0.368214   -1.205468   -0.512123
  C      0.921067   -0.850920   -0.552108
  C      1.475432   -0.017642    0.542310
  O      2.922424    0.008802    0.620469
  C      3.516444    0.490326   -0.552641
  H     -2.511419    2.242011   -0.548043
  H     -1.536708    1.980313    0.924933
  H     -0.859334    1.550215   -0.641421
  H      1.151075    1.036688    0.442048
  H      1.194059   -0.351127    1.554425
  H      4.599211    0.391140   -0.437421
  H      3.168339   -0.076539   -1.421595
  H      3.274863    1.556276   -0.714546
  H     -0.804194   -1.816547   -1.307097
  H     -2.020090   -1.743294    0.823837
  H     -0.915757   -0.505266    1.472213

 Total Charge           Charge          ....   -1
 Multiplicity           Mult            ....    1
 Number of Electrons    NEL             ....   70
 Basis Dimension        Dim             ....  667

ORBITAL ENERGIES
----------------

  NO   OCC          E(Eh)            E(eV)
   0   2.0000     -20.406922      -555.3006
   1   2.0000     -20.394006      -554.9491
   2   2.0000     -11.190779      -304.5166
   3   2.0000     -11.117715      -302.5284
   4   2.0000     -11.106858      -302.2330
   5   2.0000     -11.102185      -302.1058
   6   2.0000     -11.078488      -301.4610
   7   2.0000     -11.027723      -300.0796
   8   2.0000     -10.990675      -299.0715
   9   2.0000      -1.246779       -33.9266
  10   2.0000      -1.206740       -32.8371
  11   2.0000      -0.919411       -25.0184
  12   2.0000      -0.861774       -23.4501
  13   2.0000      -0.820741       -22.3335
  14   2.0000      -0.766798       -20.8656
  15   2.0000      -0.691967       -18.8294
  16   2.0000      -0.598743       -16.2926
  17   2.0000      -0.540325       -14.7030
  18   2.0000      -0.510320       -13.8865
  19   2.0000      -0.503748       -13.7077
  20   2.0000      -0.492052       -13.3894
  21   2.0000      -0.488899       -13.3036
  22   2.0000      -0.472722       -12.8634
  23   2.0000      -0.441992       -12.0272
  24   2.0000      -0.424408       -11.5487
  25   2.0000      -0.399772       -10.8783
  26   2.0000      -0.392313       -10.6754
  27   2.0000      -0.370696       -10.0872
  28   2.0000      -0.355151        -9.6641
  29   2.0000      -0.339307        -9.2330
  30   2.0000      -0.315255        -8.5785
  31   2.0000      -0.279184        -7.5970
  32   2.0000      -0.264169        -7.1884
  33   2.0000      -0.146479        -3.9859
  34   2.0000      -0.104356        -2.8397
  35   0.0000       0.110124         2.9966
  36   0.0000       0.115697         3.1483
  37   0.0000       0.120078         3.2675
  38   0.0000       0.126120         3.4319
  39   0.0000       0.131473         3.5776

MULLIKEN ATOMIC CHARGES
-----------------------
   0 C :   -0.798140
   1 C :    0.530002
   2 O :   -0.987574
   3 C :   -0.104058
   4 C :   -0.435498
   5 C :   -0.836394
   6 C :    0.218334
   7 O :   -0.703169
   8 C :   -0.896159
   9 H :    0.285716
  10 H :    0.272091
  11 H :    0.341398
  12 H :    0.258093
  13 H :    0.356835
  14 H :    0.341382
  15 H :    0.356930
  16 H :    0.283671
  17 H :    0.030932
  18 H :    0.273003
  19 H :    0.212607
Sum of atomic charges:   -1.0000000

LOEWDIN ATOMIC CHARGES
----------------------
   0 C :    0.566699
   1 C :   -0.559694
   2 O :    0.424615
   3 C :    0.191484
   4 C :    0.008469
   5 C :    0.057714
   6 C :   -0.155618
   7 O :    0.506325
   8 C :    0.226023
   9 H :   -0.190351
  10 H :   -0.173019
  11 H :   -0.199867
  12 H :   -0.199448
  13 H :   -0.207772
  14 H :   -0.209972
  15 H :   -0.241767
  16 H :   -0.192786
  17 H :   -0.267298
  18 H :   -0.180924
  19 H :   -0.202811

  Mayer bond orders larger than 0.100000
B(  0-C ,  1-C ) :   0.8558 B(  0-C ,  9-H ) :   0.9495 B(  0-C , 10-H ) :   0.9651
B(  0-C , 11-H ) :   0.8998 B(  1-C ,  2-O ) :   0.9935 B(  1-C ,  3-C ) :   0.7271
B(  1-C ,  4-C ) :   0.3187 B(  2-O ,  4-C ) :   0.1243 B(  3-C ,  4-C ) :   0.8254
B(  3-C ,  5-C ) :   0.1180 B(  3-C , 18-H ) :   0.9831 B(  3-C , 19-H ) :   0.9512
B(  4-C ,  5-C ) :   1.0436 B(  4-C , 17-H ) :   1.2076 B(  4-C , 18-H ) :  -0.1138
B(  4-C , 19-H ) :   0.1377 B(  5-C ,  6-C ) :   0.6683 B(  6-C ,  7-O ) :   0.5697
B(  6-C , 12-H ) :   0.9459 B(  6-C , 13-H ) :   0.9189 B(  7-O ,  8-C ) :   1.0344
B(  8-C , 14-H ) :   0.9309 B(  8-C , 15-H ) :   0.8339 B(  8-C , 16-H ) :   0.9184

MP2 TOTAL ENERGY:     -422.939306827 Eh
FINAL SINGLE POINT ENERGY      -422.939306826783

DIPOLE MOMENT
-------------
                                X             Y             Z
Electronic contribution:     -5.15673      -2.73096       0.78248
Nuclear contribution   :      4.82105       4.34464       0.15592
                        -----------------------------------------
Total Dipole Moment    :     -0.33568       1.61368       0.93841
                        -----------------------------------------
Magnitude (a.u.)       :      1.89664
Magnitude (Debye)      :      4.82088

Rotational constants in cm-1:     0.132448     0.022616     0.021090
Rotational constants in MHz :  3970.687643   678.019315   632.269540

                             ****ORCA TERMINATED NORMALLY****
TOTAL RUN TIME: 0 days 0 hours 4 minutes 51 seconds 236 msec
