                         Program Version 4.2.1 -  RELEASE  -
|  1> %pal
|  2>  nprocs 32
|  3> end
|  4> !RI-MP2 aug-cc-pVTZ aug-cc-pVTZ/C TightSCF
|  5> %maxcore 4500
|  6> *xyzfile 0 1  03_33P2.xyz
|  7>
|  8>
|  9>                          ****END OF INPUT****

CARTESIAN COORDINATES (ANGSTROEM)
---------------------------------
  C     -0.654023    0.390951    0.344167
  C      0.678540    0.161465   -0.280003
  C      1.791859   -0.030783    0.413891
  C      3.147715   -0.238360   -0.179240
  C     -1.322427    1.672125   -0.115931
  H      0.702521    0.169561   -1.367364
  H      1.731284   -0.046611    1.500630
  H      3.115207   -0.209841   -1.269334
  H      3.560542   -1.203920    0.126140
  H      3.847491    0.528846    0.163676
  H     -1.441504    1.676967   -1.200693
  H     -0.700172    2.524282    0.167758
  H     -2.305614    1.787264    0.340431
  H     -0.570461    0.365859    1.429212
  Cl    -1.752310   -1.019106   -0.058103

 Total Charge           Charge          ....    0
 Multiplicity           Mult            ....    1
 Number of Electrons    NEL             ....   56
 Basis Dimension        Dim             ....  487

ORBITAL ENERGIES
----------------

  NO   OCC          E(Eh)            E(eV)
   0   2.0000    -104.812508     -2852.0933
   1   2.0000     -11.301453      -307.5282
   2   2.0000     -11.242774      -305.9314
   3   2.0000     -11.234921      -305.7177
   4   2.0000     -11.230537      -305.5984
   5   2.0000     -11.229246      -305.5633
   6   2.0000     -10.536871      -286.7228
   7   2.0000      -8.003561      -217.7880
   8   2.0000      -8.001904      -217.7429
   9   2.0000      -8.001886      -217.7424
  10   2.0000      -1.147733       -31.2314
  11   2.0000      -1.072961       -29.1967
  12   2.0000      -1.003194       -27.2983
  13   2.0000      -0.946015       -25.7424
  14   2.0000      -0.827597       -22.5201
  15   2.0000      -0.768263       -20.9055
  16   2.0000      -0.653826       -17.7915
  17   2.0000      -0.623168       -16.9573
  18   2.0000      -0.588079       -16.0024
  19   2.0000      -0.576258       -15.6808
  20   2.0000      -0.569210       -15.4890
  21   2.0000      -0.547725       -14.9044
  22   2.0000      -0.524753       -14.2792
  23   2.0000      -0.508001       -13.8234
  24   2.0000      -0.491589       -13.3768
  25   2.0000      -0.430732       -11.7208
  26   2.0000      -0.425924       -11.5900
  27   2.0000      -0.361860        -9.8467
  28   0.0000       0.027940         0.7603
  29   0.0000       0.033750         0.9184
  30   0.0000       0.036309         0.9880
  31   0.0000       0.043210         1.1758
  32   0.0000       0.051243         1.3944

MULLIKEN ATOMIC CHARGES
-----------------------
   0 C :    0.350768
   1 C :   -0.269354
   2 C :   -0.504903
   3 C :   -0.766950
   4 C :   -0.987181
   5 H :    0.317618
   6 H :    0.274505
   7 H :    0.276815
   8 H :    0.291956
   9 H :    0.279849
  10 H :    0.297354
  11 H :    0.314727
  12 H :    0.296265
  13 H :    0.293398
  14 Cl:   -0.464867
Sum of atomic charges:    0.0000000

LOEWDIN ATOMIC CHARGES
----------------------
   0 C :   -0.593963
   1 C :    0.107641
   2 C :    0.202287
   3 C :    0.558002
   4 C :    0.491813
   5 H :   -0.183809
   6 H :   -0.178138
   7 H :   -0.180635
   8 H :   -0.174429
   9 H :   -0.175626
  10 H :   -0.179867
  11 H :   -0.167746
  12 H :   -0.184178
  13 H :   -0.234046
  14 Cl:    0.892693

  Mayer bond orders larger than 0.100000
B(  0-C ,  1-C ) :   1.0061 B(  0-C ,  4-C ) :   0.8709 B(  0-C , 13-H ) :   0.9123
B(  0-C , 14-Cl) :   0.6123 B(  1-C ,  2-C ) :   1.2041 B(  1-C ,  5-H ) :   0.9259
B(  2-C ,  3-C ) :   0.7954 B(  2-C ,  6-H ) :   1.0440 B(  3-C ,  7-H ) :   0.9432
B(  3-C ,  8-H ) :   0.9651 B(  3-C ,  9-H ) :   0.9762 B(  4-C , 10-H ) :   0.9479
B(  4-C , 11-H ) :   0.9191 B(  4-C , 12-H ) :   0.9686

MP2 TOTAL ENERGY:     -655.214870676 Eh
FINAL SINGLE POINT ENERGY      -655.214870675874

DIPOLE MOMENT
-------------
                                X             Y             Z
Electronic contribution:     -9.73969      -6.37531       0.22025
Nuclear contribution   :     10.50539       7.09031      -0.02657
                        -----------------------------------------
Total Dipole Moment    :      0.76569       0.71500       0.19368
                        -----------------------------------------
Magnitude (a.u.)       :      1.06538
Magnitude (Debye)      :      2.70798

Rotational constants in cm-1:     0.166736     0.046622     0.038881
Rotational constants in MHz :  4998.621348  1397.695438  1165.626066

                             ****ORCA TERMINATED NORMALLY****
TOTAL RUN TIME: 0 days 0 hours 1 minutes 32 seconds 22 msec
