                         Program Version 4.2.1 -  RELEASE  -
|  1> %pal
|  2>  nprocs 32
|  3> end
|  4> !RI-MP2 aug-cc-pVTZ aug-cc-pVTZ/C TightSCF
|  5> %maxcore 4500
|  6> *xyzfile 0 1  02_35TS.xyz
|  7>
|  8>
|  9>                          ****END OF INPUT****

CARTESIAN COORDINATES (ANGSTROEM)
---------------------------------
  C      0.084594   -0.970723   -0.893587
  C      2.303971   -0.720893    0.029777
  C     -0.441546   -0.028215   -0.002747
  H     -0.179796   -0.175677    1.035946
  C      2.204227    0.684789    0.228658
  C      1.369259   -1.448344   -0.699881
  C      3.622070    1.198035    0.324280
  H      1.730727   -2.312127   -1.250556
  H     -0.459692   -1.244203   -1.789423
  C     -1.697154    0.722911   -0.234978
  H     -1.704555    1.565148    0.466857
  C     -1.850546    1.254131   -1.662677
  H     -0.980436    1.849935   -1.949491
  H     -1.944479    0.447757   -2.392098
  H     -2.736521    1.884802   -1.755619
  N      1.127607    1.387507    0.236734
  C      1.185890    2.825834    0.075623
  H      1.675835    3.131478   -0.856060
  H      0.171785    3.226554    0.072995
  H      1.719496    3.290770    0.911979
  O      4.451628    0.045925    0.371258
  H      3.783986    1.790269    1.227784
  H      3.887322    1.804452   -0.546919
  C      3.714408   -1.091687    0.119139
  O      4.240958   -2.159752   -0.001448
  Si    -3.203533   -0.329253    0.321684
  C     -2.877020   -0.983927    2.047759
  C     -4.701646    0.801371    0.335248
  C     -3.482803   -1.748663   -0.869021
  H     -3.755340   -1.506404    2.435174
  H     -2.043638   -1.690056    2.057574
  H     -2.640903   -0.176532    2.745822
  H     -4.549656    1.658160    0.996555
  H     -4.930959    1.183965   -0.661824
  H     -5.584623    0.263699    0.690350
  H     -3.670454   -1.395954   -1.885835
  H     -2.622636   -2.420514   -0.896607
  H     -4.352165   -2.335629   -0.561353

 Total Charge           Charge          ....    0
 Multiplicity           Mult            ....    1
 Number of Electrons    NEL             ....  136
 Basis Dimension        Dim             .... 1269

ORBITAL ENERGIES
----------------

  NO   OCC          E(Eh)            E(eV)
   0   2.0000     -68.768946     -1871.2982
   1   2.0000     -20.588839      -560.2508
   2   2.0000     -20.517345      -558.3053
   3   2.0000     -15.564185      -423.5230
   4   2.0000     -11.358797      -309.0886
   5   2.0000     -11.303971      -307.5967
   6   2.0000     -11.303774      -307.5913
   7   2.0000     -11.300246      -307.4953
   8   2.0000     -11.269109      -306.6481
   9   2.0000     -11.264871      -306.5327
  10   2.0000     -11.234479      -305.7057
  11   2.0000     -11.233735      -305.6855
  12   2.0000     -11.219624      -305.3015
  13   2.0000     -11.215426      -305.1873
  14   2.0000     -11.210560      -305.0549
  15   2.0000     -11.208876      -305.0090
  16   2.0000     -11.206853      -304.9540
  17   2.0000      -6.116442      -166.4369
  18   2.0000      -4.222718      -114.9060
  19   2.0000      -4.222542      -114.9012
  20   2.0000      -4.222478      -114.8995
  21   2.0000      -1.444280       -39.3009
  22   2.0000      -1.350105       -36.7382
  23   2.0000      -1.250046       -34.0155
  24   2.0000      -1.129023       -30.7223
  25   2.0000      -1.088440       -29.6180
  26   2.0000      -1.024994       -27.8915
  27   2.0000      -0.983806       -26.7707
  28   2.0000      -0.975806       -26.5530
  29   2.0000      -0.952812       -25.9273
  30   2.0000      -0.937377       -25.5073
  31   2.0000      -0.935691       -25.4615
  32   2.0000      -0.920082       -25.0367
  33   2.0000      -0.851495       -23.1703
  34   2.0000      -0.789801       -21.4916
  35   2.0000      -0.762641       -20.7525
  36   2.0000      -0.720008       -19.5924
  37   2.0000      -0.689807       -18.7706
  38   2.0000      -0.683769       -18.6063
  39   2.0000      -0.669982       -18.2311
  40   2.0000      -0.658193       -17.9103
  41   2.0000      -0.644339       -17.5334
  42   2.0000      -0.621659       -16.9162
  43   2.0000      -0.610378       -16.6092
  44   2.0000      -0.602129       -16.3848
  45   2.0000      -0.597045       -16.2464
  46   2.0000      -0.587244       -15.9797
  47   2.0000      -0.581235       -15.8162
  48   2.0000      -0.575296       -15.6546
  49   2.0000      -0.572866       -15.5885
  50   2.0000      -0.561939       -15.2911
  51   2.0000      -0.557037       -15.1577
  52   2.0000      -0.551031       -14.9943
  53   2.0000      -0.548385       -14.9223
  54   2.0000      -0.544252       -14.8098
  55   2.0000      -0.541628       -14.7385
  56   2.0000      -0.537092       -14.6150
  57   2.0000      -0.517077       -14.0704
  58   2.0000      -0.503989       -13.7142
  59   2.0000      -0.490405       -13.3446
  60   2.0000      -0.466212       -12.6863
  61   2.0000      -0.442936       -12.0529
  62   2.0000      -0.441515       -12.0142
  63   2.0000      -0.438647       -11.9362
  64   2.0000      -0.428275       -11.6539
  65   2.0000      -0.406775       -11.0689
  66   2.0000      -0.367566       -10.0020
  67   2.0000      -0.293300        -7.9811
  68   0.0000       0.017000         0.4626
  69   0.0000       0.023925         0.6510
  70   0.0000       0.026713         0.7269
  71   0.0000       0.030174         0.8211
  72   0.0000       0.037821         1.0292

MULLIKEN ATOMIC CHARGES
-----------------------
   0 C :   -0.159536
   1 C :    1.128608
   2 C :    0.244641
   3 H :    0.189651
   4 C :   -0.379939
   5 C :   -0.901275
   6 C :    0.055640
   7 H :   -0.180135
   8 H :    0.133945
   9 C :    0.577093
  10 H :    0.344489
  11 C :   -1.261484
  12 H :    0.358009
  13 H :    0.285827
  14 H :    0.278849
  15 N :   -0.287060
  16 C :   -1.149511
  17 H :    0.340356
  18 H :    0.411201
  19 H :    0.320256
  20 O :   -0.509188
  21 H :    0.289536
  22 H :    0.307895
  23 C :    0.368324
  24 O :   -0.944421
  25 Si:    2.336476
  26 C :   -1.443281
  27 C :   -1.576768
  28 C :   -1.233960
  29 H :    0.124083
  30 H :    0.324437
  31 H :    0.219522
  32 H :    0.246734
  33 H :    0.220739
  34 H :    0.207284
  35 H :    0.219910
  36 H :    0.350582
  37 H :    0.142471
Sum of atomic charges:   -0.0000000

LOEWDIN ATOMIC CHARGES
----------------------
   0 C :    0.211016
   1 C :   -0.115476
   2 C :    0.079123
   3 H :   -0.178795
   4 C :   -0.287212
   5 C :    0.228841
   6 C :    0.074315
   7 H :   -0.152584
   8 H :   -0.193682
   9 C :    0.001970
  10 H :   -0.187026
  11 C :    0.549796
  12 H :   -0.158648
  13 H :   -0.175110
  14 H :   -0.164808
  15 N :    0.399192
  16 C :    0.428824
  17 H :   -0.164653
  18 H :   -0.183692
  19 H :   -0.169288
  20 O :    0.582738
  21 H :   -0.145181
  22 H :   -0.141075
  23 C :   -0.837481
  24 O :    0.424743
  25 Si:    0.527900
  26 C :    0.593516
  27 C :    0.591268
  28 C :    0.591124
  29 H :   -0.223985
  30 H :   -0.225671
  31 H :   -0.221113
  32 H :   -0.223420
  33 H :   -0.230095
  34 H :   -0.225399
  35 H :   -0.225141
  36 H :   -0.231152
  37 H :   -0.223678

  Mayer bond orders larger than 0.100000
B(  0-C ,  1-C ) :   0.3187 B(  0-C ,  2-C ) :   0.7230 B(  0-C ,  3-H ) :   0.2951
B(  0-C ,  4-C ) :   0.1814 B(  0-C ,  5-C ) :   0.4792 B(  0-C ,  8-H ) :   1.2187
B(  0-C ,  9-C ) :   0.2385 B(  0-C , 23-C ) :  -0.1491 B(  0-C , 25-Si) :  -0.1906
B(  1-C ,  2-C ) :   0.1291 B(  1-C ,  3-H ) :  -0.1061 B(  1-C ,  4-C ) :   0.3405
B(  1-C ,  5-C ) :   0.6555 B(  1-C ,  7-H ) :  -0.4585 B(  1-C ,  9-C ) :   0.1218
B(  1-C , 15-N ) :  -0.1088 B(  1-C , 20-O ) :  -0.1960 B(  1-C , 23-C ) :   0.2808
B(  2-C ,  3-H ) :   0.9386 B(  2-C ,  5-C ) :   0.2943 B(  2-C ,  8-H ) :  -0.1823
B(  2-C ,  9-C ) :   0.9749 B(  2-C , 10-H ) :  -0.2322 B(  2-C , 11-C ) :   0.1172
B(  2-C , 25-Si) :   0.5153 B(  2-C , 26-C ) :  -0.1279 B(  3-H ,  4-C ) :  -0.1344
B(  3-H ,  9-C ) :   0.2050 B(  4-C ,  5-C ) :   0.2412 B(  4-C ,  6-C ) :   0.3250
B(  4-C ,  7-H ) :   0.2313 B(  4-C ,  8-H ) :  -0.1276 B(  4-C , 15-N ) :   1.7569
B(  4-C , 20-O ) :   0.1317 B(  4-C , 22-H ) :  -0.1116 B(  5-C ,  7-H ) :   1.6609
B(  5-C ,  9-C ) :  -0.1499 B(  5-C , 23-C ) :   0.3068 B(  6-C , 15-N ) :  -0.1150
B(  6-C , 20-O ) :   0.5556 B(  6-C , 21-H ) :   1.0559 B(  6-C , 22-H ) :   1.0504
B(  7-H , 24-O ) :   0.2170 B(  9-C , 10-H ) :   0.8554 B(  9-C , 11-C ) :   0.5928
B(  9-C , 16-C ) :  -0.1155 B(  9-C , 25-Si) :   0.9762 B(  9-C , 26-C ) :   0.2518
B(  9-C , 28-C ) :   0.2345 B( 10-H , 25-Si) :  -0.2310 B( 11-C , 12-H ) :   0.9002
B( 11-C , 13-H ) :   1.0970 B( 11-C , 14-H ) :   1.0297 B( 15-N , 16-C ) :   0.9702
B( 16-C , 17-H ) :   0.9296 B( 16-C , 18-H ) :   0.8481 B( 16-C , 19-H ) :   0.9693
B( 20-O , 23-C ) :   1.0444 B( 20-O , 24-O ) :  -0.1206 B( 23-C , 24-O ) :   1.0236
B( 25-Si, 28-C ) :   0.2861 B( 26-C , 27-C ) :   0.1898 B( 26-C , 28-C ) :   0.1580
B( 26-C , 29-H ) :   1.1318 B( 26-C , 30-H ) :   0.9363 B( 26-C , 31-H ) :   1.0535
B( 27-C , 28-C ) :   0.1993 B( 27-C , 32-H ) :   1.0127 B( 27-C , 33-H ) :   1.0685
B( 27-C , 34-H ) :   1.1138 B( 28-C , 35-H ) :   1.0503 B( 28-C , 36-H ) :   0.9034
B( 28-C , 37-H ) :   1.0815

MP2 TOTAL ENERGY:    -1000.871378502 Eh
FINAL SINGLE POINT ENERGY     -1000.871378501739

DIPOLE MOMENT
-------------
                                X             Y             Z
Electronic contribution:     26.79875      -7.06692       1.78632
Nuclear contribution   :    -29.30940       8.97583      -1.94768
                        -----------------------------------------
Total Dipole Moment    :     -2.51066       1.90890      -0.16136
                        -----------------------------------------
Magnitude (a.u.)       :      3.15806
Magnitude (Debye)      :      8.02715

Rotational constants in cm-1:     0.027946     0.007197     0.006444
Rotational constants in MHz :   837.799672   215.760704   193.198464

                             ****ORCA TERMINATED NORMALLY****
TOTAL RUN TIME: 0 days 0 hours 48 minutes 47 seconds 789 msec
