                         Program Version 4.2.1 -  RELEASE  -
|  1> %pal
|  2>  nprocs 32
|  3> end
|  4> !RI-MP2 aug-cc-pVTZ aug-cc-pVTZ/C TightSCF
|  5> %maxcore 4500
|  6> *xyzfile -1 1  02_14P.xyz
|  7>
|  8>
|  9>                          ****END OF INPUT****

CARTESIAN COORDINATES (ANGSTROEM)
---------------------------------
  C      4.477615   -2.003505   -0.438977
  C      3.049245   -1.659029   -0.016938
  H      2.336549   -2.251542   -0.588361
  H      2.906513   -1.906918    1.043485
  H      4.683265   -3.063219   -0.255942
  H      4.567986   -1.851428   -1.521344
  C      2.756824   -0.171586   -0.222591
  C      1.335079    0.241865    0.162021
  C      3.770155    0.654989    0.580855
  C      3.450893    2.120456    0.538524
  C      2.252624    2.590606    0.216563
  C      1.073057    1.736735   -0.156173
  C      0.680235    2.014182   -1.614109
  H      1.441104    1.646849   -2.305852
  H     -0.260917    1.527263   -1.870564
  H      0.566352    3.090927   -1.774193
  C      0.259345   -0.608785   -0.522744
  C     -1.023353   -0.721341    0.118567
  O      0.518914   -1.117721   -1.611195
  C     -1.392827   -0.175754    1.413784
  C     -2.170467   -1.364153   -0.444176
  O     -2.362391   -1.933517   -1.511350
  O     -0.766860    0.532035    2.203805
  C     -3.332682   -1.208037    0.562641
  H     -3.689824   -2.213584    0.815144
  C     -4.502223   -0.421522   -0.046889
  C     -4.081950    0.985026   -0.484743
  H     -3.185472    0.900764   -1.102539
  H     -3.791320    1.568695    0.395248
  C     -5.152956    1.737210   -1.269327
  H     -6.039338    1.946210   -0.664899
  H     -4.769850    2.695438   -1.628984
  H     -5.472601    1.160297   -2.142152
  N     -2.691018   -0.584009    1.696134
  H     -3.191260   -0.062696    2.397504
  C     -5.700024   -0.402782    0.902951
  H     -5.959497   -1.416297    1.220131
  H     -5.484142    0.183747    1.802748
  H     -6.584788    0.034739    0.435443
  H     -4.776147   -0.985505   -0.945773
  C      5.198689    0.350035    0.124806
  H      5.912539    0.951086    0.699862
  H      5.307763    0.649027   -0.925023
  C      5.514775   -1.137062    0.275716
  H      6.520305   -1.354167   -0.100373
  H      5.517753   -1.389797    1.343418
  H      4.249225    2.811350    0.804080
  H      2.089582    3.666623    0.200726
  H      1.217800    0.141457    1.243322
  H      0.234962    2.038467    0.479027
  H      2.905477    0.048649   -1.286635
  H      3.695470    0.329947    1.630907

 Total Charge           Charge          ....   -1
 Multiplicity           Mult            ....    1
 Number of Electrons    NEL             ....  180
 Basis Dimension        Dim             .... 1748

ORBITAL ENERGIES
----------------

  NO   OCC          E(Eh)            E(eV)
   0   2.0000     -20.370573      -554.3115
   1   2.0000     -20.369448      -554.2808
   2   2.0000     -20.366204      -554.1926
   3   2.0000     -15.438316      -420.0979
   4   2.0000     -11.203339      -304.8583
   5   2.0000     -11.170468      -303.9639
   6   2.0000     -11.169795      -303.9456
   7   2.0000     -11.139666      -303.1257
   8   2.0000     -11.125689      -302.7454
   9   2.0000     -11.125494      -302.7401
  10   2.0000     -11.123830      -302.6948
  11   2.0000     -11.123507      -302.6860
  12   2.0000     -11.123479      -302.6853
  13   2.0000     -11.118927      -302.5614
  14   2.0000     -11.117170      -302.5136
  15   2.0000     -11.117161      -302.5133
  16   2.0000     -11.115363      -302.4644
  17   2.0000     -11.114617      -302.4441
  18   2.0000     -11.111204      -302.3512
  19   2.0000     -11.102848      -302.1239
  20   2.0000     -11.097757      -301.9853
  21   2.0000     -11.096334      -301.9466
  22   2.0000     -11.091985      -301.8282
  23   2.0000     -11.052686      -300.7589
  24   2.0000      -1.234693       -33.5977
  25   2.0000      -1.215854       -33.0851
  26   2.0000      -1.206624       -32.8339
  27   2.0000      -1.109620       -30.1943
  28   2.0000      -1.040534       -28.3144
  29   2.0000      -0.986129       -26.8339
  30   2.0000      -0.985590       -26.8193
  31   2.0000      -0.933042       -25.3894
  32   2.0000      -0.907185       -24.6858
  33   2.0000      -0.901654       -24.5352
  34   2.0000      -0.895653       -24.3719
  35   2.0000      -0.873109       -23.7585
  36   2.0000      -0.832231       -22.6462
  37   2.0000      -0.814963       -22.1763
  38   2.0000      -0.766425       -20.8555
  39   2.0000      -0.741577       -20.1793
  40   2.0000      -0.727555       -19.7978
  41   2.0000      -0.712963       -19.4007
  42   2.0000      -0.675064       -18.3694
  43   2.0000      -0.672714       -18.3055
  44   2.0000      -0.658176       -17.9099
  45   2.0000      -0.619455       -16.8562
  46   2.0000      -0.590963       -16.0809
  47   2.0000      -0.570685       -15.5291
  48   2.0000      -0.551118       -14.9967
  49   2.0000      -0.541181       -14.7263
  50   2.0000      -0.535143       -14.5620
  51   2.0000      -0.532265       -14.4837
  52   2.0000      -0.522054       -14.2058
  53   2.0000      -0.517031       -14.0691
  54   2.0000      -0.510795       -13.8994
  55   2.0000      -0.498367       -13.5613
  56   2.0000      -0.489127       -13.3098
  57   2.0000      -0.483035       -13.1440
  58   2.0000      -0.475717       -12.9449
  59   2.0000      -0.471477       -12.8296
  60   2.0000      -0.464407       -12.6371
  61   2.0000      -0.461967       -12.5708
  62   2.0000      -0.452618       -12.3164
  63   2.0000      -0.446977       -12.1629
  64   2.0000      -0.433968       -11.8089
  65   2.0000      -0.425664       -11.5829
  66   2.0000      -0.419875       -11.4254
  67   2.0000      -0.419338       -11.4108
  68   2.0000      -0.411889       -11.2081
  69   2.0000      -0.408108       -11.1052
  70   2.0000      -0.406575       -11.0635
  71   2.0000      -0.397154       -10.8071
  72   2.0000      -0.386602       -10.5200
  73   2.0000      -0.379375       -10.3233
  74   2.0000      -0.374752       -10.1975
  75   2.0000      -0.372584       -10.1385
  76   2.0000      -0.365313        -9.9407
  77   2.0000      -0.363922        -9.9028
  78   2.0000      -0.362616        -9.8673
  79   2.0000      -0.353743        -9.6258
  80   2.0000      -0.339267        -9.2319
  81   2.0000      -0.336595        -9.1592
  82   2.0000      -0.316207        -8.6044
  83   2.0000      -0.303255        -8.2520
  84   2.0000      -0.290029        -7.8921
  85   2.0000      -0.265507        -7.2248
  86   2.0000      -0.255514        -6.9529
  87   2.0000      -0.239037        -6.5045
  88   2.0000      -0.227992        -6.2040
  89   2.0000      -0.172352        -4.6899
  90   0.0000       0.087601         2.3837
  91   0.0000       0.088721         2.4142
  92   0.0000       0.094872         2.5816
  93   0.0000       0.098265         2.6739
  94   0.0000       0.103120         2.8060

MULLIKEN ATOMIC CHARGES
-----------------------
   0 C :   -0.655325
   1 C :   -1.141505
   2 H :    0.415326
   3 H :    0.141529
   4 H :    0.351659
   5 H :    0.072653
   6 C :    0.961018
   7 C :   -0.341883
   8 C :    0.403512
   9 C :   -1.278413
  10 C :   -1.081562
  11 C :    0.663005
  12 C :   -1.323431
  13 H :    0.273328
  14 H :    0.432374
  15 H :    0.165461
  16 C :    2.872055
  17 C :   -0.557565
  18 O :   -1.774066
  19 C :    0.780735
  20 C :    1.639621
  21 O :   -1.545620
  22 O :   -1.317807
  23 C :   -0.197933
  24 H :    0.242360
  25 C :    0.513288
  26 C :   -0.586168
  27 H :    0.498031
  28 H :    0.264380
  29 C :   -1.273484
  30 H :    0.286902
  31 H :    0.255021
  32 H :    0.248410
  33 N :   -0.367620
  34 H :   -0.003559
  35 C :   -1.243063
  36 H :    0.227059
  37 H :    0.263881
  38 H :    0.257665
  39 H :    0.306599
  40 C :   -0.757805
  41 H :    0.264266
  42 H :    0.187890
  43 C :   -0.586761
  44 H :    0.334370
  45 H :    0.068828
  46 H :    0.388714
  47 H :    0.102975
  48 H :   -0.092448
  49 H :    0.262198
  50 H :    0.629177
  51 H :    0.351729
Sum of atomic charges:   -1.0000000

LOEWDIN ATOMIC CHARGES
----------------------
   0 C :    0.296991
   1 C :    0.311746
   2 H :   -0.173375
   3 H :   -0.125515
   4 H :   -0.143356
   5 H :   -0.137950
   6 C :    0.003609
   7 C :    0.020981
   8 C :   -0.022865
   9 C :    0.257766
  10 C :    0.250949
  11 C :   -0.016294
  12 C :    0.588732
  13 H :   -0.159561
  14 H :   -0.174840
  15 H :   -0.167399
  16 C :   -0.560086
  17 C :   -0.103526
  18 O :    0.479219
  19 C :   -0.719677
  20 C :   -0.595737
  21 O :    0.425729
  22 O :    0.435551
  23 C :   -0.120563
  24 H :   -0.131681
  25 C :   -0.019868
  26 C :    0.273861
  27 H :   -0.154410
  28 H :   -0.139873
  29 C :    0.581447
  30 H :   -0.184877
  31 H :   -0.171748
  32 H :   -0.163612
  33 N :    0.555154
  34 H :   -0.291473
  35 C :    0.585056
  36 H :   -0.164403
  37 H :   -0.163071
  38 H :   -0.178665
  39 H :   -0.137577
  40 C :    0.290573
  41 H :   -0.141999
  42 H :   -0.132006
  43 C :    0.286575
  44 H :   -0.146040
  45 H :   -0.142387
  46 H :   -0.179553
  47 H :   -0.173753
  48 H :   -0.197098
  49 H :   -0.161779
  50 H :   -0.126407
  51 H :   -0.120914

  Mayer bond orders larger than 0.100000
B(  0-C ,  1-C ) :   1.0857 B(  0-C ,  4-H ) :   0.8756 B(  0-C ,  5-H ) :   1.1926
B(  0-C ,  6-C ) :  -0.1738 B(  0-C , 43-C ) :   0.8680 B(  1-C ,  2-H ) :   0.8482
B(  1-C ,  3-H ) :   1.2088 B(  1-C ,  6-C ) :   0.4370 B(  1-C ,  8-C ) :   0.2406
B(  1-C , 16-C ) :  -0.1941 B(  1-C , 18-O ) :   0.1296 B(  3-H ,  6-C ) :  -0.1102
B(  5-H ,  6-C ) :  -0.1113 B(  6-C ,  7-C ) :   1.2026 B(  6-C ,  8-C ) :   1.0482
B(  6-C , 10-C ) :   0.1506 B(  6-C , 16-C ) :   0.1833 B(  6-C , 19-C ) :  -0.1061
B(  6-C , 22-O ) :  -0.1311 B(  6-C , 48-H ) :  -0.1445 B(  6-C , 50-H ) :   0.4971
B(  7-C ,  8-C ) :  -0.1479 B(  7-C ,  9-C ) :   0.1043 B(  7-C , 10-C ) :  -0.1077
B(  7-C , 11-C ) :   0.8401 B(  7-C , 16-C ) :   0.3711 B(  7-C , 17-C ) :   1.1586
B(  7-C , 18-O ) :   0.5266 B(  7-C , 19-C ) :   0.2795 B(  7-C , 20-C ) :  -0.2494
B(  7-C , 21-O ) :   0.1698 B(  7-C , 22-O ) :  -0.1955 B(  7-C , 48-H ) :   0.6558
B(  7-C , 49-H ) :  -0.1227 B(  7-C , 51-H ) :  -0.1194 B(  8-C ,  9-C ) :   0.1928
B(  8-C , 10-C ) :   0.1813 B(  8-C , 40-C ) :   0.7278 B(  8-C , 47-H ) :   0.1635
B(  8-C , 48-H ) :  -0.1097 B(  8-C , 50-H ) :  -0.1349 B(  8-C , 51-H ) :   1.2176
B(  9-C , 10-C ) :   1.8129 B(  9-C , 11-C ) :   0.1298 B(  9-C , 46-H ) :   0.6903
B(  9-C , 47-H ) :  -0.1643 B(  9-C , 48-H ) :   0.1617 B(  9-C , 49-H ) :  -0.1211
B(  9-C , 51-H ) :  -0.6009 B( 10-C , 16-C ) :   0.1361 B( 10-C , 47-H ) :   1.4244
B( 10-C , 48-H ) :  -0.1092 B( 10-C , 49-H ) :  -0.3245 B( 11-C , 12-C ) :   0.6617
B( 11-C , 17-C ) :  -0.1727 B( 11-C , 22-O ) :   0.1849 B( 11-C , 48-H ) :   0.2574
B( 11-C , 49-H ) :   1.1042 B( 12-C , 13-H ) :   1.0252 B( 12-C , 14-H ) :   0.8075
B( 12-C , 15-H ) :   1.1534 B( 12-C , 16-C ) :  -0.1167 B( 12-C , 18-O ) :   0.1147
B( 16-C , 17-C ) :  -0.9882 B( 16-C , 18-O ) :  -1.1422 B( 16-C , 20-C ) :   0.9261
B( 16-C , 21-O ) :   0.1226 B( 16-C , 23-C ) :  -0.1770 B( 16-C , 33-N ) :   0.1008
B( 17-C , 18-O ) :   0.6758 B( 17-C , 19-C ) :   0.7030 B( 17-C , 20-C ) :   0.7712
B( 17-C , 21-O ) :   0.4785 B( 17-C , 22-O ) :   0.5965 B( 17-C , 23-C ) :   0.2540
B( 17-C , 33-N ) :  -0.4068 B( 17-C , 48-H ) :   0.1003 B( 18-O , 20-C ) :  -0.1114
B( 19-C , 20-C ) :  -0.4992 B( 19-C , 21-O ) :  -0.1017 B( 19-C , 22-O ) :   0.2356
B( 19-C , 33-N ) :   0.7897 B( 19-C , 48-H ) :   0.1543 B( 20-C , 21-O ) :  -0.6015
B( 20-C , 23-C ) :   1.0574 B( 20-C , 33-N ) :   0.1161 B( 21-O , 23-C ) :   0.1456
B( 22-O , 33-N ) :  -0.3090 B( 22-O , 48-H ) :  -0.1440 B( 23-C , 24-H ) :   0.9348
B( 23-C , 25-C ) :   0.8331 B( 23-C , 33-N ) :   0.9537 B( 23-C , 35-C ) :  -0.1001
B( 25-C , 26-C ) :   0.8067 B( 25-C , 35-C ) :   0.5809 B( 25-C , 37-H ) :  -0.1018
B( 25-C , 39-H ) :   0.8129 B( 26-C , 27-H ) :   0.7075 B( 26-C , 28-H ) :   1.0026
B( 26-C , 29-C ) :   0.6279 B( 26-C , 35-C ) :   0.1581 B( 27-H , 29-C ) :  -0.1051
B( 29-C , 30-H ) :   1.0053 B( 29-C , 31-H ) :   1.0395 B( 29-C , 32-H ) :   1.0823
B( 33-N , 34-H ) :   1.0954 B( 35-C , 36-H ) :   1.0557 B( 35-C , 37-H ) :   1.0431
B( 35-C , 38-H ) :   1.0562 B( 40-C , 41-H ) :   0.9959 B( 40-C , 42-H ) :   1.1241
B( 40-C , 43-C ) :   0.9391 B( 43-C , 44-H ) :   0.8926 B( 43-C , 45-H ) :   1.1744

MP2 TOTAL ENERGY:    -1057.469355607 Eh
FINAL SINGLE POINT ENERGY     -1057.469355606926

DIPOLE MOMENT
-------------
                                X             Y             Z
Electronic contribution:     -0.42268      -7.69609       3.55235
Nuclear contribution   :      0.90598       9.00668      -2.65128
                        -----------------------------------------
Total Dipole Moment    :      0.48330       1.31059       0.90107
                        -----------------------------------------
Magnitude (a.u.)       :      1.66227
Magnitude (Debye)      :      4.22516

Rotational constants in cm-1:     0.017566     0.004214     0.003961
Rotational constants in MHz :   526.608765   126.343566   118.748740

                             ****ORCA TERMINATED NORMALLY****
TOTAL RUN TIME: 0 days 1 hours 47 minutes 6 seconds 876 msec
