                         Program Version 4.2.1 -  RELEASE  -
|  1> %pal
|  2>  nprocs 32
|  3> end
|  4> !RI-MP2 aug-cc-pVTZ aug-cc-pVTZ/C TightSCF
|  5> %maxcore 4500
|  6> *xyzfile 1 1  05_21TS.xyz
|  7>
|  8>
|  9>                          ****END OF INPUT****

CARTESIAN COORDINATES (ANGSTROEM)
---------------------------------
  C      1.191943   -0.392034   -0.358717
  C      2.514862    1.907269   -0.281053
  C      3.769773    1.099151   -0.630363
  C      3.725647   -0.325285   -0.108977
  C      2.526868   -1.041842   -0.720186
  H      3.883526    1.079163   -1.719566
  H      4.632071    1.631178   -0.223157
  H      3.629155   -0.329409    0.977821
  H      2.641699   -1.054187   -1.808433
  H      2.506566   -2.076082   -0.375654
  N      1.304437    1.081708   -0.568719
  O      0.206070    1.718200   -0.646584
  C      0.092109   -0.912528   -1.282722
  H      0.081196   -2.001830   -1.231247
  H     -0.891752   -0.546602   -0.992531
  H      0.281718   -0.618590   -2.315770
  C      0.815360   -0.672820    1.104948
  H     -0.058352   -0.093865    1.406782
  H      0.561293   -1.728930    1.200574
  H      1.628453   -0.468326    1.797809
  C      2.451635    3.155037   -1.160305
  H      1.624084    3.804930   -0.881049
  H      3.380195    3.715172   -1.043597
  H      2.341741    2.884634   -2.211188
  C      2.504564    2.318831    1.199082
  H      3.314782    3.028236    1.371694
  H      1.572686    2.824742    1.457380
  H      2.645846    1.476405    1.873342
  C     -2.268644    3.176301    0.479917
  C     -2.615995    1.894324    0.624325
  C     -1.362948    2.342368    1.168118
  H     -2.507950    4.173033    0.152901
  H     -0.361560    1.975103    0.403537
  H     -0.927042    2.360285    2.166742
  C     -3.510969    0.814377    0.440789
  C     -3.260898   -0.431902    1.044717
  C     -4.658250    0.968503   -0.348569
  C     -4.125159   -1.479216    0.864148
  H     -2.381140   -0.560412    1.662750
  C     -5.532768   -0.079004   -0.538925
  H     -4.858757    1.924014   -0.817878
  C     -5.270363   -1.314033    0.068801
  H     -3.955172   -2.443959    1.323150
  H     -6.410309    0.061700   -1.152468
  O     -6.048192   -2.388215   -0.049749
  C     -7.241489   -2.315247   -0.826051
  H     -7.692439   -3.301016   -0.761977
  H     -7.926717   -1.571388   -0.414324
  H     -7.012714   -2.083889   -1.868503
  N      4.964808   -1.017943   -0.395480
  C      5.311084   -2.125715    0.325116
  C      6.610824   -2.788377   -0.046593
  H      7.257558   -2.799538    0.831120
  H      6.409950   -3.825100   -0.317739
  H      7.130844   -2.295527   -0.868310
  O      4.596260   -2.536608    1.220079
  H      5.539604   -0.722260   -1.167784

 Total Charge           Charge          ....    1
 Multiplicity           Mult            ....    1
 Number of Electrons    NEL             ....  194
 Basis Dimension        Dim             .... 1909

ORBITAL ENERGIES
----------------

  NO   OCC          E(Eh)            E(eV)
   0   2.0000     -20.789941      -565.7231
   1   2.0000     -20.698765      -563.2420
   2   2.0000     -20.593353      -560.3736
   3   2.0000     -15.781176      -429.4276
   4   2.0000     -15.668661      -426.3659
   5   2.0000     -11.435923      -311.1873
   6   2.0000     -11.434708      -311.1542
   7   2.0000     -11.432433      -311.0923
   8   2.0000     -11.426902      -310.9418
   9   2.0000     -11.421287      -310.7890
  10   2.0000     -11.398742      -310.1755
  11   2.0000     -11.394031      -310.0473
  12   2.0000     -11.379350      -309.6479
  13   2.0000     -11.375180      -309.5344
  14   2.0000     -11.371152      -309.4248
  15   2.0000     -11.366869      -309.3082
  16   2.0000     -11.365032      -309.2582
  17   2.0000     -11.346036      -308.7413
  18   2.0000     -11.341775      -308.6254
  19   2.0000     -11.337102      -308.4982
  20   2.0000     -11.331667      -308.3503
  21   2.0000     -11.328990      -308.2775
  22   2.0000     -11.323912      -308.1393
  23   2.0000     -11.323120      -308.1177
  24   2.0000     -11.320692      -308.0517
  25   2.0000     -11.306360      -307.6617
  26   2.0000      -1.624618       -44.2081
  27   2.0000      -1.532015       -41.6882
  28   2.0000      -1.463174       -39.8150
  29   2.0000      -1.370632       -37.2968
  30   2.0000      -1.327738       -36.1296
  31   2.0000      -1.288962       -35.0744
  32   2.0000      -1.279041       -34.8045
  33   2.0000      -1.219678       -33.1891
  34   2.0000      -1.159417       -31.5493
  35   2.0000      -1.151584       -31.3362
  36   2.0000      -1.149211       -31.2716
  37   2.0000      -1.106298       -30.1039
  38   2.0000      -1.070743       -29.1364
  39   2.0000      -1.064629       -28.9700
  40   2.0000      -1.058847       -28.8127
  41   2.0000      -1.048375       -28.5277
  42   2.0000      -1.042317       -28.3629
  43   2.0000      -0.984296       -26.7841
  44   2.0000      -0.976649       -26.5760
  45   2.0000      -0.950626       -25.8678
  46   2.0000      -0.941280       -25.6135
  47   2.0000      -0.934793       -25.4370
  48   2.0000      -0.903399       -24.5827
  49   2.0000      -0.885689       -24.1008
  50   2.0000      -0.875805       -23.8319
  51   2.0000      -0.856511       -23.3069
  52   2.0000      -0.822885       -22.3918
  53   2.0000      -0.804396       -21.8887
  54   2.0000      -0.798523       -21.7289
  55   2.0000      -0.794654       -21.6236
  56   2.0000      -0.791161       -21.5286
  57   2.0000      -0.768959       -20.9244
  58   2.0000      -0.761582       -20.7237
  59   2.0000      -0.753286       -20.4979
  60   2.0000      -0.743351       -20.2276
  61   2.0000      -0.728123       -19.8132
  62   2.0000      -0.717321       -19.5193
  63   2.0000      -0.716049       -19.4847
  64   2.0000      -0.711526       -19.3616
  65   2.0000      -0.701564       -19.0905
  66   2.0000      -0.698185       -18.9986
  67   2.0000      -0.697159       -18.9707
  68   2.0000      -0.689686       -18.7673
  69   2.0000      -0.687563       -18.7095
  70   2.0000      -0.675765       -18.3885
  71   2.0000      -0.675459       -18.3802
  72   2.0000      -0.668772       -18.1982
  73   2.0000      -0.658322       -17.9139
  74   2.0000      -0.649352       -17.6698
  75   2.0000      -0.645365       -17.5613
  76   2.0000      -0.644431       -17.5359
  77   2.0000      -0.637055       -17.3351
  78   2.0000      -0.634775       -17.2731
  79   2.0000      -0.632307       -17.2060
  80   2.0000      -0.630175       -17.1479
  81   2.0000      -0.621352       -16.9078
  82   2.0000      -0.620475       -16.8840
  83   2.0000      -0.611733       -16.6461
  84   2.0000      -0.603683       -16.4271
  85   2.0000      -0.593171       -16.1410
  86   2.0000      -0.590730       -16.0746
  87   2.0000      -0.589331       -16.0365
  88   2.0000      -0.584470       -15.9042
  89   2.0000      -0.579377       -15.7656
  90   2.0000      -0.564301       -15.3554
  91   2.0000      -0.561051       -15.2670
  92   2.0000      -0.501678       -13.6513
  93   2.0000      -0.476154       -12.9568
  94   2.0000      -0.468689       -12.7537
  95   2.0000      -0.464850       -12.6492
  96   2.0000      -0.404129       -10.9969
  97   0.0000      -0.125897        -3.4258
  98   0.0000      -0.056499        -1.5374
  99   0.0000      -0.051132        -1.3914
 100   0.0000      -0.045893        -1.2488
 101   0.0000      -0.043378        -1.1804

MULLIKEN ATOMIC CHARGES
-----------------------
   0 C :    2.452383
   1 C :    1.909733
   2 C :   -1.288801
   3 C :    1.244653
   4 C :   -1.193229
   5 H :    0.177284
   6 H :    0.378057
   7 H :    0.555082
   8 H :    0.190326
   9 H :    0.379885
  10 N :    0.706715
  11 O :   -1.059912
  12 C :   -2.068349
  13 H :    0.151099
  14 H :    0.677110
  15 H :    0.174648
  16 C :   -1.362577
  17 H :    0.615025
  18 H :    0.007938
  19 H :    0.131928
  20 C :   -1.773741
  21 H :    0.293793
  22 H :    0.171754
  23 H :    0.220284
  24 C :   -1.349055
  25 H :    0.108585
  26 H :    0.365100
  27 H :    0.335890
  28 C :   -1.264239
  29 C :    0.341392
  30 C :   -0.428516
  31 H :    0.458986
  32 H :    0.033148
  33 H :    0.424917
  34 C :    3.137754
  35 C :   -0.504053
  36 C :   -1.255031
  37 C :   -1.008283
  38 H :    0.002949
  39 C :   -0.479235
  40 H :   -0.206125
  41 C :    1.469093
  42 H :    0.559769
  43 H :    0.243072
  44 O :   -0.900897
  45 C :   -0.908122
  46 H :    0.385348
  47 H :    0.386094
  48 H :    0.377369
  49 N :   -0.633074
  50 C :    0.712292
  51 C :   -0.892395
  52 H :    0.325846
  53 H :    0.321045
  54 H :    0.272961
  55 O :   -1.044800
  56 H :   -0.078874
Sum of atomic charges:    1.0000000

LOEWDIN ATOMIC CHARGES
----------------------
   0 C :   -0.371581
   1 C :   -0.376134
   2 C :    0.332596
   3 C :   -0.103457
   4 C :    0.333415
   5 H :   -0.123288
   6 H :   -0.115558
   7 H :   -0.164497
   8 H :   -0.120211
   9 H :   -0.129630
  10 N :    0.091804
  11 O :    0.722471
  12 C :    0.606225
  13 H :   -0.143232
  14 H :   -0.171270
  15 H :   -0.144161
  16 C :    0.628888
  17 H :   -0.186811
  18 H :   -0.134224
  19 H :   -0.169172
  20 C :    0.602981
  21 H :   -0.161652
  22 H :   -0.145279
  23 H :   -0.146396
  24 C :    0.625052
  25 H :   -0.139420
  26 H :   -0.164544
  27 H :   -0.171934
  28 C :    0.437137
  29 C :   -0.008193
  30 C :    0.315444
  31 H :   -0.134577
  32 H :   -0.568626
  33 H :   -0.106964
  34 C :   -0.109697
  35 C :    0.218225
  36 C :    0.235418
  37 C :    0.252212
  38 H :   -0.168848
  39 C :    0.248521
  40 H :   -0.151067
  41 C :   -0.363776
  42 H :   -0.167864
  43 H :   -0.194283
  44 O :    0.599321
  45 C :    0.384501
  46 H :   -0.169297
  47 H :   -0.166004
  48 H :   -0.166701
  49 N :    0.591865
  50 C :   -0.663011
  51 C :    0.611064
  52 H :   -0.165336
  53 H :   -0.165987
  54 H :   -0.179321
  55 O :    0.468194
  56 H :   -0.273330

  Mayer bond orders larger than 0.100000
B(  0-C ,  8-H ) :  -0.1010 B(  0-C , 10-N ) :   0.8927 B(  0-C , 12-C ) :  -0.2851
B(  0-C , 13-H ) :  -0.2630 B(  0-C , 15-H ) :  -0.2250 B(  0-C , 16-C ) :   0.1374
B(  0-C , 18-H ) :  -0.1814 B(  0-C , 19-H ) :  -0.1281 B(  0-C , 34-C ) :   0.1071
B(  1-C ,  2-C ) :   0.2146 B(  1-C ,  3-C ) :   0.1392 B(  1-C , 10-N ) :   0.7646
B(  1-C , 21-H ) :  -0.1194 B(  1-C , 22-H ) :  -0.1722 B(  1-C , 23-H ) :  -0.1835
B(  1-C , 24-C ) :   0.4404 B(  2-C ,  3-C ) :   0.5220 B(  2-C ,  4-C ) :   0.3308
B(  2-C ,  5-H ) :   1.2755 B(  2-C ,  6-H ) :   0.7933 B(  2-C , 10-N ) :   0.2130
B(  2-C , 20-C ) :  -0.1434 B(  2-C , 49-N ) :   0.1637 B(  3-C ,  4-C ) :   0.7960
B(  3-C ,  7-H ) :   0.8583 B(  3-C , 10-N ) :  -0.2865 B(  3-C , 55-O ) :   0.1240
B(  4-C ,  7-H ) :   0.2079 B(  4-C ,  8-H ) :   1.1953 B(  4-C ,  9-H ) :   0.9378
B(  4-C , 49-N ) :   0.1595 B(  7-H , 49-N ) :  -0.4385 B(  7-H , 50-C ) :  -0.1438
B(  7-H , 55-O ) :  -0.2253 B( 10-N , 11-O ) :  -0.2410 B( 10-N , 20-C ) :  -0.2157
B( 10-N , 29-C ) :   0.1111 B( 11-O , 20-C ) :   0.1356 B( 11-O , 32-H ) :   0.2091
B( 12-C , 13-H ) :   1.3564 B( 12-C , 14-H ) :   0.6005 B( 12-C , 15-H ) :   1.3471
B( 12-C , 16-C ) :   0.1143 B( 16-C , 17-H ) :   0.4932 B( 16-C , 18-H ) :   1.4074
B( 16-C , 19-H ) :   1.3670 B( 20-C , 21-H ) :   1.0262 B( 20-C , 22-H ) :   1.2637
B( 20-C , 23-H ) :   1.2283 B( 20-C , 24-C ) :   0.1372 B( 24-C , 25-H ) :   1.2224
B( 24-C , 26-H ) :   0.9264 B( 24-C , 27-H ) :   1.0365 B( 28-C , 29-C ) :   0.6175
B( 28-C , 30-C ) :   1.2387 B( 28-C , 31-H ) :   0.9276 B( 28-C , 32-H ) :   0.6775
B( 28-C , 34-C ) :  -0.5000 B( 28-C , 35-C ) :   0.1484 B( 29-C , 30-C ) :   0.5789
B( 29-C , 32-H ) :  -0.2919 B( 29-C , 34-C ) :  -0.1018 B( 29-C , 35-C ) :   0.6331
B( 29-C , 36-C ) :   0.5938 B( 29-C , 37-C ) :   0.1708 B( 29-C , 38-H ) :  -0.1018
B( 29-C , 40-H ) :  -0.4543 B( 29-C , 42-H ) :   0.1598 B( 29-C , 43-H ) :   0.2551
B( 30-C , 32-H ) :   1.2409 B( 30-C , 33-H ) :   0.7586 B( 30-C , 34-C ) :  -0.3081
B( 32-H , 34-C ) :  -0.3367 B( 34-C , 35-C ) :  -0.1499 B( 34-C , 36-C ) :  -0.5826
B( 34-C , 37-C ) :   0.3573 B( 34-C , 38-H ) :  -0.5483 B( 34-C , 39-C ) :   0.3595
B( 34-C , 40-H ) :  -0.6181 B( 34-C , 41-C ) :   0.2120 B( 34-C , 43-H ) :  -0.2366
B( 34-C , 44-O ) :   0.1225 B( 35-C , 36-C ) :  -0.8545 B( 35-C , 37-C ) :   1.3768
B( 35-C , 38-H ) :   1.6453 B( 35-C , 39-C ) :  -0.3125 B( 35-C , 40-H ) :   0.4277
B( 35-C , 41-C ) :  -0.2495 B( 35-C , 42-H ) :   0.1648 B( 36-C , 38-H ) :   0.3462
B( 36-C , 39-C ) :   1.2108 B( 36-C , 40-H ) :   2.2484 B( 36-C , 41-C ) :  -0.1925
B( 36-C , 43-H ) :  -0.1347 B( 37-C , 39-C ) :   0.2305 B( 37-C , 41-C ) :   0.8117
B( 37-C , 42-H ) :   0.4225 B( 37-C , 44-O ) :   0.2793 B( 38-H , 39-C ) :  -0.1552
B( 38-H , 40-H ) :   0.4375 B( 38-H , 41-C ) :  -0.1727 B( 39-C , 40-H ) :  -0.2227
B( 39-C , 41-C ) :   0.9909 B( 39-C , 43-H ) :   1.1122 B( 39-C , 44-O ) :  -0.2949
B( 40-H , 42-H ) :  -0.1430 B( 41-C , 42-H ) :   0.1673 B( 41-C , 44-O ) :   0.3044
B( 43-H , 45-C ) :  -0.1187 B( 44-O , 45-C ) :   0.9846 B( 45-C , 46-H ) :   0.9102
B( 45-C , 47-H ) :   0.8720 B( 45-C , 48-H ) :   0.8683 B( 49-N , 50-C ) :   1.1971
B( 49-N , 56-H ) :   1.3004 B( 50-C , 51-C ) :   0.4611 B( 50-C , 55-O ) :   1.4723
B( 51-C , 52-H ) :   0.9900 B( 51-C , 53-H ) :   0.9819 B( 51-C , 54-H ) :   0.9996
B( 51-C , 55-O ) :  -0.1345

MP2 TOTAL ENERGY:    -1151.461077968 Eh
FINAL SINGLE POINT ENERGY     -1151.461077967990

DIPOLE MOMENT
-------------
                                X             Y             Z
Electronic contribution:    -18.05074      -0.11241       2.75262
Nuclear contribution   :     16.39775       2.41186      -3.60935
                        -----------------------------------------
Total Dipole Moment    :     -1.65299       2.29945      -0.85673
                        -----------------------------------------
Magnitude (a.u.)       :      2.95869
Magnitude (Debye)      :      7.52039

Rotational constants in cm-1:     0.011619     0.002884     0.002471
Rotational constants in MHz :   348.332150    86.468453    74.076057

                             ****ORCA TERMINATED NORMALLY****
TOTAL RUN TIME: 0 days 2 hours 55 minutes 54 seconds 386 msec
