                         Program Version 4.2.1 -  RELEASE  -
|  1> %pal
|  2>  nprocs 32
|  3> end
|  4> !RI-MP2 aug-cc-pVTZ aug-cc-pVTZ/C TightSCF
|  5> %maxcore 4500
|  6> *xyzfile 1 1  10_32TS.xyz
|  7>
|  8>
|  9>                          ****END OF INPUT****

CARTESIAN COORDINATES (ANGSTROEM)
---------------------------------
  C     -1.636549   -2.663014   -0.497989
  C     -0.969804   -1.644414    0.441837
  C     -2.982165   -0.769486    0.140852
  C     -3.046006   -2.042060   -0.720748
  H     -1.069481   -2.787437   -1.418926
  H     -1.695496   -3.633990   -0.005878
  H     -3.250920   -1.812985   -1.767341
  H     -3.842698   -2.697855   -0.369437
  C     -2.135913   -1.215023    1.335531
  H     -1.894392   -0.412802    2.031450
  H     -2.577696   -2.051246    1.873804
  H     -0.042494   -1.959140    0.902084
  H     -3.926045   -0.269100    0.341167
  N     -2.029419    0.183304   -0.485620
  N     -0.785079   -0.417674   -0.368723
  C      0.277995    0.395058   -0.512893
  C      1.647955   -0.091803   -0.246693
  C      2.052668   -0.531976    1.014317
  C      2.572902   -0.065459   -1.288905
  C      3.352507   -0.962853    1.218477
  H      1.363218   -0.512303    1.849585
  C      3.871837   -0.505786   -1.084926
  H      2.273838    0.295721   -2.266112
  C      4.261787   -0.956720    0.167553
  H      3.661524   -1.295341    2.201335
  H      4.580583   -0.489722   -1.902985
  H      5.278066   -1.292873    0.330218
  H      0.195861    1.045550   -1.379590
  H     -2.249632    0.424170   -1.449977
  C     -1.440760    2.194708    0.569193
  H     -2.098598    1.822041    1.343048
  C     -0.074682    2.005343    0.717479
  H      0.229990    1.543829    1.651859
  C      0.923289    2.985447    0.141055
  H      0.908887    3.918186    0.708860
  H      1.935904    2.585752    0.189303
  H      0.709108    3.237237   -0.899478
  C     -2.042556    3.152635   -0.401294
  H     -3.106108    2.967501   -0.548414
  H     -1.936906    4.174414   -0.020084
  H     -1.540057    3.133397   -1.371172

 Total Charge           Charge          ....    1
 Multiplicity           Mult            ....    1
 Number of Electrons    NEL             ....  132
 Basis Dimension        Dim             .... 1357

ORBITAL ENERGIES
----------------

  NO   OCC          E(Eh)            E(eV)
   0   2.0000     -15.766265      -429.0219
   1   2.0000     -15.756345      -428.7519
   2   2.0000     -11.464310      -311.9597
   3   2.0000     -11.417521      -310.6865
   4   2.0000     -11.409117      -310.4579
   5   2.0000     -11.405762      -310.3666
   6   2.0000     -11.373728      -309.4949
   7   2.0000     -11.362366      -309.1857
   8   2.0000     -11.362107      -309.1786
   9   2.0000     -11.361202      -309.1540
  10   2.0000     -11.359295      -309.1021
  11   2.0000     -11.357578      -309.0554
  12   2.0000     -11.352121      -308.9069
  13   2.0000     -11.351402      -308.8874
  14   2.0000     -11.350193      -308.8544
  15   2.0000     -11.349736      -308.8420
  16   2.0000     -11.348545      -308.8096
  17   2.0000     -11.338905      -308.5473
  18   2.0000      -1.515760       -41.2459
  19   2.0000      -1.309714       -35.6391
  20   2.0000      -1.271737       -34.6057
  21   2.0000      -1.250264       -34.0214
  22   2.0000      -1.227607       -33.4049
  23   2.0000      -1.164609       -31.6906
  24   2.0000      -1.140256       -31.0280
  25   2.0000      -1.116459       -30.3804
  26   2.0000      -1.111263       -30.2390
  27   2.0000      -1.084587       -29.5131
  28   2.0000      -1.029467       -28.0132
  29   2.0000      -1.004747       -27.3406
  30   2.0000      -0.965523       -26.2732
  31   2.0000      -0.952827       -25.9277
  32   2.0000      -0.922823       -25.1113
  33   2.0000      -0.904593       -24.6152
  34   2.0000      -0.882838       -24.0232
  35   2.0000      -0.858287       -23.3552
  36   2.0000      -0.834684       -22.7129
  37   2.0000      -0.815742       -22.1975
  38   2.0000      -0.797338       -21.6967
  39   2.0000      -0.793406       -21.5897
  40   2.0000      -0.779564       -21.2130
  41   2.0000      -0.754846       -20.5404
  42   2.0000      -0.742424       -20.2024
  43   2.0000      -0.729325       -19.8459
  44   2.0000      -0.718991       -19.5647
  45   2.0000      -0.710157       -19.3244
  46   2.0000      -0.707144       -19.2424
  47   2.0000      -0.697379       -18.9767
  48   2.0000      -0.681929       -18.5562
  49   2.0000      -0.678723       -18.4690
  50   2.0000      -0.672455       -18.2984
  51   2.0000      -0.660602       -17.9759
  52   2.0000      -0.655138       -17.8272
  53   2.0000      -0.644810       -17.5462
  54   2.0000      -0.637941       -17.3593
  55   2.0000      -0.629936       -17.1414
  56   2.0000      -0.623844       -16.9757
  57   2.0000      -0.621982       -16.9250
  58   2.0000      -0.616998       -16.7894
  59   2.0000      -0.614372       -16.7179
  60   2.0000      -0.601110       -16.3570
  61   2.0000      -0.593303       -16.1446
  62   2.0000      -0.519981       -14.1494
  63   2.0000      -0.462453       -12.5840
  64   2.0000      -0.457384       -12.4460
  65   2.0000      -0.452252       -12.3064
  66   0.0000      -0.071630        -1.9491
  67   0.0000      -0.064281        -1.7492
  68   0.0000      -0.056678        -1.5423
  69   0.0000      -0.050454        -1.3729
  70   0.0000      -0.047885        -1.3030

MULLIKEN ATOMIC CHARGES
-----------------------
   0 C :   -0.887328
   1 C :   -0.342926
   2 C :   -0.383076
   3 C :   -0.625655
   4 H :    0.319861
   5 H :    0.237640
   6 H :    0.279546
   7 H :    0.267424
   8 C :   -0.668469
   9 H :    0.137973
  10 H :    0.360356
  11 H :    0.601002
  12 H :    0.554624
  13 N :    0.104633
  14 N :   -0.141962
  15 C :    1.106966
  16 C :    1.913753
  17 C :   -0.355132
  18 C :   -1.040545
  19 C :   -1.254700
  20 H :   -0.210037
  21 C :   -0.682737
  22 H :   -0.387542
  23 C :    0.017517
  24 H :    0.432044
  25 H :    0.659111
  26 H :    0.632827
  27 H :    0.396112
  28 H :   -0.275058
  29 C :   -0.563371
  30 H :    0.434232
  31 C :    0.242658
  32 H :    0.484579
  33 C :   -1.080211
  34 H :    0.258276
  35 H :    0.342266
  36 H :    0.225316
  37 C :   -0.893445
  38 H :    0.245885
  39 H :    0.227869
  40 H :    0.309726
Sum of atomic charges:    1.0000000

LOEWDIN ATOMIC CHARGES
----------------------
   0 C :    0.370754
   1 C :   -0.012073
   2 C :   -0.027951
   3 C :    0.366971
   4 H :   -0.131592
   5 H :   -0.128129
   6 H :   -0.134838
   7 H :   -0.130042
   8 C :    0.364101
   9 H :   -0.131860
  10 H :   -0.112227
  11 H :   -0.138975
  12 H :   -0.098783
  13 N :    0.519945
  14 N :    0.224710
  15 C :    0.073806
  16 C :   -0.109469
  17 C :    0.214392
  18 C :    0.237140
  19 C :    0.237185
  20 H :   -0.170931
  21 C :    0.233802
  22 H :   -0.159909
  23 C :    0.231968
  24 H :   -0.168196
  25 H :   -0.168362
  26 H :   -0.165031
  27 H :   -0.154389
  28 H :   -0.230118
  29 C :    0.223165
  30 H :   -0.153136
  31 C :    0.135078
  32 H :   -0.170043
  33 C :    0.586101
  34 H :   -0.145506
  35 H :   -0.163758
  36 H :   -0.166689
  37 C :    0.610597
  38 H :   -0.156542
  39 H :   -0.139080
  40 H :   -0.162088

  Mayer bond orders larger than 0.100000
B(  0-C ,  1-C ) :   0.9527 B(  0-C ,  3-C ) :   1.2056 B(  0-C ,  4-H ) :   0.9448
B(  0-C ,  5-H ) :   1.0360 B(  0-C ,  8-C ) :   0.1221 B(  0-C , 11-H ) :  -0.1190
B(  0-C , 14-N ) :  -0.2023 B(  0-C , 15-C ) :  -0.1080 B(  1-C ,  2-C ) :  -0.1181
B(  1-C ,  8-C ) :   0.9249 B(  1-C , 11-H ) :   0.5503 B(  1-C , 13-N ) :  -0.1266
B(  1-C , 14-N ) :   1.1383 B(  1-C , 16-C ) :  -0.1185 B(  2-C ,  3-C ) :   0.9607
B(  2-C ,  8-C ) :   1.0501 B(  2-C , 12-H ) :   0.6351 B(  2-C , 13-N ) :   1.2910
B(  2-C , 14-N ) :  -0.2574 B(  2-C , 15-C ) :  -0.1116 B(  3-C ,  6-H ) :   0.9375
B(  3-C ,  7-H ) :   0.9753 B(  8-C ,  9-H ) :   1.1038 B(  8-C , 10-H ) :   0.9008
B(  8-C , 14-N ) :  -0.1998 B( 13-N , 14-N ) :   0.5480 B( 13-N , 28-H ) :   0.8921
B( 13-N , 31-C ) :   0.1232 B( 14-N , 15-C ) :   1.0109 B( 14-N , 16-C ) :  -0.1187
B( 14-N , 18-C ) :  -0.1019 B( 14-N , 28-H ) :   0.2415 B( 14-N , 31-C ) :  -0.1279
B( 15-C , 16-C ) :   0.1144 B( 15-C , 17-C ) :  -0.2281 B( 15-C , 18-C ) :   0.2843
B( 15-C , 19-C ) :   0.1286 B( 15-C , 20-H ) :  -0.6186 B( 15-C , 21-C ) :   0.3033
B( 15-C , 22-H ) :  -0.6147 B( 15-C , 23-C ) :   0.1305 B( 15-C , 26-H ) :   0.1722
B( 15-C , 27-H ) :   0.8074 B( 15-C , 31-C ) :   0.2585 B( 15-C , 37-C ) :  -0.1214
B( 16-C , 17-C ) :   1.3086 B( 16-C , 18-C ) :   0.2254 B( 16-C , 22-H ) :  -0.6327
B( 16-C , 24-H ) :  -0.1469 B( 16-C , 27-H ) :  -0.1968 B( 16-C , 33-C ) :  -0.1379
B( 17-C , 18-C ) :  -0.8010 B( 17-C , 19-C ) :   1.5237 B( 17-C , 20-H ) :   1.7906
B( 17-C , 22-H ) :   0.3692 B( 17-C , 24-H ) :   0.1061 B( 18-C , 19-C ) :   0.2331
B( 18-C , 20-H ) :   0.1992 B( 18-C , 21-C ) :   1.3792 B( 18-C , 22-H ) :   2.5366
B( 18-C , 23-C ) :  -0.1887 B( 18-C , 25-H ) :  -0.1160 B( 18-C , 26-H ) :   0.1772
B( 18-C , 27-H ) :  -0.1168 B( 19-C , 21-C ) :   0.2799 B( 19-C , 23-C ) :   1.1244
B( 19-C , 24-H ) :   0.7449 B( 19-C , 26-H ) :  -0.2803 B( 20-H , 22-H ) :   0.3767
B( 20-H , 23-C ) :  -0.1906 B( 21-C , 22-H ) :  -0.1314 B( 21-C , 23-C ) :   1.0453
B( 21-C , 25-H ) :   0.4514 B( 21-C , 26-H ) :  -0.2325 B( 22-H , 25-H ) :  -0.1152
B( 23-C , 24-H ) :   0.1180 B( 23-C , 26-H ) :   0.5364 B( 29-C , 30-H ) :   0.8045
B( 29-C , 31-C ) :   1.2887 B( 29-C , 32-H ) :  -0.2042 B( 29-C , 37-C ) :   0.6437
B( 30-H , 37-C ) :  -0.1224 B( 31-C , 32-H ) :   0.7758 B( 31-C , 33-C ) :   0.6128
B( 31-C , 37-C ) :   0.2660 B( 33-C , 34-H ) :   1.0100 B( 33-C , 35-H ) :   1.0211
B( 33-C , 36-H ) :   1.1030 B( 37-C , 38-H ) :   1.0354 B( 37-C , 39-H ) :   1.0414
B( 37-C , 40-H ) :   0.9404

MP2 TOTAL ENERGY:     -731.227054152 Eh
FINAL SINGLE POINT ENERGY      -731.227054151928

DIPOLE MOMENT
-------------
                                X             Y             Z
Electronic contribution:      7.09388      -5.71682      -0.14149
Nuclear contribution   :     -8.32366       6.08785       0.01879
                        -----------------------------------------
Total Dipole Moment    :     -1.22978       0.37103      -0.12270
                        -----------------------------------------
Magnitude (a.u.)       :      1.29037
Magnitude (Debye)      :      3.27987

Rotational constants in cm-1:     0.020035     0.011365     0.008430
Rotational constants in MHz :   600.644536   340.723556   252.739688

                             ****ORCA TERMINATED NORMALLY****
TOTAL RUN TIME: 0 days 1 hours 9 minutes 30 seconds 24 msec
