                         Program Version 4.2.1 -  RELEASE  -
|  1> %pal
|  2>  nprocs 32
|  3> end
|  4> !RI-MP2 aug-cc-pVTZ aug-cc-pVTZ/C TightSCF
|  5> %maxcore 4500
|  6> *xyzfile 0 1  10_43TS.xyz
|  7>
|  8>
|  9>                          ****END OF INPUT****

CARTESIAN COORDINATES (ANGSTROEM)
---------------------------------
  C      0.042101   -2.587548    0.080725
  H     -0.342214   -3.365581   -0.604927
  C      1.209212   -1.865766   -0.567011
  C     -0.252545    0.130975   -0.872163
  H     -0.433107    0.962437   -0.194101
  H     -0.298884    0.538236   -1.886670
  C     -1.389281   -0.874823   -0.672618
  H     -1.466923   -1.516964   -1.571687
  N     -1.029808   -1.698491    0.474422
  C      2.168392    0.374131   -0.212731
  C      2.344053   -2.627079   -0.819169
  H      2.803882   -2.593054   -1.788499
  H      2.390339   -3.615829   -0.360766
  C      3.430399   -0.138298    0.115077
  C      4.043953   -1.206936   -0.513844
  C      1.122059   -0.461696   -0.657160
  H      3.991809   -1.196159   -1.590511
  H      3.924453    0.265913    0.996970
  C      5.274645   -1.860390    0.050219
  H      5.355032   -2.899025   -0.275958
  H      6.180007   -1.345683   -0.288317
  H      5.264757   -1.850936    1.141284
  C     -2.150903   -2.416299    1.047555
  H     -2.652134   -3.052360    0.294600
  H     -1.770881   -3.078249    1.828873
  C     -2.716980   -0.166065   -0.504762
  C     -3.540590   -0.406332    0.593714
  C     -3.138104   -1.422685    1.629167
  H     -2.670966   -0.920356    2.481815
  H     -4.024323   -1.942146    2.002371
  H      0.421964   -3.106687    0.967859
  C     -4.744233    0.287209    0.708812
  H     -5.382166    0.093197    1.564738
  C     -3.129291    0.746401   -1.475976
  H     -2.503531    0.922632   -2.343352
  C     -5.138059    1.204520   -0.249319
  H     -6.077576    1.733337   -0.143208
  C     -4.326001    1.430623   -1.354078
  H     -4.626987    2.136036   -2.119177
  Si     1.855281    2.160866    0.358359
  C      0.744917    2.231245    1.877027
  H      1.187514    1.649126    2.689333
  H      0.646193    3.263884    2.223817
  H     -0.258577    1.839919    1.705567
  C      3.501642    2.931500    0.842634
  H      4.229459    2.874396    0.030261
  H      3.352601    3.987388    1.084873
  H      3.943426    2.456626    1.721360
  C      1.147778    3.209809   -1.034737
  H      0.114282    2.960100   -1.276460
  H      1.175539    4.265742   -0.751651
  H      1.742745    3.096400   -1.944585

 Total Charge           Charge          ....    0
 Multiplicity           Mult            ....    1
 Number of Electrons    NEL             ....  176
 Basis Dimension        Dim             .... 1729

ORBITAL ENERGIES
----------------

  NO   OCC          E(Eh)            E(eV)
   0   2.0000     -68.746477     -1870.6867
   1   2.0000     -15.545059      -423.0026
   2   2.0000     -11.258760      -306.3664
   3   2.0000     -11.250988      -306.1549
   4   2.0000     -11.248240      -306.0802
   5   2.0000     -11.242907      -305.9350
   6   2.0000     -11.234560      -305.7079
   7   2.0000     -11.234015      -305.6931
   8   2.0000     -11.233333      -305.6745
   9   2.0000     -11.229164      -305.5611
  10   2.0000     -11.228780      -305.5506
  11   2.0000     -11.228011      -305.5297
  12   2.0000     -11.227096      -305.5048
  13   2.0000     -11.226327      -305.4839
  14   2.0000     -11.225988      -305.4747
  15   2.0000     -11.223628      -305.4105
  16   2.0000     -11.220502      -305.3254
  17   2.0000     -11.218914      -305.2822
  18   2.0000     -11.213374      -305.1314
  19   2.0000     -11.208983      -305.0119
  20   2.0000     -11.188625      -304.4580
  21   2.0000     -11.187482      -304.4269
  22   2.0000     -11.186582      -304.4024
  23   2.0000      -6.093300      -165.8071
  24   2.0000      -4.199687      -114.2793
  25   2.0000      -4.199476      -114.2736
  26   2.0000      -4.199437      -114.2725
  27   2.0000      -1.254381       -34.1334
  28   2.0000      -1.156355       -31.4660
  29   2.0000      -1.123873       -30.5821
  30   2.0000      -1.073294       -29.2058
  31   2.0000      -1.059196       -28.8222
  32   2.0000      -1.046855       -28.4864
  33   2.0000      -1.013087       -27.5675
  34   2.0000      -0.995013       -27.0757
  35   2.0000      -0.967563       -26.3287
  36   2.0000      -0.954753       -25.9802
  37   2.0000      -0.924369       -25.1534
  38   2.0000      -0.915128       -24.9019
  39   2.0000      -0.912917       -24.8417
  40   2.0000      -0.885308       -24.0905
  41   2.0000      -0.856672       -23.3112
  42   2.0000      -0.835901       -22.7460
  43   2.0000      -0.817749       -22.2521
  44   2.0000      -0.808694       -22.0057
  45   2.0000      -0.764708       -20.8088
  46   2.0000      -0.744695       -20.2642
  47   2.0000      -0.694285       -18.8924
  48   2.0000      -0.673400       -18.3242
  49   2.0000      -0.666599       -18.1391
  50   2.0000      -0.653201       -17.7745
  51   2.0000      -0.643198       -17.5023
  52   2.0000      -0.633807       -17.2468
  53   2.0000      -0.627481       -17.0746
  54   2.0000      -0.609598       -16.5880
  55   2.0000      -0.596699       -16.2370
  56   2.0000      -0.591830       -16.1045
  57   2.0000      -0.588706       -16.0195
  58   2.0000      -0.580873       -15.8063
  59   2.0000      -0.571272       -15.5451
  60   2.0000      -0.564165       -15.3517
  61   2.0000      -0.559178       -15.2160
  62   2.0000      -0.557571       -15.1723
  63   2.0000      -0.552922       -15.0458
  64   2.0000      -0.547103       -14.8874
  65   2.0000      -0.542849       -14.7717
  66   2.0000      -0.535079       -14.5602
  67   2.0000      -0.531338       -14.4584
  68   2.0000      -0.527541       -14.3551
  69   2.0000      -0.523080       -14.2337
  70   2.0000      -0.521331       -14.1861
  71   2.0000      -0.518342       -14.1048
  72   2.0000      -0.515001       -14.0139
  73   2.0000      -0.505566       -13.7572
  74   2.0000      -0.495854       -13.4929
  75   2.0000      -0.485957       -13.2236
  76   2.0000      -0.474568       -12.9137
  77   2.0000      -0.458338       -12.4720
  78   2.0000      -0.452647       -12.3172
  79   2.0000      -0.435569       -11.8524
  80   2.0000      -0.419901       -11.4261
  81   2.0000      -0.417881       -11.3711
  82   2.0000      -0.409606       -11.1460
  83   2.0000      -0.360989        -9.8230
  84   2.0000      -0.328012        -8.9257
  85   2.0000      -0.321233        -8.7412
  86   2.0000      -0.296855        -8.0778
  87   2.0000      -0.278544        -7.5796
  88   0.0000       0.023138         0.6296
  89   0.0000       0.027765         0.7555
  90   0.0000       0.028918         0.7869
  91   0.0000       0.030471         0.8292
  92   0.0000       0.035775         0.9735

MULLIKEN ATOMIC CHARGES
-----------------------
   0 C :   -0.498282
   1 H :    0.315918
   2 C :    1.563550
   3 C :   -1.142827
   4 H :    0.145728
   5 H :   -0.012501
   6 C :    0.061487
   7 H :    0.271215
   8 N :   -0.317465
   9 C :    0.189560
  10 C :   -1.142662
  11 H :    0.301957
  12 H :    0.426755
  13 C :   -0.906261
  14 C :   -0.019505
  15 C :    0.335958
  16 H :    0.271803
  17 H :   -0.133667
  18 C :   -0.903120
  19 H :    0.294229
  20 H :    0.286003
  21 H :    0.277015
  22 C :   -0.686601
  23 H :    0.256067
  24 H :    0.341886
  25 C :    1.195305
  26 C :    0.876279
  27 C :   -0.531580
  28 H :    0.208711
  29 H :    0.234042
  30 H :    0.214470
  31 C :   -1.065231
  32 H :   -0.026954
  33 C :   -1.171667
  34 H :    0.084890
  35 C :   -0.272396
  36 H :    0.715926
  37 C :   -0.557768
  38 H :    0.403174
  39 Si:    2.877977
  40 C :   -1.497281
  41 H :    0.221508
  42 H :    0.139763
  43 H :    0.538423
  44 C :   -1.914421
  45 H :    0.229333
  46 H :   -0.008976
  47 H :    0.201102
  48 C :   -1.487875
  49 H :    0.441619
  50 H :    0.119209
  51 H :    0.256177
Sum of atomic charges:    0.0000000

LOEWDIN ATOMIC CHARGES
----------------------
   0 C :    0.156477
   1 H :   -0.125746
   2 C :   -0.080481
   3 C :    0.282234
   4 H :   -0.215049
   5 H :   -0.136451
   6 C :   -0.106243
   7 H :   -0.105164
   8 N :    0.314556
   9 C :   -0.036357
  10 C :    0.515971
  11 H :   -0.232562
  12 H :   -0.172875
  13 C :    0.129709
  14 C :    0.161464
  15 C :   -0.072338
  16 H :   -0.198714
  17 H :   -0.200357
  18 C :    0.580951
  19 H :   -0.173830
  20 H :   -0.165612
  21 H :   -0.172010
  22 C :    0.168677
  23 H :   -0.114845
  24 H :   -0.134767
  25 C :   -0.044260
  26 C :   -0.066964
  27 C :    0.301082
  28 H :   -0.131951
  29 H :   -0.142852
  30 H :   -0.133123
  31 C :    0.223140
  32 H :   -0.172606
  33 C :    0.227284
  34 H :   -0.174226
  35 C :    0.199194
  36 H :   -0.183070
  37 C :    0.204237
  38 H :   -0.182512
  39 Si:    0.495297
  40 C :    0.600654
  41 H :   -0.221776
  42 H :   -0.223951
  43 H :   -0.237311
  44 C :    0.574874
  45 H :   -0.221567
  46 H :   -0.226387
  47 H :   -0.232203
  48 C :    0.592016
  49 H :   -0.241968
  50 H :   -0.226566
  51 H :   -0.221124

  Mayer bond orders larger than 0.100000
B(  0-C ,  1-H ) :   1.1098 B(  0-C ,  2-C ) :   0.3116 B(  0-C ,  8-N ) :   1.0139
B(  0-C ,  9-C ) :  -0.1890 B(  0-C , 10-C ) :  -0.3044 B(  0-C , 11-H ) :  -0.1026
B(  0-C , 15-C ) :   0.1579 B(  0-C , 30-H ) :   1.1543 B(  1-H ,  2-C ) :  -0.1366
B(  1-H ,  8-N ) :  -0.1092 B(  2-C ,  6-C ) :   0.1988 B(  2-C ,  8-N ) :  -0.2346
B(  2-C ,  9-C ) :   0.1734 B(  2-C , 10-C ) :   0.6608 B(  2-C , 11-H ) :  -0.1036
B(  2-C , 13-C ) :   0.3258 B(  2-C , 14-C ) :  -0.1754 B(  2-C , 15-C ) :   1.3007
B(  2-C , 16-H ) :  -0.1388 B(  2-C , 30-H ) :  -0.2035 B(  3-C ,  4-H ) :   1.1714
B(  3-C ,  5-H ) :   0.8801 B(  3-C ,  6-C ) :   0.9659 B(  3-C ,  8-N ) :   0.4193
B(  3-C ,  9-C ) :   0.4713 B(  3-C , 15-C ) :   0.8361 B(  3-C , 25-C ) :   0.5964
B(  3-C , 33-C ) :  -0.3437 B(  4-H ,  8-N ) :   0.1536 B(  4-H , 39-Si) :   0.1207
B(  6-C ,  7-H ) :   1.1448 B(  6-C ,  8-N ) :   0.2845 B(  6-C , 15-C ) :  -0.1080
B(  6-C , 25-C ) :   0.4113 B(  6-C , 26-C ) :   0.4874 B(  6-C , 31-C ) :  -0.1499
B(  6-C , 33-C ) :   0.9351 B(  6-C , 35-C ) :   0.1514 B(  7-H ,  8-N ) :  -0.1170
B(  7-H , 25-C ) :  -0.3196 B(  8-N ,  9-C ) :  -0.1249 B(  8-N , 13-C ) :   0.1020
B(  8-N , 15-C ) :  -0.2710 B(  8-N , 22-C ) :   0.7708 B(  8-N , 25-C ) :   0.1759
B(  8-N , 26-C ) :  -0.1175 B(  9-C , 10-C ) :   0.2194 B(  9-C , 11-H ) :   0.1963
B(  9-C , 12-H ) :  -0.1206 B(  9-C , 13-C ) :   0.6915 B(  9-C , 14-C ) :   0.1977
B(  9-C , 15-C ) :   1.9222 B(  9-C , 17-H ) :  -0.2859 B(  9-C , 39-Si) :   1.2335
B(  9-C , 40-C ) :   0.2884 B(  9-C , 44-C ) :  -0.2841 B(  9-C , 48-C ) :   0.1412
B( 10-C , 11-H ) :   1.1378 B( 10-C , 12-H ) :   0.7079 B( 10-C , 14-C ) :   0.5794
B( 10-C , 16-H ) :   0.2940 B( 12-H , 15-C ) :  -0.1364 B( 13-C , 14-C ) :   1.1219
B( 13-C , 15-C ) :  -0.4531 B( 13-C , 17-H ) :   1.4862 B( 13-C , 18-C ) :   0.1116
B( 13-C , 44-C ) :   0.2135 B( 14-C , 16-H ) :   0.9772 B( 14-C , 18-C ) :   0.4085
B( 15-C , 16-H ) :  -0.1058 B( 15-C , 17-H ) :  -0.1581 B( 15-C , 30-H ) :   0.1033
B( 15-C , 33-C ) :   0.1594 B( 15-C , 34-H ) :   0.1215 B( 15-C , 40-C ) :  -0.1060
B( 17-H , 44-C ) :   0.1077 B( 18-C , 19-H ) :   0.9913 B( 18-C , 20-H ) :   1.0023
B( 18-C , 21-H ) :   0.9978 B( 22-C , 23-H ) :   1.0307 B( 22-C , 24-H ) :   0.9307
B( 22-C , 26-C ) :   0.1184 B( 22-C , 27-C ) :   1.0903 B( 25-C , 26-C ) :   0.5633
B( 25-C , 27-C ) :   0.2464 B( 25-C , 31-C ) :   0.4763 B( 25-C , 32-H ) :   0.1035
B( 25-C , 33-C ) :  -0.4459 B( 25-C , 35-C ) :  -0.2721 B( 25-C , 36-H ) :   0.1179
B( 25-C , 38-H ) :  -0.1205 B( 26-C , 27-C ) :   0.1115 B( 26-C , 28-H ) :  -0.1059
B( 26-C , 31-C ) :   0.5132 B( 26-C , 32-H ) :  -0.1096 B( 26-C , 34-H ) :   0.1054
B( 26-C , 35-C ) :   0.4274 B( 26-C , 36-H ) :  -0.1275 B( 26-C , 38-H ) :   0.1249
B( 27-C , 28-H ) :   1.1191 B( 27-C , 29-H ) :   1.0597 B( 27-C , 31-C ) :   0.1744
B( 27-C , 33-C ) :  -0.1450 B( 31-C , 32-H ) :   1.6773 B( 31-C , 35-C ) :   0.9052
B( 31-C , 37-C ) :  -0.1892 B( 32-H , 35-C ) :  -0.1656 B( 33-C , 34-H ) :   1.3559
B( 33-C , 35-C ) :   0.2882 B( 33-C , 37-C ) :   1.3550 B( 35-C , 36-H ) :   0.3294
B( 35-C , 37-C ) :   1.0584 B( 37-C , 38-H ) :   0.8763 B( 39-Si, 40-C ) :   0.1549
B( 39-Si, 42-H ) :  -0.1552 B( 39-Si, 43-H ) :   0.1060 B( 39-Si, 44-C ) :  -1.2821
B( 39-Si, 46-H ) :  -0.2171 B( 39-Si, 47-H ) :  -0.1038 B( 39-Si, 48-C ) :   0.2179
B( 39-Si, 49-H ) :   0.1008 B( 39-Si, 50-H ) :  -0.1557 B( 40-C , 41-H ) :   1.0740
B( 40-C , 42-H ) :   1.1330 B( 40-C , 43-H ) :   0.7298 B( 40-C , 44-C ) :   0.1707
B( 40-C , 48-C ) :   0.2570 B( 44-C , 45-H ) :   1.0823 B( 44-C , 46-H ) :   1.4639
B( 44-C , 47-H ) :   1.1207 B( 44-C , 48-C ) :   0.1072 B( 48-C , 49-H ) :   0.8047
B( 48-C , 50-H ) :   1.1979 B( 48-C , 51-H ) :   1.0394

MP2 TOTAL ENERGY:    -1159.608835595 Eh
FINAL SINGLE POINT ENERGY     -1159.608835595151

DIPOLE MOMENT
-------------
                                X             Y             Z
Electronic contribution:    -14.30878      -2.95742      -3.68171
Nuclear contribution   :     14.40138       2.47346       3.65205
                        -----------------------------------------
Total Dipole Moment    :      0.09260      -0.48396      -0.02966
                        -----------------------------------------
Magnitude (a.u.)       :      0.49363
Magnitude (Debye)      :      1.25471

Rotational constants in cm-1:     0.012582     0.005476     0.004371
Rotational constants in MHz :   377.189237   164.169757   131.046469

                             ****ORCA TERMINATED NORMALLY****
TOTAL RUN TIME: 0 days 2 hours 10 minutes 25 seconds 183 msec
