                         Program Version 4.2.1 -  RELEASE  -
|  1> %pal
|  2>  nprocs 32
|  3> end
|  4> !RI-MP2 aug-cc-pVTZ aug-cc-pVTZ/C TightSCF
|  5> %maxcore 4500
|  6> *xyzfile 0 1  09_2R1.xyz
|  7>
|  8>
|  9>                          ****END OF INPUT****

CARTESIAN COORDINATES (ANGSTROEM)
---------------------------------
  C     -2.205380   -0.244027   -0.000107
  C     -1.323653   -1.321492   -0.000059
  C      0.041307   -1.097885    0.000008
  C      0.529112    0.208118    0.000028
  C     -0.354708    1.282515   -0.000018
  C     -1.723616    1.057655   -0.000087
  H     -3.274005   -0.422831   -0.000160
  H     -1.707892   -2.334134   -0.000074
  H      0.749022   -1.917644    0.000044
  H      0.033725    2.295509   -0.000001
  H     -2.412893    1.892875   -0.000125
  C      1.984932    0.463980    0.000098
  O      2.831919   -0.392852    0.000127
  H      2.268734    1.535859    0.000124

 Total Charge           Charge          ....    0
 Multiplicity           Mult            ....    1
 Number of Electrons    NEL             ....   56
 Basis Dimension        Dim             ....  506

ORBITAL ENERGIES
----------------

  NO   OCC          E(Eh)            E(eV)
   0   2.0000     -20.555928      -559.3552
   1   2.0000     -11.334262      -308.4210
   2   2.0000     -11.259844      -306.3959
   3   2.0000     -11.257303      -306.3268
   4   2.0000     -11.253097      -306.2123
   5   2.0000     -11.251041      -306.1564
   6   2.0000     -11.250304      -306.1363
   7   2.0000     -11.248696      -306.0926
   8   2.0000      -1.396179       -37.9919
   9   2.0000      -1.176646       -32.0182
  10   2.0000      -1.053046       -28.6548
  11   2.0000      -1.036573       -28.2066
  12   2.0000      -0.894937       -24.3525
  13   2.0000      -0.848663       -23.0933
  14   2.0000      -0.793701       -21.5977
  15   2.0000      -0.722802       -19.6685
  16   2.0000      -0.680480       -18.5168
  17   2.0000      -0.655429       -17.8351
  18   2.0000      -0.622462       -16.9380
  19   2.0000      -0.618262       -16.8238
  20   2.0000      -0.606153       -16.4943
  21   2.0000      -0.558339       -15.1932
  22   2.0000      -0.531180       -14.4541
  23   2.0000      -0.511005       -13.9052
  24   2.0000      -0.505823       -13.7642
  25   2.0000      -0.428991       -11.6734
  26   2.0000      -0.357535        -9.7290
  27   2.0000      -0.354060        -9.6345
  28   0.0000       0.024143         0.6570
  29   0.0000       0.030300         0.8245
  30   0.0000       0.036493         0.9930
  31   0.0000       0.045750         1.2449
  32   0.0000       0.052164         1.4195

MULLIKEN ATOMIC CHARGES
-----------------------
   0 C :   -0.191774
   1 C :   -0.627046
   2 C :   -0.776764
   3 C :    1.715225
   4 C :   -0.920751
   5 C :   -0.604566
   6 H :    0.393887
   7 H :    0.521235
   8 H :    0.230420
   9 H :    0.204438
  10 H :    0.522441
  11 C :   -0.167524
  12 O :   -0.832386
  13 H :    0.533166
Sum of atomic charges:   -0.0000000

LOEWDIN ATOMIC CHARGES
----------------------
   0 C :    0.204706
   1 C :    0.209821
   2 C :    0.209587
   3 C :   -0.155075
   4 C :    0.194793
   5 C :    0.206003
   6 H :   -0.177143
   7 H :   -0.180923
   8 H :   -0.175909
   9 H :   -0.176487
  10 H :   -0.182210
  11 C :   -0.235312
  12 O :    0.442741
  13 H :   -0.184591

  Mayer bond orders larger than 0.100000
B(  0-C ,  1-C ) :   1.0862 B(  0-C ,  4-C ) :  -0.1437 B(  0-C ,  5-C ) :   1.1736
B(  0-C ,  6-H ) :   0.9067 B(  0-C , 11-C ) :   0.1155 B(  1-C ,  2-C ) :   1.2559
B(  1-C ,  5-C ) :   0.1225 B(  1-C ,  6-H ) :  -0.1572 B(  1-C ,  7-H ) :   0.7054
B(  2-C ,  3-C ) :   0.4413 B(  2-C ,  6-H ) :   0.1684 B(  2-C ,  7-H ) :  -0.1354
B(  2-C ,  8-H ) :   1.1332 B(  2-C ,  9-H ) :   0.1234 B(  2-C , 11-C ) :   0.1461
B(  3-C ,  4-C ) :   0.3223 B(  3-C ,  8-H ) :  -0.1472 B(  3-C ,  9-H ) :  -0.1891
B(  3-C , 11-C ) :   0.4057 B(  3-C , 12-O ) :  -0.1467 B(  4-C ,  5-C ) :   1.2223
B(  4-C ,  6-H ) :   0.1335 B(  4-C ,  8-H ) :   0.1271 B(  4-C ,  9-H ) :   1.3887
B(  4-C , 10-H ) :  -0.1374 B(  5-C ,  6-H ) :  -0.1674 B(  5-C ,  9-H ) :  -0.1106
B(  5-C , 10-H ) :   0.7131 B( 11-C , 12-O ) :   1.4581 B( 11-C , 13-H ) :   0.6983
B( 12-O , 13-H ) :  -0.1352

MP2 TOTAL ENERGY:     -344.896479950 Eh
FINAL SINGLE POINT ENERGY      -344.896479950341

DIPOLE MOMENT
-------------
                                X             Y             Z
Electronic contribution:      2.94336      -0.43398       0.00013
Nuclear contribution   :     -4.26011       1.03408      -0.00019
                        -----------------------------------------
Total Dipole Moment    :     -1.31675       0.60010      -0.00005
                        -----------------------------------------
Magnitude (a.u.)       :      1.44705
Magnitude (Debye)      :      3.67810

Rotational constants in cm-1:     0.176393     0.052532     0.040477
Rotational constants in MHz :  5288.128253  1574.867178  1213.478823

                             ****ORCA TERMINATED NORMALLY****
TOTAL RUN TIME: 0 days 0 hours 2 minutes 13 seconds 727 msec
