                         Program Version 4.2.1 -  RELEASE  -
|  1> %pal
|  2>  nprocs 32
|  3> end
|  4> !RI-MP2 aug-cc-pVTZ aug-cc-pVTZ/C TightSCF
|  5> %maxcore 4500
|  6> *xyzfile -1 1  09_23TS.xyz
|  7>
|  8>
|  9>                          ****END OF INPUT****

CARTESIAN COORDINATES (ANGSTROEM)
---------------------------------
  C      3.415369   -0.625664   -1.249144
  C      2.594564   -0.084837   -0.074413
  H      4.045881   -1.469069   -0.945939
  H      4.067947    0.155316   -1.655399
  H      2.758074   -0.966526   -2.053575
  C      3.542988    0.201285    1.093123
  H      3.987824   -0.724508    1.475542
  H      3.005241    0.682620    1.913866
  H      4.356329    0.867095    0.784261
  C      1.857273    1.217953   -0.490997
  C      0.550388    1.291932    0.225800
  H      1.653901    1.172287   -1.571944
  H      2.564905    2.069652   -0.372210
  C     -0.519618    2.231897   -0.302477
  C     -1.835317    1.552846   -0.020490
  H     -0.400085    2.340200   -1.387338
  H     -0.491911    3.258423    0.120402
  C     -2.237297    1.531197    1.426153
  H     -1.489423    0.994177    2.014977
  H     -3.207262    1.061087    1.589502
  H     -2.283609    2.555718    1.813870
  C     -2.407860    0.803797   -0.961827
  C     -3.171803   -0.462978   -0.734973
  C     -2.147744   -1.626269   -0.899243
  H     -3.990563   -0.595834   -1.455907
  H     -3.612472   -0.499997    0.264428
  C     -0.953316   -1.616466    0.025277
  H     -1.796525   -1.591528   -1.939648
  H     -2.695799   -2.577198   -0.793516
  C      0.183814   -0.899191   -0.292425
  C     -1.207591   -2.126886    1.416377
  H     -1.770093   -1.418963    2.054330
  H     -0.280266   -2.348361    1.951718
  H     -1.797908   -3.054419    1.401281
  C      1.528132   -1.114010    0.368873
  H      1.898889   -2.129515    0.158895
  H      1.403056   -1.055215    1.452608
  H      0.255764   -0.619028   -1.343944
  H      0.662569    1.352150    1.313376
  H     -1.996343    0.893804   -1.967313

 Total Charge           Charge          ....   -1
 Multiplicity           Mult            ....    1
 Number of Electrons    NEL             ....  116
 Basis Dimension        Dim             .... 1265

ORBITAL ENERGIES
----------------

  NO   OCC          E(Eh)            E(eV)
   0   2.0000     -11.090168      -301.7788
   1   2.0000     -11.088958      -301.7459
   2   2.0000     -11.087580      -301.7084
   3   2.0000     -11.081892      -301.5536
   4   2.0000     -11.081131      -301.5329
   5   2.0000     -11.080246      -301.5088
   6   2.0000     -11.079392      -301.4856
   7   2.0000     -11.071884      -301.2813
   8   2.0000     -11.069631      -301.2200
   9   2.0000     -11.065786      -301.1153
  10   2.0000     -11.062791      -301.0338
  11   2.0000     -11.060242      -300.9645
  12   2.0000     -11.058981      -300.9302
  13   2.0000     -11.015886      -299.7575
  14   2.0000     -10.994747      -299.1823
  15   2.0000      -0.981362       -26.7042
  16   2.0000      -0.961002       -26.1502
  17   2.0000      -0.918355       -24.9897
  18   2.0000      -0.873169       -23.7601
  19   2.0000      -0.835449       -22.7337
  20   2.0000      -0.814928       -22.1753
  21   2.0000      -0.806308       -21.9408
  22   2.0000      -0.785826       -21.3834
  23   2.0000      -0.763083       -20.7645
  24   2.0000      -0.725036       -19.7292
  25   2.0000      -0.682603       -18.5746
  26   2.0000      -0.612932       -16.6787
  27   2.0000      -0.575150       -15.6506
  28   2.0000      -0.560710       -15.2577
  29   2.0000      -0.551721       -15.0131
  30   2.0000      -0.506152       -13.7731
  31   2.0000      -0.479578       -13.0500
  32   2.0000      -0.475288       -12.9333
  33   2.0000      -0.459381       -12.5004
  34   2.0000      -0.457958       -12.4617
  35   2.0000      -0.452470       -12.3123
  36   2.0000      -0.438913       -11.9434
  37   2.0000      -0.432462       -11.7679
  38   2.0000      -0.416803       -11.3418
  39   2.0000      -0.409398       -11.1403
  40   2.0000      -0.406046       -11.0491
  41   2.0000      -0.396873       -10.7995
  42   2.0000      -0.382280       -10.4024
  43   2.0000      -0.377868       -10.2823
  44   2.0000      -0.369469       -10.0537
  45   2.0000      -0.367301        -9.9948
  46   2.0000      -0.357730        -9.7343
  47   2.0000      -0.346641        -9.4326
  48   2.0000      -0.339688        -9.2434
  49   2.0000      -0.325183        -8.8487
  50   2.0000      -0.315346        -8.5810
  51   2.0000      -0.308471        -8.3939
  52   2.0000      -0.291088        -7.9209
  53   2.0000      -0.284001        -7.7281
  54   2.0000      -0.280290        -7.6271
  55   2.0000      -0.188568        -5.1312
  56   2.0000      -0.168590        -4.5876
  57   2.0000      -0.030394        -0.8271
  58   0.0000       0.100222         2.7272
  59   0.0000       0.105242         2.8638
  60   0.0000       0.106357         2.8941
  61   0.0000       0.109002         2.9661
  62   0.0000       0.112490         3.0610

MULLIKEN ATOMIC CHARGES
-----------------------
   0 C :   -1.679950
   1 C :    2.371878
   2 H :    0.218371
   3 H :    0.160080
   4 H :    0.323067
   5 C :   -1.632703
   6 H :    0.165687
   7 H :    0.281734
   8 H :    0.224517
   9 C :   -1.525827
  10 C :    0.355322
  11 H :   -0.059633
  12 H :    0.433232
  13 C :   -0.870934
  14 C :    0.885220
  15 H :    0.049315
  16 H :    0.379879
  17 C :   -1.164194
  18 H :    0.240764
  19 H :    0.207283
  20 H :    0.271620
  21 C :   -0.606056
  22 C :   -0.374571
  23 C :   -0.736467
  24 H :    0.331029
  25 H :    0.101965
  26 C :    0.455142
  27 H :    0.071191
  28 H :    0.342172
  29 C :    0.552178
  30 C :   -1.042153
  31 H :    0.256944
  32 H :    0.306332
  33 H :    0.187106
  34 C :   -1.377677
  35 H :    0.444991
  36 H :    0.064120
  37 H :    0.012033
  38 H :    0.209518
  39 H :    0.167473
Sum of atomic charges:   -1.0000000

LOEWDIN ATOMIC CHARGES
----------------------
   0 C :    0.564722
   1 C :   -0.338367
   2 H :   -0.165880
   3 H :   -0.161588
   4 H :   -0.160444
   5 C :    0.563638
   6 H :   -0.160893
   7 H :   -0.162764
   8 H :   -0.165804
   9 C :    0.198569
  10 C :    0.138434
  11 H :   -0.167512
  12 H :   -0.144732
  13 C :    0.207495
  14 C :   -0.122114
  15 H :   -0.178523
  16 H :   -0.158009
  17 C :    0.567343
  18 H :   -0.181264
  19 H :   -0.190409
  20 H :   -0.167098
  21 C :    0.206928
  22 C :    0.251316
  23 C :    0.225387
  24 H :   -0.161011
  25 H :   -0.182314
  26 C :   -0.104536
  27 H :   -0.168148
  28 H :   -0.164313
  29 C :    0.162893
  30 C :    0.509555
  31 H :   -0.180687
  32 H :   -0.199318
  33 H :   -0.185924
  34 C :    0.255878
  35 H :   -0.136763
  36 H :   -0.170445
  37 H :   -0.179467
  38 H :   -0.209231
  39 H :   -0.184600

  Mayer bond orders larger than 0.100000
B(  0-C ,  1-C ) :  -0.2164 B(  0-C ,  2-H ) :   1.1579 B(  0-C ,  3-H ) :   1.2348
B(  0-C ,  4-H ) :   1.0536 B(  0-C ,  5-C ) :   0.1758 B(  1-C ,  2-H ) :  -0.2018
B(  1-C ,  3-H ) :  -0.2153 B(  1-C ,  4-H ) :  -0.1453 B(  1-C ,  5-C ) :  -0.2944
B(  1-C ,  6-H ) :  -0.2342 B(  1-C ,  7-H ) :  -0.1833 B(  1-C ,  8-H ) :  -0.1749
B(  1-C ,  9-C ) :   0.6507 B(  1-C , 12-H ) :  -0.1123 B(  1-C , 29-C ) :   0.2537
B(  1-C , 34-C ) :   0.6543 B(  1-C , 35-H ) :  -0.1585 B(  5-C ,  6-H ) :   1.2350
B(  5-C ,  7-H ) :   1.1030 B(  5-C ,  8-H ) :   1.1208 B(  5-C ,  9-C ) :   0.1757
B(  9-C , 10-C ) :   0.6275 B(  9-C , 11-H ) :   1.5751 B(  9-C , 12-H ) :   0.7485
B(  9-C , 29-C ) :  -0.1703 B(  9-C , 34-C ) :   0.4865 B(  9-C , 37-H ) :  -0.1023
B( 10-C , 11-H ) :  -0.1073 B( 10-C , 13-C ) :   0.7054 B( 10-C , 14-C ) :   0.3613
B( 10-C , 29-C ) :   0.3509 B( 10-C , 34-C ) :  -0.1210 B( 10-C , 38-H ) :   0.9854
B( 13-C , 14-C ) :   0.6849 B( 13-C , 15-H ) :   1.3395 B( 13-C , 16-H ) :   0.8883
B( 13-C , 34-C ) :   0.1132 B( 14-C , 16-H ) :  -0.1110 B( 14-C , 17-C ) :   0.6191
B( 14-C , 20-H ) :  -0.1695 B( 14-C , 21-C ) :   1.0537 B( 17-C , 18-H ) :   1.1710
B( 17-C , 19-H ) :   1.1040 B( 17-C , 20-H ) :   0.9677 B( 17-C , 21-C ) :  -0.2144
B( 21-C , 22-C ) :   0.8703 B( 21-C , 24-H ) :  -0.1438 B( 21-C , 26-C ) :  -0.1111
B( 21-C , 29-C ) :   0.1412 B( 21-C , 39-H ) :   1.1922 B( 22-C , 23-C ) :   0.8993
B( 22-C , 24-H ) :   0.9260 B( 22-C , 25-H ) :   1.0802 B( 23-C , 26-C ) :   0.9403
B( 23-C , 27-H ) :   1.1830 B( 23-C , 28-H ) :   0.8852 B( 26-C , 29-C ) :   1.9068
B( 26-C , 30-C ) :   0.3614 B( 26-C , 33-H ) :  -0.1116 B( 26-C , 34-C ) :   0.1312
B( 26-C , 36-H ) :  -0.1541 B( 29-C , 30-C ) :   0.1854 B( 29-C , 34-C ) :   0.5300
B( 29-C , 37-H ) :   1.3695 B( 30-C , 31-H ) :   1.0462 B( 30-C , 32-H ) :   0.9531
B( 30-C , 33-H ) :   1.1485 B( 34-C , 35-H ) :   0.7516 B( 34-C , 36-H ) :   1.5292
B( 34-C , 37-H ) :   0.1113 B( 34-C , 38-H ) :  -0.1600

MP2 TOTAL ENERGY:     -585.270576852 Eh
FINAL SINGLE POINT ENERGY      -585.270576851687

DIPOLE MOMENT
-------------
                                X             Y             Z
Electronic contribution:     -4.63711       1.56164      -2.86733
Nuclear contribution   :      5.09867      -1.73278       2.96818
                        -----------------------------------------
Total Dipole Moment    :      0.46156      -0.17114       0.10085
                        -----------------------------------------
Magnitude (a.u.)       :      0.50249
Magnitude (Debye)      :      1.27722

Rotational constants in cm-1:     0.030370     0.014482     0.012250
Rotational constants in MHz :   910.469381   434.164506   367.244409

                             ****ORCA TERMINATED NORMALLY****
TOTAL RUN TIME: 0 days 0 hours 48 minutes 20 seconds 67 msec
