                         Program Version 4.2.1 -  RELEASE  -
|  1> %pal
|  2>  nprocs 32
|  3> end
|  4> !RI-MP2 aug-cc-pVTZ aug-cc-pVTZ/C TightSCF
|  5> %maxcore 4500
|  6> *xyzfile 0 1  04_23R1.xyz
|  7>
|  8>
|  9>                          ****END OF INPUT****

CARTESIAN COORDINATES (ANGSTROEM)
---------------------------------
  C     -2.529849   -0.103247    0.987313
  S     -1.792261   -0.321828   -0.653291
  C     -0.497444    0.949981   -0.599612
  C      0.646676    0.663647    0.370866
  C      1.654758    1.817138    0.379785
  C      1.353018   -0.608203   -0.039032
  O      1.481126   -1.480179    0.977739
  O      1.788795   -0.827166   -1.136358
  H     -3.405794   -0.749425    1.027321
  H     -1.847349   -0.398777    1.783398
  H     -2.851876    0.928449    1.134523
  H      1.162143    2.744582    0.677176
  H      2.084491    1.955583   -0.613805
  H      2.468448    1.626513    1.081798
  H     -0.104643    1.005700   -1.615736
  H     -0.952407    1.913870   -0.361379
  H      0.254885    0.522236    1.378766
  H      1.945949   -2.256621    0.633620

 Total Charge           Charge          ....    0
 Multiplicity           Mult            ....    1
 Number of Electrons    NEL             ....   72
 Basis Dimension        Dim             ....  602

ORBITAL ENERGIES
----------------

  NO   OCC          E(Eh)            E(eV)
   0   2.0000     -91.949051     -2502.0609
   1   2.0000     -20.613997      -560.9354
   2   2.0000     -20.546747      -559.1054
   3   2.0000     -11.382684      -309.7386
   4   2.0000     -11.264637      -306.5264
   5   2.0000     -11.257759      -306.3392
   6   2.0000     -11.254878      -306.2608
   7   2.0000     -11.235074      -305.7219
   8   2.0000      -8.949300      -243.5228
   9   2.0000      -6.630595      -180.4277
  10   2.0000      -6.629598      -180.4005
  11   2.0000      -6.628659      -180.3750
  12   2.0000      -1.468964       -39.9725
  13   2.0000      -1.363924       -37.1142
  14   2.0000      -1.117699       -30.4141
  15   2.0000      -1.041412       -28.3382
  16   2.0000      -0.951173       -25.8827
  17   2.0000      -0.909377       -24.7454
  18   2.0000      -0.827665       -22.5219
  19   2.0000      -0.772290       -21.0151
  20   2.0000      -0.714456       -19.4413
  21   2.0000      -0.697239       -18.9728
  22   2.0000      -0.645119       -17.5546
  23   2.0000      -0.620869       -16.8947
  24   2.0000      -0.605834       -16.4856
  25   2.0000      -0.594164       -16.1680
  26   2.0000      -0.589829       -16.0501
  27   2.0000      -0.565797       -15.3961
  28   2.0000      -0.548470       -14.9246
  29   2.0000      -0.537627       -14.6296
  30   2.0000      -0.514486       -13.9999
  31   2.0000      -0.485323       -13.2063
  32   2.0000      -0.478875       -13.0308
  33   2.0000      -0.448917       -12.2157
  34   2.0000      -0.430495       -11.7144
  35   2.0000      -0.343190        -9.3387
  36   0.0000       0.025844         0.7032
  37   0.0000       0.032869         0.8944
  38   0.0000       0.034137         0.9289
  39   0.0000       0.041439         1.1276
  40   0.0000       0.048643         1.3236

MULLIKEN ATOMIC CHARGES
-----------------------
   0 C :   -0.766465
   1 S :   -0.406748
   2 C :   -0.229526
   3 C :    0.522581
   4 C :   -1.087897
   5 C :    0.779763
   6 O :   -0.510855
   7 O :   -0.917890
   8 H :    0.285209
   9 H :    0.282463
  10 H :    0.279876
  11 H :    0.260147
  12 H :    0.290218
  13 H :    0.274439
  14 H :    0.236966
  15 H :    0.266245
  16 H :    0.216355
  17 H :    0.225117
Sum of atomic charges:   -0.0000000

LOEWDIN ATOMIC CHARGES
----------------------
   0 C :    0.223685
   1 S :    1.207237
   2 C :   -0.079610
   3 C :   -0.128063
   4 C :    0.590481
   5 C :   -0.837021
   6 O :    0.845137
   7 O :    0.472633
   8 H :   -0.254473
   9 H :   -0.247830
  10 H :   -0.238301
  11 H :   -0.160654
  12 H :   -0.160422
  13 H :   -0.157851
  14 H :   -0.222678
  15 H :   -0.208332
  16 H :   -0.178467
  17 H :   -0.465471

  Mayer bond orders larger than 0.100000
B(  0-C ,  1-S ) :   0.9468 B(  0-C ,  8-H ) :   0.9608 B(  0-C ,  9-H ) :   0.9160
B(  0-C , 10-H ) :   0.9159 B(  1-S ,  2-C ) :   0.8003 B(  1-S ,  3-C ) :   0.1103
B(  2-C ,  3-C ) :   0.9299 B(  2-C ,  4-C ) :   0.1040 B(  2-C , 14-H ) :   0.9907
B(  2-C , 15-H ) :   0.9057 B(  3-C ,  4-C ) :   0.5426 B(  3-C ,  5-C ) :   0.6285
B(  3-C ,  6-O ) :  -0.1598 B(  3-C , 16-H ) :   0.9116 B(  4-C , 11-H ) :   0.9951
B(  4-C , 12-H ) :   0.9917 B(  4-C , 13-H ) :   0.9870 B(  5-C ,  6-O ) :   0.8850
B(  5-C ,  7-O ) :   1.1818 B(  6-O , 16-H ) :   0.1066 B(  6-O , 17-H ) :   0.9752

MP2 TOTAL ENERGY:     -744.118624845 Eh
FINAL SINGLE POINT ENERGY      -744.118624845021

DIPOLE MOMENT
-------------
                                X             Y             Z
Electronic contribution:      1.04299      -6.73596      -4.05655
Nuclear contribution   :     -1.14803       7.32134       5.18275
                        -----------------------------------------
Total Dipole Moment    :     -0.10505       0.58538       1.12621
                        -----------------------------------------
Magnitude (a.u.)       :      1.27360
Magnitude (Debye)      :      3.23722

Rotational constants in cm-1:     0.077894     0.037404     0.033429
Rotational constants in MHz :  2335.205351  1121.342304  1002.173688

                             ****ORCA TERMINATED NORMALLY****
TOTAL RUN TIME: 0 days 0 hours 3 minutes 22 seconds 974 msec
