                         Program Version 4.2.1 -  RELEASE  -
|  1> %pal
|  2>  nprocs 32
|  3> end
|  4> !RI-MP2 aug-cc-pVTZ aug-cc-pVTZ/C TightSCF
|  5> %maxcore 4500
|  6> *xyzfile 0 1  08_1P1.xyz
|  7>
|  8>
|  9>                          ****END OF INPUT****

CARTESIAN COORDINATES (ANGSTROEM)
---------------------------------
  C     -0.635750    0.000000    0.000000
  F      0.752071    0.000000    0.000000
  H     -0.984716   -0.626482   -0.821610
  H     -0.984712   -0.398294    0.953356
  H     -0.984708    1.024779   -0.131744

 Total Charge           Charge          ....    0
 Multiplicity           Mult            ....    1
 Number of Electrons    NEL             ....   18
 Basis Dimension        Dim             ....  161

ORBITAL ENERGIES
----------------

  NO   OCC          E(Eh)            E(eV)
   0   2.0000     -26.277940      -715.0591
   1   2.0000     -11.307259      -307.6862
   2   2.0000      -1.585057       -43.1316
   3   2.0000      -0.954754       -25.9802
   4   2.0000      -0.694343       -18.8940
   5   2.0000      -0.694343       -18.8940
   6   2.0000      -0.672289       -18.2939
   7   2.0000      -0.531607       -14.4658
   8   2.0000      -0.531606       -14.4657
   9   0.0000       0.028725         0.7816
  10   0.0000       0.046566         1.2671
  11   0.0000       0.046566         1.2671
  12   0.0000       0.074436         2.0255
  13   0.0000       0.123435         3.3588

MULLIKEN ATOMIC CHARGES
-----------------------
   0 C :   -0.454126
   1 F :   -0.430544
   2 H :    0.294890
   3 H :    0.294890
   4 H :    0.294890
Sum of atomic charges:    0.0000000

LOEWDIN ATOMIC CHARGES
----------------------
   0 C :    0.217459
   1 F :    0.400657
   2 H :   -0.206038
   3 H :   -0.206039
   4 H :   -0.206039

  Mayer bond orders larger than 0.100000
B(  0-C ,  1-F ) :   0.6717 B(  0-C ,  2-H ) :   0.9187 B(  0-C ,  3-H ) :   0.9187
B(  0-C ,  4-H ) :   0.9187

MP2 TOTAL ENERGY:     -139.541473660 Eh
FINAL SINGLE POINT ENERGY      -139.541473659932

DIPOLE MOMENT
-------------
                                X             Y             Z
Electronic contribution:      2.85829      -0.00000      -0.00000
Nuclear contribution   :     -3.67214       0.00000       0.00000
                        -----------------------------------------
Total Dipole Moment    :     -0.81385      -0.00000      -0.00000
                        -----------------------------------------
Magnitude (a.u.)       :      0.81385
Magnitude (Debye)      :      2.06864

Rotational constants in cm-1:     5.221999     0.853562     0.853562
Rotational constants in MHz : 156551.595956 25589.148265 25589.144460

                             ****ORCA TERMINATED NORMALLY****
TOTAL RUN TIME: 0 days 0 hours 0 minutes 10 seconds 285 msec
