                         Program Version 4.2.1 -  RELEASE  -
|  1> %pal
|  2>  nprocs 32
|  3> end
|  4> !RI-MP2 aug-cc-pVTZ aug-cc-pVTZ/C TightSCF
|  5> %maxcore 4500
|  6> *xyzfile 0 1  07_8P2.xyz
|  7>
|  8>
|  9>                          ****END OF INPUT****

CARTESIAN COORDINATES (ANGSTROEM)
---------------------------------
  N     -1.826135    1.411824    1.129052
  C     -2.134059    0.766058   -0.147198
  C     -2.481412   -0.711885    0.100391
  O     -2.594362   -1.512084   -0.786871
  O     -2.677856   -1.012776    1.379510
  C     -1.054181    0.906720   -1.233370
  H     -1.365879    0.307055   -2.089142
  H     -1.025758    1.950457   -1.554742
  C      0.314368    0.486204   -0.761522
  C      1.247481    1.431400   -0.337644
  H      1.001377    2.486636   -0.396788
  C      2.493965    1.059571    0.141043
  H      3.217616    1.797214    0.463301
  C      2.829205   -0.285638    0.201062
  C      1.917977   -1.244867   -0.224335
  H      2.179706   -2.297422   -0.186954
  C      0.674832   -0.858870   -0.700280
  H     -0.026955   -1.615538   -1.029648
  O      4.064196   -0.606860    0.678420
  H     -3.061477    1.202169   -0.529574
  H     -2.497883   -0.180605    1.870397
  H     -2.179999    2.357321    1.181434
  H     -0.825713    1.432138    1.301372
  H      4.183026   -1.560594    0.669618

 Total Charge           Charge          ....    0
 Multiplicity           Mult            ....    1
 Number of Electrons    NEL             ....   96
 Basis Dimension        Dim             ....  851

ORBITAL ENERGIES
----------------

  NO   OCC          E(Eh)            E(eV)
   0   2.0000     -20.596720      -560.4652
   1   2.0000     -20.594657      -560.4091
   2   2.0000     -20.533212      -558.7371
   3   2.0000     -15.578391      -423.9096
   4   2.0000     -11.371963      -309.4468
   5   2.0000     -11.308208      -307.7120
   6   2.0000     -11.292144      -307.2749
   7   2.0000     -11.247782      -306.0677
   8   2.0000     -11.244175      -305.9696
   9   2.0000     -11.243163      -305.9420
  10   2.0000     -11.241317      -305.8918
  11   2.0000     -11.239358      -305.8385
  12   2.0000     -11.235994      -305.7470
  13   2.0000      -1.454753       -39.5858
  14   2.0000      -1.413898       -38.4741
  15   2.0000      -1.357312       -36.9343
  16   2.0000      -1.223874       -33.3033
  17   2.0000      -1.163930       -31.6721
  18   2.0000      -1.063330       -28.9347
  19   2.0000      -1.030143       -28.0316
  20   2.0000      -0.992266       -27.0009
  21   2.0000      -0.902952       -24.5706
  22   2.0000      -0.857508       -23.3340
  23   2.0000      -0.819256       -22.2931
  24   2.0000      -0.799523       -21.7561
  25   2.0000      -0.744209       -20.2510
  26   2.0000      -0.741215       -20.1695
  27   2.0000      -0.695950       -18.9378
  28   2.0000      -0.680434       -18.5156
  29   2.0000      -0.670889       -18.2558
  30   2.0000      -0.651198       -17.7200
  31   2.0000      -0.627479       -17.0746
  32   2.0000      -0.619983       -16.8706
  33   2.0000      -0.607690       -16.5361
  34   2.0000      -0.599095       -16.3022
  35   2.0000      -0.596440       -16.2300
  36   2.0000      -0.590041       -16.0558
  37   2.0000      -0.567761       -15.4496
  38   2.0000      -0.559295       -15.2192
  39   2.0000      -0.529082       -14.3971
  40   2.0000      -0.504690       -13.7333
  41   2.0000      -0.496779       -13.5181
  42   2.0000      -0.487701       -13.2710
  43   2.0000      -0.465766       -12.6741
  44   2.0000      -0.460866       -12.5408
  45   2.0000      -0.416933       -11.3453
  46   2.0000      -0.352707        -9.5977
  47   2.0000      -0.319414        -8.6917
  48   0.0000       0.019132         0.5206
  49   0.0000       0.026599         0.7238
  50   0.0000       0.032780         0.8920
  51   0.0000       0.035294         0.9604
  52   0.0000       0.044859         1.2207

MULLIKEN ATOMIC CHARGES
-----------------------
   0 N :   -0.608767
   1 C :    0.273657
   2 C :    0.850947
   3 O :   -0.916009
   4 O :   -0.589697
   5 C :   -0.368367
   6 H :    0.212620
   7 H :    0.208105
   8 C :    1.331119
   9 C :   -0.656478
  10 H :    0.229111
  11 C :   -0.767892
  12 H :    0.581467
  13 C :    1.150815
  14 C :   -0.948635
  15 H :    0.349872
  16 C :   -0.924817
  17 H :    0.425738
  18 O :   -0.857683
  19 H :    0.448610
  20 H :    0.229642
  21 H :    0.019690
  22 H :    0.152000
  23 H :    0.174954
Sum of atomic charges:    0.0000000

LOEWDIN ATOMIC CHARGES
----------------------
   0 N :    0.876113
   1 C :   -0.095806
   2 C :   -0.789857
   3 O :    0.452906
   4 O :    0.852086
   5 C :    0.292596
   6 H :   -0.154332
   7 H :   -0.146754
   8 C :   -0.120059
   9 C :    0.202139
  10 H :   -0.169039
  11 C :    0.219312
  12 H :   -0.178998
  13 C :   -0.379308
  14 C :    0.228933
  15 H :   -0.177656
  16 C :    0.221955
  17 H :   -0.185186
  18 O :    0.841557
  19 H :   -0.128280
  20 H :   -0.588148
  21 H :   -0.280707
  22 H :   -0.314001
  23 H :   -0.479467

  Mayer bond orders larger than 0.100000
B(  0-N ,  1-C ) :   0.5224 B(  0-N ,  2-C ) :   0.1443 B(  0-N , 20-H ) :   0.1356
B(  0-N , 21-H ) :   1.1057 B(  0-N , 22-H ) :   0.9257 B(  1-C ,  2-C ) :   0.7741
B(  1-C ,  4-O ) :   0.2108 B(  1-C ,  5-C ) :   0.8971 B(  1-C ,  8-C ) :   0.1120
B(  1-C , 16-C ) :   0.1129 B(  1-C , 19-H ) :   0.8477 B(  2-C ,  3-O ) :   1.2336
B(  2-C ,  4-O ) :   0.5910 B(  4-O , 20-H ) :   0.8724 B(  5-C ,  6-H ) :   1.0804
B(  5-C ,  7-H ) :   0.9807 B(  5-C ,  8-C ) :   0.5191 B(  5-C ,  9-C ) :   0.2256
B(  8-C ,  9-C ) :   0.5289 B(  8-C , 10-H ) :  -0.1459 B(  8-C , 11-C ) :   0.2612
B(  8-C , 13-C ) :   0.1257 B(  8-C , 16-C ) :   0.2692 B(  9-C , 10-H ) :   1.1301
B(  9-C , 11-C ) :   1.3271 B(  9-C , 13-C ) :  -0.1524 B(  9-C , 16-C ) :  -0.1067
B( 10-H , 16-C ) :   0.1071 B( 11-C , 12-H ) :   0.5018 B( 11-C , 13-C ) :   0.9433
B( 11-C , 14-C ) :   0.3543 B( 11-C , 16-C ) :  -0.1047 B( 13-C , 14-C ) :   1.0329
B( 13-C , 18-O ) :   0.3996 B( 14-C , 15-H ) :   0.9023 B( 14-C , 16-C ) :   1.3632
B( 16-C , 17-H ) :   0.8774 B( 18-O , 23-H ) :   1.0565

MP2 TOTAL ENERGY:     -628.912219942 Eh
FINAL SINGLE POINT ENERGY      -628.912219941804

DIPOLE MOMENT
-------------
                                X             Y             Z
Electronic contribution:      0.94213      -4.33827       0.54391
Nuclear contribution   :     -0.42957       5.80888      -0.27271
                        -----------------------------------------
Total Dipole Moment    :      0.51256       1.47061       0.27121
                        -----------------------------------------
Magnitude (a.u.)       :      1.58081
Magnitude (Debye)      :      4.01811

Rotational constants in cm-1:     0.051526     0.015472     0.014216
Rotational constants in MHz :  1544.725307   463.837839   426.189760

                             ****ORCA TERMINATED NORMALLY****
TOTAL RUN TIME: 0 days 0 hours 11 minutes 55 seconds 890 msec
