                         Program Version 4.2.1 -  RELEASE  -
|  1> %pal
|  2>  nprocs 32
|  3> end
|  4> !RI-MP2 aug-cc-pVTZ aug-cc-pVTZ/C TightSCF
|  5> %maxcore 4500
|  6> *xyzfile 1 1  05_8R.xyz
|  7>
|  8>
|  9>                          ****END OF INPUT****

CARTESIAN COORDINATES (ANGSTROEM)
---------------------------------
  C     -3.464900   -0.415541   -0.106613
  C     -2.413983   -1.178327    0.687329
  C     -1.016665   -1.075804    0.062488
  H     -2.387207   -0.785226    1.710863
  H     -2.684868   -2.231796    0.768610
  C     -0.941361   -1.999791   -1.160102
  H     -1.073859   -3.037116   -0.847981
  H      0.016404   -1.931040   -1.674441
  H     -1.721830   -1.772984   -1.889653
  C     -0.691734    0.409327   -0.360108
  C     -1.715886    1.416761   -0.147652
  C     -3.134471    1.064604   -0.061442
  H     -4.461811   -0.573822    0.304573
  H     -3.500228   -0.762692   -1.141517
  C     -1.362799    2.839720   -0.056847
  C      0.032637   -1.490116    1.105709
  C      1.470634   -1.470389    0.584261
  H     -0.220257   -2.490030    1.466512
  H     -0.058751   -0.827625    1.972591
  C      0.750065    0.862481   -0.072594
  H     -0.827770    0.431258   -1.476416
  C      1.762884   -0.256774   -0.327815
  H      0.812556    1.187261    0.970164
  H      1.012710    1.723937   -0.688545
  H      1.692244   -2.384936    0.032561
  H      2.147980   -1.469014    1.439247
  C      3.188382    0.234177   -0.189716
  H      1.642117   -0.565836   -1.369269
  C      4.062630    0.036757   -1.169083
  H      3.781379   -0.458184   -2.091783
  H      5.094493    0.354685   -1.081002
  C      3.567187    0.930588    1.088519
  H      3.286416    0.349146    1.970836
  H      3.074209    1.903689    1.175536
  H      4.641290    1.104403    1.132876
  H     -3.451791    1.517509    0.895147
  H     -3.676233    1.672721   -0.799573
  H     -0.671498    3.123682   -0.854547
  H     -0.790775    2.980918    0.870380
  H     -2.230655    3.495055   -0.053180

 Total Charge           Charge          ....    1
 Multiplicity           Mult            ....    1
 Number of Electrons    NEL             ....  114
 Basis Dimension        Dim             .... 1265

ORBITAL ENERGIES
----------------

  NO   OCC          E(Eh)            E(eV)
   0   2.0000     -11.528394      -313.7035
   1   2.0000     -11.416133      -310.6488
   2   2.0000     -11.412687      -310.5550
   3   2.0000     -11.411246      -310.5158
   4   2.0000     -11.386582      -309.8446
   5   2.0000     -11.371927      -309.4459
   6   2.0000     -11.371474      -309.4336
   7   2.0000     -11.359380      -309.1044
   8   2.0000     -11.350255      -308.8561
   9   2.0000     -11.343811      -308.6808
  10   2.0000     -11.341159      -308.6086
  11   2.0000     -11.335060      -308.4427
  12   2.0000     -11.332670      -308.3776
  13   2.0000     -11.316499      -307.9376
  14   2.0000     -11.308983      -307.7331
  15   2.0000      -1.348080       -36.6831
  16   2.0000      -1.262930       -34.3661
  17   2.0000      -1.234426       -33.5904
  18   2.0000      -1.200796       -32.6753
  19   2.0000      -1.153392       -31.3854
  20   2.0000      -1.136745       -30.9324
  21   2.0000      -1.104127       -30.0448
  22   2.0000      -1.071516       -29.1574
  23   2.0000      -1.035312       -28.1723
  24   2.0000      -1.013910       -27.5899
  25   2.0000      -0.996860       -27.1259
  26   2.0000      -0.937898       -25.5215
  27   2.0000      -0.900371       -24.5003
  28   2.0000      -0.846310       -23.0293
  29   2.0000      -0.833020       -22.6676
  30   2.0000      -0.823607       -22.4115
  31   2.0000      -0.810756       -22.0618
  32   2.0000      -0.797831       -21.7101
  33   2.0000      -0.775124       -21.0922
  34   2.0000      -0.754074       -20.5194
  35   2.0000      -0.747374       -20.3371
  36   2.0000      -0.736189       -20.0327
  37   2.0000      -0.728163       -19.8143
  38   2.0000      -0.717358       -19.5203
  39   2.0000      -0.707883       -19.2625
  40   2.0000      -0.692865       -18.8538
  41   2.0000      -0.687007       -18.6944
  42   2.0000      -0.673869       -18.3369
  43   2.0000      -0.668186       -18.1823
  44   2.0000      -0.659169       -17.9369
  45   2.0000      -0.653507       -17.7828
  46   2.0000      -0.646258       -17.5856
  47   2.0000      -0.640972       -17.4417
  48   2.0000      -0.633932       -17.2502
  49   2.0000      -0.618305       -16.8249
  50   2.0000      -0.609950       -16.5976
  51   2.0000      -0.599526       -16.3139
  52   2.0000      -0.592356       -16.1188
  53   2.0000      -0.568838       -15.4789
  54   2.0000      -0.565902       -15.3990
  55   2.0000      -0.550534       -14.9808
  56   2.0000      -0.449480       -12.2310
  57   0.0000      -0.117907        -3.2084
  58   0.0000      -0.076885        -2.0922
  59   0.0000      -0.062033        -1.6880
  60   0.0000      -0.057196        -1.5564
  61   0.0000      -0.052238        -1.4215

MULLIKEN ATOMIC CHARGES
-----------------------
   0 C :   -0.660489
   1 C :   -1.186176
   2 C :    2.738897
   3 H :    0.205705
   4 H :    0.303609
   5 C :   -1.654007
   6 H :    0.092756
   7 H :    0.451714
   8 H :    0.154553
   9 C :   -0.067214
  10 C :    0.668468
  11 C :   -0.785108
  12 H :    0.392657
  13 H :    0.147526
  14 C :   -0.996803
  15 C :   -1.138057
  16 C :   -0.643104
  17 H :    0.336871
  18 H :    0.098173
  19 C :   -0.415095
  20 H :    0.256674
  21 C :    0.366681
  22 H :    0.188301
  23 H :    0.541355
  24 H :    0.043300
  25 H :    0.414158
  26 C :    1.198879
  27 H :   -0.387539
  28 C :   -1.576253
  29 H :    0.292437
  30 H :    0.310717
  31 C :   -0.852282
  32 H :    0.268731
  33 H :    0.245316
  34 H :    0.206242
  35 H :    0.190486
  36 H :    0.425715
  37 H :    0.287472
  38 H :    0.250496
  39 H :    0.284236
Sum of atomic charges:    1.0000000

LOEWDIN ATOMIC CHARGES
----------------------
   0 C :    0.346166
   1 C :    0.322833
   2 C :   -0.228898
   3 H :   -0.121494
   4 H :   -0.115659
   5 C :    0.631451
   6 H :   -0.129532
   7 H :   -0.165372
   8 H :   -0.152460
   9 C :    0.114385
  10 C :    0.113131
  11 C :    0.371782
  12 H :   -0.116981
  13 H :   -0.138371
  14 C :    0.691094
  15 C :    0.324935
  16 C :    0.352861
  17 H :   -0.115641
  18 H :   -0.128887
  19 C :    0.329986
  20 H :   -0.084773
  21 C :    0.013716
  22 H :   -0.134952
  23 H :   -0.129885
  24 H :   -0.124464
  25 H :   -0.145684
  26 C :   -0.103354
  27 H :   -0.159720
  28 C :    0.578048
  29 H :   -0.203533
  30 H :   -0.202590
  31 C :    0.583760
  32 H :   -0.165350
  33 H :   -0.163362
  34 H :   -0.164812
  35 H :   -0.097751
  36 H :   -0.098759
  37 H :   -0.130170
  38 H :   -0.117321
  39 H :   -0.134373

  Mayer bond orders larger than 0.100000
B(  0-C ,  1-C ) :   1.0190 B(  0-C ,  2-C ) :  -0.1132 B(  0-C , 11-C ) :   0.9945
B(  0-C , 12-H ) :   0.8468 B(  0-C , 13-H ) :   1.1324 B(  1-C ,  2-C ) :  -0.1042
B(  1-C ,  3-H ) :   1.2074 B(  1-C ,  4-H ) :   1.0132 B(  1-C ,  9-C ) :   0.1744
B(  1-C , 10-C ) :  -0.1290 B(  1-C , 11-C ) :   0.1480 B(  2-C ,  3-H ) :  -0.1210
B(  2-C ,  4-H ) :  -0.1533 B(  2-C ,  5-C ) :  -0.1142 B(  2-C ,  6-H ) :  -0.3078
B(  2-C ,  8-H ) :  -0.2550 B(  2-C ,  9-C ) :   1.0625 B(  2-C , 10-C ) :   0.2111
B(  2-C , 13-H ) :  -0.1019 B(  2-C , 15-C ) :   0.1226 B(  2-C , 16-C ) :  -0.1784
B(  2-C , 18-H ) :  -0.2069 B(  2-C , 21-C ) :   0.1016 B(  5-C ,  6-H ) :   1.4052
B(  5-C ,  7-H ) :   0.8741 B(  5-C ,  8-H ) :   1.2999 B(  5-C , 20-H ) :  -0.1415
B(  5-C , 21-C ) :  -0.1103 B(  9-C , 10-C ) :   1.0407 B(  9-C , 11-C ) :   0.3193
B(  9-C , 14-C ) :   0.2779 B(  9-C , 15-C ) :   0.1164 B(  9-C , 19-C ) :   0.7208
B(  9-C , 20-H ) :   0.9508 B(  9-C , 23-H ) :  -0.1071 B( 10-C , 11-C ) :   0.1887
B( 10-C , 14-C ) :   0.2346 B( 10-C , 19-C ) :  -0.1871 B( 10-C , 20-H ) :   0.1209
B( 10-C , 35-H ) :  -0.1088 B( 11-C , 35-H ) :   1.1982 B( 11-C , 36-H ) :   0.7981
B( 14-C , 37-H ) :   1.0596 B( 14-C , 38-H ) :   1.1451 B( 14-C , 39-H ) :   0.9624
B( 15-C , 16-C ) :   0.9560 B( 15-C , 17-H ) :   1.0047 B( 15-C , 18-H ) :   1.3226
B( 15-C , 19-C ) :  -0.1002 B( 15-C , 25-H ) :  -0.1101 B( 16-C , 17-H ) :  -0.1171
B( 16-C , 19-C ) :   0.2908 B( 16-C , 21-C ) :   0.7352 B( 16-C , 24-H ) :   1.3128
B( 16-C , 25-H ) :   0.8521 B( 16-C , 28-C ) :  -0.1183 B( 19-C , 21-C ) :   1.1908
B( 19-C , 22-H ) :   1.0693 B( 19-C , 23-H ) :   0.6522 B( 19-C , 26-C ) :   0.1380
B( 19-C , 27-H ) :   0.1756 B( 19-C , 31-C ) :  -0.1808 B( 21-C , 22-H ) :   0.1073
B( 21-C , 23-H ) :  -0.1099 B( 21-C , 26-C ) :   1.3809 B( 21-C , 27-H ) :   1.2803
B( 21-C , 28-C ) :  -0.1738 B( 21-C , 29-H ) :  -0.1400 B( 21-C , 31-C ) :   0.2664
B( 22-H , 27-H ) :   0.1021 B( 26-C , 27-H ) :  -0.3868 B( 26-C , 28-C ) :   0.5519
B( 26-C , 31-C ) :   0.5088 B( 27-H , 28-C ) :   0.3507 B( 28-C , 29-H ) :   1.1508
B( 28-C , 30-H ) :   0.9152 B( 28-C , 31-C ) :  -0.1385 B( 31-C , 32-H ) :   1.0031
B( 31-C , 33-H ) :   1.0129 B( 31-C , 34-H ) :   1.0528

MP2 TOTAL ENERGY:     -585.072002162 Eh
FINAL SINGLE POINT ENERGY      -585.072002161841

DIPOLE MOMENT
-------------
                                X             Y             Z
Electronic contribution:     -1.94776       1.10018      -0.87690
Nuclear contribution   :     -0.58445       0.58259       0.78034
                        -----------------------------------------
Total Dipole Moment    :     -2.53221       1.68277      -0.09657
                        -----------------------------------------
Magnitude (a.u.)       :      3.04190
Magnitude (Debye)      :      7.73189

Rotational constants in cm-1:     0.034339     0.013436     0.011138
Rotational constants in MHz :  1029.442772   402.798195   333.896110

                             ****ORCA TERMINATED NORMALLY****
TOTAL RUN TIME: 0 days 0 hours 47 minutes 58 seconds 118 msec
