                         Program Version 4.2.1 -  RELEASE  -
|  1> %pal
|  2>  nprocs 32
|  3> end
|  4> !RI-MP2 aug-cc-pVTZ aug-cc-pVTZ/C TightSCF
|  5> %maxcore 4500
|  6> *xyzfile 0 1  10_2TS.xyz
|  7>
|  8>
|  9>                          ****END OF INPUT****

CARTESIAN COORDINATES (ANGSTROEM)
---------------------------------
  C      3.016546   -0.229167   -1.263777
  C      1.495140   -0.216161   -1.389606
  C      0.845843    0.617269   -0.229237
  C      1.772833    0.589721    0.994376
  C      2.546046   -0.687044    1.189886
  C      3.524867   -0.920926    0.011626
  C     -0.440580   -0.165058    0.116881
  C     -0.370766   -1.491395   -0.490166
  C      0.831397   -1.595744   -1.396734
  O     -1.151928   -2.417015   -0.315150
  C      0.620432    2.065666   -0.674494
  C     -0.562869    2.162026   -1.654588
  C     -1.647912    1.222312   -1.244560
  N     -2.498464    1.475642   -0.254643
  O     -3.025296    0.378542    0.274787
  C     -1.340081    0.025024    1.191977
  C     -1.403559    1.369077    1.859613
  C     -2.139873    2.336032    0.864204
  O      1.878404    1.534281    1.742618
  C      4.931235   -0.440988    0.355878
  O     -2.468813   -2.925455    2.108290
  O     -3.391945   -1.418201   -1.912625
  H      1.240991    0.287306   -2.324154
  H      1.475056   -2.386414   -1.002962
  H      0.516906   -1.921677   -2.389680
  H      3.367148    0.810000   -1.262717
  H      3.466402   -0.698539   -2.142372
  H      1.527568    2.458393   -1.142203
  H      0.452880    2.686680    0.202406
  H      3.071720   -0.636974    2.142586
  H      1.827076   -1.508218    1.249438
  H      3.571467   -1.997849   -0.169236
  H      5.607140   -0.569501   -0.493177
  H      4.924298    0.619463    0.622754
  H      5.342552   -0.996497    1.201108
  H     -1.977286    0.420700   -1.894891
  H     -1.731418   -0.839145    1.713471
  H     -0.928547    3.190228   -1.704888
  H     -0.250842    1.895467   -2.664326
  H     -0.409769    1.752676    2.085665
  H     -1.968415    1.301013    2.786439
  H     -1.542987    3.183522    0.539289
  H     -3.066284    2.695599    1.304458
  H     -2.122257   -2.876553    1.201893
  H     -2.819270   -2.142526   -1.637082
  H     -3.379985   -3.215601    2.026901
  H     -3.500456   -0.902135   -1.097228

 Total Charge           Charge          ....    0
 Multiplicity           Mult            ....    1
 Number of Electrons    NEL             ....  168
 Basis Dimension        Dim             .... 1587

ORBITAL ENERGIES
----------------

  NO   OCC          E(Eh)            E(eV)
   0   2.0000     -20.559372      -559.4489
   1   2.0000     -20.556631      -559.3744
   2   2.0000     -20.536766      -558.8338
   3   2.0000     -20.528643      -558.6128
   4   2.0000     -20.518964      -558.3494
   5   2.0000     -15.671101      -426.4323
   6   2.0000     -11.336956      -308.4942
   7   2.0000     -11.334295      -308.4218
   8   2.0000     -11.331532      -308.3467
   9   2.0000     -11.299796      -307.4831
  10   2.0000     -11.289234      -307.1957
  11   2.0000     -11.270223      -306.6784
  12   2.0000     -11.270212      -306.6781
  13   2.0000     -11.256271      -306.2987
  14   2.0000     -11.252687      -306.2012
  15   2.0000     -11.251907      -306.1800
  16   2.0000     -11.246441      -306.0312
  17   2.0000     -11.243463      -305.9502
  18   2.0000     -11.241360      -305.8930
  19   2.0000     -11.241141      -305.8870
  20   2.0000     -11.232697      -305.6572
  21   2.0000     -11.227807      -305.5242
  22   2.0000      -1.450047       -39.4578
  23   2.0000      -1.403392       -38.1882
  24   2.0000      -1.384388       -37.6711
  25   2.0000      -1.314850       -35.7789
  26   2.0000      -1.306946       -35.5638
  27   2.0000      -1.191238       -32.4152
  28   2.0000      -1.166186       -31.7335
  29   2.0000      -1.115457       -30.3531
  30   2.0000      -1.099515       -29.9193
  31   2.0000      -1.069352       -29.0986
  32   2.0000      -1.034762       -28.1573
  33   2.0000      -1.012896       -27.5623
  34   2.0000      -0.982437       -26.7335
  35   2.0000      -0.967931       -26.3387
  36   2.0000      -0.909699       -24.7542
  37   2.0000      -0.881909       -23.9980
  38   2.0000      -0.847743       -23.0683
  39   2.0000      -0.818886       -22.2830
  40   2.0000      -0.802228       -21.8297
  41   2.0000      -0.784443       -21.3458
  42   2.0000      -0.742954       -20.2168
  43   2.0000      -0.729284       -19.8448
  44   2.0000      -0.713985       -19.4285
  45   2.0000      -0.703975       -19.1561
  46   2.0000      -0.698289       -19.0014
  47   2.0000      -0.678074       -18.4513
  48   2.0000      -0.675307       -18.3760
  49   2.0000      -0.670596       -18.2478
  50   2.0000      -0.663511       -18.0551
  51   2.0000      -0.653763       -17.7898
  52   2.0000      -0.637535       -17.3482
  53   2.0000      -0.635814       -17.3014
  54   2.0000      -0.627313       -17.0700
  55   2.0000      -0.623459       -16.9652
  56   2.0000      -0.604050       -16.4370
  57   2.0000      -0.596236       -16.2244
  58   2.0000      -0.586184       -15.9509
  59   2.0000      -0.582484       -15.8502
  60   2.0000      -0.575905       -15.6712
  61   2.0000      -0.564714       -15.3667
  62   2.0000      -0.555088       -15.1047
  63   2.0000      -0.551618       -15.0103
  64   2.0000      -0.546689       -14.8762
  65   2.0000      -0.541097       -14.7240
  66   2.0000      -0.539761       -14.6876
  67   2.0000      -0.527328       -14.3493
  68   2.0000      -0.526238       -14.3197
  69   2.0000      -0.517778       -14.0895
  70   2.0000      -0.513374       -13.9696
  71   2.0000      -0.503292       -13.6953
  72   2.0000      -0.501675       -13.6513
  73   2.0000      -0.493165       -13.4197
  74   2.0000      -0.475350       -12.9349
  75   2.0000      -0.473835       -12.8937
  76   2.0000      -0.472110       -12.8468
  77   2.0000      -0.468131       -12.7385
  78   2.0000      -0.458517       -12.4769
  79   2.0000      -0.451446       -12.2845
  80   2.0000      -0.418722       -11.3940
  81   2.0000      -0.405491       -11.0340
  82   2.0000      -0.385421       -10.4878
  83   2.0000      -0.334117        -9.0918
  84   0.0000       0.016380         0.4457
  85   0.0000       0.022832         0.6213
  86   0.0000       0.027707         0.7539
  87   0.0000       0.030963         0.8425
  88   0.0000       0.036433         0.9914

MULLIKEN ATOMIC CHARGES
-----------------------
   0 C :   -0.643298
   1 C :    0.068274
   2 C :    1.553721
   3 C :    1.298320
   4 C :   -0.749104
   5 C :    0.486071
   6 C :    1.276539
   7 C :    1.092675
   8 C :   -0.762521
   9 O :   -1.714022
  10 C :   -1.330179
  11 C :   -0.612196
  12 C :    0.042750
  13 N :   -0.360226
  14 O :   -0.892057
  15 C :   -1.208066
  16 C :   -0.639672
  17 C :   -0.482339
  18 O :   -1.622824
  19 C :   -1.297899
  20 O :   -0.613109
  21 O :   -0.734278
  22 H :    0.155467
  23 H :    0.180699
  24 H :    0.377411
  25 H :    0.094375
  26 H :    0.524273
  27 H :    0.505032
  28 H :   -0.013828
  29 H :    0.382612
  30 H :    0.106168
  31 H :    0.208694
  32 H :    0.240552
  33 H :    0.306522
  34 H :    0.228666
  35 H :    0.927322
  36 H :    0.758129
  37 H :    0.320371
  38 H :    0.297991
  39 H :    0.257685
  40 H :    0.283360
  41 H :    0.197264
  42 H :    0.442054
  43 H :    0.341458
  44 H :    0.224920
  45 H :    0.135477
  46 H :    0.360764
Sum of atomic charges:   -0.0000000

LOEWDIN ATOMIC CHARGES
----------------------
   0 C :    0.327521
   1 C :    0.041728
   2 C :   -0.240695
   3 C :   -0.460760
   4 C :    0.339227
   5 C :   -0.001816
   6 C :   -0.082471
   7 C :   -0.477140
   8 C :    0.351261
   9 O :    0.570501
  10 C :    0.317792
  11 C :    0.352376
  12 C :    0.155531
  13 N :   -0.101856
  14 O :    0.493237
  15 C :    0.124947
  16 C :    0.359609
  17 C :    0.257651
  18 O :    0.535907
  19 C :    0.600404
  20 O :    1.063943
  21 O :    1.064962
  22 H :   -0.140066
  23 H :   -0.147539
  24 H :   -0.121769
  25 H :   -0.134836
  26 H :   -0.116977
  27 H :   -0.116142
  28 H :   -0.192307
  29 H :   -0.142183
  30 H :   -0.143639
  31 H :   -0.131873
  32 H :   -0.155175
  33 H :   -0.153195
  34 H :   -0.157771
  35 H :   -0.175711
  36 H :   -0.212237
  37 H :   -0.127132
  38 H :   -0.143364
  39 H :   -0.203017
  40 H :   -0.135122
  41 H :   -0.165839
  42 H :   -0.132353
  43 H :   -0.702470
  44 H :   -0.588264
  45 H :   -0.491161
  46 H :   -0.661718

  Mayer bond orders larger than 0.100000
B(  0-C ,  1-C ) :   0.8862 B(  0-C ,  5-C ) :   0.7792 B(  0-C ,  6-C ) :  -0.1026
B(  0-C , 22-H ) :  -0.1033 B(  0-C , 25-H ) :   1.2278 B(  0-C , 26-H ) :   0.7287
B(  1-C ,  2-C ) :   0.1486 B(  1-C ,  3-C ) :  -0.6975 B(  1-C ,  5-C ) :   0.1171
B(  1-C ,  6-C ) :   0.3324 B(  1-C ,  7-C ) :   0.3859 B(  1-C ,  8-C ) :   1.1786
B(  1-C , 10-C ) :  -0.1189 B(  1-C , 11-C ) :   0.1095 B(  1-C , 22-H ) :   0.9856
B(  1-C , 26-H ) :  -0.1132 B(  2-C ,  3-C ) :   1.5162 B(  2-C ,  4-C ) :   0.1022
B(  2-C ,  6-C ) :   1.0119 B(  2-C ,  7-C ) :   0.5951 B(  2-C , 11-C ) :  -0.1215
B(  2-C , 12-C ) :   0.2367 B(  2-C , 13-N ) :  -0.2102 B(  2-C , 15-C ) :   0.1270
B(  2-C , 17-C ) :  -0.1083 B(  2-C , 28-H ) :  -0.2366 B(  2-C , 38-H ) :  -0.2496
B(  3-C ,  4-C ) :   0.9380 B(  3-C ,  5-C ) :   0.1871 B(  3-C ,  6-C ) :   0.1702
B(  3-C ,  7-C ) :  -0.1968 B(  3-C , 10-C ) :  -0.1544 B(  3-C , 12-C ) :  -0.1474
B(  3-C , 18-O ) :  -0.8477 B(  3-C , 29-H ) :   0.1082 B(  3-C , 38-H ) :   0.1219
B(  4-C ,  5-C ) :   0.9071 B(  4-C ,  6-C ) :  -0.1250 B(  4-C , 18-O ) :   0.2276
B(  4-C , 19-C ) :   0.1225 B(  4-C , 29-H ) :   0.7148 B(  4-C , 30-H ) :   1.2803
B(  4-C , 31-H ) :  -0.1373 B(  5-C , 19-C ) :   0.4138 B(  5-C , 31-H ) :   1.0669
B(  5-C , 33-H ) :  -0.1211 B(  6-C ,  7-C ) :   0.9726 B(  6-C ,  9-O ) :   0.3599
B(  6-C , 13-N ) :   0.3750 B(  6-C , 14-O ) :  -0.5460 B(  6-C , 15-C ) :  -0.3773
B(  6-C , 16-C ) :   0.1758 B(  6-C , 17-C ) :  -0.1062 B(  6-C , 18-O ) :   0.1860
B(  6-C , 20-O ) :   0.4102 B(  6-C , 21-O ) :   0.1106 B(  7-C ,  8-C ) :   0.6938
B(  7-C ,  9-O ) :  -0.9883 B(  7-C , 13-N ) :   0.1742 B(  7-C , 14-O ) :   0.1241
B(  7-C , 15-C ) :  -0.4334 B(  7-C , 21-O ) :  -0.1161 B(  8-C , 23-H ) :   1.1246
B(  8-C , 24-H ) :   0.8434 B(  9-O , 15-C ) :   0.4353 B(  9-O , 24-H ) :  -0.1178
B(  9-O , 36-H ) :   0.1113 B(  9-O , 43-H ) :   0.1726 B( 10-C , 11-C ) :   1.0436
B( 10-C , 12-C ) :   0.1797 B( 10-C , 18-O ) :   0.4309 B( 10-C , 27-H ) :   0.7590
B( 10-C , 28-H ) :   1.4879 B( 11-C , 12-C ) :   0.9418 B( 11-C , 27-H ) :  -0.2014
B( 11-C , 28-H ) :   0.1840 B( 11-C , 37-H ) :   0.9922 B( 11-C , 38-H ) :   0.9425
B( 12-C , 13-N ) :   0.8643 B( 12-C , 35-H ) :   0.2868 B( 13-N , 14-O ) :   0.9081
B( 13-N , 15-C ) :  -0.1294 B( 13-N , 17-C ) :   0.7271 B( 13-N , 35-H ) :  -0.1290
B( 14-O , 15-C ) :   0.4501 B( 14-O , 16-C ) :   0.1773 B( 15-C , 16-C ) :   0.9000
B( 15-C , 36-H ) :   0.5457 B( 16-C , 17-C ) :   1.0899 B( 16-C , 36-H ) :  -0.2167
B( 16-C , 39-H ) :   0.9417 B( 16-C , 40-H ) :   0.8463 B( 17-C , 41-H ) :   1.0846
B( 17-C , 42-H ) :   0.7819 B( 18-O , 28-H ) :   0.1367 B( 19-C , 32-H ) :   1.0665
B( 19-C , 33-H ) :   1.0205 B( 19-C , 34-H ) :   1.1170 B( 20-O , 36-H ) :  -0.4412
B( 20-O , 43-H ) :   0.7403 B( 20-O , 45-H ) :   1.0862 B( 21-O , 35-H ) :  -0.1779
B( 21-O , 44-H ) :   0.9729 B( 21-O , 46-H ) :   0.7683

MP2 TOTAL ENERGY:    -1053.649843066 Eh
FINAL SINGLE POINT ENERGY     -1053.649843066059

DIPOLE MOMENT
-------------
                                X             Y             Z
Electronic contribution:    -10.86420       1.00996       1.96273
Nuclear contribution   :     12.71719       0.54886      -2.85757
                        -----------------------------------------
Total Dipole Moment    :      1.85299       1.55881      -0.89483
                        -----------------------------------------
Magnitude (a.u.)       :      2.58151
Magnitude (Debye)      :      6.56168

Rotational constants in cm-1:     0.014041     0.007938     0.007098
Rotational constants in MHz :   420.927908   237.969247   212.781279

                             ****ORCA TERMINATED NORMALLY****
TOTAL RUN TIME: 0 days 1 hours 50 minutes 44 seconds 11 msec
