                         Program Version 4.2.1 -  RELEASE  -
|  1> %pal
|  2>  nprocs 32
|  3> end
|  4> !RI-MP2 aug-cc-pVTZ aug-cc-pVTZ/C TightSCF
|  5> %maxcore 4500
|  6> *xyzfile 0 1  02_46R.xyz
|  7>
|  8>
|  9>                          ****END OF INPUT****

CARTESIAN COORDINATES (ANGSTROEM)
---------------------------------
  C     -0.734047    4.610883   -0.847598
  O      0.020673    3.430769   -0.629617
  H     -1.628818    4.400474   -1.437397
  C      1.634834    1.059397   -0.159683
  C      0.366684    1.113763    0.259007
  C      2.558216   -0.077133   -0.037782
  C      2.131459   -1.363036    0.305723
  C      3.917855    0.125146   -0.279184
  C      3.037676   -2.402897    0.420221
  C      4.828857   -0.914312   -0.161017
  C     -2.480216    1.489052    1.219099
  C      4.391568   -2.182623    0.191240
  C     -2.969697    0.395987    0.326251
  C     -2.733909   -0.897647    0.534871
  C     -3.211250   -1.975255   -0.317337
  C     -2.954002   -3.263926   -0.098759
  C     -3.419818   -4.391432   -0.960225
  O     -1.799055    2.506306    0.491076
  B     -0.513019    2.374643    0.043597
  H      1.077644   -1.553616    0.466808
  H      4.261401    1.115197   -0.557625
  H      2.688086   -3.394433    0.682538
  H      5.880721   -0.733869   -0.347484
  H     -1.839180    1.083589    2.007286
  H     -3.321733    1.990642    1.703187
  H      5.098605   -2.998515    0.280368
  H     -2.572319   -4.961397   -1.352298
  H     -4.008052   -4.031032   -1.805667
  H     -4.035246   -5.093368   -0.389797
  H     -0.098046    5.308707   -1.390973
  H     -1.041989    5.060370    0.098856
  H     -2.358303   -3.532818    0.771782
  H     -3.805687   -1.687981   -1.181924
  H     -3.551367    0.712242   -0.536174
  H     -2.139135   -1.193388    1.397707
  H      2.050655    1.943018   -0.637616
  H     -0.050357    0.240562    0.749808

 Total Charge           Charge          ....    0
 Multiplicity           Mult            ....    1
 Number of Electrons    NEL             ....  130
 Basis Dimension        Dim             .... 1265

ORBITAL ENERGIES
----------------

  NO   OCC          E(Eh)            E(eV)
   0   2.0000     -20.553792      -559.2971
   1   2.0000     -20.543644      -559.0210
   2   2.0000     -11.286780      -307.1289
   3   2.0000     -11.263934      -306.5072
   4   2.0000     -11.240777      -305.8771
   5   2.0000     -11.239082      -305.8310
   6   2.0000     -11.238965      -305.8278
   7   2.0000     -11.238478      -305.8145
   8   2.0000     -11.235641      -305.7373
   9   2.0000     -11.234764      -305.7135
  10   2.0000     -11.234265      -305.6999
  11   2.0000     -11.233354      -305.6751
  12   2.0000     -11.233129      -305.6690
  13   2.0000     -11.231567      -305.6265
  14   2.0000     -11.231187      -305.6161
  15   2.0000     -11.226718      -305.4945
  16   2.0000     -11.195190      -304.6366
  17   2.0000      -7.619038      -207.3246
  18   2.0000      -1.380834       -37.5744
  19   2.0000      -1.341534       -36.5050
  20   2.0000      -1.161092       -31.5949
  21   2.0000      -1.109366       -30.1874
  22   2.0000      -1.069146       -29.0929
  23   2.0000      -1.054155       -28.6850
  24   2.0000      -1.018107       -27.7041
  25   2.0000      -0.989298       -26.9202
  26   2.0000      -0.969009       -26.3681
  27   2.0000      -0.924849       -25.1664
  28   2.0000      -0.901175       -24.5222
  29   2.0000      -0.849177       -23.1073
  30   2.0000      -0.826666       -22.4947
  31   2.0000      -0.782581       -21.2951
  32   2.0000      -0.768440       -20.9103
  33   2.0000      -0.759592       -20.6695
  34   2.0000      -0.713421       -19.4132
  35   2.0000      -0.702286       -19.1102
  36   2.0000      -0.677541       -18.4368
  37   2.0000      -0.662294       -18.0219
  38   2.0000      -0.645926       -17.5765
  39   2.0000      -0.638898       -17.3853
  40   2.0000      -0.631678       -17.1888
  41   2.0000      -0.621488       -16.9115
  42   2.0000      -0.619943       -16.8695
  43   2.0000      -0.600992       -16.3538
  44   2.0000      -0.588287       -16.0081
  45   2.0000      -0.583970       -15.8906
  46   2.0000      -0.577911       -15.7258
  47   2.0000      -0.572848       -15.5880
  48   2.0000      -0.556358       -15.1393
  49   2.0000      -0.540485       -14.7073
  50   2.0000      -0.527368       -14.3504
  51   2.0000      -0.517871       -14.0920
  52   2.0000      -0.513566       -13.9748
  53   2.0000      -0.505103       -13.7446
  54   2.0000      -0.497442       -13.5361
  55   2.0000      -0.489405       -13.3174
  56   2.0000      -0.479219       -13.0402
  57   2.0000      -0.477502       -12.9935
  58   2.0000      -0.452396       -12.3103
  59   2.0000      -0.443918       -12.0796
  60   2.0000      -0.437130       -11.8949
  61   2.0000      -0.402421       -10.9504
  62   2.0000      -0.339375        -9.2349
  63   2.0000      -0.316463        -8.6114
  64   2.0000      -0.304151        -8.2764
  65   0.0000       0.024216         0.6589
  66   0.0000       0.029734         0.8091
  67   0.0000       0.030124         0.8197
  68   0.0000       0.032314         0.8793
  69   0.0000       0.037983         1.0336

MULLIKEN ATOMIC CHARGES
-----------------------
   0 C :   -0.682598
   1 O :   -0.201054
   2 H :    0.344693
   3 C :   -0.017946
   4 C :   -1.161799
   5 C :    1.804378
   6 C :   -0.567797
   7 C :   -0.926648
   8 C :   -1.010492
   9 C :   -0.653227
  10 C :   -0.017763
  11 C :   -0.077958
  12 C :   -0.326907
  13 C :    0.066523
  14 C :   -0.164952
  15 C :   -0.445851
  16 C :   -0.849110
  17 O :   -0.595342
  18 B :    0.354355
  19 H :    0.350346
  20 H :   -0.072438
  21 H :    0.470559
  22 H :    0.619801
  23 H :    0.249377
  24 H :    0.463227
  25 H :    0.446977
  26 H :    0.264578
  27 H :    0.296940
  28 H :    0.275807
  29 H :    0.326836
  30 H :    0.346031
  31 H :    0.284669
  32 H :    0.225301
  33 H :    0.180351
  34 H :    0.038370
  35 H :    0.132534
  36 H :    0.230228
Sum of atomic charges:   -0.0000000

LOEWDIN ATOMIC CHARGES
----------------------
   0 C :    0.337750
   1 O :    0.602890
   2 H :   -0.172400
   3 C :    0.217848
   4 C :    0.331074
   5 C :   -0.117009
   6 C :    0.217918
   7 C :    0.211859
   8 C :    0.201276
   9 C :    0.199169
  10 C :    0.018800
  11 C :    0.194723
  12 C :    0.224765
  13 C :    0.175281
  14 C :    0.183483
  15 C :    0.202903
  16 C :    0.552595
  17 O :    0.630462
  18 B :   -0.947230
  19 H :   -0.188361
  20 H :   -0.176116
  21 H :   -0.182547
  22 H :   -0.182425
  23 H :   -0.164031
  24 H :   -0.152273
  25 H :   -0.183612
  26 H :   -0.175901
  27 H :   -0.181643
  28 H :   -0.175905
  29 H :   -0.182521
  30 H :   -0.172982
  31 H :   -0.182917
  32 H :   -0.183883
  33 H :   -0.169435
  34 H :   -0.180604
  35 H :   -0.185297
  36 H :   -0.245706

  Mayer bond orders larger than 0.100000
B(  0-C ,  1-O ) :   0.7975 B(  0-C ,  2-H ) :   0.8661 B(  0-C , 17-O ) :  -0.1060
B(  0-C , 29-H ) :   0.9549 B(  0-C , 30-H ) :   0.8674 B(  1-O ,  4-C ) :  -0.4931
B(  1-O , 17-O ) :  -0.1644 B(  1-O , 18-B ) :   0.7774 B(  1-O , 35-H ) :  -0.1034
B(  3-C ,  4-C ) :   1.0777 B(  3-C ,  5-C ) :   0.2753 B(  3-C ,  6-C ) :   0.2992
B(  3-C ,  7-C ) :   0.2593 B(  3-C ,  9-C ) :   0.1448 B(  3-C , 11-C ) :   0.1270
B(  3-C , 12-C ) :  -0.1244 B(  3-C , 20-H ) :  -0.3173 B(  3-C , 22-H ) :   0.1933
B(  3-C , 25-H ) :  -0.1624 B(  3-C , 35-H ) :   1.3762 B(  4-C ,  5-C ) :   0.1246
B(  4-C , 12-C ) :   0.1841 B(  4-C , 18-B ) :   1.1287 B(  4-C , 21-H ) :  -0.1530
B(  4-C , 23-H ) :  -0.1241 B(  4-C , 25-H ) :   0.1630 B(  4-C , 36-H ) :   1.4366
B(  5-C ,  6-C ) :   0.4990 B(  5-C ,  8-C ) :   0.2680 B(  5-C ,  9-C ) :   0.1052
B(  5-C , 19-H ) :  -0.1257 B(  5-C , 20-H ) :  -0.3927 B(  5-C , 21-H ) :  -0.1273
B(  5-C , 25-H ) :   0.1482 B(  6-C ,  7-C ) :  -0.6404 B(  6-C ,  8-C ) :   1.0075
B(  6-C , 11-C ) :  -0.2382 B(  6-C , 19-H ) :   1.1312 B(  6-C , 20-H ) :   0.2315
B(  6-C , 21-H ) :   0.1285 B(  6-C , 25-H ) :  -0.1592 B(  7-C ,  9-C ) :   0.9814
B(  7-C , 11-C ) :  -0.2534 B(  7-C , 20-H ) :   1.9752 B(  7-C , 22-H ) :  -0.2093
B(  7-C , 25-H ) :   0.2114 B(  8-C ,  9-C ) :   0.2801 B(  8-C , 11-C ) :   1.0421
B(  8-C , 21-H ) :   0.6830 B(  8-C , 25-H ) :  -0.2134 B(  9-C , 11-C ) :   1.0941
B(  9-C , 20-H ) :  -0.1580 B(  9-C , 22-H ) :   0.4609 B(  9-C , 25-H ) :  -0.1467
B( 10-C , 12-C ) :   0.6623 B( 10-C , 17-O ) :   0.7919 B( 10-C , 23-H ) :   1.0634
B( 10-C , 24-H ) :   0.8131 B( 11-C , 19-H ) :  -0.1047 B( 11-C , 25-H ) :   0.8111
B( 12-C , 13-C ) :   0.9723 B( 12-C , 15-C ) :   0.1969 B( 12-C , 24-H ) :  -0.1944
B( 12-C , 33-H ) :   1.3154 B( 13-C , 14-C ) :   0.4087 B( 13-C , 15-C ) :  -0.1415
B( 13-C , 31-H ) :  -0.1007 B( 13-C , 33-H ) :  -0.1401 B( 13-C , 34-H ) :   1.5213
B( 14-C , 15-C ) :   0.9868 B( 14-C , 32-H ) :   1.1677 B( 15-C , 16-C ) :   0.6903
B( 15-C , 31-H ) :   1.1114 B( 16-C , 26-H ) :   0.9870 B( 16-C , 27-H ) :   0.9568
B( 16-C , 28-H ) :   1.0069 B( 17-O , 18-B ) :   0.6524 B( 19-H , 20-H ) :   0.2679
B( 19-H , 22-H ) :  -0.1212

MP2 TOTAL ENERGY:     -756.848390159 Eh
FINAL SINGLE POINT ENERGY      -756.848390159144

DIPOLE MOMENT
-------------
                                X             Y             Z
Electronic contribution:      8.79022       8.61257       1.66414
Nuclear contribution   :     -9.08308      -9.22199      -1.52861
                        -----------------------------------------
Total Dipole Moment    :     -0.29286      -0.60941       0.13553
                        -----------------------------------------
Magnitude (a.u.)       :      0.68958
Magnitude (Debye)      :      1.75277

Rotational constants in cm-1:     0.011157     0.008671     0.005124
Rotational constants in MHz :   334.490178   259.937358   153.615160

                             ****ORCA TERMINATED NORMALLY****
TOTAL RUN TIME: 0 days 0 hours 30 minutes 1 seconds 283 msec
