                         Program Version 4.2.1 -  RELEASE  -
|  1> %pal
|  2>  nprocs 32
|  3> end
|  4> !RI-MP2 aug-cc-pVTZ aug-cc-pVTZ/C TightSCF
|  5> %maxcore 4500
|  6> *xyzfile 0 2  06_15R2.xyz
|  7>
|  8>
|  9>                          ****END OF INPUT****

CARTESIAN COORDINATES (ANGSTROEM)
---------------------------------
  Si     0.000001   -0.444724   -0.476470
  C     -1.545247   -1.007366    0.462655
  C     -2.871963   -0.522323   -0.128219
  C      1.545250   -1.007359    0.462658
  C      2.871966   -0.522320   -0.128220
  C     -0.000003    1.438636   -0.679575
  C     -0.000005    2.197551    0.655608
  H     -1.536549   -2.100080    0.521229
  H     -1.447547   -0.655576    1.497966
  H     -3.003856   -0.874904   -1.154044
  H     -3.725251   -0.877713    0.454228
  H     -2.925240    0.568968   -0.150565
  H      1.536552   -2.100073    0.521239
  H      1.447551   -0.655562    1.497966
  H      3.725254   -0.877705    0.454230
  H      3.003859   -0.874909   -1.154043
  H      2.925242    0.568971   -0.150575
  H     -0.871673    1.727681   -1.273987
  H      0.871667    1.727684   -1.273986
  H     -0.880513    1.954450    1.255554
  H      0.880505    1.954455    1.255554
  H     -0.000008    3.279537    0.500369

 Total Charge           Charge          ....    0
 Multiplicity           Mult            ....    2
 Number of Electrons    NEL             ....   65
 Basis Dimension        Dim             ....  671

ORBITAL ENERGIES
----------------
                 SPIN UP ORBITALS
  NO   OCC          E(Eh)            E(eV)
   0   1.0000     -68.753677     -1870.8827
   1   1.0000     -11.218428      -305.2689
   2   1.0000     -11.215371      -305.1857
   3   1.0000     -11.215370      -305.1857
   4   1.0000     -11.205340      -304.9128
   5   1.0000     -11.205332      -304.9126
   6   1.0000     -11.204645      -304.8939
   7   1.0000      -6.102581      -166.0597
   8   1.0000      -4.215190      -114.7012
   9   1.0000      -4.205364      -114.4338
  10   1.0000      -4.205277      -114.4314
  11   1.0000      -1.031680       -28.0734
  12   1.0000      -1.011402       -27.5216
  13   1.0000      -1.008105       -27.4319
  14   1.0000      -0.857967       -23.3465
  15   1.0000      -0.837223       -22.7820
  16   1.0000      -0.825081       -22.4516
  17   1.0000      -0.646757       -17.5991
  18   1.0000      -0.615074       -16.7370
  19   1.0000      -0.610439       -16.6109
  20   1.0000      -0.591445       -16.0940
  21   1.0000      -0.570649       -15.5281
  22   1.0000      -0.568082       -15.4583
  23   1.0000      -0.535953       -14.5840
  24   1.0000      -0.519063       -14.1244
  25   1.0000      -0.508272       -13.8308
  26   1.0000      -0.500313       -13.6142
  27   1.0000      -0.495387       -13.4802
  28   1.0000      -0.492291       -13.3959
  29   1.0000      -0.482124       -13.1193
  30   1.0000      -0.404549       -11.0083
  31   1.0000      -0.404288       -11.0012
  32   1.0000      -0.294110        -8.0031
  33   0.0000       0.028114         0.7650
  34   0.0000       0.033154         0.9022
  35   0.0000       0.035045         0.9536
  36   0.0000       0.038019         1.0345
  37   0.0000       0.048869         1.3298

                 SPIN DOWN ORBITALS
  NO   OCC          E(Eh)            E(eV)
   0   1.0000     -68.748097     -1870.7308
   1   1.0000     -11.217608      -305.2466
   2   1.0000     -11.215405      -305.1867
   3   1.0000     -11.215405      -305.1867
   4   1.0000     -11.204508      -304.8901
   5   1.0000     -11.204498      -304.8899
   6   1.0000     -11.203716      -304.8686
   7   1.0000      -6.094426      -165.8378
   8   1.0000      -4.201820      -114.3373
   9   1.0000      -4.201718      -114.3346
  10   1.0000      -4.193402      -114.1083
  11   1.0000      -1.027077       -27.9482
  12   1.0000      -1.010001       -27.4835
  13   1.0000      -1.005590       -27.3635
  14   1.0000      -0.851719       -23.1765
  15   1.0000      -0.834501       -22.7079
  16   1.0000      -0.823018       -22.3955
  17   1.0000      -0.627259       -17.0686
  18   1.0000      -0.613960       -16.7067
  19   1.0000      -0.601225       -16.3602
  20   1.0000      -0.588515       -16.0143
  21   1.0000      -0.569738       -15.5034
  22   1.0000      -0.566201       -15.4071
  23   1.0000      -0.528887       -14.3918
  24   1.0000      -0.508609       -13.8400
  25   1.0000      -0.503341       -13.6966
  26   1.0000      -0.499627       -13.5955
  27   1.0000      -0.492295       -13.3960
  28   1.0000      -0.491343       -13.3701
  29   1.0000      -0.480222       -13.0675
  30   1.0000      -0.397005       -10.8030
  31   1.0000      -0.396961       -10.8019
  32   0.0000       0.026528         0.7219
  33   0.0000       0.033298         0.9061
  34   0.0000       0.034951         0.9511
  35   0.0000       0.036569         0.9951
  36   0.0000       0.048726         1.3259

MULLIKEN ATOMIC CHARGES AND SPIN POPULATIONS
--------------------------------------------
   0 Si:    0.349598    1.064941
   1 C :   -0.544341   -0.015045
   2 C :   -1.064895    0.000664
   3 C :   -0.544343   -0.015044
   4 C :   -1.064892    0.000663
   5 C :   -0.348647   -0.047584
   6 C :   -1.030831    0.028897
   7 H :    0.377441   -0.008028
   8 H :    0.201720    0.016215
   9 H :    0.258274   -0.005781
  10 H :    0.266408   -0.001123
  11 H :    0.336632    0.000049
  12 H :    0.377436   -0.008028
  13 H :    0.201720    0.016215
  14 H :    0.266412   -0.001124
  15 H :    0.258273   -0.005780
  16 H :    0.336633    0.000049
  17 H :    0.234373   -0.009880
  18 H :    0.234370   -0.009879
  19 H :    0.308407   -0.005396
  20 H :    0.308406   -0.005396
  21 H :    0.281844    0.010395
Sum of atomic charges         :   -0.0000000

LOEWDIN ATOMIC CHARGES AND SPIN POPULATIONS
-------------------------------------------
   0 Si:    0.812403    0.548035
   1 C :    0.201327    0.107736
   2 C :    0.501178    0.013808
   3 C :    0.201327    0.107735
   4 C :    0.501178    0.013808
   5 C :    0.207153    0.105203
   6 C :    0.512106    0.020498
   7 H :   -0.222382    0.006783
   8 H :   -0.215090    0.017035
   9 H :   -0.179438    0.006082
  10 H :   -0.174803    0.000298
  11 H :   -0.185436    0.001074
  12 H :   -0.222382    0.006783
  13 H :   -0.215091    0.017035
  14 H :   -0.174804    0.000298
  15 H :   -0.179437    0.006083
  16 H :   -0.185436    0.001074
  17 H :   -0.226118    0.006402
  18 H :   -0.226118    0.006402
  19 H :   -0.179546    0.001384
  20 H :   -0.179546    0.001384
  21 H :   -0.171046    0.005059

  Mayer bond orders larger than 0.100000
B(  0-Si,  1-C ) :   0.9423 B(  0-Si,  3-C ) :   0.9423 B(  0-Si,  5-C ) :   0.9530
B(  0-Si,  6-C ) :   0.2283 B(  0-Si,  8-H ) :   0.1087 B(  0-Si, 13-H ) :   0.1087
B(  1-C ,  2-C ) :   0.9800 B(  1-C ,  3-C ) :   0.1092 B(  1-C ,  7-H ) :   0.8016
B(  1-C ,  8-H ) :   0.9550 B(  2-C ,  9-H ) :   0.9805 B(  2-C , 10-H ) :   0.9943
B(  2-C , 11-H ) :   0.8963 B(  3-C ,  4-C ) :   0.9800 B(  3-C , 12-H ) :   0.8016
B(  3-C , 13-H ) :   0.9550 B(  4-C , 14-H ) :   0.9943 B(  4-C , 15-H ) :   0.9805
B(  4-C , 16-H ) :   0.8963 B(  5-C ,  6-C ) :   0.9249 B(  5-C , 17-H ) :   0.9472
B(  5-C , 18-H ) :   0.9472 B(  6-C , 19-H ) :   0.9295 B(  6-C , 20-H ) :   0.9295
B(  6-C , 21-H ) :   0.9616

MP2 TOTAL ENERGY:     -526.141356653 Eh
FINAL SINGLE POINT ENERGY      -526.141356653237

DIPOLE MOMENT
-------------
                                X             Y             Z
Electronic contribution:      0.00001      -2.86734      -2.75631
Nuclear contribution   :     -0.00001       2.95700       2.99708
                        -----------------------------------------
Total Dipole Moment    :     -0.00000       0.08966       0.24076
                        -----------------------------------------
Magnitude (a.u.)       :      0.25692
Magnitude (Debye)      :      0.65303

Rotational constants in cm-1:     0.086528     0.045751     0.034520
Rotational constants in MHz :  2594.054260  1371.589307  1034.872762

                             ****ORCA TERMINATED NORMALLY****
TOTAL RUN TIME: 0 days 0 hours 6 minutes 23 seconds 11 msec
