                         Program Version 4.2.1 -  RELEASE  -
|  1> %pal
|  2>  nprocs 32
|  3> end
|  4> !RI-MP2 aug-cc-pVTZ aug-cc-pVTZ/C TightSCF
|  5> %maxcore 4500
|  6> *xyzfile -2 1  10_91TS.xyz
|  7>
|  8>
|  9>                          ****END OF INPUT****

CARTESIAN COORDINATES (ANGSTROEM)
---------------------------------
  O     -1.317004    1.300023    0.901601
  C     -1.275564    0.017465    0.737721
  C     -0.165819   -0.694425    1.141107
  H      0.548200   -0.257759    1.825217
  H     -0.149002   -1.767947    1.001779
  C     -2.342892   -0.649044   -0.161315
  O     -2.679970    0.008897   -1.172788
  O     -2.750753   -1.773021    0.207121
  C     -0.284632    2.038766   -0.526018
  C      0.969905    1.477960   -0.298519
  H      1.672544    1.982548    0.358060
  H     -0.455249    3.080691   -0.277220
  H     -0.958480    1.616820   -1.263962
  C      1.203938    0.135105   -0.524730
  H      0.624491   -0.390468   -1.273598
  C      2.558071   -0.499532   -0.172270
  O      2.909519   -1.440827   -0.919803
  O      3.180640    0.002221    0.790603

 Total Charge           Charge          ....   -2
 Multiplicity           Mult            ....    1
 Number of Electrons    NEL             ....   90
 Basis Dimension        Dim             ....  690

ORBITAL ENERGIES
----------------

  NO   OCC          E(Eh)            E(eV)
   0   2.0000     -20.285594      -551.9991
   1   2.0000     -20.219176      -550.1917
   2   2.0000     -20.217110      -550.1355
   3   2.0000     -20.211309      -549.9777
   4   2.0000     -20.210380      -549.9524
   5   2.0000     -11.062813      -301.0344
   6   2.0000     -11.049598      -300.6748
   7   2.0000     -11.033571      -300.2387
   8   2.0000     -11.018034      -299.8160
   9   2.0000     -11.006580      -299.5043
  10   2.0000     -10.962537      -298.3058
  11   2.0000     -10.957462      -298.1677
  12   2.0000      -1.103307       -30.0225
  13   2.0000      -1.097373       -29.8610
  14   2.0000      -1.073705       -29.2170
  15   2.0000      -0.995363       -27.0852
  16   2.0000      -0.987361       -26.8675
  17   2.0000      -0.830368       -22.5955
  18   2.0000      -0.743216       -20.2239
  19   2.0000      -0.677304       -18.4304
  20   2.0000      -0.554054       -15.0766
  21   2.0000      -0.535353       -14.5677
  22   2.0000      -0.459369       -12.5001
  23   2.0000      -0.423131       -11.5140
  24   2.0000      -0.384877       -10.4730
  25   2.0000      -0.380938       -10.3658
  26   2.0000      -0.367518       -10.0007
  27   2.0000      -0.358474        -9.7546
  28   2.0000      -0.326846        -8.8939
  29   2.0000      -0.322113        -8.7651
  30   2.0000      -0.316571        -8.6143
  31   2.0000      -0.301531        -8.2051
  32   2.0000      -0.288327        -7.8458
  33   2.0000      -0.273629        -7.4458
  34   2.0000      -0.262776        -7.1505
  35   2.0000      -0.257838        -7.0161
  36   2.0000      -0.206856        -5.6288
  37   2.0000      -0.140592        -3.8257
  38   2.0000      -0.133579        -3.6349
  39   2.0000      -0.132003        -3.5920
  40   2.0000      -0.119720        -3.2578
  41   2.0000      -0.115883        -3.1533
  42   2.0000      -0.108802        -2.9607
  43   2.0000      -0.099022        -2.6945
  44   2.0000      -0.049100        -1.3361
  45   0.0000       0.183207         4.9853
  46   0.0000       0.207479         5.6458
  47   0.0000       0.213291         5.8039
  48   0.0000       0.218711         5.9514
  49   0.0000       0.228047         6.2055

MULLIKEN ATOMIC CHARGES
-----------------------
   0 O :   -1.029321
   1 C :    1.064876
   2 C :   -0.893131
   3 H :    0.459184
   4 H :    0.362729
   5 C :    0.443104
   6 O :   -0.905892
   7 O :   -0.909644
   8 C :   -0.515019
   9 C :   -0.694167
  10 H :    0.304395
  11 H :    0.386457
  12 H :    0.406131
  13 C :    0.430309
  14 H :    0.430703
  15 C :    0.525666
  16 O :   -0.931286
  17 O :   -0.935092
Sum of atomic charges:   -2.0000000

LOEWDIN ATOMIC CHARGES
----------------------
   0 O :    0.459349
   1 C :   -0.644047
   2 C :    0.415456
   3 H :   -0.233170
   4 H :   -0.217849
   5 C :   -1.206435
   6 O :    0.263307
   7 O :    0.240683
   8 C :    0.303909
   9 C :    0.098768
  10 H :   -0.217291
  11 H :   -0.195595
  12 H :   -0.250404
  13 C :    0.077198
  14 H :   -0.195905
  15 C :   -1.206663
  16 O :    0.247022
  17 O :    0.261665

  Mayer bond orders larger than 0.100000
B(  0-O ,  1-C ) :   0.7205 B(  0-O ,  8-C ) :   0.2649 B(  0-O , 13-C ) :   0.1109
B(  1-C ,  2-C ) :   1.3313 B(  1-C ,  5-C ) :   0.5862 B(  1-C ,  6-O ) :  -0.1082
B(  1-C ,  7-O ) :  -0.1622 B(  2-C ,  3-H ) :   0.8231 B(  2-C ,  4-H ) :   0.8661
B(  2-C ,  8-C ) :   0.1274 B(  2-C , 13-C ) :   0.3520 B(  5-C ,  6-O ) :   1.4083
B(  5-C ,  7-O ) :   1.4013 B(  8-C ,  9-C ) :   1.2600 B(  8-C , 11-H ) :   0.8292
B(  8-C , 12-H ) :   0.9629 B(  8-C , 13-C ) :  -0.1171 B(  9-C , 10-H ) :   0.9707
B(  9-C , 13-C ) :   1.1070 B( 13-C , 14-H ) :   0.7734 B( 13-C , 15-C ) :   0.6390
B( 13-C , 16-O ) :  -0.1481 B( 13-C , 17-O ) :  -0.1896 B( 15-C , 16-O ) :   1.2647
B( 15-C , 17-O ) :   1.3756

MP2 TOTAL ENERGY:     -645.384325133 Eh
FINAL SINGLE POINT ENERGY      -645.384325133331

DIPOLE MOMENT
-------------
                                X             Y             Z
Electronic contribution:     -1.37172      -1.93163      -0.03229
Nuclear contribution   :      1.23587       4.11320       0.35676
                        -----------------------------------------
Total Dipole Moment    :     -0.13585       2.18157       0.32447
                        -----------------------------------------
Magnitude (a.u.)       :      2.20974
Magnitude (Debye)      :      5.61672

Rotational constants in cm-1:     0.053044     0.019665     0.017200
Rotational constants in MHz :  1590.210251   589.548443   515.644734

                             ****ORCA TERMINATED NORMALLY****
TOTAL RUN TIME: 0 days 0 hours 5 minutes 33 seconds 835 msec
