                         Program Version 4.2.1 -  RELEASE  -
|  1> %pal
|  2>  nprocs 32
|  3> end
|  4> !RI-MP2 aug-cc-pVTZ aug-cc-pVTZ/C TightSCF
|  5> %maxcore 4500
|  6> *xyzfile 0 1  03_43R1.xyz
|  7>
|  8>
|  9>                          ****END OF INPUT****

CARTESIAN COORDINATES (ANGSTROEM)
---------------------------------
  C      2.563204    0.729675    0.274361
  C      1.662325   -0.235878    1.009686
  C      1.034566   -1.306913    0.118990
  C      0.022372   -0.794387   -0.900664
  N     -1.169850   -0.196366   -0.276965
  C     -2.156490   -1.056632    0.169205
  O     -2.084600   -2.254625    0.078535
  C     -1.268007    1.194963   -0.180708
  O     -0.369537    1.897663   -0.580308
  C     -2.513528    1.790388    0.430781
  H      0.888500    0.349581    1.517141
  H      2.244735   -0.724483    1.795369
  H      0.550299   -2.063113    0.740079
  H      1.827358   -1.818610   -0.432249
  H     -0.326532   -1.624238   -1.512990
  H      0.452031   -0.036327   -1.550314
  H     -3.022766   -0.556849    0.618201
  H     -2.647391    1.469274    1.465060
  H     -3.408576    1.518123   -0.130395
  H     -2.393670    2.870172    0.407250
  H      3.013690    1.451119    0.958481
  H      2.038022    1.266172   -0.515222
  F      3.615522    0.022459   -0.326375

 Total Charge           Charge          ....    0
 Multiplicity           Mult            ....    1
 Number of Electrons    NEL             ....   86
 Basis Dimension        Dim             ....  782

ORBITAL ENERGIES
----------------

  NO   OCC          E(Eh)            E(eV)
   0   2.0000     -26.263898      -714.6770
   1   2.0000     -20.561098      -559.4959
   2   2.0000     -20.558743      -559.4318
   3   2.0000     -15.628709      -425.2788
   4   2.0000     -11.387816      -309.8782
   5   2.0000     -11.377785      -309.6053
   6   2.0000     -11.295590      -307.3686
   7   2.0000     -11.271061      -306.7012
   8   2.0000     -11.264835      -306.5317
   9   2.0000     -11.229850      -305.5798
  10   2.0000     -11.227428      -305.5139
  11   2.0000      -1.570674       -42.7402
  12   2.0000      -1.434177       -39.0259
  13   2.0000      -1.415069       -38.5060
  14   2.0000      -1.273560       -34.6553
  15   2.0000      -1.089133       -29.6368
  16   2.0000      -1.042500       -28.3679
  17   2.0000      -0.990356       -26.9490
  18   2.0000      -0.910622       -24.7793
  19   2.0000      -0.888726       -24.1835
  20   2.0000      -0.814979       -22.1767
  21   2.0000      -0.776133       -21.1197
  22   2.0000      -0.727184       -19.7877
  23   2.0000      -0.695418       -18.9233
  24   2.0000      -0.692498       -18.8438
  25   2.0000      -0.685485       -18.6530
  26   2.0000      -0.664264       -18.0755
  27   2.0000      -0.648513       -17.6469
  28   2.0000      -0.637234       -17.3400
  29   2.0000      -0.624806       -17.0018
  30   2.0000      -0.610299       -16.6071
  31   2.0000      -0.607948       -16.5431
  32   2.0000      -0.582899       -15.8615
  33   2.0000      -0.572398       -15.5757
  34   2.0000      -0.547545       -14.8994
  35   2.0000      -0.535501       -14.5717
  36   2.0000      -0.531449       -14.4615
  37   2.0000      -0.503071       -13.6893
  38   2.0000      -0.479697       -13.0532
  39   2.0000      -0.476346       -12.9620
  40   2.0000      -0.464419       -12.6375
  41   2.0000      -0.452726       -12.3193
  42   2.0000      -0.416468       -11.3327
  43   0.0000       0.019370         0.5271
  44   0.0000       0.030997         0.8435
  45   0.0000       0.035525         0.9667
  46   0.0000       0.037053         1.0083
  47   0.0000       0.045412         1.2357

MULLIKEN ATOMIC CHARGES
-----------------------
   0 C :   -0.131800
   1 C :   -0.546990
   2 C :   -0.415823
   3 C :   -0.452500
   4 N :    0.501371
   5 C :   -0.278082
   6 O :   -0.832073
   7 C :    0.541780
   8 O :   -0.973043
   9 C :   -0.717276
  10 H :    0.205890
  11 H :    0.312479
  12 H :    0.211479
  13 H :    0.347730
  14 H :    0.375988
  15 H :    0.194922
  16 H :    0.658376
  17 H :    0.253240
  18 H :    0.291797
  19 H :    0.369855
  20 H :    0.318295
  21 H :    0.333683
  22 F :   -0.569299
Sum of atomic charges:   -0.0000000

LOEWDIN ATOMIC CHARGES
----------------------
   0 C :   -0.059094
   1 C :    0.269282
   2 C :    0.301426
   3 C :    0.196893
   4 N :    0.250436
   5 C :   -0.331516
   6 O :    0.470967
   7 C :   -0.635037
   8 O :    0.511569
   9 C :    0.592301
  10 H :   -0.156311
  11 H :   -0.144927
  12 H :   -0.151033
  13 H :   -0.143449
  14 H :   -0.152614
  15 H :   -0.178996
  16 H :   -0.202683
  17 H :   -0.167482
  18 H :   -0.166691
  19 H :   -0.175764
  20 H :   -0.162035
  21 H :   -0.206136
  22 F :    0.440895

  Mayer bond orders larger than 0.100000
B(  0-C ,  1-C ) :   0.8964 B(  0-C , 20-H ) :   0.9768 B(  0-C , 21-H ) :   0.9116
B(  0-C , 22-F ) :   0.5259 B(  1-C ,  2-C ) :   0.8403 B(  1-C ,  3-C ) :   0.1100
B(  1-C , 10-H ) :   0.9710 B(  1-C , 11-H ) :   0.9590 B(  1-C , 22-F ) :   0.1066
B(  2-C ,  3-C ) :   0.8537 B(  2-C , 12-H ) :   1.0144 B(  2-C , 13-H ) :   0.8841
B(  3-C ,  4-N ) :   0.8464 B(  3-C , 14-H ) :   0.8651 B(  3-C , 15-H ) :   1.1040
B(  4-N ,  5-C ) :   1.2007 B(  4-N ,  7-C ) :   0.8388 B(  4-N ,  8-O ) :  -0.1173
B(  5-C ,  6-O ) :   1.7028 B(  5-C ,  7-C ) :  -0.1071 B(  5-C , 16-H ) :   0.4817
B(  6-O , 16-H ) :  -0.1358 B(  7-C ,  8-O ) :   1.3581 B(  7-C ,  9-C ) :   0.7170
B(  8-O , 15-H ) :  -0.1122 B(  9-C , 17-H ) :   0.9784 B(  9-C , 18-H ) :   0.9571
B(  9-C , 19-H ) :   0.9178 B( 21-H , 22-F ) :   0.1000

MP2 TOTAL ENERGY:     -578.046098797 Eh
FINAL SINGLE POINT ENERGY      -578.046098796783

DIPOLE MOMENT
-------------
                                X             Y             Z
Electronic contribution:      3.02943      -1.24817      -2.98081
Nuclear contribution   :     -4.40974       2.07621       3.68091
                        -----------------------------------------
Total Dipole Moment    :     -1.38031       0.82804       0.70010
                        -----------------------------------------
Magnitude (a.u.)       :      1.75530
Magnitude (Debye)      :      4.46161

Rotational constants in cm-1:     0.052585     0.023352     0.017864
Rotational constants in MHz :  1576.472473   700.088757   535.556721

                             ****ORCA TERMINATED NORMALLY****
TOTAL RUN TIME: 0 days 0 hours 7 minutes 47 seconds 254 msec
