                         Program Version 4.2.1 -  RELEASE  -
|  1> %pal
|  2>  nprocs 32
|  3> end
|  4> !RI-MP2 aug-cc-pVTZ aug-cc-pVTZ/C TightSCF
|  5> %maxcore 4500
|  6> *xyzfile -1 1  08_15P2.xyz
|  7>
|  8>
|  9>                          ****END OF INPUT****

CARTESIAN COORDINATES (ANGSTROEM)
---------------------------------
  C      1.325058   -0.575468    0.340354
  C      0.836765    0.579561   -0.551145
  C     -0.624306    0.929152   -0.333517
  C     -1.457297   -0.348297   -0.522301
  O     -0.989601   -1.391388    0.308922
  C      0.381480   -1.751166    0.058005
  H      0.499348   -2.082343   -0.985031
  O      2.640047   -0.777468    0.140181
  H      1.091094   -0.281329    1.400184
  O      1.699951    1.678079   -0.337782
  H      0.945280    0.231784   -1.592841
  H      2.529714    1.187606   -0.134936
  O     -2.791153   -0.101305   -0.213993
  H     -1.412655   -0.678852   -1.569256
  H     -2.752285    0.542746    0.512516
  N     -0.961589    1.492376    0.979519
  H     -0.958712    1.652118   -1.086333
  H     -0.537896    0.908818    1.694605
  H     -0.516482    2.399044    1.061660
  H      0.599559   -2.592262    0.715805

 Total Charge           Charge          ....   -1
 Multiplicity           Mult            ....    1
 Number of Electrons    NEL             ....   80
 Basis Dimension        Dim             ....  690

ORBITAL ENERGIES
----------------

  NO   OCC          E(Eh)            E(eV)
   0   2.0000     -20.430646      -555.9461
   1   2.0000     -20.416978      -555.5742
   2   2.0000     -20.391301      -554.8755
   3   2.0000     -20.259024      -551.2761
   4   2.0000     -15.424143      -419.7123
   5   2.0000     -11.198204      -304.7186
   6   2.0000     -11.122243      -302.6516
   7   2.0000     -11.114735      -302.4473
   8   2.0000     -11.108657      -302.2819
   9   2.0000     -11.082908      -301.5813
  10   2.0000      -1.278835       -34.7989
  11   2.0000      -1.205899       -32.8142
  12   2.0000      -1.199962       -32.6526
  13   2.0000      -1.063313       -28.9342
  14   2.0000      -1.061280       -28.8789
  15   2.0000      -0.871118       -23.7043
  16   2.0000      -0.832586       -22.6558
  17   2.0000      -0.714794       -19.4505
  18   2.0000      -0.692293       -18.8383
  19   2.0000      -0.629441       -17.1280
  20   2.0000      -0.571287       -15.5455
  21   2.0000      -0.538575       -14.6554
  22   2.0000      -0.529621       -14.4117
  23   2.0000      -0.521158       -14.1814
  24   2.0000      -0.494908       -13.4671
  25   2.0000      -0.477598       -12.9961
  26   2.0000      -0.456962       -12.4346
  27   2.0000      -0.445109       -12.1120
  28   2.0000      -0.416670       -11.3382
  29   2.0000      -0.396477       -10.7887
  30   2.0000      -0.383713       -10.4414
  31   2.0000      -0.358421        -9.7531
  32   2.0000      -0.347465        -9.4550
  33   2.0000      -0.324427        -8.8281
  34   2.0000      -0.318105        -8.6561
  35   2.0000      -0.295225        -8.0335
  36   2.0000      -0.291241        -7.9251
  37   2.0000      -0.264192        -7.1890
  38   2.0000      -0.170064        -4.6277
  39   2.0000      -0.164846        -4.4857
  40   0.0000       0.113977         3.1015
  41   0.0000       0.119261         3.2452
  42   0.0000       0.125452         3.4137
  43   0.0000       0.132663         3.6099
  44   0.0000       0.135113         3.6766

MULLIKEN ATOMIC CHARGES
-----------------------
   0 C :    0.534599
   1 C :    0.593334
   2 C :    0.210096
   3 C :    0.605520
   4 O :   -0.831741
   5 C :   -0.467399
   6 H :    0.237056
   7 O :   -1.325260
   8 H :    0.159903
   9 O :   -0.969073
  10 H :    0.196393
  11 H :    0.229674
  12 O :   -0.867877
  13 H :    0.378126
  14 H :    0.205543
  15 N :   -0.777152
  16 H :    0.375817
  17 H :    0.096566
  18 H :    0.066876
  19 H :    0.349000
Sum of atomic charges:   -1.0000000

LOEWDIN ATOMIC CHARGES
----------------------
   0 C :   -0.603111
   1 C :   -0.316932
   2 C :   -0.121398
   3 C :   -0.545137
   4 O :    0.571051
   5 C :    0.023269
   6 H :   -0.164279
   7 O :    0.267520
   8 H :   -0.178152
   9 O :    0.804090
  10 H :   -0.144187
  11 H :   -0.605826
  12 O :    0.823931
  13 H :   -0.149099
  14 H :   -0.571488
  15 N :    0.864019
  16 H :   -0.132116
  17 H :   -0.338590
  18 H :   -0.311669
  19 H :   -0.171895

  Mayer bond orders larger than 0.100000
B(  0-C ,  1-C ) :   0.8335 B(  0-C ,  5-C ) :   0.9607 B(  0-C ,  7-O ) :   0.6446
B(  0-C ,  8-H ) :   1.0817 B(  1-C ,  2-C ) :   0.8214 B(  1-C ,  9-O ) :   0.2093
B(  1-C , 10-H ) :   1.1239 B(  2-C ,  3-C ) :   1.0120 B(  2-C ,  9-O ) :   0.1382
B(  2-C , 12-O ) :   0.1495 B(  2-C , 15-N ) :   0.1567 B(  2-C , 16-H ) :   0.8019
B(  3-C ,  4-O ) :   0.6977 B(  3-C , 12-O ) :   0.4301 B(  3-C , 13-H ) :   0.9886
B(  3-C , 15-N ) :   0.1489 B(  4-O ,  5-C ) :   0.8850 B(  5-C ,  6-H ) :   0.9826
B(  5-C ,  7-O ) :   0.1171 B(  5-C , 19-H ) :   0.9108 B(  9-O , 11-H ) :   0.9530
B( 12-O , 14-H ) :   0.9630 B( 15-N , 17-H ) :   0.9714 B( 15-N , 18-H ) :   1.0327

MP2 TOTAL ENERGY:     -551.322163470 Eh
FINAL SINGLE POINT ENERGY      -551.322163469675

DIPOLE MOMENT
-------------
                                X             Y             Z
Electronic contribution:     -1.55026      -0.40480      -0.14560
Nuclear contribution   :     -0.51065       1.28875       0.02053
                        -----------------------------------------
Total Dipole Moment    :     -2.06091       0.88395      -0.12506
                        -----------------------------------------
Magnitude (a.u.)       :      2.24597
Magnitude (Debye)      :      5.70880

Rotational constants in cm-1:     0.070816     0.038816     0.028603
Rotational constants in MHz :  2123.020088  1163.686131   857.511219

                             ****ORCA TERMINATED NORMALLY****
TOTAL RUN TIME: 0 days 0 hours 5 minutes 18 seconds 756 msec
