                         Program Version 4.2.1 -  RELEASE  -
|  1> %pal
|  2>  nprocs 32
|  3> end
|  4> !RI-MP2 aug-cc-pVTZ aug-cc-pVTZ/C TightSCF
|  5> %maxcore 4500
|  6> *xyzfile 0 1  06_24P.xyz
|  7>
|  8>
|  9>                          ****END OF INPUT****

CARTESIAN COORDINATES (ANGSTROEM)
---------------------------------
  C      0.648503    2.595494    0.372259
  C      0.454733    1.219434    1.068882
  C     -2.159439    1.240975   -0.618622
  H      1.718701    2.748165    0.211483
  C     -0.587409    1.260166    2.206605
  H     -0.789021    0.241115    2.553838
  H     -0.132702    1.779793    3.057222
  H     -3.019171    1.061360   -1.270914
  H      1.406093    0.968573    1.545340
  C     -1.905059    1.960333    1.892452
  H     -2.501449    1.990172    2.809796
  H     -1.706463    3.006318    1.643693
  C     -2.762627    1.337710    0.795255
  H     -3.086020    0.343839    1.117836
  H     -3.678092    1.934329    0.719343
  C     -1.551373    2.587076   -1.090924
  H     -1.809469    2.725046   -2.145416
  C     -0.029933    2.759765   -0.994549
  H      0.442034    2.064304   -1.698277
  H      0.214930    3.755587   -1.376642
  H     -2.046966    3.406626   -0.559943
  H      0.328952    3.397086    1.045540
  C     -1.195458    0.052635   -0.817483
  H     -0.918235    0.003996   -1.881313
  Si    -1.954151   -1.683260   -0.572623
  C     -1.750477   -2.306053    1.191797
  H     -2.286367   -1.692933    1.919081
  H     -2.132988   -3.326995    1.276746
  H     -0.695357   -2.326139    1.477893
  C     -1.069646   -2.875920   -1.719973
  H     -1.458064   -3.891326   -1.604095
  H     -1.198578   -2.587678   -2.766603
  H      0.000584   -2.892467   -1.507731
  C     -3.779705   -1.656215   -1.026194
  H     -3.924955   -1.310631   -2.053090
  H     -4.197178   -2.664499   -0.957059
  H     -4.367167   -1.009628   -0.371503
  B      0.144835    0.147452   -0.038852
  C      3.509659    0.442686   -1.452258
  C      3.442753   -0.385547   -0.262025
  C      4.615921    1.032366   -1.903808
  C      2.298321   -0.910673    0.191837
  O      1.116196   -0.760062   -0.439259
  O      2.130331   -1.678153    1.283489
  C      3.274624   -1.979682    2.063038
  H      3.728165   -1.066364    2.457193
  H      2.923190   -2.599521    2.883905
  H      4.011743   -2.530668    1.473435
  H      2.582180    0.573212   -2.000302
  H      5.566339    0.927961   -1.391300
  H      4.604629    1.636458   -2.801607
  H      4.362124   -0.578293    0.272859

 Total Charge           Charge          ....    0
 Multiplicity           Mult            ....    1
 Number of Electrons    NEL             ....  168
 Basis Dimension        Dim             .... 1683

ORBITAL ENERGIES
----------------

  NO   OCC          E(Eh)            E(eV)
   0   2.0000     -68.745066     -1870.6484
   1   2.0000     -20.601847      -560.6048
   2   2.0000     -20.580317      -560.0189
   3   2.0000     -11.360310      -309.1297
   4   2.0000     -11.292695      -307.2898
   5   2.0000     -11.232956      -305.6643
   6   2.0000     -11.221296      -305.3470
   7   2.0000     -11.215618      -305.1925
   8   2.0000     -11.214986      -305.1753
   9   2.0000     -11.214431      -305.1602
  10   2.0000     -11.214270      -305.1558
  11   2.0000     -11.211563      -305.0821
  12   2.0000     -11.211193      -305.0721
  13   2.0000     -11.210953      -305.0656
  14   2.0000     -11.210191      -305.0448
  15   2.0000     -11.193552      -304.5920
  16   2.0000     -11.189729      -304.4880
  17   2.0000     -11.188273      -304.4484
  18   2.0000     -11.182826      -304.3002
  19   2.0000     -11.176125      -304.1178
  20   2.0000      -7.607700      -207.0161
  21   2.0000      -6.091920      -165.7696
  22   2.0000      -4.198211      -114.2391
  23   2.0000      -4.198109      -114.2364
  24   2.0000      -4.198028      -114.2341
  25   2.0000      -1.462198       -39.7884
  26   2.0000      -1.379026       -37.5252
  27   2.0000      -1.113534       -30.3008
  28   2.0000      -1.082634       -29.4600
  29   2.0000      -1.046476       -28.4761
  30   2.0000      -1.041950       -28.3529
  31   2.0000      -1.003039       -27.2941
  32   2.0000      -0.972282       -26.4571
  33   2.0000      -0.963119       -26.2078
  34   2.0000      -0.945866       -25.7383
  35   2.0000      -0.917791       -24.9744
  36   2.0000      -0.914733       -24.8911
  37   2.0000      -0.911802       -24.8114
  38   2.0000      -0.879706       -23.9380
  39   2.0000      -0.824663       -22.4402
  40   2.0000      -0.796851       -21.6834
  41   2.0000      -0.792183       -21.5564
  42   2.0000      -0.764917       -20.8145
  43   2.0000      -0.725928       -19.7535
  44   2.0000      -0.716538       -19.4980
  45   2.0000      -0.698744       -19.0138
  46   2.0000      -0.682391       -18.5688
  47   2.0000      -0.660210       -17.9652
  48   2.0000      -0.642077       -17.4718
  49   2.0000      -0.634481       -17.2651
  50   2.0000      -0.621373       -16.9084
  51   2.0000      -0.606772       -16.5111
  52   2.0000      -0.598750       -16.2928
  53   2.0000      -0.591902       -16.1065
  54   2.0000      -0.585395       -15.9294
  55   2.0000      -0.576743       -15.6940
  56   2.0000      -0.574798       -15.6410
  57   2.0000      -0.570249       -15.5173
  58   2.0000      -0.561312       -15.2741
  59   2.0000      -0.558101       -15.1867
  60   2.0000      -0.554783       -15.0964
  61   2.0000      -0.547133       -14.8882
  62   2.0000      -0.543022       -14.7764
  63   2.0000      -0.532319       -14.4851
  64   2.0000      -0.530387       -14.4326
  65   2.0000      -0.521627       -14.1942
  66   2.0000      -0.520071       -14.1518
  67   2.0000      -0.511421       -13.9165
  68   2.0000      -0.502705       -13.6793
  69   2.0000      -0.495793       -13.4912
  70   2.0000      -0.490296       -13.3416
  71   2.0000      -0.484470       -13.1831
  72   2.0000      -0.475809       -12.9474
  73   2.0000      -0.466729       -12.7004
  74   2.0000      -0.457927       -12.4608
  75   2.0000      -0.441671       -12.0185
  76   2.0000      -0.428645       -11.6640
  77   2.0000      -0.428004       -11.6466
  78   2.0000      -0.426370       -11.6021
  79   2.0000      -0.415551       -11.3077
  80   2.0000      -0.411321       -11.1926
  81   2.0000      -0.405714       -11.0400
  82   2.0000      -0.378127       -10.2894
  83   2.0000      -0.296549        -8.0695
  84   0.0000       0.022257         0.6056
  85   0.0000       0.026718         0.7270
  86   0.0000       0.029030         0.7900
  87   0.0000       0.030503         0.8300
  88   0.0000       0.037981         1.0335

MULLIKEN ATOMIC CHARGES
-----------------------
   0 C :   -0.732552
   1 C :    1.030209
   2 C :    0.188319
   3 H :    0.197798
   4 C :   -0.928949
   5 H :    0.093374
   6 H :    0.143736
   7 H :    0.072752
   8 H :    0.139350
   9 C :   -0.396458
  10 H :    0.407819
  11 H :   -0.083304
  12 C :   -0.389608
  13 H :    0.148352
  14 H :    0.097891
  15 C :   -0.986185
  16 H :    0.173947
  17 C :   -0.397774
  18 H :    0.194663
  19 H :    0.428498
  20 H :   -0.080568
  21 H :   -0.047168
  22 C :    0.736898
  23 H :    0.159357
  24 Si:    3.275175
  25 C :   -1.375640
  26 H :    0.148118
  27 H :    0.199842
  28 H :    0.399174
  29 C :   -2.189853
  30 H :    0.086525
  31 H :    0.139681
  32 H :    0.447999
  33 C :   -1.752585
  34 H :    0.213216
  35 H :    0.087845
  36 H :    0.285879
  37 B :    0.734470
  38 C :    0.444961
  39 C :    0.048071
  40 C :   -1.752297
  41 C :    0.192509
  42 O :   -0.496986
  43 O :   -0.446333
  44 C :   -1.072342
  45 H :    0.425594
  46 H :    0.199460
  47 H :    0.409099
  48 H :    0.595054
  49 H :    0.223275
  50 H :    0.386766
  51 H :   -0.027074
Sum of atomic charges:   -0.0000000

LOEWDIN ATOMIC CHARGES
----------------------
   0 C :    0.337670
   1 C :    0.155470
   2 C :   -0.000812
   3 H :   -0.135482
   4 C :    0.322594
   5 H :   -0.141351
   6 H :   -0.130111
   7 H :   -0.150490
   8 H :   -0.168409
   9 C :    0.311726
  10 H :   -0.131215
  11 H :   -0.163613
  12 C :    0.315898
  13 H :   -0.173038
  14 H :   -0.126377
  15 C :    0.342408
  16 H :   -0.135471
  17 C :    0.317765
  18 H :   -0.150274
  19 H :   -0.131136
  20 H :   -0.144962
  21 H :   -0.144743
  22 C :    0.159881
  23 H :   -0.183439
  24 Si:    0.529680
  25 C :    0.604922
  26 H :   -0.233282
  27 H :   -0.219210
  28 H :   -0.225298
  29 C :    0.596671
  30 H :   -0.224629
  31 H :   -0.222627
  32 H :   -0.235293
  33 C :    0.594904
  34 H :   -0.220188
  35 H :   -0.224325
  36 H :   -0.231565
  37 B :   -0.756453
  38 C :    0.134360
  39 C :    0.183024
  40 C :    0.518371
  41 C :   -0.661444
  42 O :    0.678438
  43 O :    0.598911
  44 C :    0.354007
  45 H :   -0.168803
  46 H :   -0.175070
  47 H :   -0.169229
  48 H :   -0.198951
  49 H :   -0.226082
  50 H :   -0.233721
  51 H :   -0.219607

  Mayer bond orders larger than 0.100000
B(  0-C ,  1-C ) :   0.6129 B(  0-C ,  3-H ) :   1.1028 B(  0-C ,  8-H ) :  -0.2818
B(  0-C , 17-C ) :   0.7201 B(  0-C , 19-H ) :  -0.1378 B(  0-C , 21-H ) :   1.3151
B(  0-C , 37-B ) :   0.4561 B(  1-C ,  3-H ) :  -0.1204 B(  1-C ,  4-C ) :   0.5180
B(  1-C ,  6-H ) :  -0.1733 B(  1-C ,  8-H ) :   1.1912 B(  1-C ,  9-C ) :   0.1271
B(  1-C , 37-B ) :   0.2603 B(  1-C , 42-O ) :   0.2283 B(  2-C ,  7-H ) :   1.1695
B(  2-C ,  9-C ) :   0.1543 B(  2-C , 12-C ) :   0.7892 B(  2-C , 14-H ) :  -0.1084
B(  2-C , 15-C ) :   0.6508 B(  2-C , 16-H ) :  -0.1167 B(  2-C , 20-H ) :  -0.1067
B(  2-C , 22-C ) :   0.8523 B(  2-C , 23-H ) :  -0.1436 B(  2-C , 24-Si) :   0.1508
B(  2-C , 37-B ) :   0.3835 B(  4-C ,  5-H ) :   1.3085 B(  4-C ,  6-H ) :   1.1775
B(  4-C ,  8-H ) :  -0.3232 B(  4-C ,  9-C ) :   0.7087 B(  4-C , 11-H ) :   0.1031
B(  4-C , 12-C ) :   0.1091 B(  5-H ,  8-H ) :  -0.1096 B(  6-H ,  9-C ) :  -0.1169
B(  7-H , 15-C ) :  -0.2939 B(  7-H , 22-C ) :  -0.2182 B(  8-H , 37-B ) :  -0.2770
B(  8-H , 42-O ) :  -0.1766 B(  8-H , 43-O ) :   0.1236 B(  9-C , 10-H ) :   0.8158
B(  9-C , 11-H ) :   1.3967 B(  9-C , 12-C ) :   0.7272 B(  9-C , 14-H ) :  -0.1187
B(  9-C , 37-B ) :  -0.1426 B( 11-H , 37-B ) :  -0.1458 B( 12-C , 13-H ) :   0.9856
B( 12-C , 14-H ) :   1.2062 B( 13-H , 37-B ) :   0.1486 B( 15-C , 16-H ) :   1.0817
B( 15-C , 17-C ) :   0.7953 B( 15-C , 18-H ) :   0.1107 B( 15-C , 20-H ) :   1.4411
B( 15-C , 22-C ) :   0.1418 B( 17-C , 18-H ) :   1.1596 B( 17-C , 19-H ) :   0.8594
B( 17-C , 37-B ) :  -0.1826 B( 22-C , 23-H ) :   0.8386 B( 22-C , 24-Si) :   0.6391
B( 22-C , 25-C ) :   0.2252 B( 22-C , 33-C ) :   0.1853 B( 22-C , 37-B ) :   1.2532
B( 22-C , 39-C ) :  -0.1139 B( 22-C , 41-C ) :   0.1099 B( 22-C , 42-O ) :  -0.4108
B( 23-H , 24-Si) :  -0.1006 B( 23-H , 37-B ) :  -0.1454 B( 23-H , 42-O ) :   0.1241
B( 24-Si, 25-C ) :   0.2485 B( 24-Si, 29-C ) :  -1.4824 B( 24-Si, 30-H ) :  -0.2148
B( 24-Si, 31-H ) :  -0.2192 B( 24-Si, 33-C ) :  -0.8408 B( 24-Si, 34-H ) :  -0.1083
B( 24-Si, 35-H ) :  -0.1558 B( 24-Si, 37-B ) :   0.1528 B( 24-Si, 42-O ) :   0.3669
B( 25-C , 26-H ) :   1.2140 B( 25-C , 27-H ) :   0.9629 B( 25-C , 28-H ) :   0.8708
B( 25-C , 29-C ) :   0.1234 B( 25-C , 33-C ) :   0.1738 B( 25-C , 37-B ) :  -0.1018
B( 26-H , 28-H ) :   0.1068 B( 29-C , 30-H ) :   1.3805 B( 29-C , 31-H ) :   1.2797
B( 29-C , 32-H ) :   0.8992 B( 29-C , 33-C ) :   0.1203 B( 32-H , 42-O ) :  -0.1356
B( 33-C , 34-H ) :   1.1118 B( 33-C , 35-H ) :   1.2457 B( 33-C , 36-H ) :   1.0603
B( 33-C , 37-B ) :   0.1105 B( 37-B , 38-C ) :  -0.1806 B( 37-B , 41-C ) :   0.2050
B( 37-B , 42-O ) :  -1.9751 B( 37-B , 43-O ) :  -0.1255 B( 38-C , 39-C ) :   0.3452
B( 38-C , 40-C ) :   0.5864 B( 38-C , 41-C ) :   0.3541 B( 38-C , 48-H ) :   0.8406
B( 38-C , 51-H ) :  -0.1562 B( 39-C , 40-C ) :   0.2356 B( 39-C , 41-C ) :   1.5298
B( 39-C , 42-O ) :  -0.4102 B( 39-C , 43-O ) :  -0.5815 B( 39-C , 44-C ) :  -0.1153
B( 39-C , 51-H ) :   1.5627 B( 40-C , 48-H ) :  -0.2730 B( 40-C , 49-H ) :   1.2514
B( 40-C , 50-H ) :   0.8528 B( 41-C , 42-O ) :   0.3472 B( 41-C , 43-O ) :   0.6460
B( 42-O , 43-O ) :  -0.1247 B( 43-O , 44-C ) :   1.1922 B( 44-C , 45-H ) :   0.8111
B( 44-C , 46-H ) :   1.1360 B( 44-C , 47-H ) :   0.8459 B( 44-C , 51-H ) :  -0.1010

MP2 TOTAL ENERGY:    -1129.155945074 Eh
FINAL SINGLE POINT ENERGY     -1129.155945073580

DIPOLE MOMENT
-------------
                                X             Y             Z
Electronic contribution:      8.45844      -4.10565      -1.55270
Nuclear contribution   :     -8.24558       4.15265       2.22353
                        -----------------------------------------
Total Dipole Moment    :      0.21287       0.04700       0.67083
                        -----------------------------------------
Magnitude (a.u.)       :      0.70536
Magnitude (Debye)      :      1.79289

Rotational constants in cm-1:     0.011794     0.007874     0.006516
Rotational constants in MHz :   353.585272   236.069124   195.341946

                             ****ORCA TERMINATED NORMALLY****
TOTAL RUN TIME: 0 days 1 hours 59 minutes 10 seconds 2 msec
