                         Program Version 4.2.1 -  RELEASE  -
|  1> %pal
|  2>  nprocs 32
|  3> end
|  4> !RI-MP2 aug-cc-pVTZ aug-cc-pVTZ/C TightSCF
|  5> %maxcore 4500
|  6> *xyzfile -1 1  09_5P.xyz
|  7>
|  8>
|  9>                          ****END OF INPUT****

CARTESIAN COORDINATES (ANGSTROEM)
---------------------------------
  C      1.143259    1.429618   -0.466351
  C      1.351532    0.030570    0.043468
  C      0.511473   -1.046218   -0.589620
  O      2.145157   -0.213786    0.933890
  C     -0.941712   -1.048549   -0.050793
  C     -1.779592    0.142831   -0.454334
  C     -2.571791    0.625765    0.512511
  H      1.617904    2.150024    0.200463
  H      1.581031    1.507923   -1.467167
  H      0.066771    1.607782   -0.579335
  H     -3.253287    1.463349    0.351109
  H     -2.598390    0.214960    1.542679
  H      0.997755   -2.004417   -0.387811
  H      0.455983   -0.876182   -1.669120
  H     -1.408756   -1.945258   -0.478330
  H     -0.899283   -1.211994    1.047099

 Total Charge           Charge          ....   -1
 Multiplicity           Mult            ....    1
 Number of Electrons    NEL             ....   54
 Basis Dimension        Dim             ....  529

ORBITAL ENERGIES
----------------

  NO   OCC          E(Eh)            E(eV)
   0   2.0000     -20.401969      -555.1658
   1   2.0000     -11.184412      -304.3433
   2   2.0000     -11.082322      -301.5653
   3   2.0000     -11.079229      -301.4812
   4   2.0000     -11.058158      -300.9078
   5   2.0000     -11.003714      -299.4263
   6   2.0000     -10.986430      -298.9560
   7   2.0000      -1.242083       -33.7988
   8   2.0000      -0.918449       -24.9923
   9   2.0000      -0.852153       -23.1883
  10   2.0000      -0.800579       -21.7849
  11   2.0000      -0.695388       -18.9225
  12   2.0000      -0.586673       -15.9642
  13   2.0000      -0.522591       -14.2204
  14   2.0000      -0.500620       -13.6226
  15   2.0000      -0.486246       -13.2314
  16   2.0000      -0.459472       -12.5029
  17   2.0000      -0.427800       -11.6410
  18   2.0000      -0.400109       -10.8875
  19   2.0000      -0.384159       -10.4535
  20   2.0000      -0.383639       -10.4393
  21   2.0000      -0.349343        -9.5061
  22   2.0000      -0.335689        -9.1346
  23   2.0000      -0.290996        -7.9184
  24   2.0000      -0.264040        -7.1849
  25   2.0000      -0.138349        -3.7647
  26   2.0000      -0.096105        -2.6152
  27   0.0000       0.118089         3.2134
  28   0.0000       0.119583         3.2540
  29   0.0000       0.129781         3.5315
  30   0.0000       0.133533         3.6336
  31   0.0000       0.142105         3.8669

MULLIKEN ATOMIC CHARGES
-----------------------
   0 C :   -0.896943
   1 C :    0.607034
   2 C :   -0.280619
   3 O :   -0.963584
   4 C :   -0.227940
   5 C :   -0.459363
   6 C :   -1.257133
   7 H :    0.255747
   8 H :    0.274017
   9 H :    0.409957
  10 H :    0.394742
  11 H :    0.254516
  12 H :    0.203002
  13 H :    0.289538
  14 H :    0.238783
  15 H :    0.158246
Sum of atomic charges:   -1.0000000

LOEWDIN ATOMIC CHARGES
----------------------
   0 C :    0.561418
   1 C :   -0.557507
   2 C :    0.220583
   3 O :    0.428547
   4 C :    0.076615
   5 C :   -0.009481
   6 C :    0.251707
   7 H :   -0.187773
   8 H :   -0.176542
   9 H :   -0.248709
  10 H :   -0.324915
  11 H :   -0.291302
  12 H :   -0.177695
  13 H :   -0.175910
  14 H :   -0.196548
  15 H :   -0.192490

  Mayer bond orders larger than 0.100000
B(  0-C ,  1-C ) :   0.8643 B(  0-C ,  7-H ) :   0.9849 B(  0-C ,  8-H ) :   0.9548
B(  0-C ,  9-H ) :   0.7835 B(  1-C ,  2-C ) :   0.7516 B(  1-C ,  3-O ) :   1.0221
B(  1-C ,  4-C ) :   0.2108 B(  2-C ,  4-C ) :   0.9023 B(  2-C , 12-H ) :   1.0036
B(  2-C , 13-H ) :   0.9464 B(  4-C ,  5-C ) :   0.6665 B(  4-C , 14-H ) :   0.9930
B(  4-C , 15-H ) :   0.9422 B(  5-C ,  6-C ) :   1.2589 B(  5-C ,  9-H ) :   0.1084
B(  6-C , 10-H ) :   0.8486 B(  6-C , 11-H ) :   0.9588

MP2 TOTAL ENERGY:     -308.599481835 Eh
FINAL SINGLE POINT ENERGY      -308.599481835108

DIPOLE MOMENT
-------------
                                X             Y             Z
Electronic contribution:      5.48959      -1.24119       1.24128
Nuclear contribution   :     -3.49065       0.92513      -1.46093
                        -----------------------------------------
Total Dipole Moment    :      1.99894      -0.31606      -0.21965
                        -----------------------------------------
Magnitude (a.u.)       :      2.03566
Magnitude (Debye)      :      5.17423

Rotational constants in cm-1:     0.147989     0.055293     0.048462
Rotational constants in MHz :  4436.588833  1657.632028  1452.849906

                             ****ORCA TERMINATED NORMALLY****
TOTAL RUN TIME: 0 days 0 hours 2 minutes 16 seconds 115 msec
