                         Program Version 4.2.1 -  RELEASE  -
|  1> %pal
|  2>  nprocs 32
|  3> end
|  4> !RI-MP2 aug-cc-pVTZ aug-cc-pVTZ/C TightSCF
|  5> %maxcore 4500
|  6> *xyzfile 0 2  04_2P1.xyz
|  7>
|  8>
|  9>                          ****END OF INPUT****

CARTESIAN COORDINATES (ANGSTROEM)
---------------------------------
  C     -0.211161   -0.536903   -0.045231
  C      1.082128    0.055976    0.001457
  O      1.287397    1.260417    0.025823
  N     -1.278236    0.288102   -0.109782
  H     -0.360532   -1.605536   -0.064086
  C     -2.639819   -0.157166    0.067032
  H     -3.323018    0.590062   -0.334784
  H     -2.884808   -0.326400    1.121404
  H     -2.796669   -1.088964   -0.478771
  H     -1.061566    1.273117   -0.027924
  O      2.096620   -0.847200    0.019004
  H      2.915217   -0.336174    0.054463

 Total Charge           Charge          ....    0
 Multiplicity           Mult            ....    2
 Number of Electrons    NEL             ....   47
 Basis Dimension        Dim             ....  414

ORBITAL ENERGIES
----------------
                 SPIN UP ORBITALS
  NO   OCC          E(Eh)            E(eV)
   0   1.0000     -20.598473      -560.5129
   1   1.0000     -20.536194      -558.8182
   2   1.0000     -15.596948      -424.4145
   3   1.0000     -11.367777      -309.3329
   4   1.0000     -11.276035      -306.8365
   5   1.0000     -11.273734      -306.7739
   6   1.0000      -1.450802       -39.4783
   7   1.0000      -1.350667       -36.7535
   8   1.0000      -1.268553       -34.5191
   9   1.0000      -1.026567       -27.9343
  10   1.0000      -0.919997       -25.0344
  11   1.0000      -0.810266       -22.0484
  12   1.0000      -0.730987       -19.8912
  13   1.0000      -0.698821       -19.0159
  14   1.0000      -0.655477       -17.8364
  15   1.0000      -0.645708       -17.5706
  16   1.0000      -0.625932       -17.0325
  17   1.0000      -0.619256       -16.8508
  18   1.0000      -0.571961       -15.5639
  19   1.0000      -0.559235       -15.2176
  20   1.0000      -0.512834       -13.9549
  21   1.0000      -0.485582       -13.2134
  22   1.0000      -0.455756       -12.4018
  23   1.0000      -0.301109        -8.1936
  24   0.0000       0.025063         0.6820
  25   0.0000       0.036774         1.0007
  26   0.0000       0.040144         1.0924
  27   0.0000       0.043615         1.1868
  28   0.0000       0.055289         1.5045

                 SPIN DOWN ORBITALS
  NO   OCC          E(Eh)            E(eV)
   0   1.0000     -20.597608      -560.4894
   1   1.0000     -20.527386      -558.5786
   2   1.0000     -15.586033      -424.1175
   3   1.0000     -11.370249      -309.4002
   4   1.0000     -11.274730      -306.8010
   5   1.0000     -11.261639      -306.4448
   6   1.0000      -1.444693       -39.3121
   7   1.0000      -1.335595       -36.3434
   8   1.0000      -1.240478       -33.7551
   9   1.0000      -0.996894       -27.1269
  10   1.0000      -0.904358       -24.6088
  11   1.0000      -0.796954       -21.6862
  12   1.0000      -0.725388       -19.7388
  13   1.0000      -0.691144       -18.8070
  14   1.0000      -0.635515       -17.2932
  15   1.0000      -0.619687       -16.8625
  16   1.0000      -0.616618       -16.7790
  17   1.0000      -0.601925       -16.3792
  18   1.0000      -0.566034       -15.4026
  19   1.0000      -0.556655       -15.1474
  20   1.0000      -0.459083       -12.4923
  21   1.0000      -0.445115       -12.1122
  22   1.0000      -0.401363       -10.9216
  23   0.0000       0.025178         0.6851
  24   0.0000       0.036926         1.0048
  25   0.0000       0.040153         1.0926
  26   0.0000       0.042759         1.1635
  27   0.0000       0.055515         1.5106

MULLIKEN ATOMIC CHARGES AND SPIN POPULATIONS
--------------------------------------------
   0 C :   -0.482487    0.721942
   1 C :    0.751491   -0.084574
   2 O :   -0.800345    0.192904
   3 N :   -0.116774    0.235929
   4 H :    0.489370   -0.055097
   5 C :   -0.851233   -0.045920
   6 H :    0.351913    0.003440
   7 H :    0.317446    0.017059
   8 H :    0.345024    0.010288
   9 H :    0.170213   -0.006862
  10 O :   -0.434156    0.018215
  11 H :    0.259538   -0.007325
Sum of atomic charges         :   -0.0000000

LOEWDIN ATOMIC CHARGES AND SPIN POPULATIONS
-------------------------------------------
   0 C :    0.107103    0.369319
   1 C :   -0.861158    0.105657
   2 O :    0.428271    0.147072
   3 N :    0.497040    0.246791
   4 H :   -0.188399    0.073998
   5 C :    0.494894    0.016582
   6 H :   -0.167105   -0.000514
   7 H :   -0.161526    0.007220
   8 H :   -0.170423    0.000974
   9 H :   -0.301389    0.015747
  10 O :    0.810737    0.017910
  11 H :   -0.488044   -0.000756

  Mayer bond orders larger than 0.100000
B(  0-C ,  1-C ) :   0.9871 B(  0-C ,  2-O ) :   0.1054 B(  0-C ,  3-N ) :   1.0106
B(  0-C ,  4-H ) :   0.7737 B(  0-C ,  5-C ) :  -0.1066 B(  1-C ,  2-O ) :   1.3226
B(  1-C ,  3-N ) :  -0.1364 B(  1-C , 10-O ) :   0.9284 B(  3-N ,  5-C ) :   0.9037
B(  3-N ,  9-H ) :   1.0087 B(  5-C ,  6-H ) :   0.9065 B(  5-C ,  7-H ) :   0.9105
B(  5-C ,  8-H ) :   0.8971 B( 10-O , 11-H ) :   0.9454

MP2 TOTAL ENERGY:     -322.559294516 Eh
FINAL SINGLE POINT ENERGY      -322.559294516419

DIPOLE MOMENT
-------------
                                X             Y             Z
Electronic contribution:      6.52163       0.96853      -0.19961
Nuclear contribution   :     -7.48108      -1.48878       0.27093
                        -----------------------------------------
Total Dipole Moment    :     -0.95945      -0.52025       0.07132
                        -----------------------------------------
Magnitude (a.u.)       :      1.09375
Magnitude (Debye)      :      2.78009

Rotational constants in cm-1:     0.339087     0.065715     0.055732
Rotational constants in MHz : 10165.570585  1970.081774  1670.788661

                             ****ORCA TERMINATED NORMALLY****
TOTAL RUN TIME: 0 days 0 hours 1 minutes 50 seconds 128 msec
