                         Program Version 4.2.1 -  RELEASE  -
|  1> %pal
|  2>  nprocs 32
|  3> end
|  4> !RI-MP2 aug-cc-pVTZ aug-cc-pVTZ/C TightSCF
|  5> %maxcore 4500
|  6> *xyzfile -1 1  10_34P.xyz
|  7>
|  8>
|  9>                          ****END OF INPUT****

CARTESIAN COORDINATES (ANGSTROEM)
---------------------------------
  C     -4.825412    0.170655    0.294560
  C     -3.582617    0.899726   -0.206471
  C     -2.283952    0.135140   -0.011116
  C     -2.327744   -1.301770   -0.167807
  C     -3.624421   -2.002892    0.203690
  C     -4.871833   -1.251718   -0.245621
  H     -3.731834    1.128207   -1.276138
  H     -3.484019    1.869839    0.281898
  H     -4.808129    0.130615    1.391344
  H     -5.728295    0.724188    0.009631
  H     -3.616437   -3.018203   -0.203403
  H     -3.663474   -2.096075    1.298000
  H     -4.906187   -1.222998   -1.342023
  H     -5.773950   -1.776798    0.091042
  C      0.789649   -0.947788    0.253612
  C      0.242473    0.477564    0.610008
  C     -1.159917    0.955773    0.169318
  C     -1.318298   -2.079235   -0.610629
  C      0.023970   -1.533968   -0.952161
  H      0.201663    0.542389    1.703428
  H     -0.076854   -0.716908   -1.680202
  H      0.630765   -2.309556   -1.425492
  O     -1.259723    2.218321    0.149877
  C      1.390544    1.452764    0.243260
  C      2.291586   -0.724081   -0.145082
  H      2.307287   -0.586494   -1.233827
  C      2.639201    0.622848    0.468739
  H      2.805623    0.535807    1.547897
  H      3.499628    1.120469    0.021771
  C      0.647069   -1.837155    1.493796
  H     -0.392997   -1.838706    1.819417
  H      0.933437   -2.875137    1.307402
  H      1.259312   -1.455554    2.316720
  C      3.299141   -1.837367    0.184295
  H      3.227727   -2.058199    1.255083
  C      4.733773   -1.378754   -0.093739
  H      5.023837   -0.536546    0.535606
  H      5.442145   -2.192875    0.087189
  H      4.842949   -1.067110   -1.137850
  C      3.040257   -3.133611   -0.585761
  H      2.060206   -3.557388   -0.372910
  H      3.095036   -2.954692   -1.664291
  H      3.793942   -3.886386   -0.334122
  O      1.376247    1.868470   -1.114078
  O      1.471600    2.633634    1.011669
  C      1.023109    3.741268    0.247252
  H      0.038997    4.054256    0.590543
  H      1.758479    4.543748    0.368326
  C      0.949164    3.219938   -1.193584
  H     -0.073987    3.265999   -1.563807
  H      1.633420    3.743501   -1.869467
  H     -1.457734   -3.156802   -0.640862

 Total Charge           Charge          ....   -1
 Multiplicity           Mult            ....    1
 Number of Electrons    NEL             ....  174
 Basis Dimension        Dim             .... 1725

ORBITAL ENERGIES
----------------

  NO   OCC          E(Eh)            E(eV)
   0   2.0000     -20.428809      -555.8962
   1   2.0000     -20.428455      -555.8865
   2   2.0000     -20.312065      -552.7194
   3   2.0000     -11.200667      -304.7856
   4   2.0000     -11.145534      -303.2854
   5   2.0000     -11.144247      -303.2504
   6   2.0000     -11.129716      -302.8550
   7   2.0000     -11.126288      -302.7617
   8   2.0000     -11.120932      -302.6160
   9   2.0000     -11.117283      -302.5167
  10   2.0000     -11.107079      -302.2390
  11   2.0000     -11.104862      -302.1787
  12   2.0000     -11.096014      -301.9379
  13   2.0000     -11.094348      -301.8926
  14   2.0000     -11.092195      -301.8340
  15   2.0000     -11.090444      -301.7863
  16   2.0000     -11.086360      -301.6752
  17   2.0000     -11.086015      -301.6658
  18   2.0000     -11.085521      -301.6524
  19   2.0000     -11.080095      -301.5047
  20   2.0000     -11.061024      -300.9858
  21   2.0000     -11.051462      -300.7256
  22   2.0000     -11.024441      -299.9903
  23   2.0000      -1.304563       -35.4990
  24   2.0000      -1.198568       -32.6147
  25   2.0000      -1.153370       -31.3848
  26   2.0000      -1.030075       -28.0298
  27   2.0000      -0.986575       -26.8461
  28   2.0000      -0.965338       -26.2682
  29   2.0000      -0.933817       -25.4104
  30   2.0000      -0.894788       -24.3484
  31   2.0000      -0.867569       -23.6078
  32   2.0000      -0.858911       -23.3721
  33   2.0000      -0.836342       -22.7580
  34   2.0000      -0.833103       -22.6699
  35   2.0000      -0.816092       -22.2070
  36   2.0000      -0.774497       -21.0751
  37   2.0000      -0.733042       -19.9471
  38   2.0000      -0.722742       -19.6668
  39   2.0000      -0.717417       -19.5219
  40   2.0000      -0.679752       -18.4970
  41   2.0000      -0.654149       -17.8003
  42   2.0000      -0.639984       -17.4149
  43   2.0000      -0.624636       -16.9972
  44   2.0000      -0.594476       -16.1765
  45   2.0000      -0.560982       -15.2651
  46   2.0000      -0.558189       -15.1891
  47   2.0000      -0.535548       -14.5730
  48   2.0000      -0.530721       -14.4416
  49   2.0000      -0.519207       -14.1283
  50   2.0000      -0.504635       -13.7318
  51   2.0000      -0.499716       -13.5980
  52   2.0000      -0.487060       -13.2536
  53   2.0000      -0.479941       -13.0598
  54   2.0000      -0.471339       -12.8258
  55   2.0000      -0.462603       -12.5881
  56   2.0000      -0.456638       -12.4258
  57   2.0000      -0.453956       -12.3528
  58   2.0000      -0.452095       -12.3021
  59   2.0000      -0.443358       -12.0644
  60   2.0000      -0.440251       -11.9798
  61   2.0000      -0.430357       -11.7106
  62   2.0000      -0.420306       -11.4371
  63   2.0000      -0.416703       -11.3391
  64   2.0000      -0.410589       -11.1727
  65   2.0000      -0.399864       -10.8808
  66   2.0000      -0.399394       -10.8681
  67   2.0000      -0.386982       -10.5303
  68   2.0000      -0.382414       -10.4060
  69   2.0000      -0.380942       -10.3660
  70   2.0000      -0.378474       -10.2988
  71   2.0000      -0.366360        -9.9692
  72   2.0000      -0.360930        -9.8214
  73   2.0000      -0.352074        -9.5804
  74   2.0000      -0.349255        -9.5037
  75   2.0000      -0.339323        -9.2334
  76   2.0000      -0.330972        -9.0062
  77   2.0000      -0.326041        -8.8720
  78   2.0000      -0.320338        -8.7168
  79   2.0000      -0.309975        -8.4348
  80   2.0000      -0.303614        -8.2618
  81   2.0000      -0.293778        -7.9941
  82   2.0000      -0.286695        -7.8014
  83   2.0000      -0.259911        -7.0725
  84   2.0000      -0.225621        -6.1395
  85   2.0000      -0.206339        -5.6148
  86   2.0000      -0.089960        -2.4479
  87   0.0000       0.087482         2.3805
  88   0.0000       0.096756         2.6329
  89   0.0000       0.098180         2.6716
  90   0.0000       0.101784         2.7697
  91   0.0000       0.104103         2.8328

MULLIKEN ATOMIC CHARGES
-----------------------
   0 C :   -0.626238
   1 C :   -0.996087
   2 C :    1.419357
   3 C :    1.310445
   4 C :   -0.953174
   5 C :   -0.545581
   6 H :    0.148416
   7 H :    0.181782
   8 H :    0.167972
   9 H :    0.277016
  10 H :    0.268814
  11 H :    0.187865
  12 H :    0.168665
  13 H :    0.291886
  14 C :    2.161538
  15 C :   -0.301888
  16 C :    0.527788
  17 C :   -1.208450
  18 C :   -0.435349
  19 H :   -0.192945
  20 H :   -0.097007
  21 H :    0.530682
  22 O :   -1.540781
  23 C :    2.571879
  24 C :    1.106374
  25 H :    0.601529
  26 C :   -1.983761
  27 H :    0.019632
  28 H :    0.425628
  29 C :   -1.664044
  30 H :    0.243840
  31 H :    0.234396
  32 H :    0.083827
  33 C :    0.388166
  34 H :    0.114595
  35 C :   -1.372144
  36 H :    0.252296
  37 H :    0.189159
  38 H :    0.224792
  39 C :   -1.301788
  40 H :    0.335137
  41 H :    0.093579
  42 H :    0.306154
  43 O :   -0.983145
  44 O :   -1.281813
  45 C :   -0.686567
  46 H :    0.362958
  47 H :    0.315801
  48 C :   -0.602243
  49 H :    0.406380
  50 H :    0.296755
  51 H :   -0.442097
Sum of atomic charges:   -1.0000000

LOEWDIN ATOMIC CHARGES
----------------------
   0 C :    0.259418
   1 C :    0.221434
   2 C :   -0.069346
   3 C :   -0.118215
   4 C :    0.260397
   5 C :    0.265656
   6 H :   -0.144047
   7 H :   -0.206603
   8 H :   -0.146235
   9 H :   -0.150029
  10 H :   -0.166882
  11 H :   -0.140935
  12 H :   -0.142218
  13 H :   -0.149075
  14 C :   -0.216845
  15 C :    0.068813
  16 C :   -0.509969
  17 C :    0.212990
  18 C :    0.264791
  19 H :   -0.150555
  20 H :   -0.137918
  21 H :   -0.176578
  22 O :    0.455502
  23 C :   -0.778897
  24 C :    0.035461
  25 H :   -0.132743
  26 C :    0.292672
  27 H :   -0.121545
  28 H :   -0.137464
  29 C :    0.586863
  30 H :   -0.164453
  31 H :   -0.168455
  32 H :   -0.153917
  33 C :   -0.021017
  34 H :   -0.145597
  35 C :    0.582615
  36 H :   -0.176856
  37 H :   -0.168824
  38 H :   -0.152124
  39 C :    0.589377
  40 H :   -0.193488
  41 H :   -0.150604
  42 H :   -0.162793
  43 O :    0.614945
  44 O :    0.610475
  45 C :    0.038645
  46 H :   -0.211460
  47 H :   -0.170840
  48 C :    0.043414
  49 H :   -0.200737
  50 H :   -0.169037
  51 H :   -0.197165

  Mayer bond orders larger than 0.100000
B(  0-C ,  1-C ) :   0.9876 B(  0-C ,  2-C ) :  -0.2057 B(  0-C ,  5-C ) :   0.8955
B(  0-C ,  8-H ) :   1.0975 B(  0-C ,  9-H ) :   0.9492 B(  1-C ,  3-C ) :   0.1935
B(  1-C ,  5-C ) :   0.1023 B(  1-C ,  6-H ) :   1.1423 B(  1-C ,  7-H ) :   1.0876
B(  1-C , 16-C ) :   0.3150 B(  1-C , 21-H ) :  -0.1033 B(  1-C , 51-H ) :   0.1885
B(  2-C ,  3-C ) :   0.9737 B(  2-C ,  4-C ) :   0.4815 B(  2-C ,  5-C ) :  -0.1376
B(  2-C ,  6-H ) :  -0.1778 B(  2-C ,  7-H ) :  -0.1365 B(  2-C , 15-C ) :  -0.1385
B(  2-C , 16-C ) :   1.6377 B(  2-C , 17-C ) :  -0.3926 B(  2-C , 18-C ) :   0.1827
B(  2-C , 22-O ) :  -0.3343 B(  2-C , 24-C ) :   0.1033 B(  2-C , 51-H ) :  -0.2593
B(  3-C ,  4-C ) :   0.6064 B(  3-C ,  5-C ) :  -0.1304 B(  3-C , 11-H ) :  -0.1283
B(  3-C , 16-C ) :  -0.2161 B(  3-C , 17-C ) :   1.0814 B(  3-C , 18-C ) :   0.3104
B(  3-C , 20-H ) :   0.1113 B(  3-C , 21-H ) :  -0.1750 B(  3-C , 24-C ) :   0.1493
B(  4-C ,  5-C ) :   0.9535 B(  4-C , 10-H ) :   0.9688 B(  4-C , 11-H ) :   1.1172
B(  4-C , 18-C ) :  -0.1369 B(  5-C , 12-H ) :   1.0863 B(  5-C , 13-H ) :   0.9185
B(  6-H , 16-C ) :   0.1289 B(  7-H , 16-C ) :   0.1287 B( 14-C , 15-C ) :   0.6649
B( 14-C , 16-C ) :   0.4369 B( 14-C , 17-C ) :   0.6413 B( 14-C , 18-C ) :   0.4438
B( 14-C , 19-H ) :  -0.2721 B( 14-C , 20-H ) :  -0.1414 B( 14-C , 21-H ) :  -0.1574
B( 14-C , 23-C ) :   0.1452 B( 14-C , 24-C ) :   0.6837 B( 14-C , 26-C ) :   0.2752
B( 14-C , 29-C ) :  -0.9460 B( 14-C , 30-H ) :  -0.3722 B( 14-C , 31-H ) :  -0.2878
B( 14-C , 32-H ) :  -0.4914 B( 14-C , 33-C ) :   0.1172 B( 14-C , 34-H ) :  -0.1817
B( 14-C , 51-H ) :   0.1306 B( 15-C , 16-C ) :   1.5189 B( 15-C , 17-C ) :  -0.2317
B( 15-C , 18-C ) :  -0.2654 B( 15-C , 19-H ) :   0.9930 B( 15-C , 22-O ) :   0.4442
B( 15-C , 23-C ) :   1.2791 B( 15-C , 26-C ) :   0.1836 B( 15-C , 29-C ) :  -0.2558
B( 15-C , 43-O ) :   0.1340 B( 15-C , 44-O ) :   0.5522 B( 15-C , 45-C ) :   0.2270
B( 15-C , 48-C ) :   0.1480 B( 16-C , 17-C ) :   0.3594 B( 16-C , 19-H ) :   0.2345
B( 16-C , 21-H ) :   0.1318 B( 16-C , 22-O ) :   0.1903 B( 16-C , 23-C ) :   0.1779
B( 16-C , 24-C ) :  -0.1576 B( 16-C , 25-H ) :  -0.1974 B( 16-C , 26-C ) :   0.1352
B( 16-C , 48-C ) :  -0.1393 B( 16-C , 51-H ) :  -0.1797 B( 17-C , 18-C ) :   0.1607
B( 17-C , 20-H ) :   0.1109 B( 17-C , 21-H ) :  -0.5228 B( 17-C , 29-C ) :  -0.1191
B( 17-C , 51-H ) :   2.2023 B( 18-C , 20-H ) :   1.4941 B( 18-C , 21-H ) :   1.0370
B( 18-C , 23-C ) :  -0.1449 B( 18-C , 51-H ) :  -0.4328 B( 19-H , 22-O ) :  -0.1665
B( 19-H , 23-C ) :   0.2759 B( 21-H , 51-H ) :  -0.2141 B( 22-O , 23-C ) :   0.1219
B( 23-C , 24-C ) :  -0.2784 B( 23-C , 26-C ) :   0.8353 B( 23-C , 29-C ) :   0.1473
B( 23-C , 43-O ) :  -0.3205 B( 23-C , 44-O ) :  -1.1839 B( 23-C , 45-C ) :  -0.4586
B( 23-C , 48-C ) :  -0.2657 B( 24-C , 25-H ) :   0.7724 B( 24-C , 26-C ) :   0.1553
B( 24-C , 27-H ) :  -0.1311 B( 24-C , 29-C ) :   0.1984 B( 24-C , 33-C ) :   0.8733
B( 24-C , 35-C ) :  -0.1407 B( 24-C , 39-C ) :  -0.1784 B( 24-C , 43-O ) :  -0.1055
B( 25-H , 26-C ) :  -0.3997 B( 25-H , 43-O ) :  -0.1132 B( 26-C , 27-H ) :   1.4041
B( 26-C , 28-H ) :   0.6881 B( 26-C , 29-C ) :  -0.1110 B( 26-C , 43-O ) :   0.4339
B( 26-C , 44-O ) :   0.1292 B( 27-H , 44-O ) :   0.1215 B( 29-C , 30-H ) :   1.2444
B( 29-C , 31-H ) :   1.2471 B( 29-C , 32-H ) :   1.4884 B( 31-H , 32-H ) :   0.1556
B( 33-C , 34-H ) :   1.0547 B( 33-C , 35-C ) :   0.2576 B( 33-C , 37-H ) :  -0.1195
B( 33-C , 38-H ) :  -0.1077 B( 33-C , 39-C ) :   0.5543 B( 33-C , 41-H ) :  -0.1181
B( 35-C , 36-H ) :   1.0669 B( 35-C , 37-H ) :   1.1684 B( 35-C , 38-H ) :   1.1402
B( 35-C , 39-C ) :   0.1409 B( 39-C , 40-H ) :   1.0049 B( 39-C , 41-H ) :   1.2749
B( 39-C , 42-H ) :   0.9594 B( 43-O , 45-C ) :   0.1002 B( 43-O , 48-C ) :   1.0545
B( 44-O , 45-C ) :   1.2860 B( 44-O , 48-C ) :   0.1141 B( 45-C , 46-H ) :   0.9152
B( 45-C , 47-H ) :   0.8736 B( 45-C , 48-C ) :   1.0820 B( 48-C , 49-H ) :   0.8710
B( 48-C , 50-H ) :   0.9209

MP2 TOTAL ENERGY:    -1003.317584764 Eh
FINAL SINGLE POINT ENERGY     -1003.317584763592

DIPOLE MOMENT
-------------
                                X             Y             Z
Electronic contribution:     -3.06994      14.90817       0.16486
Nuclear contribution   :      4.97989     -15.90658      -0.12113
                        -----------------------------------------
Total Dipole Moment    :      1.90995      -0.99841       0.04373
                        -----------------------------------------
Magnitude (a.u.)       :      2.15561
Magnitude (Debye)      :      5.47912

Rotational constants in cm-1:     0.012781     0.007243     0.005056
Rotational constants in MHz :   383.172383   217.128493   151.571664

                             ****ORCA TERMINATED NORMALLY****
TOTAL RUN TIME: 0 days 2 hours 7 minutes 3 seconds 412 msec
