                         Program Version 4.2.1 -  RELEASE  -
|  1> %pal
|  2>  nprocs 32
|  3> end
|  4> !RI-MP2 aug-cc-pVTZ aug-cc-pVTZ/C TightSCF
|  5> %maxcore 4500
|  6> *xyzfile 0 2  01_11R.xyz
|  7>
|  8>
|  9>                          ****END OF INPUT****

CARTESIAN COORDINATES (ANGSTROEM)
---------------------------------
  C     -1.082645    1.244551   -0.023552
  C     -1.802652   -0.062509   -0.201516
  C     -0.832814   -1.230121   -0.372376
  C      0.300720   -1.137954    0.644601
  C      1.121039    0.150129    0.438334
  C      0.213210    1.340168    0.248887
  C      2.108651    0.026168   -0.674553
  H     -2.473205    0.004412   -1.063517
  H     -2.451762   -0.235222    0.666416
  H     -0.408308   -1.204952   -1.381049
  H     -1.363306   -2.180088   -0.272881
  H      0.957943   -2.008290    0.575455
  H     -0.119796   -1.132659    1.655709
  H      1.691029    0.317209    1.367004
  H      2.236514    0.810590   -1.408739
  H      2.777125   -0.826276   -0.710963
  H      0.671428    2.320810    0.340044
  H     -1.670708    2.151871   -0.126426

 Total Charge           Charge          ....    0
 Multiplicity           Mult            ....    2
 Number of Electrons    NEL             ....   53
 Basis Dimension        Dim             ....  575

ORBITAL ENERGIES
----------------
                 SPIN UP ORBITALS
  NO   OCC          E(Eh)            E(eV)
   0   1.0000     -11.229320      -305.5653
   1   1.0000     -11.226693      -305.4938
   2   1.0000     -11.220507      -305.3255
   3   1.0000     -11.219773      -305.3056
   4   1.0000     -11.218000      -305.2573
   5   1.0000     -11.217154      -305.2343
   6   1.0000     -11.214569      -305.1639
   7   1.0000      -1.130015       -30.7493
   8   1.0000      -1.035131       -28.1673
   9   1.0000      -1.006951       -27.4005
  10   1.0000      -0.922152       -25.0930
  11   1.0000      -0.825458       -22.4619
  12   1.0000      -0.808188       -21.9919
  13   1.0000      -0.690599       -18.7922
  14   1.0000      -0.669178       -18.2092
  15   1.0000      -0.619833       -16.8665
  16   1.0000      -0.604514       -16.4497
  17   1.0000      -0.580109       -15.7856
  18   1.0000      -0.555973       -15.1288
  19   1.0000      -0.539327       -14.6758
  20   1.0000      -0.528051       -14.3690
  21   1.0000      -0.515023       -14.0145
  22   1.0000      -0.465828       -12.6758
  23   1.0000      -0.459986       -12.5169
  24   1.0000      -0.434529       -11.8241
  25   1.0000      -0.348754        -9.4901
  26   1.0000      -0.345394        -9.3987
  27   0.0000       0.029904         0.8137
  28   0.0000       0.035383         0.9628
  29   0.0000       0.036028         0.9804
  30   0.0000       0.038261         1.0411
  31   0.0000       0.049424         1.3449

                 SPIN DOWN ORBITALS
  NO   OCC          E(Eh)            E(eV)
   0   1.0000     -11.232620      -305.6551
   1   1.0000     -11.221169      -305.3435
   2   1.0000     -11.220025      -305.3124
   3   1.0000     -11.216620      -305.2198
   4   1.0000     -11.215709      -305.1950
   5   1.0000     -11.214528      -305.1628
   6   1.0000     -11.203163      -304.8536
   7   1.0000      -1.124965       -30.6119
   8   1.0000      -1.019967       -27.7547
   9   1.0000      -1.005852       -27.3706
  10   1.0000      -0.882101       -24.0032
  11   1.0000      -0.819506       -22.2999
  12   1.0000      -0.785844       -21.3839
  13   1.0000      -0.687088       -18.6966
  14   1.0000      -0.664756       -18.0889
  15   1.0000      -0.613242       -16.6872
  16   1.0000      -0.596362       -16.2278
  17   1.0000      -0.574784       -15.6407
  18   1.0000      -0.553266       -15.0551
  19   1.0000      -0.534001       -14.5309
  20   1.0000      -0.520328       -14.1588
  21   1.0000      -0.510468       -13.8905
  22   1.0000      -0.461403       -12.5554
  23   1.0000      -0.450931       -12.2705
  24   1.0000      -0.433227       -11.7887
  25   1.0000      -0.345029        -9.3887
  26   0.0000       0.030113         0.8194
  27   0.0000       0.035485         0.9656
  28   0.0000       0.035892         0.9767
  29   0.0000       0.038566         1.0494
  30   0.0000       0.049483         1.3465

MULLIKEN ATOMIC CHARGES AND SPIN POPULATIONS
--------------------------------------------
   0 C :   -0.609890   -0.119734
   1 C :   -0.150280    0.028222
   2 C :   -0.522900   -0.011878
   3 C :   -0.561765    0.044842
   4 C :    0.493313   -0.269511
   5 C :   -0.748137    0.129594
   6 C :   -1.109779    1.261711
   7 H :    0.281092   -0.003256
   8 H :    0.224860   -0.004739
   9 H :    0.210922   -0.004279
  10 H :    0.289654    0.000605
  11 H :    0.253639   -0.002523
  12 H :    0.212605   -0.001256
  13 H :    0.341831    0.106290
  14 H :    0.503467   -0.049301
  15 H :    0.249480   -0.098222
  16 H :    0.256370   -0.013306
  17 H :    0.385518    0.006742
Sum of atomic charges         :   -0.0000000

LOEWDIN ATOMIC CHARGES AND SPIN POPULATIONS
-------------------------------------------
   0 C :    0.236827   -0.031177
   1 C :    0.264224   -0.007576
   2 C :    0.280741    0.007640
   3 C :    0.280303    0.021431
   4 C :   -0.097364    0.127546
   5 C :    0.219400    0.036823
   6 C :    0.604138    0.564147
   7 H :   -0.150587   -0.001153
   8 H :   -0.145668   -0.001918
   9 H :   -0.140897    0.006975
  10 H :   -0.139883    0.000831
  11 H :   -0.144249    0.001828
  12 H :   -0.135959    0.002664
  13 H :   -0.143090    0.029796
  14 H :   -0.216785    0.123803
  15 H :   -0.213595    0.118166
  16 H :   -0.176447    0.008371
  17 H :   -0.181108   -0.008197

  Mayer bond orders larger than 0.100000
B(  0-C ,  1-C ) :   0.6129 B(  0-C ,  2-C ) :   0.1320 B(  0-C ,  5-C ) :   1.6534
B(  0-C , 17-H ) :   0.8218 B(  1-C ,  2-C ) :   0.8831 B(  1-C ,  7-H ) :   0.9720
B(  1-C ,  8-H ) :   0.9843 B(  2-C ,  3-C ) :   0.9216 B(  2-C ,  9-H ) :   1.0152
B(  2-C , 10-H ) :   0.9375 B(  3-C ,  4-C ) :   0.8834 B(  3-C , 11-H ) :   0.9913
B(  3-C , 12-H ) :   0.9928 B(  4-C ,  5-C ) :   0.7688 B(  4-C ,  6-C ) :   0.7627
B(  4-C , 13-H ) :   0.9114 B(  5-C , 13-H ) :  -0.1183 B(  5-C , 16-H ) :   1.0713
B(  6-C , 14-H ) :   0.7215 B(  6-C , 15-H ) :   1.0146

MP2 TOTAL ENERGY:     -272.677283327 Eh
FINAL SINGLE POINT ENERGY      -272.677283326998

DIPOLE MOMENT
-------------
                                X             Y             Z
Electronic contribution:      0.11005       1.95925       0.42607
Nuclear contribution   :     -0.16008      -2.07370      -0.37544
                        -----------------------------------------
Total Dipole Moment    :     -0.05003      -0.11445       0.05063
                        -----------------------------------------
Magnitude (a.u.)       :      0.13478
Magnitude (Debye)      :      0.34258

Rotational constants in cm-1:     0.135641     0.087519     0.064060
Rotational constants in MHz :  4066.410891  2623.763573  1920.458911

                             ****ORCA TERMINATED NORMALLY****
TOTAL RUN TIME: 0 days 0 hours 10 minutes 37 seconds 578 msec
