                         Program Version 4.2.1 -  RELEASE  -
|  1> %pal
|  2>  nprocs 32
|  3> end
|  4> !RI-MP2 aug-cc-pVTZ aug-cc-pVTZ/C TightSCF
|  5> %maxcore 4500
|  6> *xyzfile 0 1  05_26R1.xyz
|  7>
|  8>
|  9>                          ****END OF INPUT****

CARTESIAN COORDINATES (ANGSTROEM)
---------------------------------
  C      2.834098   -0.218360   -0.878271
  O      3.754745   -0.394753    0.182001
  C      3.641482    0.580115    1.194046
  H      2.660763    0.552353    1.681089
  H      3.803234    1.588288    0.789792
  C      1.419596   -0.501339   -0.476168
  H      1.249317   -1.480211   -0.036299
  C      0.419755    0.361986   -0.628356
  H      0.649583    1.343160   -1.039191
  H      4.413637    0.364959    1.931045
  C     -0.993387    0.150025   -0.281975
  C     -1.519333   -1.110130    0.014215
  C     -1.852535    1.248908   -0.244337
  C     -2.852898   -1.258800    0.355047
  H     -0.882847   -1.984831   -0.034060
  C     -3.189216    1.102385    0.096555
  H     -1.462610    2.232752   -0.481113
  C     -3.694279   -0.153041    0.400321
  H     -3.242351   -2.244585    0.579714
  H     -3.836849    1.970473    0.122996
  H     -4.737969   -0.272878    0.664129
  H      2.914415    0.798292   -1.288688
  H      3.154024   -0.920245   -1.651882

 Total Charge           Charge          ....    0
 Multiplicity           Mult            ....    1
 Number of Electrons    NEL             ....   80
 Basis Dimension        Dim             ....  782

ORBITAL ENERGIES
----------------

  NO   OCC          E(Eh)            E(eV)
   0   2.0000     -20.555794      -559.3516
   1   2.0000     -11.279592      -306.9333
   2   2.0000     -11.265782      -306.5575
   3   2.0000     -11.246656      -306.0371
   4   2.0000     -11.240107      -305.8589
   5   2.0000     -11.237553      -305.7894
   6   2.0000     -11.237252      -305.7812
   7   2.0000     -11.236027      -305.7478
   8   2.0000     -11.235449      -305.7321
   9   2.0000     -11.235036      -305.7209
  10   2.0000     -11.232468      -305.6510
  11   2.0000      -1.374414       -37.3997
  12   2.0000      -1.164584       -31.6899
  13   2.0000      -1.087624       -29.5957
  14   2.0000      -1.022115       -27.8132
  15   2.0000      -1.018479       -27.7142
  16   2.0000      -0.955367       -25.9969
  17   2.0000      -0.883756       -24.0482
  18   2.0000      -0.837969       -22.8023
  19   2.0000      -0.818587       -22.2749
  20   2.0000      -0.763493       -20.7757
  21   2.0000      -0.708912       -19.2905
  22   2.0000      -0.662217       -18.0198
  23   2.0000      -0.659895       -17.9567
  24   2.0000      -0.653986       -17.7959
  25   2.0000      -0.631909       -17.1951
  26   2.0000      -0.622171       -16.9301
  27   2.0000      -0.594653       -16.1813
  28   2.0000      -0.589356       -16.0372
  29   2.0000      -0.569628       -15.5004
  30   2.0000      -0.533352       -14.5133
  31   2.0000      -0.520765       -14.1707
  32   2.0000      -0.515895       -14.0382
  33   2.0000      -0.503726       -13.7071
  34   2.0000      -0.490273       -13.3410
  35   2.0000      -0.472591       -12.8598
  36   2.0000      -0.425109       -11.5678
  37   2.0000      -0.410083       -11.1589
  38   2.0000      -0.342109        -9.3093
  39   2.0000      -0.307956        -8.3799
  40   0.0000       0.027106         0.7376
  41   0.0000       0.030403         0.8273
  42   0.0000       0.033195         0.9033
  43   0.0000       0.040230         1.0947
  44   0.0000       0.043496         1.1836

MULLIKEN ATOMIC CHARGES
-----------------------
   0 C :   -0.106070
   1 O :   -0.658001
   2 C :   -0.854626
   3 H :    0.388341
   4 H :    0.311303
   5 C :   -0.303209
   6 H :    0.129876
   7 C :   -0.229160
   8 H :   -0.007004
   9 H :    0.362415
  10 C :    2.140818
  11 C :   -0.646864
  12 C :   -1.035384
  13 C :   -0.861926
  14 H :   -0.055604
  15 C :   -0.647583
  16 H :   -0.020603
  17 C :   -0.110319
  18 H :    0.523787
  19 H :    0.591563
  20 H :    0.378941
  21 H :    0.287413
  22 H :    0.421897
Sum of atomic charges:    0.0000000

LOEWDIN ATOMIC CHARGES
----------------------
   0 C :   -0.005457
   1 O :    0.542956
   2 C :    0.309916
   3 H :   -0.183321
   4 H :   -0.175773
   5 C :    0.215224
   6 H :   -0.180716
   7 C :    0.214615
   8 H :   -0.185197
   9 H :   -0.186504
  10 C :   -0.131890
  11 C :    0.213743
  12 C :    0.206502
  13 C :    0.200068
  14 H :   -0.189033
  15 C :    0.197174
  16 H :   -0.179068
  17 C :    0.193940
  18 H :   -0.181367
  19 H :   -0.182206
  20 H :   -0.184209
  21 H :   -0.167155
  22 H :   -0.162242

  Mayer bond orders larger than 0.100000
B(  0-C ,  1-O ) :   0.8741 B(  0-C ,  5-C ) :   0.7201 B(  0-C , 21-H ) :   1.0121
B(  0-C , 22-H ) :   0.8579 B(  1-O ,  2-C ) :   0.9627 B(  2-C ,  3-H ) :   0.8305
B(  2-C ,  4-H ) :   0.8960 B(  2-C ,  9-H ) :   0.9317 B(  5-C ,  6-H ) :   1.4875
B(  5-C ,  7-C ) :   0.9543 B(  5-C , 12-C ) :   0.1209 B(  5-C , 14-H ) :  -0.1291
B(  6-H ,  7-C ) :  -0.1373 B(  6-H , 10-C ) :  -0.1508 B(  7-C ,  8-H ) :   1.4519
B(  7-C , 10-C ) :   0.1224 B(  7-C , 11-C ) :   0.2377 B(  7-C , 16-H ) :  -0.2256
B(  7-C , 17-C ) :   0.1307 B(  8-H , 10-C ) :  -0.1586 B( 10-C , 11-C ) :   0.4680
B( 10-C , 12-C ) :   0.1940 B( 10-C , 14-H ) :  -0.3975 B( 10-C , 16-H ) :  -0.3413
B( 11-C , 12-C ) :  -0.3619 B( 11-C , 13-C ) :   1.1916 B( 11-C , 14-H ) :   1.7673
B( 11-C , 16-H ) :   0.1569 B( 11-C , 17-C ) :  -0.2194 B( 12-C , 13-C ) :   0.1595
B( 12-C , 14-H ) :   0.2042 B( 12-C , 15-C ) :   1.1653 B( 12-C , 16-H ) :   1.9033
B( 12-C , 17-C ) :  -0.2331 B( 12-C , 19-H ) :  -0.2367 B( 12-C , 20-H ) :   0.2650
B( 13-C , 14-H ) :  -0.1087 B( 13-C , 15-C ) :   0.2569 B( 13-C , 17-C ) :   1.0871
B( 13-C , 18-H ) :   0.6361 B( 13-C , 20-H ) :  -0.1967 B( 14-H , 16-H ) :   0.1352
B( 15-C , 16-H ) :  -0.1350 B( 15-C , 17-C ) :   1.0805 B( 15-C , 19-H ) :   0.5561
B( 15-C , 20-H ) :  -0.1817 B( 17-C , 20-H ) :   0.9227

MP2 TOTAL ENERGY:     -462.536889444 Eh
FINAL SINGLE POINT ENERGY      -462.536889443846

DIPOLE MOMENT
-------------
                                X             Y             Z
Electronic contribution:     -5.24368      -1.59138      -1.24199
Nuclear contribution   :      4.80683       1.96804       1.25748
                        -----------------------------------------
Total Dipole Moment    :     -0.43685       0.37666       0.01550
                        -----------------------------------------
Magnitude (a.u.)       :      0.57702
Magnitude (Debye)      :      1.46667

Rotational constants in cm-1:     0.105827     0.014807     0.014154
Rotational constants in MHz :  3172.615444   443.900748   424.321648

                             ****ORCA TERMINATED NORMALLY****
TOTAL RUN TIME: 0 days 0 hours 7 minutes 48 seconds 121 msec
