                         Program Version 4.2.1 -  RELEASE  -
|  1> %pal
|  2>  nprocs 32
|  3> end
|  4> !RI-MP2 aug-cc-pVTZ aug-cc-pVTZ/C TightSCF
|  5> %maxcore 4500
|  6> *xyzfile -1 1  09_10R.xyz
|  7>
|  8>
|  9>                          ****END OF INPUT****

CARTESIAN COORDINATES (ANGSTROEM)
---------------------------------
  C     -1.005514   -0.539514   -0.659583
  C      0.175882   -1.349984   -0.171530
  C      1.517091   -0.763184   -0.606831
  H      0.088683   -2.343597   -0.623593
  H      0.141221   -1.473806    0.909778
  C      1.866406    0.518873    0.149663
  C      0.738809    1.553856    0.030823
  C     -0.331754    1.420115    0.919272
  O     -1.132123   -0.203882   -1.818387
  C     -2.176503   -0.432449    0.303854
  O     -2.299114   -1.078631    1.321817
  O     -3.170021    0.351254   -0.154247
  O      0.826243    2.351697   -0.920819
  O      2.181684    0.142527    1.501053
  H      2.761300    0.955044   -0.298099
  O      2.558122   -1.720287   -0.416040
  H      1.481733   -0.536989   -1.672353
  H     -3.858632    0.311439    0.521230
  H      2.766258   -1.685303    0.525379
  H      1.617041    0.669408    2.074685
  H     -1.124735    2.156002    0.885657
  H     -0.297699    0.760104    1.776289

 Total Charge           Charge          ....   -1
 Multiplicity           Mult            ....    1
 Number of Electrons    NEL             ....  100
 Basis Dimension        Dim             ....  805

ORBITAL ENERGIES
----------------

  NO   OCC          E(Eh)            E(eV)
   0   2.0000     -20.495371      -557.7074
   1   2.0000     -20.436530      -556.1063
   2   2.0000     -20.434871      -556.0611
   3   2.0000     -20.434142      -556.0413
   4   2.0000     -20.416012      -555.5479
   5   2.0000     -20.331233      -553.2410
   6   2.0000     -11.272016      -306.7272
   7   2.0000     -11.216029      -305.2037
   8   2.0000     -11.155555      -303.5581
   9   2.0000     -11.141506      -303.1758
  10   2.0000     -11.139639      -303.1250
  11   2.0000     -11.106557      -302.2248
  12   2.0000     -11.033983      -300.2499
  13   2.0000      -1.353200       -36.8224
  14   2.0000      -1.260080       -34.2885
  15   2.0000      -1.254687       -34.1418
  16   2.0000      -1.244552       -33.8660
  17   2.0000      -1.225054       -33.3354
  18   2.0000      -1.168516       -31.7969
  19   2.0000      -0.938164       -25.5287
  20   2.0000      -0.853579       -23.2271
  21   2.0000      -0.827981       -22.5305
  22   2.0000      -0.782746       -21.2996
  23   2.0000      -0.702588       -19.1184
  24   2.0000      -0.638364       -17.3708
  25   2.0000      -0.613735       -16.7006
  26   2.0000      -0.591514       -16.0959
  27   2.0000      -0.566336       -15.4108
  28   2.0000      -0.564753       -15.3677
  29   2.0000      -0.537866       -14.6361
  30   2.0000      -0.516323       -14.0499
  31   2.0000      -0.511432       -13.9168
  32   2.0000      -0.490227       -13.3397
  33   2.0000      -0.489455       -13.3187
  34   2.0000      -0.464788       -12.6475
  35   2.0000      -0.447494       -12.1769
  36   2.0000      -0.439520       -11.9599
  37   2.0000      -0.432894       -11.7796
  38   2.0000      -0.417529       -11.3615
  39   2.0000      -0.392704       -10.6860
  40   2.0000      -0.382328       -10.4037
  41   2.0000      -0.375016       -10.2047
  42   2.0000      -0.368336       -10.0229
  43   2.0000      -0.353096        -9.6082
  44   2.0000      -0.348437        -9.4815
  45   2.0000      -0.340034        -9.2528
  46   2.0000      -0.294913        -8.0250
  47   2.0000      -0.282767        -7.6945
  48   2.0000      -0.228113        -6.2073
  49   2.0000      -0.137423        -3.7395
  50   0.0000       0.108643         2.9563
  51   0.0000       0.115784         3.1507
  52   0.0000       0.121436         3.3044
  53   0.0000       0.127475         3.4688
  54   0.0000       0.134767         3.6672

MULLIKEN ATOMIC CHARGES
-----------------------
   0 C :    1.557698
   1 C :   -0.529369
   2 C :    0.481532
   3 H :    0.394873
   4 H :    0.142446
   5 C :    0.458125
   6 C :    0.966030
   7 C :   -1.209967
   8 O :   -1.290816
   9 C :    0.859300
  10 O :   -1.027323
  11 O :   -0.536539
  12 O :   -1.351487
  13 O :   -0.801707
  14 H :    0.321773
  15 O :   -0.922713
  16 H :    0.360633
  17 H :    0.223138
  18 H :    0.185054
  19 H :    0.188046
  20 H :    0.316386
  21 H :    0.214888
Sum of atomic charges:   -1.0000000

LOEWDIN ATOMIC CHARGES
----------------------
   0 C :   -0.590958
   1 C :    0.252848
   2 C :   -0.263934
   3 H :   -0.146116
   4 H :   -0.185608
   5 C :   -0.252889
   6 C :   -0.697083
   7 C :    0.401250
   8 O :    0.474723
   9 C :   -0.854867
  10 O :    0.443820
  11 O :    0.829864
  12 O :    0.357415
  13 O :    0.843303
  14 H :   -0.161500
  15 O :    0.826138
  16 H :   -0.147374
  17 H :   -0.490844
  18 H :   -0.552635
  19 H :   -0.558183
  20 H :   -0.244524
  21 H :   -0.282844

  Mayer bond orders larger than 0.100000
B(  0-C ,  1-C ) :   0.8750 B(  0-C ,  8-O ) :   0.4896 B(  0-C ,  9-C ) :   0.5415
B(  1-C ,  2-C ) :   0.9786 B(  1-C ,  3-H ) :   0.7806 B(  1-C ,  4-H ) :   1.0748
B(  1-C ,  8-O ) :   0.1274 B(  1-C ,  9-C ) :   0.1262 B(  1-C , 15-O ) :   0.1110
B(  2-C ,  5-C ) :   0.9540 B(  2-C ,  6-C ) :   0.1103 B(  2-C , 16-H ) :   0.8967
B(  5-C ,  6-C ) :   0.8635 B(  5-C , 13-O ) :   0.4755 B(  5-C , 14-H ) :   0.9751
B(  5-C , 15-O ) :   0.2058 B(  6-C ,  7-C ) :   1.0757 B(  6-C , 12-O ) :   0.5752
B(  6-C , 14-H ) :  -0.1009 B(  7-C ,  9-C ) :   0.1695 B(  7-C , 20-H ) :   0.8746
B(  7-C , 21-H ) :   1.1272 B(  8-O ,  9-C ) :   0.1309 B(  9-C , 10-O ) :   1.1285
B(  9-C , 11-O ) :   0.7215 B( 11-O , 17-H ) :   0.9776 B( 13-O , 19-H ) :   0.9433
B( 15-O , 18-H ) :   1.0126

MP2 TOTAL ENERGY:     -722.393088311 Eh
FINAL SINGLE POINT ENERGY      -722.393088311305

DIPOLE MOMENT
-------------
                                X             Y             Z
Electronic contribution:     -4.28527      -0.36383      -2.70311
Nuclear contribution   :      3.49838      -1.16996       4.02179
                        -----------------------------------------
Total Dipole Moment    :     -0.78688      -1.53378       1.31868
                        -----------------------------------------
Magnitude (a.u.)       :      2.17039
Magnitude (Debye)      :      5.51669

Rotational constants in cm-1:     0.038836     0.020839     0.018580
Rotational constants in MHz :  1164.288661   624.751665   557.013952

                             ****ORCA TERMINATED NORMALLY****
TOTAL RUN TIME: 0 days 0 hours 9 minutes 58 seconds 885 msec
