                         Program Version 4.2.1 -  RELEASE  -
|  1> %pal
|  2>  nprocs 32
|  3> end
|  4> !RI-MP2 aug-cc-pVTZ aug-cc-pVTZ/C TightSCF
|  5> %maxcore 4500
|  6> *xyzfile 1 1  05_9P.xyz
|  7>
|  8>
|  9>                          ****END OF INPUT****

CARTESIAN COORDINATES (ANGSTROEM)
---------------------------------
  C     -1.521243   -1.546057   -0.088705
  C     -0.688997   -1.273574    1.184288
  C      0.704158   -0.705729    1.118710
  C      1.829063   -1.242082    0.294210
  C      2.838107   -0.162766   -0.022216
  C      2.437762    1.102830    0.046343
  C      1.062796    1.489822    0.418452
  C      0.181230    2.138853   -0.627297
  C     -1.287935    2.078601   -0.256850
  C     -1.998537    0.966236   -0.437934
  C     -1.515824   -0.323375   -1.037282
  H     -0.515205   -0.207860   -1.464131
  C     -2.948760   -1.843850    0.389684
  H     -3.607274   -2.019243   -0.462834
  H     -3.366386   -1.024440    0.976904
  H     -2.969371   -2.741493    1.011922
  C     -1.022917   -2.771800   -0.863766
  H     -0.909609   -3.637543   -0.207362
  H     -0.073713   -2.602575   -1.372966
  H     -1.747287   -3.040225   -1.634761
  C      4.201992   -0.595429   -0.448968
  H      4.821183    0.252673   -0.736816
  H      4.140363   -1.281925   -1.297640
  H      4.706022   -1.130536    0.360071
  H      1.489965   -1.717375   -0.624990
  H      2.307643   -2.025079    0.894835
  H      3.098266    1.917099   -0.236643
  H      0.438177    0.427167    0.579066
  H      0.939802    1.928616    1.410131
  H     -2.162441   -0.575545   -1.883633
  H     -3.045402    0.992637   -0.151138
  C     -1.872453    3.329373    0.330047
  H     -1.312782    3.657364    1.212046
  H     -2.911771    3.186402    0.623308
  H     -1.832119    4.149981   -0.392015
  H      0.513149    3.182294   -0.684691
  H      0.382444    1.694232   -1.602008
  H      1.047372   -0.384182    2.100683
  H     -0.558044   -2.216579    1.735700
  H     -1.263618   -0.630179    1.854663

 Total Charge           Charge          ....    1
 Multiplicity           Mult            ....    1
 Number of Electrons    NEL             ....  114
 Basis Dimension        Dim             .... 1265

ORBITAL ENERGIES
----------------

  NO   OCC          E(Eh)            E(eV)
   0   2.0000     -11.481975      -312.4404
   1   2.0000     -11.470708      -312.1338
   2   2.0000     -11.400046      -310.2110
   3   2.0000     -11.397316      -310.1367
   4   2.0000     -11.385045      -309.8028
   5   2.0000     -11.383834      -309.7699
   6   2.0000     -11.379964      -309.6646
   7   2.0000     -11.373010      -309.4753
   8   2.0000     -11.364145      -309.2341
   9   2.0000     -11.352168      -308.9082
  10   2.0000     -11.351540      -308.8911
  11   2.0000     -11.347423      -308.7791
  12   2.0000     -11.334526      -308.4281
  13   2.0000     -11.332950      -308.3852
  14   2.0000     -11.327539      -308.2380
  15   2.0000      -1.324823       -36.0503
  16   2.0000      -1.259202       -34.2646
  17   2.0000      -1.251968       -34.0678
  18   2.0000      -1.194935       -32.5158
  19   2.0000      -1.180554       -32.1245
  20   2.0000      -1.108883       -30.1742
  21   2.0000      -1.097002       -29.8509
  22   2.0000      -1.081019       -29.4160
  23   2.0000      -1.052430       -28.6381
  24   2.0000      -1.020679       -27.7741
  25   2.0000      -1.006495       -27.3881
  26   2.0000      -0.956870       -26.0377
  27   2.0000      -0.900545       -24.5051
  28   2.0000      -0.872166       -23.7328
  29   2.0000      -0.841725       -22.9045
  30   2.0000      -0.839007       -22.8306
  31   2.0000      -0.802537       -21.8381
  32   2.0000      -0.778312       -21.1789
  33   2.0000      -0.769136       -20.9293
  34   2.0000      -0.763509       -20.7761
  35   2.0000      -0.740735       -20.1564
  36   2.0000      -0.729708       -19.8564
  37   2.0000      -0.724078       -19.7032
  38   2.0000      -0.717145       -19.5145
  39   2.0000      -0.703308       -19.1380
  40   2.0000      -0.698856       -19.0168
  41   2.0000      -0.687702       -18.7133
  42   2.0000      -0.682162       -18.5626
  43   2.0000      -0.673299       -18.3214
  44   2.0000      -0.666301       -18.1310
  45   2.0000      -0.663385       -18.0516
  46   2.0000      -0.648858       -17.6563
  47   2.0000      -0.641248       -17.4492
  48   2.0000      -0.635330       -17.2882
  49   2.0000      -0.633424       -17.2363
  50   2.0000      -0.628340       -17.0980
  51   2.0000      -0.606364       -16.5000
  52   2.0000      -0.594496       -16.1770
  53   2.0000      -0.584726       -15.9112
  54   2.0000      -0.576103       -15.6766
  55   2.0000      -0.504919       -13.7395
  56   2.0000      -0.468796       -12.7566
  57   0.0000      -0.086363        -2.3501
  58   0.0000      -0.070408        -1.9159
  59   0.0000      -0.057552        -1.5661
  60   0.0000      -0.054967        -1.4957
  61   0.0000      -0.050214        -1.3664

MULLIKEN ATOMIC CHARGES
-----------------------
   0 C :    2.315761
   1 C :   -0.603450
   2 C :   -0.347759
   3 C :   -0.235258
   4 C :    1.222393
   5 C :   -1.474917
   6 C :    0.083656
   7 C :    0.031578
   8 C :    1.098669
   9 C :   -0.520608
  10 C :   -0.257591
  11 H :   -0.264455
  12 C :   -1.675615
  13 H :    0.207878
  14 H :    0.294646
  15 H :    0.168327
  16 C :   -1.659719
  17 H :    0.209690
  18 H :    0.398083
  19 H :    0.158049
  20 C :   -1.205420
  21 H :    0.272381
  22 H :    0.266077
  23 H :    0.258350
  24 H :    0.414179
  25 H :    0.112614
  26 H :   -0.207271
  27 H :    0.452236
  28 H :    0.443655
  29 H :    0.590757
  30 H :   -0.845858
  31 C :   -1.166153
  32 H :    0.242460
  33 H :    0.267085
  34 H :    0.268575
  35 H :    0.377839
  36 H :    0.212815
  37 H :    0.579549
  38 H :    0.344159
  39 H :    0.172613
Sum of atomic charges:    1.0000000

LOEWDIN ATOMIC CHARGES
----------------------
   0 C :   -0.290922
   1 C :    0.381595
   2 C :    0.358840
   3 C :    0.368425
   4 C :   -0.041143
   5 C :    0.318493
   6 C :    0.312868
   7 C :    0.349725
   8 C :   -0.056834
   9 C :    0.278941
  10 C :    0.304152
  11 H :   -0.165062
  12 C :    0.605259
  13 H :   -0.141236
  14 H :   -0.159819
  15 H :   -0.139470
  16 C :    0.617245
  17 H :   -0.139965
  18 H :   -0.180245
  19 H :   -0.140906
  20 C :    0.617511
  21 H :   -0.160396
  22 H :   -0.149687
  23 H :   -0.151288
  24 H :   -0.157733
  25 H :   -0.102196
  26 H :   -0.142547
  27 H :   -0.405832
  28 H :   -0.068658
  29 H :   -0.120804
  30 H :   -0.166209
  31 C :    0.594666
  32 H :   -0.157298
  33 H :   -0.165136
  34 H :   -0.153347
  35 H :   -0.116791
  36 H :   -0.133403
  37 H :   -0.070751
  38 H :   -0.106041
  39 H :   -0.124003

  Mayer bond orders larger than 0.100000
B(  0-C ,  1-C ) :   0.5690 B(  0-C ,  2-C ) :   0.2107 B(  0-C ,  8-C ) :  -0.1006
B(  0-C ,  9-C ) :   0.4909 B(  0-C , 10-C ) :   0.8249 B(  0-C , 12-C ) :  -0.2380
B(  0-C , 13-H ) :  -0.1822 B(  0-C , 14-H ) :  -0.1326 B(  0-C , 15-H ) :  -0.2324
B(  0-C , 17-H ) :  -0.1311 B(  0-C , 19-H ) :  -0.1711 B(  1-C ,  2-C ) :   0.7316
B(  1-C ,  3-C ) :   0.1259 B(  1-C ,  9-C ) :  -0.1130 B(  1-C , 10-C ) :   0.1558
B(  1-C , 16-C ) :  -0.1387 B(  1-C , 38-H ) :   0.9002 B(  1-C , 39-H ) :   1.2573
B(  2-C ,  3-C ) :   1.0002 B(  2-C ,  4-C ) :   0.3587 B(  2-C ,  5-C ) :  -0.1769
B(  2-C ,  6-C ) :   0.3900 B(  2-C , 27-H ) :   0.3126 B(  2-C , 37-H ) :   0.6696
B(  3-C ,  4-C ) :   0.4356 B(  3-C ,  5-C ) :   0.1239 B(  3-C , 20-C ) :   0.1879
B(  3-C , 24-H ) :   0.8215 B(  3-C , 25-H ) :   1.1420 B(  3-C , 26-H ) :   0.1183
B(  3-C , 27-H ) :   0.2099 B(  3-C , 37-H ) :  -0.1985 B(  4-C ,  5-C ) :   1.1705
B(  4-C ,  6-C ) :   0.2471 B(  4-C , 20-C ) :   0.3458 B(  4-C , 22-H ) :  -0.1485
B(  4-C , 23-H ) :  -0.1197 B(  4-C , 26-H ) :  -0.4222 B(  4-C , 27-H ) :  -0.2153
B(  4-C , 28-H ) :   0.2014 B(  5-C ,  6-C ) :   0.7735 B(  5-C , 26-H ) :   2.0924
B(  5-C , 27-H ) :   0.5105 B(  5-C , 28-H ) :  -0.4152 B(  5-C , 37-H ) :  -0.1101
B(  6-C ,  7-C ) :   0.7892 B(  6-C ,  8-C ) :   0.2860 B(  6-C , 27-H ) :   0.1496
B(  6-C , 28-H ) :   0.9205 B(  7-C ,  8-C ) :   0.6557 B(  7-C , 29-H ) :  -0.1100
B(  7-C , 30-H ) :   0.1516 B(  7-C , 35-H ) :   0.8727 B(  7-C , 36-H ) :   1.0157
B(  8-C ,  9-C ) :   1.7809 B(  8-C , 10-C ) :   0.3455 B(  8-C , 30-H ) :  -0.8149
B(  8-C , 31-C ) :   0.2123 B(  8-C , 32-H ) :  -0.1547 B(  8-C , 34-H ) :  -0.1420
B(  9-C , 10-C ) :   0.4175 B(  9-C , 11-H ) :   0.1057 B(  9-C , 29-H ) :  -0.1355
B(  9-C , 30-H ) :   2.4106 B(  9-C , 31-C ) :   0.1655 B( 10-C , 11-H ) :   1.5016
B( 10-C , 27-H ) :  -0.1008 B( 10-C , 29-H ) :   0.8157 B( 10-C , 30-H ) :  -0.2665
B( 11-H , 27-H ) :  -0.1097 B( 11-H , 29-H ) :  -0.1001 B( 11-H , 30-H ) :   0.4004
B( 11-H , 31-C ) :  -0.1614 B( 12-C , 13-H ) :   1.2015 B( 12-C , 14-H ) :   1.0769
B( 12-C , 15-H ) :   1.2885 B( 12-C , 16-C ) :   0.1886 B( 16-C , 17-H ) :   1.1558
B( 16-C , 18-H ) :   0.9334 B( 16-C , 19-H ) :   1.3011 B( 20-C , 21-H ) :   1.0164
B( 20-C , 22-H ) :   1.0835 B( 20-C , 23-H ) :   1.0916 B( 20-C , 27-H ) :  -0.1114
B( 26-H , 28-H ) :  -0.1015 B( 29-H , 30-H ) :  -0.3787 B( 29-H , 31-C ) :   0.1074
B( 31-C , 32-H ) :   1.1099 B( 31-C , 33-H ) :   1.0312 B( 31-C , 34-H ) :   1.1009

MP2 TOTAL ENERGY:     -585.038411890 Eh
FINAL SINGLE POINT ENERGY      -585.038411890261

DIPOLE MOMENT
-------------
                                X             Y             Z
Electronic contribution:      3.70034       4.10078       0.71758
Nuclear contribution   :     -2.51419      -4.04509       0.00810
                        -----------------------------------------
Total Dipole Moment    :      1.18615       0.05568       0.72568
                        -----------------------------------------
Magnitude (a.u.)       :      1.39164
Magnitude (Debye)      :      3.53727

Rotational constants in cm-1:     0.023091     0.017140     0.011211
Rotational constants in MHz :   692.253193   513.831013   336.085327

                             ****ORCA TERMINATED NORMALLY****
TOTAL RUN TIME: 0 days 0 hours 45 minutes 33 seconds 946 msec
