                         Program Version 4.2.1 -  RELEASE  -
|  1> %pal
|  2>  nprocs 32
|  3> end
|  4> !RI-MP2 aug-cc-pVTZ aug-cc-pVTZ/C TightSCF
|  5> %maxcore 4500
|  6> *xyzfile 0 2  04_73P1.xyz
|  7>
|  8>
|  9>                          ****END OF INPUT****

CARTESIAN COORDINATES (ANGSTROEM)
---------------------------------
  N      1.328109   -1.540506    0.201343
  C      0.276843   -2.402431    0.712440
  H      1.920407   -1.038938    0.857435
  C     -1.007600   -1.609023    0.949650
  H      0.102525   -3.210530    0.000627
  H      0.590381   -2.819596    1.665705
  O     -1.411183   -1.339297    2.063127
  N     -1.635290   -1.213738   -0.192383
  H     -1.162803   -1.396129   -1.072513
  C     -2.724027   -0.285959   -0.148605
  C     -2.307563    1.147761   -0.397594
  H     -3.492447   -0.541976   -0.881549
  H     -3.186966   -0.332170    0.838555
  O     -1.193140    1.540501   -0.625047
  O     -3.367749    1.964800   -0.345727
  H     -3.062289    2.867394   -0.512922
  C      1.341144   -1.130431   -1.083489
  C      2.287026    0.027494   -1.375220
  O      0.595492   -1.585585   -1.942294
  N      1.819751    1.235344   -0.720314
  H      2.305085    0.180190   -2.451757
  H      3.293643   -0.187470   -1.017374
  H      0.962901    1.641391   -1.071745
  C      2.110149    1.462403    0.596888
  C      1.487424    2.623603    1.193458
  O      2.859445    0.718675    1.233531
  H      0.774583    3.227127    0.648592
  H      1.723687    2.849750    2.222531

 Total Charge           Charge          ....    0
 Multiplicity           Mult            ....    2
 Number of Electrons    NEL             ....  121
 Basis Dimension        Dim             .... 1012

ORBITAL ENERGIES
----------------
                 SPIN UP ORBITALS
  NO   OCC          E(Eh)            E(eV)
   0   1.0000     -20.636081      -561.5363
   1   1.0000     -20.575439      -559.8862
   2   1.0000     -20.540862      -558.9453
   3   1.0000     -20.534716      -558.7780
   4   1.0000     -20.528556      -558.6104
   5   1.0000     -15.593971      -424.3335
   6   1.0000     -15.593323      -424.3159
   7   1.0000     -15.586664      -424.1347
   8   1.0000     -11.409734      -310.4746
   9   1.0000     -11.360203      -309.1268
  10   1.0000     -11.359992      -309.1211
  11   1.0000     -11.354012      -308.9584
  12   1.0000     -11.295743      -307.3728
  13   1.0000     -11.282743      -307.0191
  14   1.0000     -11.282439      -307.0108
  15   1.0000     -11.270657      -306.6902
  16   1.0000      -1.494845       -40.6768
  17   1.0000      -1.407035       -38.2874
  18   1.0000      -1.399486       -38.0820
  19   1.0000      -1.392793       -37.8998
  20   1.0000      -1.389272       -37.8040
  21   1.0000      -1.255034       -34.1512
  22   1.0000      -1.247318       -33.9413
  23   1.0000      -1.236142       -33.6371
  24   1.0000      -1.058184       -28.7947
  25   1.0000      -1.036885       -28.2151
  26   1.0000      -0.993765       -27.0417
  27   1.0000      -0.949851       -25.8468
  28   1.0000      -0.858070       -23.3493
  29   1.0000      -0.811120       -22.0717
  30   1.0000      -0.799313       -21.7504
  31   1.0000      -0.789275       -21.4773
  32   1.0000      -0.745445       -20.2846
  33   1.0000      -0.734081       -19.9753
  34   1.0000      -0.730966       -19.8906
  35   1.0000      -0.717876       -19.5344
  36   1.0000      -0.699401       -19.0317
  37   1.0000      -0.676048       -18.3962
  38   1.0000      -0.671153       -18.2630
  39   1.0000      -0.665173       -18.1003
  40   1.0000      -0.658816       -17.9273
  41   1.0000      -0.629528       -17.1303
  42   1.0000      -0.614533       -16.7223
  43   1.0000      -0.611969       -16.6525
  44   1.0000      -0.601689       -16.3728
  45   1.0000      -0.595081       -16.1930
  46   1.0000      -0.592908       -16.1338
  47   1.0000      -0.574252       -15.6262
  48   1.0000      -0.569461       -15.4958
  49   1.0000      -0.550058       -14.9678
  50   1.0000      -0.546036       -14.8584
  51   1.0000      -0.542740       -14.7687
  52   1.0000      -0.512523       -13.9465
  53   1.0000      -0.485679       -13.2160
  54   1.0000      -0.469781       -12.7834
  55   1.0000      -0.455273       -12.3886
  56   1.0000      -0.452410       -12.3107
  57   1.0000      -0.427938       -11.6448
  58   1.0000      -0.408375       -11.1125
  59   1.0000      -0.398386       -10.8406
  60   1.0000      -0.391914       -10.6645
  61   0.0000       0.019339         0.5262
  62   0.0000       0.032042         0.8719
  63   0.0000       0.034652         0.9429
  64   0.0000       0.037551         1.0218
  65   0.0000       0.043746         1.1904

                 SPIN DOWN ORBITALS
  NO   OCC          E(Eh)            E(eV)
   0   1.0000     -20.636078      -561.5362
   1   1.0000     -20.575436      -559.8861
   2   1.0000     -20.534763      -558.7793
   3   1.0000     -20.532607      -558.7206
   4   1.0000     -20.528553      -558.6103
   5   1.0000     -15.593289      -424.3150
   6   1.0000     -15.592624      -424.2969
   7   1.0000     -15.586664      -424.1347
   8   1.0000     -11.409727      -310.4744
   9   1.0000     -11.364734      -309.2501
  10   1.0000     -11.359854      -309.1173
  11   1.0000     -11.354011      -308.9583
  12   1.0000     -11.295743      -307.3728
  13   1.0000     -11.282921      -307.0239
  14   1.0000     -11.282452      -307.0111
  15   1.0000     -11.249195      -306.1062
  16   1.0000      -1.494825       -40.6763
  17   1.0000      -1.403841       -38.2005
  18   1.0000      -1.393566       -37.9209
  19   1.0000      -1.389755       -37.8172
  20   1.0000      -1.387169       -37.7468
  21   1.0000      -1.253260       -34.1029
  22   1.0000      -1.244862       -33.8744
  23   1.0000      -1.233741       -33.5718
  24   1.0000      -1.047588       -28.5063
  25   1.0000      -1.019137       -27.7321
  26   1.0000      -0.974874       -26.5277
  27   1.0000      -0.924146       -25.1473
  28   1.0000      -0.857688       -23.3389
  29   1.0000      -0.808367       -21.9968
  30   1.0000      -0.796220       -21.6662
  31   1.0000      -0.789029       -21.4706
  32   1.0000      -0.744063       -20.2470
  33   1.0000      -0.733648       -19.9636
  34   1.0000      -0.728835       -19.8326
  35   1.0000      -0.712993       -19.4015
  36   1.0000      -0.694777       -18.9058
  37   1.0000      -0.671663       -18.2769
  38   1.0000      -0.669936       -18.2299
  39   1.0000      -0.663646       -18.0587
  40   1.0000      -0.658122       -17.9084
  41   1.0000      -0.627545       -17.0764
  42   1.0000      -0.611745       -16.6464
  43   1.0000      -0.606925       -16.5153
  44   1.0000      -0.596158       -16.2223
  45   1.0000      -0.587354       -15.9827
  46   1.0000      -0.574343       -15.6287
  47   1.0000      -0.569835       -15.5060
  48   1.0000      -0.565697       -15.3934
  49   1.0000      -0.547260       -14.8917
  50   1.0000      -0.543643       -14.7933
  51   1.0000      -0.540964       -14.7204
  52   1.0000      -0.512185       -13.9373
  53   1.0000      -0.485167       -13.2021
  54   1.0000      -0.454230       -12.3602
  55   1.0000      -0.451920       -12.2974
  56   1.0000      -0.444627       -12.0989
  57   1.0000      -0.408371       -11.1123
  58   1.0000      -0.396229       -10.7819
  59   1.0000      -0.388220       -10.5640
  60   0.0000       0.019490         0.5304
  61   0.0000       0.031629         0.8607
  62   0.0000       0.033580         0.9138
  63   0.0000       0.037560         1.0221
  64   0.0000       0.041736         1.1357

MULLIKEN ATOMIC CHARGES AND SPIN POPULATIONS
--------------------------------------------
   0 N :   -0.257584    0.005048
   1 C :   -0.095607    0.000414
   2 H :    0.288715   -0.001493
   3 C :    0.495527   -0.002153
   4 H :    0.349238    0.000236
   5 H :    0.349085    0.000026
   6 O :   -1.053056    0.000618
   7 N :   -0.172736   -0.001101
   8 H :    0.147278   -0.000141
   9 C :    0.018602    0.001220
  10 C :    0.351313   -0.000611
  11 H :    0.354666    0.000130
  12 H :    0.383083   -0.000113
  13 O :   -0.625950   -0.000316
  14 O :   -0.573467   -0.000291
  15 H :    0.254751   -0.000102
  16 C :    0.559882    0.001765
  17 C :   -0.170358   -0.018250
  18 O :   -1.084742   -0.000966
  19 N :   -0.182180    0.025941
  20 H :    0.348082    0.000481
  21 H :    0.357205    0.000912
  22 H :    0.258796   -0.001061
  23 C :    0.998484   -0.143351
  24 C :   -1.120133    1.074624
  25 O :   -1.055370    0.187519
  26 H :    0.450607   -0.044140
  27 H :    0.425872   -0.084844
Sum of atomic charges         :    0.0000000

LOEWDIN ATOMIC CHARGES AND SPIN POPULATIONS
-------------------------------------------
   0 N :    0.571983    0.000436
   1 C :    0.230916   -0.000052
   2 H :   -0.388655   -0.000457
   3 C :   -0.640241    0.000099
   4 H :   -0.149152    0.000028
   5 H :   -0.150557   -0.000011
   6 O :    0.459288    0.000083
   7 N :    0.550585    0.000002
   8 H :   -0.413989    0.000004
   9 C :    0.188057    0.000116
  10 C :   -0.754460    0.000675
  11 H :   -0.141393    0.000006
  12 H :   -0.170612    0.000026
  13 O :    0.504685    0.001354
  14 O :    0.847378    0.000078
  15 H :   -0.460376    0.000017
  16 C :   -0.624763    0.001087
  17 C :    0.218722    0.000515
  18 O :    0.501209   -0.000541
  19 N :    0.548168    0.016582
  20 H :   -0.151062   -0.000122
  21 H :   -0.156655   -0.000511
  22 H :   -0.373422   -0.000413
  23 C :   -0.710884    0.107689
  24 C :    0.617072    0.518443
  25 O :    0.483389    0.131910
  26 H :   -0.219885    0.113078
  27 H :   -0.215345    0.109880

  Mayer bond orders larger than 0.100000
B(  0-N ,  1-C ) :   1.0354 B(  0-N ,  2-H ) :   0.8499 B(  0-N , 16-C ) :   1.0350
B(  1-C ,  3-C ) :   0.5192 B(  1-C ,  4-H ) :   0.9459 B(  1-C ,  5-H ) :   0.9229
B(  1-C , 16-C ) :  -0.1409 B(  3-C ,  6-O ) :   1.0298 B(  3-C ,  7-N ) :   0.9160
B(  7-N ,  8-H ) :   0.9567 B(  7-N ,  9-C ) :   1.0243 B(  9-C , 10-C ) :   0.3522
B(  9-C , 11-H ) :   0.8933 B(  9-C , 12-H ) :   0.8718 B( 10-C , 13-O ) :   1.5243
B( 10-C , 14-O ) :   0.9629 B( 13-O , 22-H ) :  -0.1178 B( 14-O , 15-H ) :   0.9482
B( 16-C , 17-C ) :   0.6031 B( 16-C , 18-O ) :   0.8671 B( 17-C , 19-N ) :   0.9996
B( 17-C , 20-H ) :   0.9269 B( 17-C , 21-H ) :   0.9634 B( 19-N , 22-H ) :   0.8807
B( 19-N , 23-C ) :   0.9023 B( 23-C , 24-C ) :   0.7566 B( 23-C , 25-O ) :   1.1435
B( 24-C , 26-H ) :   0.8180 B( 24-C , 27-H ) :   0.8758

MP2 TOTAL ENERGY:     -851.053694175 Eh
FINAL SINGLE POINT ENERGY      -851.053694174726

DIPOLE MOMENT
-------------
                                X             Y             Z
Electronic contribution:     -1.40154      -0.10891      -0.10552
Nuclear contribution   :      0.72844       1.23456      -0.76263
                        -----------------------------------------
Total Dipole Moment    :     -0.67310       1.12565      -0.86815
                        -----------------------------------------
Magnitude (a.u.)       :      1.57284
Magnitude (Debye)      :      3.99784

Rotational constants in cm-1:     0.020775     0.014829     0.011915
Rotational constants in MHz :   622.810877   444.569638   357.212764

                             ****ORCA TERMINATED NORMALLY****
TOTAL RUN TIME: 0 days 0 hours 37 minutes 30 seconds 630 msec
