                         Program Version 4.2.1 -  RELEASE  -
|  1> %pal
|  2>  nprocs 32
|  3> end
|  4> !RI-MP2 aug-cc-pVTZ aug-cc-pVTZ/C TightSCF
|  5> %maxcore 4500
|  6> *xyzfile 0 1  03_27R1.xyz
|  7>
|  8>
|  9>                          ****END OF INPUT****

CARTESIAN COORDINATES (ANGSTROEM)
---------------------------------
  C     -2.042212    0.045657    0.158994
  C     -1.023984   -0.798111   -0.617298
  C      0.344562   -0.159519   -0.697458
  O      0.558867    0.901098   -1.226112
  C      3.050104   -0.027330   -0.192447
  C      3.136682    1.103596    0.819286
  C     -1.588318    0.341115    1.574398
  C     -2.483719    1.284910   -0.588597
  H     -0.960034   -1.777717   -0.141763
  H      2.968477    0.357583   -1.208323
  H      3.922177   -0.679920   -0.141620
  H      2.264661    1.753496    0.745723
  H      4.025039    1.709748    0.625785
  H      3.201409    0.719684    1.838606
  H     -1.311566   -0.578671    2.091522
  H     -2.396219    0.823205    2.125657
  H     -0.725798    1.010093    1.569767
  H     -2.908345    1.007900   -1.554537
  H     -1.635542    1.946128   -0.763952
  H     -3.243475    1.814064   -0.011565
  H     -1.384670   -0.938202   -1.639035
  S      1.623329   -1.124232    0.070980
  F     -3.179890   -0.792263    0.266188

 Total Charge           Charge          ....    0
 Multiplicity           Mult            ....    1
 Number of Electrons    NEL             ....   88
 Basis Dimension        Dim             ....  763

ORBITAL ENERGIES
----------------

  NO   OCC          E(Eh)            E(eV)
   0   2.0000     -91.973785     -2502.7339
   1   2.0000     -26.269711      -714.8352
   2   2.0000     -20.562923      -559.5456
   3   2.0000     -11.369271      -309.3736
   4   2.0000     -11.328066      -308.2523
   5   2.0000     -11.268236      -306.6243
   6   2.0000     -11.251429      -306.1670
   7   2.0000     -11.227880      -305.5262
   8   2.0000     -11.226636      -305.4923
   9   2.0000     -11.218554      -305.2724
  10   2.0000      -8.975468      -244.2349
  11   2.0000      -6.656588      -181.1350
  12   2.0000      -6.655456      -181.1042
  13   2.0000      -6.654893      -181.0888
  14   2.0000      -1.578681       -42.9581
  15   2.0000      -1.414471       -38.4897
  16   2.0000      -1.112162       -30.2635
  17   2.0000      -1.086802       -29.5734
  18   2.0000      -1.014485       -27.6055
  19   2.0000      -0.960735       -26.1429
  20   2.0000      -0.954308       -25.9680
  21   2.0000      -0.853191       -23.2165
  22   2.0000      -0.802391       -21.8342
  23   2.0000      -0.738043       -20.0832
  24   2.0000      -0.685561       -18.6551
  25   2.0000      -0.681296       -18.5390
  26   2.0000      -0.679517       -18.4906
  27   2.0000      -0.658975       -17.9316
  28   2.0000      -0.630957       -17.1692
  29   2.0000      -0.612243       -16.6600
  30   2.0000      -0.603710       -16.4278
  31   2.0000      -0.589112       -16.0305
  32   2.0000      -0.572341       -15.5742
  33   2.0000      -0.559135       -15.2148
  34   2.0000      -0.550674       -14.9846
  35   2.0000      -0.541179       -14.7262
  36   2.0000      -0.539565       -14.6823
  37   2.0000      -0.528076       -14.3697
  38   2.0000      -0.511742       -13.9252
  39   2.0000      -0.488331       -13.2882
  40   2.0000      -0.481474       -13.1016
  41   2.0000      -0.459597       -12.5063
  42   2.0000      -0.413031       -11.2391
  43   2.0000      -0.376230       -10.2377
  44   0.0000       0.027768         0.7556
  45   0.0000       0.033866         0.9216
  46   0.0000       0.035661         0.9704
  47   0.0000       0.037877         1.0307
  48   0.0000       0.046058         1.2533

MULLIKEN ATOMIC CHARGES
-----------------------
   0 C :    1.401319
   1 C :   -0.416392
   2 C :    1.025964
   3 O :   -1.068673
   4 C :   -0.426635
   5 C :   -0.970046
   6 C :   -1.168976
   7 C :   -1.155888
   8 H :    0.235238
   9 H :    0.244383
  10 H :    0.295101
  11 H :    0.391151
  12 H :    0.285552
  13 H :    0.273089
  14 H :    0.284594
  15 H :    0.220147
  16 H :    0.412482
  17 H :    0.263382
  18 H :    0.350612
  19 H :    0.280967
  20 H :    0.322313
  21 S :   -0.333442
  22 F :   -0.746243
Sum of atomic charges:   -0.0000000

LOEWDIN ATOMIC CHARGES
----------------------
   0 C :   -0.702900
   1 C :    0.196637
   2 C :   -0.921112
   3 O :    0.436554
   4 C :   -0.077721
   5 C :    0.507781
   6 C :    0.576311
   7 C :    0.583277
   8 H :   -0.189053
   9 H :   -0.237369
  10 H :   -0.228822
  11 H :   -0.191005
  12 H :   -0.173031
  13 H :   -0.183812
  14 H :   -0.159729
  15 H :   -0.159331
  16 H :   -0.164403
  17 H :   -0.159076
  18 H :   -0.186597
  19 H :   -0.160442
  20 H :   -0.147371
  21 S :    1.261104
  22 F :    0.480110

  Mayer bond orders larger than 0.100000
B(  0-C ,  1-C ) :   0.9152 B(  0-C ,  2-C ) :   0.1950 B(  0-C ,  6-C ) :   0.7279
B(  0-C ,  7-C ) :   0.7282 B(  0-C , 22-F ) :  -0.2170 B(  1-C ,  2-C ) :   0.6315
B(  1-C ,  8-H ) :   1.0208 B(  1-C , 20-H ) :   0.8983 B(  1-C , 22-F ) :   0.2406
B(  2-C ,  3-O ) :   1.1732 B(  2-C , 21-S ) :   0.7791 B(  3-O , 21-S ) :   0.1445
B(  4-C ,  5-C ) :   0.9247 B(  4-C ,  9-H ) :   0.9432 B(  4-C , 10-H ) :   0.9379
B(  4-C , 21-S ) :   0.9824 B(  5-C , 11-H ) :   0.8493 B(  5-C , 12-H ) :   0.9575
B(  5-C , 13-H ) :   0.9559 B(  6-C , 14-H ) :   0.9756 B(  6-C , 15-H ) :   1.0765
B(  6-C , 16-H ) :   0.8446 B(  6-C , 22-F ) :   0.1737 B(  7-C , 17-H ) :   1.0047
B(  7-C , 18-H ) :   0.9029 B(  7-C , 19-H ) :   0.9881 B(  7-C , 22-F ) :   0.1640

MP2 TOTAL ENERGY:     -846.574059538 Eh
FINAL SINGLE POINT ENERGY      -846.574059537921

DIPOLE MOMENT
-------------
                                X             Y             Z
Electronic contribution:     -4.16860      -7.91084      -2.99867
Nuclear contribution   :      4.94616       8.04900       3.27230
                        -----------------------------------------
Total Dipole Moment    :      0.77756       0.13815       0.27363
                        -----------------------------------------
Magnitude (a.u.)       :      0.83580
Magnitude (Debye)      :      2.12444

Rotational constants in cm-1:     0.072663     0.019380     0.018733
Rotational constants in MHz :  2178.387430   580.998312   561.587679

                             ****ORCA TERMINATED NORMALLY****
TOTAL RUN TIME: 0 days 0 hours 8 minutes 23 seconds 776 msec
