                         Program Version 4.2.1 -  RELEASE  -
|  1> %pal
|  2>  nprocs 32
|  3> end
|  4> !RI-MP2 aug-cc-pVTZ aug-cc-pVTZ/C TightSCF
|  5> %maxcore 4500
|  6> *xyzfile 0 1  10_18R2.xyz
|  7>
|  8>
|  9>                          ****END OF INPUT****

CARTESIAN COORDINATES (ANGSTROEM)
---------------------------------
  C      3.992539    1.160078    0.424717
  C      2.648903    1.285796    0.108967
  C      1.867672    0.170146   -0.211198
  C      2.500098   -1.078605   -0.227916
  C      3.840714   -1.206671    0.097987
  C      4.597336   -0.089499    0.428543
  H      4.570223    2.043362    0.671297
  H      2.185615    2.266465    0.117626
  H      1.943153   -1.959868   -0.522487
  H      4.303848   -2.186452    0.076833
  H      5.647309   -0.191044    0.674041
  C      0.446316    0.353697   -0.512978
  C     -0.472581   -0.622364   -0.440968
  C     -2.410076    0.696582   -1.161466
  C     -2.722489   -1.442359   -0.070532
  C     -2.907668    1.458723    0.067556
  H     -3.256687    0.475569   -1.821088
  H     -1.697193    1.278770   -1.743990
  C     -3.250985   -0.771932    1.198639
  H     -3.557743   -1.682171   -0.738085
  H     -2.211538   -2.378650    0.160699
  C     -3.875381    0.585780    0.870127
  H     -3.393525    2.388053   -0.241634
  H     -2.051292    1.731667    0.691542
  H     -3.981026   -1.423648    1.686620
  H     -2.419429   -0.635588    1.898082
  H     -4.179478    1.096245    1.786950
  H     -4.787645    0.428008    0.281848
  N     -1.802629   -0.571896   -0.791245
  H     -0.172126   -1.604950   -0.089239
  H      0.149539    1.361265   -0.779160

 Total Charge           Charge          ....    0
 Multiplicity           Mult            ....    1
 Number of Electrons    NEL             ....  102
 Basis Dimension        Dim             .... 1035

ORBITAL ENERGIES
----------------

  NO   OCC          E(Eh)            E(eV)
   0   2.0000     -15.567005      -423.5998
   1   2.0000     -11.267151      -306.5948
   2   2.0000     -11.260281      -306.4078
   3   2.0000     -11.255618      -306.2809
   4   2.0000     -11.235269      -305.7272
   5   2.0000     -11.224976      -305.4471
   6   2.0000     -11.224479      -305.4336
   7   2.0000     -11.224061      -305.4222
   8   2.0000     -11.223821      -305.4157
   9   2.0000     -11.222242      -305.3727
  10   2.0000     -11.218236      -305.2637
  11   2.0000     -11.217811      -305.2522
  12   2.0000     -11.217652      -305.2478
  13   2.0000     -11.205563      -304.9189
  14   2.0000      -1.263837       -34.3908
  15   2.0000      -1.147758       -31.2321
  16   2.0000      -1.086373       -29.5617
  17   2.0000      -1.048356       -28.5272
  18   2.0000      -1.027490       -27.9594
  19   2.0000      -1.004993       -27.3473
  20   2.0000      -0.976962       -26.5845
  21   2.0000      -0.893674       -24.3181
  22   2.0000      -0.860972       -23.4282
  23   2.0000      -0.827731       -22.5237
  24   2.0000      -0.813593       -22.1390
  25   2.0000      -0.783061       -21.3082
  26   2.0000      -0.740705       -20.1556
  27   2.0000      -0.695791       -18.9334
  28   2.0000      -0.683161       -18.5898
  29   2.0000      -0.646726       -17.5983
  30   2.0000      -0.633058       -17.2264
  31   2.0000      -0.624711       -16.9993
  32   2.0000      -0.614760       -16.7285
  33   2.0000      -0.602969       -16.4076
  34   2.0000      -0.585693       -15.9375
  35   2.0000      -0.574530       -15.6338
  36   2.0000      -0.565643       -15.3919
  37   2.0000      -0.559572       -15.2267
  38   2.0000      -0.542088       -14.7510
  39   2.0000      -0.520090       -14.1524
  40   2.0000      -0.506837       -13.7917
  41   2.0000      -0.500530       -13.6201
  42   2.0000      -0.497690       -13.5428
  43   2.0000      -0.486652       -13.2425
  44   2.0000      -0.476275       -12.9601
  45   2.0000      -0.469432       -12.7739
  46   2.0000      -0.456969       -12.4348
  47   2.0000      -0.431413       -11.7393
  48   2.0000      -0.357185        -9.7195
  49   2.0000      -0.328577        -8.9410
  50   2.0000      -0.263559        -7.1718
  51   0.0000       0.025525         0.6946
  52   0.0000       0.029782         0.8104
  53   0.0000       0.031413         0.8548
  54   0.0000       0.034421         0.9367
  55   0.0000       0.040005         1.0886

MULLIKEN ATOMIC CHARGES
-----------------------
   0 C :   -0.749328
   1 C :   -0.886448
   2 C :    2.208179
   3 C :   -0.527841
   4 C :   -0.880526
   5 C :   -0.069789
   6 H :    0.613329
   7 H :   -0.201325
   8 H :   -0.138350
   9 H :    0.538307
  10 H :    0.425445
  11 C :   -0.058928
  12 C :   -0.267325
  13 C :   -0.784497
  14 C :   -0.716952
  15 C :   -0.372428
  16 H :    0.347993
  17 H :    0.173559
  18 C :   -0.422686
  19 H :    0.253475
  20 H :    0.259559
  21 C :   -0.557580
  22 H :    0.378465
  23 H :    0.196999
  24 H :    0.351996
  25 H :    0.179781
  26 H :    0.302536
  27 H :    0.120459
  28 N :   -0.025020
  29 H :    0.162621
  30 H :    0.146320
Sum of atomic charges:   -0.0000000

LOEWDIN ATOMIC CHARGES
----------------------
   0 C :    0.187039
   1 C :    0.204018
   2 C :   -0.145932
   3 C :    0.207435
   4 C :    0.189169
   5 C :    0.184612
   6 H :   -0.183884
   7 H :   -0.181906
   8 H :   -0.192723
   9 H :   -0.183498
  10 H :   -0.190100
  11 C :    0.222597
  12 C :    0.113105
  13 C :    0.192832
  14 C :    0.193047
  15 C :    0.306090
  16 H :   -0.131095
  17 H :   -0.156800
  18 C :    0.305774
  19 H :   -0.132076
  20 H :   -0.143665
  21 C :    0.292376
  22 H :   -0.137520
  23 H :   -0.142013
  24 H :   -0.139506
  25 H :   -0.137277
  26 H :   -0.140515
  27 H :   -0.140682
  28 N :    0.271891
  29 H :   -0.179462
  30 H :   -0.211332

  Mayer bond orders larger than 0.100000
B(  0-C ,  1-C ) :   1.0983 B(  0-C ,  4-C ) :   0.3310 B(  0-C ,  5-C ) :   1.1398
B(  0-C ,  6-H ) :   0.4705 B(  0-C ,  7-H ) :  -0.1423 B(  0-C , 10-H ) :  -0.1786
B(  0-C , 11-C ) :   0.1479 B(  1-C ,  2-C ) :   0.2412 B(  1-C ,  3-C ) :  -0.6025
B(  1-C ,  4-C ) :   0.1114 B(  1-C ,  5-C ) :  -0.2750 B(  1-C ,  6-H ) :  -0.2161
B(  1-C ,  7-H ) :   2.1507 B(  1-C ,  8-H ) :   0.1783 B(  1-C , 10-H ) :   0.2356
B(  2-C ,  3-C ) :   0.5048 B(  2-C ,  4-C ) :   0.1145 B(  2-C ,  7-H ) :  -0.4380
B(  2-C ,  8-H ) :  -0.4834 B(  2-C , 11-C ) :   0.2413 B(  2-C , 12-C ) :  -0.1750
B(  2-C , 28-N ) :   0.1184 B(  2-C , 30-H ) :  -0.1056 B(  3-C ,  4-C ) :   1.1948
B(  3-C ,  5-C ) :  -0.2793 B(  3-C ,  7-H ) :   0.1844 B(  3-C ,  8-H ) :   1.8791
B(  3-C , 11-C ) :   0.4324 B(  3-C , 12-C ) :  -0.1607 B(  4-C ,  5-C ) :   1.0784
B(  4-C ,  9-H ) :   0.5910 B(  4-C , 10-H ) :  -0.2251 B(  5-C ,  9-H ) :   0.1078
B(  5-C , 10-H ) :   0.8517 B(  6-H , 11-C ) :   0.1656 B(  7-H ,  8-H ) :   0.2201
B(  7-H , 11-C ) :  -0.2409 B(  8-H , 12-C ) :  -0.2039 B( 11-C , 12-C ) :   0.6288
B( 11-C , 13-C ) :  -0.1209 B( 11-C , 28-N ) :  -0.4448 B( 11-C , 29-H ) :  -0.1219
B( 11-C , 30-H ) :   1.3462 B( 12-C , 14-C ) :  -0.1808 B( 12-C , 28-N ) :   0.7837
B( 12-C , 29-H ) :   1.5151 B( 13-C , 14-C ) :   0.1078 B( 13-C , 15-C ) :   0.8706
B( 13-C , 16-H ) :   0.9336 B( 13-C , 17-H ) :   1.0449 B( 13-C , 21-C ) :   0.1081
B( 13-C , 28-N ) :   1.0081 B( 14-C , 18-C ) :   0.9285 B( 14-C , 19-H ) :   1.0098
B( 14-C , 20-H ) :   0.9696 B( 14-C , 21-C ) :   0.1004 B( 14-C , 28-N ) :   1.0593
B( 15-C , 21-C ) :   0.8828 B( 15-C , 22-H ) :   0.8397 B( 15-C , 23-H ) :   1.0200
B( 18-C , 21-C ) :   0.8800 B( 18-C , 24-H ) :   0.8591 B( 18-C , 25-H ) :   1.0472
B( 21-C , 26-H ) :   0.9166 B( 21-C , 27-H ) :   1.0646

MP2 TOTAL ENERGY:     -559.174195440 Eh
FINAL SINGLE POINT ENERGY      -559.174195440256

DIPOLE MOMENT
-------------
                                X             Y             Z
Electronic contribution:     12.19412      -1.08989      -1.96939
Nuclear contribution   :    -13.21362       1.02660       2.15329
                        -----------------------------------------
Total Dipole Moment    :     -1.01950      -0.06329       0.18390
                        -----------------------------------------
Magnitude (a.u.)       :      1.03789
Magnitude (Debye)      :      2.63810

Rotational constants in cm-1:     0.061575     0.009840     0.009245
Rotational constants in MHz :  1845.971969   294.987989   277.169397

                             ****ORCA TERMINATED NORMALLY****
TOTAL RUN TIME: 0 days 0 hours 20 minutes 59 seconds 829 msec
