                         Program Version 4.2.1 -  RELEASE  -
|  1> %pal
|  2>  nprocs 32
|  3> end
|  4> !RI-MP2 aug-cc-pVTZ aug-cc-pVTZ/C TightSCF
|  5> %maxcore 4500
|  6> *xyzfile 0 1  03_14R1.xyz
|  7>
|  8>
|  9>                          ****END OF INPUT****

CARTESIAN COORDINATES (ANGSTROEM)
---------------------------------
  C      1.934642    0.000105    0.839308
  C      0.480419    0.000060    0.500790
  C     -0.206643    1.199461    0.337518
  C     -0.206594   -1.199384    0.337619
  H      0.319811    2.139281    0.457012
  C     -1.555310    1.209774    0.018225
  C     -1.555259   -1.209779    0.018326
  C     -2.201945   -0.000022   -0.135294
  H      0.319901   -2.139172    0.457191
  H     -2.104913    2.132789   -0.110408
  H     -2.104824   -2.132827   -0.110230
  F     -3.513787   -0.000063   -0.442844
  H      2.219813   -0.886547    1.399075
  H      2.219804    0.886891    1.398867
  Cl     2.977567   -0.000067   -0.647345

 Total Charge           Charge          ....    0
 Multiplicity           Mult            ....    1
 Number of Electrons    NEL             ....   74
 Basis Dimension        Dim             ....  556

ORBITAL ENERGIES
----------------

  NO   OCC          E(Eh)            E(eV)
   0   2.0000    -104.825972     -2852.4597
   1   2.0000     -26.315336      -716.0767
   2   2.0000     -11.336365      -308.4782
   3   2.0000     -11.306676      -307.6703
   4   2.0000     -11.259642      -306.3904
   5   2.0000     -11.259133      -306.3766
   6   2.0000     -11.257660      -306.3365
   7   2.0000     -11.251729      -306.1751
   8   2.0000     -11.251708      -306.1746
   9   2.0000     -10.550103      -287.0829
  10   2.0000      -8.016853      -218.1497
  11   2.0000      -8.015082      -218.1015
  12   2.0000      -8.015053      -218.1007
  13   2.0000      -1.632570       -44.4245
  14   2.0000      -1.188664       -32.3452
  15   2.0000      -1.131238       -30.7825
  16   2.0000      -1.045383       -28.4463
  17   2.0000      -1.042710       -28.3736
  18   2.0000      -0.923987       -25.1430
  19   2.0000      -0.871057       -23.7027
  20   2.0000      -0.826658       -22.4945
  21   2.0000      -0.754092       -20.5199
  22   2.0000      -0.719120       -19.5682
  23   2.0000      -0.699652       -19.0385
  24   2.0000      -0.680058       -18.5053
  25   2.0000      -0.638506       -17.3746
  26   2.0000      -0.630720       -17.1628
  27   2.0000      -0.615087       -16.7374
  28   2.0000      -0.583807       -15.8862
  29   2.0000      -0.578332       -15.7372
  30   2.0000      -0.544169       -14.8076
  31   2.0000      -0.515743       -14.0341
  32   2.0000      -0.508259       -13.8304
  33   2.0000      -0.440111       -11.9760
  34   2.0000      -0.437874       -11.9152
  35   2.0000      -0.362592        -9.8666
  36   2.0000      -0.344840        -9.3836
  37   0.0000       0.027385         0.7452
  38   0.0000       0.031245         0.8502
  39   0.0000       0.033804         0.9198
  40   0.0000       0.046658         1.2696
  41   0.0000       0.049271         1.3407

MULLIKEN ATOMIC CHARGES
-----------------------
   0 C :   -0.135613
   1 C :    1.204857
   2 C :   -0.833061
   3 C :   -0.833015
   4 H :    0.350686
   5 C :   -0.733524
   6 C :   -0.733528
   7 C :    0.788748
   8 H :    0.350736
   9 H :    0.468626
  10 H :    0.468607
  11 F :   -0.539600
  12 H :    0.259276
  13 H :    0.259279
  14 Cl:   -0.342474
Sum of atomic charges:   -0.0000000

LOEWDIN ATOMIC CHARGES
----------------------
   0 C :   -0.264687
   1 C :   -0.223843
   2 C :    0.197608
   3 C :    0.197605
   4 H :   -0.169369
   5 C :    0.206842
   6 C :    0.206841
   7 C :   -0.512814
   8 H :   -0.169367
   9 H :   -0.177956
  10 H :   -0.177956
  11 F :    0.498794
  12 H :   -0.241371
  13 H :   -0.241374
  14 Cl:    0.871048

  Mayer bond orders larger than 0.100000
B(  0-C ,  1-C ) :   0.7913 B(  0-C , 12-H ) :   0.9756 B(  0-C , 13-H ) :   0.9756
B(  0-C , 14-Cl) :   0.6899 B(  1-C ,  2-C ) :   0.5565 B(  1-C ,  3-C ) :   0.5566
B(  2-C ,  4-H ) :   0.9671 B(  2-C ,  5-C ) :   1.3993 B(  2-C ,  7-C ) :  -0.1774
B(  3-C ,  6-C ) :   1.3993 B(  3-C ,  7-C ) :  -0.1774 B(  3-C ,  8-H ) :   0.9670
B(  5-C ,  6-C ) :   0.1654 B(  5-C ,  7-C ) :   1.2781 B(  5-C ,  9-H ) :   0.6922
B(  5-C , 11-F ) :   0.1153 B(  6-C ,  7-C ) :   1.2781 B(  6-C , 10-H ) :   0.6923
B(  6-C , 11-F ) :   0.1153 B(  7-C , 11-F ) :   0.3918 B(  9-H , 11-F ) :   0.1041
B( 10-H , 11-F ) :   0.1041

MP2 TOTAL ENERGY:     -829.232658520 Eh
FINAL SINGLE POINT ENERGY      -829.232658519849

DIPOLE MOMENT
-------------
                                X             Y             Z
Electronic contribution:     -0.04471      -0.00046      -3.88991
Nuclear contribution   :      0.07681       0.00055       4.66698
                        -----------------------------------------
Total Dipole Moment    :      0.03210       0.00009       0.77706
                        -----------------------------------------
Magnitude (a.u.)       :      0.77773
Magnitude (Debye)      :      1.97682

Rotational constants in cm-1:     0.132891     0.021884     0.020487
Rotational constants in MHz :  3983.961761   656.077240   614.184570

                             ****ORCA TERMINATED NORMALLY****
TOTAL RUN TIME: 0 days 0 hours 2 minutes 45 seconds 48 msec
