                         Program Version 4.2.1 -  RELEASE  -
|  1> %pal
|  2>  nprocs 32
|  3> end
|  4> !RI-MP2 aug-cc-pVTZ aug-cc-pVTZ/C TightSCF
|  5> %maxcore 4500
|  6> *xyzfile 0 1  06_32R1.xyz
|  7>
|  8>
|  9>                          ****END OF INPUT****

CARTESIAN COORDINATES (ANGSTROEM)
---------------------------------
  C     -1.344470    0.411064   -0.155146
  C     -0.055992    0.463506    0.132807
  F      0.578275    1.665550   -0.017181
  C     -2.223819   -0.796627   -0.072053
  H     -2.670475   -1.016565   -1.045412
  H     -1.685603   -1.686045    0.254147
  H     -3.048157   -0.629147    0.626441
  C      0.892977   -0.583639    0.601008
  C      1.985812   -0.889827   -0.425913
  H      0.337294   -1.489261    0.844505
  H      1.350370   -0.231902    1.531240
  H      2.684907   -1.630944   -0.034554
  H      1.553098   -1.282048   -1.348416
  H      2.549316    0.010532   -0.673310
  H     -1.802282    1.338564   -0.484225

 Total Charge           Charge          ....    0
 Multiplicity           Mult            ....    1
 Number of Electrons    NEL             ....   48
 Basis Dimension        Dim             ....  483

ORBITAL ENERGIES
----------------

  NO   OCC          E(Eh)            E(eV)
   0   2.0000     -26.288045      -715.3341
   1   2.0000     -11.310132      -307.7643
   2   2.0000     -11.237917      -305.7993
   3   2.0000     -11.229272      -305.5640
   4   2.0000     -11.226357      -305.4847
   5   2.0000     -11.220927      -305.3370
   6   2.0000      -1.602087       -43.5950
   7   2.0000      -1.097536       -29.8655
   8   2.0000      -1.032655       -28.1000
   9   2.0000      -0.937894       -25.5214
  10   2.0000      -0.868198       -23.6249
  11   2.0000      -0.765631       -20.8339
  12   2.0000      -0.687238       -18.7007
  13   2.0000      -0.682681       -18.5767
  14   2.0000      -0.670996       -18.2587
  15   2.0000      -0.603652       -16.4262
  16   2.0000      -0.588595       -16.0165
  17   2.0000      -0.572505       -15.5786
  18   2.0000      -0.549051       -14.9404
  19   2.0000      -0.539156       -14.6712
  20   2.0000      -0.525757       -14.3066
  21   2.0000      -0.499186       -13.5835
  22   2.0000      -0.492208       -13.3937
  23   2.0000      -0.350612        -9.5406
  24   0.0000       0.028880         0.7859
  25   0.0000       0.033948         0.9238
  26   0.0000       0.039365         1.0712
  27   0.0000       0.041098         1.1183
  28   0.0000       0.054095         1.4720

MULLIKEN ATOMIC CHARGES
-----------------------
   0 C :   -0.682801
   1 C :    0.730433
   2 F :   -0.575293
   3 C :   -0.716702
   4 H :    0.236543
   5 H :    0.327861
   6 H :    0.253628
   7 C :   -0.305470
   8 C :   -0.955434
   9 H :    0.270212
  10 H :    0.253498
  11 H :    0.271062
  12 H :    0.299499
  13 H :    0.281286
  14 H :    0.311677
Sum of atomic charges:   -0.0000000

LOEWDIN ATOMIC CHARGES
----------------------
   0 C :    0.195601
   1 C :   -0.470642
   2 F :    0.478632
   3 C :    0.551614
   4 H :   -0.173055
   5 H :   -0.195471
   6 H :   -0.172852
   7 C :    0.237752
   8 C :    0.583918
   9 H :   -0.178001
  10 H :   -0.149049
  11 H :   -0.170848
  12 H :   -0.167586
  13 H :   -0.173718
  14 H :   -0.196296

  Mayer bond orders larger than 0.100000
B(  0-C ,  1-C ) :   1.5420 B(  0-C ,  3-C ) :   0.8039 B(  0-C , 14-H ) :   0.9027
B(  1-C ,  2-F ) :   0.3656 B(  1-C ,  7-C ) :   0.9053 B(  3-C ,  4-H ) :   1.0093
B(  3-C ,  5-H ) :   0.8642 B(  3-C ,  6-H ) :   1.0010 B(  7-C ,  8-C ) :   0.8996
B(  7-C ,  9-H ) :   0.9045 B(  7-C , 10-H ) :   0.9795 B(  8-C , 11-H ) :   0.9733
B(  8-C , 12-H ) :   0.9372 B(  8-C , 13-H ) :   0.9355

MP2 TOTAL ENERGY:     -295.228600577 Eh
FINAL SINGLE POINT ENERGY      -295.228600577180

DIPOLE MOMENT
-------------
                                X             Y             Z
Electronic contribution:      1.09298       7.70804       0.41913
Nuclear contribution   :     -1.33252      -8.45130      -0.31979
                        -----------------------------------------
Total Dipole Moment    :     -0.23955      -0.74326       0.09934
                        -----------------------------------------
Magnitude (a.u.)       :      0.78720
Magnitude (Debye)      :      2.00091

Rotational constants in cm-1:     0.161042     0.084430     0.061116
Rotational constants in MHz :  4827.927258  2531.154305  1832.219092

                             ****ORCA TERMINATED NORMALLY****
TOTAL RUN TIME: 0 days 0 hours 1 minutes 27 seconds 449 msec
