                         Program Version 4.2.1 -  RELEASE  -
|  1> %pal
|  2>  nprocs 32
|  3> end
|  4> !RI-MP2 aug-cc-pVTZ aug-cc-pVTZ/C TightSCF
|  5> %maxcore 4500
|  6> *xyzfile 0 1  10_19R2.xyz
|  7>
|  8>
|  9>                          ****END OF INPUT****

CARTESIAN COORDINATES (ANGSTROEM)
---------------------------------
  C     -4.345202   -0.975535    0.404128
  C     -2.981089   -1.217184    0.362725
  C     -2.079369   -0.230522   -0.049105
  C     -2.605538    1.004027   -0.445585
  C     -3.968354    1.249887   -0.395637
  C     -4.848289    0.263437    0.031139
  H     -5.019016   -1.758827    0.731284
  H     -2.598407   -2.186050    0.664586
  H     -1.943592    1.775050   -0.820905
  H     -4.348715    2.215287   -0.708908
  H     -5.913880    0.454983    0.061205
  C     -0.644029   -0.527364   -0.052731
  C      0.318375    0.406884   -0.020300
  C      2.500804    1.160690    0.653755
  C      2.195713   -1.133585   -0.161585
  C      3.937684    1.180966    0.154828
  H      2.489113    0.891922    1.723308
  H      2.050202    2.151150    0.566547
  C      3.638772   -1.162597   -0.650784
  H      2.121944   -1.610748    0.830582
  H      1.567796   -1.707580   -0.843254
  C      4.526408   -0.226220    0.162034
  H      4.526548    1.853638    0.783536
  H      3.956692    1.582791   -0.863041
  H      4.008791   -2.189778   -0.602267
  H      3.658741   -0.860376   -1.702447
  H      5.543795   -0.220988   -0.236082
  H      4.591918   -0.587666    1.195136
  N      1.682004    0.223661   -0.107650
  H      0.040421    1.452543    0.072311
  H     -0.381705   -1.578280   -0.055339

 Total Charge           Charge          ....    0
 Multiplicity           Mult            ....    1
 Number of Electrons    NEL             ....  102
 Basis Dimension        Dim             .... 1035

ORBITAL ENERGIES
----------------

  NO   OCC          E(Eh)            E(eV)
   0   2.0000     -15.567489      -423.6129
   1   2.0000     -11.264766      -306.5299
   2   2.0000     -11.259680      -306.3915
   3   2.0000     -11.254896      -306.2613
   4   2.0000     -11.235779      -305.7411
   5   2.0000     -11.225281      -305.4554
   6   2.0000     -11.224861      -305.4440
   7   2.0000     -11.224736      -305.4406
   8   2.0000     -11.224159      -305.4249
   9   2.0000     -11.223543      -305.4081
  10   2.0000     -11.219558      -305.2997
  11   2.0000     -11.219215      -305.2904
  12   2.0000     -11.218995      -305.2844
  13   2.0000     -11.208766      -305.0060
  14   2.0000      -1.261887       -34.3377
  15   2.0000      -1.148928       -31.2639
  16   2.0000      -1.092099       -29.7175
  17   2.0000      -1.048388       -28.5281
  18   2.0000      -1.029143       -28.0044
  19   2.0000      -1.006051       -27.3760
  20   2.0000      -0.974260       -26.5110
  21   2.0000      -0.893349       -24.3093
  22   2.0000      -0.863091       -23.4859
  23   2.0000      -0.827403       -22.5148
  24   2.0000      -0.811843       -22.0914
  25   2.0000      -0.777160       -21.1476
  26   2.0000      -0.743079       -20.2202
  27   2.0000      -0.694868       -18.9083
  28   2.0000      -0.685517       -18.6539
  29   2.0000      -0.645376       -17.5616
  30   2.0000      -0.635442       -17.2913
  31   2.0000      -0.625164       -17.0116
  32   2.0000      -0.613808       -16.7026
  33   2.0000      -0.604960       -16.4618
  34   2.0000      -0.592152       -16.1133
  35   2.0000      -0.581842       -15.8327
  36   2.0000      -0.574776       -15.6405
  37   2.0000      -0.560615       -15.2551
  38   2.0000      -0.538548       -14.6546
  39   2.0000      -0.519885       -14.1468
  40   2.0000      -0.503910       -13.7121
  41   2.0000      -0.498321       -13.5600
  42   2.0000      -0.488616       -13.2959
  43   2.0000      -0.482819       -13.1382
  44   2.0000      -0.477819       -13.0021
  45   2.0000      -0.462632       -12.5888
  46   2.0000      -0.456636       -12.4257
  47   2.0000      -0.432939       -11.7809
  48   2.0000      -0.360869        -9.8198
  49   2.0000      -0.329398        -8.9634
  50   2.0000      -0.268218        -7.2986
  51   0.0000       0.025829         0.7028
  52   0.0000       0.030259         0.8234
  53   0.0000       0.031192         0.8488
  54   0.0000       0.035058         0.9540
  55   0.0000       0.038650         1.0517

MULLIKEN ATOMIC CHARGES
-----------------------
   0 C :   -0.775900
   1 C :   -0.932224
   2 C :    2.148724
   3 C :   -0.483883
   4 C :   -0.898483
   5 C :   -0.042200
   6 H :    0.588261
   7 H :   -0.152906
   8 H :   -0.122089
   9 H :    0.497717
  10 H :    0.454761
  11 C :    0.019198
  12 C :   -0.863623
  13 C :   -0.460039
  14 C :   -0.626431
  15 C :   -0.542687
  16 H :    0.217977
  17 H :    0.361498
  18 C :   -0.583699
  19 H :    0.226324
  20 H :    0.364871
  21 C :   -0.449754
  22 H :    0.321300
  23 H :    0.184702
  24 H :    0.348352
  25 H :    0.145922
  26 H :    0.294297
  27 H :    0.184764
  28 N :    0.063834
  29 H :    0.317795
  30 H :    0.193624
Sum of atomic charges:    0.0000000

LOEWDIN ATOMIC CHARGES
----------------------
   0 C :    0.187978
   1 C :    0.204407
   2 C :   -0.145033
   3 C :    0.207377
   4 C :    0.190041
   5 C :    0.185400
   6 H :   -0.183778
   7 H :   -0.181381
   8 H :   -0.192069
   9 H :   -0.183488
  10 H :   -0.189495
  11 C :    0.226318
  12 C :    0.116710
  13 C :    0.184517
  14 C :    0.174914
  15 C :    0.297640
  16 H :   -0.120143
  17 H :   -0.146228
  18 C :    0.302030
  19 H :   -0.115615
  20 H :   -0.159443
  21 C :    0.287916
  22 H :   -0.138334
  23 H :   -0.136832
  24 H :   -0.137856
  25 H :   -0.136420
  26 H :   -0.139455
  27 H :   -0.138760
  28 N :    0.271716
  29 H :   -0.181688
  30 H :   -0.210947

  Mayer bond orders larger than 0.100000
B(  0-C ,  1-C ) :   1.0583 B(  0-C ,  4-C ) :   0.3136 B(  0-C ,  5-C ) :   1.1221
B(  0-C ,  6-H ) :   0.4981 B(  0-C ,  7-H ) :  -0.1272 B(  0-C , 10-H ) :  -0.1534
B(  0-C , 11-C ) :   0.1201 B(  1-C ,  2-C ) :   0.1004 B(  1-C ,  3-C ) :  -0.5477
B(  1-C ,  4-C ) :   0.1175 B(  1-C ,  5-C ) :  -0.2784 B(  1-C ,  6-H ) :  -0.1949
B(  1-C ,  7-H ) :   2.0582 B(  1-C ,  8-H ) :   0.2199 B(  1-C , 10-H ) :   0.2166
B(  1-C , 11-C ) :   0.2378 B(  2-C ,  3-C ) :   0.5621 B(  2-C ,  4-C ) :   0.1336
B(  2-C ,  7-H ) :  -0.3796 B(  2-C ,  8-H ) :  -0.4519 B(  2-C , 11-C ) :   0.3143
B(  2-C , 12-C ) :  -0.1379 B(  2-C , 30-H ) :  -0.1030 B(  3-C ,  4-C ) :   1.1572
B(  3-C ,  5-C ) :  -0.2356 B(  3-C ,  7-H ) :   0.1627 B(  3-C ,  8-H ) :   1.8437
B(  3-C , 11-C ) :   0.4091 B(  3-C , 12-C ) :  -0.1320 B(  4-C ,  5-C ) :   1.0961
B(  4-C ,  9-H ) :   0.6740 B(  4-C , 10-H ) :  -0.2241 B(  5-C , 10-H ) :   0.8058
B(  5-C , 11-C ) :   0.1153 B(  6-H , 11-C ) :   0.1425 B(  7-H ,  8-H ) :   0.1915
B(  7-H , 11-C ) :  -0.1863 B(  8-H , 12-C ) :  -0.1247 B( 11-C , 12-C ) :   0.5194
B( 11-C , 14-C ) :  -0.1221 B( 11-C , 28-N ) :  -0.6257 B( 11-C , 29-H ) :  -0.1008
B( 11-C , 30-H ) :   1.2546 B( 12-C , 13-C ) :  -0.2466 B( 12-C , 14-C ) :   0.1294
B( 12-C , 28-N ) :   1.0109 B( 12-C , 29-H ) :   1.2222 B( 12-C , 30-H ) :  -0.1554
B( 13-C , 15-C ) :   0.9582 B( 13-C , 16-H ) :   0.9825 B( 13-C , 17-H ) :   0.8791
B( 13-C , 28-N ) :   0.9481 B( 14-C , 18-C ) :   0.9154 B( 14-C , 19-H ) :   0.9951
B( 14-C , 20-H ) :   0.8909 B( 14-C , 28-N ) :   0.9324 B( 15-C , 18-C ) :   0.1031
B( 15-C , 21-C ) :   0.8847 B( 15-C , 22-H ) :   0.8934 B( 15-C , 23-H ) :   1.0391
B( 18-C , 21-C ) :   0.8963 B( 18-C , 24-H ) :   0.8736 B( 18-C , 25-H ) :   1.0939
B( 21-C , 26-H ) :   0.9354 B( 21-C , 27-H ) :   1.0039 B( 28-N , 29-H ) :  -0.1518

MP2 TOTAL ENERGY:     -559.175437480 Eh
FINAL SINGLE POINT ENERGY      -559.175437480449

DIPOLE MOMENT
-------------
                                X             Y             Z
Electronic contribution:    -13.73322       0.40475      -0.66123
Nuclear contribution   :     14.68850      -0.32896       0.81379
                        -----------------------------------------
Total Dipole Moment    :      0.95528       0.07579       0.15257
                        -----------------------------------------
Magnitude (a.u.)       :      0.97035
Magnitude (Debye)      :      2.46644

Rotational constants in cm-1:     0.080678     0.008574     0.007987
Rotational constants in MHz :  2418.664114   257.038795   239.445831

                             ****ORCA TERMINATED NORMALLY****
TOTAL RUN TIME: 0 days 0 hours 19 minutes 17 seconds 924 msec
