                         Program Version 4.2.1 -  RELEASE  -
|  1> %pal
|  2>  nprocs 32
|  3> end
|  4> !RI-MP2 aug-cc-pVTZ aug-cc-pVTZ/C TightSCF
|  5> %maxcore 4500
|  6> *xyzfile 0 1  05_24R1.xyz
|  7>
|  8>
|  9>                          ****END OF INPUT****

CARTESIAN COORDINATES (ANGSTROEM)
---------------------------------
  C     -1.149974    1.445686   -0.030380
  N     -2.465392    0.945075    0.039984
  C     -2.757542   -0.379946    0.080984
  N     -1.849567   -1.301785    0.059863
  C     -0.547746   -0.889234   -0.019645
  C     -0.162109    0.429492   -0.019853
  N      1.198751    0.795876   -0.037359
  C      2.085038   -0.193998   -0.637274
  C      1.803324   -1.550250    0.012471
  N      0.390918   -1.870064   -0.108248
  H      2.127575   -1.517874    1.054522
  H      2.381966   -2.319774   -0.502478
  C      3.530831    0.245378   -0.441270
  N      3.863942    0.324932    0.974739
  H      3.665254    1.196569   -0.979291
  H      4.189282   -0.484500   -0.920438
  O     -0.957375    2.653538   -0.103967
  H     -3.193293    1.641536   -0.036832
  N     -4.088481   -0.724469    0.099774
  H     -4.721950   -0.109813    0.586747
  H     -4.241515   -1.705904    0.274187
  H      0.070145   -2.810005    0.055449
  H      3.213343    0.942226    1.447854
  H      4.802382    0.674232    1.117706
  H      1.305637    1.728825   -0.420024
  H      1.898049   -0.293544   -1.717131

 Total Charge           Charge          ....    0
 Multiplicity           Mult            ....    1
 Number of Electrons    NEL             ....  104
 Basis Dimension        Dim             ....  920

ORBITAL ENERGIES
----------------

  NO   OCC          E(Eh)            E(eV)
   0   2.0000     -20.503828      -557.9375
   1   2.0000     -15.618162      -424.9918
   2   2.0000     -15.600332      -424.5066
   3   2.0000     -15.572275      -423.7432
   4   2.0000     -15.549103      -423.1126
   5   2.0000     -15.545038      -423.0020
   6   2.0000     -15.532536      -422.6618
   7   2.0000     -11.380404      -309.6765
   8   2.0000     -11.342964      -308.6577
   9   2.0000     -11.318755      -307.9990
  10   2.0000     -11.259116      -306.3761
  11   2.0000     -11.257475      -306.3315
  12   2.0000     -11.249870      -306.1245
  13   2.0000     -11.231181      -305.6160
  14   2.0000      -1.383440       -37.6453
  15   2.0000      -1.335590       -36.3432
  16   2.0000      -1.281586       -34.8737
  17   2.0000      -1.215975       -33.0884
  18   2.0000      -1.213662       -33.0254
  19   2.0000      -1.179958       -32.1083
  20   2.0000      -1.167481       -31.7688
  21   2.0000      -1.045544       -28.4507
  22   2.0000      -0.965053       -26.2604
  23   2.0000      -0.929479       -25.2924
  24   2.0000      -0.871170       -23.7057
  25   2.0000      -0.865964       -23.5641
  26   2.0000      -0.790649       -21.5146
  27   2.0000      -0.778882       -21.1945
  28   2.0000      -0.734446       -19.9853
  29   2.0000      -0.706597       -19.2275
  30   2.0000      -0.689107       -18.7516
  31   2.0000      -0.683585       -18.6013
  32   2.0000      -0.670931       -18.2570
  33   2.0000      -0.656257       -17.8577
  34   2.0000      -0.638764       -17.3816
  35   2.0000      -0.625507       -17.0209
  36   2.0000      -0.608684       -16.5631
  37   2.0000      -0.599038       -16.3007
  38   2.0000      -0.595722       -16.2104
  39   2.0000      -0.564293       -15.3552
  40   2.0000      -0.550826       -14.9887
  41   2.0000      -0.531692       -14.4681
  42   2.0000      -0.515289       -14.0217
  43   2.0000      -0.498994       -13.5783
  44   2.0000      -0.487624       -13.2689
  45   2.0000      -0.450070       -12.2470
  46   2.0000      -0.440702       -11.9921
  47   2.0000      -0.425373       -11.5750
  48   2.0000      -0.411878       -11.2078
  49   2.0000      -0.391965       -10.6659
  50   2.0000      -0.371863       -10.1189
  51   2.0000      -0.266176        -7.2430
  52   0.0000       0.019488         0.5303
  53   0.0000       0.028451         0.7742
  54   0.0000       0.034633         0.9424
  55   0.0000       0.039040         1.0623
  56   0.0000       0.042325         1.1517

MULLIKEN ATOMIC CHARGES
-----------------------
   0 C :    0.087957
   1 N :    0.257550
   2 C :   -0.245955
   3 N :   -0.513373
   4 C :    0.222507
   5 C :    1.531182
   6 N :   -0.575238
   7 C :    0.103533
   8 C :   -0.275855
   9 N :   -0.194523
  10 H :    0.236040
  11 H :    0.349497
  12 C :   -0.190408
  13 N :   -0.624670
  14 H :    0.197136
  15 H :    0.285289
  16 O :   -1.004004
  17 H :    0.120408
  18 N :   -0.528651
  19 H :    0.118264
  20 H :    0.117178
  21 H :   -0.011113
  22 H :    0.155706
  23 H :    0.068353
  24 H :   -0.077501
  25 H :    0.390693
Sum of atomic charges:    0.0000000

LOEWDIN ATOMIC CHARGES
----------------------
   0 C :   -0.672780
   1 N :    0.579422
   2 C :   -0.524800
   3 N :    0.428031
   4 C :   -0.405541
   5 C :   -0.214529
   6 N :    0.568285
   7 C :   -0.122331
   8 C :    0.226569
   9 N :    0.582712
  10 H :   -0.147268
  11 H :   -0.131340
  12 C :    0.165538
  13 N :    0.844744
  14 H :   -0.137984
  15 H :   -0.144839
  16 O :    0.425638
  17 H :   -0.260436
  18 N :    0.874775
  19 H :   -0.293866
  20 H :   -0.299191
  21 H :   -0.275028
  22 H :   -0.330100
  23 H :   -0.319252
  24 H :   -0.303168
  25 H :   -0.113262

  Mayer bond orders larger than 0.100000
B(  0-C ,  1-N ) :   0.9772 B(  0-C ,  2-C ) :  -0.3752 B(  0-C ,  3-N ) :   0.1224
B(  0-C ,  4-C ) :   0.9542 B(  0-C ,  5-C ) :  -0.3852 B(  0-C , 16-O ) :   0.5881
B(  1-N ,  2-C ) :   0.7941 B(  1-N ,  4-C ) :   0.1059 B(  1-N ,  5-C ) :  -0.3762
B(  1-N , 16-O ) :  -0.2361 B(  1-N , 17-H ) :   1.0866 B(  1-N , 18-N ) :  -0.1482
B(  2-C ,  3-N ) :   1.9882 B(  2-C ,  4-C ) :  -0.9695 B(  2-C , 18-N ) :   0.9764
B(  3-N ,  5-C ) :  -0.1809 B(  3-N ,  9-N ) :  -0.4012 B(  3-N , 18-N ) :  -0.3570
B(  4-C ,  5-C ) :   0.2562 B(  4-C ,  8-C ) :  -0.2504 B(  4-C ,  9-N ) :   0.8452
B(  5-C ,  6-N ) :   0.4328 B(  5-C ,  9-N ) :  -0.1233 B(  5-C , 16-O ) :   0.3831
B(  5-C , 24-H ) :  -0.2033 B(  6-N ,  7-C ) :   0.8187 B(  6-N , 24-H ) :   1.2357
B(  7-C ,  8-C ) :   0.7917 B(  7-C , 12-C ) :   0.8633 B(  7-C , 25-H ) :   0.7476
B(  8-C ,  9-N ) :   0.7516 B(  8-C , 10-H ) :   1.0507 B(  8-C , 11-H ) :   0.8485
B(  9-N , 21-H ) :   1.1992 B( 12-C , 13-N ) :   0.6254 B( 12-C , 14-H ) :   1.0419
B( 12-C , 15-H ) :   0.9613 B( 13-N , 22-H ) :   0.9427 B( 13-N , 23-H ) :   1.0093
B( 18-N , 19-H ) :   1.0728 B( 18-N , 20-H ) :   1.0383

MP2 TOTAL ENERGY:     -676.530938047 Eh
FINAL SINGLE POINT ENERGY      -676.530938046969

DIPOLE MOMENT
-------------
                                X             Y             Z
Electronic contribution:    -12.15418       1.90775       0.08861
Nuclear contribution   :     11.41221      -3.01314      -0.03517
                        -----------------------------------------
Total Dipole Moment    :     -0.74197      -1.10539       0.05344
                        -----------------------------------------
Magnitude (a.u.)       :      1.33239
Magnitude (Debye)      :      3.38667

Rotational constants in cm-1:     0.049156     0.014951     0.011974
Rotational constants in MHz :  1473.660208   448.227955   358.986309

                             ****ORCA TERMINATED NORMALLY****
TOTAL RUN TIME: 0 days 0 hours 14 minutes 6 seconds 341 msec
