                         Program Version 4.2.1 -  RELEASE  -
|  1> %pal
|  2>  nprocs 32
|  3> end
|  4> !RI-MP2 aug-cc-pVTZ aug-cc-pVTZ/C TightSCF
|  5> %maxcore 4500
|  6> *xyzfile 0 1  09_26R2.xyz
|  7>
|  8>
|  9>                          ****END OF INPUT****

CARTESIAN COORDINATES (ANGSTROEM)
---------------------------------
  C      3.477102    1.173308   -0.911341
  C      3.429640   -0.103758   -0.113867
  C      4.132374   -0.256972    1.006690
  N      2.666580   -1.145998   -0.656621
  C      1.307619   -0.851391   -1.098516
  C      0.353617   -0.417659    0.012772
  H      0.920917   -1.747129   -1.590109
  H      1.348842   -0.079035   -1.871980
  C     -1.034621   -0.075209   -0.513585
  H      0.781431    0.442832    0.539447
  H      0.281698   -1.222956    0.752109
  C     -1.981883    0.362891    0.599297
  H     -1.463420   -0.932101   -1.034791
  H     -0.954321    0.733659   -1.250717
  C     -3.384033    0.767358    0.134275
  H     -1.548662    1.227717    1.113216
  H     -2.068766   -0.435149    1.345142
  C     -4.237490   -0.440127   -0.292285
  N     -4.141591    1.553246    1.116999
  H     -3.292773    1.379929   -0.768854
  O     -3.800780   -1.383852   -0.889378
  O     -5.523549   -0.331335    0.037711
  H     -5.593573    0.506213    0.544746
  O      4.514177    2.053165   -0.522572
  H      2.553626    1.744514   -0.788917
  H      3.558384    0.912904   -1.973946
  H      5.354911    1.614712   -0.681212
  O      4.021189   -1.435552    1.720849
  H      4.766728    0.518599    1.410529
  H      4.787742   -1.550481    2.284513
  H     -3.964877    2.545133    1.027418
  H     -3.907678    1.281769    2.066266
  H      2.702623   -1.961929   -0.059026

 Total Charge           Charge          ....    0
 Multiplicity           Mult            ....    1
 Number of Electrons    NEL             ....  118
 Basis Dimension        Dim             .... 1104

ORBITAL ENERGIES
----------------

  NO   OCC          E(Eh)            E(eV)
   0   2.0000     -20.594301      -560.3994
   1   2.0000     -20.579740      -560.0032
   2   2.0000     -20.563569      -559.5631
   3   2.0000     -20.533712      -558.7507
   4   2.0000     -15.583743      -424.0552
   5   2.0000     -15.551181      -423.1691
   6   2.0000     -11.372744      -309.4681
   7   2.0000     -11.292759      -307.2916
   8   2.0000     -11.284830      -307.0758
   9   2.0000     -11.265186      -306.5413
  10   2.0000     -11.254578      -306.2527
  11   2.0000     -11.253171      -306.2143
  12   2.0000     -11.240141      -305.8598
  13   2.0000     -11.221544      -305.3537
  14   2.0000     -11.219237      -305.2909
  15   2.0000      -1.454331       -39.5744
  16   2.0000      -1.388041       -37.7705
  17   2.0000      -1.368692       -37.2440
  18   2.0000      -1.357212       -36.9316
  19   2.0000      -1.226811       -33.3832
  20   2.0000      -1.224901       -33.3312
  21   2.0000      -1.087226       -29.5849
  22   2.0000      -1.037179       -28.2231
  23   2.0000      -0.997198       -27.1351
  24   2.0000      -0.936005       -25.4700
  25   2.0000      -0.920644       -25.0520
  26   2.0000      -0.856076       -23.2950
  27   2.0000      -0.807915       -21.9845
  28   2.0000      -0.804958       -21.9040
  29   2.0000      -0.766444       -20.8560
  30   2.0000      -0.745527       -20.2868
  31   2.0000      -0.722303       -19.6549
  32   2.0000      -0.698946       -19.0193
  33   2.0000      -0.683957       -18.6114
  34   2.0000      -0.679632       -18.4937
  35   2.0000      -0.667581       -18.1658
  36   2.0000      -0.645104       -17.5542
  37   2.0000      -0.632410       -17.2087
  38   2.0000      -0.624665       -16.9980
  39   2.0000      -0.616922       -16.7873
  40   2.0000      -0.604993       -16.4627
  41   2.0000      -0.588510       -16.0142
  42   2.0000      -0.584689       -15.9102
  43   2.0000      -0.579319       -15.7641
  44   2.0000      -0.565580       -15.3902
  45   2.0000      -0.544776       -14.8241
  46   2.0000      -0.540834       -14.7169
  47   2.0000      -0.527150       -14.3445
  48   2.0000      -0.517966       -14.0946
  49   2.0000      -0.511485       -13.9182
  50   2.0000      -0.496535       -13.5114
  51   2.0000      -0.484895       -13.1947
  52   2.0000      -0.477094       -12.9824
  53   2.0000      -0.466196       -12.6858
  54   2.0000      -0.455694       -12.4001
  55   2.0000      -0.451997       -12.2995
  56   2.0000      -0.426750       -11.6124
  57   2.0000      -0.411612       -11.2005
  58   2.0000      -0.297581        -8.0976
  59   0.0000       0.017897         0.4870
  60   0.0000       0.025057         0.6818
  61   0.0000       0.029214         0.7949
  62   0.0000       0.037940         1.0324
  63   0.0000       0.038393         1.0447

MULLIKEN ATOMIC CHARGES
-----------------------
   0 C :    0.190799
   1 C :    0.940262
   2 C :   -0.942667
   3 N :   -0.461807
   4 C :   -0.198003
   5 C :   -0.551821
   6 H :    0.384752
   7 H :    0.174606
   8 C :   -0.339854
   9 H :    0.251810
  10 H :    0.257985
  11 C :   -0.494009
  12 H :    0.295631
  13 H :    0.236428
  14 C :    0.640508
  15 H :    0.196802
  16 H :    0.298696
  17 C :    0.574566
  18 N :   -0.651953
  19 H :    0.291159
  20 O :   -0.757259
  21 O :   -0.604581
  22 H :    0.228587
  23 O :   -0.720058
  24 H :    0.259240
  25 H :    0.301334
  26 H :    0.175014
  27 O :   -0.633599
  28 H :    0.458903
  29 H :    0.158762
  30 H :    0.048615
  31 H :    0.074641
  32 H :   -0.083488
Sum of atomic charges:   -0.0000000

LOEWDIN ATOMIC CHARGES
----------------------
   0 C :    0.010606
   1 C :   -0.252665
   2 C :   -0.013640
   3 N :    0.563984
   4 C :    0.180332
   5 C :    0.289760
   6 H :   -0.132988
   7 H :   -0.156503
   8 C :    0.280626
   9 H :   -0.146276
  10 H :   -0.130633
  11 C :    0.290209
  12 H :   -0.176646
  13 H :   -0.133081
  14 C :   -0.098100
  15 H :   -0.141607
  16 H :   -0.131969
  17 C :   -0.770256
  18 N :    0.866342
  19 H :   -0.129990
  20 O :    0.460552
  21 O :    0.846414
  22 H :   -0.595544
  23 O :    0.818074
  24 H :   -0.164443
  25 H :   -0.150694
  26 H :   -0.493009
  27 O :    0.806796
  28 H :   -0.212108
  29 H :   -0.487604
  30 H :   -0.286353
  31 H :   -0.284631
  32 H :   -0.324955

  Mayer bond orders larger than 0.100000
B(  0-C ,  1-C ) :   0.6219 B(  0-C ,  2-C ) :  -0.1423 B(  0-C , 23-O ) :   0.5663
B(  0-C , 24-H ) :   0.9618 B(  0-C , 25-H ) :   1.0114 B(  1-C ,  2-C ) :   0.9753
B(  1-C ,  3-N ) :   0.6516 B(  1-C ,  4-C ) :   0.1164 B(  2-C ,  3-N ) :  -0.1732
B(  2-C ,  4-C ) :  -0.1708 B(  2-C ,  5-C ) :   0.1946 B(  2-C , 27-O ) :   0.8372
B(  2-C , 28-H ) :   0.9398 B(  3-N ,  4-C ) :   0.6479 B(  3-N ,  5-C ) :   0.1307
B(  3-N , 32-H ) :   1.1153 B(  4-C ,  5-C ) :   0.8526 B(  4-C ,  6-H ) :   0.8558
B(  4-C ,  7-H ) :   1.0681 B(  5-C ,  8-C ) :   0.9115 B(  5-C ,  9-H ) :   0.9837
B(  5-C , 10-H ) :   0.9459 B(  8-C , 11-C ) :   0.8747 B(  8-C , 12-H ) :   0.9520
B(  8-C , 13-H ) :   0.9755 B(  8-C , 16-H ) :   0.1063 B( 11-C , 14-C ) :   0.9242
B( 11-C , 15-H ) :   0.9652 B( 11-C , 16-H ) :   0.8929 B( 11-C , 17-C ) :   0.2889
B( 14-C , 17-C ) :   0.4742 B( 14-C , 18-N ) :   0.3859 B( 14-C , 19-H ) :   0.9235
B( 14-C , 21-O ) :   0.1276 B( 14-C , 31-H ) :   0.1039 B( 17-C , 18-N ) :   0.1937
B( 17-C , 20-O ) :   1.4509 B( 17-C , 21-O ) :   0.6877 B( 18-N , 22-H ) :   0.1642
B( 18-N , 30-H ) :   1.0945 B( 18-N , 31-H ) :   0.9957 B( 20-O , 21-O ) :  -0.1183
B( 21-O , 22-H ) :   0.8537 B( 23-O , 26-H ) :   1.0040 B( 27-O , 29-H ) :   1.0341

MP2 TOTAL ENERGY:     -762.844572783 Eh
FINAL SINGLE POINT ENERGY      -762.844572782705

DIPOLE MOMENT
-------------
                                X             Y             Z
Electronic contribution:     -3.48961      -3.62831       0.03745
Nuclear contribution   :      4.30703       5.04071       1.08850
                        -----------------------------------------
Total Dipole Moment    :      0.81743       1.41240       1.12595
                        -----------------------------------------
Magnitude (a.u.)       :      1.98263
Magnitude (Debye)      :      5.03944

Rotational constants in cm-1:     0.040130     0.005765     0.005592
Rotational constants in MHz :  1203.057372   172.840363   167.632543

                             ****ORCA TERMINATED NORMALLY****
TOTAL RUN TIME: 0 days 0 hours 18 minutes 24 seconds 94 msec
