                         Program Version 4.2.1 -  RELEASE  -
|  1> %pal
|  2>  nprocs 32
|  3> end
|  4> !RI-MP2 aug-cc-pVTZ aug-cc-pVTZ/C TightSCF
|  5> %maxcore 4500
|  6> *xyzfile 0 2  03_27R2.xyz
|  7>
|  8>
|  9>                          ****END OF INPUT****

CARTESIAN COORDINATES (ANGSTROEM)
---------------------------------
  N      0.000195   -0.001434    0.826415
  C      1.162893    0.306209    0.090878
  C     -1.163138   -0.306688    0.090820
  O     -1.363450   -1.441189   -0.257657
  O      1.361204    1.441238   -0.257095
  C     -2.069390    0.862728   -0.138086
  C      2.071224   -0.861465   -0.138585
  H     -1.505866    1.685844   -0.583330
  H     -2.456450    1.212614    0.820912
  H     -2.890598    0.560891   -0.785118
  H      2.891943   -0.557873   -0.785414
  H      1.509207   -1.685333   -0.584352
  H      2.458820   -1.211198    0.820251

 Total Charge           Charge          ....    0
 Multiplicity           Mult            ....    2
 Number of Electrons    NEL             ....   53
 Basis Dimension        Dim             ....  460

ORBITAL ENERGIES
----------------
                 SPIN UP ORBITALS
  NO   OCC          E(Eh)            E(eV)
   0   1.0000     -20.571068      -559.7672
   1   1.0000     -20.571029      -559.7662
   2   1.0000     -15.641838      -425.6361
   3   1.0000     -11.386484      -309.8420
   4   1.0000     -11.386451      -309.8411
   5   1.0000     -11.255467      -306.2768
   6   1.0000     -11.255414      -306.2754
   7   1.0000      -1.446690       -39.3664
   8   1.0000      -1.423358       -38.7315
   9   1.0000      -1.267177       -34.4816
  10   1.0000      -1.052829       -28.6489
  11   1.0000      -1.017464       -27.6866
  12   1.0000      -0.856162       -23.2973
  13   1.0000      -0.736768       -20.0485
  14   1.0000      -0.710552       -19.3351
  15   1.0000      -0.698164       -18.9980
  16   1.0000      -0.674307       -18.3488
  17   1.0000      -0.648283       -17.6407
  18   1.0000      -0.613390       -16.6912
  19   1.0000      -0.603830       -16.4311
  20   1.0000      -0.588428       -16.0119
  21   1.0000      -0.563499       -15.3336
  22   1.0000      -0.531251       -14.4561
  23   1.0000      -0.514273       -13.9941
  24   1.0000      -0.509965       -13.8768
  25   1.0000      -0.455553       -12.3962
  26   1.0000      -0.454711       -12.3733
  27   0.0000       0.028329         0.7709
  28   0.0000       0.033721         0.9176
  29   0.0000       0.040677         1.1069
  30   0.0000       0.048142         1.3100
  31   0.0000       0.052072         1.4170

                 SPIN DOWN ORBITALS
  NO   OCC          E(Eh)            E(eV)
   0   1.0000     -20.569458      -559.7234
   1   1.0000     -20.569430      -559.7227
   2   1.0000     -15.608251      -424.7221
   3   1.0000     -11.388680      -309.9017
   4   1.0000     -11.388645      -309.9008
   5   1.0000     -11.254864      -306.2604
   6   1.0000     -11.254810      -306.2589
   7   1.0000      -1.432402       -38.9777
   8   1.0000      -1.418023       -38.5864
   9   1.0000      -1.180769       -32.1304
  10   1.0000      -1.046944       -28.4888
  11   1.0000      -1.005037       -27.3484
  12   1.0000      -0.846946       -23.0466
  13   1.0000      -0.727707       -19.8019
  14   1.0000      -0.696719       -18.9587
  15   1.0000      -0.662672       -18.0322
  16   1.0000      -0.656207       -17.8563
  17   1.0000      -0.640746       -17.4356
  18   1.0000      -0.613061       -16.6823
  19   1.0000      -0.595536       -16.2054
  20   1.0000      -0.580058       -15.7842
  21   1.0000      -0.552971       -15.0471
  22   1.0000      -0.530476       -14.4350
  23   1.0000      -0.500953       -13.6316
  24   1.0000      -0.444703       -12.1010
  25   1.0000      -0.435573       -11.8525
  26   0.0000       0.028459         0.7744
  27   0.0000       0.032957         0.8968
  28   0.0000       0.040626         1.1055
  29   0.0000       0.047366         1.2889
  30   0.0000       0.052065         1.4167

MULLIKEN ATOMIC CHARGES AND SPIN POPULATIONS
--------------------------------------------
   0 N :   -0.118578    1.116319
   1 C :    0.526854   -0.095085
   2 C :    0.526574   -0.094897
   3 O :   -0.751954    0.015437
   4 O :   -0.751948    0.015671
   5 C :   -0.674763    0.010972
   6 C :   -0.674939    0.010966
   7 H :    0.300093    0.003360
   8 H :    0.317225   -0.000413
   9 H :    0.342084    0.007374
  10 H :    0.342276    0.007357
  11 H :    0.299840    0.003360
  12 H :    0.317237   -0.000420
Sum of atomic charges         :   -0.0000000

LOEWDIN ATOMIC CHARGES AND SPIN POPULATIONS
-------------------------------------------
   0 N :    0.436414    0.713587
   1 C :   -0.744393    0.101869
   2 C :   -0.744378    0.101908
   3 O :    0.453042    0.018319
   4 O :    0.453128    0.018479
   5 C :    0.588597    0.016333
   6 C :    0.588637    0.016294
   7 H :   -0.174290    0.001467
   8 H :   -0.167112    0.000403
   9 H :   -0.174201    0.004742
  10 H :   -0.174204    0.004729
  11 H :   -0.174119    0.001475
  12 H :   -0.167121    0.000396

  Mayer bond orders larger than 0.100000
B(  0-N ,  1-C ) :   0.8194 B(  0-N ,  2-C ) :   0.8195 B(  1-C ,  2-C ) :   0.1100
B(  1-C ,  4-O ) :   1.4275 B(  1-C ,  6-C ) :   0.7463 B(  2-C ,  3-O ) :   1.4276
B(  2-C ,  5-C ) :   0.7465 B(  5-C ,  7-H ) :   0.9216 B(  5-C ,  8-H ) :   0.9139
B(  5-C ,  9-H ) :   0.9177 B(  6-C , 10-H ) :   0.9175 B(  6-C , 11-H ) :   0.9219
B(  6-C , 12-H ) :   0.9140

MP2 TOTAL ENERGY:     -360.547091023 Eh
FINAL SINGLE POINT ENERGY      -360.547091023104

DIPOLE MOMENT
-------------
                                X             Y             Z
Electronic contribution:     -0.00462      -0.00431       1.17985
Nuclear contribution   :      0.00698       0.00491      -1.09417
                        -----------------------------------------
Total Dipole Moment    :      0.00236       0.00060       0.08568
                        -----------------------------------------
Magnitude (a.u.)       :      0.08571
Magnitude (Debye)      :      0.21786

Rotational constants in cm-1:     0.153219     0.068650     0.051975
Rotational constants in MHz :  4593.379816  2058.070907  1558.159841

                             ****ORCA TERMINATED NORMALLY****
TOTAL RUN TIME: 0 days 0 hours 1 minutes 50 seconds 865 msec
