                         Program Version 4.2.1 -  RELEASE  -
|  1> %pal
|  2>  nprocs 32
|  3> end
|  4> !RI-MP2 aug-cc-pVTZ aug-cc-pVTZ/C TightSCF
|  5> %maxcore 4500
|  6> *xyzfile -1 1  09_2P.xyz
|  7>
|  8>
|  9>                          ****END OF INPUT****

CARTESIAN COORDINATES (ANGSTROEM)
---------------------------------
  C      2.751275   -0.276646   -0.214230
  C      2.180404    0.967278   -0.453941
  C      0.824758    1.172341   -0.223964
  C      0.026851    0.139562    0.243511
  C      0.601125   -1.104784    0.483462
  C      1.954188   -1.315868    0.256178
  H      3.809027   -0.438675   -0.393364
  H      2.796942    1.781485   -0.822051
  H      0.325609    2.121161   -0.389419
  H     -0.022624   -1.918902    0.841592
  H      2.390031   -2.292214    0.442450
  C     -1.467671    0.454722    0.523288
  C     -2.271777   -0.600349   -0.237924
  N     -2.932438   -1.357775   -0.801601
  O     -1.844290    1.688259    0.260462
  H     -1.612513    0.127957    1.590016

 Total Charge           Charge          ....   -1
 Multiplicity           Mult            ....    1
 Number of Electrons    NEL             ....   70
 Basis Dimension        Dim             ....  598

ORBITAL ENERGIES
----------------

  NO   OCC          E(Eh)            E(eV)
   0   2.0000     -20.269358      -551.5573
   1   2.0000     -15.397677      -418.9921
   2   2.0000     -11.143760      -303.2371
   3   2.0000     -11.117271      -302.5163
   4   2.0000     -11.115142      -302.4584
   5   2.0000     -11.113414      -302.4114
   6   2.0000     -11.106982      -302.2363
   7   2.0000     -11.101872      -302.0973
   8   2.0000     -11.099628      -302.0362
   9   2.0000     -11.093178      -301.8607
  10   2.0000      -1.103507       -30.0280
  11   2.0000      -1.048269       -28.5249
  12   2.0000      -1.026721       -27.9385
  13   2.0000      -0.899078       -24.4652
  14   2.0000      -0.889414       -24.2022
  15   2.0000      -0.765545       -20.8315
  16   2.0000      -0.701769       -19.0961
  17   2.0000      -0.669200       -18.2099
  18   2.0000      -0.578424       -15.7397
  19   2.0000      -0.517363       -14.0782
  20   2.0000      -0.500251       -13.6125
  21   2.0000      -0.493745       -13.4355
  22   2.0000      -0.461778       -12.5656
  23   2.0000      -0.455524       -12.3954
  24   2.0000      -0.406421       -11.0593
  25   2.0000      -0.385127       -10.4798
  26   2.0000      -0.375511       -10.2182
  27   2.0000      -0.370685       -10.0869
  28   2.0000      -0.353122        -9.6089
  29   2.0000      -0.302571        -8.2334
  30   2.0000      -0.301122        -8.1939
  31   2.0000      -0.217565        -5.9202
  32   2.0000      -0.205781        -5.5996
  33   2.0000      -0.194934        -5.3044
  34   2.0000      -0.179374        -4.8810
  35   0.0000       0.098676         2.6851
  36   0.0000       0.106583         2.9003
  37   0.0000       0.115735         3.1493
  38   0.0000       0.131210         3.5704
  39   0.0000       0.138779         3.7764

MULLIKEN ATOMIC CHARGES
-----------------------
   0 C :   -0.223221
   1 C :   -0.425363
   2 C :   -0.997104
   3 C :    1.043621
   4 C :   -0.952643
   5 C :   -0.601155
   6 H :    0.392022
   7 H :    0.491439
   8 H :    0.143942
   9 H :    0.289549
  10 H :    0.383570
  11 C :    0.716451
  12 C :    0.373474
  13 N :   -0.730749
  14 O :   -1.206463
  15 H :    0.302629
Sum of atomic charges:   -1.0000000

LOEWDIN ATOMIC CHARGES
----------------------
   0 C :    0.155568
   1 C :    0.173248
   2 C :    0.196295
   3 C :   -0.150571
   4 C :    0.183279
   5 C :    0.165872
   6 H :   -0.202823
   7 H :   -0.196830
   8 H :   -0.219817
   9 H :   -0.182461
  10 H :   -0.197716
  11 C :   -0.674954
  12 C :   -0.277277
  13 N :    0.182815
  14 O :    0.243907
  15 H :   -0.198535

  Mayer bond orders larger than 0.100000
B(  0-C ,  1-C ) :   1.0572 B(  0-C ,  2-C ) :  -0.1200 B(  0-C ,  5-C ) :   1.0788
B(  0-C ,  6-H ) :   0.9301 B(  1-C ,  2-C ) :   1.0197 B(  1-C ,  3-C ) :   0.1885
B(  1-C ,  6-H ) :  -0.1934 B(  1-C ,  7-H ) :   0.8195 B(  2-C ,  3-C ) :   0.6521
B(  2-C ,  4-C ) :   0.1038 B(  2-C ,  6-H ) :   0.1826 B(  2-C ,  7-H ) :  -0.1724
B(  2-C ,  8-H ) :   1.3568 B(  2-C ,  9-H ) :   0.1661 B(  3-C ,  4-C ) :   0.5347
B(  3-C ,  5-C ) :   0.1186 B(  3-C ,  8-H ) :  -0.1267 B(  3-C ,  9-H ) :  -0.1515
B(  3-C , 11-C ) :   0.6865 B(  3-C , 12-C ) :   0.2784 B(  4-C ,  5-C ) :   1.2679
B(  4-C ,  8-H ) :   0.1195 B(  4-C ,  9-H ) :   1.0475 B(  5-C ,  6-H ) :  -0.1633
B(  5-C ,  9-H ) :  -0.1273 B(  5-C , 10-H ) :   0.9375 B( 11-C , 12-C ) :   0.6590
B( 11-C , 14-O ) :   0.9443 B( 11-C , 15-H ) :   1.0277 B( 12-C , 13-N ) :   2.0920

MP2 TOTAL ENERGY:     -437.612166686 Eh
FINAL SINGLE POINT ENERGY      -437.612166686346

DIPOLE MOMENT
-------------
                                X             Y             Z
Electronic contribution:     -4.15064      -0.39377      -0.78379
Nuclear contribution   :      7.49246      -0.58893       1.24410
                        -----------------------------------------
Total Dipole Moment    :      3.34182      -0.98270       0.46031
                        -----------------------------------------
Magnitude (a.u.)       :      3.51360
Magnitude (Debye)      :      8.93086

Rotational constants in cm-1:     0.090680     0.032050     0.025563
Rotational constants in MHz :  2718.532322   960.829249   766.366197

                             ****ORCA TERMINATED NORMALLY****
TOTAL RUN TIME: 0 days 0 hours 3 minutes 38 seconds 903 msec
