                         Program Version 4.2.1 -  RELEASE  -
|  1> %pal
|  2>  nprocs 32
|  3> end
|  4> !RI-MP2 aug-cc-pVTZ aug-cc-pVTZ/C TightSCF
|  5> %maxcore 4500
|  6> *xyzfile -1 1  05_10P2.xyz
|  7>
|  8>
|  9>                          ****END OF INPUT****

CARTESIAN COORDINATES (ANGSTROEM)
---------------------------------
  C     -0.758600   -0.984018    0.572363
  C      0.616701   -1.104617   -0.035314
  C      1.486661   -0.066252    0.021860
  C     -1.684586    0.050256   -0.057746
  O      2.778625   -0.257527   -0.454875
  H      3.163135    0.623267   -0.391745
  O      1.250821    1.113339    0.465857
  O     -2.812037   -0.211283   -0.426648
  O     -1.199053    1.278135   -0.139282
  H     -0.214020    1.302915    0.155256
  H     -0.690772   -0.706218    1.636398
  H     -1.284742   -1.937036    0.523948
  H      0.918503   -2.036451   -0.491249

 Total Charge           Charge          ....   -1
 Multiplicity           Mult            ....    1
 Number of Electrons    NEL             ....   62
 Basis Dimension        Dim             ....  483

ORBITAL ENERGIES
----------------

  NO   OCC          E(Eh)            E(eV)
   0   2.0000     -20.427725      -555.8666
   1   2.0000     -20.409502      -555.3708
   2   2.0000     -20.369889      -554.2929
   3   2.0000     -20.345548      -553.6305
   4   2.0000     -11.206767      -304.9516
   5   2.0000     -11.176932      -304.1398
   6   2.0000     -11.085477      -301.6512
   7   2.0000     -11.026643      -300.0502
   8   2.0000      -1.276207       -34.7274
   9   2.0000      -1.260135       -34.2900
  10   2.0000      -1.179217       -32.0881
  11   2.0000      -1.142480       -31.0885
  12   2.0000      -0.895007       -24.3544
  13   2.0000      -0.776926       -21.1412
  14   2.0000      -0.651185       -17.7197
  15   2.0000      -0.589200       -16.0329
  16   2.0000      -0.550077       -14.9683
  17   2.0000      -0.524706       -14.2780
  18   2.0000      -0.502388       -13.6707
  19   2.0000      -0.481016       -13.0891
  20   2.0000      -0.452489       -12.3129
  21   2.0000      -0.437667       -11.9095
  22   2.0000      -0.416117       -11.3231
  23   2.0000      -0.389533       -10.5997
  24   2.0000      -0.372499       -10.1362
  25   2.0000      -0.358895        -9.7660
  26   2.0000      -0.318434        -8.6650
  27   2.0000      -0.296086        -8.0569
  28   2.0000      -0.279321        -7.6007
  29   2.0000      -0.268967        -7.3190
  30   2.0000      -0.132884        -3.6160
  31   0.0000       0.122269         3.3271
  32   0.0000       0.124953         3.4001
  33   0.0000       0.134635         3.6636
  34   0.0000       0.144133         3.9221
  35   0.0000       0.151000         4.1089

MULLIKEN ATOMIC CHARGES
-----------------------
   0 C :    0.007529
   1 C :   -0.563633
   2 C :    0.438293
   3 C :    0.473869
   4 O :   -0.550240
   5 H :    0.233891
   6 O :   -0.845245
   7 O :   -0.826832
   8 O :   -0.504467
   9 H :    0.330372
  10 H :    0.252586
  11 H :    0.191031
  12 H :    0.362846
Sum of atomic charges:   -1.0000000

LOEWDIN ATOMIC CHARGES
----------------------
   0 C :    0.178403
   1 C :    0.131424
   2 C :   -0.857694
   3 C :   -0.860417
   4 O :    0.773475
   5 H :   -0.556331
   6 O :    0.484113
   7 O :    0.362102
   8 O :    0.795337
   9 H :   -0.828495
  10 H :   -0.170196
  11 H :   -0.196363
  12 H :   -0.255359

  Mayer bond orders larger than 0.100000
B(  0-C ,  1-C ) :   0.8696 B(  0-C ,  3-C ) :   0.6515 B(  0-C , 10-H ) :   0.9091
B(  0-C , 11-H ) :   1.0280 B(  1-C ,  2-C ) :   1.2258 B(  1-C ,  3-C ) :   0.2362
B(  1-C , 12-H ) :   0.8868 B(  2-C ,  4-O ) :   0.8095 B(  2-C ,  6-O ) :   1.2284
B(  3-C ,  7-O ) :   1.3797 B(  3-C ,  8-O ) :   1.0582 B(  4-O ,  5-H ) :   0.9779
B(  6-O ,  9-H ) :   0.2047 B(  8-O ,  9-H ) :   0.7415

MP2 TOTAL ENERGY:     -455.697574513 Eh
FINAL SINGLE POINT ENERGY      -455.697574512770

DIPOLE MOMENT
-------------
                                X             Y             Z
Electronic contribution:     -1.00687       2.33327      -1.04774
Nuclear contribution   :      1.85170      -2.66466       1.39324
                        -----------------------------------------
Total Dipole Moment    :      0.84483      -0.33139       0.34551
                        -----------------------------------------
Magnitude (a.u.)       :      0.97104
Magnitude (Debye)      :      2.46820

Rotational constants in cm-1:     0.165367     0.042074     0.036024
Rotational constants in MHz :  4957.567558  1261.360929  1079.981145

                             ****ORCA TERMINATED NORMALLY****
TOTAL RUN TIME: 0 days 0 hours 1 minutes 36 seconds 285 msec
