                         Program Version 4.2.1 -  RELEASE  -
|  1> %pal
|  2>  nprocs 32
|  3> end
|  4> !RI-MP2 aug-cc-pVTZ aug-cc-pVTZ/C TightSCF
|  5> %maxcore 4500
|  6> *xyzfile 0 2  03_32P1.xyz
|  7>
|  8>
|  9>                          ****END OF INPUT****

CARTESIAN COORDINATES (ANGSTROEM)
---------------------------------
  C      2.973499    0.197347   -0.128648
  C      2.459417   -1.086304    0.427740
  C      2.073901    1.385320   -0.140769
  C      1.031987   -1.390878   -0.044918
  C      0.136972   -0.182339    0.151627
  C      0.654842    1.030583   -0.604181
  O     -1.172956   -0.549710   -0.334091
  C     -2.230507    0.101969    0.174438
  C     -3.509305   -0.382929   -0.443837
  O     -2.146337    0.959491    1.014092
  H      2.455596   -1.033330    1.530275
  H      3.123190   -1.915401    0.173047
  H      2.485072    2.179822   -0.767263
  H      2.008487    1.809337    0.875918
  H      0.620881   -2.245050    0.497660
  H      1.038749   -1.650005   -1.107700
  H      0.043085    0.058171    1.213654
  H     -0.017833    1.875710   -0.449909
  H      0.661037    0.792956   -1.672406
  H     -3.596612   -1.463066   -0.321696
  H     -3.499259   -0.173279   -1.514650
  H     -4.352384    0.118869    0.023785
  H      4.039493    0.330404   -0.269451

 Total Charge           Charge          ....    0
 Multiplicity           Mult            ....    2
 Number of Electrons    NEL             ....   77
 Basis Dimension        Dim             ....  759

ORBITAL ENERGIES
----------------
                 SPIN UP ORBITALS
  NO   OCC          E(Eh)            E(eV)
   0   1.0000     -20.594270      -560.3986
   1   1.0000     -20.538112      -558.8704
   2   1.0000     -11.375019      -309.5300
   3   1.0000     -11.284590      -307.0693
   4   1.0000     -11.237027      -305.7750
   5   1.0000     -11.229302      -305.5648
   6   1.0000     -11.226373      -305.4851
   7   1.0000     -11.224389      -305.4312
   8   1.0000     -11.224264      -305.4277
   9   1.0000     -11.220707      -305.3310
  10   1.0000      -1.456935       -39.6452
  11   1.0000      -1.356459       -36.9111
  12   1.0000      -1.130635       -30.7662
  13   1.0000      -1.038472       -28.2583
  14   1.0000      -1.017048       -27.6753
  15   1.0000      -0.992161       -26.9981
  16   1.0000      -0.856527       -23.3073
  17   1.0000      -0.846661       -23.0388
  18   1.0000      -0.769727       -20.9453
  19   1.0000      -0.758684       -20.6448
  20   1.0000      -0.688594       -18.7376
  21   1.0000      -0.677947       -18.4479
  22   1.0000      -0.657750       -17.8983
  23   1.0000      -0.641159       -17.4468
  24   1.0000      -0.608945       -16.5702
  25   1.0000      -0.602919       -16.4063
  26   1.0000      -0.582108       -15.8400
  27   1.0000      -0.575445       -15.6587
  28   1.0000      -0.550488       -14.9795
  29   1.0000      -0.544930       -14.8283
  30   1.0000      -0.540642       -14.7116
  31   1.0000      -0.518331       -14.1045
  32   1.0000      -0.493946       -13.4409
  33   1.0000      -0.487772       -13.2730
  34   1.0000      -0.476114       -12.9557
  35   1.0000      -0.462083       -12.5739
  36   1.0000      -0.442870       -12.0511
  37   1.0000      -0.431446       -11.7403
  38   1.0000      -0.331922        -9.0321
  39   0.0000       0.027981         0.7614
  40   0.0000       0.030586         0.8323
  41   0.0000       0.033783         0.9193
  42   0.0000       0.038611         1.0506
  43   0.0000       0.045703         1.2437

                 SPIN DOWN ORBITALS
  NO   OCC          E(Eh)            E(eV)
   0   1.0000     -20.594208      -560.3969
   1   1.0000     -20.538110      -558.8704
   2   1.0000     -11.375018      -309.5300
   3   1.0000     -11.284782      -307.0745
   4   1.0000     -11.237024      -305.7750
   5   1.0000     -11.229451      -305.5689
   6   1.0000     -11.227455      -305.5146
   7   1.0000     -11.223372      -305.4035
   8   1.0000     -11.219795      -305.3061
   9   1.0000     -11.205481      -304.9166
  10   1.0000      -1.456864       -39.6433
  11   1.0000      -1.356406       -36.9097
  12   1.0000      -1.118286       -30.4301
  13   1.0000      -1.027591       -27.9622
  14   1.0000      -1.015879       -27.6435
  15   1.0000      -0.974829       -26.5264
  16   1.0000      -0.852233       -23.1904
  17   1.0000      -0.832093       -22.6424
  18   1.0000      -0.768675       -20.9167
  19   1.0000      -0.732260       -19.9258
  20   1.0000      -0.687142       -18.6981
  21   1.0000      -0.674700       -18.3595
  22   1.0000      -0.655682       -17.8420
  23   1.0000      -0.635494       -17.2927
  24   1.0000      -0.603436       -16.4203
  25   1.0000      -0.590865       -16.0783
  26   1.0000      -0.576099       -15.6765
  27   1.0000      -0.572082       -15.5672
  28   1.0000      -0.544148       -14.8070
  29   1.0000      -0.539893       -14.6912
  30   1.0000      -0.532689       -14.4952
  31   1.0000      -0.514995       -14.0137
  32   1.0000      -0.487094       -13.2545
  33   1.0000      -0.483884       -13.1672
  34   1.0000      -0.472889       -12.8680
  35   1.0000      -0.458438       -12.4747
  36   1.0000      -0.441653       -12.0180
  37   1.0000      -0.429845       -11.6967
  38   0.0000       0.027764         0.7555
  39   0.0000       0.030732         0.8363
  40   0.0000       0.033853         0.9212
  41   0.0000       0.038805         1.0560
  42   0.0000       0.045407         1.2356

MULLIKEN ATOMIC CHARGES AND SPIN POPULATIONS
--------------------------------------------
   0 C :   -0.912387    1.294544
   1 C :   -0.234375   -0.204445
   2 C :   -0.290872   -0.206869
   3 C :   -0.705494    0.015803
   4 C :    0.810802    0.000024
   5 C :   -0.689039    0.017671
   6 O :   -0.555998    0.000943
   7 C :    0.354243    0.001963
   8 C :   -0.669308    0.000420
   9 O :   -0.820380   -0.000228
  10 H :    0.199880    0.083005
  11 H :    0.280962    0.006058
  12 H :    0.267581    0.006403
  13 H :    0.211251    0.085939
  14 H :    0.271505    0.001093
  15 H :    0.200042   -0.005803
  16 H :    0.469938    0.002071
  17 H :    0.316432    0.000954
  18 H :    0.218370   -0.005214
  19 H :    0.279193    0.000017
  20 H :    0.259773    0.000120
  21 H :    0.375770    0.000046
  22 H :    0.362109   -0.094515
Sum of atomic charges         :    0.0000000

LOEWDIN ATOMIC CHARGES AND SPIN POPULATIONS
-------------------------------------------
   0 C :    0.309849    0.548028
   1 C :    0.261616    0.114173
   2 C :    0.264494    0.114031
   3 C :    0.292066    0.014898
   4 C :   -0.253097    0.001154
   5 C :    0.295427    0.014936
   6 O :    0.611062    0.000663
   7 C :   -0.827677    0.000250
   8 C :    0.584574    0.000067
   9 O :    0.467039    0.000063
  10 H :   -0.139893    0.029758
  11 H :   -0.153473    0.004794
  12 H :   -0.152783    0.004737
  13 H :   -0.137909    0.029484
  14 H :   -0.137216    0.001611
  15 H :   -0.137739    0.003379
  16 H :   -0.150963    0.000782
  17 H :   -0.146068    0.001635
  18 H :   -0.136275    0.003411
  19 H :   -0.175147    0.000015
  20 H :   -0.173218    0.000017
  21 H :   -0.183773    0.000020
  22 H :   -0.180895    0.112094

  Mayer bond orders larger than 0.100000
B(  0-C ,  1-C ) :   0.6953 B(  0-C ,  2-C ) :   0.7206 B(  0-C ,  3-C ) :   0.1685
B(  0-C ,  5-C ) :   0.1184 B(  0-C , 22-H ) :   0.8343 B(  1-C ,  3-C ) :   0.9917
B(  1-C , 10-H ) :   0.9940 B(  1-C , 11-H ) :   0.9530 B(  2-C ,  5-C ) :   0.9725
B(  2-C , 12-H ) :   0.9441 B(  2-C , 13-H ) :   0.9872 B(  3-C ,  4-C ) :   0.7663
B(  3-C ,  5-C ) :   0.1948 B(  3-C , 14-H ) :   0.9520 B(  3-C , 15-H ) :   1.0215
B(  4-C ,  5-C ) :   0.8250 B(  4-C ,  6-O ) :   0.1481 B(  4-C ,  7-C ) :  -0.1492
B(  4-C , 16-H ) :   0.8872 B(  5-C ,  6-O ) :   0.1570 B(  5-C , 17-H ) :   0.9235
B(  5-C , 18-H ) :   0.9705 B(  6-O ,  7-C ) :   1.1845 B(  6-O ,  8-C ) :  -0.1124
B(  6-O , 16-H ) :  -0.1298 B(  7-C ,  8-C ) :   0.7292 B(  7-C ,  9-O ) :   1.5555
B(  8-C ,  9-O ) :  -0.1019 B(  8-C , 19-H ) :   0.9715 B(  8-C , 20-H ) :   0.9838
B(  8-C , 21-H ) :   0.9001

MP2 TOTAL ENERGY:     -462.207737306 Eh
FINAL SINGLE POINT ENERGY      -462.207737306251

DIPOLE MOMENT
-------------
                                X             Y             Z
Electronic contribution:     -4.80405       0.80043       1.32341
Nuclear contribution   :      5.07731      -1.34011      -1.82110
                        -----------------------------------------
Total Dipole Moment    :      0.27326      -0.53968      -0.49770
                        -----------------------------------------
Magnitude (a.u.)       :      0.78334
Magnitude (Debye)      :      1.99110

Rotational constants in cm-1:     0.103367     0.024740     0.022070
Rotational constants in MHz :  3098.859737   741.671928   661.645564

                             ****ORCA TERMINATED NORMALLY****
TOTAL RUN TIME: 0 days 0 hours 11 minutes 48 seconds 134 msec
