                         Program Version 4.2.1 -  RELEASE  -
|  1> %pal
|  2>  nprocs 32
|  3> end
|  4> !RI-MP2 aug-cc-pVTZ aug-cc-pVTZ/C TightSCF
|  5> %maxcore 4500
|  6> *xyzfile 0 1  05_28R1.xyz
|  7>
|  8>
|  9>                          ****END OF INPUT****

CARTESIAN COORDINATES (ANGSTROEM)
---------------------------------
  C     -1.923523   -1.083082   -0.812182
  O     -2.892021   -0.800228    0.223607
  C     -0.640840   -0.356477   -0.588336
  H     -0.693000    0.724080   -0.661250
  C      0.503541   -0.981017   -0.325925
  H      0.489668   -2.065869   -0.244298
  C      1.820040   -0.362002   -0.116333
  C      2.069853    0.990100   -0.365749
  C      2.869785   -1.152544    0.352393
  C      3.323454    1.531136   -0.138568
  H      1.280482    1.623602   -0.750361
  C      4.126899   -0.612202    0.580956
  H      2.693951   -2.205296    0.544228
  C      4.357839    0.733319    0.337669
  H      3.498484    2.581293   -0.339412
  H      4.926575   -1.244125    0.948116
  H      5.338307    1.159410    0.511988
  C     -3.540793    0.372113    0.137770
  O     -3.351882    1.169187   -0.743509
  C     -4.505252    0.541175    1.273855
  H     -3.955378    0.565922    2.216049
  H     -5.060222    1.466630    1.144600
  H     -5.188164   -0.307969    1.314063
  H     -1.780791   -2.161085   -0.765310
  H     -2.364700   -0.811383   -1.772490

 Total Charge           Charge          ....    0
 Multiplicity           Mult            ....    1
 Number of Electrons    NEL             ....   94
 Basis Dimension        Dim             ....  874

ORBITAL ENERGIES
----------------

  NO   OCC          E(Eh)            E(eV)
   0   2.0000     -20.601217      -560.5876
   1   2.0000     -20.542972      -559.0027
   2   2.0000     -11.379148      -309.6424
   3   2.0000     -11.294174      -307.3301
   4   2.0000     -11.246738      -306.0393
   5   2.0000     -11.243715      -305.9571
   6   2.0000     -11.239783      -305.8500
   7   2.0000     -11.237628      -305.7914
   8   2.0000     -11.237194      -305.7796
   9   2.0000     -11.236396      -305.7579
  10   2.0000     -11.235623      -305.7368
  11   2.0000     -11.235161      -305.7243
  12   2.0000     -11.234290      -305.7006
  13   2.0000      -1.462132       -39.7866
  14   2.0000      -1.360156       -37.0117
  15   2.0000      -1.165079       -31.7034
  16   2.0000      -1.094963       -29.7955
  17   2.0000      -1.040917       -28.3248
  18   2.0000      -1.020701       -27.7747
  19   2.0000      -1.007338       -27.4111
  20   2.0000      -0.934473       -25.4283
  21   2.0000      -0.847929       -23.0733
  22   2.0000      -0.828404       -22.5420
  23   2.0000      -0.787228       -21.4216
  24   2.0000      -0.752862       -20.4864
  25   2.0000      -0.714311       -19.4374
  26   2.0000      -0.693392       -18.8682
  27   2.0000      -0.679511       -18.4904
  28   2.0000      -0.672454       -18.2984
  29   2.0000      -0.645082       -17.5536
  30   2.0000      -0.632809       -17.2196
  31   2.0000      -0.611637       -16.6435
  32   2.0000      -0.594076       -16.1656
  33   2.0000      -0.587395       -15.9838
  34   2.0000      -0.581327       -15.8187
  35   2.0000      -0.557482       -15.1698
  36   2.0000      -0.550043       -14.9674
  37   2.0000      -0.527650       -14.3581
  38   2.0000      -0.521526       -14.1914
  39   2.0000      -0.515492       -14.0273
  40   2.0000      -0.499241       -13.5850
  41   2.0000      -0.491563       -13.3761
  42   2.0000      -0.460170       -12.5219
  43   2.0000      -0.448374       -12.2009
  44   2.0000      -0.412080       -11.2133
  45   2.0000      -0.342028        -9.3071
  46   2.0000      -0.308961        -8.4072
  47   0.0000       0.026945         0.7332
  48   0.0000       0.029369         0.7992
  49   0.0000       0.032073         0.8727
  50   0.0000       0.038071         1.0360
  51   0.0000       0.042029         1.1437

MULLIKEN ATOMIC CHARGES
-----------------------
   0 C :   -0.130595
   1 O :   -0.469419
   2 C :   -0.357701
   3 H :    0.286290
   4 C :   -0.321730
   5 H :    0.195338
   6 C :    2.033757
   7 C :   -0.609737
   8 C :   -1.012771
   9 C :   -0.910043
  10 H :   -0.088083
  11 C :   -0.706355
  12 H :   -0.003044
  13 C :   -0.092324
  14 H :    0.514460
  15 H :    0.585725
  16 H :    0.388459
  17 C :    0.490777
  18 O :   -0.796600
  19 C :   -0.638020
  20 H :    0.282147
  21 H :    0.367744
  22 H :    0.298458
  23 H :    0.299249
  24 H :    0.394016
Sum of atomic charges:    0.0000000

LOEWDIN ATOMIC CHARGES
----------------------
   0 C :    0.044847
   1 O :    0.580506
   2 C :    0.231637
   3 H :   -0.196356
   4 C :    0.222379
   5 H :   -0.186327
   6 C :   -0.129520
   7 C :    0.216858
   8 C :    0.206718
   9 C :    0.201521
  10 H :   -0.187925
  11 C :    0.197806
  12 H :   -0.179113
  13 C :    0.194773
  14 H :   -0.181011
  15 H :   -0.182239
  16 H :   -0.183767
  17 C :   -0.843212
  18 O :    0.462768
  19 C :    0.583450
  20 H :   -0.172783
  21 H :   -0.183429
  22 H :   -0.175469
  23 H :   -0.170316
  24 H :   -0.171794

  Mayer bond orders larger than 0.100000
B(  0-C ,  1-O ) :   0.8451 B(  0-C ,  2-C ) :   0.5591 B(  0-C , 23-H ) :   0.9827
B(  0-C , 24-H ) :   0.9109 B(  1-O ,  2-C ) :  -0.1454 B(  1-O , 17-C ) :   1.0678
B(  2-C ,  3-H ) :   1.4299 B(  2-C ,  4-C ) :   1.0153 B(  2-C ,  6-C ) :  -0.1150
B(  3-H ,  4-C ) :  -0.1430 B(  3-H , 18-O ) :  -0.1192 B(  4-C ,  5-H ) :   1.1157
B(  4-C ,  6-C ) :   0.2720 B(  4-C ,  7-C ) :   0.2933 B(  4-C , 12-H ) :  -0.2057
B(  4-C , 13-C ) :   0.1394 B(  4-C , 15-H ) :   0.1100 B(  6-C ,  7-C ) :   0.5008
B(  6-C ,  8-C ) :   0.2159 B(  6-C ,  9-C ) :   0.1124 B(  6-C , 10-H ) :  -0.3915
B(  6-C , 12-H ) :  -0.3118 B(  7-C ,  8-C ) :  -0.4068 B(  7-C ,  9-C ) :   1.1219
B(  7-C , 10-H ) :   1.8533 B(  7-C , 12-H ) :   0.1966 B(  7-C , 13-C ) :  -0.2289
B(  8-C ,  9-C ) :   0.1557 B(  8-C , 10-H ) :   0.1954 B(  8-C , 11-C ) :   1.1741
B(  8-C , 12-H ) :   1.8693 B(  8-C , 13-C ) :  -0.2455 B(  8-C , 15-H ) :  -0.2112
B(  8-C , 16-H ) :   0.2355 B(  9-C , 10-H ) :  -0.1216 B(  9-C , 11-C ) :   0.2814
B(  9-C , 13-C ) :   1.0825 B(  9-C , 14-H ) :   0.6354 B(  9-C , 16-H ) :  -0.1848
B( 10-H , 12-H ) :   0.1518 B( 11-C , 12-H ) :  -0.1278 B( 11-C , 13-C ) :   1.0647
B( 11-C , 15-H ) :   0.5441 B( 11-C , 16-H ) :  -0.1760 B( 13-C , 16-H ) :   0.8975
B( 17-C , 18-O ) :   1.5251 B( 17-C , 19-C ) :   0.6724 B( 19-C , 20-H ) :   0.9577
B( 19-C , 21-H ) :   0.9048 B( 19-C , 22-H ) :   0.9448

MP2 TOTAL ENERGY:     -575.728684091 Eh
FINAL SINGLE POINT ENERGY      -575.728684090589

DIPOLE MOMENT
-------------
                                X             Y             Z
Electronic contribution:      1.04298       0.10976      -1.63199
Nuclear contribution   :     -0.91490      -0.67020       2.14166
                        -----------------------------------------
Total Dipole Moment    :      0.12809      -0.56044       0.50967
                        -----------------------------------------
Magnitude (a.u.)       :      0.76828
Magnitude (Debye)      :      1.95282

Rotational constants in cm-1:     0.073662     0.009718     0.009204
Rotational constants in MHz :  2208.318086   291.350247   275.928528

                             ****ORCA TERMINATED NORMALLY****
TOTAL RUN TIME: 0 days 0 hours 9 minutes 4 seconds 811 msec
