                         Program Version 4.2.1 -  RELEASE  -
|  1> %pal
|  2>  nprocs 32
|  3> end
|  4> !RI-MP2 aug-cc-pVTZ aug-cc-pVTZ/C TightSCF
|  5> %maxcore 4500
|  6> *xyzfile -1 1  09_8P.xyz
|  7>
|  8>
|  9>                          ****END OF INPUT****

CARTESIAN COORDINATES (ANGSTROEM)
---------------------------------
  C      3.147244    1.037445   -0.583902
  C      2.564107   -0.260624   -0.054686
  C      1.100476   -0.463575   -0.236856
  O      3.284961   -1.041250    0.541967
  C      0.260717    0.547853    0.620236
  C     -1.238943    0.500465    0.519132
  C     -1.782421   -0.374468   -0.306784
  O     -3.170369   -0.539169   -0.531959
  C     -3.995256    0.320806    0.204789
  H      2.970986    1.823304    0.155855
  H      4.221965    0.926581   -0.726537
  H      2.664411    1.352159   -1.510716
  H     -1.297562   -1.117115   -0.951853
  H     -5.025704    0.072586   -0.069901
  H     -3.845099    0.195834    1.283327
  H     -3.782244    1.372687   -0.018996
  H      0.845091   -1.485777    0.044082
  H      0.834871   -0.309733   -1.288199
  H      0.563921    0.404375    1.665949
  H      0.597088    1.561039    0.365349

 Total Charge           Charge          ....   -1
 Multiplicity           Mult            ....    1
 Number of Electrons    NEL             ....   70
 Basis Dimension        Dim             ....  667

ORBITAL ENERGIES
----------------

  NO   OCC          E(Eh)            E(eV)
   0   2.0000     -20.418425      -555.6136
   1   2.0000     -20.384720      -554.6964
   2   2.0000     -11.202885      -304.8460
   3   2.0000     -11.120316      -302.5992
   4   2.0000     -11.104417      -302.1666
   5   2.0000     -11.082742      -301.5767
   6   2.0000     -11.069669      -301.2210
   7   2.0000     -11.061594      -301.0013
   8   2.0000     -10.973377      -298.6008
   9   2.0000      -1.258207       -34.2375
  10   2.0000      -1.197280       -32.5797
  11   2.0000      -0.932513       -25.3750
  12   2.0000      -0.873174       -23.7603
  13   2.0000      -0.809115       -22.0171
  14   2.0000      -0.763651       -20.7800
  15   2.0000      -0.696772       -18.9601
  16   2.0000      -0.608226       -16.5507
  17   2.0000      -0.542190       -14.7537
  18   2.0000      -0.520202       -14.1554
  19   2.0000      -0.516860       -14.0645
  20   2.0000      -0.485199       -13.2029
  21   2.0000      -0.480730       -13.0813
  22   2.0000      -0.461595       -12.5606
  23   2.0000      -0.450490       -12.2585
  24   2.0000      -0.425778       -11.5860
  25   2.0000      -0.407576       -11.0907
  26   2.0000      -0.379452       -10.3254
  27   2.0000      -0.365130        -9.9357
  28   2.0000      -0.349047        -9.4981
  29   2.0000      -0.341860        -9.3025
  30   2.0000      -0.305812        -8.3216
  31   2.0000      -0.299833        -8.1589
  32   2.0000      -0.281610        -7.6630
  33   2.0000      -0.122603        -3.3362
  34   2.0000      -0.100936        -2.7466
  35   0.0000       0.101858         2.7717
  36   0.0000       0.116229         3.1628
  37   0.0000       0.121966         3.3189
  38   0.0000       0.123884         3.3711
  39   0.0000       0.133010         3.6194

MULLIKEN ATOMIC CHARGES
-----------------------
   0 C :   -0.814375
   1 C :    0.585861
   2 C :   -0.247275
   3 O :   -0.984574
   4 C :   -0.309906
   5 C :   -0.662909
   6 C :   -0.169609
   7 O :   -0.643002
   8 C :   -0.844832
   9 H :    0.285034
  10 H :    0.273599
  11 H :    0.313238
  12 H :    0.503920
  13 H :    0.354613
  14 H :    0.311059
  15 H :    0.311585
  16 H :    0.158058
  17 H :    0.242126
  18 H :    0.198414
  19 H :    0.138973
Sum of atomic charges:   -1.0000000

LOEWDIN ATOMIC CHARGES
----------------------
   0 C :    0.569813
   1 C :   -0.549261
   2 C :    0.214649
   3 O :    0.431977
   4 C :    0.089283
   5 C :    0.043009
   6 C :   -0.245032
   7 O :    0.465001
   8 C :    0.194181
   9 H :   -0.177466
  10 H :   -0.191100
  11 H :   -0.178406
  12 H :   -0.269148
  13 H :   -0.217067
  14 H :   -0.215971
  15 H :   -0.215637
  16 H :   -0.169881
  17 H :   -0.172718
  18 H :   -0.192003
  19 H :   -0.214224

  Mayer bond orders larger than 0.100000
B(  0-C ,  1-C ) :   0.8919 B(  0-C ,  9-H ) :   0.9325 B(  0-C , 10-H ) :   0.9806
B(  0-C , 11-H ) :   0.9212 B(  1-C ,  2-C ) :   0.7432 B(  1-C ,  3-O ) :   0.9350
B(  1-C ,  4-C ) :   0.1685 B(  2-C ,  4-C ) :   0.8271 B(  2-C ,  5-C ) :   0.2342
B(  2-C , 16-H ) :   1.0126 B(  2-C , 17-H ) :   0.9838 B(  4-C ,  5-C ) :   0.7218
B(  4-C ,  6-C ) :   0.1572 B(  4-C , 18-H ) :   1.0001 B(  4-C , 19-H ) :   1.0444
B(  5-C ,  6-C ) :   1.0237 B(  5-C ,  7-O ) :  -0.1012 B(  6-C ,  7-O ) :   0.6611
B(  6-C , 12-H ) :   0.8018 B(  7-O ,  8-C ) :   1.0273 B(  7-O , 12-H ) :  -0.1458
B(  8-C , 13-H ) :   0.8870 B(  8-C , 14-H ) :   0.9063 B(  8-C , 15-H ) :   0.9072

MP2 TOTAL ENERGY:     -422.943822783 Eh
FINAL SINGLE POINT ENERGY      -422.943822783082

DIPOLE MOMENT
-------------
                                X             Y             Z
Electronic contribution:      2.98014      -4.45833       0.07665
Nuclear contribution   :     -1.27431       4.86197      -1.07153
                        -----------------------------------------
Total Dipole Moment    :      1.70583       0.40364      -0.99488
                        -----------------------------------------
Magnitude (a.u.)       :      2.01558
Magnitude (Debye)      :      5.12320

Rotational constants in cm-1:     0.176964     0.018298     0.017751
Rotational constants in MHz :  5305.258670   548.558283   532.170393

                             ****ORCA TERMINATED NORMALLY****
TOTAL RUN TIME: 0 days 0 hours 4 minutes 9 seconds 438 msec
