                         Program Version 4.2.1 -  RELEASE  -
|  1> %pal
|  2>  nprocs 32
|  3> end
|  4> !RI-MP2 aug-cc-pVTZ aug-cc-pVTZ/C TightSCF
|  5> %maxcore 4500
|  6> *xyzfile 0 2  04_1P.xyz
|  7>
|  8>
|  9>                          ****END OF INPUT****

CARTESIAN COORDINATES (ANGSTROEM)
---------------------------------
  C     -2.347846   -0.113801   -0.134832
  C     -0.917347   -0.352395    0.332656
  H     -0.882737   -0.352355    1.428093
  C      1.496808    0.411362    0.219840
  H      2.180156    1.226104   -0.084264
  O      2.035200   -0.746857   -0.259811
  H     -0.582082   -1.343394    0.013486
  H      1.603288    0.388256    1.321206
  C      0.061647    0.688955   -0.198998
  H     -0.222451    1.686768    0.154799
  H      0.017561    0.716281   -1.292581
  H     -2.712437    0.864718    0.189470
  H     -3.028234   -0.870005    0.261705
  H     -2.414241   -0.146242   -1.225419

 Total Charge           Charge          ....    0
 Multiplicity           Mult            ....    2
 Number of Electrons    NEL             ....   41
 Basis Dimension        Dim             ....  437

ORBITAL ENERGIES
----------------
                 SPIN UP ORBITALS
  NO   OCC          E(Eh)            E(eV)
   0   1.0000     -20.615490      -560.9760
   1   1.0000     -11.279664      -306.9353
   2   1.0000     -11.223426      -305.4049
   3   1.0000     -11.220926      -305.3369
   4   1.0000     -11.214059      -305.1501
   5   1.0000      -1.407922       -38.3115
   6   1.0000      -1.073490       -29.2111
   7   1.0000      -0.975875       -26.5549
   8   1.0000      -0.862412       -23.4674
   9   1.0000      -0.796129       -21.6638
  10   1.0000      -0.706657       -19.2291
  11   1.0000      -0.663905       -18.0658
  12   1.0000      -0.624149       -16.9840
  13   1.0000      -0.614353       -16.7174
  14   1.0000      -0.570511       -15.5244
  15   1.0000      -0.541899       -14.7458
  16   1.0000      -0.524659       -14.2767
  17   1.0000      -0.501438       -13.6448
  18   1.0000      -0.473792       -12.8925
  19   1.0000      -0.466210       -12.6862
  20   1.0000      -0.449504       -12.2316
  21   0.0000       0.030002         0.8164
  22   0.0000       0.034885         0.9493
  23   0.0000       0.038137         1.0378
  24   0.0000       0.043172         1.1748
  25   0.0000       0.054698         1.4884

                 SPIN DOWN ORBITALS
  NO   OCC          E(Eh)            E(eV)
   0   1.0000     -20.576067      -559.9033
   1   1.0000     -11.282572      -307.0144
   2   1.0000     -11.223468      -305.4061
   3   1.0000     -11.220930      -305.3370
   4   1.0000     -11.214072      -305.1504
   5   1.0000      -1.280346       -34.8400
   6   1.0000      -1.068218       -29.0677
   7   1.0000      -0.964887       -26.2559
   8   1.0000      -0.849192       -23.1077
   9   1.0000      -0.788596       -21.4588
  10   1.0000      -0.651753       -17.7351
  11   1.0000      -0.621072       -16.9002
  12   1.0000      -0.603089       -16.4109
  13   1.0000      -0.592261       -16.1162
  14   1.0000      -0.548285       -14.9196
  15   1.0000      -0.522807       -14.2263
  16   1.0000      -0.504053       -13.7160
  17   1.0000      -0.473976       -12.8975
  18   1.0000      -0.471698       -12.8356
  19   1.0000      -0.428546       -11.6613
  20   0.0000       0.030032         0.8172
  21   0.0000       0.034911         0.9500
  22   0.0000       0.038151         1.0381
  23   0.0000       0.043259         1.1771
  24   0.0000       0.054560         1.4847

MULLIKEN ATOMIC CHARGES AND SPIN POPULATIONS
--------------------------------------------
   0 C :   -0.949887   -0.001700
   1 C :   -0.414211    0.000539
   2 H :    0.239288    0.000252
   3 C :   -0.110025   -0.215703
   4 H :    0.299253    0.084318
   5 O :   -0.551661    1.035363
   6 H :    0.293697   -0.001594
   7 H :    0.273571    0.080441
   8 C :   -0.461823    0.024097
   9 H :    0.285319   -0.002191
  10 H :    0.281276   -0.003921
  11 H :    0.267545   -0.000052
  12 H :    0.276054    0.000071
  13 H :    0.271605    0.000082
Sum of atomic charges         :   -0.0000000

LOEWDIN ATOMIC CHARGES AND SPIN POPULATIONS
-------------------------------------------
   0 C :    0.574597   -0.000069
   1 C :    0.237714    0.000411
   2 H :   -0.148418    0.000043
   3 C :   -0.118810    0.124893
   4 H :   -0.166459    0.025039
   5 O :    0.507692    0.832646
   6 H :   -0.153894    0.000174
   7 H :   -0.164691    0.021915
   8 C :    0.242986   -0.003551
   9 H :   -0.147339   -0.000648
  10 H :   -0.150676   -0.000798
  11 H :   -0.170286    0.000004
  12 H :   -0.172329   -0.000027
  13 H :   -0.170087   -0.000030

  Mayer bond orders larger than 0.100000
B(  0-C ,  1-C ) :   0.8879 B(  0-C , 11-H ) :   0.9500 B(  0-C , 12-H ) :   0.9768
B(  0-C , 13-H ) :   0.9530 B(  1-C ,  2-H ) :   0.9561 B(  1-C ,  6-H ) :   0.9292
B(  1-C ,  8-C ) :   0.8686 B(  3-C ,  4-H ) :   0.9381 B(  3-C ,  5-O ) :   0.6997
B(  3-C ,  7-H ) :   0.9314 B(  3-C ,  8-C ) :   0.9443 B(  8-C ,  9-H ) :   0.9311
B(  8-C , 10-H ) :   0.9083

MP2 TOTAL ENERGY:     -232.522226919 Eh
FINAL SINGLE POINT ENERGY      -232.522226918629

DIPOLE MOMENT
-------------
                                X             Y             Z
Electronic contribution:      5.99528      -1.68427      -0.55679
Nuclear contribution   :     -6.32847       2.27307       0.80292
                        -----------------------------------------
Total Dipole Moment    :     -0.33319       0.58880       0.24613
                        -----------------------------------------
Magnitude (a.u.)       :      0.71992
Magnitude (Debye)      :      1.82988

Rotational constants in cm-1:     0.449976     0.079869     0.074272
Rotational constants in MHz : 13489.935003  2394.418998  2226.631613

                             ****ORCA TERMINATED NORMALLY****
TOTAL RUN TIME: 0 days 0 hours 3 minutes 17 seconds 242 msec
