                         Program Version 4.2.1 -  RELEASE  -
|  1> %pal
|  2>  nprocs 32
|  3> end
|  4> !RI-MP2 aug-cc-pVTZ aug-cc-pVTZ/C TightSCF
|  5> %maxcore 4500
|  6> *xyzfile 0 2  04_69R.xyz
|  7>
|  8>
|  9>                          ****END OF INPUT****

CARTESIAN COORDINATES (ANGSTROEM)
---------------------------------
  C      0.358504   -0.700676    0.625255
  C      1.309711   -1.488528   -0.243046
  C      2.119115   -0.586746   -1.210004
  H      0.747513   -2.216922   -0.835656
  H      1.999976   -2.048985    0.393058
  C      2.970518    0.434320   -0.529224
  H      1.429585   -0.095545   -1.901905
  H      2.748069   -1.251356   -1.813988
  C      2.473345    1.825923   -0.335658
  C      4.142706   -0.018859    0.272730
  N      0.554734   -0.445877    1.852491
  C     -0.905773   -0.206571   -0.042818
  H     -0.685873   -0.047053   -1.106300
  C     -1.426742    1.105206    0.543295
  C     -1.989075   -1.297008    0.040330
  H      4.946024    0.724164    0.260345
  H      4.548476   -0.964396   -0.096363
  H      3.884679   -0.170024    1.332942
  H      3.298260    2.545098   -0.317062
  H      1.938174    1.936802    0.619369
  H      1.780678    2.123231   -1.126783
  H     -1.626760   -2.230084   -0.401063
  C     -3.279034   -0.855637   -0.648087
  H     -2.184583   -1.501444    1.098338
  H     -0.658933    1.878019    0.456108
  H     -1.598753    0.963893    1.613121
  C     -2.714613    1.549222   -0.147222
  H     -2.504562    1.780184   -1.199045
  H     -3.080285    2.474481    0.306025
  C     -3.789720    0.466099   -0.077726
  H     -4.688903    0.786301   -0.611171
  H     -4.080984    0.316289    0.968421
  H     -4.040150   -1.634036   -0.546090
  H     -3.093232   -0.738547   -1.722602
  H      1.424806   -0.869393    2.175912

 Total Charge           Charge          ....    0
 Multiplicity           Mult            ....    2
 Number of Electrons    NEL             ....  101
 Basis Dimension        Dim             .... 1104

ORBITAL ENERGIES
----------------
                 SPIN UP ORBITALS
  NO   OCC          E(Eh)            E(eV)
   0   1.0000     -15.532275      -422.6547
   1   1.0000     -11.273143      -306.7578
   2   1.0000     -11.234522      -305.7069
   3   1.0000     -11.229682      -305.5752
   4   1.0000     -11.227747      -305.5225
   5   1.0000     -11.224541      -305.4353
   6   1.0000     -11.218502      -305.2710
   7   1.0000     -11.216154      -305.2071
   8   1.0000     -11.215193      -305.1809
   9   1.0000     -11.211778      -305.0880
  10   1.0000     -11.211059      -305.0684
  11   1.0000     -11.210642      -305.0571
  12   1.0000     -11.205849      -304.9267
  13   1.0000      -1.212845       -33.0032
  14   1.0000      -1.113810       -30.3083
  15   1.0000      -1.106395       -30.1065
  16   1.0000      -1.025469       -27.9044
  17   1.0000      -1.003201       -27.2985
  18   1.0000      -1.000534       -27.2259
  19   1.0000      -0.938613       -25.5410
  20   1.0000      -0.895033       -24.3551
  21   1.0000      -0.846846       -23.0438
  22   1.0000      -0.828925       -22.5562
  23   1.0000      -0.763214       -20.7681
  24   1.0000      -0.746909       -20.3244
  25   1.0000      -0.727231       -19.7890
  26   1.0000      -0.659106       -17.9352
  27   1.0000      -0.643536       -17.5115
  28   1.0000      -0.630652       -17.1609
  29   1.0000      -0.613258       -16.6876
  30   1.0000      -0.603544       -16.4233
  31   1.0000      -0.596665       -16.2361
  32   1.0000      -0.592209       -16.1148
  33   1.0000      -0.582974       -15.8635
  34   1.0000      -0.567550       -15.4438
  35   1.0000      -0.552176       -15.0255
  36   1.0000      -0.536265       -14.5925
  37   1.0000      -0.526347       -14.3226
  38   1.0000      -0.523114       -14.2347
  39   1.0000      -0.515516       -14.0279
  40   1.0000      -0.504194       -13.7198
  41   1.0000      -0.485082       -13.1997
  42   1.0000      -0.484112       -13.1734
  43   1.0000      -0.479718       -13.0538
  44   1.0000      -0.473585       -12.8869
  45   1.0000      -0.450633       -12.2623
  46   1.0000      -0.440132       -11.9766
  47   1.0000      -0.434784       -11.8311
  48   1.0000      -0.403771       -10.9872
  49   1.0000      -0.393983       -10.7208
  50   1.0000      -0.311146        -8.4667
  51   0.0000       0.024280         0.6607
  52   0.0000       0.030312         0.8248
  53   0.0000       0.031475         0.8565
  54   0.0000       0.034838         0.9480
  55   0.0000       0.041792         1.1372

                 SPIN DOWN ORBITALS
  NO   OCC          E(Eh)            E(eV)
   0   1.0000     -15.532227      -422.6534
   1   1.0000     -11.273287      -306.7617
   2   1.0000     -11.232976      -305.6648
   3   1.0000     -11.231966      -305.6373
   4   1.0000     -11.224540      -305.4353
   5   1.0000     -11.219350      -305.2940
   6   1.0000     -11.218499      -305.2709
   7   1.0000     -11.215191      -305.1809
   8   1.0000     -11.214251      -305.1553
   9   1.0000     -11.211778      -305.0880
  10   1.0000     -11.210642      -305.0571
  11   1.0000     -11.205848      -304.9266
  12   1.0000     -11.203195      -304.8544
  13   1.0000      -1.212299       -32.9883
  14   1.0000      -1.113775       -30.3074
  15   1.0000      -1.076094       -29.2820
  16   1.0000      -1.018380       -27.7115
  17   1.0000      -1.001342       -27.2479
  18   1.0000      -0.997116       -27.1329
  19   1.0000      -0.938336       -25.5334
  20   1.0000      -0.892432       -24.2843
  21   1.0000      -0.844996       -22.9935
  22   1.0000      -0.828497       -22.5446
  23   1.0000      -0.761360       -20.7177
  24   1.0000      -0.733456       -19.9584
  25   1.0000      -0.705131       -19.1876
  26   1.0000      -0.657940       -17.9035
  27   1.0000      -0.637668       -17.3518
  28   1.0000      -0.621322       -16.9070
  29   1.0000      -0.602527       -16.3956
  30   1.0000      -0.597315       -16.2538
  31   1.0000      -0.590957       -16.0808
  32   1.0000      -0.579073       -15.7574
  33   1.0000      -0.577394       -15.7117
  34   1.0000      -0.562812       -15.3149
  35   1.0000      -0.543907       -14.8004
  36   1.0000      -0.527491       -14.3538
  37   1.0000      -0.524520       -14.2729
  38   1.0000      -0.522110       -14.2073
  39   1.0000      -0.512583       -13.9481
  40   1.0000      -0.502249       -13.6669
  41   1.0000      -0.483154       -13.1473
  42   1.0000      -0.479814       -13.0564
  43   1.0000      -0.478288       -13.0149
  44   1.0000      -0.468618       -12.7518
  45   1.0000      -0.450411       -12.2563
  46   1.0000      -0.439842       -11.9687
  47   1.0000      -0.433876       -11.8064
  48   1.0000      -0.401822       -10.9341
  49   1.0000      -0.392648       -10.6845
  50   0.0000       0.024366         0.6630
  51   0.0000       0.030384         0.8268
  52   0.0000       0.031525         0.8578
  53   0.0000       0.034830         0.9478
  54   0.0000       0.041809         1.1377

MULLIKEN ATOMIC CHARGES AND SPIN POPULATIONS
--------------------------------------------
   0 C :    1.083988   -0.021449
   1 C :   -0.466449    0.072858
   2 C :   -0.328001   -0.220892
   3 H :    0.264786    0.004783
   4 H :    0.078610   -0.013399
   5 C :    0.337857    1.331128
   6 H :    0.049573    0.001077
   7 H :    0.452025    0.043169
   8 C :   -0.947601   -0.208134
   9 C :   -1.041166   -0.211801
  10 N :   -1.294879    0.003139
  11 C :    0.927878    0.008144
  12 H :    0.353304   -0.001637
  13 C :   -0.913061   -0.000580
  14 C :   -0.859227   -0.000714
  15 H :    0.242157    0.028125
  16 H :    0.272941    0.009824
  17 H :    0.261242    0.071239
  18 H :    0.348137    0.029706
  19 H :    0.209519    0.068150
  20 H :    0.226241    0.009807
  21 H :    0.299731   -0.000182
  22 C :   -0.576944   -0.000141
  23 H :    0.201674   -0.000228
  24 H :    0.413677   -0.000972
  25 H :    0.170572   -0.000257
  26 C :   -0.541290    0.000004
  27 H :    0.107780   -0.000047
  28 H :    0.317227   -0.000001
  29 C :   -0.543820   -0.000041
  30 H :    0.333389    0.000009
  31 H :    0.126348   -0.000004
  32 H :    0.345557    0.000013
  33 H :    0.123214   -0.000012
  34 H :   -0.034990   -0.000683
Sum of atomic charges         :   -0.0000000

LOEWDIN ATOMIC CHARGES AND SPIN POPULATIONS
-------------------------------------------
   0 C :   -0.275604    0.004143
   1 C :    0.312868    0.031397
   2 C :    0.280527    0.099533
   3 H :   -0.142855    0.005620
   4 H :   -0.150657    0.002085
   5 C :   -0.049317    0.539244
   6 H :   -0.162903    0.002632
   7 H :   -0.143953    0.013686
   8 C :    0.563207    0.109858
   9 C :    0.558864    0.106764
  10 N :    0.710084    0.001033
  11 C :   -0.018976    0.000119
  12 H :   -0.141002    0.000149
  13 C :    0.289797    0.000182
  14 C :    0.306656    0.000286
  15 H :   -0.171922    0.010588
  16 H :   -0.172371    0.003149
  17 H :   -0.162276    0.026728
  18 H :   -0.170866    0.010200
  19 H :   -0.167645    0.027331
  20 H :   -0.172424    0.003814
  21 H :   -0.138614    0.000341
  22 C :    0.296930    0.000038
  23 H :   -0.129886    0.000000
  24 H :   -0.141211    0.000514
  25 H :   -0.146463   -0.000002
  26 C :    0.296628    0.000006
  27 H :   -0.137903    0.000005
  28 H :   -0.138904   -0.000004
  29 C :    0.290557    0.000012
  30 H :   -0.140867    0.000003
  31 H :   -0.137700    0.000001
  32 H :   -0.138978    0.000001
  33 H :   -0.137368    0.000003
  34 H :   -0.415453    0.000537

  Mayer bond orders larger than 0.100000
B(  0-C ,  1-C ) :   1.0219 B(  0-C ,  4-H ) :  -0.1238 B(  0-C ,  5-C ) :   0.1327
B(  0-C , 11-C ) :   1.2352 B(  0-C , 13-C ) :  -0.1235 B(  0-C , 14-C ) :   0.1196
B(  1-C ,  2-C ) :   0.9033 B(  1-C ,  3-H ) :   0.9954 B(  1-C ,  4-H ) :   1.1785
B(  1-C ,  5-C ) :   0.1052 B(  1-C , 10-N ) :  -0.1893 B(  1-C , 11-C ) :  -0.1919
B(  2-C ,  5-C ) :   0.7871 B(  2-C ,  6-H ) :   1.1944 B(  2-C ,  7-H ) :   0.8549
B(  5-C ,  7-H ) :  -0.1314 B(  5-C ,  8-C ) :   0.6749 B(  5-C ,  9-C ) :   0.6245
B(  5-C , 18-H ) :  -0.1061 B(  8-C , 18-H ) :   0.9077 B(  8-C , 19-H ) :   0.9904
B(  8-C , 20-H ) :   1.0551 B(  9-C , 15-H ) :   1.0476 B(  9-C , 16-H ) :   1.0088
B(  9-C , 17-H ) :   0.9888 B( 10-N , 11-C ) :   0.4154 B( 10-N , 34-H ) :   1.1869
B( 11-C , 12-H ) :   0.8316 B( 11-C , 13-C ) :   0.8182 B( 11-C , 14-C ) :   0.4609
B( 13-C , 14-C ) :   0.2532 B( 13-C , 24-H ) :   0.8068 B( 13-C , 25-H ) :   1.1629
B( 13-C , 26-C ) :   1.0002 B( 13-C , 29-C ) :   0.1155 B( 14-C , 21-H ) :   0.9754
B( 14-C , 22-C ) :   1.0163 B( 14-C , 23-H ) :   1.0997 B( 14-C , 29-C ) :   0.1002
B( 22-C , 29-C ) :   0.9016 B( 22-C , 32-H ) :   0.8761 B( 22-C , 33-H ) :   1.1057
B( 26-C , 27-H ) :   1.1302 B( 26-C , 28-H ) :   0.9073 B( 26-C , 29-C ) :   0.8799
B( 29-C , 30-H ) :   0.8976 B( 29-C , 31-H ) :   1.0798

MP2 TOTAL ENERGY:     -524.093588749 Eh
FINAL SINGLE POINT ENERGY      -524.093588749141

DIPOLE MOMENT
-------------
                                X             Y             Z
Electronic contribution:     -0.28104      -2.21902       1.83661
Nuclear contribution   :      0.53280       1.84942      -2.57050
                        -----------------------------------------
Total Dipole Moment    :      0.25176      -0.36960      -0.73389
                        -----------------------------------------
Magnitude (a.u.)       :      0.85940
Magnitude (Debye)      :      2.18443

Rotational constants in cm-1:     0.052069     0.013614     0.012625
Rotational constants in MHz :  1560.975791   408.140240   378.489241

                             ****ORCA TERMINATED NORMALLY****
TOTAL RUN TIME: 0 days 0 hours 36 minutes 22 seconds 868 msec
