                         Program Version 4.2.1 -  RELEASE  -
|  1> %pal
|  2>  nprocs 32
|  3> end
|  4> !RI-MP2 aug-cc-pVTZ aug-cc-pVTZ/C TightSCF
|  5> %maxcore 4500
|  6> *xyzfile 0 2  03_2P1.xyz
|  7>
|  8>
|  9>                          ****END OF INPUT****

CARTESIAN COORDINATES (ANGSTROEM)
---------------------------------
  C     -0.693819    0.186196    0.359179
  C      0.745196   -0.195329    0.008133
  O      1.611161    0.790777    0.306056
  O      1.088046   -1.241594   -0.466719
  C     -1.112647    1.376749   -0.432726
  H     -0.666112    0.464915    1.425214
  N     -1.636232   -0.900789    0.208441
  H      2.496081    0.489969    0.055634
  H     -1.375733   -1.690592    0.786585
  H     -1.646457   -1.227480   -0.751419
  H     -0.421176    2.186286   -0.615934
  H     -2.159014    1.483263   -0.681383

 Total Charge           Charge          ....    0
 Multiplicity           Mult            ....    2
 Number of Electrons    NEL             ....   47
 Basis Dimension        Dim             ....  414

ORBITAL ENERGIES
----------------
                 SPIN UP ORBITALS
  NO   OCC          E(Eh)            E(eV)
   0   1.0000     -20.619890      -561.0957
   1   1.0000     -20.556227      -559.3634
   2   1.0000     -15.551968      -423.1906
   3   1.0000     -11.387157      -309.8603
   4   1.0000     -11.287357      -307.1446
   5   1.0000     -11.247331      -306.0554
   6   1.0000      -1.476075       -40.1660
   7   1.0000      -1.372123       -37.3374
   8   1.0000      -1.207309       -32.8525
   9   1.0000      -1.032008       -28.0824
  10   1.0000      -0.907657       -24.6986
  11   1.0000      -0.803756       -21.8713
  12   1.0000      -0.714383       -19.4394
  13   1.0000      -0.711161       -19.3517
  14   1.0000      -0.684594       -18.6288
  15   1.0000      -0.640756       -17.4358
  16   1.0000      -0.617614       -16.8061
  17   1.0000      -0.592531       -16.1236
  18   1.0000      -0.563940       -15.3456
  19   1.0000      -0.545197       -14.8356
  20   1.0000      -0.492042       -13.3892
  21   1.0000      -0.470186       -12.7944
  22   1.0000      -0.418524       -11.3886
  23   1.0000      -0.370110       -10.0712
  24   0.0000       0.027688         0.7534
  25   0.0000       0.037213         1.0126
  26   0.0000       0.039590         1.0773
  27   0.0000       0.044330         1.2063
  28   0.0000       0.056895         1.5482

                 SPIN DOWN ORBITALS
  NO   OCC          E(Eh)            E(eV)
   0   1.0000     -20.619944      -561.0972
   1   1.0000     -20.556335      -559.3663
   2   1.0000     -15.551544      -423.1790
   3   1.0000     -11.385960      -309.8277
   4   1.0000     -11.290491      -307.2299
   5   1.0000     -11.223927      -305.4186
   6   1.0000      -1.475871       -40.1605
   7   1.0000      -1.372280       -37.3416
   8   1.0000      -1.203364       -32.7452
   9   1.0000      -1.003692       -27.3119
  10   1.0000      -0.865633       -23.5551
  11   1.0000      -0.788795       -21.4642
  12   1.0000      -0.713448       -19.4139
  13   1.0000      -0.704057       -19.1584
  14   1.0000      -0.678055       -18.4508
  15   1.0000      -0.638356       -17.3705
  16   1.0000      -0.614672       -16.7261
  17   1.0000      -0.583559       -15.8794
  18   1.0000      -0.554192       -15.0803
  19   1.0000      -0.531478       -14.4623
  20   1.0000      -0.491998       -13.3879
  21   1.0000      -0.465859       -12.6767
  22   1.0000      -0.412018       -11.2116
  23   0.0000       0.027846         0.7577
  24   0.0000       0.037147         1.0108
  25   0.0000       0.040001         1.0885
  26   0.0000       0.042973         1.1694
  27   0.0000       0.056716         1.5433

MULLIKEN ATOMIC CHARGES AND SPIN POPULATIONS
--------------------------------------------
   0 C :    0.839070   -0.202161
   1 C :    0.606319    0.029839
   2 O :   -0.432518   -0.000850
   3 O :   -0.771398   -0.004985
   4 C :   -1.236808    1.212936
   5 H :    0.324786    0.068428
   6 N :   -0.622445    0.019730
   7 H :    0.238287    0.001398
   8 H :    0.079141   -0.002242
   9 H :    0.114032   -0.000950
  10 H :    0.454991   -0.051041
  11 H :    0.406544   -0.070103
Sum of atomic charges         :   -0.0000000

LOEWDIN ATOMIC CHARGES AND SPIN POPULATIONS
-------------------------------------------
   0 C :   -0.237098    0.128785
   1 C :   -0.799454    0.019098
   2 O :    0.835551    0.000617
   3 O :    0.454382    0.000740
   4 C :    0.605396    0.565863
   5 H :   -0.147408    0.032340
   6 N :    0.830047    0.005283
   7 H :   -0.464714    0.000370
   8 H :   -0.315843    0.000716
   9 H :   -0.317922    0.004592
  10 H :   -0.226028    0.120595
  11 H :   -0.216907    0.121001

  Mayer bond orders larger than 0.100000
B(  0-C ,  1-C ) :   0.6685 B(  0-C ,  4-C ) :   0.7135 B(  0-C ,  5-H ) :   0.8780
B(  0-C ,  6-N ) :   0.5341 B(  1-C ,  2-O ) :   0.9844 B(  1-C ,  3-O ) :   1.4022
B(  2-O ,  7-H ) :   0.9517 B(  4-C , 10-H ) :   0.7773 B(  4-C , 11-H ) :   0.8279
B(  6-N ,  8-H ) :   1.0142 B(  6-N ,  9-H ) :   0.9958

MP2 TOTAL ENERGY:     -322.535961762 Eh
FINAL SINGLE POINT ENERGY      -322.535961762052

DIPOLE MOMENT
-------------
                                X             Y             Z
Electronic contribution:      4.00256      -1.23739      -0.02837
Nuclear contribution   :     -3.74725       1.69749       0.21784
                        -----------------------------------------
Total Dipole Moment    :      0.25531       0.46011       0.18947
                        -----------------------------------------
Magnitude (a.u.)       :      0.55927
Magnitude (Debye)      :      1.42154

Rotational constants in cm-1:     0.177460     0.108882     0.075599
Rotational constants in MHz :  5320.116499  3264.203298  2266.394257

                             ****ORCA TERMINATED NORMALLY****
TOTAL RUN TIME: 0 days 0 hours 1 minutes 32 seconds 837 msec
