                         Program Version 4.2.1 -  RELEASE  -
|  1> %pal
|  2>  nprocs 32
|  3> end
|  4> !RI-MP2 aug-cc-pVTZ aug-cc-pVTZ/C TightSCF
|  5> %maxcore 4500
|  6> *xyzfile 0 1  02_7TS.xyz
|  7>
|  8>
|  9>                          ****END OF INPUT****

CARTESIAN COORDINATES (ANGSTROEM)
---------------------------------
  O      6.560789    0.957159    1.451347
  C      6.483117    0.052362    0.348972
  C      5.421212   -0.990599    0.720955
  C      4.141645   -0.823066   -0.098642
  C      4.500675    0.952356   -0.712260
  C      5.983812    0.764802   -0.902538
  C      2.899721   -0.920453    0.552518
  C      1.651323    1.451000   -0.401930
  C      2.286027    1.439920   -1.627956
  C      3.646937    1.218985   -1.791852
  C      1.753354   -1.512492   -0.017349
  C      0.587907   -1.763019    0.631991
  C      0.232697    1.446736   -0.275878
  C     -0.402170    1.239319    0.892294
  C     -1.864035    1.273027    1.076025
  O     -2.527928    1.524775   -0.059117
  C     -3.969647    1.729975   -0.029985
  C     -4.216717    3.191328   -0.371344
  C     -3.549258    4.168791    0.587649
  C     -0.550529   -2.320928   -0.086772
  C     -1.888509   -2.366884    0.625959
  C     -2.225517   -3.798930    1.046778
  O     -2.391381    1.099138    2.150144
  C     -4.612933    0.766994   -1.028433
  C     -5.178775   -0.529188   -0.438657
  C     -4.211552   -1.349363    0.414001
  C     -2.935340   -1.731922   -0.310558
  O     -3.265590   -2.581143   -1.397163
  O     -0.468395   -2.701158   -1.251916
  H      5.798971   -2.003552    0.569311
  H      5.208807   -0.884443    1.785211
  H      7.462335   -0.408032    0.187768
  H      6.498246    1.720092   -1.040939
  H      6.178015    0.155708   -1.791054
  H      4.269835    1.459852    0.219113
  H      2.227982    1.518845    0.510505
  H     -0.361215    1.556769   -1.177607
  H      0.149188    1.099129    1.813765
  H     -4.303279    1.526044    0.988183
  H     -3.877241    0.546594   -1.805855
  H     -5.429561    1.292585   -1.530912
  H     -6.052495   -0.284140    0.174717
  H     -5.539489   -1.149142   -1.262448
  H     -3.940707   -0.790623    1.314003
  H     -4.718872   -2.260123    0.743708
  H     -2.481271   -0.818359   -0.708787
  H     -1.823976   -1.738660    1.518508
  H      1.795061   -1.791724   -1.067241
  H      2.852320   -0.629533    1.599488
  H      4.174299   -1.336510   -1.056306
  H     -3.878831    3.372581   -1.397098
  H     -5.299965    3.345461   -0.366070
  H     -2.462391    4.072643    0.557881
  H     -3.871720    3.994303    1.616832
  H     -3.796775    5.199457    0.326892
  H     -1.449419   -4.203543    1.700350
  H     -2.314742   -4.444774    0.173942
  H     -3.170720   -3.828883    1.590539
  H     -2.423506   -2.822654   -1.809619
  H      7.263718    1.592672    1.290447
  H      0.469890   -1.531887    1.683834
  H      4.023191    1.064960   -2.798779
  H      1.663681    1.486224   -2.516578

 Total Charge           Charge          ....    0
 Multiplicity           Mult            ....    1
 Number of Electrons    NEL             ....  218
 Basis Dimension        Dim             .... 2116

ORBITAL ENERGIES
----------------

  NO   OCC          E(Eh)            E(eV)
   0   2.0000     -20.590064      -560.2841
   1   2.0000     -20.576859      -559.9248
   2   2.0000     -20.535959      -558.8119
   3   2.0000     -20.521757      -558.4254
   4   2.0000     -20.518645      -558.3407
   5   2.0000     -11.376906      -309.5814
   6   2.0000     -11.310336      -307.7699
   7   2.0000     -11.302183      -307.5480
   8   2.0000     -11.282100      -307.0016
   9   2.0000     -11.269976      -306.6716
  10   2.0000     -11.269432      -306.6568
  11   2.0000     -11.262274      -306.4621
  12   2.0000     -11.260177      -306.4050
  13   2.0000     -11.257066      -306.3203
  14   2.0000     -11.255027      -306.2649
  15   2.0000     -11.253117      -306.2129
  16   2.0000     -11.251846      -306.1783
  17   2.0000     -11.251176      -306.1601
  18   2.0000     -11.250285      -306.1358
  19   2.0000     -11.249143      -306.1048
  20   2.0000     -11.247536      -306.0610
  21   2.0000     -11.221858      -305.3623
  22   2.0000     -11.218086      -305.2596
  23   2.0000     -11.215556      -305.1908
  24   2.0000     -11.213514      -305.1352
  25   2.0000     -11.210416      -305.0509
  26   2.0000     -11.206585      -304.9467
  27   2.0000     -11.205457      -304.9160
  28   2.0000     -11.199331      -304.7493
  29   2.0000      -1.453345       -39.5475
  30   2.0000      -1.382756       -37.6267
  31   2.0000      -1.365469       -37.1563
  32   2.0000      -1.353819       -36.8393
  33   2.0000      -1.330254       -36.1980
  34   2.0000      -1.161317       -31.6010
  35   2.0000      -1.126404       -30.6510
  36   2.0000      -1.103320       -30.0229
  37   2.0000      -1.095058       -29.7980
  38   2.0000      -1.072811       -29.1927
  39   2.0000      -1.068698       -29.0807
  40   2.0000      -1.039121       -28.2759
  41   2.0000      -1.027203       -27.9516
  42   2.0000      -1.001795       -27.2602
  43   2.0000      -0.975514       -26.5451
  44   2.0000      -0.959146       -26.0997
  45   2.0000      -0.922648       -25.1065
  46   2.0000      -0.904530       -24.6135
  47   2.0000      -0.887220       -24.1425
  48   2.0000      -0.853375       -23.2215
  49   2.0000      -0.836265       -22.7559
  50   2.0000      -0.825574       -22.4650
  51   2.0000      -0.808739       -22.0069
  52   2.0000      -0.792696       -21.5704
  53   2.0000      -0.773732       -21.0543
  54   2.0000      -0.766609       -20.8605
  55   2.0000      -0.760915       -20.7056
  56   2.0000      -0.748729       -20.3740
  57   2.0000      -0.721721       -19.6390
  58   2.0000      -0.715158       -19.4604
  59   2.0000      -0.707464       -19.2511
  60   2.0000      -0.682007       -18.5584
  61   2.0000      -0.681373       -18.5411
  62   2.0000      -0.673218       -18.3192
  63   2.0000      -0.665420       -18.1070
  64   2.0000      -0.657342       -17.8872
  65   2.0000      -0.653457       -17.7815
  66   2.0000      -0.646030       -17.5794
  67   2.0000      -0.642534       -17.4842
  68   2.0000      -0.616613       -16.7789
  69   2.0000      -0.613732       -16.7005
  70   2.0000      -0.607173       -16.5220
  71   2.0000      -0.602727       -16.4010
  72   2.0000      -0.592750       -16.1296
  73   2.0000      -0.588627       -16.0174
  74   2.0000      -0.584232       -15.8978
  75   2.0000      -0.577678       -15.7194
  76   2.0000      -0.566634       -15.4189
  77   2.0000      -0.561097       -15.2682
  78   2.0000      -0.558792       -15.2055
  79   2.0000      -0.550562       -14.9816
  80   2.0000      -0.546108       -14.8604
  81   2.0000      -0.543456       -14.7882
  82   2.0000      -0.538086       -14.6421
  83   2.0000      -0.533104       -14.5065
  84   2.0000      -0.530631       -14.4392
  85   2.0000      -0.525889       -14.3102
  86   2.0000      -0.519148       -14.1267
  87   2.0000      -0.517287       -14.0761
  88   2.0000      -0.514542       -14.0014
  89   2.0000      -0.509077       -13.8527
  90   2.0000      -0.507830       -13.8188
  91   2.0000      -0.504158       -13.7188
  92   2.0000      -0.494394       -13.4531
  93   2.0000      -0.490609       -13.3501
  94   2.0000      -0.488440       -13.2911
  95   2.0000      -0.481807       -13.1106
  96   2.0000      -0.475552       -12.9404
  97   2.0000      -0.460045       -12.5185
  98   2.0000      -0.458879       -12.4867
  99   2.0000      -0.455963       -12.4074
 100   2.0000      -0.449522       -12.2321
 101   2.0000      -0.444346       -12.0913
 102   2.0000      -0.432506       -11.7691
 103   2.0000      -0.429466       -11.6864
 104   2.0000      -0.406025       -11.0485
 105   2.0000      -0.403721       -10.9858
 106   2.0000      -0.385172       -10.4811
 107   2.0000      -0.333789        -9.0828
 108   2.0000      -0.253194        -6.8898
 109   0.0000      -0.001528        -0.0416
 110   0.0000       0.015082         0.4104
 111   0.0000       0.025733         0.7002
 112   0.0000       0.026700         0.7265
 113   0.0000       0.029033         0.7900

MULLIKEN ATOMIC CHARGES
-----------------------
   0 O :   -0.733263
   1 C :    0.285238
   2 C :   -0.821767
   3 C :    0.255215
   4 C :    1.215906
   5 C :   -1.143420
   6 C :   -0.425734
   7 C :    0.597059
   8 C :   -0.389979
   9 C :   -0.919169
  10 C :    0.479927
  11 C :   -0.066887
  12 C :    0.017147
  13 C :   -0.307936
  14 C :    2.214286
  15 O :   -0.027806
  16 C :    0.721376
  17 C :   -0.776200
  18 C :   -1.177533
  19 C :    1.553328
  20 C :    0.710880
  21 C :   -1.398386
  22 O :   -1.509599
  23 C :   -0.612913
  24 C :   -0.677551
  25 C :   -0.568331
  26 C :    1.096502
  27 O :   -1.163388
  28 O :   -1.512298
  29 H :    0.234399
  30 H :    0.309376
  31 H :    0.433443
  32 H :    0.390362
  33 H :    0.100734
  34 H :    0.582586
  35 H :   -0.204457
  36 H :   -0.434864
  37 H :   -0.298340
  38 H :    0.477771
  39 H :    0.120978
  40 H :    0.401175
  41 H :    0.112149
  42 H :    0.166077
  43 H :    0.148966
  44 H :    0.384453
  45 H :    0.020082
  46 H :   -0.065087
  47 H :   -0.348691
  48 H :   -0.180480
  49 H :    0.228934
  50 H :    0.165152
  51 H :    0.266886
  52 H :    0.368658
  53 H :    0.216261
  54 H :    0.259349
  55 H :    0.304372
  56 H :    0.268655
  57 H :    0.260315
  58 H :    0.171774
  59 H :    0.096280
  60 H :    0.020567
  61 H :    0.239206
  62 H :   -0.131748
Sum of atomic charges:   -0.0000000

LOEWDIN ATOMIC CHARGES
----------------------
   0 O :    0.841208
   1 C :   -0.221244
   2 C :    0.322237
   3 C :    0.118409
   4 C :    0.085085
   5 C :    0.300301
   6 C :    0.227958
   7 C :    0.199284
   8 C :    0.213163
   9 C :    0.234833
  10 C :    0.182529
  11 C :    0.210668
  12 C :    0.194259
  13 C :    0.207639
  14 C :   -0.855898
  15 O :    0.619431
  16 C :   -0.204271
  17 C :    0.275457
  18 C :    0.586668
  19 C :   -0.529971
  20 C :   -0.017205
  21 C :    0.606696
  22 O :    0.485843
  23 C :    0.313729
  24 C :    0.314858
  25 C :    0.298156
  26 C :   -0.262574
  27 O :    0.864552
  28 O :    0.519803
  29 H :   -0.132758
  30 H :   -0.157907
  31 H :   -0.127073
  32 H :   -0.130503
  33 H :   -0.130919
  34 H :   -0.161248
  35 H :   -0.199757
  36 H :   -0.173650
  37 H :   -0.184410
  38 H :   -0.176317
  39 H :   -0.146794
  40 H :   -0.147390
  41 H :   -0.138172
  42 H :   -0.142714
  43 H :   -0.170100
  44 H :   -0.137443
  45 H :   -0.183691
  46 H :   -0.160211
  47 H :   -0.169537
  48 H :   -0.152482
  49 H :   -0.146547
  50 H :   -0.136099
  51 H :   -0.142645
  52 H :   -0.176040
  53 H :   -0.161527
  54 H :   -0.168468
  55 H :   -0.158515
  56 H :   -0.164400
  57 H :   -0.163178
  58 H :   -0.586002
  59 H :   -0.477546
  60 H :   -0.191616
  61 H :   -0.163921
  62 H :   -0.172024

  Mayer bond orders larger than 0.100000
B(  0-O ,  1-C ) :   0.4300 B(  0-O ,  2-C ) :   0.1479 B(  0-O ,  5-C ) :   0.2086
B(  0-O , 59-H ) :   1.0558 B(  1-C ,  2-C ) :   1.0273 B(  1-C ,  5-C ) :   1.1244
B(  1-C , 31-H ) :   0.8680 B(  2-C ,  3-C ) :   0.7846 B(  2-C ,  5-C ) :   0.2528
B(  2-C ,  6-C ) :  -0.1200 B(  2-C , 29-H ) :   0.9905 B(  2-C , 30-H ) :   0.9995
B(  2-C , 49-H ) :  -0.1080 B(  3-C ,  4-C ) :   0.2429 B(  3-C ,  6-C ) :   1.1205
B(  3-C ,  9-C ) :   0.1034 B(  3-C , 11-C ) :   0.1138 B(  3-C , 35-H ) :   0.1307
B(  3-C , 49-H ) :   1.0478 B(  4-C ,  5-C ) :   0.4651 B(  4-C ,  8-C ) :  -0.1185
B(  4-C ,  9-C ) :   0.8671 B(  4-C , 33-H ) :  -0.1910 B(  4-C , 34-H ) :   0.7418
B(  4-C , 35-H ) :  -0.2058 B(  5-C ,  9-C ) :  -0.1898 B(  5-C , 32-H ) :   0.8691
B(  5-C , 33-H ) :   1.3498 B(  6-C , 10-C ) :   0.7519 B(  6-C , 11-C ) :   0.3371
B(  6-C , 19-C ) :   0.2514 B(  6-C , 35-H ) :  -0.1083 B(  6-C , 48-H ) :   1.6957
B(  6-C , 60-H ) :  -0.1019 B(  7-C ,  8-C ) :   0.5045 B(  7-C ,  9-C ) :   0.1463
B(  7-C , 12-C ) :   0.2472 B(  7-C , 14-C ) :   0.1566 B(  7-C , 34-H ) :  -0.1486
B(  7-C , 35-H ) :   1.8973 B(  7-C , 36-H ) :  -0.2634 B(  7-C , 37-H ) :  -0.3902
B(  7-C , 48-H ) :   0.1964 B(  7-C , 62-H ) :  -0.3015 B(  8-C ,  9-C ) :   0.8559
B(  8-C , 13-C ) :   0.2363 B(  8-C , 14-C ) :   0.1855 B(  8-C , 15-O ) :   0.2156
B(  8-C , 35-H ) :  -0.1138 B(  8-C , 36-H ) :  -0.2483 B(  8-C , 61-H ) :  -0.1690
B(  8-C , 62-H ) :   1.6942 B(  9-C , 12-C ) :   0.1910 B(  9-C , 35-H ) :   0.1354
B(  9-C , 61-H ) :   1.0503 B(  9-C , 62-H ) :  -0.2239 B( 10-C , 11-C ) :   0.4400
B( 10-C , 19-C ) :   0.3074 B( 10-C , 20-C ) :   0.1518 B( 10-C , 28-O ) :  -0.3258
B( 10-C , 47-H ) :   1.8866 B( 10-C , 49-H ) :  -0.1532 B( 10-C , 60-H ) :  -0.1488
B( 11-C , 13-C ) :   0.1069 B( 11-C , 19-C ) :   0.6802 B( 11-C , 20-C ) :  -0.3493
B( 11-C , 28-O ) :   0.1928 B( 11-C , 35-H ) :  -0.1459 B( 11-C , 47-H ) :  -0.2627
B( 11-C , 48-H ) :  -0.3159 B( 11-C , 60-H ) :   1.5093 B( 12-C , 13-C ) :   0.7348
B( 12-C , 14-C ) :   0.2385 B( 12-C , 15-O ) :  -0.4846 B( 12-C , 22-O ) :   0.1231
B( 12-C , 35-H ) :  -0.2504 B( 12-C , 36-H ) :   2.6169 B( 12-C , 37-H ) :  -0.2065
B( 12-C , 48-H ) :  -0.1050 B( 12-C , 62-H ) :  -0.2702 B( 13-C , 22-O ) :  -0.1372
B( 13-C , 35-H ) :  -0.2285 B( 13-C , 36-H ) :  -0.3264 B( 13-C , 37-H ) :   1.9739
B( 13-C , 62-H ) :  -0.1378 B( 14-C , 15-O ) :   0.9650 B( 14-C , 22-O ) :  -0.1209
B( 14-C , 35-H ) :   0.1587 B( 14-C , 36-H ) :  -0.2557 B( 14-C , 37-H ) :  -0.2973
B( 14-C , 62-H ) :   0.2014 B( 15-O , 16-C ) :   0.6723 B( 15-O , 18-C ) :  -0.1177
B( 15-O , 22-O ) :   0.2498 B( 15-O , 36-H ) :  -0.1740 B( 15-O , 38-H ) :  -0.1064
B( 15-O , 62-H ) :   0.1036 B( 16-C , 17-C ) :   0.4286 B( 16-C , 22-O ) :   0.1945
B( 16-C , 23-C ) :   0.9450 B( 16-C , 38-H ) :   0.9348 B( 16-C , 50-H ) :  -0.1113
B( 17-C , 18-C ) :   0.9179 B( 17-C , 50-H ) :   1.1651 B( 17-C , 51-H ) :   1.0119
B( 18-C , 52-H ) :   0.9003 B( 18-C , 53-H ) :   1.0617 B( 18-C , 54-H ) :   1.0304
B( 19-C , 20-C ) :   0.8685 B( 19-C , 46-H ) :   0.1635 B( 19-C , 47-H ) :  -0.2208
B( 19-C , 60-H ) :  -0.2588 B( 20-C , 21-C ) :   0.1059 B( 20-C , 25-C ) :   0.1034
B( 20-C , 26-C ) :   1.4058 B( 20-C , 27-O ) :   0.1558 B( 20-C , 28-O ) :  -0.1797
B( 20-C , 46-H ) :   1.0352 B( 20-C , 47-H ) :  -0.1422 B( 20-C , 56-H ) :  -0.2371
B( 21-C , 26-C ) :   0.1317 B( 21-C , 55-H ) :   1.0158 B( 21-C , 56-H ) :   1.1148
B( 21-C , 57-H ) :   1.0665 B( 22-O , 38-H ) :  -0.1684 B( 23-C , 24-C ) :   0.8654
B( 23-C , 26-C ) :  -0.1155 B( 23-C , 39-H ) :   1.1614 B( 23-C , 40-H ) :   0.7729
B( 24-C , 25-C ) :   0.8986 B( 24-C , 41-H ) :   1.1236 B( 24-C , 42-H ) :   1.0729
B( 24-C , 43-H ) :   0.1376 B( 25-C , 26-C ) :   0.4788 B( 25-C , 27-O ) :   0.1840
B( 25-C , 43-H ) :   1.1197 B( 25-C , 44-H ) :   0.8196 B( 26-C , 27-O ) :  -0.5301
B( 26-C , 45-H ) :   1.2550 B( 27-O , 45-H ) :   0.2021 B( 27-O , 58-H ) :   0.9994
B( 28-O , 47-H ) :   0.1566 B( 34-H , 35-H ) :  -0.2463 B( 35-H , 37-H ) :  -0.1312
B( 35-H , 48-H ) :   0.1026 B( 35-H , 49-H ) :   0.1298 B( 35-H , 61-H ) :  -0.1204
B( 35-H , 62-H ) :   0.2317 B( 36-H , 37-H ) :   0.3630 B( 36-H , 62-H ) :  -0.1512
B( 47-H , 48-H ) :   0.1515 B( 47-H , 60-H ) :   0.1111 B( 48-H , 49-H ) :   0.1025
B( 48-H , 60-H ) :  -0.1078

MP2 TOTAL ENERGY:    -1308.583623414 Eh
FINAL SINGLE POINT ENERGY     -1308.583623414091

DIPOLE MOMENT
-------------
                                X             Y             Z
Electronic contribution:     10.21941      -2.77310      -0.42522
Nuclear contribution   :     -7.31673       4.11984       0.05064
                        -----------------------------------------
Total Dipole Moment    :      2.90268       1.34674      -0.37458
                        -----------------------------------------
Magnitude (a.u.)       :      3.22173
Magnitude (Debye)      :      8.18899

Rotational constants in cm-1:     0.009033     0.002910     0.002456
Rotational constants in MHz :   270.793179    87.229962    73.640558

                             ****ORCA TERMINATED NORMALLY****
TOTAL RUN TIME: 0 days 3 hours 58 minutes 41 seconds 554 msec
