                         Program Version 4.2.1 -  RELEASE  -
|  1> %pal
|  2>  nprocs 32
|  3> end
|  4> !RI-MP2 aug-cc-pVTZ aug-cc-pVTZ/C TightSCF
|  5> %maxcore 4500
|  6> *xyzfile 0 1  03_20R1.xyz
|  7>
|  8>
|  9>                          ****END OF INPUT****

CARTESIAN COORDINATES (ANGSTROEM)
---------------------------------
  C     -2.414060   -0.066162    0.803693
  C     -0.954872    0.052425    0.523914
  C     -0.145172   -1.072174    0.480287
  C     -0.371240    1.299392    0.292479
  H     -0.579262   -2.050844    0.652400
  C      1.215739   -0.975597    0.214845
  C      0.976768    1.414784    0.027967
  C      1.779867    0.274597   -0.013579
  H     -0.987872    2.190968    0.316417
  H      1.816472   -1.873371    0.190562
  H      1.437454    2.377787   -0.150528
  O      3.092792    0.485170   -0.279737
  C      3.953599   -0.633752   -0.345960
  H      4.941057   -0.239906   -0.574642
  H      3.647197   -1.324643   -1.137062
  H      3.988654   -1.165854    0.609488
  H     -2.802056    0.807264    1.321088
  H     -2.645999   -0.958768    1.378308
  Cl    -3.400103   -0.200298   -0.721766

 Total Charge           Charge          ....    0
 Multiplicity           Mult            ....    1
 Number of Electrons    NEL             ....   82
 Basis Dimension        Dim             ....  671

ORBITAL ENERGIES
----------------

  NO   OCC          E(Eh)            E(eV)
   0   2.0000    -104.816771     -2852.2093
   1   2.0000     -20.591898      -560.3340
   2   2.0000     -11.307414      -307.6904
   3   2.0000     -11.297567      -307.4224
   4   2.0000     -11.289512      -307.2032
   5   2.0000     -11.247455      -306.0588
   6   2.0000     -11.245672      -306.0103
   7   2.0000     -11.241446      -305.8953
   8   2.0000     -11.236769      -305.7680
   9   2.0000     -11.232797      -305.6600
  10   2.0000     -10.540920      -286.8330
  11   2.0000      -8.007655      -217.8994
  12   2.0000      -8.005921      -217.8522
  13   2.0000      -8.005892      -217.8514
  14   2.0000      -1.420687       -38.6589
  15   2.0000      -1.171818       -31.8868
  16   2.0000      -1.118347       -30.4318
  17   2.0000      -1.036441       -28.2030
  18   2.0000      -1.028687       -27.9920
  19   2.0000      -0.961518       -26.1642
  20   2.0000      -0.898728       -24.4556
  21   2.0000      -0.846503       -23.0345
  22   2.0000      -0.800426       -21.7807
  23   2.0000      -0.727340       -19.7919
  24   2.0000      -0.687026       -18.6949
  25   2.0000      -0.663379       -18.0515
  26   2.0000      -0.661075       -17.9888
  27   2.0000      -0.625714       -17.0265
  28   2.0000      -0.616573       -16.7778
  29   2.0000      -0.598008       -16.2726
  30   2.0000      -0.573081       -15.5943
  31   2.0000      -0.565756       -15.3950
  32   2.0000      -0.535861       -14.5815
  33   2.0000      -0.527510       -14.3543
  34   2.0000      -0.522584       -14.2202
  35   2.0000      -0.488549       -13.2941
  36   2.0000      -0.469805       -12.7840
  37   2.0000      -0.430621       -11.7178
  38   2.0000      -0.429213       -11.6795
  39   2.0000      -0.350361        -9.5338
  40   2.0000      -0.316352        -8.6084
  41   0.0000       0.025697         0.6993
  42   0.0000       0.031809         0.8656
  43   0.0000       0.033244         0.9046
  44   0.0000       0.042874         1.1667
  45   0.0000       0.044991         1.2243

MULLIKEN ATOMIC CHARGES
-----------------------
   0 C :   -0.155672
   1 C :    1.101948
   2 C :   -1.023306
   3 C :   -0.764337
   4 H :    0.167691
   5 C :   -0.484687
   6 C :   -0.876825
   7 C :    1.305432
   8 H :    0.253094
   9 H :    0.348335
  10 H :    0.569764
  11 O :   -0.819525
  12 C :   -0.899059
  13 H :    0.383060
  14 H :    0.357586
  15 H :    0.360077
  16 H :    0.261759
  17 H :    0.269765
  18 Cl:   -0.355101
Sum of atomic charges:    0.0000000

LOEWDIN ATOMIC CHARGES
----------------------
   0 C :   -0.262820
   1 C :   -0.226154
   2 C :    0.200346
   3 C :    0.196789
   4 H :   -0.169717
   5 C :    0.216053
   6 C :    0.220476
   7 C :   -0.385601
   8 H :   -0.169320
   9 H :   -0.204525
  10 H :   -0.178068
  11 O :    0.576435
  12 C :    0.339465
  13 H :   -0.178983
  14 H :   -0.172251
  15 H :   -0.172710
  16 H :   -0.241953
  17 H :   -0.243637
  18 Cl:    0.856175

  Mayer bond orders larger than 0.100000
B(  0-C ,  1-C ) :   0.7954 B(  0-C , 16-H ) :   0.9772 B(  0-C , 17-H ) :   0.9720
B(  0-C , 18-Cl) :   0.6567 B(  1-C ,  2-C ) :   0.5243 B(  1-C ,  3-C ) :   0.6350
B(  1-C ,  4-H ) :  -0.1578 B(  1-C ,  5-C ) :   0.1269 B(  1-C ,  6-C ) :   0.1803
B(  1-C ,  8-H ) :  -0.1483 B(  2-C ,  3-C ) :  -0.1395 B(  2-C ,  4-H ) :   1.3234
B(  2-C ,  5-C ) :   1.1814 B(  2-C ,  7-C ) :  -0.1666 B(  3-C ,  6-C ) :   1.3910
B(  3-C ,  7-C ) :  -0.3120 B(  3-C ,  8-H ) :   1.1483 B(  4-H ,  5-C ) :  -0.1007
B(  5-C ,  6-C ) :   0.2450 B(  5-C ,  7-C ) :   1.1102 B(  5-C ,  9-H ) :   0.9148
B(  5-C , 11-O ) :  -0.2601 B(  6-C ,  7-C ) :   0.7651 B(  6-C , 10-H ) :   0.5521
B(  6-C , 11-O ) :   0.2221 B(  7-C , 11-O ) :   0.4524 B( 11-O , 12-C ) :   1.0155
B( 12-C , 13-H ) :   0.9121 B( 12-C , 14-H ) :   0.8850 B( 12-C , 15-H ) :   0.8875

MP2 TOTAL ENERGY:     -844.435238383 Eh
FINAL SINGLE POINT ENERGY      -844.435238382746

DIPOLE MOMENT
-------------
                                X             Y             Z
Electronic contribution:    -12.58020       1.50538      -2.91945
Nuclear contribution   :     13.49998      -1.91078       3.57365
                        -----------------------------------------
Total Dipole Moment    :      0.91977      -0.40540       0.65420
                        -----------------------------------------
Magnitude (a.u.)       :      1.19930
Magnitude (Debye)      :      3.04837

Rotational constants in cm-1:     0.115489     0.016555     0.015620
Rotational constants in MHz :  3462.274780   496.314835   468.277216

                             ****ORCA TERMINATED NORMALLY****
TOTAL RUN TIME: 0 days 0 hours 5 minutes 3 seconds 581 msec
