                         Program Version 4.2.1 -  RELEASE  -
|  1> %pal
|  2>  nprocs 32
|  3> end
|  4> !RI-MP2 aug-cc-pVTZ aug-cc-pVTZ/C TightSCF
|  5> %maxcore 4500
|  6> *xyzfile -1 1  05_17P2.xyz
|  7>
|  8>
|  9>                          ****END OF INPUT****

CARTESIAN COORDINATES (ANGSTROEM)
---------------------------------
  C      6.187026    0.737423    0.686647
  C      5.064525    1.141310   -0.275210
  H      6.916776    1.543139    0.822383
  H      6.722525   -0.139572    0.310780
  H      5.775820    0.474973    1.664364
  C      4.067881    0.048355   -0.522059
  C      2.767270    0.115797   -0.187230
  C      1.757620   -0.883647   -0.381358
  C      0.461225   -0.676412    0.021876
  O     -0.041866    0.289406    0.643840
  S     -0.692926   -2.048891   -0.494993
  C     -2.023572   -1.873065    0.736258
  C     -3.178024   -0.971091    0.323409
  H     -1.572689   -1.507107    1.659889
  H     -2.403282   -2.879811    0.918275
  N     -2.728648    0.399316    0.226925
  H     -3.985115   -1.042773    1.062002
  H     -3.594590   -1.299309   -0.634148
  C     -3.557209    1.398791   -0.093540
  O     -4.762300    1.251257   -0.291975
  C     -2.906843    2.763319   -0.195077
  H     -3.083775    3.158871   -1.196583
  H     -1.834544    2.730712   -0.000982
  H     -3.388790    3.436076    0.516514
  H     -1.714421    0.551391    0.361688
  H      4.541316    2.015447    0.126496
  H      5.523140    1.467613   -1.219891
  H      2.017352   -1.825262   -0.849774
  H      4.450005   -0.856509   -0.995510
  H      2.411567    1.029179    0.288689

 Total Charge           Charge          ....   -1
 Multiplicity           Mult            ....    1
 Number of Electrons    NEL             ....  116
 Basis Dimension        Dim             .... 1016

ORBITAL ENERGIES
----------------

  NO   OCC          E(Eh)            E(eV)
   0   2.0000     -91.812171     -2498.3362
   1   2.0000     -20.389082      -554.8151
   2   2.0000     -20.359916      -554.0215
   3   2.0000     -15.441174      -420.1757
   4   2.0000     -11.220452      -305.3240
   5   2.0000     -11.179578      -304.2118
   6   2.0000     -11.144208      -303.2493
   7   2.0000     -11.137245      -303.0598
   8   2.0000     -11.119218      -302.5693
   9   2.0000     -11.114941      -302.4529
  10   2.0000     -11.112877      -302.3968
  11   2.0000     -11.094224      -301.8892
  12   2.0000     -11.074380      -301.3492
  13   2.0000     -11.043818      -300.5176
  14   2.0000      -8.812830      -239.8093
  15   2.0000      -6.494087      -176.7131
  16   2.0000      -6.493091      -176.6860
  17   2.0000      -6.492407      -176.6674
  18   2.0000      -1.250052       -34.0157
  19   2.0000      -1.199729       -32.6463
  20   2.0000      -1.102594       -30.0031
  21   2.0000      -0.960206       -26.1285
  22   2.0000      -0.942197       -25.6385
  23   2.0000      -0.904605       -24.6156
  24   2.0000      -0.882235       -24.0068
  25   2.0000      -0.835930       -22.7468
  26   2.0000      -0.794070       -21.6077
  27   2.0000      -0.733942       -19.9716
  28   2.0000      -0.692505       -18.8440
  29   2.0000      -0.663820       -18.0635
  30   2.0000      -0.618991       -16.8436
  31   2.0000      -0.567070       -15.4308
  32   2.0000      -0.555964       -15.1286
  33   2.0000      -0.537796       -14.6342
  34   2.0000      -0.524209       -14.2644
  35   2.0000      -0.508003       -13.8235
  36   2.0000      -0.499617       -13.5953
  37   2.0000      -0.482892       -13.1402
  38   2.0000      -0.472239       -12.8503
  39   2.0000      -0.462970       -12.5980
  40   2.0000      -0.451463       -12.2849
  41   2.0000      -0.450350       -12.2547
  42   2.0000      -0.429008       -11.6739
  43   2.0000      -0.420734       -11.4488
  44   2.0000      -0.409624       -11.1464
  45   2.0000      -0.396575       -10.7914
  46   2.0000      -0.389774       -10.6063
  47   2.0000      -0.382228       -10.4009
  48   2.0000      -0.381361       -10.3773
  49   2.0000      -0.364847        -9.9280
  50   2.0000      -0.343952        -9.3594
  51   2.0000      -0.326317        -8.8795
  52   2.0000      -0.299179        -8.1411
  53   2.0000      -0.265777        -7.2322
  54   2.0000      -0.259199        -7.0532
  55   2.0000      -0.238852        -6.4995
  56   2.0000      -0.221871        -6.0374
  57   2.0000      -0.115091        -3.1318
  58   0.0000       0.094226         2.5640
  59   0.0000       0.105770         2.8782
  60   0.0000       0.106593         2.9006
  61   0.0000       0.108598         2.9551
  62   0.0000       0.111591         3.0365

MULLIKEN ATOMIC CHARGES
-----------------------
   0 C :   -0.905130
   1 C :   -0.327527
   2 H :    0.248840
   3 H :    0.268623
   4 H :    0.302535
   5 C :   -0.475106
   6 C :    0.160227
   7 C :   -0.554838
   8 C :    1.024182
   9 O :   -1.089923
  10 S :   -0.529582
  11 C :   -0.416507
  12 C :   -0.481369
  13 H :    0.167307
  14 H :    0.274964
  15 N :   -0.101828
  16 H :    0.255084
  17 H :    0.280017
  18 C :    0.165804
  19 O :   -0.978983
  20 C :   -0.698794
  21 H :    0.255275
  22 H :    0.417228
  23 H :    0.260645
  24 H :    0.642239
  25 H :    0.217555
  26 H :    0.232226
  27 H :    0.031365
  28 H :    0.189354
  29 H :    0.166114
Sum of atomic charges:   -1.0000000

LOEWDIN ATOMIC CHARGES
----------------------
   0 C :    0.550419
   1 C :    0.187297
   2 H :   -0.185010
   3 H :   -0.182164
   4 H :   -0.178683
   5 C :    0.176004
   6 C :    0.115310
   7 C :    0.014977
   8 C :   -0.941701
   9 O :    0.404402
  10 S :    1.141310
  11 C :   -0.097983
  12 C :    0.097441
  13 H :   -0.230221
  14 H :   -0.238986
  15 N :    0.534617
  16 H :   -0.153609
  17 H :   -0.160692
  18 C :   -0.708179
  19 O :    0.393823
  20 C :    0.583661
  21 H :   -0.180629
  22 H :   -0.186054
  23 H :   -0.181642
  24 H :   -0.560090
  25 H :   -0.173735
  26 H :   -0.166544
  27 H :   -0.271284
  28 H :   -0.201441
  29 H :   -0.200614

  Mayer bond orders larger than 0.100000
B(  0-C ,  1-C ) :   0.9172 B(  0-C ,  2-H ) :   0.9725 B(  0-C ,  3-H ) :   0.9528
B(  0-C ,  4-H ) :   0.9308 B(  1-C ,  5-C ) :   0.8258 B(  1-C , 25-H ) :   0.9558
B(  1-C , 26-H ) :   0.9968 B(  5-C ,  6-C ) :   0.9332 B(  5-C ,  8-C ) :   0.2875
B(  5-C , 28-H ) :   1.1848 B(  6-C ,  7-C ) :   0.3107 B(  6-C , 29-H ) :   1.2930
B(  7-C ,  8-C ) :   1.0631 B(  7-C ,  9-O ) :  -0.1204 B(  7-C , 27-H ) :   1.5402
B(  8-C ,  9-O ) :   1.3179 B(  8-C , 10-S ) :   0.5983 B(  8-C , 27-H ) :  -0.1973
B(  9-O , 10-S ) :   0.1144 B( 10-S , 11-C ) :   0.9426 B( 10-S , 12-C ) :   0.1168
B( 10-S , 13-H ) :   0.1160 B( 11-C , 12-C ) :   0.9440 B( 11-C , 13-H ) :   0.9983
B( 11-C , 14-H ) :   0.9402 B( 12-C , 15-N ) :   0.7972 B( 12-C , 16-H ) :   0.9690
B( 12-C , 17-H ) :   0.9766 B( 12-C , 18-C ) :  -0.1376 B( 15-N , 18-C ) :   1.2064
B( 15-N , 19-O ) :  -0.1500 B( 15-N , 24-H ) :   0.5173 B( 18-C , 19-O ) :   1.4272
B( 18-C , 20-C ) :   0.4899 B( 18-C , 24-H ) :  -0.2325 B( 19-O , 20-C ) :  -0.1495
B( 20-C , 21-H ) :   1.0166 B( 20-C , 22-H ) :   0.8249 B( 20-C , 23-H ) :   1.0111

MP2 TOTAL ENERGY:     -992.551514063 Eh
FINAL SINGLE POINT ENERGY      -992.551514062525

DIPOLE MOMENT
-------------
                                X             Y             Z
Electronic contribution:    -16.32791      -6.91460      -2.44199
Nuclear contribution   :     16.84157       7.00122       2.87868
                        -----------------------------------------
Total Dipole Moment    :      0.51366       0.08662       0.43669
                        -----------------------------------------
Magnitude (a.u.)       :      0.67974
Magnitude (Debye)      :      1.72776

Rotational constants in cm-1:     0.035350     0.007241     0.006236
Rotational constants in MHz :  1059.769751   217.078065   186.937405

                             ****ORCA TERMINATED NORMALLY****
TOTAL RUN TIME: 0 days 0 hours 13 minutes 59 seconds 960 msec
