                         Program Version 4.2.1 -  RELEASE  -
|  1> %pal
|  2>  nprocs 32
|  3> end
|  4> !RI-MP2 aug-cc-pVTZ aug-cc-pVTZ/C TightSCF
|  5> %maxcore 4500
|  6> *xyzfile 0 1  09_16R1.xyz
|  7>
|  8>
|  9>                          ****END OF INPUT****

CARTESIAN COORDINATES (ANGSTROEM)
---------------------------------
  C     -2.154666   -0.431786    0.000100
  C     -1.040241    0.239700    0.000035
  C      0.050451    0.958477   -0.000019
  O      1.331027    0.502923   -0.000064
  C      1.481993   -0.904199   -0.000046
  H      0.014528    2.040864   -0.000039
  H      2.551888   -1.099123   -0.000086
  H      1.022474   -1.343983    0.890190
  H      1.022401   -1.344015   -0.890229
  H     -2.642406   -0.725162   -0.924986
  H     -2.642323   -0.725122    0.925243

 Total Charge           Charge          ....    0
 Multiplicity           Mult            ....    1
 Number of Electrons    NEL             ....   38
 Basis Dimension        Dim             ....  368

ORBITAL ENERGIES
----------------

  NO   OCC          E(Eh)            E(eV)
   0   2.0000     -20.586005      -560.1737
   1   2.0000     -11.298208      -307.4399
   2   2.0000     -11.277997      -306.8899
   3   2.0000     -11.243643      -305.9551
   4   2.0000     -11.239745      -305.8490
   5   2.0000      -1.409324       -38.3497
   6   2.0000      -1.067585       -29.0505
   7   2.0000      -0.980210       -26.6729
   8   2.0000      -0.911804       -24.8115
   9   2.0000      -0.735409       -20.0115
  10   2.0000      -0.685875       -18.6636
  11   2.0000      -0.660238       -17.9660
  12   2.0000      -0.653651       -17.7867
  13   2.0000      -0.605525       -16.4772
  14   2.0000      -0.567973       -15.4553
  15   2.0000      -0.512323       -13.9410
  16   2.0000      -0.499424       -13.5900
  17   2.0000      -0.387031       -10.5317
  18   2.0000      -0.343985        -9.3603
  19   0.0000       0.029297         0.7972
  20   0.0000       0.038262         1.0412
  21   0.0000       0.039986         1.0881
  22   0.0000       0.042461         1.1554
  23   0.0000       0.057291         1.5590

MULLIKEN ATOMIC CHARGES
-----------------------
   0 C :   -1.200644
   1 C :    0.931593
   2 C :   -0.697058
   3 O :   -0.440576
   4 C :   -0.806008
   5 H :    0.474790
   6 H :    0.353261
   7 H :    0.348633
   8 H :    0.348633
   9 H :    0.343688
  10 H :    0.343687
Sum of atomic charges:    0.0000000

LOEWDIN ATOMIC CHARGES
----------------------
   0 C :    0.455017
   1 C :    0.066244
   2 C :   -0.125008
   3 O :    0.520902
   4 C :    0.318015
   5 H :   -0.216263
   6 H :   -0.183732
   7 H :   -0.177523
   8 H :   -0.177522
   9 H :   -0.240065
  10 H :   -0.240064

  Mayer bond orders larger than 0.100000
B(  0-C ,  1-C ) :   1.3342 B(  0-C ,  2-C ) :  -0.3271 B(  0-C ,  9-H ) :   0.9799
B(  0-C , 10-H ) :   0.9799 B(  1-C ,  2-C ) :   1.1569 B(  2-C ,  3-O ) :   0.9926
B(  2-C ,  4-C ) :   0.1390 B(  2-C ,  5-H ) :   0.8242 B(  3-O ,  4-C ) :   0.8457
B(  4-C ,  6-H ) :   0.9009 B(  4-C ,  7-H ) :   0.8803 B(  4-C ,  8-H ) :   0.8803

MP2 TOTAL ENERGY:     -230.724559510 Eh
FINAL SINGLE POINT ENERGY      -230.724559510049

DIPOLE MOMENT
-------------
                                X             Y             Z
Electronic contribution:      0.48718       2.81012      -0.00008
Nuclear contribution   :     -0.66433      -3.24665       0.00009
                        -----------------------------------------
Total Dipole Moment    :     -0.17715      -0.43653       0.00002
                        -----------------------------------------
Magnitude (a.u.)       :      0.47111
Magnitude (Debye)      :      1.19746

Rotational constants in cm-1:     0.410132     0.112682     0.091588
Rotational constants in MHz : 12295.457669  3378.124257  2745.724267

                             ****ORCA TERMINATED NORMALLY****
TOTAL RUN TIME: 0 days 0 hours 0 minutes 39 seconds 234 msec
