                         Program Version 4.2.1 -  RELEASE  -
|  1> %pal
|  2>  nprocs 32
|  3> end
|  4> !RI-MP2 aug-cc-pVTZ aug-cc-pVTZ/C TightSCF
|  5> %maxcore 4500
|  6> *xyzfile 0 1  04_80R1.xyz
|  7>
|  8>
|  9>                          ****END OF INPUT****

CARTESIAN COORDINATES (ANGSTROEM)
---------------------------------
  P     -0.000005   -0.034407   -0.491496
  O     -0.000024   -0.274413   -1.956679
  N     -1.399264   -0.651900    0.194465
  N      0.000073    1.537030    0.095300
  N      1.399205   -0.652028    0.194450
  C      1.682758   -0.576071    1.614786
  H      1.370242   -1.482038    2.150140
  H      2.759659   -0.452286    1.767383
  H      1.180648    0.281903    2.058327
  C      2.133270   -1.690944   -0.510638
  H      3.208760   -1.521858   -0.397332
  H      1.902231   -2.690393   -0.119318
  H      1.881790   -1.657940   -1.568089
  C     -2.133462   -1.690714   -0.510635
  H     -1.882005   -1.657706   -1.568092
  H     -1.902520   -2.690200   -0.119353
  H     -3.208929   -1.521514   -0.397294
  C     -1.682759   -0.575961    1.614813
  C     -1.209618    2.336233   -0.065713
  H     -1.226883    3.120303    0.695938
  H     -1.251298    2.812055   -1.052854
  H     -2.093190    1.713751    0.053497
  C      1.209829    2.336126   -0.065764
  H      1.251505    2.811951   -1.052903
  H      1.227201    3.120189    0.695892
  H      2.093351    1.713563    0.053399
  H     -1.180555    0.281953    2.058363
  H     -1.370309   -1.481973    2.150127
  H     -2.759644   -0.452079    1.767451

 Total Charge           Charge          ....    0
 Multiplicity           Mult            ....    1
 Number of Electrons    NEL             ....   98
 Basis Dimension        Dim             ....  924

ORBITAL ENERGIES
----------------

  NO   OCC          E(Eh)            E(eV)
   0   2.0000     -80.042117     -2178.0567
   1   2.0000     -20.473221      -557.1047
   2   2.0000     -15.558415      -423.3660
   3   2.0000     -15.552851      -423.2146
   4   2.0000     -15.552836      -423.2142
   5   2.0000     -11.257768      -306.3394
   6   2.0000     -11.257766      -306.3394
   7   2.0000     -11.251900      -306.1798
   8   2.0000     -11.251884      -306.1793
   9   2.0000     -11.244396      -305.9756
  10   2.0000     -11.244396      -305.9756
  11   2.0000      -7.563304      -205.8080
  12   2.0000      -5.460902      -148.5987
  13   2.0000      -5.460810      -148.5962
  14   2.0000      -5.460373      -148.5843
  15   2.0000      -1.302627       -35.4463
  16   2.0000      -1.224055       -33.3082
  17   2.0000      -1.207439       -32.8561
  18   2.0000      -1.203013       -32.7356
  19   2.0000      -0.964272       -26.2392
  20   2.0000      -0.963584       -26.2205
  21   2.0000      -0.955123       -25.9902
  22   2.0000      -0.931120       -25.3371
  23   2.0000      -0.860569       -23.4173
  24   2.0000      -0.856871       -23.3166
  25   2.0000      -0.728407       -19.8210
  26   2.0000      -0.681008       -18.5312
  27   2.0000      -0.673939       -18.3388
  28   2.0000      -0.648775       -17.6541
  29   2.0000      -0.629204       -17.1215
  30   2.0000      -0.627982       -17.0883
  31   2.0000      -0.613501       -16.6942
  32   2.0000      -0.604912       -16.4605
  33   2.0000      -0.594682       -16.1821
  34   2.0000      -0.581776       -15.8309
  35   2.0000      -0.553597       -15.0641
  36   2.0000      -0.550477       -14.9792
  37   2.0000      -0.543785       -14.7971
  38   2.0000      -0.536875       -14.6091
  39   2.0000      -0.523184       -14.2366
  40   2.0000      -0.520842       -14.1728
  41   2.0000      -0.517106       -14.0712
  42   2.0000      -0.515302       -14.0221
  43   2.0000      -0.510005       -13.8779
  44   2.0000      -0.448281       -12.1983
  45   2.0000      -0.432507       -11.7691
  46   2.0000      -0.395870       -10.7722
  47   2.0000      -0.375105       -10.2071
  48   2.0000      -0.352168        -9.5830
  49   0.0000       0.024982         0.6798
  50   0.0000       0.032168         0.8753
  51   0.0000       0.033408         0.9091
  52   0.0000       0.038281         1.0417
  53   0.0000       0.046784         1.2731

MULLIKEN ATOMIC CHARGES
-----------------------
   0 P :    1.382107
   1 O :   -1.256932
   2 N :    0.213905
   3 N :    0.441117
   4 N :    0.213943
   5 C :   -1.113929
   6 H :    0.253555
   7 H :    0.242820
   8 H :    0.438204
   9 C :   -1.122086
  10 H :    0.289626
  11 H :    0.312180
  12 H :    0.394224
  13 C :   -1.122076
  14 H :    0.394222
  15 H :    0.312179
  16 H :    0.289628
  17 C :   -1.113927
  18 C :   -1.230210
  19 H :    0.289243
  20 H :    0.291900
  21 H :    0.457404
  22 C :   -1.230219
  23 H :    0.291898
  24 H :    0.289245
  25 H :    0.457398
  26 H :    0.438209
  27 H :    0.253556
  28 H :    0.242817
Sum of atomic charges:    0.0000000

LOEWDIN ATOMIC CHARGES
----------------------
   0 P :    0.108945
   1 O :    0.093791
   2 N :    0.129870
   3 N :    0.134698
   4 N :    0.129871
   5 C :    0.410233
   6 H :   -0.155423
   7 H :   -0.159212
   8 H :   -0.193865
   9 C :    0.421625
  10 H :   -0.165809
  11 H :   -0.159407
  12 H :   -0.210229
  13 C :    0.421625
  14 H :   -0.210229
  15 H :   -0.159407
  16 H :   -0.165811
  17 C :    0.410233
  18 C :    0.422521
  19 H :   -0.161524
  20 H :   -0.151813
  21 H :   -0.195686
  22 C :    0.422521
  23 H :   -0.151813
  24 H :   -0.161524
  25 H :   -0.195684
  26 H :   -0.193864
  27 H :   -0.155424
  28 H :   -0.159211

  Mayer bond orders larger than 0.100000
B(  0-P ,  1-O ) :   0.5172 B(  0-P ,  2-N ) :   0.9243 B(  0-P ,  3-N ) :   0.9602
B(  0-P ,  4-N ) :   0.9243 B(  0-P ,  9-C ) :  -0.1635 B(  0-P , 13-C ) :  -0.1635
B(  0-P , 18-C ) :  -0.1571 B(  0-P , 22-C ) :  -0.1571 B(  2-N ,  3-N ) :   0.1688
B(  2-N ,  4-N ) :   0.4052 B(  2-N , 13-C ) :   0.9243 B(  2-N , 17-C ) :   0.8796
B(  2-N , 26-H ) :   0.1111 B(  3-N ,  4-N ) :   0.1687 B(  3-N , 18-C ) :   0.9960
B(  3-N , 22-C ) :   0.9960 B(  4-N ,  5-C ) :   0.8796 B(  4-N ,  8-H ) :   0.1111
B(  4-N ,  9-C ) :   0.9243 B(  5-C ,  6-H ) :   1.0352 B(  5-C ,  7-H ) :   1.0221
B(  5-C ,  8-H ) :   0.8323 B(  9-C , 10-H ) :   0.9697 B(  9-C , 11-H ) :   0.9416
B(  9-C , 12-H ) :   0.9017 B( 13-C , 14-H ) :   0.9017 B( 13-C , 15-H ) :   0.9416
B( 13-C , 16-H ) :   0.9697 B( 17-C , 26-H ) :   0.8323 B( 17-C , 27-H ) :   1.0352
B( 17-C , 28-H ) :   1.0221 B( 18-C , 19-H ) :   0.9782 B( 18-C , 20-H ) :   0.9865
B( 18-C , 21-H ) :   0.8278 B( 22-C , 23-H ) :   0.9865 B( 22-C , 24-H ) :   0.9782
B( 22-C , 25-H ) :   0.8278

MP2 TOTAL ENERGY:     -819.003762616 Eh
FINAL SINGLE POINT ENERGY      -819.003762615822

DIPOLE MOMENT
-------------
                                X             Y             Z
Electronic contribution:     -0.00005      -0.10512      -6.18491
Nuclear contribution   :      0.00006       0.28500       7.82135
                        -----------------------------------------
Total Dipole Moment    :      0.00001       0.17988       1.63644
                        -----------------------------------------
Magnitude (a.u.)       :      1.64629
Magnitude (Debye)      :      4.18454

Rotational constants in cm-1:     0.033948     0.033002     0.025357
Rotational constants in MHz :  1017.738060   989.380053   760.182757

                             ****ORCA TERMINATED NORMALLY****
TOTAL RUN TIME: 0 days 0 hours 13 minutes 57 seconds 302 msec
