                         Program Version 4.2.1 -  RELEASE  -
|  1> %pal
|  2>  nprocs 32
|  3> end
|  4> !RI-MP2 aug-cc-pVTZ aug-cc-pVTZ/C TightSCF
|  5> %maxcore 4500
|  6> *xyzfile 0 1  10_90P.xyz
|  7>
|  8>
|  9>                          ****END OF INPUT****

CARTESIAN COORDINATES (ANGSTROEM)
---------------------------------
  C     -1.665886   -2.109708    0.699441
  C     -0.409113   -1.933222    1.130181
  C      0.590870   -1.171900    0.397317
  C      0.218599   -0.579977   -0.762634
  C     -1.171731   -0.583273   -1.292580
  C     -2.121123   -1.526947   -0.563121
  C      1.958564   -1.014126    0.835638
  C      2.407798    0.327680   -1.164481
  C      2.809001   -0.290344    0.075136
  O      1.067942    0.119589   -1.521314
  O      3.074710    0.988042   -1.906238
  O     -3.225332   -1.738484   -1.018861
  C     -1.090162    2.210543    0.799750
  C     -1.908525    1.379770    0.155182
  C     -1.761382    0.861087   -1.244578
  C     -1.364932    2.605238    2.223805
  C      0.150592    2.823201    0.214785
  C      2.413103   -1.640709    2.117953
  H     -2.384278   -2.703033    1.249980
  H     -0.105443   -2.390755    2.064110
  H      3.840902   -0.135869    0.358353
  H     -0.522450    2.335576    2.868794
  H     -1.490952    3.688909    2.309259
  H     -2.262746    2.123640    2.611950
  H      0.299600    2.591618   -0.837281
  H      0.122069    3.911211    0.322960
  H      1.035796    2.480908    0.761190
  H      1.826720   -1.269800    2.962203
  H      2.288998   -2.725910    2.086420
  H      3.462585   -1.421499    2.306617
  H     -1.127593    1.502407   -1.855021
  H     -2.738917    0.803736   -1.725920
  H     -1.146569   -0.889364   -2.342114
  H     -2.770332    1.001173    0.699052

 Total Charge           Charge          ....    0
 Multiplicity           Mult            ....    1
 Number of Electrons    NEL             ....  130
 Basis Dimension        Dim             .... 1196

ORBITAL ENERGIES
----------------

  NO   OCC          E(Eh)            E(eV)
   0   2.0000     -20.645827      -561.8015
   1   2.0000     -20.547130      -559.1158
   2   2.0000     -20.546103      -559.0879
   3   2.0000     -11.394540      -310.0612
   4   2.0000     -11.353877      -308.9547
   5   2.0000     -11.338975      -308.5492
   6   2.0000     -11.303245      -307.5769
   7   2.0000     -11.285615      -307.0972
   8   2.0000     -11.268446      -306.6300
   9   2.0000     -11.261023      -306.4280
  10   2.0000     -11.260913      -306.4250
  11   2.0000     -11.250632      -306.1453
  12   2.0000     -11.247674      -306.0648
  13   2.0000     -11.245649      -306.0097
  14   2.0000     -11.243822      -305.9600
  15   2.0000     -11.225607      -305.4643
  16   2.0000     -11.223924      -305.4185
  17   2.0000     -11.223714      -305.4128
  18   2.0000      -1.495782       -40.7023
  19   2.0000      -1.392894       -37.9026
  20   2.0000      -1.388891       -37.7937
  21   2.0000      -1.186306       -32.2810
  22   2.0000      -1.141025       -31.0489
  23   2.0000      -1.110504       -30.2184
  24   2.0000      -1.072700       -29.1896
  25   2.0000      -1.029931       -28.0258
  26   2.0000      -1.009094       -27.4588
  27   2.0000      -0.974627       -26.5209
  28   2.0000      -0.948506       -25.8102
  29   2.0000      -0.905840       -24.6492
  30   2.0000      -0.881678       -23.9917
  31   2.0000      -0.859286       -23.3824
  32   2.0000      -0.837722       -22.7956
  33   2.0000      -0.755711       -20.5639
  34   2.0000      -0.745731       -20.2924
  35   2.0000      -0.725403       -19.7392
  36   2.0000      -0.709672       -19.3112
  37   2.0000      -0.687044       -18.6954
  38   2.0000      -0.661684       -18.0053
  39   2.0000      -0.656664       -17.8687
  40   2.0000      -0.649750       -17.6806
  41   2.0000      -0.645328       -17.5603
  42   2.0000      -0.623427       -16.9643
  43   2.0000      -0.612440       -16.6653
  44   2.0000      -0.611864       -16.6497
  45   2.0000      -0.602595       -16.3975
  46   2.0000      -0.600311       -16.3353
  47   2.0000      -0.594724       -16.1832
  48   2.0000      -0.590127       -16.0582
  49   2.0000      -0.568235       -15.4625
  50   2.0000      -0.555060       -15.1039
  51   2.0000      -0.542503       -14.7622
  52   2.0000      -0.541242       -14.7279
  53   2.0000      -0.531544       -14.4640
  54   2.0000      -0.528888       -14.3918
  55   2.0000      -0.522295       -14.2124
  56   2.0000      -0.512816       -13.9544
  57   2.0000      -0.505044       -13.7429
  58   2.0000      -0.480942       -13.0871
  59   2.0000      -0.473680       -12.8895
  60   2.0000      -0.458859       -12.4862
  61   2.0000      -0.421569       -11.4715
  62   2.0000      -0.404320       -11.0021
  63   2.0000      -0.347824        -9.4648
  64   2.0000      -0.317657        -8.6439
  65   0.0000       0.016069         0.4373
  66   0.0000       0.027671         0.7530
  67   0.0000       0.028829         0.7845
  68   0.0000       0.033448         0.9102
  69   0.0000       0.041379         1.1260

MULLIKEN ATOMIC CHARGES
-----------------------
   0 C :   -0.616521
   1 C :   -0.889966
   2 C :    1.784863
   3 C :    0.145445
   4 C :    0.284527
   5 C :    1.364938
   6 C :    0.269566
   7 C :    0.942819
   8 C :   -0.366288
   9 O :   -1.024985
  10 O :   -1.149865
  11 O :   -1.335751
  12 C :    1.508424
  13 C :   -0.806611
  14 C :   -0.180722
  15 C :   -1.246688
  16 C :   -0.970453
  17 C :   -0.986973
  18 H :    0.484714
  19 H :   -0.102258
  20 H :    0.178000
  21 H :    0.235050
  22 H :    0.281852
  23 H :    0.254867
  24 H :    0.302622
  25 H :    0.267199
  26 H :    0.207039
  27 H :    0.248640
  28 H :    0.287737
  29 H :    0.249267
  30 H :   -0.001647
  31 H :    0.345521
  32 H :    0.385433
  33 H :   -0.349796
Sum of atomic charges:    0.0000000

LOEWDIN ATOMIC CHARGES
----------------------
   0 C :    0.244899
   1 C :    0.230727
   2 C :   -0.082404
   3 C :   -0.326070
   4 C :    0.018549
   5 C :   -0.538179
   6 C :   -0.106422
   7 C :   -0.785286
   8 C :    0.228415
   9 O :    0.641681
  10 O :    0.442350
  11 O :    0.483031
  12 C :   -0.100216
  13 C :    0.244298
  14 C :    0.300265
  15 C :    0.570289
  16 C :    0.582221
  17 C :    0.599771
  18 H :   -0.184971
  19 H :   -0.176374
  20 H :   -0.186704
  21 H :   -0.164136
  22 H :   -0.162999
  23 H :   -0.176698
  24 H :   -0.197045
  25 H :   -0.154677
  26 H :   -0.159178
  27 H :   -0.155224
  28 H :   -0.153581
  29 H :   -0.166138
  30 H :   -0.167126
  31 H :   -0.142947
  32 H :   -0.122715
  33 H :   -0.177404

  Mayer bond orders larger than 0.100000
B(  0-C ,  1-C ) :   1.8990 B(  0-C ,  3-C ) :   0.2048 B(  0-C ,  4-C ) :   0.1655
B(  0-C ,  5-C ) :   0.5472 B(  0-C ,  6-C ) :  -0.1177 B(  0-C , 11-O ) :   0.1196
B(  0-C , 18-H ) :   0.6515 B(  0-C , 19-H ) :  -0.1241 B(  1-C ,  2-C ) :   0.3365
B(  1-C ,  3-C ) :  -0.4581 B(  1-C ,  5-C ) :   0.1249 B(  1-C ,  6-C ) :   0.4975
B(  1-C , 11-O ) :   0.1401 B(  1-C , 19-H ) :   1.6212 B(  2-C ,  3-C ) :   1.1237
B(  2-C ,  5-C ) :  -0.3377 B(  2-C ,  7-C ) :  -0.3266 B(  2-C ,  9-O ) :  -0.2772
B(  2-C , 17-C ) :   0.3619 B(  2-C , 19-H ) :  -0.1683 B(  3-C ,  4-C ) :   0.9560
B(  3-C ,  5-C ) :   0.3183 B(  3-C ,  6-C ) :   0.5551 B(  3-C ,  8-C ) :   0.1346
B(  3-C ,  9-O ) :   0.2676 B(  3-C , 19-H ) :   0.1175 B(  3-C , 32-H ) :  -0.1361
B(  4-C ,  5-C ) :   0.6146 B(  4-C , 13-C ) :   0.1354 B(  4-C , 14-C ) :   0.9277
B(  4-C , 32-H ) :   0.9460 B(  5-C ,  6-C ) :   0.1150 B(  5-C , 32-H ) :  -0.1103
B(  6-C ,  7-C ) :   0.3357 B(  6-C ,  8-C ) :   1.5228 B(  6-C , 17-C ) :   0.3483
B(  7-C ,  8-C ) :   0.8158 B(  7-C ,  9-O ) :   1.5560 B(  7-C , 10-O ) :   0.6011
B(  8-C , 20-H ) :   1.0300 B(  9-O , 10-O ) :  -0.1169 B( 10-O , 20-H ) :   0.1537
B( 12-C , 13-C ) :   1.2334 B( 12-C , 15-C ) :   0.4290 B( 12-C , 16-C ) :   0.4716
B( 12-C , 22-H ) :  -0.1184 B( 12-C , 33-H ) :  -0.4622 B( 13-C , 14-C ) :   0.8588
B( 13-C , 30-H ) :   0.2136 B( 13-C , 31-H ) :  -0.1840 B( 13-C , 33-H ) :   1.8700
B( 14-C , 30-H ) :   1.0726 B( 14-C , 31-H ) :   0.9652 B( 15-C , 21-H ) :   1.0720
B( 15-C , 22-H ) :   1.0613 B( 15-C , 23-H ) :   1.0532 B( 16-C , 24-H ) :   0.9259
B( 16-C , 25-H ) :   1.0360 B( 16-C , 26-H ) :   1.0876 B( 17-C , 27-H ) :   1.0639
B( 17-C , 28-H ) :   1.0504 B( 17-C , 29-H ) :   1.0058 B( 30-H , 33-H ) :   0.1812

MP2 TOTAL ENERGY:     -805.350103434 Eh
FINAL SINGLE POINT ENERGY      -805.350103433835

DIPOLE MOMENT
-------------
                                X             Y             Z
Electronic contribution:      2.23988      -9.38600     -11.71314
Nuclear contribution   :     -1.65719       8.88789      13.76254
                        -----------------------------------------
Total Dipole Moment    :      0.58269      -0.49812       2.04940
                        -----------------------------------------
Magnitude (a.u.)       :      2.18808
Magnitude (Debye)      :      5.56165

Rotational constants in cm-1:     0.016888     0.012932     0.011061
Rotational constants in MHz :   506.293237   387.690338   331.586352

                             ****ORCA TERMINATED NORMALLY****
TOTAL RUN TIME: 0 days 0 hours 45 minutes 3 seconds 606 msec
