                         Program Version 4.2.1 -  RELEASE  -
|  1> %pal
|  2>  nprocs 32
|  3> end
|  4> !RI-MP2 aug-cc-pVTZ aug-cc-pVTZ/C TightSCF
|  5> %maxcore 4500
|  6> *xyzfile 1 1  10_13TS.xyz
|  7>
|  8>
|  9>                          ****END OF INPUT****

CARTESIAN COORDINATES (ANGSTROEM)
---------------------------------
  C     -1.919441   -0.975719    0.103019
  N     -0.599430   -0.821983   -0.097432
  N      0.111560    0.139789    0.087338
  C      1.509476    0.041539   -0.006750
  C      2.207466    1.234182    0.169856
  C      2.175146   -1.163406   -0.250069
  C      3.590100    1.224684    0.101451
  H      1.662149    2.149606    0.359103
  C      3.552449   -1.158713   -0.316431
  H      1.611305   -2.077035   -0.386804
  C      4.257790    0.032051   -0.141025
  H      4.145884    2.143099    0.236512
  H      4.086924   -2.080619   -0.505373
  H      5.339344    0.024295   -0.194950
  C     -2.701983   -1.462349   -1.076258
  H     -2.395426   -0.977198   -2.000887
  H     -2.533248   -2.538525   -1.178745
  H     -3.767519   -1.313585   -0.909824
  C     -2.283101   -1.517657    1.459796
  H     -1.772002   -0.983655    2.259643
  H     -3.360639   -1.467722    1.606786
  H     -1.990880   -2.569995    1.509543
  C     -2.678133    1.162728    0.260854
  C     -1.582047    1.697564    0.858557
  H     -3.424402    0.706653    0.903212
  H     -1.352170    1.515345    1.901016
  H     -0.978278    2.440638    0.355317
  C     -3.137240    1.632439   -1.091341
  H     -3.774021    0.908262   -1.596570
  H     -3.731125    2.542418   -0.975005
  H     -2.293697    1.869315   -1.742265

 Total Charge           Charge          ....    1
 Multiplicity           Mult            ....    1
 Number of Electrons    NEL             ....  102
 Basis Dimension        Dim             .... 1035

ORBITAL ENERGIES
----------------

  NO   OCC          E(Eh)            E(eV)
   0   2.0000     -15.822013      -430.5389
   1   2.0000     -15.806317      -430.1118
   2   2.0000     -11.519090      -313.4504
   3   2.0000     -11.409489      -310.4680
   4   2.0000     -11.406162      -310.3774
   5   2.0000     -11.393551      -310.0343
   6   2.0000     -11.390195      -309.9430
   7   2.0000     -11.381262      -309.6999
   8   2.0000     -11.376981      -309.5834
   9   2.0000     -11.373961      -309.5012
  10   2.0000     -11.367498      -309.3253
  11   2.0000     -11.359323      -309.1029
  12   2.0000     -11.358021      -309.0675
  13   2.0000     -11.349810      -308.8440
  14   2.0000      -1.576212       -42.8909
  15   2.0000      -1.332285       -36.2533
  16   2.0000      -1.278646       -34.7937
  17   2.0000      -1.219824       -33.1931
  18   2.0000      -1.184640       -32.2357
  19   2.0000      -1.153919       -31.3997
  20   2.0000      -1.126468       -30.6527
  21   2.0000      -1.099621       -29.9222
  22   2.0000      -1.075747       -29.2726
  23   2.0000      -0.995870       -27.0990
  24   2.0000      -0.965102       -26.2618
  25   2.0000      -0.924122       -25.1466
  26   2.0000      -0.891141       -24.2492
  27   2.0000      -0.855784       -23.2871
  28   2.0000      -0.828017       -22.5315
  29   2.0000      -0.810752       -22.0617
  30   2.0000      -0.806491       -21.9457
  31   2.0000      -0.793968       -21.6050
  32   2.0000      -0.763862       -20.7857
  33   2.0000      -0.741344       -20.1730
  34   2.0000      -0.740724       -20.1561
  35   2.0000      -0.734346       -19.9826
  36   2.0000      -0.721693       -19.6383
  37   2.0000      -0.717942       -19.5362
  38   2.0000      -0.714627       -19.4460
  39   2.0000      -0.707283       -19.2461
  40   2.0000      -0.688614       -18.7381
  41   2.0000      -0.682685       -18.5768
  42   2.0000      -0.659824       -17.9547
  43   2.0000      -0.646869       -17.6022
  44   2.0000      -0.640010       -17.4156
  45   2.0000      -0.629562       -17.1312
  46   2.0000      -0.619204       -16.8494
  47   2.0000      -0.556572       -15.1451
  48   2.0000      -0.503470       -13.7001
  49   2.0000      -0.469550       -12.7771
  50   2.0000      -0.466811       -12.7026
  51   0.0000      -0.103164        -2.8072
  52   0.0000      -0.082340        -2.2406
  53   0.0000      -0.064952        -1.7674
  54   0.0000      -0.054864        -1.4929
  55   0.0000      -0.052497        -1.4285

MULLIKEN ATOMIC CHARGES
-----------------------
   0 C :    1.035743
   1 N :   -1.487536
   2 N :    1.209585
   3 C :    0.586015
   4 C :   -0.424344
   5 C :   -0.138141
   6 C :   -0.812730
   7 H :    0.507177
   8 C :   -0.965405
   9 H :    0.470922
  10 C :   -0.284368
  11 H :    0.432042
  12 H :    0.517425
  13 H :    0.460849
  14 C :   -0.994174
  15 H :    0.290407
  16 H :    0.247762
  17 H :    0.290594
  18 C :   -1.065859
  19 H :    0.319553
  20 H :    0.284662
  21 H :    0.281815
  22 C :   -0.041779
  23 C :   -1.028442
  24 H :    0.495226
  25 H :    0.337185
  26 H :    0.560571
  27 C :   -0.911076
  28 H :    0.312868
  29 H :    0.212570
  30 H :    0.300881
Sum of atomic charges:    1.0000000

LOEWDIN ATOMIC CHARGES
----------------------
   0 C :   -0.242890
   1 N :    0.281803
   2 N :    0.286138
   3 C :   -0.261761
   4 C :    0.218953
   5 C :    0.229869
   6 C :    0.231532
   7 H :   -0.170530
   8 C :    0.231109
   9 H :   -0.174022
  10 C :    0.238190
  11 H :   -0.169488
  12 H :   -0.168892
  13 H :   -0.161478
  14 C :    0.623287
  15 H :   -0.148507
  16 H :   -0.129719
  17 H :   -0.148555
  18 C :    0.629142
  19 H :   -0.148041
  20 H :   -0.148764
  21 H :   -0.132744
  22 C :    0.144071
  23 C :    0.525007
  24 H :   -0.184522
  25 H :   -0.163287
  26 H :   -0.173911
  27 C :    0.583778
  28 H :   -0.189125
  29 H :   -0.151167
  30 H :   -0.155477

  Mayer bond orders larger than 0.100000
B(  0-C ,  1-N ) :   1.4724 B(  0-C ,  3-C ) :   0.1880 B(  0-C , 14-C ) :   0.3530
B(  0-C , 18-C ) :   0.4782 B(  0-C , 22-C ) :   0.2344 B(  0-C , 23-C ) :   0.1832
B(  1-N ,  2-N ) :  -0.4558 B(  1-N ,  3-C ) :   0.5299 B(  1-N ,  4-C ) :   0.2292
B(  1-N ,  5-C ) :   0.4233 B(  1-N ,  9-H ) :  -0.2548 B(  1-N , 15-H ) :   0.1162
B(  2-N ,  3-C ) :  -0.3307 B(  2-N ,  4-C ) :  -0.5910 B(  2-N ,  5-C ) :  -1.0156
B(  2-N ,  6-C ) :   0.1858 B(  2-N ,  8-C ) :   0.1025 B(  2-N ,  9-H ) :   0.1313
B(  3-C ,  4-C ) :   0.8957 B(  3-C ,  5-C ) :   0.9040 B(  3-C ,  6-C ) :  -0.2263
B(  3-C , 10-C ) :  -0.1181 B(  4-C ,  5-C ) :  -0.2200 B(  4-C ,  6-C ) :   1.3345
B(  4-C ,  7-H ) :   0.6872 B(  5-C ,  8-C ) :   1.2254 B(  5-C ,  9-H ) :   0.9141
B(  6-C ,  7-H ) :  -0.1014 B(  6-C , 10-C ) :   1.1884 B(  6-C , 11-H ) :   0.8358
B(  6-C , 13-H ) :  -0.1193 B(  8-C , 10-C ) :   1.1549 B(  8-C , 12-H ) :   0.6764
B(  8-C , 13-H ) :  -0.1037 B( 10-C , 13-H ) :   0.8268 B( 14-C , 15-H ) :   0.9984
B( 14-C , 16-H ) :   1.0640 B( 14-C , 17-H ) :   0.9786 B( 18-C , 19-H ) :   0.9710
B( 18-C , 20-H ) :   1.0140 B( 18-C , 21-H ) :   0.9849 B( 22-C , 23-C ) :   1.5775
B( 22-C , 24-H ) :   0.7089 B( 22-C , 27-C ) :   0.7541 B( 23-C , 25-H ) :   0.9366
B( 23-C , 26-H ) :   0.6716 B( 27-C , 28-H ) :   0.9247 B( 27-C , 29-H ) :   1.0535
B( 27-C , 30-H ) :   0.9764

MP2 TOTAL ENERGY:     -575.473251527 Eh
FINAL SINGLE POINT ENERGY      -575.473251526828

DIPOLE MOMENT
-------------
                                X             Y             Z
Electronic contribution:     13.36058      -0.70697       0.68286
Nuclear contribution   :    -14.84998       0.29361      -0.36725
                        -----------------------------------------
Total Dipole Moment    :     -1.48940      -0.41337       0.31561
                        -----------------------------------------
Magnitude (a.u.)       :      1.57759
Magnitude (Debye)      :      4.00992

Rotational constants in cm-1:     0.044665     0.012429     0.010915
Rotational constants in MHz :  1339.025565   372.619863   327.213321

                             ****ORCA TERMINATED NORMALLY****
TOTAL RUN TIME: 0 days 0 hours 23 minutes 35 seconds 355 msec
