                         Program Version 4.2.1 -  RELEASE  -
|  1> %pal
|  2>  nprocs 32
|  3> end
|  4> !RI-MP2 aug-cc-pVTZ aug-cc-pVTZ/C TightSCF
|  5> %maxcore 4500
|  6> *xyzfile 0 1  02_28TS.xyz
|  7>
|  8>
|  9>                          ****END OF INPUT****

CARTESIAN COORDINATES (ANGSTROEM)
---------------------------------
  C      1.143740   -2.422301   -0.437060
  C     -0.950742   -0.819946   -0.156052
  C      0.111268   -2.531948   -1.404627
  C      0.813153   -2.017355    0.880477
  C     -0.278365   -1.231236    1.042818
  C     -0.982777   -1.748453   -1.252169
  N     -2.027914    0.122841   -0.033782
  C     -3.282599   -0.352738    0.449234
  C     -1.716536    1.420139   -0.408820
  O     -2.488172    2.361084   -0.364472
  C     -0.320661    1.513814   -0.888321
  C      0.378294    0.390925   -0.861031
  C      1.626788   -0.136952   -1.100624
  H      2.077555   -2.946560   -0.601967
  H      0.245961   -3.158673   -2.277036
  H      1.473663   -2.250887    1.704568
  H     -0.570573   -0.802820    1.991836
  H     -1.787414   -1.694597   -1.972592
  H      1.840487   -0.511232   -2.093744
  C      2.777591    0.162459   -0.250369
  C      4.059586   -0.231168   -0.650967
  C      2.641380    0.826348    0.972487
  C      5.163658    0.026077    0.142622
  H      4.182637   -0.747073   -1.597111
  C      3.747947    1.076629    1.769273
  H      1.660624    1.152066    1.295202
  C      5.013614    0.678749    1.361170
  H      6.147537   -0.284453   -0.188575
  H      3.620984    1.592047    2.713977
  H      5.877085    0.879238    1.983345
  O     -3.412046   -1.526017    0.730926
  N     -4.249849    0.572479    0.555385
  H     -4.027478    1.524608    0.288369
  C     -5.563468    0.192669    1.032114
  H     -5.509378   -0.228922    2.037359
  H     -6.191382    1.081717    1.051725
  H     -6.019611   -0.552521    0.377809
  C      0.165917    2.843594   -1.374764
  H     -0.414224    3.172105   -2.239993
  H      0.034591    3.602170   -0.600459
  H      1.218289    2.790179   -1.647922

 Total Charge           Charge          ....    0
 Multiplicity           Mult            ....    1
 Number of Electrons    NEL             ....  162
 Basis Dimension        Dim             .... 1472

ORBITAL ENERGIES
----------------

  NO   OCC          E(Eh)            E(eV)
   0   2.0000     -20.546886      -559.1092
   1   2.0000     -20.517644      -558.3135
   2   2.0000     -15.616217      -424.9389
   3   2.0000     -15.575355      -423.8270
   4   2.0000     -11.383442      -309.7592
   5   2.0000     -11.373628      -309.4922
   6   2.0000     -11.313163      -307.8468
   7   2.0000     -11.278726      -306.9097
   8   2.0000     -11.269191      -306.6503
   9   2.0000     -11.256625      -306.3083
  10   2.0000     -11.256232      -306.2977
  11   2.0000     -11.253891      -306.2340
  12   2.0000     -11.252562      -306.1978
  13   2.0000     -11.245955      -306.0180
  14   2.0000     -11.244780      -305.9860
  15   2.0000     -11.240541      -305.8707
  16   2.0000     -11.238793      -305.8231
  17   2.0000     -11.238513      -305.8155
  18   2.0000     -11.237996      -305.8014
  19   2.0000     -11.235540      -305.7346
  20   2.0000     -11.233367      -305.6754
  21   2.0000     -11.233037      -305.6665
  22   2.0000     -11.227403      -305.5132
  23   2.0000      -1.422964       -38.7208
  24   2.0000      -1.394523       -37.9469
  25   2.0000      -1.280328       -34.8395
  26   2.0000      -1.231971       -33.5236
  27   2.0000      -1.173583       -31.9348
  28   2.0000      -1.160400       -31.5761
  29   2.0000      -1.118491       -30.4357
  30   2.0000      -1.056425       -28.7468
  31   2.0000      -1.040681       -28.3184
  32   2.0000      -1.021186       -27.7879
  33   2.0000      -1.019437       -27.7403
  34   2.0000      -0.977979       -26.6122
  35   2.0000      -0.964251       -26.2386
  36   2.0000      -0.926420       -25.2092
  37   2.0000      -0.863826       -23.5059
  38   2.0000      -0.846935       -23.0463
  39   2.0000      -0.837401       -22.7868
  40   2.0000      -0.831354       -22.6223
  41   2.0000      -0.814021       -22.1506
  42   2.0000      -0.787809       -21.4374
  43   2.0000      -0.754599       -20.5337
  44   2.0000      -0.739374       -20.1194
  45   2.0000      -0.708216       -19.2715
  46   2.0000      -0.695706       -18.9311
  47   2.0000      -0.675942       -18.3933
  48   2.0000      -0.668643       -18.1947
  49   2.0000      -0.648653       -17.6507
  50   2.0000      -0.648140       -17.6368
  51   2.0000      -0.637913       -17.3585
  52   2.0000      -0.631258       -17.1774
  53   2.0000      -0.625755       -17.0277
  54   2.0000      -0.614529       -16.7222
  55   2.0000      -0.610040       -16.6000
  56   2.0000      -0.601452       -16.3663
  57   2.0000      -0.592567       -16.1246
  58   2.0000      -0.590902       -16.0793
  59   2.0000      -0.589762       -16.0483
  60   2.0000      -0.583268       -15.8715
  61   2.0000      -0.564794       -15.3688
  62   2.0000      -0.555910       -15.1271
  63   2.0000      -0.552028       -15.0214
  64   2.0000      -0.544718       -14.8225
  65   2.0000      -0.536206       -14.5909
  66   2.0000      -0.531008       -14.4495
  67   2.0000      -0.512285       -13.9400
  68   2.0000      -0.512206       -13.9378
  69   2.0000      -0.503398       -13.6981
  70   2.0000      -0.494548       -13.4573
  71   2.0000      -0.462963       -12.5979
  72   2.0000      -0.441738       -12.0203
  73   2.0000      -0.419594       -11.4177
  74   2.0000      -0.394529       -10.7357
  75   2.0000      -0.391949       -10.6655
  76   2.0000      -0.381904       -10.3921
  77   2.0000      -0.375361       -10.2141
  78   2.0000      -0.353219        -9.6116
  79   2.0000      -0.339621        -9.2416
  80   2.0000      -0.268637        -7.3100
  81   0.0000       0.021464         0.5841
  82   0.0000       0.027023         0.7353
  83   0.0000       0.029033         0.7900
  84   0.0000       0.033248         0.9047
  85   0.0000       0.035719         0.9720

MULLIKEN ATOMIC CHARGES
-----------------------
   0 C :   -0.074738
   1 C :    1.599189
   2 C :   -0.760257
   3 C :   -0.545762
   4 C :   -0.785079
   5 C :   -0.796529
   6 N :    0.328280
   7 C :    0.090926
   8 C :    0.782949
   9 O :   -1.267690
  10 C :    1.389395
  11 C :   -0.230425
  12 C :   -0.673690
  13 H :    0.239364
  14 H :    0.460665
  15 H :    0.593672
  16 H :    0.212000
  17 H :    0.348311
  18 H :    0.259842
  19 C :    1.894008
  20 C :   -1.319786
  21 C :   -0.007503
  22 C :   -0.653668
  23 H :   -0.062953
  24 C :   -1.279431
  25 H :    0.209793
  26 C :   -0.105560
  27 H :    0.569677
  28 H :    0.372430
  29 H :    0.582115
  30 O :   -1.013222
  31 N :    0.031374
  32 H :    0.222699
  33 C :   -1.178489
  34 H :    0.363689
  35 H :    0.320464
  36 H :    0.362559
  37 C :   -1.260342
  38 H :    0.200111
  39 H :    0.232162
  40 H :    0.349450
Sum of atomic charges:    0.0000000

LOEWDIN ATOMIC CHARGES
----------------------
   0 C :    0.192275
   1 C :   -0.379711
   2 C :    0.206695
   3 C :    0.204320
   4 C :    0.236786
   5 C :    0.239467
   6 N :    0.284062
   7 C :   -0.771305
   8 C :   -0.605561
   9 O :    0.538454
  10 C :   -0.090287
  11 C :    0.033915
  12 C :    0.182373
  13 H :   -0.149663
  14 H :   -0.163719
  15 H :   -0.156344
  16 H :   -0.140184
  17 H :   -0.143384
  18 H :   -0.169165
  19 C :   -0.147147
  20 C :    0.213152
  21 C :    0.214675
  22 C :    0.196141
  23 H :   -0.173620
  24 C :    0.203741
  25 H :   -0.180532
  26 C :    0.194105
  27 H :   -0.181199
  28 H :   -0.179495
  29 H :   -0.186157
  30 O :    0.480452
  31 N :    0.546728
  32 H :   -0.446665
  33 C :    0.499937
  34 H :   -0.165785
  35 H :   -0.168075
  36 H :   -0.165225
  37 C :    0.588245
  38 H :   -0.160967
  39 H :   -0.162941
  40 H :   -0.168392

  Mayer bond orders larger than 0.100000
B(  0-C ,  2-C ) :   0.8919 B(  0-C ,  3-C ) :   1.0900 B(  0-C ,  4-C ) :   0.1647
B(  0-C ,  5-C ) :   0.1671 B(  0-C , 10-C ) :  -0.1062 B(  0-C , 11-C ) :   0.1447
B(  0-C , 12-C ) :   0.2387 B(  0-C , 13-H ) :   1.2378 B(  0-C , 15-H ) :  -0.1661
B(  1-C ,  2-C ) :  -0.4128 B(  1-C ,  4-C ) :   0.2942 B(  1-C ,  5-C ) :   0.3862
B(  1-C ,  6-N ) :   0.2325 B(  1-C ,  7-C ) :  -0.2637 B(  1-C ,  8-C ) :  -0.6735
B(  1-C ,  9-O ) :   0.5705 B(  1-C , 10-C ) :   0.2791 B(  1-C , 11-C ) :   0.5436
B(  1-C , 19-C ) :  -0.1077 B(  1-C , 21-C ) :   0.1567 B(  1-C , 30-O ) :   0.3530
B(  2-C ,  3-C ) :   0.2017 B(  2-C ,  5-C ) :   1.4031 B(  2-C ,  6-N ) :  -0.1336
B(  2-C , 10-C ) :   0.1419 B(  2-C , 11-C ) :  -0.1266 B(  2-C , 12-C ) :   0.1989
B(  2-C , 14-H ) :   0.9022 B(  2-C , 16-H ) :   0.1356 B(  2-C , 17-H ) :  -0.1812
B(  2-C , 18-H ) :  -0.1055 B(  3-C ,  4-C ) :   1.2171 B(  3-C ,  5-C ) :   0.1210
B(  3-C ,  6-N ) :  -0.1328 B(  3-C ,  7-C ) :  -0.1601 B(  3-C , 15-H ) :   0.6189
B(  3-C , 16-H ) :  -0.2208 B(  3-C , 17-H ) :   0.1908 B(  4-C ,  8-C ) :   0.1403
B(  4-C , 10-C ) :  -0.2802 B(  4-C , 11-C ) :   0.4872 B(  4-C , 12-C ) :   0.1308
B(  4-C , 16-H ) :   1.1308 B(  4-C , 17-H ) :  -0.1161 B(  5-C ,  6-N ) :   0.1018
B(  5-C , 10-C ) :  -0.1244 B(  5-C , 11-C ) :   0.3248 B(  5-C , 17-H ) :   0.8798
B(  6-N ,  7-C ) :   0.8284 B(  6-N ,  8-C ) :   1.1515 B(  6-N , 10-C ) :   0.1281
B(  6-N , 11-C ) :  -0.1999 B(  6-N , 16-H ) :   0.1105 B(  6-N , 30-O ) :  -0.2888
B(  6-N , 31-N ) :  -0.1007 B(  7-C ,  8-C ) :  -0.4707 B(  7-C , 10-C ) :   0.2043
B(  7-C , 15-H ) :   0.1039 B(  7-C , 16-H ) :  -0.1060 B(  7-C , 30-O ) :   1.6677
B(  7-C , 31-N ) :   1.1247 B(  7-C , 33-C ) :  -0.1506 B(  8-C ,  9-O ) :   0.2585
B(  8-C , 10-C ) :  -0.3524 B(  8-C , 11-C ) :   0.9575 B(  8-C , 12-C ) :  -0.2434
B(  8-C , 30-O ) :  -0.1228 B(  8-C , 31-N ) :  -0.1094 B(  9-O , 10-C ) :  -0.1775
B(  9-O , 11-C ) :   0.1941 B(  9-O , 31-N ) :  -0.1295 B( 10-C , 11-C ) :   1.7484
B( 10-C , 12-C ) :  -0.5688 B( 10-C , 18-H ) :   0.1229 B( 10-C , 19-C ) :  -0.4471
B( 10-C , 21-C ) :  -0.2210 B( 10-C , 23-H ) :  -0.1509 B( 10-C , 37-C ) :   0.1822
B( 10-C , 38-H ) :  -0.2182 B( 10-C , 39-H ) :  -0.1048 B( 11-C , 12-C ) :   0.9375
B( 11-C , 18-H ) :  -0.2100 B( 11-C , 19-C ) :   0.5792 B( 11-C , 21-C ) :   0.4200
B( 11-C , 25-H ) :   0.1619 B( 11-C , 29-H ) :   0.1271 B( 11-C , 37-C ) :   0.1797
B( 11-C , 38-H ) :   0.1133 B( 12-C , 18-H ) :   1.1437 B( 12-C , 19-C ) :   0.6971
B( 12-C , 20-C ) :   0.5312 B( 12-C , 21-C ) :   0.1473 B( 12-C , 23-H ) :  -0.1218
B( 12-C , 24-C ) :   0.1828 B( 12-C , 37-C ) :   0.1940 B( 18-H , 19-C ) :  -0.2098
B( 19-C , 20-C ) :  -0.3673 B( 19-C , 21-C ) :   1.0522 B( 19-C , 22-C ) :   0.1302
B( 19-C , 23-H ) :  -0.2376 B( 19-C , 24-C ) :   0.1147 B( 19-C , 25-H ) :  -0.2403
B( 20-C , 21-C ) :  -0.7338 B( 20-C , 22-C ) :   1.3699 B( 20-C , 23-H ) :   1.8338
B( 20-C , 24-C ) :   0.1593 B( 20-C , 25-H ) :   0.1583 B( 20-C , 26-C ) :  -0.1118
B( 20-C , 27-H ) :  -0.1180 B( 20-C , 29-H ) :   0.1657 B( 21-C , 23-H ) :   0.1418
B( 21-C , 24-C ) :   1.1255 B( 21-C , 25-H ) :   1.1154 B( 21-C , 28-H ) :   0.1122
B( 22-C , 23-H ) :  -0.1115 B( 22-C , 24-C ) :   0.2312 B( 22-C , 25-H ) :  -0.1032
B( 22-C , 26-C ) :   1.1121 B( 22-C , 27-H ) :   0.5773 B( 22-C , 29-H ) :  -0.1621
B( 23-H , 25-H ) :   0.1675 B( 24-C , 26-C ) :   1.1676 B( 24-C , 28-H ) :   0.8437
B( 24-C , 29-H ) :  -0.2035 B( 26-C , 29-H ) :   0.6104 B( 30-O , 31-N ) :  -0.2116
B( 31-N , 32-H ) :   0.8927 B( 31-N , 33-C ) :   0.9382 B( 33-C , 34-H ) :   0.9099
B( 33-C , 35-H ) :   0.9735 B( 33-C , 36-H ) :   0.9098 B( 37-C , 38-H ) :   1.1397
B( 37-C , 39-H ) :   1.1217 B( 37-C , 40-H ) :   0.8658

MP2 TOTAL ENERGY:     -992.857716353 Eh
FINAL SINGLE POINT ENERGY      -992.857716352632

DIPOLE MOMENT
-------------
                                X             Y             Z
Electronic contribution:     -2.69587      -2.57814      -0.61263
Nuclear contribution   :      3.70372       2.61544       0.23202
                        -----------------------------------------
Total Dipole Moment    :      1.00785       0.03730      -0.38062
                        -----------------------------------------
Magnitude (a.u.)       :      1.07797
Magnitude (Debye)      :      2.73998

Rotational constants in cm-1:     0.018265     0.005799     0.005165
Rotational constants in MHz :   547.585347   173.864441   154.833849

                             ****ORCA TERMINATED NORMALLY****
TOTAL RUN TIME: 0 days 1 hours 12 minutes 10 seconds 619 msec
