                         Program Version 4.2.1 -  RELEASE  -
|  1> %pal
|  2>  nprocs 32
|  3> end
|  4> !RI-MP2 aug-cc-pVTZ aug-cc-pVTZ/C TightSCF
|  5> %maxcore 4500
|  6> *xyzfile 0 1  10_85R.xyz
|  7>
|  8>
|  9>                          ****END OF INPUT****

CARTESIAN COORDINATES (ANGSTROEM)
---------------------------------
  C      0.703494   -0.564040   -1.035512
  C      1.433980    0.216125   -0.246146
  C      2.612990   -0.310290    0.544942
  C      2.783171   -1.837200    0.385209
  C      2.545335   -2.200775   -1.087492
  C      1.018906   -2.039896   -1.141820
  C      1.072164    1.686268   -0.018592
  H      2.493261   -0.069658    1.606900
  H      3.525817    0.198596    0.217838
  H      3.761227   -2.138090    0.763156
  C      1.620765   -2.557522    1.045543
  H      3.068669   -1.548451   -1.788898
  H      2.830524   -3.236744   -1.276629
  C      0.616228   -2.676063    0.184868
  H      0.541769   -2.482826   -2.014253
  H     -0.379638   -3.046615    0.383321
  H      1.600838   -2.834311    2.092326
  C      2.253430    2.539244   -0.238336
  C      0.006788    2.120231   -0.935745
  N      3.190967    3.185874   -0.365118
  N     -0.857198    2.443344   -1.614972
  C      0.570080    1.935689    1.448902
  C     -0.607478    1.132519    1.722758
  C     -1.579029    0.442369    1.815477
  C     -2.794748   -0.358635    1.809074
  O     -3.608016   -0.015377    0.676442
  H     -2.554011   -1.421807    1.781638
  H     -3.413707   -0.146556    2.678955
  C     -3.208038   -0.512523   -0.513348
  C     -3.968549    0.101946   -1.644249
  O     -2.324435   -1.321538   -0.617539
  H     -3.936049   -0.557881   -2.507992
  H     -4.995354    0.320110   -1.356268
  H     -3.476088    1.044229   -1.899951
  H     -0.157746   -0.183271   -1.567224
  H      1.382475    1.690396    2.133278
  H      0.354300    2.998991    1.570011

 Total Charge           Charge          ....    0
 Multiplicity           Mult            ....    1
 Number of Electrons    NEL             ....  148
 Basis Dimension        Dim             .... 1334

ORBITAL ENERGIES
----------------

  NO   OCC          E(Eh)            E(eV)
   0   2.0000     -20.618217      -561.0502
   1   2.0000     -20.555145      -559.3339
   2   2.0000     -15.590154      -424.2297
   3   2.0000     -15.589304      -424.2065
   4   2.0000     -11.391716      -309.9844
   5   2.0000     -11.354311      -308.9665
   6   2.0000     -11.329253      -308.2847
   7   2.0000     -11.299794      -307.4830
   8   2.0000     -11.294118      -307.3286
   9   2.0000     -11.292370      -307.2810
  10   2.0000     -11.257767      -306.3394
  11   2.0000     -11.249783      -306.1222
  12   2.0000     -11.245245      -305.9987
  13   2.0000     -11.244305      -305.9731
  14   2.0000     -11.242812      -305.9325
  15   2.0000     -11.242701      -305.9294
  16   2.0000     -11.240655      -305.8738
  17   2.0000     -11.239656      -305.8466
  18   2.0000     -11.228046      -305.5307
  19   2.0000     -11.225054      -305.4492
  20   2.0000     -11.222980      -305.3928
  21   2.0000      -1.477604       -40.2077
  22   2.0000      -1.375532       -37.4301
  23   2.0000      -1.259463       -34.2717
  24   2.0000      -1.239504       -33.7286
  25   2.0000      -1.190947       -32.4073
  26   2.0000      -1.156505       -31.4701
  27   2.0000      -1.090499       -29.6740
  28   2.0000      -1.058036       -28.7906
  29   2.0000      -1.030450       -28.0400
  30   2.0000      -1.028477       -27.9863
  31   2.0000      -0.990986       -26.9661
  32   2.0000      -0.968048       -26.3419
  33   2.0000      -0.939101       -25.5542
  34   2.0000      -0.883896       -24.0520
  35   2.0000      -0.826904       -22.5012
  36   2.0000      -0.805648       -21.9228
  37   2.0000      -0.786375       -21.3984
  38   2.0000      -0.733309       -19.9544
  39   2.0000      -0.728033       -19.8108
  40   2.0000      -0.721767       -19.6403
  41   2.0000      -0.719255       -19.5719
  42   2.0000      -0.709725       -19.3126
  43   2.0000      -0.697271       -18.9737
  44   2.0000      -0.667878       -18.1739
  45   2.0000      -0.657199       -17.8833
  46   2.0000      -0.650197       -17.6928
  47   2.0000      -0.628640       -17.1062
  48   2.0000      -0.622336       -16.9346
  49   2.0000      -0.614663       -16.7258
  50   2.0000      -0.612266       -16.6606
  51   2.0000      -0.585311       -15.9271
  52   2.0000      -0.582472       -15.8499
  53   2.0000      -0.576612       -15.6904
  54   2.0000      -0.571102       -15.5405
  55   2.0000      -0.558788       -15.2054
  56   2.0000      -0.556644       -15.1470
  57   2.0000      -0.553641       -15.0653
  58   2.0000      -0.543131       -14.7793
  59   2.0000      -0.538764       -14.6605
  60   2.0000      -0.507682       -13.8147
  61   2.0000      -0.500165       -13.6102
  62   2.0000      -0.495401       -13.4806
  63   2.0000      -0.489452       -13.3187
  64   2.0000      -0.486404       -13.2357
  65   2.0000      -0.483068       -13.1449
  66   2.0000      -0.476579       -12.9684
  67   2.0000      -0.464143       -12.6300
  68   2.0000      -0.463430       -12.6106
  69   2.0000      -0.458278       -12.4704
  70   2.0000      -0.407508       -11.0889
  71   2.0000      -0.400931       -10.9099
  72   2.0000      -0.369692       -10.0598
  73   2.0000      -0.339935        -9.2501
  74   0.0000       0.021872         0.5952
  75   0.0000       0.027528         0.7491
  76   0.0000       0.029237         0.7956
  77   0.0000       0.033591         0.9141
  78   0.0000       0.038878         1.0579

MULLIKEN ATOMIC CHARGES
-----------------------
   0 C :   -1.747740
   1 C :    1.776837
   2 C :   -0.639853
   3 C :   -0.070062
   4 C :   -0.786679
   5 C :   -0.087021
   6 C :    0.042456
   7 H :    0.234235
   8 H :    0.145454
   9 H :    0.414983
  10 C :   -0.700109
  11 H :    0.220035
  12 H :    0.327303
  13 C :   -0.707473
  14 H :    0.423059
  15 H :    0.492245
  16 H :    0.482210
  17 C :    1.114904
  18 C :    1.268780
  19 N :   -1.130471
  20 N :   -1.133645
  21 C :   -0.444686
  22 C :    0.141472
  23 C :    0.034375
  24 C :   -0.275162
  25 O :   -0.574007
  26 H :    0.359501
  27 H :    0.287526
  28 C :    0.617488
  29 C :   -0.771568
  30 O :   -0.673185
  31 H :    0.338338
  32 H :    0.303495
  33 H :    0.337281
  34 H :   -0.051582
  35 H :    0.187956
  36 H :    0.243312
Sum of atomic charges:    0.0000000

LOEWDIN ATOMIC CHARGES
----------------------
   0 C :    0.264569
   1 C :   -0.069785
   2 C :    0.311352
   3 C :    0.008628
   4 C :    0.314902
   5 C :    0.004702
   6 C :   -0.385590
   7 H :   -0.146413
   8 H :   -0.139145
   9 H :   -0.121190
  10 C :    0.257937
  11 H :   -0.127932
  12 H :   -0.130662
  13 C :    0.257657
  14 H :   -0.125019
  15 H :   -0.169723
  16 H :   -0.164006
  17 C :   -0.213879
  18 C :   -0.238030
  19 N :    0.323890
  20 N :    0.351491
  21 C :    0.240820
  22 C :    0.108793
  23 C :    0.120465
  24 C :    0.006066
  25 O :    0.584095
  26 H :   -0.184114
  27 H :   -0.166669
  28 C :   -0.824016
  29 C :    0.591954
  30 O :    0.491415
  31 H :   -0.176981
  32 H :   -0.177769
  33 H :   -0.177335
  34 H :   -0.203089
  35 H :   -0.158516
  36 H :   -0.138873

  Mayer bond orders larger than 0.100000
B(  0-C ,  4-C ) :   0.3127 B(  0-C ,  5-C ) :   0.9090 B(  0-C ,  6-C ) :   0.1394
B(  0-C , 12-H ) :   0.1278 B(  0-C , 13-C ) :   0.6129 B(  0-C , 14-H ) :  -0.1791
B(  0-C , 20-N ) :   0.1673 B(  0-C , 30-O ) :  -0.1466 B(  0-C , 34-H ) :   1.9395
B(  1-C ,  3-C ) :  -0.1037 B(  1-C ,  4-C ) :  -0.5316 B(  1-C ,  5-C ) :   0.1656
B(  1-C ,  6-C ) :   0.5040 B(  1-C ,  7-H ) :  -0.2213 B(  1-C ,  8-H ) :  -0.2022
B(  1-C , 13-C ) :  -0.2399 B(  1-C , 17-C ) :   0.5798 B(  1-C , 18-C ) :   0.6772
B(  1-C , 19-N ) :   0.1513 B(  1-C , 21-C ) :   0.2158 B(  1-C , 34-H ) :  -0.5871
B(  2-C ,  3-C ) :   1.0296 B(  2-C ,  4-C ) :   0.1207 B(  2-C ,  6-C ) :   0.1734
B(  2-C ,  7-H ) :   1.1298 B(  2-C ,  8-H ) :   1.1053 B(  2-C , 17-C ) :  -0.1106
B(  2-C , 21-C ) :  -0.1185 B(  3-C ,  4-C ) :   1.0021 B(  3-C ,  9-H ) :   0.8212
B(  3-C , 10-C ) :   0.9686 B(  4-C ,  5-C ) :   1.0564 B(  4-C , 11-H ) :   1.0222
B(  4-C , 12-H ) :   0.9206 B(  4-C , 34-H ) :  -0.1205 B(  5-C , 13-C ) :   1.1008
B(  5-C , 14-H ) :   0.8162 B(  6-C , 17-C ) :   1.2344 B(  6-C , 18-C ) :   0.5422
B(  6-C , 19-N ) :   0.5369 B(  6-C , 20-N ) :   0.5156 B(  6-C , 21-C ) :   0.8884
B(  6-C , 23-C ) :   0.1894 B(  6-C , 36-H ) :  -0.1153 B(  7-H ,  8-H ) :   0.1060
B(  9-H , 10-C ) :  -0.1312 B( 10-C , 12-H ) :  -0.1068 B( 10-C , 13-C ) :   1.4617
B( 10-C , 16-H ) :   0.7588 B( 13-C , 15-H ) :   0.8011 B( 17-C , 18-C ) :  -0.1384
B( 17-C , 19-N ) :   0.8577 B( 17-C , 22-C ) :   0.2627 B( 17-C , 23-C ) :  -0.2987
B( 18-C , 20-N ) :   1.1237 B( 18-C , 21-C ) :   0.1564 B( 21-C , 22-C ) :   0.7642
B( 21-C , 35-H ) :   1.0663 B( 21-C , 36-H ) :   1.0055 B( 22-C , 23-C ) :   2.5904
B( 23-C , 24-C ) :   0.8669 B( 24-C , 25-O ) :   0.8239 B( 24-C , 26-H ) :   0.9498
B( 24-C , 27-H ) :   0.9943 B( 25-O , 28-C ) :   0.9243 B( 28-C , 29-C ) :   0.5663
B( 28-C , 30-O ) :   1.4734 B( 29-C , 30-O ) :  -0.1042 B( 29-C , 31-H ) :   0.9568
B( 29-C , 32-H ) :   0.9652 B( 29-C , 33-H ) :   0.9102

MP2 TOTAL ENERGY:     -915.519296030 Eh
FINAL SINGLE POINT ENERGY      -915.519296030034

DIPOLE MOMENT
-------------
                                X             Y             Z
Electronic contribution:     -1.38610      10.12978       0.29213
Nuclear contribution   :      0.56167     -11.30544       0.79870
                        -----------------------------------------
Total Dipole Moment    :     -0.82443      -1.17565       1.09083
                        -----------------------------------------
Magnitude (a.u.)       :      1.80326
Magnitude (Debye)      :      4.58353

Rotational constants in cm-1:     0.013927     0.009490     0.007365
Rotational constants in MHz :   417.506895   284.488533   220.806782

                             ****ORCA TERMINATED NORMALLY****
TOTAL RUN TIME: 0 days 0 hours 52 minutes 42 seconds 140 msec
