                         Program Version 4.2.1 -  RELEASE  -
|  1> %pal
|  2>  nprocs 32
|  3> end
|  4> !RI-MP2 aug-cc-pVTZ aug-cc-pVTZ/C TightSCF
|  5> %maxcore 4500
|  6> *xyzfile 0 1  10_21TS.xyz
|  7>
|  8>
|  9>                          ****END OF INPUT****

CARTESIAN COORDINATES (ANGSTROEM)
---------------------------------
  C     -0.553883   -0.527707   -1.162727
  C     -1.689217   -1.209207   -0.765510
  C      1.081114   -1.521433   -0.246659
  H     -2.016061   -1.982947   -1.456256
  N      0.325807   -2.519859    0.262895
  N     -0.797217   -2.811966    0.303128
  C      2.037520   -0.826841    0.610016
  C      1.979615   -0.962229    1.999641
  C      2.931198    0.087919    0.051918
  C      2.791548   -0.190043    2.810608
  H      1.300914   -1.681025    2.443150
  C      3.735937    0.863991    0.870157
  H      2.995434    0.197822   -1.022493
  C      3.669249    0.730051    2.249210
  H      2.741998   -0.307234    3.886262
  H      4.420556    1.575196    0.425095
  H      4.303009    1.334759    2.886096
  C     -2.732102   -0.614259    0.095243
  C     -3.658506    0.462934   -0.436394
  C     -3.059478   -0.957939    1.336696
  C     -4.366168    0.971524    0.831569
  H     -4.361365    0.020205   -1.152394
  H     -3.120766    1.251543   -0.966261
  C     -4.239235   -0.177660    1.852381
  H     -2.571808   -1.740236    1.904331
  H     -5.399673    1.269383    0.652240
  H     -5.134316   -0.810953    1.866246
  C      1.259107   -1.626368   -1.758958
  C     -0.233441    0.896397   -0.945319
  C      0.277887    1.662509   -1.991576
  C     -0.403511    1.488934    0.307284
  C      0.593878    2.999271   -1.793117
  H      0.424078    1.207692   -2.962768
  C     -0.088387    2.823229    0.498886
  H     -0.767916    0.896265    1.134882
  C      0.410519    3.585688   -0.549864
  H      0.985597    3.583180   -2.617351
  H     -0.218358    3.266873    1.478637
  H      0.661924    4.627826   -0.395244
  O      0.125136   -1.128101   -2.283641
  O      2.190560   -2.017928   -2.382535
  H     -4.097865    0.182402    2.874475
  H     -3.832953    1.847688    1.207688

 Total Charge           Charge          ....    0
 Multiplicity           Mult            ....    1
 Number of Electrons    NEL             ....  174
 Basis Dimension        Dim             .... 1564

ORBITAL ENERGIES
----------------

  NO   OCC          E(Eh)            E(eV)
   0   2.0000     -20.621195      -561.1312
   1   2.0000     -20.568350      -559.6933
   2   2.0000     -15.688801      -426.9140
   3   2.0000     -15.676567      -426.5811
   4   2.0000     -11.405799      -310.3676
   5   2.0000     -11.326785      -308.2175
   6   2.0000     -11.316404      -307.9350
   7   2.0000     -11.267124      -306.5940
   8   2.0000     -11.263112      -306.4849
   9   2.0000     -11.255864      -306.2876
  10   2.0000     -11.251902      -306.1798
  11   2.0000     -11.249587      -306.1168
  12   2.0000     -11.248363      -306.0835
  13   2.0000     -11.247073      -306.0484
  14   2.0000     -11.245274      -305.9994
  15   2.0000     -11.240276      -305.8635
  16   2.0000     -11.240014      -305.8563
  17   2.0000     -11.238130      -305.8051
  18   2.0000     -11.237722      -305.7940
  19   2.0000     -11.237148      -305.7784
  20   2.0000     -11.236820      -305.7694
  21   2.0000     -11.226586      -305.4909
  22   2.0000     -11.225623      -305.4647
  23   2.0000     -11.225040      -305.4489
  24   2.0000     -11.222787      -305.3876
  25   2.0000      -1.489409       -40.5289
  26   2.0000      -1.442795       -39.2605
  27   2.0000      -1.396271       -37.9945
  28   2.0000      -1.185653       -32.2633
  29   2.0000      -1.169760       -31.8308
  30   2.0000      -1.148355       -31.2483
  31   2.0000      -1.122209       -30.5369
  32   2.0000      -1.081537       -29.4301
  33   2.0000      -1.034154       -28.1408
  34   2.0000      -1.025695       -27.9106
  35   2.0000      -1.021646       -27.8004
  36   2.0000      -1.020567       -27.7710
  37   2.0000      -0.968205       -26.3462
  38   2.0000      -0.957082       -26.0435
  39   2.0000      -0.893859       -24.3231
  40   2.0000      -0.870539       -23.6886
  41   2.0000      -0.853259       -23.2183
  42   2.0000      -0.839775       -22.8514
  43   2.0000      -0.831222       -22.6187
  44   2.0000      -0.805464       -21.9178
  45   2.0000      -0.794172       -21.6105
  46   2.0000      -0.750453       -20.4209
  47   2.0000      -0.745834       -20.2952
  48   2.0000      -0.725467       -19.7409
  49   2.0000      -0.707425       -19.2500
  50   2.0000      -0.702096       -19.1050
  51   2.0000      -0.681586       -18.5469
  52   2.0000      -0.679468       -18.4893
  53   2.0000      -0.667982       -18.1767
  54   2.0000      -0.654143       -17.8001
  55   2.0000      -0.647660       -17.6237
  56   2.0000      -0.642827       -17.4922
  57   2.0000      -0.637932       -17.3590
  58   2.0000      -0.633746       -17.2451
  59   2.0000      -0.621321       -16.9070
  60   2.0000      -0.617518       -16.8035
  61   2.0000      -0.608120       -16.5478
  62   2.0000      -0.598588       -16.2884
  63   2.0000      -0.591323       -16.0907
  64   2.0000      -0.580649       -15.8003
  65   2.0000      -0.567909       -15.4536
  66   2.0000      -0.556119       -15.1328
  67   2.0000      -0.541339       -14.7306
  68   2.0000      -0.535313       -14.5666
  69   2.0000      -0.525708       -14.3052
  70   2.0000      -0.516116       -14.0442
  71   2.0000      -0.511250       -13.9118
  72   2.0000      -0.509194       -13.8559
  73   2.0000      -0.504399       -13.7254
  74   2.0000      -0.498383       -13.5617
  75   2.0000      -0.494300       -13.4506
  76   2.0000      -0.487760       -13.2726
  77   2.0000      -0.482676       -13.1343
  78   2.0000      -0.479702       -13.0534
  79   2.0000      -0.466170       -12.6851
  80   2.0000      -0.419424       -11.4131
  81   2.0000      -0.375347       -10.2137
  82   2.0000      -0.352723        -9.5981
  83   2.0000      -0.349723        -9.5164
  84   2.0000      -0.341697        -9.2980
  85   2.0000      -0.309143        -8.4122
  86   2.0000      -0.303308        -8.2534
  87   0.0000       0.019963         0.5432
  88   0.0000       0.026279         0.7151
  89   0.0000       0.027955         0.7607
  90   0.0000       0.032997         0.8979
  91   0.0000       0.036286         0.9874

MULLIKEN ATOMIC CHARGES
-----------------------
   0 C :    2.677976
   1 C :   -1.014946
   2 C :    1.439180
   3 H :    0.151653
   4 N :   -0.146797
   5 N :   -0.806030
   6 C :    1.439692
   7 C :   -0.872264
   8 C :   -0.416144
   9 C :   -0.644401
  10 H :   -0.112230
  11 C :   -0.854095
  12 H :    0.088541
  13 C :   -0.199615
  14 H :    0.541053
  15 H :    0.513990
  16 H :    0.482307
  17 C :    1.323965
  18 C :   -0.870583
  19 C :   -1.066032
  20 C :   -0.595316
  21 H :    0.228099
  22 H :    0.330996
  23 C :   -0.529787
  24 H :    0.370907
  25 H :    0.330461
  26 H :    0.271598
  27 C :    0.621431
  28 C :    0.496591
  29 C :   -1.105772
  30 C :   -0.196630
  31 C :   -0.443895
  32 H :   -0.150790
  33 C :   -1.096615
  34 H :    0.229819
  35 C :   -0.161716
  36 H :    0.493492
  37 H :    0.299596
  38 H :    0.667311
  39 O :   -1.118405
  40 O :   -1.169337
  41 H :    0.326439
  42 H :    0.246303
Sum of atomic charges:   -0.0000000

LOEWDIN ATOMIC CHARGES
----------------------
   0 C :   -0.405444
   1 C :    0.102305
   2 C :   -0.278597
   3 H :   -0.174967
   4 N :    0.062813
   5 N :    0.387734
   6 C :   -0.134597
   7 C :    0.216899
   8 C :    0.216981
   9 C :    0.209527
  10 H :   -0.180249
  11 C :    0.218888
  12 H :   -0.177541
  13 C :    0.207734
  14 H :   -0.178519
  15 H :   -0.174073
  16 H :   -0.178665
  17 C :   -0.115517
  18 C :    0.300456
  19 C :    0.254990
  20 C :    0.307927
  21 H :   -0.133168
  22 H :   -0.150274
  23 C :    0.285868
  24 H :   -0.180403
  25 H :   -0.144284
  26 H :   -0.147221
  27 C :   -0.810064
  28 C :   -0.139733
  29 C :    0.217755
  30 C :    0.203413
  31 C :    0.205785
  32 H :   -0.180411
  33 C :    0.213778
  34 H :   -0.175084
  35 C :    0.200916
  36 H :   -0.178382
  37 H :   -0.174612
  38 H :   -0.182108
  39 O :    0.602500
  40 O :    0.475949
  41 H :   -0.151728
  42 H :   -0.146577

  Mayer bond orders larger than 0.100000
B(  0-C ,  1-C ) :   1.6340 B(  0-C ,  2-C ) :   0.2004 B(  0-C ,  6-C ) :   0.3073
B(  0-C ,  7-C ) :  -0.1205 B(  0-C ,  8-C ) :   0.1305 B(  0-C , 17-C ) :   0.2434
B(  0-C , 18-C ) :  -0.1137 B(  0-C , 19-C ) :  -0.2577 B(  0-C , 27-C ) :  -0.5747
B(  0-C , 28-C ) :   0.1993 B(  0-C , 29-C ) :   0.3253 B(  0-C , 30-C ) :  -0.1338
B(  0-C , 32-H ) :  -0.5775 B(  0-C , 35-C ) :   0.1244 B(  0-C , 39-O ) :  -2.0620
B(  0-C , 40-O ) :   0.2867 B(  1-C ,  2-C ) :   0.3541 B(  1-C ,  3-H ) :   0.8773
B(  1-C ,  4-N ) :   0.1986 B(  1-C ,  5-N ) :   0.1602 B(  1-C ,  6-C ) :  -0.2035
B(  1-C , 17-C ) :   0.7444 B(  1-C , 19-C ) :   0.1104 B(  1-C , 29-C ) :  -0.1772
B(  1-C , 39-O ) :   0.3468 B(  2-C ,  4-N ) :   0.8246 B(  2-C ,  5-N ) :  -0.1905
B(  2-C ,  6-C ) :   0.3853 B(  2-C ,  7-C ) :   0.1844 B(  2-C , 10-H ) :  -0.2977
B(  2-C , 11-C ) :   0.1104 B(  2-C , 12-H ) :  -0.2911 B(  2-C , 14-H ) :   0.1195
B(  2-C , 15-H ) :   0.2383 B(  2-C , 16-H ) :  -0.1207 B(  2-C , 27-C ) :   0.7332
B(  2-C , 28-C ) :  -0.1103 B(  2-C , 29-C ) :   0.1264 B(  3-H , 39-O ) :   0.1172
B(  4-N ,  5-N ) :   1.2011 B(  4-N ,  6-C ) :  -0.2855 B(  4-N , 28-C ) :   0.1123
B(  5-N , 17-C ) :   0.1469 B(  6-C ,  7-C ) :   0.4714 B(  6-C ,  8-C ) :   0.8066
B(  6-C ,  9-C ) :   0.1156 B(  6-C , 10-H ) :  -0.2788 B(  6-C , 13-C ) :   0.1206
B(  6-C , 16-H ) :   0.1148 B(  6-C , 29-C ) :  -0.1362 B(  6-C , 40-O ) :   0.2185
B(  7-C ,  8-C ) :  -0.4115 B(  7-C ,  9-C ) :   1.3507 B(  7-C , 10-H ) :   1.8307
B(  7-C , 11-C ) :   0.1061 B(  7-C , 12-H ) :   0.1380 B(  8-C , 10-H ) :   0.1696
B(  8-C , 11-C ) :   1.2950 B(  8-C , 12-H ) :   1.4600 B(  8-C , 27-C ) :  -0.1822
B(  8-C , 30-C ) :   0.1350 B(  8-C , 33-C ) :  -0.1753 B(  8-C , 34-H ) :   0.1049
B(  9-C , 11-C ) :   0.1836 B(  9-C , 13-C ) :   1.1508 B(  9-C , 14-H ) :   0.6535
B(  9-C , 16-H ) :  -0.1455 B( 10-H , 12-H ) :   0.1308 B( 11-C , 13-C ) :   1.1458
B( 11-C , 15-H ) :   0.6607 B( 11-C , 16-H ) :  -0.1132 B( 11-C , 30-C ) :  -0.1614
B( 11-C , 33-C ) :   0.1750 B( 13-C , 16-H ) :   0.7558 B( 17-C , 18-C ) :   0.4774
B( 17-C , 19-C ) :   0.9639 B( 17-C , 20-C ) :  -0.1686 B( 17-C , 23-C ) :  -0.1231
B( 17-C , 30-C ) :   0.1198 B( 18-C , 19-C ) :   0.4534 B( 18-C , 20-C ) :   1.0920
B( 18-C , 21-H ) :   0.9506 B( 18-C , 22-H ) :   0.9536 B( 18-C , 23-C ) :   0.2307
B( 19-C , 20-C ) :   0.1383 B( 19-C , 23-C ) :   0.8063 B( 19-C , 24-H ) :   0.9526
B( 19-C , 28-C ) :   0.1080 B( 20-C , 23-C ) :   1.0252 B( 20-C , 25-H ) :   0.8740
B( 20-C , 42-H ) :   1.0373 B( 23-C , 26-H ) :   0.9591 B( 23-C , 41-H ) :   0.9184
B( 27-C , 39-O ) :   1.7961 B( 27-C , 40-O ) :   0.5215 B( 28-C , 29-C ) :   0.6342
B( 28-C , 30-C ) :   1.2408 B( 28-C , 31-C ) :   0.2635 B( 28-C , 33-C ) :   0.1219
B( 28-C , 34-H ) :   0.5074 B( 28-C , 35-C ) :  -0.1370 B( 28-C , 37-H ) :  -0.1045
B( 28-C , 38-H ) :   0.2095 B( 28-C , 39-O ) :   0.5655 B( 29-C , 30-C ) :  -0.3636
B( 29-C , 31-C ) :   1.2246 B( 29-C , 32-H ) :   1.6870 B( 29-C , 33-C ) :   0.2739
B( 29-C , 35-C ) :   0.1786 B( 30-C , 32-H ) :   0.1548 B( 30-C , 33-C ) :   1.5596
B( 30-C , 34-H ) :   0.7268 B( 30-C , 35-C ) :   0.2610 B( 30-C , 36-H ) :   0.1388
B( 30-C , 37-H ) :   0.1250 B( 30-C , 38-H ) :  -0.2372 B( 31-C , 32-H ) :  -0.1613
B( 31-C , 35-C ) :   1.0923 B( 31-C , 36-H ) :   0.7192 B( 32-H , 34-H ) :   0.1473
B( 32-H , 39-O ) :   0.1696 B( 33-C , 35-C ) :   1.2096 B( 33-C , 37-H ) :   1.1159
B( 34-H , 35-C ) :  -0.1386 B( 35-C , 38-H ) :   0.4627 B( 39-O , 40-O ) :  -0.1925

MP2 TOTAL ENERGY:    -1068.845176018 Eh
FINAL SINGLE POINT ENERGY     -1068.845176017744

DIPOLE MOMENT
-------------
                                X             Y             Z
Electronic contribution:     13.04400     -13.21144      -8.70738
Nuclear contribution   :    -13.50496      14.49773      10.00580
                        -----------------------------------------
Total Dipole Moment    :     -0.46096       1.28629       1.29842
                        -----------------------------------------
Magnitude (a.u.)       :      1.88492
Magnitude (Debye)      :      4.79109

Rotational constants in cm-1:     0.010331     0.006771     0.006215
Rotational constants in MHz :   309.716840   203.003140   186.329118

                             ****ORCA TERMINATED NORMALLY****
TOTAL RUN TIME: 0 days 2 hours 2 minutes 52 seconds 245 msec
