                         Program Version 4.2.1 -  RELEASE  -
|  1> %pal
|  2>  nprocs 32
|  3> end
|  4> !RI-MP2 aug-cc-pVTZ aug-cc-pVTZ/C TightSCF
|  5> %maxcore 4500
|  6> *xyzfile 1 1  10_25R.xyz
|  7>
|  8>
|  9>                          ****END OF INPUT****

CARTESIAN COORDINATES (ANGSTROEM)
---------------------------------
  C     -2.514475   -2.357043   -0.926454
  C     -1.132372   -1.699788   -0.830870
  C     -2.063329   -1.100375    1.083247
  C     -3.177787   -1.919867    0.412037
  H     -3.058531   -2.007900   -1.801865
  H     -2.419671   -3.440318   -0.993135
  H     -4.087030   -1.335555    0.273794
  H     -3.423641   -2.770252    1.047681
  C     -0.791806   -1.833301    0.658285
  H      0.132070   -1.331240    0.944920
  H     -0.781812   -2.864152    1.008372
  H     -0.390015   -2.026818   -1.552750
  H     -2.202706   -0.829177    2.125645
  N     -1.913930    0.137153    0.251896
  N     -1.348185   -0.235757   -0.976025
  C      1.089402    1.694614    0.494424
  C      2.126824    0.689321    0.227267
  C      2.522796    0.329801   -1.065229
  C      2.705367    0.023550    1.309120
  C      3.461028   -0.668746   -1.263133
  H      2.115208    0.843981   -1.927825
  C      3.646305   -0.976806    1.111579
  H      2.420384    0.300832    2.318271
  C      4.023722   -1.328439   -0.175654
  H      3.765077   -0.928471   -2.269646
  H      4.089803   -1.476013    1.964059
  H      4.761061   -2.105284   -0.334242
  C     -2.290349    1.320523    0.551223
  C      0.378843    2.381275   -0.399300
  H     -0.475540    0.277374   -1.086545
  C     -2.132089    2.500422   -0.332217
  C     -0.795134    3.239872   -0.043427
  H     -0.803302    4.160733   -0.629058
  H     -0.754112    3.529204    1.009407
  H     -2.967773    3.177590   -0.147531
  H     -2.166657    2.181915   -1.376227
  H      0.864329    1.846507    1.548816
  H     -2.717584    1.428611    1.543024
  H      0.593572    2.288594   -1.461647

 Total Charge           Charge          ....    1
 Multiplicity           Mult            ....    1
 Number of Electrons    NEL             ....  130
 Basis Dimension        Dim             .... 1311

ORBITAL ENERGIES
----------------

  NO   OCC          E(Eh)            E(eV)
   0   2.0000     -15.842795      -431.1044
   1   2.0000     -15.751113      -428.6096
   2   2.0000     -11.486786      -312.5713
   3   2.0000     -11.436068      -311.1912
   4   2.0000     -11.407746      -310.4205
   5   2.0000     -11.392396      -310.0028
   6   2.0000     -11.374946      -309.5280
   7   2.0000     -11.368610      -309.3556
   8   2.0000     -11.367705      -309.3310
   9   2.0000     -11.362338      -309.1849
  10   2.0000     -11.357001      -309.0397
  11   2.0000     -11.354482      -308.9712
  12   2.0000     -11.353700      -308.9499
  13   2.0000     -11.341884      -308.6284
  14   2.0000     -11.340758      -308.5977
  15   2.0000     -11.337497      -308.5090
  16   2.0000     -11.336059      -308.4698
  17   2.0000     -11.334567      -308.4292
  18   2.0000      -1.547982       -42.1227
  19   2.0000      -1.336748       -36.3748
  20   2.0000      -1.272320       -34.6216
  21   2.0000      -1.266475       -34.4625
  22   2.0000      -1.234854       -33.6021
  23   2.0000      -1.182988       -32.1907
  24   2.0000      -1.133108       -30.8334
  25   2.0000      -1.123436       -30.5703
  26   2.0000      -1.114141       -30.3173
  27   2.0000      -1.091539       -29.7023
  28   2.0000      -1.033047       -28.1106
  29   2.0000      -0.984537       -26.7906
  30   2.0000      -0.974089       -26.5063
  31   2.0000      -0.946310       -25.7504
  32   2.0000      -0.926934       -25.2232
  33   2.0000      -0.909213       -24.7409
  34   2.0000      -0.886207       -24.1149
  35   2.0000      -0.874035       -23.7837
  36   2.0000      -0.835895       -22.7459
  37   2.0000      -0.816858       -22.2278
  38   2.0000      -0.806205       -21.9380
  39   2.0000      -0.790720       -21.5166
  40   2.0000      -0.776475       -21.1290
  41   2.0000      -0.756886       -20.5959
  42   2.0000      -0.755907       -20.5693
  43   2.0000      -0.742832       -20.2135
  44   2.0000      -0.722010       -19.6469
  45   2.0000      -0.713864       -19.4252
  46   2.0000      -0.707466       -19.2511
  47   2.0000      -0.696842       -18.9620
  48   2.0000      -0.690928       -18.8011
  49   2.0000      -0.674815       -18.3626
  50   2.0000      -0.665407       -18.1066
  51   2.0000      -0.660637       -17.9768
  52   2.0000      -0.649116       -17.6633
  53   2.0000      -0.640449       -17.4275
  54   2.0000      -0.629478       -17.1290
  55   2.0000      -0.623619       -16.9695
  56   2.0000      -0.622122       -16.9288
  57   2.0000      -0.613415       -16.6919
  58   2.0000      -0.604681       -16.4542
  59   2.0000      -0.598879       -16.2963
  60   2.0000      -0.594238       -16.1700
  61   2.0000      -0.537489       -14.6258
  62   2.0000      -0.519116       -14.1259
  63   2.0000      -0.444640       -12.0993
  64   2.0000      -0.416614       -11.3366
  65   0.0000      -0.070100        -1.9075
  66   0.0000      -0.064258        -1.7485
  67   0.0000      -0.055838        -1.5194
  68   0.0000      -0.054137        -1.4732
  69   0.0000      -0.044499        -1.2109

MULLIKEN ATOMIC CHARGES
-----------------------
   0 C :   -0.768683
   1 C :   -0.025071
   2 C :   -0.453298
   3 C :   -0.653651
   4 H :    0.317483
   5 H :    0.277044
   6 H :    0.258596
   7 H :    0.293585
   8 C :   -0.941755
   9 H :    0.631693
  10 H :    0.287821
  11 H :    0.657908
  12 H :    0.416312
  13 N :    0.870534
  14 N :   -0.865621
  15 C :   -0.686190
  16 C :    1.912903
  17 C :   -0.068015
  18 C :   -0.912851
  19 C :   -0.860323
  20 H :    0.133186
  21 C :   -0.573066
  22 H :    0.177062
  23 C :   -0.242254
  24 H :    0.400060
  25 H :    0.520850
  26 H :    0.522391
  27 C :   -0.469580
  28 C :   -0.243261
  29 H :    0.164761
  30 C :   -0.123080
  31 C :   -0.473960
  32 H :    0.315327
  33 H :    0.175581
  34 H :    0.341861
  35 H :    0.217700
  36 H :   -0.333394
  37 H :    0.429788
  38 H :    0.371610
Sum of atomic charges:    1.0000000

LOEWDIN ATOMIC CHARGES
----------------------
   0 C :    0.363917
   1 C :   -0.037843
   2 C :    0.007702
   3 C :    0.368989
   4 H :   -0.133875
   5 H :   -0.128964
   6 H :   -0.131512
   7 H :   -0.126641
   8 C :    0.374112
   9 H :   -0.142083
  10 H :   -0.109030
  11 H :   -0.096432
  12 H :   -0.099429
  13 N :    0.225593
  14 N :    0.599730
  15 C :    0.220054
  16 C :   -0.143738
  17 C :    0.213365
  18 C :    0.205146
  19 C :    0.217226
  20 H :   -0.184878
  21 C :    0.216774
  22 H :   -0.171523
  23 C :    0.216420
  24 H :   -0.172337
  25 H :   -0.172215
  26 H :   -0.172022
  27 C :    0.260681
  28 C :    0.217526
  29 H :   -0.348831
  30 C :    0.348105
  31 C :    0.304303
  32 H :   -0.132624
  33 H :   -0.142782
  34 H :   -0.130859
  35 H :   -0.138903
  36 H :   -0.170494
  37 H :   -0.103834
  38 H :   -0.168793

  Mayer bond orders larger than 0.100000
B(  0-C ,  1-C ) :   0.9451 B(  0-C ,  3-C ) :   1.1719 B(  0-C ,  4-H ) :   0.9478
B(  0-C ,  5-H ) :   0.9731 B(  0-C , 11-H ) :  -0.1439 B(  0-C , 13-N ) :  -0.1403
B(  1-C ,  2-C ) :  -0.1433 B(  1-C ,  8-C ) :   1.0175 B(  1-C , 11-H ) :   0.6000
B(  1-C , 14-N ) :   0.9714 B(  2-C ,  3-C ) :   0.9334 B(  2-C ,  8-C ) :   1.1122
B(  2-C , 12-H ) :   0.7814 B(  2-C , 13-N ) :   1.1065 B(  2-C , 27-C ) :  -0.1294
B(  3-C ,  6-H ) :   0.9719 B(  3-C ,  7-H ) :   0.9466 B(  3-C , 13-N ) :  -0.1498
B(  8-C ,  9-H ) :   0.6158 B(  8-C , 10-H ) :   1.0315 B( 11-H , 14-N ) :  -0.1112
B( 13-N , 14-N ) :   0.1002 B( 13-N , 27-C ) :   1.6144 B( 14-N , 29-H ) :   0.7881
B( 15-C , 16-C ) :   0.2688 B( 15-C , 17-C ) :   0.1268 B( 15-C , 18-C ) :   0.4556
B( 15-C , 28-C ) :   1.3208 B( 15-C , 36-H ) :   1.9835 B( 16-C , 17-C ) :   0.7810
B( 16-C , 18-C ) :   0.1622 B( 16-C , 20-H ) :  -0.2347 B( 16-C , 21-C ) :   0.1717
B( 16-C , 22-H ) :  -0.1578 B( 16-C , 36-H ) :  -0.3654 B( 17-C , 18-C ) :  -0.2388
B( 17-C , 19-C ) :   1.0511 B( 17-C , 20-H ) :   1.3332 B( 17-C , 23-C ) :   0.1100
B( 18-C , 19-C ) :   0.1201 B( 18-C , 21-C ) :   1.1991 B( 18-C , 22-H ) :   1.3655
B( 18-C , 25-H ) :  -0.1202 B( 18-C , 28-C ) :   0.1198 B( 18-C , 36-H ) :  -0.1530
B( 19-C , 20-H ) :  -0.1341 B( 19-C , 23-C ) :   1.1556 B( 19-C , 24-H ) :   0.8927
B( 20-H , 28-C ) :  -0.1158 B( 21-C , 22-H ) :  -0.1385 B( 21-C , 23-C ) :   1.0926
B( 21-C , 25-H ) :   0.7644 B( 21-C , 26-H ) :  -0.1148 B( 22-H , 36-H ) :  -0.1103
B( 23-C , 26-H ) :   0.6723 B( 27-C , 30-C ) :   0.4909 B( 27-C , 31-C ) :   0.1466
B( 27-C , 37-H ) :   0.7568 B( 28-C , 31-C ) :   0.9225 B( 28-C , 36-H ) :  -0.1285
B( 28-C , 38-H ) :   0.9842 B( 30-C , 31-C ) :   0.9457 B( 30-C , 34-H ) :   0.9037
B( 30-C , 35-H ) :   0.9958 B( 31-C , 32-H ) :   0.9385 B( 31-C , 33-H ) :   1.0542
B( 31-C , 35-H ) :   0.1049

MP2 TOTAL ENERGY:     -730.058711412 Eh
FINAL SINGLE POINT ENERGY      -730.058711412191

DIPOLE MOMENT
-------------
                                X             Y             Z
Electronic contribution:      5.32737       1.24514       0.42127
Nuclear contribution   :     -7.67162      -1.10132       0.20312
                        -----------------------------------------
Total Dipole Moment    :     -2.34426       0.14382       0.62439
                        -----------------------------------------
Magnitude (a.u.)       :      2.43024
Magnitude (Debye)      :      6.17719

Rotational constants in cm-1:     0.019753     0.011084     0.008348
Rotational constants in MHz :   592.165538   332.289220   250.258276

                             ****ORCA TERMINATED NORMALLY****
TOTAL RUN TIME: 0 days 0 hours 45 minutes 18 seconds 131 msec
