                         Program Version 4.2.1 -  RELEASE  -
|  1> %pal
|  2>  nprocs 32
|  3> end
|  4> !RI-MP2 aug-cc-pVTZ aug-cc-pVTZ/C TightSCF
|  5> %maxcore 4500
|  6> *xyzfile -1 1  05_3TS.xyz
|  7>
|  8>
|  9>                          ****END OF INPUT****

CARTESIAN COORDINATES (ANGSTROEM)
---------------------------------
  O      0.729333    1.733865    0.553982
  C      0.532155    0.733095   -0.171879
  C      1.516290   -0.355162   -0.297099
  O      2.641878   -0.089727    0.481391
  O      1.303492   -1.527905   -0.681143
  C     -0.785615    0.534577   -0.895009
  H      1.572512    0.559955   -1.353828
  C     -1.848669   -0.074271   -0.003779
  H     -0.637405   -0.177788   -1.712096
  H     -1.162443    1.476869   -1.291869
  O     -3.023758    0.187107   -0.155351
  H      2.451763    0.778998    0.877272
  C     -1.370220   -1.049143    1.035855
  H     -0.850079   -0.489824    1.819394
  H     -2.216374   -1.584156    1.465283
  H     -0.629174   -1.725346    0.596277

 Total Charge           Charge          ....   -1
 Multiplicity           Mult            ....    1
 Number of Electrons    NEL             ....   70
 Basis Dimension        Dim             ....  575

ORBITAL ENERGIES
----------------

  NO   OCC          E(Eh)            E(eV)
   0   2.0000     -20.421663      -555.7017
   1   2.0000     -20.411630      -555.4287
   2   2.0000     -20.361347      -554.0604
   3   2.0000     -20.317878      -552.8776
   4   2.0000     -11.208956      -305.0112
   5   2.0000     -11.196640      -304.6761
   6   2.0000     -11.177779      -304.1628
   7   2.0000     -11.104813      -302.1773
   8   2.0000     -11.099091      -302.0216
   9   2.0000      -1.264540       -34.4099
  10   2.0000      -1.252922       -34.0937
  11   2.0000      -1.190949       -32.4074
  12   2.0000      -1.138913       -30.9914
  13   2.0000      -0.929884       -25.3034
  14   2.0000      -0.856353       -23.3025
  15   2.0000      -0.773999       -21.0616
  16   2.0000      -0.623649       -16.9704
  17   2.0000      -0.592774       -16.1302
  18   2.0000      -0.551305       -15.0018
  19   2.0000      -0.530196       -14.4274
  20   2.0000      -0.511186       -13.9101
  21   2.0000      -0.478397       -13.0179
  22   2.0000      -0.468692       -12.7537
  23   2.0000      -0.464665       -12.6442
  24   2.0000      -0.431590       -11.7442
  25   2.0000      -0.423228       -11.5166
  26   2.0000      -0.412620       -11.2280
  27   2.0000      -0.386079       -10.5057
  28   2.0000      -0.362692        -9.8694
  29   2.0000      -0.357471        -9.7273
  30   2.0000      -0.307107        -8.3568
  31   2.0000      -0.300282        -8.1711
  32   2.0000      -0.284671        -7.7463
  33   2.0000      -0.237799        -6.4708
  34   2.0000      -0.160496        -4.3673
  35   0.0000       0.114089         3.1045
  36   0.0000       0.125161         3.4058
  37   0.0000       0.131626         3.5817
  38   0.0000       0.138732         3.7751
  39   0.0000       0.147173         4.0048

MULLIKEN ATOMIC CHARGES
-----------------------
   0 O :   -1.286562
   1 C :    0.890717
   2 C :    0.880185
   3 O :   -0.619884
   4 O :   -1.106584
   5 C :   -0.198237
   6 H :    0.037727
   7 C :    0.450317
   8 H :    0.292793
   9 H :    0.230152
  10 O :   -0.943254
  11 H :    0.243710
  12 C :   -0.819276
  13 H :    0.272803
  14 H :    0.276630
  15 H :    0.398764
Sum of atomic charges:   -1.0000000

LOEWDIN ATOMIC CHARGES
----------------------
   0 O :    0.408383
   1 C :   -0.669870
   2 C :   -0.965832
   3 O :    0.793547
   4 O :    0.335686
   5 C :    0.252019
   6 H :   -0.098409
   7 C :   -0.530526
   8 H :   -0.172419
   9 H :   -0.165664
  10 O :    0.436237
  11 H :   -0.621741
  12 C :    0.577910
  13 H :   -0.168484
  14 H :   -0.184208
  15 H :   -0.226628

  Mayer bond orders larger than 0.100000
B(  0-O ,  1-C ) :   0.4974 B(  0-O ,  2-C ) :   0.1035 B(  1-C ,  2-C ) :   1.0657
B(  1-C ,  5-C ) :   0.8934 B(  1-C ,  6-H ) :   0.2832 B(  1-C ,  7-C ) :   0.2255
B(  2-C ,  3-O ) :   0.6252 B(  2-C ,  4-O ) :   1.1623 B(  2-C ,  6-H ) :   0.6500
B(  3-O , 11-H ) :   0.9293 B(  5-C ,  7-C ) :   0.7155 B(  5-C ,  8-H ) :   0.9742
B(  5-C ,  9-H ) :   0.9634 B(  7-C , 10-O ) :   1.1200 B(  7-C , 12-C ) :   0.7814
B( 12-C , 13-H ) :   0.9318 B( 12-C , 14-H ) :   0.9850 B( 12-C , 15-H ) :   0.8496

MP2 TOTAL ENERGY:     -494.843537072 Eh
FINAL SINGLE POINT ENERGY      -494.843537071841

DIPOLE MOMENT
-------------
                                X             Y             Z
Electronic contribution:      0.43807       1.32280      -0.09129
Nuclear contribution   :     -1.42842      -1.14310       0.39889
                        -----------------------------------------
Total Dipole Moment    :     -0.99035       0.17969       0.30760
                        -----------------------------------------
Magnitude (a.u.)       :      1.05247
Magnitude (Debye)      :      2.67517

Rotational constants in cm-1:     0.097404     0.036243     0.031667
Rotational constants in MHz :  2920.098158  1086.532714   949.353925

                             ****ORCA TERMINATED NORMALLY****
TOTAL RUN TIME: 0 days 0 hours 3 minutes 14 seconds 854 msec
