                         Program Version 4.2.1 -  RELEASE  -
|  1> %pal
|  2>  nprocs 32
|  3> end
|  4> !RI-MP2 aug-cc-pVTZ aug-cc-pVTZ/C TightSCF
|  5> %maxcore 4500
|  6> *xyzfile 0 2  06_22P.xyz
|  7>
|  8>
|  9>                          ****END OF INPUT****

CARTESIAN COORDINATES (ANGSTROEM)
---------------------------------
  C      0.713425    0.444763    2.026963
  C      2.080061    1.011940    1.920959
  Si    -0.008486    0.021895    0.272146
  Si    -1.899178   -1.373521    0.462253
  Si     1.581859   -1.112906   -1.037134
  Si    -0.644776    1.991487   -0.848413
  C     -3.077519   -0.812502    1.823840
  H     -3.971409   -1.443317    1.824982
  H     -2.619530   -0.889748    2.812416
  H     -3.400142    0.221425    1.683557
  C     -2.855937   -1.381308   -1.163670
  H     -3.693930   -2.082061   -1.106293
  H     -3.266792   -0.395086   -1.390998
  H     -2.228263   -1.681770   -2.004698
  C     -1.371685   -3.142829    0.851418
  H     -2.247846   -3.780706    0.999536
  H     -0.781521   -3.574619    0.040266
  H     -0.768947   -3.191214    1.761723
  C      0.740983   -1.892168   -2.535908
  H      0.206287   -1.154084   -3.136642
  H      1.487480   -2.366655   -3.179519
  H      0.026077   -2.662961   -2.239678
  C      2.907506    0.072667   -1.665203
  H      3.400636    0.598839   -0.845815
  H      3.673649   -0.467329   -2.229056
  H      2.478349    0.826430   -2.329604
  C      2.401632   -2.503292   -0.062630
  H      2.940293   -2.131529    0.809615
  H      1.663249   -3.228125    0.286669
  H      3.118149   -3.036656   -0.694313
  C      0.646420    3.351123   -0.648887
  H      1.631048    3.019849   -0.985826
  H      0.367065    4.228213   -1.240038
  H      0.741120    3.670533    0.391078
  C     -0.840124    1.638109   -2.691069
  H     -1.198474    2.532063   -3.209671
  H      0.108418    1.349748   -3.149176
  H     -1.557849    0.836565   -2.877259
  C     -2.296692    2.638156   -0.205234
  H     -2.582022    3.550998   -0.736254
  H     -3.096177    1.908168   -0.351186
  H     -2.253178    2.872451    0.860340
  C     -0.231258    1.384300    2.796879
  H     -1.253938    1.006123    2.828245
  H      0.113868    1.519172    3.825346
  H     -0.258262    2.372564    2.332304
  C      3.325259    0.268930    2.254853
  H      3.108222   -0.646720    2.810244
  H      3.904208   -0.020036    1.366814
  H      3.999306    0.878722    2.866272
  H      0.769629   -0.510645    2.561379
  H      2.176919    2.026683    1.547441

 Total Charge           Charge          ....    0
 Multiplicity           Mult            ....    2
 Number of Electrons    NEL             ....  169
 Basis Dimension        Dim             .... 1603

ORBITAL ENERGIES
----------------
                 SPIN UP ORBITALS
  NO   OCC          E(Eh)            E(eV)
   0   1.0000     -68.746172     -1870.6784
   1   1.0000     -68.746036     -1870.6747
   2   1.0000     -68.745088     -1870.6489
   3   1.0000     -68.726460     -1870.1421
   4   1.0000     -11.221814      -305.3611
   5   1.0000     -11.215776      -305.1968
   6   1.0000     -11.215466      -305.1884
   7   1.0000     -11.214829      -305.1710
   8   1.0000     -11.195952      -304.6573
   9   1.0000     -11.195489      -304.6447
  10   1.0000     -11.195312      -304.6399
  11   1.0000     -11.195208      -304.6371
  12   1.0000     -11.195150      -304.6355
  13   1.0000     -11.195048      -304.6328
  14   1.0000     -11.194487      -304.6175
  15   1.0000     -11.194276      -304.6117
  16   1.0000     -11.192878      -304.5737
  17   1.0000      -6.094030      -165.8270
  18   1.0000      -6.093818      -165.8212
  19   1.0000      -6.092902      -165.7963
  20   1.0000      -6.078095      -165.3934
  21   1.0000      -4.200342      -114.2971
  22   1.0000      -4.199969      -114.2870
  23   1.0000      -4.199965      -114.2869
  24   1.0000      -4.199936      -114.2861
  25   1.0000      -4.199832      -114.2832
  26   1.0000      -4.199788      -114.2820
  27   1.0000      -4.199052      -114.2620
  28   1.0000      -4.198924      -114.2585
  29   1.0000      -4.198856      -114.2567
  30   1.0000      -4.183970      -113.8516
  31   1.0000      -4.183460      -113.8377
  32   1.0000      -4.183352      -113.8348
  33   1.0000      -1.078485       -29.3471
  34   1.0000      -0.987936       -26.8831
  35   1.0000      -0.967881       -26.3374
  36   1.0000      -0.961512       -26.1641
  37   1.0000      -0.960126       -26.1264
  38   1.0000      -0.923380       -25.1265
  39   1.0000      -0.921556       -25.0768
  40   1.0000      -0.920892       -25.0587
  41   1.0000      -0.918806       -25.0020
  42   1.0000      -0.917848       -24.9759
  43   1.0000      -0.917118       -24.9561
  44   1.0000      -0.870517       -23.6880
  45   1.0000      -0.776983       -21.1428
  46   1.0000      -0.701113       -19.0782
  47   1.0000      -0.624661       -16.9979
  48   1.0000      -0.622548       -16.9404
  49   1.0000      -0.613358       -16.6903
  50   1.0000      -0.599262       -16.3067
  51   1.0000      -0.594728       -16.1834
  52   1.0000      -0.584467       -15.9042
  53   1.0000      -0.574895       -15.6437
  54   1.0000      -0.572950       -15.5908
  55   1.0000      -0.571823       -15.5601
  56   1.0000      -0.563537       -15.3346
  57   1.0000      -0.559875       -15.2350
  58   1.0000      -0.554076       -15.0772
  59   1.0000      -0.553197       -15.0533
  60   1.0000      -0.551609       -15.0101
  61   1.0000      -0.547436       -14.8965
  62   1.0000      -0.541956       -14.7474
  63   1.0000      -0.537898       -14.6370
  64   1.0000      -0.536304       -14.5936
  65   1.0000      -0.533526       -14.5180
  66   1.0000      -0.532231       -14.4827
  67   1.0000      -0.531964       -14.4755
  68   1.0000      -0.527579       -14.3561
  69   1.0000      -0.525865       -14.3095
  70   1.0000      -0.525446       -14.2981
  71   1.0000      -0.520815       -14.1721
  72   1.0000      -0.515179       -14.0187
  73   1.0000      -0.492120       -13.3913
  74   1.0000      -0.480477       -13.0744
  75   1.0000      -0.437107       -11.8943
  76   1.0000      -0.430336       -11.7100
  77   1.0000      -0.429601       -11.6900
  78   1.0000      -0.424577       -11.5533
  79   1.0000      -0.423194       -11.5157
  80   1.0000      -0.421687       -11.4747
  81   1.0000      -0.406157       -11.0521
  82   1.0000      -0.337084        -9.1725
  83   1.0000      -0.334876        -9.1124
  84   1.0000      -0.291668        -7.9367
  85   0.0000       0.022734         0.6186
  86   0.0000       0.028126         0.7654
  87   0.0000       0.028431         0.7736
  88   0.0000       0.028796         0.7836
  89   0.0000       0.038802         1.0558

                 SPIN DOWN ORBITALS
  NO   OCC          E(Eh)            E(eV)
   0   1.0000     -68.746054     -1870.6752
   1   1.0000     -68.746019     -1870.6743
   2   1.0000     -68.745111     -1870.6496
   3   1.0000     -68.725765     -1870.1231
   4   1.0000     -11.219136      -305.2882
   5   1.0000     -11.218190      -305.2625
   6   1.0000     -11.213526      -305.1356
   7   1.0000     -11.198024      -304.7137
   8   1.0000     -11.195967      -304.6577
   9   1.0000     -11.195514      -304.6454
  10   1.0000     -11.195219      -304.6374
  11   1.0000     -11.195180      -304.6363
  12   1.0000     -11.195160      -304.6358
  13   1.0000     -11.195036      -304.6324
  14   1.0000     -11.194479      -304.6173
  15   1.0000     -11.194296      -304.6123
  16   1.0000     -11.192868      -304.5734
  17   1.0000      -6.093847      -165.8220
  18   1.0000      -6.093798      -165.8207
  19   1.0000      -6.092936      -165.7972
  20   1.0000      -6.076996      -165.3635
  21   1.0000      -4.200032      -114.2887
  22   1.0000      -4.199906      -114.2853
  23   1.0000      -4.199845      -114.2836
  24   1.0000      -4.199825      -114.2831
  25   1.0000      -4.199799      -114.2823
  26   1.0000      -4.199755      -114.2811
  27   1.0000      -4.199136      -114.2643
  28   1.0000      -4.198935      -114.2588
  29   1.0000      -4.198874      -114.2572
  30   1.0000      -4.183041      -113.8263
  31   1.0000      -4.182873      -113.8218
  32   1.0000      -4.181658      -113.7887
  33   1.0000      -1.049719       -28.5643
  34   1.0000      -0.977628       -26.6026
  35   1.0000      -0.967700       -26.3325
  36   1.0000      -0.961429       -26.1618
  37   1.0000      -0.959850       -26.1188
  38   1.0000      -0.923269       -25.1234
  39   1.0000      -0.921564       -25.0770
  40   1.0000      -0.920869       -25.0581
  41   1.0000      -0.918693       -24.9989
  42   1.0000      -0.917848       -24.9759
  43   1.0000      -0.917066       -24.9546
  44   1.0000      -0.858730       -23.3672
  45   1.0000      -0.742696       -20.2098
  46   1.0000      -0.696468       -18.9519
  47   1.0000      -0.623702       -16.9718
  48   1.0000      -0.621788       -16.9197
  49   1.0000      -0.605056       -16.4644
  50   1.0000      -0.594468       -16.1763
  51   1.0000      -0.585808       -15.9406
  52   1.0000      -0.574385       -15.6298
  53   1.0000      -0.573225       -15.5983
  54   1.0000      -0.572315       -15.5735
  55   1.0000      -0.569194       -15.4885
  56   1.0000      -0.562348       -15.3023
  57   1.0000      -0.559620       -15.2280
  58   1.0000      -0.553741       -15.0681
  59   1.0000      -0.552919       -15.0457
  60   1.0000      -0.550367       -14.9762
  61   1.0000      -0.542110       -14.7516
  62   1.0000      -0.538345       -14.6491
  63   1.0000      -0.537302       -14.6207
  64   1.0000      -0.535117       -14.5613
  65   1.0000      -0.533150       -14.5077
  66   1.0000      -0.531707       -14.4685
  67   1.0000      -0.530361       -14.4319
  68   1.0000      -0.527336       -14.3495
  69   1.0000      -0.525571       -14.3015
  70   1.0000      -0.524892       -14.2830
  71   1.0000      -0.517843       -14.0912
  72   1.0000      -0.511937       -13.9305
  73   1.0000      -0.483325       -13.1520
  74   1.0000      -0.476108       -12.9556
  75   1.0000      -0.434124       -11.8131
  76   1.0000      -0.430208       -11.7066
  77   1.0000      -0.429520       -11.6878
  78   1.0000      -0.424209       -11.5433
  79   1.0000      -0.423034       -11.5113
  80   1.0000      -0.421688       -11.4747
  81   1.0000      -0.381141       -10.3714
  82   1.0000      -0.334278        -9.0962
  83   1.0000      -0.333345        -9.0708
  84   0.0000       0.022769         0.6196
  85   0.0000       0.028128         0.7654
  86   0.0000       0.028464         0.7746
  87   0.0000       0.028749         0.7823
  88   0.0000       0.038801         1.0558

MULLIKEN ATOMIC CHARGES AND SPIN POPULATIONS
--------------------------------------------
   0 C :    0.540352   -0.282772
   1 C :   -0.778513    1.449926
   2 Si:    1.650396   -0.030151
   3 Si:    2.140554    0.037283
   4 Si:    2.774894   -0.007257
   5 Si:    3.031431   -0.003139
   6 C :   -1.668315   -0.002041
   7 H :   -0.012611   -0.000042
   8 H :    0.188283   -0.000168
   9 H :    0.321926   -0.000089
  10 C :   -1.281031    0.002984
  11 H :    0.181168    0.001453
  12 H :    0.278783   -0.000627
  13 H :    0.263092   -0.001686
  14 C :   -1.541418    0.000083
  15 H :    0.062109    0.000063
  16 H :    0.313563   -0.000061
  17 H :    0.227774   -0.000175
  18 C :   -1.715162   -0.002022
  19 H :    0.340921   -0.001368
  20 H :    0.013341   -0.000265
  21 H :    0.286031    0.000331
  22 C :   -1.556654   -0.000284
  23 H :    0.274928    0.009750
  24 H :   -0.027746    0.000347
  25 H :    0.326301    0.001308
  26 C :   -1.804148    0.004303
  27 H :    0.332677    0.000937
  28 H :    0.344343   -0.000268
  29 H :    0.025713    0.000112
  30 C :   -1.620111   -0.003335
  31 H :    0.325419    0.000575
  32 H :   -0.006991    0.000857
  33 H :    0.194108    0.000093
  34 C :   -1.794251   -0.002094
  35 H :    0.014290    0.000323
  36 H :    0.296321   -0.001115
  37 H :    0.292752   -0.000308
  38 C :   -1.525260   -0.001108
  39 H :    0.004823   -0.000015
  40 H :    0.341911    0.000449
  41 H :    0.250217    0.000271
  42 C :   -1.426867    0.082109
  43 H :    0.359768    0.011826
  44 H :    0.132863   -0.000818
  45 H :    0.320889   -0.005777
  46 C :   -0.991887   -0.244650
  47 H :    0.159601   -0.001672
  48 H :    0.260929    0.060007
  49 H :    0.365436    0.056635
  50 H :    0.166364    0.016556
  51 H :    0.346694   -0.145274
Sum of atomic charges         :   -0.0000000

LOEWDIN ATOMIC CHARGES AND SPIN POPULATIONS
-------------------------------------------
   0 C :   -0.129833    0.105097
   1 C :    0.198446    0.527034
   2 Si:    0.539558    0.037844
   3 Si:    0.432320    0.012335
   4 Si:    0.428355    0.002725
   5 Si:    0.426689    0.001933
   6 C :    0.543843    0.000237
   7 H :   -0.226978   -0.000008
   8 H :   -0.236915   -0.000018
   9 H :   -0.239032    0.000013
  10 C :    0.546413    0.004921
  11 H :   -0.223687    0.001106
  12 H :   -0.244099    0.000219
  13 H :   -0.247920    0.000239
  14 C :    0.542873    0.000335
  15 H :   -0.226961    0.000104
  16 H :   -0.249274    0.000014
  17 H :   -0.229697   -0.000065
  18 C :    0.546497   -0.000545
  19 H :   -0.246336   -0.000005
  20 H :   -0.223085   -0.000140
  21 H :   -0.244738   -0.000002
  22 C :    0.550491    0.001439
  23 H :   -0.249470    0.003120
  24 H :   -0.223733    0.000156
  25 H :   -0.241607    0.000009
  26 C :    0.558021    0.000260
  27 H :   -0.257741    0.000505
  28 H :   -0.243803    0.000014
  29 H :   -0.223394    0.000020
  30 C :    0.547819   -0.000051
  31 H :   -0.237005    0.000609
  32 H :   -0.226117   -0.000006
  33 H :   -0.242814   -0.000647
  34 C :    0.545104    0.000466
  35 H :   -0.223789    0.000092
  36 H :   -0.244454    0.000031
  37 H :   -0.243305    0.000085
  38 C :    0.547615   -0.000196
  39 H :   -0.225896   -0.000069
  40 H :   -0.245515    0.000027
  41 H :   -0.238580   -0.000026
  42 C :    0.525158    0.023491
  43 H :   -0.201981    0.003132
  44 H :   -0.155003    0.005432
  45 H :   -0.187163    0.001900
  46 C :    0.545181    0.116164
  47 H :   -0.179108    0.002002
  48 H :   -0.192401    0.025829
  49 H :   -0.170963    0.017666
  50 H :   -0.209835    0.003094
  51 H :   -0.192148    0.102078

  Mayer bond orders larger than 0.100000
B(  0-C ,  1-C ) :   0.6418 B(  0-C ,  2-Si) :   1.0733 B(  0-C ,  3-Si) :  -0.1424
B(  0-C ,  4-Si) :  -0.4244 B(  0-C ,  5-Si) :   0.3555 B(  0-C ,  6-C ) :  -0.1356
B(  0-C , 42-C ) :   0.5553 B(  0-C , 50-H ) :   1.1315 B(  1-C ,  4-Si) :   0.1191
B(  1-C , 42-C ) :   0.2753 B(  1-C , 46-C ) :   0.7407 B(  1-C , 50-H ) :  -0.2632
B(  1-C , 51-H ) :   0.8610 B(  2-Si,  4-Si) :   0.2676 B(  2-Si,  6-C ) :   0.2219
B(  2-Si, 10-C ) :  -0.2525 B(  2-Si, 14-C ) :   0.2029 B(  2-Si, 18-C ) :   0.3537
B(  2-Si, 26-C ) :   0.1534 B(  2-Si, 30-C ) :   0.2738 B(  2-Si, 38-C ) :   0.1886
B(  2-Si, 42-C ) :  -0.1839 B(  2-Si, 45-H ) :   0.1302 B(  2-Si, 50-H ) :  -0.1131
B(  2-Si, 51-H ) :   0.1364 B(  3-Si,  4-Si) :   0.2524 B(  3-Si,  5-Si) :   0.3108
B(  3-Si,  6-C ) :  -0.3855 B(  3-Si,  7-H ) :  -0.1626 B(  3-Si, 10-C ) :   0.5409
B(  3-Si, 11-H ) :  -0.1073 B(  3-Si, 13-H ) :   0.1401 B(  3-Si, 14-C ) :  -0.1763
B(  3-Si, 22-C ) :  -0.1025 B(  3-Si, 30-C ) :  -0.1238 B(  4-Si,  5-Si) :   0.5269
B(  4-Si, 18-C ) :  -0.5716 B(  4-Si, 20-H ) :  -0.1450 B(  4-Si, 22-C ) :  -0.1587
B(  4-Si, 24-H ) :  -0.1577 B(  4-Si, 26-C ) :  -0.2823 B(  4-Si, 29-H ) :  -0.1369
B(  4-Si, 38-C ) :  -0.1178 B(  5-Si, 14-C ) :  -0.1132 B(  5-Si, 30-C ) :  -0.3497
B(  5-Si, 32-H ) :  -0.1409 B(  5-Si, 34-C ) :  -0.6604 B(  5-Si, 35-H ) :  -0.1150
B(  5-Si, 38-C ) :  -0.1817 B(  5-Si, 39-H ) :  -0.1266 B(  6-C ,  7-H ) :   1.3393
B(  6-C ,  8-H ) :   1.1583 B(  6-C ,  9-H ) :   0.9889 B(  6-C , 10-C ) :   0.2172
B( 10-C , 11-H ) :   0.9751 B( 10-C , 12-H ) :   1.0331 B( 10-C , 13-H ) :   1.0517
B( 14-C , 15-H ) :   1.2461 B( 14-C , 16-H ) :   1.0083 B( 14-C , 17-H ) :   1.0800
B( 18-C , 19-H ) :   1.0112 B( 18-C , 20-H ) :   1.3372 B( 18-C , 21-H ) :   1.0897
B( 18-C , 26-C ) :   0.1091 B( 22-C , 23-H ) :   1.0757 B( 22-C , 24-H ) :   1.3462
B( 22-C , 25-H ) :   1.0237 B( 22-C , 26-C ) :   0.1005 B( 26-C , 27-H ) :   1.0439
B( 26-C , 28-H ) :   0.9820 B( 26-C , 29-H ) :   1.3567 B( 30-C , 31-H ) :   0.9653
B( 30-C , 32-H ) :   1.3178 B( 30-C , 33-H ) :   1.1617 B( 30-C , 34-C ) :   0.1267
B( 34-C , 35-H ) :   1.3281 B( 34-C , 36-H ) :   1.0491 B( 34-C , 37-H ) :   1.0779
B( 34-C , 38-C ) :   0.1345 B( 38-C , 39-H ) :   1.2890 B( 38-C , 40-H ) :   0.9558
B( 38-C , 41-H ) :   1.0932 B( 42-C , 43-H ) :   0.9986 B( 42-C , 44-H ) :   1.2227
B( 42-C , 45-H ) :   1.0000 B( 42-C , 50-H ) :  -0.1523 B( 46-C , 47-H ) :   1.1382
B( 46-C , 48-H ) :   1.0048 B( 46-C , 49-H ) :   0.8478

MP2 TOTAL ENERGY:    -1671.547086335 Eh
FINAL SINGLE POINT ENERGY     -1671.547086335156

DIPOLE MOMENT
-------------
                                X             Y             Z
Electronic contribution:     -0.80324      -0.20759       0.11074
Nuclear contribution   :      0.83026       0.19226      -0.02917
                        -----------------------------------------
Total Dipole Moment    :      0.02703      -0.01533       0.08158
                        -----------------------------------------
Magnitude (a.u.)       :      0.08729
Magnitude (Debye)      :      0.22188

Rotational constants in cm-1:     0.010157     0.009405     0.008434
Rotational constants in MHz :   304.498948   281.951053   252.840869

                             ****ORCA TERMINATED NORMALLY****
TOTAL RUN TIME: 0 days 2 hours 29 minutes 39 seconds 895 msec
