                         Program Version 4.2.1 -  RELEASE  -
|  1> %pal
|  2>  nprocs 32
|  3> end
|  4> !RI-MP2 aug-cc-pVTZ aug-cc-pVTZ/C TightSCF
|  5> %maxcore 4500
|  6> *xyzfile 0 1  02_19P.xyz
|  7>
|  8>
|  9>                          ****END OF INPUT****

CARTESIAN COORDINATES (ANGSTROEM)
---------------------------------
  C      0.218699   -0.266894    0.270881
  C     -0.200341    1.224736    0.507802
  C      1.654649   -0.408597   -0.231587
  C     -0.810962   -0.901812   -0.636285
  C      0.955620    2.087657    0.970189
  C     -0.917647    1.856790   -0.680860
  C      2.200397    1.637600    1.074791
  C      2.635983    0.228711    0.777385
  C      4.031979    0.241830    0.130651
  C      2.694402   -0.517306    2.125922
  C      2.083153   -1.837218   -0.573162
  H      1.744768    0.174024   -1.153612
  H      1.723047   -0.521436    2.621336
  H      3.028953   -1.549542    2.025361
  H      3.394592   -0.007495    2.792793
  C      4.527532   -1.144047   -0.288624
  H      3.997730    0.887717   -0.755560
  H      4.749413    0.698853    0.821609
  C      3.489689   -1.839138   -1.172417
  H      2.048911   -2.467752    0.321447
  H      1.389333   -2.270227   -1.292110
  C      5.879561   -1.053477   -0.987704
  H      4.661320   -1.748800    0.615333
  H      3.810755   -2.864143   -1.381921
  H      3.454520   -1.322630   -2.140266
  C      0.588899    3.496804    1.339682
  H      2.970194    2.307017    1.454791
  H     -0.188258    3.504573    2.110262
  H      1.454638    4.041227    1.718190
  H      0.183945    4.041677    0.482809
  H      5.803690   -0.455554   -1.901049
  H      6.629706   -0.585888   -0.344779
  H      6.247790   -2.043641   -1.268178
  C     -0.094076    2.118399   -1.910535
  H     -0.587379    2.797159   -2.604082
  H      0.870004    2.553631   -1.637677
  H      0.110762    1.184970   -2.441223
  C     -2.218911    2.125006   -0.578032
  C     -3.131215    2.690410   -1.621015
  H     -2.614346    2.957438   -2.541319
  H     -3.909917    1.965538   -1.881581
  H     -3.644224    3.582045   -1.248861
  H     -2.699420    1.894478    0.370822
  C     -2.151596   -1.228065   -0.063605
  O     -0.613246   -1.128122   -1.810343
  C     -3.189941   -1.618542   -0.801411
  C     -2.586700   -1.158831    1.370455
  H     -3.176353   -1.745117   -1.875395
  C     -4.412945   -1.828588    0.037167
  N     -3.909485   -1.502404    1.355963
  H     -4.439393   -1.579558    2.208627
  O     -1.939596   -0.866565    2.354576
  C     -5.589939   -0.955597   -0.391092
  H     -6.439593   -1.100040    0.278685
  H     -5.909045   -1.214679   -1.402432
  H     -5.306226    0.097824   -0.370493
  H     -4.707790   -2.884884   -0.009132
  H      0.119649   -0.758996    1.240572
  H     -0.920376    1.207549    1.329850

 Total Charge           Charge          ....    0
 Multiplicity           Mult            ....    1
 Number of Electrons    NEL             ....  194
 Basis Dimension        Dim             .... 1955

ORBITAL ENERGIES
----------------

  NO   OCC          E(Eh)            E(eV)
   0   2.0000     -20.540716      -558.9413
   1   2.0000     -20.526404      -558.5518
   2   2.0000     -15.591657      -424.2706
   3   2.0000     -11.360450      -309.1336
   4   2.0000     -11.332500      -308.3730
   5   2.0000     -11.302427      -307.5547
   6   2.0000     -11.277320      -306.8715
   7   2.0000     -11.251472      -306.1681
   8   2.0000     -11.246362      -306.0291
   9   2.0000     -11.230440      -305.5958
  10   2.0000     -11.225087      -305.4501
  11   2.0000     -11.224212      -305.4263
  12   2.0000     -11.222142      -305.3700
  13   2.0000     -11.220236      -305.3181
  14   2.0000     -11.218320      -305.2660
  15   2.0000     -11.215909      -305.2004
  16   2.0000     -11.211581      -305.0826
  17   2.0000     -11.211352      -305.0764
  18   2.0000     -11.207779      -304.9792
  19   2.0000     -11.204932      -304.9017
  20   2.0000     -11.204692      -304.8952
  21   2.0000     -11.203353      -304.8587
  22   2.0000     -11.203243      -304.8558
  23   2.0000     -11.202168      -304.8265
  24   2.0000     -11.199585      -304.7562
  25   2.0000     -11.198773      -304.7341
  26   2.0000      -1.394738       -37.9527
  27   2.0000      -1.387930       -37.7675
  28   2.0000      -1.275228       -34.7007
  29   2.0000      -1.155335       -31.4383
  30   2.0000      -1.113840       -30.3091
  31   2.0000      -1.096362       -29.8335
  32   2.0000      -1.072489       -29.1839
  33   2.0000      -1.053653       -28.6713
  34   2.0000      -1.043494       -28.3949
  35   2.0000      -1.030245       -28.0344
  36   2.0000      -0.995295       -27.0834
  37   2.0000      -0.973601       -26.4930
  38   2.0000      -0.924770       -25.1643
  39   2.0000      -0.921792       -25.0832
  40   2.0000      -0.916369       -24.9357
  41   2.0000      -0.913646       -24.8616
  42   2.0000      -0.888087       -24.1661
  43   2.0000      -0.865937       -23.5633
  44   2.0000      -0.833903       -22.6916
  45   2.0000      -0.819580       -22.3019
  46   2.0000      -0.799041       -21.7430
  47   2.0000      -0.782355       -21.2890
  48   2.0000      -0.732885       -19.9428
  49   2.0000      -0.729024       -19.8377
  50   2.0000      -0.715114       -19.4592
  51   2.0000      -0.699800       -19.0425
  52   2.0000      -0.681841       -18.5538
  53   2.0000      -0.664429       -18.0800
  54   2.0000      -0.657390       -17.8885
  55   2.0000      -0.641887       -17.4666
  56   2.0000      -0.634071       -17.2540
  57   2.0000      -0.625764       -17.0279
  58   2.0000      -0.622153       -16.9296
  59   2.0000      -0.618042       -16.8178
  60   2.0000      -0.611755       -16.6467
  61   2.0000      -0.606207       -16.4957
  62   2.0000      -0.596129       -16.2215
  63   2.0000      -0.587850       -15.9962
  64   2.0000      -0.581951       -15.8357
  65   2.0000      -0.576876       -15.6976
  66   2.0000      -0.563435       -15.3318
  67   2.0000      -0.561306       -15.2739
  68   2.0000      -0.559706       -15.2304
  69   2.0000      -0.557529       -15.1711
  70   2.0000      -0.547239       -14.8911
  71   2.0000      -0.545210       -14.8359
  72   2.0000      -0.544814       -14.8252
  73   2.0000      -0.538015       -14.6401
  74   2.0000      -0.533749       -14.5240
  75   2.0000      -0.529471       -14.4076
  76   2.0000      -0.525476       -14.2989
  77   2.0000      -0.524884       -14.2828
  78   2.0000      -0.517894       -14.0926
  79   2.0000      -0.512189       -13.9374
  80   2.0000      -0.496844       -13.5198
  81   2.0000      -0.493119       -13.4184
  82   2.0000      -0.481509       -13.1025
  83   2.0000      -0.467980       -12.7344
  84   2.0000      -0.466491       -12.6939
  85   2.0000      -0.463261       -12.6060
  86   2.0000      -0.460152       -12.5214
  87   2.0000      -0.447500       -12.1771
  88   2.0000      -0.434894       -11.8341
  89   2.0000      -0.425954       -11.5908
  90   2.0000      -0.424508       -11.5515
  91   2.0000      -0.408916       -11.1272
  92   2.0000      -0.405512       -11.0345
  93   2.0000      -0.392477       -10.6798
  94   2.0000      -0.390001       -10.6125
  95   2.0000      -0.332085        -9.0365
  96   2.0000      -0.328835        -8.9481
  97   0.0000       0.017461         0.4751
  98   0.0000       0.027676         0.7531
  99   0.0000       0.029710         0.8085
 100   0.0000       0.031000         0.8435
 101   0.0000       0.035134         0.9560

MULLIKEN ATOMIC CHARGES
-----------------------
   0 C :   -0.613966
   1 C :    1.016703
   2 C :    1.758650
   3 C :    2.019190
   4 C :    0.645623
   5 C :    1.041077
   6 C :   -1.741325
   7 C :    2.535983
   8 C :   -0.958045
   9 C :   -1.528394
  10 C :   -1.408847
  11 H :    0.999000
  12 H :    0.354376
  13 H :    0.249792
  14 H :    0.044340
  15 C :    0.374289
  16 H :    0.127228
  17 H :    0.326072
  18 C :   -0.766032
  19 H :    0.039194
  20 H :    0.360379
  21 C :   -1.385314
  22 H :    0.190928
  23 H :    0.417820
  24 H :   -0.042586
  25 C :   -1.499628
  26 H :   -0.632829
  27 H :    0.186919
  28 H :    0.187573
  29 H :    0.248888
  30 H :    0.230633
  31 H :    0.251261
  32 H :    0.231620
  33 C :   -1.181786
  34 H :    0.217797
  35 H :    0.284148
  36 H :    0.225093
  37 C :   -0.532297
  38 C :   -1.361600
  39 H :    0.387213
  40 H :    0.265904
  41 H :    0.206529
  42 H :    0.278336
  43 C :    1.288282
  44 O :   -1.760357
  45 C :   -1.526238
  46 C :    0.178731
  47 H :    0.323786
  48 C :    0.258650
  49 N :   -0.081648
  50 H :   -0.019970
  51 O :   -1.107190
  52 C :   -1.085494
  53 H :    0.257893
  54 H :    0.255345
  55 H :    0.476688
  56 H :    0.280212
  57 H :    0.147511
  58 H :    0.063887
Sum of atomic charges:    0.0000000

LOEWDIN ATOMIC CHARGES
----------------------
   0 C :    0.057446
   1 C :    0.029204
   2 C :    0.033363
   3 C :   -0.484484
   4 C :   -0.052328
   5 C :   -0.090456
   6 C :    0.272763
   7 C :   -0.275611
   8 C :    0.310873
   9 C :    0.621087
  10 C :    0.330483
  11 H :   -0.141833
  12 H :   -0.155849
  13 H :   -0.176976
  14 H :   -0.143312
  15 C :   -0.020824
  16 H :   -0.122653
  17 H :   -0.127641
  18 C :    0.319785
  19 H :   -0.138181
  20 H :   -0.173401
  21 C :    0.594983
  22 H :   -0.135878
  23 H :   -0.130105
  24 H :   -0.128808
  25 C :    0.589370
  26 H :   -0.155359
  27 H :   -0.153418
  28 H :   -0.171327
  29 H :   -0.166602
  30 H :   -0.159432
  31 H :   -0.160877
  32 H :   -0.160874
  33 C :    0.600639
  34 H :   -0.183041
  35 H :   -0.162844
  36 H :   -0.180304
  37 C :    0.240315
  38 C :    0.575918
  39 H :   -0.196511
  40 H :   -0.175285
  41 H :   -0.168939
  42 H :   -0.177788
  43 C :   -0.047200
  44 O :    0.541377
  45 C :    0.282964
  46 C :   -0.652668
  47 H :   -0.131642
  48 C :   -0.133915
  49 N :    0.574992
  50 H :   -0.247957
  51 O :    0.474370
  52 C :    0.612974
  53 H :   -0.160664
  54 H :   -0.160498
  55 H :   -0.164333
  56 H :   -0.117853
  57 H :   -0.195098
  58 H :   -0.180136

  Mayer bond orders larger than 0.100000
B(  0-C ,  1-C ) :   0.7066 B(  0-C ,  2-C ) :   0.2998 B(  0-C ,  3-C ) :   0.7335
B(  0-C ,  4-C ) :   0.7652 B(  0-C ,  5-C ) :   0.3391 B(  0-C ,  6-C ) :   0.1995
B(  0-C ,  7-C ) :  -0.1796 B(  0-C , 22-H ) :   0.1437 B(  0-C , 24-H ) :   0.1175
B(  0-C , 26-H ) :  -0.1554 B(  0-C , 33-C ) :   0.2102 B(  0-C , 43-C ) :   0.1749
B(  0-C , 44-O ) :   0.7680 B(  0-C , 45-C ) :   0.2657 B(  0-C , 46-C ) :  -0.1718
B(  0-C , 51-O ) :  -0.1800 B(  0-C , 57-H ) :   0.8386 B(  0-C , 58-H ) :  -0.5916
B(  1-C ,  2-C ) :  -0.8577 B(  1-C ,  3-C ) :   0.6238 B(  1-C ,  4-C ) :  -0.9078
B(  1-C ,  5-C ) :   0.9404 B(  1-C ,  6-C ) :   0.2246 B(  1-C ,  7-C ) :  -0.1093
B(  1-C ,  9-C ) :   0.1258 B(  1-C , 11-H ) :   0.1209 B(  1-C , 33-C ) :   0.1323
B(  1-C , 37-C ) :  -0.1941 B(  1-C , 45-C ) :   0.1454 B(  1-C , 46-C ) :   0.3867
B(  1-C , 51-O ) :   0.2121 B(  1-C , 57-H ) :   0.2377 B(  1-C , 58-H ) :   0.9717
B(  2-C ,  3-C ) :  -0.5005 B(  2-C ,  5-C ) :   0.1173 B(  2-C ,  6-C ) :   0.1539
B(  2-C ,  7-C ) :   1.9908 B(  2-C , 11-H ) :  -0.1895 B(  2-C , 18-C ) :  -0.2737
B(  2-C , 19-H ) :  -0.3370 B(  2-C , 24-H ) :  -0.2580 B(  2-C , 26-H ) :   0.2419
B(  2-C , 33-C ) :  -0.2772 B(  2-C , 43-C ) :   0.1915 B(  2-C , 44-O ) :  -0.4905
B(  2-C , 51-O ) :  -0.1416 B(  2-C , 57-H ) :  -0.3038 B(  3-C ,  4-C ) :   0.1065
B(  3-C ,  7-C ) :  -0.1029 B(  3-C , 11-H ) :  -0.1250 B(  3-C , 37-C ) :   0.1073
B(  3-C , 43-C ) :  -0.1445 B(  3-C , 44-O ) :  -1.4632 B(  3-C , 46-C ) :   0.1055
B(  3-C , 47-H ) :  -0.1055 B(  3-C , 49-N ) :   0.1544 B(  3-C , 57-H ) :  -0.3147
B(  4-C ,  5-C ) :   0.9130 B(  4-C ,  6-C ) :   1.3333 B(  4-C ,  7-C ) :   0.7347
B(  4-C ,  8-C ) :   0.1271 B(  4-C ,  9-C ) :  -0.1079 B(  4-C , 17-H ) :   0.1786
B(  4-C , 25-C ) :   0.2360 B(  4-C , 26-H ) :  -1.0295 B(  4-C , 27-H ) :  -0.1810
B(  4-C , 28-H ) :   0.1367 B(  4-C , 29-H ) :  -0.2717 B(  4-C , 37-C ) :  -0.4846
B(  4-C , 42-H ) :  -0.2667 B(  5-C ,  6-C ) :   0.1962 B(  5-C , 25-C ) :  -0.1955
B(  5-C , 33-C ) :   0.3649 B(  5-C , 37-C ) :   0.6798 B(  5-C , 38-C ) :   0.5934
B(  5-C , 39-H ) :   0.1499 B(  5-C , 42-H ) :  -0.2098 B(  5-C , 43-C ) :   0.1934
B(  5-C , 44-O ) :   0.1158 B(  5-C , 58-H ) :  -0.1791 B(  6-C ,  7-C ) :  -0.6476
B(  6-C ,  8-C ) :  -0.5437 B(  6-C , 11-H ) :  -0.1086 B(  6-C , 17-H ) :  -0.2453
B(  6-C , 25-C ) :  -0.1375 B(  6-C , 26-H ) :   2.8865 B(  6-C , 28-H ) :  -0.1321
B(  6-C , 37-C ) :  -0.1010 B(  6-C , 57-H ) :   0.1544 B(  6-C , 58-H ) :  -0.2486
B(  7-C , 10-C ) :   0.2940 B(  7-C , 11-H ) :  -0.1912 B(  7-C , 12-H ) :  -0.1123
B(  7-C , 14-H ) :  -0.3543 B(  7-C , 15-C ) :  -0.1186 B(  7-C , 16-H ) :  -0.2809
B(  7-C , 18-C ) :   0.1661 B(  7-C , 22-H ) :  -0.3922 B(  7-C , 25-C ) :  -0.1453
B(  7-C , 26-H ) :  -0.6629 B(  7-C , 42-H ) :  -0.1289 B(  7-C , 43-C ) :   0.1070
B(  8-C , 11-H ) :  -0.1565 B(  8-C , 15-C ) :   1.1189 B(  8-C , 16-H ) :   1.3640
B(  8-C , 17-H ) :   1.0096 B(  8-C , 18-C ) :   0.1864 B(  8-C , 21-C ) :  -0.1307
B(  8-C , 22-H ) :   0.2055 B(  9-C , 12-H ) :   0.9904 B(  9-C , 13-H ) :   1.0684
B(  9-C , 14-H ) :   1.4487 B( 10-C , 11-H ) :  -0.1467 B( 10-C , 18-C ) :   1.1396
B( 10-C , 19-H ) :   1.4928 B( 10-C , 20-H ) :   0.8054 B( 10-C , 44-O ) :   0.1315
B( 11-H , 57-H ) :  -0.1138 B( 15-C , 18-C ) :   0.7345 B( 15-C , 21-C ) :   0.5032
B( 15-C , 22-H ) :   0.9274 B( 15-C , 30-H ) :  -0.1394 B( 18-C , 23-H ) :   0.7921
B( 18-C , 24-H ) :   1.4145 B( 21-C , 30-H ) :   1.1320 B( 21-C , 31-H ) :   1.0527
B( 21-C , 32-H ) :   1.1013 B( 25-C , 26-H ) :   0.1217 B( 25-C , 27-H ) :   1.2565
B( 25-C , 28-H ) :   1.0856 B( 25-C , 29-H ) :   1.2304 B( 25-C , 37-C ) :   0.1615
B( 25-C , 58-H ) :  -0.2137 B( 33-C , 34-H ) :   0.9809 B( 33-C , 35-H ) :   1.0878
B( 33-C , 36-H ) :   1.1034 B( 33-C , 37-C ) :  -0.2510 B( 37-C , 38-C ) :   0.1977
B( 37-C , 40-H ) :  -0.1310 B( 37-C , 41-H ) :  -0.1590 B( 37-C , 42-H ) :   1.5117
B( 37-C , 58-H ) :   0.3191 B( 38-C , 39-H ) :   0.8595 B( 38-C , 40-H ) :   1.1272
B( 38-C , 41-H ) :   1.1958 B( 38-C , 42-H ) :  -0.4518 B( 42-H , 58-H ) :   0.1225
B( 43-C , 44-O ) :   0.5373 B( 43-C , 45-C ) :   0.1086 B( 43-C , 48-C ) :   0.1314
B( 43-C , 49-N ) :  -0.6411 B( 43-C , 51-O ) :   0.4383 B( 45-C , 46-C ) :   0.3438
B( 45-C , 47-H ) :   1.1259 B( 45-C , 48-C ) :   1.1756 B( 46-C , 47-H ) :   0.1372
B( 46-C , 49-N ) :   1.4239 B( 46-C , 50-H ) :   0.2365 B( 46-C , 51-O ) :   0.5706
B( 46-C , 58-H ) :   0.1351 B( 48-C , 49-N ) :   0.8134 B( 48-C , 52-C ) :   0.6580
B( 48-C , 56-H ) :   0.8772 B( 49-N , 50-H ) :   1.1706 B( 49-N , 51-O ) :  -0.3024
B( 49-N , 52-C ) :   0.1041 B( 51-O , 57-H ) :  -0.2367 B( 52-C , 53-H ) :   1.0432
B( 52-C , 54-H ) :   1.0060 B( 52-C , 55-H ) :   0.7617

MP2 TOTAL ENERGY:    -1099.316723540 Eh
FINAL SINGLE POINT ENERGY     -1099.316723540258

DIPOLE MOMENT
-------------
                                X             Y             Z
Electronic contribution:    -15.94829      -9.27763       5.72049
Nuclear contribution   :     14.13044       8.95188      -5.98561
                        -----------------------------------------
Total Dipole Moment    :     -1.81786      -0.32575      -0.26513
                        -----------------------------------------
Magnitude (a.u.)       :      1.86575
Magnitude (Debye)      :      4.74235

Rotational constants in cm-1:     0.011522     0.004619     0.004143
Rotational constants in MHz :   345.418161   138.481901   124.204514

                             ****ORCA TERMINATED NORMALLY****
TOTAL RUN TIME: 0 days 2 hours 56 minutes 51 seconds 822 msec
