                         Program Version 4.2.1 -  RELEASE  -
|  1> %pal
|  2>  nprocs 32
|  3> end
|  4> !RI-MP2 aug-cc-pVTZ aug-cc-pVTZ/C TightSCF
|  5> %maxcore 4500
|  6> *xyzfile 0 1  10_20P.xyz
|  7>
|  8>
|  9>                          ****END OF INPUT****

CARTESIAN COORDINATES (ANGSTROEM)
---------------------------------
  C     -3.945068   -2.134890   -0.507720
  C     -2.808340   -1.655211    0.125859
  C     -2.632170   -0.287259    0.313244
  C     -3.613938    0.588999   -0.136270
  C     -4.752000    0.110478   -0.770431
  C     -4.918990   -1.253986   -0.959255
  H     -4.073245   -3.201841   -0.644762
  H     -2.060295   -2.349551    0.489269
  H     -3.487927    1.655912    0.013024
  H     -5.510806    0.804063   -1.112287
  H     -5.807543   -1.630693   -1.451091
  C     -1.369425    0.252316    0.933485
  C     -0.156804    0.240446   -0.032794
  C     -0.052773    2.488641   -0.906341
  C      1.171587    1.952878    1.119625
  C      0.908301    3.622812   -1.237836
  H     -0.920945    2.900083   -0.358857
  H     -0.441158    2.037524   -1.823415
  C      2.177811    3.063106    0.848344
  H      0.377816    2.338570    1.783937
  H      1.656261    1.125455    1.638718
  C      1.541515    4.184864    0.032174
  H      0.373760    4.404384   -1.783874
  H      1.690296    3.237018   -1.898800
  H      2.560090    3.444528    1.798347
  H      3.024849    2.640416    0.300030
  H      2.281722    4.949581   -0.214831
  H      0.768513    4.676762    0.634630
  N      0.620982    1.454856   -0.134916
  N      0.601629   -0.842621    0.569673
  N      0.119186   -1.176255    1.792474
  N     -0.936325   -0.589217    2.072663
  C      1.743504   -1.468385    0.051564
  C      2.335347   -2.534619    0.730576
  C      2.280785   -1.035837   -1.159601
  C      3.450162   -3.155088    0.192670
  C      3.392882   -1.675626   -1.686819
  C      3.986378   -2.735637   -1.018314
  H      1.915202   -2.866989    1.668736
  H      3.901736   -3.981778    0.728041
  H      4.856572   -3.228454   -1.433117
  H      3.801522   -1.330843   -2.629233
  H      1.849269   -0.184637   -1.665626
  H     -1.555466    1.257992    1.311227
  H     -0.471122   -0.032851   -1.042286

 Total Charge           Charge          ....    0
 Multiplicity           Mult            ....    1
 Number of Electrons    NEL             ....  164
 Basis Dimension        Dim             .... 1564

ORBITAL ENERGIES
----------------

  NO   OCC          E(Eh)            E(eV)
   0   2.0000     -15.669304      -426.3834
   1   2.0000     -15.617258      -424.9672
   2   2.0000     -15.604042      -424.6076
   3   2.0000     -15.556626      -423.3173
   4   2.0000     -11.309952      -307.7594
   5   2.0000     -11.286121      -307.1110
   6   2.0000     -11.273902      -306.7785
   7   2.0000     -11.259234      -306.3793
   8   2.0000     -11.251688      -306.1740
   9   2.0000     -11.248459      -306.0861
  10   2.0000     -11.240360      -305.8657
  11   2.0000     -11.239163      -305.8332
  12   2.0000     -11.238769      -305.8225
  13   2.0000     -11.236895      -305.7715
  14   2.0000     -11.235930      -305.7452
  15   2.0000     -11.234863      -305.7162
  16   2.0000     -11.234255      -305.6996
  17   2.0000     -11.226574      -305.4906
  18   2.0000     -11.225274      -305.4552
  19   2.0000     -11.225133      -305.4514
  20   2.0000     -11.223489      -305.4067
  21   2.0000     -11.222620      -305.3830
  22   2.0000     -11.221087      -305.3413
  23   2.0000      -1.440944       -39.2101
  24   2.0000      -1.265004       -34.4225
  25   2.0000      -1.225257       -33.3409
  26   2.0000      -1.167319       -31.7644
  27   2.0000      -1.140728       -31.0408
  28   2.0000      -1.100022       -29.9331
  29   2.0000      -1.064340       -28.9622
  30   2.0000      -1.027237       -27.9525
  31   2.0000      -1.022745       -27.8303
  32   2.0000      -1.018438       -27.7131
  33   2.0000      -1.013459       -27.5776
  34   2.0000      -0.997544       -27.1446
  35   2.0000      -0.911174       -24.7943
  36   2.0000      -0.872865       -23.7519
  37   2.0000      -0.860331       -23.4108
  38   2.0000      -0.853422       -23.2228
  39   2.0000      -0.836660       -22.7667
  40   2.0000      -0.824287       -22.4300
  41   2.0000      -0.807534       -21.9741
  42   2.0000      -0.777522       -21.1574
  43   2.0000      -0.762664       -20.7532
  44   2.0000      -0.739105       -20.1121
  45   2.0000      -0.717117       -19.5137
  46   2.0000      -0.693576       -18.8732
  47   2.0000      -0.674736       -18.3605
  48   2.0000      -0.671510       -18.2727
  49   2.0000      -0.647784       -17.6271
  50   2.0000      -0.638388       -17.3714
  51   2.0000      -0.628434       -17.1006
  52   2.0000      -0.622742       -16.9457
  53   2.0000      -0.622125       -16.9289
  54   2.0000      -0.616462       -16.7748
  55   2.0000      -0.605339       -16.4721
  56   2.0000      -0.595380       -16.2011
  57   2.0000      -0.592375       -16.1193
  58   2.0000      -0.586532       -15.9604
  59   2.0000      -0.576029       -15.6745
  60   2.0000      -0.567666       -15.4470
  61   2.0000      -0.560537       -15.2530
  62   2.0000      -0.551615       -15.0102
  63   2.0000      -0.540560       -14.7094
  64   2.0000      -0.520074       -14.1519
  65   2.0000      -0.516182       -14.0460
  66   2.0000      -0.510653       -13.8956
  67   2.0000      -0.504842       -13.7375
  68   2.0000      -0.499791       -13.6000
  69   2.0000      -0.497982       -13.5508
  70   2.0000      -0.494402       -13.4533
  71   2.0000      -0.491476       -13.3737
  72   2.0000      -0.474625       -12.9152
  73   2.0000      -0.459433       -12.5018
  74   2.0000      -0.455025       -12.3819
  75   2.0000      -0.424084       -11.5399
  76   2.0000      -0.408442       -11.1143
  77   2.0000      -0.370680       -10.0867
  78   2.0000      -0.343721        -9.3531
  79   2.0000      -0.339016        -9.2251
  80   2.0000      -0.330704        -8.9989
  81   2.0000      -0.294260        -8.0072
  82   0.0000       0.022007         0.5988
  83   0.0000       0.027151         0.7388
  84   0.0000       0.028076         0.7640
  85   0.0000       0.032044         0.8720
  86   0.0000       0.035294         0.9604

MULLIKEN ATOMIC CHARGES
-----------------------
   0 C :   -0.886468
   1 C :   -0.575096
   2 C :    1.578385
   3 C :   -0.907422
   4 C :   -0.931281
   5 C :   -0.042924
   6 H :    0.425385
   7 H :    0.339596
   8 H :   -0.093532
   9 H :    0.641634
  10 H :    0.447960
  11 C :    0.490743
  12 C :   -1.011124
  13 C :   -0.637326
  14 C :   -0.599386
  15 C :   -0.712986
  16 H :    0.256672
  17 H :    0.284006
  18 C :   -0.746167
  19 H :    0.192857
  20 H :    0.438572
  21 C :   -0.505045
  22 H :    0.325858
  23 H :    0.097259
  24 H :    0.320388
  25 H :    0.118371
  26 H :    0.335404
  27 H :    0.080174
  28 N :    0.715679
  29 N :    0.576089
  30 N :   -0.378805
  31 N :   -1.010787
  32 C :    1.176625
  33 C :   -0.704192
  34 C :   -0.063051
  35 C :   -0.757486
  36 C :   -1.135385
  37 C :   -0.262444
  38 H :    0.423756
  39 H :    0.398162
  40 H :    0.537949
  41 H :    0.422933
  42 H :    0.662448
  43 H :    0.164102
  44 H :    0.509899
Sum of atomic charges:    0.0000000

LOEWDIN ATOMIC CHARGES
----------------------
   0 C :    0.208799
   1 C :    0.221962
   2 C :   -0.107608
   3 C :    0.221754
   4 C :    0.202311
   5 C :    0.196903
   6 H :   -0.179439
   7 H :   -0.179411
   8 H :   -0.173987
   9 H :   -0.181323
  10 H :   -0.183118
  11 C :   -0.142995
  12 C :   -0.208519
  13 C :    0.171104
  14 C :    0.175946
  15 C :    0.303529
  16 H :   -0.125949
  17 H :   -0.134003
  18 C :    0.306335
  19 H :   -0.127012
  20 H :   -0.147261
  21 C :    0.292794
  22 H :   -0.137589
  23 H :   -0.136819
  24 H :   -0.135905
  25 H :   -0.135072
  26 H :   -0.139058
  27 H :   -0.139270
  28 N :    0.315537
  29 N :    0.122275
  30 N :    0.150520
  31 N :    0.270707
  32 C :   -0.212299
  33 C :    0.218585
  34 C :    0.226959
  35 C :    0.189446
  36 C :    0.194593
  37 C :    0.187489
  38 H :   -0.202721
  39 H :   -0.179828
  40 H :   -0.190104
  41 H :   -0.179599
  42 H :   -0.200328
  43 H :   -0.167176
  44 H :   -0.131157

  Mayer bond orders larger than 0.100000
B(  0-C ,  1-C ) :   1.3957 B(  0-C ,  4-C ) :   0.2994 B(  0-C ,  5-C ) :   1.1202
B(  0-C ,  6-H ) :   0.8552 B(  0-C , 10-H ) :  -0.1702 B(  1-C ,  2-C ) :   0.2841
B(  1-C ,  3-C ) :  -0.5454 B(  1-C ,  5-C ) :  -0.1222 B(  1-C ,  7-H ) :   1.0705
B(  1-C ,  9-H ) :   0.1027 B(  1-C , 11-C ) :   0.1561 B(  1-C , 29-N ) :   0.1756
B(  1-C , 30-N ) :   0.1116 B(  2-C ,  3-C ) :  -0.2003 B(  2-C ,  7-H ) :  -0.2113
B(  2-C ,  8-H ) :  -0.3138 B(  2-C , 11-C ) :   0.4126 B(  2-C , 12-C ) :   0.3360
B(  2-C , 29-N ) :  -0.1169 B(  2-C , 43-H ) :  -0.1085 B(  3-C ,  4-C ) :   1.3992
B(  3-C ,  5-C ) :  -0.1994 B(  3-C ,  7-H ) :   0.2504 B(  3-C ,  8-H ) :   1.9183
B(  3-C ,  9-H ) :  -0.1586 B(  3-C , 10-H ) :   0.2400 B(  3-C , 11-C ) :   0.3974
B(  3-C , 12-C ) :   0.1153 B(  3-C , 43-H ) :  -0.2193 B(  4-C ,  5-C ) :   1.0760
B(  4-C ,  8-H ) :  -0.1005 B(  4-C ,  9-H ) :   0.4170 B(  4-C , 10-H ) :  -0.1958
B(  4-C , 12-C ) :   0.1071 B(  5-C , 10-H ) :   0.8186 B(  7-H ,  8-H ) :   0.1414
B(  7-H , 11-C ) :  -0.1255 B(  7-H , 29-N ) :  -0.1087 B(  8-H ,  9-H ) :  -0.1035
B(  8-H , 11-C ) :  -0.1652 B(  8-H , 43-H ) :  -0.1286 B( 11-C , 12-C ) :   0.7666
B( 11-C , 31-N ) :   0.8107 B( 11-C , 43-H ) :   1.0239 B( 12-C , 13-C ) :  -0.2322
B( 12-C , 14-C ) :  -0.2078 B( 12-C , 19-H ) :  -0.1021 B( 12-C , 28-N ) :   1.0383
B( 12-C , 29-N ) :   0.9225 B( 12-C , 30-N ) :   0.7165 B( 12-C , 31-N ) :   0.4003
B( 12-C , 32-C ) :  -0.1920 B( 12-C , 33-C ) :   0.5176 B( 12-C , 34-C ) :   0.3963
B( 12-C , 36-C ) :   0.1056 B( 12-C , 42-H ) :  -0.1815 B( 12-C , 44-H ) :   0.7702
B( 13-C , 15-C ) :   0.9931 B( 13-C , 16-H ) :   1.0141 B( 13-C , 17-H ) :   1.0029
B( 13-C , 28-N ) :   0.6200 B( 14-C , 18-C ) :   1.0085 B( 14-C , 19-H ) :   1.1258
B( 14-C , 20-H ) :   0.7878 B( 14-C , 28-N ) :   0.6261 B( 15-C , 21-C ) :   0.9374
B( 15-C , 22-H ) :   0.8876 B( 15-C , 23-H ) :   1.1899 B( 15-C , 28-N ) :  -0.1172
B( 18-C , 21-C ) :   0.9199 B( 18-C , 24-H ) :   0.8919 B( 18-C , 25-H ) :   1.1631
B( 18-C , 28-N ) :  -0.1387 B( 21-C , 26-H ) :   0.8907 B( 21-C , 27-H ) :   1.0814
B( 21-C , 28-N ) :  -0.1147 B( 28-N , 29-N ) :   0.1525 B( 28-N , 34-C ) :  -0.4232
B( 28-N , 42-H ) :  -0.1216 B( 28-N , 44-H ) :  -0.1590 B( 29-N , 30-N ) :   0.4191
B( 29-N , 31-N ) :  -0.4835 B( 29-N , 32-C ) :   0.7347 B( 29-N , 33-C ) :  -0.3576
B( 29-N , 34-C ) :  -0.4852 B( 29-N , 35-C ) :   0.1139 B( 29-N , 36-C ) :   0.1138
B( 29-N , 38-H ) :   0.1128 B( 29-N , 42-H ) :   0.1188 B( 30-N , 31-N ) :   0.3238
B( 30-N , 32-C ) :  -0.4958 B( 30-N , 38-H ) :  -0.2170 B( 31-N , 43-H ) :   0.1115
B( 32-C , 33-C ) :   0.2452 B( 32-C , 34-C ) :   0.5873 B( 32-C , 36-C ) :  -0.3110
B( 32-C , 37-C ) :  -0.1046 B( 32-C , 38-H ) :  -0.2372 B( 32-C , 42-H ) :  -0.1361
B( 33-C , 34-C ) :  -0.1296 B( 33-C , 35-C ) :   1.2755 B( 33-C , 38-H ) :   1.0217
B( 33-C , 40-H ) :   0.1132 B( 34-C , 36-C ) :   1.2362 B( 34-C , 38-H ) :   0.1880
B( 34-C , 42-H ) :   0.6589 B( 35-C , 37-C ) :   1.1700 B( 35-C , 38-H ) :  -0.1146
B( 35-C , 39-H ) :   0.8924 B( 35-C , 40-H ) :  -0.1117 B( 36-C , 37-C ) :   1.2313
B( 36-C , 40-H ) :  -0.1603 B( 36-C , 41-H ) :   0.7873 B( 37-C , 40-H ) :   0.6653

MP2 TOTAL ENERGY:     -954.305752848 Eh
FINAL SINGLE POINT ENERGY      -954.305752847935

DIPOLE MOMENT
-------------
                                X             Y             Z
Electronic contribution:     -4.90024     -15.84633       4.72534
Nuclear contribution   :      4.75605      16.74437      -5.69641
                        -----------------------------------------
Total Dipole Moment    :     -0.14419       0.89804      -0.97106
                        -----------------------------------------
Magnitude (a.u.)       :      1.33050
Magnitude (Debye)      :      3.38186

Rotational constants in cm-1:     0.010416     0.007098     0.004988
Rotational constants in MHz :   312.255051   212.792771   149.537627

                             ****ORCA TERMINATED NORMALLY****
TOTAL RUN TIME: 0 days 1 hours 23 minutes 31 seconds 242 msec
