                         Program Version 4.2.1 -  RELEASE  -
|  1> %pal
|  2>  nprocs 32
|  3> end
|  4> !RI-MP2 aug-cc-pVTZ aug-cc-pVTZ/C TightSCF
|  5> %maxcore 4500
|  6> *xyzfile 1 2  03_30P1.xyz
|  7>
|  8>
|  9>                          ****END OF INPUT****

CARTESIAN COORDINATES (ANGSTROEM)
---------------------------------
  N      1.502845    0.000028   -0.000016
  C      1.168661   -0.976009   -1.007585
  C     -0.407925   -1.069362   -0.960078
  C     -0.953289   -0.000009    0.000004
  C      1.168630    1.360603   -0.341483
  C     -0.407956    1.366143   -0.445996
  C     -2.479866   -0.000002   -0.000003
  H     -2.869926   -0.977879    0.287293
  C      1.168683   -0.384566    1.349027
  C     -0.407909   -0.296827    1.406122
  H      1.636304   -1.927777   -0.762371
  H      1.525117   -0.628135   -1.974870
  H     -0.699407   -2.066297   -0.628551
  H     -0.796791   -0.924138   -1.967999
  H      1.636226    1.624121   -1.288372
  H      1.525143    2.024372    0.443394
  H     -0.699489    1.577587   -1.475098
  H     -0.796796    2.166359    0.183819
  H     -2.869900    0.240137   -0.990527
  H     -2.869914    0.737755    0.703212
  H      1.636285    0.303717    2.050669
  H      1.525194   -1.396175    1.531419
  H     -0.699401    0.488695    2.103786
  H     -0.796732   -1.242362    1.784262

 Total Charge           Charge          ....    1
 Multiplicity           Mult            ....    2
 Number of Electrons    NEL             ....   69
 Basis Dimension        Dim             ....  759

ORBITAL ENERGIES
----------------
                 SPIN UP ORBITALS
  NO   OCC          E(Eh)            E(eV)
   0   1.0000     -15.879248      -432.0963
   1   1.0000     -11.449631      -311.5603
   2   1.0000     -11.449629      -311.5603
   3   1.0000     -11.449607      -311.5596
   4   1.0000     -11.401929      -310.2623
   5   1.0000     -11.398355      -310.1650
   6   1.0000     -11.398354      -310.1650
   7   1.0000     -11.398265      -310.1626
   8   1.0000     -11.352442      -308.9156
   9   1.0000      -1.543142       -41.9910
  10   1.0000      -1.280518       -34.8447
  11   1.0000      -1.219462       -33.1833
  12   1.0000      -1.219459       -33.1832
  13   1.0000      -1.101956       -29.9857
  14   1.0000      -1.054037       -28.6818
  15   1.0000      -1.054032       -28.6817
  16   1.0000      -1.003712       -27.3124
  17   1.0000      -0.907064       -24.6825
  18   1.0000      -0.875948       -23.8358
  19   1.0000      -0.875946       -23.8357
  20   1.0000      -0.867290       -23.6002
  21   1.0000      -0.773120       -21.0377
  22   1.0000      -0.773117       -21.0376
  23   1.0000      -0.758814       -20.6484
  24   1.0000      -0.740540       -20.1511
  25   1.0000      -0.740535       -20.1510
  26   1.0000      -0.714857       -19.4523
  27   1.0000      -0.714852       -19.4521
  28   1.0000      -0.694013       -18.8851
  29   1.0000      -0.664908       -18.0931
  30   1.0000      -0.664904       -18.0930
  31   1.0000      -0.654824       -17.8187
  32   1.0000      -0.612152       -16.6575
  33   1.0000      -0.612147       -16.6574
  34   1.0000      -0.585313       -15.9272
  35   0.0000      -0.078997        -2.1496
  36   0.0000      -0.063828        -1.7368
  37   0.0000      -0.063828        -1.7368
  38   0.0000      -0.060721        -1.6523
  39   0.0000      -0.044250        -1.2041

                 SPIN DOWN ORBITALS
  NO   OCC          E(Eh)            E(eV)
   0   1.0000     -15.844535      -431.1517
   1   1.0000     -11.451896      -311.6219
   2   1.0000     -11.451895      -311.6219
   3   1.0000     -11.451868      -311.6212
   4   1.0000     -11.402495      -310.2777
   5   1.0000     -11.395847      -310.0968
   6   1.0000     -11.395847      -310.0968
   7   1.0000     -11.395785      -310.0951
   8   1.0000     -11.352227      -308.9098
   9   1.0000      -1.469398       -39.9844
  10   1.0000      -1.265812       -34.4445
  11   1.0000      -1.213451       -33.0197
  12   1.0000      -1.213448       -33.0196
  13   1.0000      -1.086528       -29.5659
  14   1.0000      -1.046045       -28.4643
  15   1.0000      -1.046040       -28.4642
  16   1.0000      -0.989988       -26.9390
  17   1.0000      -0.868760       -23.6402
  18   1.0000      -0.868759       -23.6401
  19   1.0000      -0.861796       -23.4507
  20   1.0000      -0.799929       -21.7672
  21   1.0000      -0.764708       -20.8088
  22   1.0000      -0.764705       -20.8087
  23   1.0000      -0.757539       -20.6137
  24   1.0000      -0.738015       -20.0824
  25   1.0000      -0.738011       -20.0823
  26   1.0000      -0.703555       -19.1447
  27   1.0000      -0.703550       -19.1446
  28   1.0000      -0.657842       -17.9008
  29   1.0000      -0.657838       -17.9007
  30   1.0000      -0.653218       -17.7750
  31   1.0000      -0.627625       -17.0785
  32   1.0000      -0.609509       -16.5856
  33   1.0000      -0.609504       -16.5855
  34   0.0000      -0.134221        -3.6523
  35   0.0000      -0.078515        -2.1365
  36   0.0000      -0.063762        -1.7350
  37   0.0000      -0.063761        -1.7350
  38   0.0000      -0.056593        -1.5400

MULLIKEN ATOMIC CHARGES AND SPIN POPULATIONS
--------------------------------------------
   0 N :   -0.018014    1.021818
   1 C :   -0.567994   -0.133678
   2 C :   -0.785291    0.097530
   3 C :    2.090949    0.002074
   4 C :   -0.567969   -0.133686
   5 C :   -0.785328    0.097522
   6 C :   -1.386636   -0.001543
   7 H :    0.277835   -0.001368
   8 C :   -0.567992   -0.133693
   9 C :   -0.785369    0.097545
  10 H :    0.398042    0.013050
  11 H :    0.236278    0.020501
  12 H :    0.196576    0.000405
  13 H :    0.349161   -0.003888
  14 H :    0.398014    0.013023
  15 H :    0.236304    0.020519
  16 H :    0.196609    0.000456
  17 H :    0.349094   -0.003916
  18 H :    0.277827   -0.001380
  19 H :    0.277796   -0.001372
  20 H :    0.398008    0.013041
  21 H :    0.236339    0.020497
  22 H :    0.196652    0.000439
  23 H :    0.349108   -0.003897
Sum of atomic charges         :    1.0000000

LOEWDIN ATOMIC CHARGES AND SPIN POPULATIONS
-------------------------------------------
   0 N :    0.387442    0.643716
   1 C :    0.331636    0.063562
   2 C :    0.383400    0.039374
   3 C :   -0.328006    0.003387
   4 C :    0.331617    0.063568
   5 C :    0.383395    0.039376
   6 C :    0.628737    0.001444
   7 H :   -0.141637    0.000452
   8 C :    0.331628    0.063565
   9 C :    0.383401    0.039376
  10 H :   -0.114224    0.001442
  11 H :   -0.116013   -0.000691
  12 H :   -0.119810    0.005878
  13 H :   -0.119404    0.007127
  14 H :   -0.114223    0.001443
  15 H :   -0.116007   -0.000689
  16 H :   -0.119804    0.005879
  17 H :   -0.119407    0.007127
  18 H :   -0.141638    0.000452
  19 H :   -0.141636    0.000452
  20 H :   -0.114225    0.001442
  21 H :   -0.116007   -0.000690
  22 H :   -0.119810    0.005879
  23 H :   -0.119407    0.007127

  Mayer bond orders larger than 0.100000
B(  0-N ,  1-C ) :   0.9048 B(  0-N ,  4-C ) :   0.9047 B(  0-N ,  8-C ) :   0.9048
B(  1-C ,  2-C ) :   0.9847 B(  1-C , 10-H ) :   0.8602 B(  1-C , 11-H ) :   1.0166
B(  2-C ,  3-C ) :   0.4686 B(  2-C ,  5-C ) :   0.1882 B(  2-C ,  9-C ) :   0.1882
B(  2-C , 12-H ) :   1.0784 B(  2-C , 13-H ) :   0.9061 B(  3-C ,  5-C ) :   0.4685
B(  3-C ,  6-C ) :   0.1694 B(  3-C ,  7-H ) :  -0.1000 B(  3-C ,  9-C ) :   0.4685
B(  3-C , 12-H ) :  -0.1002 B(  3-C , 16-H ) :  -0.1002 B(  3-C , 18-H ) :  -0.1000
B(  3-C , 19-H ) :  -0.1000 B(  3-C , 22-H ) :  -0.1002 B(  4-C ,  5-C ) :   0.9847
B(  4-C , 14-H ) :   0.8603 B(  4-C , 15-H ) :   1.0165 B(  5-C ,  9-C ) :   0.1883
B(  5-C , 16-H ) :   1.0784 B(  5-C , 17-H ) :   0.9061 B(  6-C ,  7-H ) :   1.0511
B(  6-C , 18-H ) :   1.0511 B(  6-C , 19-H ) :   1.0511 B(  8-C ,  9-C ) :   0.9848
B(  8-C , 20-H ) :   0.8602 B(  8-C , 21-H ) :   1.0165 B(  9-C , 22-H ) :   1.0783
B(  9-C , 23-H ) :   0.9061

MP2 TOTAL ENERGY:     -367.559306169 Eh
FINAL SINGLE POINT ENERGY      -367.559306168983

DIPOLE MOMENT
-------------
                                X             Y             Z
Electronic contribution:      4.81930       0.00002      -0.00008
Nuclear contribution   :     -3.78522      -0.00002       0.00007
                        -----------------------------------------
Total Dipole Moment    :      1.03408       0.00000      -0.00001
                        -----------------------------------------
Magnitude (a.u.)       :      1.03408
Magnitude (Debye)      :      2.62842

Rotational constants in cm-1:     0.083104     0.053283     0.053282
Rotational constants in MHz :  2491.408492  1597.376861  1597.364817

                             ****ORCA TERMINATED NORMALLY****
TOTAL RUN TIME: 0 days 0 hours 14 minutes 31 seconds 702 msec
