                         Program Version 4.2.1 -  RELEASE  -
|  1> %pal
|  2>  nprocs 32
|  3> end
|  4> !RI-MP2 aug-cc-pVTZ aug-cc-pVTZ/C TightSCF
|  5> %maxcore 4500
|  6> *xyzfile 0 2  03_10P1.xyz
|  7>
|  8>
|  9>                          ****END OF INPUT****

CARTESIAN COORDINATES (ANGSTROEM)
---------------------------------
  C      0.108607    0.329094   -0.768464
  C      1.209827   -0.304829    0.061386
  O      1.263069   -1.639089   -0.102827
  O      1.918073    0.283103    0.833750
  C     -1.198604    0.072955   -0.053900
  H      0.081884   -0.201161   -1.724348
  N      0.457814    1.721498   -0.992752
  H      1.940172   -1.977181    0.500192
  C     -1.464452    0.742045    1.250533
  C     -1.992490   -1.131939   -0.419375
  H      0.932251    2.111371   -0.186789
  H     -0.362082    2.274949   -1.204426
  H     -0.932842    1.689579    1.346327
  H     -2.532842    0.932865    1.384308
  H     -3.045731   -1.007988   -0.154372
  H     -1.633001   -2.026845    0.110871
  H     -1.926890   -1.352588   -1.487336
  H     -1.152078    0.110448    2.096379

 Total Charge           Charge          ....    0
 Multiplicity           Mult            ....    2
 Number of Electrons    NEL             ....   63
 Basis Dimension        Dim             ....  598

ORBITAL ENERGIES
----------------
                 SPIN UP ORBITALS
  NO   OCC          E(Eh)            E(eV)
   0   1.0000     -20.618082      -561.0465
   1   1.0000     -20.553523      -559.2898
   2   1.0000     -15.544756      -422.9943
   3   1.0000     -11.387393      -309.8667
   4   1.0000     -11.277733      -306.8827
   5   1.0000     -11.246534      -306.0338
   6   1.0000     -11.223376      -305.4036
   7   1.0000     -11.222881      -305.3901
   8   1.0000      -1.474557       -40.1247
   9   1.0000      -1.370427       -37.2912
  10   1.0000      -1.202875       -32.7319
  11   1.0000      -1.089661       -29.6512
  12   1.0000      -0.970526       -26.4094
  13   1.0000      -0.948204       -25.8019
  14   1.0000      -0.834928       -22.7196
  15   1.0000      -0.765359       -20.8265
  16   1.0000      -0.720242       -19.5988
  17   1.0000      -0.710188       -19.3252
  18   1.0000      -0.658147       -17.9091
  19   1.0000      -0.631105       -17.1732
  20   1.0000      -0.618843       -16.8396
  21   1.0000      -0.616520       -16.7764
  22   1.0000      -0.601290       -16.3619
  23   1.0000      -0.574948       -15.6451
  24   1.0000      -0.549334       -14.9481
  25   1.0000      -0.538200       -14.6452
  26   1.0000      -0.518834       -14.1182
  27   1.0000      -0.505295       -13.7498
  28   1.0000      -0.490276       -13.3411
  29   1.0000      -0.463102       -12.6016
  30   1.0000      -0.401660       -10.9297
  31   1.0000      -0.331059        -9.0086
  32   0.0000       0.026052         0.7089
  33   0.0000       0.032722         0.8904
  34   0.0000       0.036715         0.9991
  35   0.0000       0.039038         1.0623
  36   0.0000       0.052922         1.4401

                 SPIN DOWN ORBITALS
  NO   OCC          E(Eh)            E(eV)
   0   1.0000     -20.618037      -561.0453
   1   1.0000     -20.552845      -559.2714
   2   1.0000     -15.543659      -422.9645
   3   1.0000     -11.385548      -309.8165
   4   1.0000     -11.280781      -306.9656
   5   1.0000     -11.226487      -305.4882
   6   1.0000     -11.225881      -305.4718
   7   1.0000     -11.222152      -305.3703
   8   1.0000      -1.473560       -40.0976
   9   1.0000      -1.369119       -37.2556
  10   1.0000      -1.195618       -32.5344
  11   1.0000      -1.054997       -28.7079
  12   1.0000      -0.967267       -26.3207
  13   1.0000      -0.947601       -25.7855
  14   1.0000      -0.823769       -22.4159
  15   1.0000      -0.739116       -20.1124
  16   1.0000      -0.714272       -19.4363
  17   1.0000      -0.706514       -19.2252
  18   1.0000      -0.647150       -17.6099
  19   1.0000      -0.629832       -17.1386
  20   1.0000      -0.612777       -16.6745
  21   1.0000      -0.603607       -16.4250
  22   1.0000      -0.574399       -15.6302
  23   1.0000      -0.568829       -15.4786
  24   1.0000      -0.538478       -14.6527
  25   1.0000      -0.535179       -14.5630
  26   1.0000      -0.514801       -14.0084
  27   1.0000      -0.499104       -13.5813
  28   1.0000      -0.486635       -13.2420
  29   1.0000      -0.456186       -12.4135
  30   1.0000      -0.395118       -10.7517
  31   0.0000       0.025868         0.7039
  32   0.0000       0.032850         0.8939
  33   0.0000       0.036675         0.9980
  34   0.0000       0.039066         1.0630
  35   0.0000       0.052740         1.4351

MULLIKEN ATOMIC CHARGES AND SPIN POPULATIONS
--------------------------------------------
   0 C :    0.955299   -0.189045
   1 C :    0.572483    0.022760
   2 O :   -0.490519   -0.001041
   3 O :   -0.916724    0.014237
   4 C :    0.344573    1.301873
   5 H :    0.318204    0.011324
   6 N :   -0.821239    0.033542
   7 H :    0.224828    0.000567
   8 C :   -0.999984   -0.200916
   9 C :   -1.008009   -0.194247
  10 H :    0.109594   -0.005251
  11 H :    0.107879    0.003614
  12 H :    0.313562    0.004644
  13 H :    0.228165    0.027883
  14 H :    0.274860    0.021498
  15 H :    0.258537    0.069040
  16 H :    0.278984    0.010859
  17 H :    0.249507    0.068659
Sum of atomic charges         :    0.0000000

LOEWDIN ATOMIC CHARGES AND SPIN POPULATIONS
-------------------------------------------
   0 C :   -0.168474    0.091717
   1 C :   -0.788749    0.026311
   2 O :    0.851898    0.003198
   3 O :    0.481845    0.013031
   4 C :   -0.045753    0.536901
   5 H :   -0.162079    0.005191
   6 N :    0.851202    0.015608
   7 H :   -0.461359    0.000484
   8 C :    0.561734    0.107848
   9 C :    0.562809    0.109186
  10 H :   -0.358780    0.001517
  11 H :   -0.312829    0.006504
  12 H :   -0.180405    0.002792
  13 H :   -0.170433    0.010397
  14 H :   -0.172709    0.007463
  15 H :   -0.159838    0.028522
  16 H :   -0.173710    0.005746
  17 H :   -0.154371    0.027584

  Mayer bond orders larger than 0.100000
B(  0-C ,  1-C ) :   0.5372 B(  0-C ,  3-O ) :  -0.1349 B(  0-C ,  4-C ) :   0.8338
B(  0-C ,  5-H ) :   0.9759 B(  0-C ,  6-N ) :   0.2486 B(  1-C ,  2-O ) :   0.9419
B(  1-C ,  3-O ) :   1.3268 B(  1-C ,  4-C ) :   0.3617 B(  1-C ,  5-H ) :  -0.1139
B(  1-C ,  6-N ) :   0.1867 B(  2-O ,  7-H ) :   0.9662 B(  4-C ,  8-C ) :   0.7051
B(  4-C ,  9-C ) :   0.5554 B(  6-N , 10-H ) :   1.0141 B(  6-N , 11-H ) :   0.9795
B(  8-C , 12-H ) :   0.9287 B(  8-C , 13-H ) :   1.0437 B(  8-C , 17-H ) :   0.9773
B(  9-C , 14-H ) :   1.0092 B(  9-C , 15-H ) :   0.9851 B(  9-C , 16-H ) :   1.0038

MP2 TOTAL ENERGY:     -400.996629308 Eh
FINAL SINGLE POINT ENERGY      -400.996629307957

DIPOLE MOMENT
-------------
                                X             Y             Z
Electronic contribution:      7.92842      -1.00205      -0.61363
Nuclear contribution   :     -8.73924       0.55235       0.69938
                        -----------------------------------------
Total Dipole Moment    :     -0.81082      -0.44970       0.08575
                        -----------------------------------------
Magnitude (a.u.)       :      0.93114
Magnitude (Debye)      :      2.36677

Rotational constants in cm-1:     0.083051     0.057584     0.046928
Rotational constants in MHz :  2489.812464  1726.336991  1406.869271

                             ****ORCA TERMINATED NORMALLY****
TOTAL RUN TIME: 0 days 0 hours 4 minutes 49 seconds 933 msec
