                         Program Version 4.2.1 -  RELEASE  -
|  1> %pal
|  2>  nprocs 32
|  3> end
|  4> !RI-MP2 aug-cc-pVTZ aug-cc-pVTZ/C TightSCF
|  5> %maxcore 4500
|  6> *xyzfile 0 1  10_5TS.xyz
|  7>
|  8>
|  9>                          ****END OF INPUT****

CARTESIAN COORDINATES (ANGSTROEM)
---------------------------------
  C      2.131256   -1.939602    0.039311
  C     -1.611307   -0.384606    0.907320
  C     -0.527131    0.101871    0.265335
  C      2.636889   -0.648599    0.055145
  O      0.734245    0.133820    1.200772
  C      1.634655    1.511614   -0.309221
  H      2.292610    1.570748   -1.171261
  N      1.782781    0.438748    0.421918
  H      1.100362   -2.117715    0.311945
  O     -0.259097    0.549012   -0.863232
  C      2.967470   -2.977138   -0.340604
  C      4.287452   -2.727125   -0.694191
  H      4.933609   -3.544618   -0.988524
  C      4.781312   -1.430809   -0.658746
  H      5.814594   -1.233379   -0.914961
  C      3.958197   -0.383565   -0.272144
  H      4.344962    0.625758   -0.203032
  H      2.581256   -3.988339   -0.365169
  C     -2.903132   -0.466339    0.206559
  C     -4.053022   -0.860590    0.907678
  C     -3.062091   -0.168631   -1.157802
  C     -5.290896   -0.944854    0.287395
  H     -3.986217   -1.103173    1.959281
  C     -4.300465   -0.253993   -1.771962
  H     -2.199902    0.127912   -1.736254
  C     -5.427824   -0.641274   -1.058477
  H     -6.154993   -1.251394    0.866114
  H     -4.383740   -0.017706   -2.827008
  H     -6.393739   -0.707829   -1.544448
  C     -1.537773   -0.855092    2.336797
  H     -1.888782   -1.887651    2.431097
  H     -2.166340   -0.243818    2.992664
  H     -0.524348   -0.812081    2.725025
  C      0.975544    2.765630    0.156984
  H      0.184418    2.509265    0.860097
  C      0.385567    3.534478   -1.021215
  H     -0.071709    4.459829   -0.667739
  H     -0.372607    2.936551   -1.523561
  H      1.161213    3.802639   -1.745164
  C      2.044086    3.589035    0.895815
  H      2.876981    3.847044    0.235646
  H      2.438597    3.050187    1.758696
  H      1.600414    4.521410    1.248947

 Total Charge           Charge          ....    0
 Multiplicity           Mult            ....    1
 Number of Electrons    NEL             ....  158
 Basis Dimension        Dim             .... 1495

ORBITAL ENERGIES
----------------

  NO   OCC          E(Eh)            E(eV)
   0   2.0000     -20.617299      -561.0252
   1   2.0000     -20.514614      -558.2310
   2   2.0000     -15.703355      -427.3100
   3   2.0000     -11.373911      -309.4999
   4   2.0000     -11.330189      -308.3101
   5   2.0000     -11.306322      -307.6607
   6   2.0000     -11.270004      -306.6724
   7   2.0000     -11.264686      -306.5277
   8   2.0000     -11.260195      -306.4055
   9   2.0000     -11.257076      -306.3206
  10   2.0000     -11.255519      -306.2782
  11   2.0000     -11.254579      -306.2527
  12   2.0000     -11.249518      -306.1149
  13   2.0000     -11.231846      -305.6341
  14   2.0000     -11.217095      -305.2327
  15   2.0000     -11.204898      -304.9008
  16   2.0000     -11.203146      -304.8531
  17   2.0000     -11.198195      -304.7184
  18   2.0000     -11.196942      -304.6843
  19   2.0000     -11.195323      -304.6402
  20   2.0000     -11.190939      -304.5209
  21   2.0000     -11.189866      -304.4917
  22   2.0000      -1.499574       -40.8055
  23   2.0000      -1.348461       -36.6935
  24   2.0000      -1.239266       -33.7221
  25   2.0000      -1.179007       -32.0824
  26   2.0000      -1.127322       -30.6760
  27   2.0000      -1.117502       -30.4088
  28   2.0000      -1.053389       -28.6642
  29   2.0000      -1.047792       -28.5119
  30   2.0000      -1.041119       -28.3303
  31   2.0000      -0.983759       -26.7694
  32   2.0000      -0.966973       -26.3127
  33   2.0000      -0.959433       -26.1075
  34   2.0000      -0.933218       -25.3942
  35   2.0000      -0.890500       -24.2317
  36   2.0000      -0.861461       -23.4416
  37   2.0000      -0.845639       -23.0110
  38   2.0000      -0.825951       -22.4753
  39   2.0000      -0.796238       -21.6667
  40   2.0000      -0.789331       -21.4788
  41   2.0000      -0.776386       -21.1265
  42   2.0000      -0.742898       -20.2153
  43   2.0000      -0.705064       -19.1858
  44   2.0000      -0.698150       -18.9976
  45   2.0000      -0.682736       -18.5782
  46   2.0000      -0.661905       -18.0114
  47   2.0000      -0.650885       -17.7115
  48   2.0000      -0.643423       -17.5084
  49   2.0000      -0.631304       -17.1786
  50   2.0000      -0.626239       -17.0408
  51   2.0000      -0.617467       -16.8021
  52   2.0000      -0.615895       -16.7593
  53   2.0000      -0.596338       -16.2272
  54   2.0000      -0.594758       -16.1842
  55   2.0000      -0.571239       -15.5442
  56   2.0000      -0.568451       -15.4683
  57   2.0000      -0.561862       -15.2890
  58   2.0000      -0.555268       -15.1096
  59   2.0000      -0.549611       -14.9557
  60   2.0000      -0.540892       -14.7184
  61   2.0000      -0.537211       -14.6182
  62   2.0000      -0.528373       -14.3778
  63   2.0000      -0.525522       -14.3002
  64   2.0000      -0.523848       -14.2546
  65   2.0000      -0.515435       -14.0257
  66   2.0000      -0.508322       -13.8321
  67   2.0000      -0.505263       -13.7489
  68   2.0000      -0.497173       -13.5288
  69   2.0000      -0.475130       -12.9290
  70   2.0000      -0.473228       -12.8772
  71   2.0000      -0.460288       -12.5251
  72   2.0000      -0.446305       -12.1446
  73   2.0000      -0.422915       -11.5081
  74   2.0000      -0.364173        -9.9097
  75   2.0000      -0.349254        -9.5037
  76   2.0000      -0.346213        -9.4209
  77   2.0000      -0.307636        -8.3712
  78   2.0000      -0.242674        -6.6035
  79   0.0000       0.015818         0.4304
  80   0.0000       0.024002         0.6531
  81   0.0000       0.029134         0.7928
  82   0.0000       0.031310         0.8520
  83   0.0000       0.037139         1.0106

MULLIKEN ATOMIC CHARGES
-----------------------
   0 C :   -0.428670
   1 C :    0.949600
   2 C :    1.330906
   3 C :    1.052968
   4 O :   -1.036824
   5 C :   -0.019170
   6 H :    0.836593
   7 N :    0.351765
   8 H :    0.847745
   9 O :   -1.379130
  10 C :   -1.122035
  11 C :   -0.271109
  12 H :    0.640112
  13 C :   -0.967705
  14 H :    0.288969
  15 C :   -0.545792
  16 H :    0.567883
  17 H :    0.272274
  18 C :    1.436015
  19 C :   -0.920100
  20 C :   -0.452747
  21 C :   -1.012038
  22 H :   -0.089495
  23 C :   -1.059152
  24 H :    0.165633
  25 C :   -0.169147
  26 H :    0.480750
  27 H :    0.391015
  28 H :    0.449554
  29 C :   -1.342827
  30 H :    0.267298
  31 H :    0.208176
  32 H :    0.216325
  33 C :    0.366300
  34 H :    0.477797
  35 C :   -1.313808
  36 H :    0.248486
  37 H :    0.502755
  38 H :    0.198720
  39 C :   -1.248414
  40 H :    0.260593
  41 H :    0.338741
  42 H :    0.231190
Sum of atomic charges:   -0.0000000

LOEWDIN ATOMIC CHARGES
----------------------
   0 C :    0.245188
   1 C :   -0.133857
   2 C :   -0.697349
   3 C :   -0.198925
   4 O :    0.531595
   5 C :    0.101094
   6 H :   -0.101271
   7 N :   -0.047639
   8 H :   -0.179913
   9 O :    0.491975
  10 C :    0.219355
  11 C :    0.206464
  12 H :   -0.179457
  13 C :    0.206985
  14 H :   -0.177848
  15 C :    0.220788
  16 H :   -0.172349
  17 H :   -0.173741
  18 C :   -0.121573
  19 C :    0.204609
  20 C :    0.213952
  21 C :    0.184556
  22 H :   -0.211213
  23 C :    0.185555
  24 H :   -0.256067
  25 C :    0.176963
  26 H :   -0.186017
  27 H :   -0.186370
  28 H :   -0.193656
  29 C :    0.518159
  30 H :   -0.171082
  31 H :   -0.170411
  32 H :   -0.224727
  33 C :   -0.036748
  34 H :   -0.149878
  35 C :    0.603000
  36 H :   -0.153955
  37 H :   -0.176559
  38 H :   -0.155919
  39 C :    0.611558
  40 H :   -0.156314
  41 H :   -0.156013
  42 H :   -0.152945

  Mayer bond orders larger than 0.100000
B(  0-C ,  1-C ) :  -0.2419 B(  0-C ,  2-C ) :   0.3381 B(  0-C ,  3-C ) :   0.9143
B(  0-C ,  4-O ) :   0.1196 B(  0-C ,  7-N ) :  -0.4242 B(  0-C ,  8-H ) :   0.2913
B(  0-C , 10-C ) :   1.0873 B(  0-C , 11-C ) :   0.1245 B(  0-C , 15-C ) :  -0.1578
B(  1-C ,  2-C ) :   1.2737 B(  1-C ,  4-O ) :  -0.1077 B(  1-C ,  5-C ) :  -0.1336
B(  1-C ,  7-N ) :   0.1599 B(  1-C ,  9-O ) :  -0.3286 B(  1-C , 18-C ) :   0.2412
B(  1-C , 19-C ) :   0.7691 B(  1-C , 20-C ) :   0.2279 B(  1-C , 22-H ) :  -0.5267
B(  1-C , 23-C ) :   0.1149 B(  1-C , 24-H ) :  -0.5763 B(  1-C , 25-C ) :   0.1934
B(  1-C , 26-H ) :   0.3960 B(  1-C , 27-H ) :   0.4529 B(  1-C , 28-H ) :  -0.4811
B(  1-C , 29-C ) :   0.4842 B(  1-C , 30-H ) :  -0.1291 B(  1-C , 31-H ) :  -0.1674
B(  1-C , 32-H ) :   0.1302 B(  2-C ,  4-O ) :   0.1559 B(  2-C ,  5-C ) :   0.1162
B(  2-C ,  7-N ) :   0.1386 B(  2-C ,  8-H ) :  -0.1016 B(  2-C ,  9-O ) :   0.7920
B(  2-C , 18-C ) :   0.5860 B(  2-C , 19-C ) :  -0.1828 B(  2-C , 23-C ) :  -0.1477
B(  2-C , 24-H ) :   0.5382 B(  2-C , 26-H ) :  -0.1027 B(  2-C , 27-H ) :  -0.4638
B(  2-C , 28-H ) :   0.3454 B(  2-C , 29-C ) :  -0.2811 B(  2-C , 32-H ) :  -0.1928
B(  3-C ,  4-O ) :  -0.1625 B(  3-C ,  5-C ) :   0.4122 B(  3-C ,  6-H ) :  -0.1164
B(  3-C ,  7-N ) :   0.4796 B(  3-C ,  8-H ) :  -0.1047 B(  3-C ,  9-O ) :  -0.1045
B(  3-C , 11-C ) :  -0.1363 B(  3-C , 13-C ) :  -0.3636 B(  3-C , 15-C ) :   0.5943
B(  3-C , 17-H ) :   0.1025 B(  4-O ,  7-N ) :   1.0004 B(  4-O ,  9-O ) :   0.1005
B(  4-O , 29-C ) :  -0.1190 B(  5-C ,  6-H ) :   0.4786 B(  5-C ,  7-N ) :   1.2320
B(  5-C ,  9-O ) :   0.1554 B(  5-C , 15-C ) :   0.1011 B(  5-C , 33-C ) :   1.0744
B(  5-C , 35-C ) :   0.1119 B(  5-C , 39-C ) :   0.1257 B(  6-H , 15-C ) :  -0.1849
B(  7-N ,  8-H ) :   0.1150 B(  7-N , 15-C ) :  -0.1375 B(  7-N , 33-C ) :   0.1081
B(  8-H , 10-C ) :  -0.2583 B(  9-O , 33-C ) :   0.1190 B( 10-C , 11-C ) :   1.0887
B( 10-C , 13-C ) :  -0.1290 B( 10-C , 17-H ) :   1.2040 B( 11-C , 12-H ) :   0.5159
B( 11-C , 13-C ) :   1.2296 B( 11-C , 14-H ) :  -0.1219 B( 11-C , 15-C ) :   0.1504
B( 11-C , 17-H ) :  -0.1268 B( 13-C , 14-H ) :   1.0927 B( 13-C , 15-C ) :   1.2227
B( 13-C , 16-H ) :  -0.1261 B( 15-C , 16-H ) :   0.6356 B( 18-C , 19-C ) :  -0.1754
B( 18-C , 20-C ) :   0.7547 B( 18-C , 23-C ) :   0.1827 B( 18-C , 26-H ) :  -0.2393
B( 18-C , 27-H ) :  -0.1029 B( 18-C , 28-H ) :   0.2186 B( 18-C , 29-C ) :   0.1866
B( 19-C , 20-C ) :  -0.9445 B( 19-C , 21-C ) :   1.0851 B( 19-C , 22-H ) :   1.9569
B( 19-C , 23-C ) :   0.1116 B( 19-C , 24-H ) :   0.1704 B( 19-C , 25-C ) :  -0.1490
B( 19-C , 26-H ) :  -0.1605 B( 19-C , 28-H ) :   0.1614 B( 19-C , 29-C ) :  -0.1023
B( 20-C , 23-C ) :   0.9802 B( 20-C , 24-H ) :   1.3431 B( 20-C , 25-C ) :  -0.1911
B( 21-C , 22-H ) :  -0.1395 B( 21-C , 23-C ) :   0.3448 B( 21-C , 25-C ) :   1.0499
B( 21-C , 26-H ) :   0.7050 B( 21-C , 28-H ) :  -0.1687 B( 22-H , 24-H ) :   0.1480
B( 23-C , 25-C ) :   1.0468 B( 23-C , 27-H ) :   0.7796 B( 23-C , 28-H ) :  -0.1531
B( 24-H , 29-C ) :  -0.1351 B( 25-C , 28-H ) :   0.8339 B( 29-C , 30-H ) :   1.1006
B( 29-C , 31-H ) :   1.1479 B( 29-C , 32-H ) :   1.0282 B( 33-C , 34-H ) :   0.7874
B( 33-C , 35-C ) :   0.6977 B( 33-C , 39-C ) :   0.4334 B( 34-H , 39-C ) :  -0.1158
B( 35-C , 36-H ) :   1.0677 B( 35-C , 37-H ) :   0.7684 B( 35-C , 38-H ) :   1.1038
B( 35-C , 39-C ) :   0.1271 B( 39-C , 40-H ) :   1.0371 B( 39-C , 41-H ) :   0.9392
B( 39-C , 42-H ) :   1.1121

MP2 TOTAL ENERGY:     -939.906454802 Eh
FINAL SINGLE POINT ENERGY      -939.906454802490

DIPOLE MOMENT
-------------
                                X             Y             Z
Electronic contribution:      1.79246      -9.66555      -1.81442
Nuclear contribution   :      1.21011      10.60535       1.71802
                        -----------------------------------------
Total Dipole Moment    :      3.00257       0.93980      -0.09640
                        -----------------------------------------
Magnitude (a.u.)       :      3.14769
Magnitude (Debye)      :      8.00080

Rotational constants in cm-1:     0.014441     0.005646     0.004704
Rotational constants in MHz :   432.939189   169.250750   141.017587

                             ****ORCA TERMINATED NORMALLY****
TOTAL RUN TIME: 0 days 1 hours 14 minutes 34 seconds 397 msec
