                         Program Version 4.2.1 -  RELEASE  -
|  1> %pal
|  2>  nprocs 32
|  3> end
|  4> !RI-MP2 aug-cc-pVTZ aug-cc-pVTZ/C TightSCF
|  5> %maxcore 4500
|  6> *xyzfile 0 1  04_39P2.xyz
|  7>
|  8>
|  9>                          ****END OF INPUT****

CARTESIAN COORDINATES (ANGSTROEM)
---------------------------------
  C     -1.637814   -0.349840   -0.053366
  C     -0.497007    0.643021    0.091003
  H     -1.588747   -0.865347   -1.013451
  H     -2.600737    0.163382    0.015235
  H     -1.605351   -1.105085    0.734929
  S      1.163671   -0.099244   -0.079852
  H     -0.550841    1.173215    1.041893
  H     -0.537137    1.395314   -0.697938
  H      1.073007   -0.932663    0.971150

 Total Charge           Charge          ....    0
 Multiplicity           Mult            ....    1
 Number of Electrons    NEL             ....   34
 Basis Dimension        Dim             ....  280

ORBITAL ENERGIES
----------------

  NO   OCC          E(Eh)            E(eV)
   0   2.0000     -91.949923     -2502.0846
   1   2.0000     -11.263355      -306.4915
   2   2.0000     -11.226445      -305.4871
   3   2.0000      -8.951064      -243.5708
   4   2.0000      -6.632422      -180.4774
   5   2.0000      -6.631389      -180.4493
   6   2.0000      -6.630397      -180.4223
   7   2.0000      -1.070324       -29.1250
   8   2.0000      -0.942833       -25.6558
   9   2.0000      -0.822444       -22.3799
  10   2.0000      -0.636600       -17.3228
  11   2.0000      -0.591079       -16.0841
  12   2.0000      -0.555073       -15.1043
  13   2.0000      -0.523777       -14.2527
  14   2.0000      -0.497073       -13.5261
  15   2.0000      -0.445791       -12.1306
  16   2.0000      -0.355572        -9.6756
  17   0.0000       0.029643         0.8066
  18   0.0000       0.038986         1.0609
  19   0.0000       0.042210         1.1486
  20   0.0000       0.045443         1.2366
  21   0.0000       0.062547         1.7020

MULLIKEN ATOMIC CHARGES
-----------------------
   0 C :   -0.910022
   1 C :   -0.378573
   2 H :    0.314897
   3 H :    0.287140
   4 H :    0.298047
   5 S :   -0.316949
   6 H :    0.261289
   7 H :    0.308901
   8 H :    0.135270
Sum of atomic charges:   -0.0000000

LOEWDIN ATOMIC CHARGES
----------------------
   0 C :    0.489513
   1 C :   -0.140810
   2 H :   -0.188125
   3 H :   -0.178498
   4 H :   -0.188085
   5 S :    1.256759
   6 H :   -0.228949
   7 H :   -0.240105
   8 H :   -0.581699

  Mayer bond orders larger than 0.100000
B(  0-C ,  1-C ) :   0.9086 B(  0-C ,  2-H ) :   0.9231 B(  0-C ,  3-H ) :   0.9299
B(  0-C ,  4-H ) :   0.9293 B(  1-C ,  5-S ) :   0.9968 B(  1-C ,  6-H ) :   0.9259
B(  1-C ,  7-H ) :   0.9077 B(  5-S ,  8-H ) :   1.0268

MP2 TOTAL ENERGY:     -477.354986188 Eh
FINAL SINGLE POINT ENERGY      -477.354986188277

DIPOLE MOMENT
-------------
                                X             Y             Z
Electronic contribution:      5.35623       0.23661      -0.80531
Nuclear contribution   :     -6.00797      -0.17279       1.08354
                        -----------------------------------------
Total Dipole Moment    :     -0.65173       0.06382       0.27824
                        -----------------------------------------
Magnitude (a.u.)       :      0.71151
Magnitude (Debye)      :      1.80852

Rotational constants in cm-1:     0.968210     0.175288     0.160827
Rotational constants in MHz : 29026.218245  5254.997492  4821.474179

                             ****ORCA TERMINATED NORMALLY****
TOTAL RUN TIME: 0 days 0 hours 0 minutes 22 seconds 619 msec
