                         Program Version 4.2.1 -  RELEASE  -
|  1> %pal
|  2>  nprocs 32
|  3> end
|  4> !RI-MP2 aug-cc-pVTZ aug-cc-pVTZ/C TightSCF
|  5> %maxcore 4500
|  6> *xyzfile 0 1  04_60P2.xyz
|  7>
|  8>
|  9>                          ****END OF INPUT****

CARTESIAN COORDINATES (ANGSTROEM)
---------------------------------
  C     -0.026229    1.224163   -0.003523
  C     -1.408339    1.194841   -0.009139
  C     -2.099813   -0.016837   -0.009300
  C     -1.365318   -1.200245   -0.009546
  C      0.019896   -1.181292   -0.004151
  C      0.697173    0.034245   -0.000294
  H      0.513510    2.162478   -0.004473
  H      0.580413   -2.106295   -0.005665
  H     -1.886386   -2.150813   -0.016084
  H     -1.964039    2.125823   -0.015338
  C     -3.602393   -0.039885    0.013708
  C      2.174894    0.112390    0.002812
  O      2.813764    1.133129    0.004269
  O      2.770951   -1.098746    0.004475
  H      3.724655   -0.940859    0.007046
  H     -3.991444   -0.992446   -0.347351
  H     -4.020048    0.757146   -0.603556
  H     -3.973600    0.105622    1.032064

 Total Charge           Charge          ....    0
 Multiplicity           Mult            ....    1
 Number of Electrons    NEL             ....   72
 Basis Dimension        Dim             ....  644

ORBITAL ENERGIES
----------------

  NO   OCC          E(Eh)            E(eV)
   0   2.0000     -20.610409      -560.8377
   1   2.0000     -20.543165      -559.0079
   2   2.0000     -11.385075      -309.8036
   3   2.0000     -11.260496      -306.4137
   4   2.0000     -11.252282      -306.1902
   5   2.0000     -11.249461      -306.1134
   6   2.0000     -11.247493      -306.0598
   7   2.0000     -11.238987      -305.8284
   8   2.0000     -11.238235      -305.8079
   9   2.0000     -11.235015      -305.7203
  10   2.0000      -1.465996       -39.8918
  11   2.0000      -1.359558       -36.9955
  12   2.0000      -1.174964       -31.9724
  13   2.0000      -1.073513       -29.2118
  14   2.0000      -1.029662       -28.0185
  15   2.0000      -0.967817       -26.3356
  16   2.0000      -0.872341       -23.7376
  17   2.0000      -0.844641       -22.9839
  18   2.0000      -0.794071       -21.6078
  19   2.0000      -0.726162       -19.7599
  20   2.0000      -0.703966       -19.1559
  21   2.0000      -0.651298       -17.7227
  22   2.0000      -0.646460       -17.5911
  23   2.0000      -0.634314       -17.2606
  24   2.0000      -0.629822       -17.1383
  25   2.0000      -0.599969       -16.3260
  26   2.0000      -0.588565       -16.0157
  27   2.0000      -0.578101       -15.7309
  28   2.0000      -0.551523       -15.0077
  29   2.0000      -0.516292       -14.0490
  30   2.0000      -0.508871       -13.8471
  31   2.0000      -0.498918       -13.5762
  32   2.0000      -0.481197       -13.0940
  33   2.0000      -0.453996       -12.3539
  34   2.0000      -0.349760        -9.5174
  35   2.0000      -0.343339        -9.3427
  36   0.0000       0.025758         0.7009
  37   0.0000       0.030826         0.8388
  38   0.0000       0.035148         0.9564
  39   0.0000       0.042701         1.1620
  40   0.0000       0.043270         1.1774

MULLIKEN ATOMIC CHARGES
-----------------------
   0 C :   -1.056981
   1 C :   -0.898573
   2 C :    1.420834
   3 C :   -1.054339
   4 C :   -0.627415
   5 C :    1.877055
   6 H :    0.263241
   7 H :    0.363390
   8 H :    0.208362
   9 H :    0.289699
  10 C :   -0.914710
  11 C :    0.395212
  12 O :   -0.915244
  13 O :   -0.468884
  14 H :    0.250908
  15 H :    0.271502
  16 H :    0.276498
  17 H :    0.319445
Sum of atomic charges:    0.0000000

LOEWDIN ATOMIC CHARGES
----------------------
   0 C :    0.212123
   1 C :    0.229913
   2 C :   -0.117024
   3 C :    0.228263
   4 C :    0.212927
   5 C :   -0.142022
   6 H :   -0.177735
   7 H :   -0.187404
   8 H :   -0.177566
   9 H :   -0.173862
  10 C :    0.586085
  11 C :   -0.813171
  12 O :    0.456841
  13 O :    0.835904
  14 H :   -0.469696
  15 H :   -0.174631
  16 H :   -0.169561
  17 H :   -0.159385

  Mayer bond orders larger than 0.100000
B(  0-C ,  1-C ) :   1.5072 B(  0-C ,  3-C ) :   0.1969 B(  0-C ,  4-C ) :  -0.2032
B(  0-C ,  5-C ) :   0.2382 B(  0-C ,  6-H ) :   1.0579 B(  0-C , 11-C ) :   0.2447
B(  1-C ,  2-C ) :   0.7882 B(  1-C ,  5-C ) :  -0.2268 B(  1-C ,  9-H ) :   1.0593
B(  2-C ,  3-C ) :   0.7059 B(  2-C , 10-C ) :   0.4403 B(  2-C , 11-C ) :   0.1062
B(  3-C ,  4-C ) :   1.4413 B(  3-C ,  5-C ) :  -0.2320 B(  3-C ,  8-H ) :   1.2266
B(  4-C ,  5-C ) :   0.3747 B(  4-C ,  7-H ) :   0.9558 B(  4-C , 11-C ) :   0.1829
B(  4-C , 13-O ) :  -0.1290 B( 10-C , 15-H ) :   0.9951 B( 10-C , 16-H ) :   1.0070
B( 10-C , 17-H ) :   0.9607 B( 11-C , 12-O ) :   1.1285 B( 11-C , 13-O ) :   0.9842
B( 13-O , 14-H ) :   0.9388

MP2 TOTAL ENERGY:     -459.292105264 Eh
FINAL SINGLE POINT ENERGY      -459.292105263541

DIPOLE MOMENT
-------------
                                X             Y             Z
Electronic contribution:      9.92330       0.41865      -0.03405
Nuclear contribution   :    -10.85435      -1.03172       0.04646
                        -----------------------------------------
Total Dipole Moment    :     -0.93105      -0.61307       0.01241
                        -----------------------------------------
Magnitude (a.u.)       :      1.11484
Magnitude (Debye)      :      2.83370

Rotational constants in cm-1:     0.128023     0.026411     0.021984
Rotational constants in MHz :  3838.042265   791.796385   659.070036

                             ****ORCA TERMINATED NORMALLY****
TOTAL RUN TIME: 0 days 0 hours 4 minutes 54 seconds 151 msec
