                         Program Version 4.2.1 -  RELEASE  -
|  1> %pal
|  2>  nprocs 32
|  3> end
|  4> !RI-MP2 aug-cc-pVTZ aug-cc-pVTZ/C TightSCF
|  5> %maxcore 4500
|  6> *xyzfile -1 1  05_17R1.xyz
|  7>
|  8>
|  9>                          ****END OF INPUT****

CARTESIAN COORDINATES (ANGSTROEM)
---------------------------------
  N      1.876473   -1.331038   -0.027182
  C      3.065767   -0.702625   -0.197296
  N      3.052487    0.699730   -0.197280
  C      1.948026    1.515967    0.000154
  C      0.761850    0.788771    0.213903
  C      0.792533   -0.585751    0.167493
  N     -0.433870   -1.259625    0.346111
  N     -0.443962    1.482052    0.501372
  C     -1.625479    0.853149    0.166885
  C     -1.628550   -0.562992    0.098165
  C     -2.821461   -1.213259   -0.183420
  C     -2.807075    1.547483   -0.052410
  C     -4.001220    0.876246   -0.312527
  C     -4.010220   -0.501631   -0.377671
  H     -4.927486   -1.040691   -0.582388
  H     -2.838414   -2.291905   -0.246938
  H     -2.787316    2.630878   -0.000746
  H     -4.912804    1.442389   -0.465610
  O      4.143784   -1.274005   -0.359699
  O      2.043505    2.754645   -0.011053
  H     -0.371557    2.472380    0.312533
  H      3.940680    1.156393   -0.338667
  C     -0.446591   -2.703339    0.312437
  H      0.557623   -3.048154    0.538206
  H     -0.726110   -3.090280   -0.676796
  H     -1.156304   -3.086090    1.051016

 Total Charge           Charge          ....   -1
 Multiplicity           Mult            ....    1
 Number of Electrons    NEL             ....  120
 Basis Dimension        Dim             ....  989

ORBITAL ENERGIES
----------------

  NO   OCC          E(Eh)            E(eV)
   0   2.0000     -20.369750      -554.2891
   1   2.0000     -20.354655      -553.8783
   2   2.0000     -15.474199      -421.0744
   3   2.0000     -15.452584      -420.4862
   4   2.0000     -15.451428      -420.4547
   5   2.0000     -15.384576      -418.6356
   6   2.0000     -11.219342      -305.2938
   7   2.0000     -11.204767      -304.8972
   8   2.0000     -11.193052      -304.5784
   9   2.0000     -11.173580      -304.0486
  10   2.0000     -11.172467      -304.0183
  11   2.0000     -11.143454      -303.2288
  12   2.0000     -11.132474      -302.9300
  13   2.0000     -11.130579      -302.8784
  14   2.0000     -11.126634      -302.7711
  15   2.0000     -11.124774      -302.7205
  16   2.0000     -11.097332      -301.9738
  17   2.0000      -1.244582       -33.8668
  18   2.0000      -1.215549       -33.0768
  19   2.0000      -1.188850       -32.3502
  20   2.0000      -1.119911       -30.4743
  21   2.0000      -1.099090       -29.9078
  22   2.0000      -1.048585       -28.5335
  23   2.0000      -1.022837       -27.8328
  24   2.0000      -0.913812       -24.8661
  25   2.0000      -0.909185       -24.7402
  26   2.0000      -0.876647       -23.8548
  27   2.0000      -0.814250       -22.1569
  28   2.0000      -0.759257       -20.6604
  29   2.0000      -0.724964       -19.7273
  30   2.0000      -0.699874       -19.0445
  31   2.0000      -0.678157       -18.4536
  32   2.0000      -0.631457       -17.1828
  33   2.0000      -0.600768       -16.3477
  34   2.0000      -0.579400       -15.7663
  35   2.0000      -0.561711       -15.2849
  36   2.0000      -0.540053       -14.6956
  37   2.0000      -0.529711       -14.4142
  38   2.0000      -0.522150       -14.2084
  39   2.0000      -0.505986       -13.7686
  40   2.0000      -0.494276       -13.4499
  41   2.0000      -0.483918       -13.1681
  42   2.0000      -0.473689       -12.8897
  43   2.0000      -0.460056       -12.5188
  44   2.0000      -0.453848       -12.3498
  45   2.0000      -0.445167       -12.1136
  46   2.0000      -0.433508       -11.7964
  47   2.0000      -0.410707       -11.1759
  48   2.0000      -0.397659       -10.8209
  49   2.0000      -0.394930       -10.7466
  50   2.0000      -0.371123       -10.0988
  51   2.0000      -0.352302        -9.5866
  52   2.0000      -0.308164        -8.3856
  53   2.0000      -0.289404        -7.8751
  54   2.0000      -0.283727        -7.7206
  55   2.0000      -0.272537        -7.4161
  56   2.0000      -0.269094        -7.3224
  57   2.0000      -0.225430        -6.1343
  58   2.0000      -0.189706        -5.1622
  59   2.0000      -0.118951        -3.2368
  60   0.0000       0.089570         2.4373
  61   0.0000       0.096837         2.6351
  62   0.0000       0.108446         2.9510
  63   0.0000       0.115085         3.1316
  64   0.0000       0.119408         3.2493

MULLIKEN ATOMIC CHARGES
-----------------------
   0 N :   -0.562409
   1 C :   -0.088312
   2 N :    0.206255
   3 C :   -0.184355
   4 C :    1.307438
   5 C :    0.332287
   6 N :    0.301439
   7 N :   -0.688142
   8 C :    1.397912
   9 C :    0.545092
  10 C :   -0.686289
  11 C :   -1.119354
  12 C :   -0.432605
  13 C :   -0.764501
  14 H :    0.491197
  15 H :    0.185121
  16 H :    0.341483
  17 H :    0.531083
  18 O :   -0.919481
  19 O :   -1.033894
  20 H :   -0.069588
  21 H :    0.121413
  22 C :   -1.210826
  23 H :    0.360469
  24 H :    0.322947
  25 H :    0.315619
Sum of atomic charges:   -1.0000000

LOEWDIN ATOMIC CHARGES
----------------------
   0 N :    0.365934
   1 C :   -0.930240
   2 N :    0.521965
   3 C :   -0.729932
   4 C :   -0.228585
   5 C :   -0.430153
   6 N :    0.278932
   7 N :    0.548863
   8 C :   -0.198242
   9 C :   -0.168071
  10 C :    0.206664
  11 C :    0.212140
  12 C :    0.154797
  13 C :    0.163448
  14 H :   -0.201505
  15 H :   -0.211358
  16 H :   -0.184742
  17 H :   -0.196674
  18 O :    0.337858
  19 O :    0.371141
  20 H :   -0.307418
  21 H :   -0.295810
  22 C :    0.457734
  23 H :   -0.219540
  24 H :   -0.151165
  25 H :   -0.166041

  Mayer bond orders larger than 0.100000
B(  0-N ,  1-C ) :   1.3819 B(  0-N ,  3-C ) :   0.1175 B(  0-N ,  4-C ) :  -0.2811
B(  0-N ,  5-C ) :   0.4194 B(  0-N ,  6-N ) :  -0.2227 B(  0-N , 18-O ) :  -0.2250
B(  1-C ,  2-N ) :   1.0042 B(  1-C ,  3-C ) :  -0.2529 B(  1-C ,  4-C ) :  -0.2129
B(  1-C ,  5-C ) :  -0.2500 B(  1-C , 18-O ) :   1.4630 B(  2-N ,  3-C ) :   0.9196
B(  2-N ,  4-C ) :  -0.2612 B(  2-N ,  5-C ) :   0.1071 B(  2-N , 18-O ) :  -0.1326
B(  2-N , 19-O ) :  -0.1722 B(  2-N , 21-H ) :   1.0625 B(  3-C ,  4-C ) :  -0.3736
B(  3-C ,  5-C ) :   0.8814 B(  3-C , 19-O ) :   0.8156 B(  4-C ,  5-C ) :   0.6925
B(  4-C ,  6-N ) :   0.2935 B(  4-C ,  7-N ) :   0.4703 B(  4-C ,  8-C ) :   0.1200
B(  4-C ,  9-C ) :   0.2748 B(  4-C , 10-C ) :   0.1146 B(  4-C , 19-O ) :   0.1704
B(  5-C ,  6-N ) :   0.4873 B(  5-C ,  7-N ) :  -0.1144 B(  5-C ,  9-C ) :  -0.3440
B(  5-C , 15-H ) :   0.1007 B(  5-C , 19-O ) :   0.1082 B(  6-N ,  7-N ) :  -0.1791
B(  6-N ,  8-C ) :  -0.1823 B(  6-N ,  9-C ) :   0.5180 B(  6-N , 10-C ) :  -0.6705
B(  6-N , 22-C ) :   1.1394 B(  7-N ,  8-C ) :   0.2376 B(  7-N , 11-C ) :   0.2199
B(  7-N , 20-H ) :   1.4024 B(  8-C ,  9-C ) :   0.8003 B(  8-C , 10-C ) :  -0.2749
B(  8-C , 11-C ) :   0.3419 B(  8-C , 13-C ) :   0.1404 B(  8-C , 20-H ) :  -0.2198
B(  9-C , 10-C ) :   1.0574 B(  9-C , 11-C ) :   0.1258 B(  9-C , 12-C ) :   0.1238
B(  9-C , 13-C ) :  -0.1913 B(  9-C , 15-H ) :  -0.2700 B(  9-C , 22-C ) :  -0.1928
B( 10-C , 13-C ) :   1.1239 B( 10-C , 14-H ) :  -0.1190 B( 10-C , 15-H ) :   1.3170
B( 10-C , 22-C ) :  -0.1384 B( 11-C , 12-C ) :   1.1644 B( 11-C , 16-H ) :   0.9435
B( 11-C , 17-H ) :  -0.1024 B( 12-C , 13-C ) :   1.1317 B( 12-C , 17-H ) :   0.5961
B( 13-C , 14-H ) :   0.6661 B( 22-C , 23-H ) :   0.9024 B( 22-C , 24-H ) :   0.9832
B( 22-C , 25-H ) :   0.9736

MP2 TOTAL ENERGY:     -792.731593909 Eh
FINAL SINGLE POINT ENERGY      -792.731593908984

DIPOLE MOMENT
-------------
                                X             Y             Z
Electronic contribution:      9.24464       4.50731       0.50582
Nuclear contribution   :    -12.77299      -4.71333      -0.40129
                        -----------------------------------------
Total Dipole Moment    :     -3.52835      -0.20602       0.10452
                        -----------------------------------------
Magnitude (a.u.)       :      3.53590
Magnitude (Debye)      :      8.98755

Rotational constants in cm-1:     0.033420     0.011704     0.008821
Rotational constants in MHz :  1001.894473   350.886592   264.444853

                             ****ORCA TERMINATED NORMALLY****
TOTAL RUN TIME: 0 days 0 hours 19 minutes 57 seconds 357 msec
