                         Program Version 4.2.1 -  RELEASE  -
|  1> %pal
|  2>  nprocs 32
|  3> end
|  4> !RI-MP2 aug-cc-pVTZ aug-cc-pVTZ/C TightSCF
|  5> %maxcore 4500
|  6> *xyzfile -1 1  09_24R.xyz
|  7>
|  8>
|  9>                          ****END OF INPUT****

CARTESIAN COORDINATES (ANGSTROEM)
---------------------------------
  C      3.021312   -0.098898   -0.262210
  C      2.232577    1.209891   -0.313972
  C      0.854298    1.088921   -0.977880
  H      2.806281    1.965911   -0.858749
  H      2.129673    1.588542    0.707947
  C     -0.079156    0.111825   -0.305121
  H      0.973022    0.800431   -2.026506
  H      0.370833    2.076841   -0.973185
  C     -0.702230   -0.833586   -1.007573
  C     -0.236328    0.298293    1.176968
  H      0.711399    0.098303    1.684973
  H     -1.005040   -0.340945    1.607698
  H     -0.499243    1.337745    1.399110
  C     -1.683228   -1.856397   -0.514404
  C     -3.150576   -1.472108   -0.812799
  H     -1.561119   -2.038120    0.555247
  H     -1.475900   -2.812379   -1.006257
  C     -3.643049   -0.330041    0.039612
  H     -3.789089   -2.348866   -0.651444
  H     -3.232966   -1.206904   -1.870319
  C     -3.639332    0.915143   -0.431499
  C     -3.995559    2.180956    0.284880
  H     -3.296241    1.051818   -1.454103
  H     -4.365750    2.011496    1.295533
  H     -4.761831    2.738944   -0.262567
  H     -3.120096    2.834132    0.357107
  C     -4.054562   -0.715890    1.433415
  H     -3.255510   -1.272997    1.930795
  H     -4.926839   -1.377596    1.403349
  H     -4.300344    0.138312    2.061791
  C      4.247754   -0.089078    0.604977
  H      3.284218   -0.362685   -1.331581
  H      2.349575   -0.902615    0.064878
  C      5.266410    0.890957    0.086939
  H      5.565545    0.663146   -0.980822
  H      6.191233    0.867461    0.674859
  H      4.915112    1.928298    0.089916
  C      4.849801   -1.467804    0.630860
  H      5.182503   -1.808804   -0.394689
  H      4.142288   -2.225189    0.989341
  H      5.738325   -1.523801    1.270885
  H     -0.498836   -0.873582   -2.076369

 Total Charge           Charge          ....   -1
 Multiplicity           Mult            ....    1
 Number of Electrons    NEL             ....  118
 Basis Dimension        Dim             .... 1311

ORBITAL ENERGIES
----------------

  NO   OCC          E(Eh)            E(eV)
   0   2.0000     -11.148633      -303.3697
   1   2.0000     -11.146502      -303.3117
   2   2.0000     -11.146027      -303.2988
   3   2.0000     -11.141103      -303.1648
   4   2.0000     -11.138497      -303.0939
   5   2.0000     -11.132055      -302.9186
   6   2.0000     -11.120164      -302.5951
   7   2.0000     -11.106966      -302.2359
   8   2.0000     -11.102461      -302.1133
   9   2.0000     -11.096721      -301.9571
  10   2.0000     -11.065062      -301.0957
  11   2.0000     -11.037314      -300.3406
  12   2.0000     -11.030434      -300.1534
  13   2.0000     -11.029945      -300.1401
  14   2.0000     -10.972218      -298.5692
  15   2.0000      -1.031840       -28.0778
  16   2.0000      -0.992823       -27.0161
  17   2.0000      -0.943303       -25.6686
  18   2.0000      -0.908351       -24.7175
  19   2.0000      -0.891178       -24.2502
  20   2.0000      -0.851690       -23.1757
  21   2.0000      -0.837461       -22.7885
  22   2.0000      -0.810522       -22.0554
  23   2.0000      -0.770696       -20.9717
  24   2.0000      -0.735017       -20.0008
  25   2.0000      -0.728960       -19.8360
  26   2.0000      -0.653639       -17.7864
  27   2.0000      -0.627562       -17.0768
  28   2.0000      -0.597526       -16.2595
  29   2.0000      -0.566877       -15.4255
  30   2.0000      -0.537555       -14.6276
  31   2.0000      -0.532552       -14.4915
  32   2.0000      -0.527492       -14.3538
  33   2.0000      -0.506306       -13.7773
  34   2.0000      -0.486234       -13.2311
  35   2.0000      -0.483748       -13.1634
  36   2.0000      -0.468016       -12.7354
  37   2.0000      -0.464780       -12.6473
  38   2.0000      -0.457116       -12.4387
  39   2.0000      -0.450236       -12.2515
  40   2.0000      -0.437220       -11.8974
  41   2.0000      -0.426923       -11.6172
  42   2.0000      -0.419217       -11.4075
  43   2.0000      -0.415507       -11.3065
  44   2.0000      -0.403622       -10.9831
  45   2.0000      -0.400083       -10.8868
  46   2.0000      -0.387570       -10.5463
  47   2.0000      -0.380698       -10.3593
  48   2.0000      -0.373817       -10.1721
  49   2.0000      -0.355212        -9.6658
  50   2.0000      -0.339404        -9.2356
  51   2.0000      -0.332378        -9.0445
  52   2.0000      -0.317593        -8.6421
  53   2.0000      -0.301949        -8.2164
  54   2.0000      -0.263425        -7.1682
  55   2.0000      -0.260570        -7.0905
  56   2.0000      -0.255777        -6.9600
  57   2.0000      -0.222786        -6.0623
  58   2.0000      -0.032944        -0.8964
  59   0.0000       0.081710         2.2234
  60   0.0000       0.086621         2.3571
  61   0.0000       0.091310         2.4847
  62   0.0000       0.103768         2.8237
  63   0.0000       0.105353         2.8668

MULLIKEN ATOMIC CHARGES
-----------------------
   0 C :   -0.315104
   1 C :   -0.327157
   2 C :   -1.045578
   3 H :    0.444493
   4 H :    0.068218
   5 C :    2.187630
   6 H :    0.063940
   7 H :    0.173607
   8 C :   -0.906621
   9 C :   -1.327454
  10 H :    0.089766
  11 H :    0.517279
  12 H :    0.203468
  13 C :   -0.316997
  14 C :   -0.719063
  15 H :   -0.041640
  16 H :    0.387396
  17 C :    0.981742
  18 H :    0.254207
  19 H :    0.120592
  20 C :   -0.408384
  21 C :   -0.899482
  22 H :    0.146299
  23 H :    0.341332
  24 H :    0.231027
  25 H :    0.262758
  26 C :   -1.075213
  27 H :    0.258942
  28 H :    0.232920
  29 H :    0.332043
  30 C :   -0.204024
  31 H :    0.067122
  32 H :    0.506562
  33 C :   -1.207436
  34 H :    0.117100
  35 H :    0.294423
  36 H :    0.253543
  37 C :   -1.297414
  38 H :    0.095524
  39 H :    0.203040
  40 H :    0.280655
  41 H :   -0.024060
Sum of atomic charges:   -1.0000000

LOEWDIN ATOMIC CHARGES
----------------------
   0 C :    0.135092
   1 C :    0.244199
   2 C :    0.265335
   3 H :   -0.160597
   4 H :   -0.170807
   5 C :   -0.094501
   6 H :   -0.162476
   7 H :   -0.145432
   8 C :    0.242723
   9 C :    0.584022
  10 H :   -0.166932
  11 H :   -0.202004
  12 H :   -0.152576
  13 C :    0.269724
  14 C :    0.267621
  15 H :   -0.180610
  16 H :   -0.148815
  17 C :   -0.105732
  18 H :   -0.149212
  19 H :   -0.156535
  20 C :    0.228151
  21 C :    0.560989
  22 H :   -0.180483
  23 H :   -0.202837
  24 H :   -0.177079
  25 H :   -0.170383
  26 C :    0.576650
  27 H :   -0.173911
  28 H :   -0.161126
  29 H :   -0.194164
  30 C :   -0.150094
  31 H :   -0.153658
  32 H :   -0.189615
  33 C :    0.411133
  34 H :   -0.194216
  35 H :   -0.213935
  36 H :   -0.222481
  37 C :    0.403932
  38 H :   -0.198287
  39 H :   -0.214071
  40 H :   -0.216280
  41 H :   -0.180723

  Mayer bond orders larger than 0.100000
B(  0-C ,  1-C ) :   0.8436 B(  0-C ,  2-C ) :   0.2030 B(  0-C ,  4-H ) :   0.1573
B(  0-C ,  5-C ) :  -0.2402 B(  0-C , 30-C ) :   1.1563 B(  0-C , 31-H ) :   0.9393
B(  0-C , 32-H ) :   0.9699 B(  1-C ,  2-C ) :   0.9462 B(  1-C ,  3-H ) :   0.7881
B(  1-C ,  4-H ) :   1.1182 B(  1-C ,  5-C ) :   0.1294 B(  1-C , 30-C ) :  -0.1929
B(  2-C ,  5-C ) :   0.5721 B(  2-C ,  6-H ) :   1.1721 B(  2-C ,  7-H ) :   1.0926
B(  2-C ,  8-C ) :   0.1350 B(  2-C ,  9-C ) :   0.2205 B(  5-C ,  7-H ) :  -0.1195
B(  5-C ,  8-C ) :   0.6802 B(  5-C , 11-H ) :   0.1246 B(  5-C , 12-H ) :  -0.1201
B(  5-C , 30-C ) :  -0.2216 B(  5-C , 41-H ) :  -0.1597 B(  8-C ,  9-C ) :   0.2250
B(  8-C , 13-C ) :   0.7739 B(  8-C , 16-H ) :  -0.1323 B(  8-C , 41-H ) :   1.4124
B(  9-C , 10-H ) :   1.1704 B(  9-C , 11-H ) :   0.7412 B(  9-C , 12-H ) :   1.1680
B( 10-H , 30-C ) :   0.1649 B( 13-C , 14-C ) :   0.9393 B( 13-C , 15-H ) :   1.1389
B( 13-C , 16-H ) :   0.9325 B( 13-C , 17-C ) :   0.1280 B( 14-C , 17-C ) :   1.1151
B( 14-C , 18-H ) :   1.0075 B( 14-C , 19-H ) :   1.1554 B( 14-C , 20-C ) :  -0.1409
B( 15-H , 41-H ) :   0.1115 B( 17-C , 20-C ) :   1.1256 B( 17-C , 21-C ) :   0.1467
B( 17-C , 22-H ) :  -0.1519 B( 17-C , 26-C ) :   0.5317 B( 17-C , 28-H ) :  -0.1019
B( 20-C , 21-C ) :   0.6450 B( 20-C , 22-H ) :   1.2204 B( 20-C , 24-H ) :  -0.1110
B( 20-C , 26-C ) :  -0.1849 B( 21-C , 23-H ) :   0.8495 B( 21-C , 24-H ) :   1.0948
B( 21-C , 25-H ) :   1.0095 B( 26-C , 27-H ) :   1.0740 B( 26-C , 28-H ) :   1.0915
B( 26-C , 29-H ) :   0.9092 B( 30-C , 31-H ) :   0.1676 B( 30-C , 32-H ) :  -0.2299
B( 30-C , 33-C ) :   0.8725 B( 30-C , 37-C ) :   1.0029 B( 33-C , 34-H ) :   0.9735
B( 33-C , 35-H ) :   0.9804 B( 33-C , 36-H ) :   0.9753 B( 33-C , 37-C ) :   0.1573
B( 37-C , 38-H ) :   0.9900 B( 37-C , 39-H ) :   1.0111 B( 37-C , 40-H ) :   1.0064

MP2 TOTAL ENERGY:     -586.471922551 Eh
FINAL SINGLE POINT ENERGY      -586.471922550561

DIPOLE MOMENT
-------------
                                X             Y             Z
Electronic contribution:    -11.62447      -0.82093      -2.84088
Nuclear contribution   :      4.52564       1.06688       2.33830
                        -----------------------------------------
Total Dipole Moment    :     -7.09884       0.24595      -0.50259
                        -----------------------------------------
Magnitude (a.u.)       :      7.12085
Magnitude (Debye)      :     18.09977

Rotational constants in cm-1:     0.039346     0.007133     0.006685
Rotational constants in MHz :  1179.570677   213.829837   200.410364

                             ****ORCA TERMINATED NORMALLY****
TOTAL RUN TIME: 0 days 0 hours 40 minutes 1 seconds 724 msec
