                         Program Version 4.2.1 -  RELEASE  -
|  1> %pal
|  2>  nprocs 32
|  3> end
|  4> !RI-MP2 aug-cc-pVTZ aug-cc-pVTZ/C TightSCF
|  5> %maxcore 4500
|  6> *xyzfile 1 1  05_23TS.xyz
|  7>
|  8>
|  9>                          ****END OF INPUT****

CARTESIAN COORDINATES (ANGSTROEM)
---------------------------------
  C      1.523049   -1.809286   -0.535382
  C      0.920126   -0.527359    1.708369
  C      2.079999    0.423544    1.407451
  C      3.196348   -0.177355    0.550293
  C      2.653791   -0.798989   -0.738508
  H      1.697472    1.304603    0.893618
  H      2.496918    0.758789    2.359312
  H      3.718409   -0.944141    1.126545
  H      2.303628    0.007148   -1.382426
  H      3.466093   -1.304136   -1.264995
  N      0.531763   -1.212176    0.425430
  O     -0.675817   -1.562324    0.305284
  C      0.826377   -2.080939   -1.865271
  H      0.069425   -2.858471   -1.771335
  H      0.362966   -1.189098   -2.282448
  H      1.580220   -2.426950   -2.572561
  C      2.029461   -3.148236    0.025459
  H      1.195750   -3.781289    0.331575
  H      2.572195   -3.664899   -0.766985
  H      2.707836   -3.032780    0.866510
  C     -0.275487    0.265530    2.230206
  H      0.047653    0.812524    3.115940
  H     -0.634223    0.995992    1.508035
  H     -1.101464   -0.383882    2.515260
  C      1.288730   -1.588148    2.757395
  H      1.358382   -1.096099    3.728337
  H      0.516046   -2.355158    2.822615
  H      2.243597   -2.069598    2.564327
  C     -1.858326    0.195917   -1.090456
  H     -1.346325   -0.747194   -0.316104
  C     -3.041811    0.586283   -0.254587
  C     -3.717203   -0.344260    0.533523
  C     -3.482090    1.909760   -0.282624
  C     -4.819172    0.040842    1.279710
  H     -3.374012   -1.370935    0.579660
  C     -4.593463    2.287980    0.454912
  H     -2.971944    2.641804   -0.896220
  C     -5.260015    1.356873    1.239061
  H     -5.333929   -0.686443    1.894637
  H     -4.937538    3.313855    0.417127
  H     -6.122900    1.657149    1.820116
  O     -2.063313   -0.427636   -2.271793
  C     -3.205032   -1.268876   -2.461167
  H     -3.130731   -2.159142   -1.834054
  H     -4.124883   -0.729513   -2.237738
  H     -3.179568   -1.555280   -3.508499
  C     -0.671114    1.092049   -1.160729
  H     -0.416693    1.325079   -2.193334
  H     -0.802614    2.004124   -0.584501
  H      0.216361    0.591066   -0.730132
  N      4.201702    0.834840    0.242822
  C      3.938829    1.967643   -0.470178
  C      5.105104    2.893598   -0.694651
  H      6.033104    2.548188   -0.239321
  H      5.254211    3.009017   -1.768652
  H      4.851454    3.874859   -0.292877
  H      5.141613    0.686533    0.569973
  O      2.824208    2.215736   -0.901753

 Total Charge           Charge          ....    1
 Multiplicity           Mult            ....    1
 Number of Electrons    NEL             ....  190
 Basis Dimension        Dim             .... 1909

ORBITAL ENERGIES
----------------

  NO   OCC          E(Eh)            E(eV)
   0   2.0000     -20.820779      -566.5622
   1   2.0000     -20.719653      -563.8104
   2   2.0000     -20.611592      -560.8699
   3   2.0000     -15.823763      -430.5865
   4   2.0000     -15.687286      -426.8728
   5   2.0000     -11.473305      -312.2045
   6   2.0000     -11.446884      -311.4855
   7   2.0000     -11.413466      -310.5762
   8   2.0000     -11.412667      -310.5545
   9   2.0000     -11.393122      -310.0226
  10   2.0000     -11.388745      -309.9035
  11   2.0000     -11.365815      -309.2795
  12   2.0000     -11.353245      -308.9375
  13   2.0000     -11.352816      -308.9258
  14   2.0000     -11.350750      -308.8696
  15   2.0000     -11.344320      -308.6946
  16   2.0000     -11.342633      -308.6487
  17   2.0000     -11.341599      -308.6206
  18   2.0000     -11.338302      -308.5309
  19   2.0000     -11.338279      -308.5302
  20   2.0000     -11.338033      -308.5236
  21   2.0000     -11.337953      -308.5214
  22   2.0000     -11.335581      -308.4568
  23   2.0000     -11.332915      -308.3843
  24   2.0000     -11.320585      -308.0488
  25   2.0000      -1.659199       -45.1491
  26   2.0000      -1.546847       -42.0919
  27   2.0000      -1.480914       -40.2977
  28   2.0000      -1.343231       -36.5512
  29   2.0000      -1.308807       -35.6145
  30   2.0000      -1.277976       -34.7755
  31   2.0000      -1.233301       -33.5598
  32   2.0000      -1.199402       -32.6374
  33   2.0000      -1.165380       -31.7116
  34   2.0000      -1.133944       -30.8562
  35   2.0000      -1.126605       -30.6565
  36   2.0000      -1.120851       -30.4999
  37   2.0000      -1.083762       -29.4907
  38   2.0000      -1.070249       -29.1230
  39   2.0000      -1.059069       -28.8187
  40   2.0000      -1.056197       -28.7406
  41   2.0000      -1.055689       -28.7268
  42   2.0000      -0.990390       -26.9499
  43   2.0000      -0.970597       -26.4113
  44   2.0000      -0.952705       -25.9244
  45   2.0000      -0.946369       -25.7520
  46   2.0000      -0.917900       -24.9773
  47   2.0000      -0.891096       -24.2480
  48   2.0000      -0.873649       -23.7732
  49   2.0000      -0.851987       -23.1838
  50   2.0000      -0.831128       -22.6161
  51   2.0000      -0.817275       -22.2392
  52   2.0000      -0.814620       -22.1669
  53   2.0000      -0.795637       -21.6504
  54   2.0000      -0.785097       -21.3636
  55   2.0000      -0.783976       -21.3331
  56   2.0000      -0.773366       -21.0443
  57   2.0000      -0.752041       -20.4641
  58   2.0000      -0.742023       -20.1915
  59   2.0000      -0.737834       -20.0775
  60   2.0000      -0.732008       -19.9189
  61   2.0000      -0.729292       -19.8450
  62   2.0000      -0.714125       -19.4323
  63   2.0000      -0.710263       -19.3272
  64   2.0000      -0.705787       -19.2054
  65   2.0000      -0.701551       -19.0902
  66   2.0000      -0.694871       -18.9084
  67   2.0000      -0.692132       -18.8339
  68   2.0000      -0.688160       -18.7258
  69   2.0000      -0.680019       -18.5043
  70   2.0000      -0.678238       -18.4558
  71   2.0000      -0.673388       -18.3238
  72   2.0000      -0.666620       -18.1397
  73   2.0000      -0.659816       -17.9545
  74   2.0000      -0.650140       -17.6912
  75   2.0000      -0.646257       -17.5855
  76   2.0000      -0.645553       -17.5664
  77   2.0000      -0.641928       -17.4677
  78   2.0000      -0.638531       -17.3753
  79   2.0000      -0.637515       -17.3477
  80   2.0000      -0.622301       -16.9337
  81   2.0000      -0.616867       -16.7858
  82   2.0000      -0.614588       -16.7238
  83   2.0000      -0.607109       -16.5203
  84   2.0000      -0.604905       -16.4603
  85   2.0000      -0.603048       -16.4098
  86   2.0000      -0.594037       -16.1646
  87   2.0000      -0.589852       -16.0507
  88   2.0000      -0.579080       -15.7576
  89   2.0000      -0.576933       -15.6992
  90   2.0000      -0.515093       -14.0164
  91   2.0000      -0.494758       -13.4630
  92   2.0000      -0.475143       -12.9293
  93   2.0000      -0.451018       -12.2728
  94   2.0000      -0.444212       -12.0876
  95   0.0000      -0.129259        -3.5173
  96   0.0000      -0.054482        -1.4825
  97   0.0000      -0.048177        -1.3110
  98   0.0000      -0.044138        -1.2011
  99   0.0000      -0.042439        -1.1548

MULLIKEN ATOMIC CHARGES
-----------------------
   0 C :    1.754117
   1 C :    2.227214
   2 C :   -0.833229
   3 C :    0.823916
   4 C :   -0.737521
   5 H :    0.323810
   6 H :    0.443057
   7 H :    0.209685
   8 H :    0.208513
   9 H :    0.454111
  10 N :    2.252879
  11 O :   -1.654613
  12 C :   -1.650778
  13 H :    0.158393
  14 H :    0.302655
  15 H :    0.046865
  16 C :   -1.652630
  17 H :    0.122845
  18 H :    0.099362
  19 H :    0.309444
  20 C :   -1.769461
  21 H :   -0.015229
  22 H :    0.467885
  23 H :    0.250237
  24 C :   -1.725563
  25 H :    0.090679
  26 H :    0.138878
  27 H :    0.307877
  28 C :    1.535891
  29 H :    0.481022
  30 C :    1.634014
  31 C :   -0.146280
  32 C :   -1.203651
  33 C :   -1.170136
  34 H :    0.265895
  35 C :   -0.769104
  36 H :   -0.036425
  37 C :   -0.053249
  38 H :    0.369006
  39 H :    0.485507
  40 H :    0.720834
  41 O :   -0.970788
  42 C :   -1.127480
  43 H :    0.398033
  44 H :    0.464759
  45 H :    0.314873
  46 C :   -0.974670
  47 H :    0.003616
  48 H :    0.143442
  49 H :    0.680267
  50 N :   -0.641904
  51 C :    0.853740
  52 C :   -0.997536
  53 H :    0.280493
  54 H :    0.328327
  55 H :    0.329686
  56 H :   -0.073999
  57 O :   -1.077583
Sum of atomic charges:    1.0000000

LOEWDIN ATOMIC CHARGES
----------------------
   0 C :   -0.353309
   1 C :   -0.349799
   2 C :    0.334217
   3 C :   -0.050883
   4 C :    0.334157
   5 H :   -0.189168
   6 H :   -0.110750
   7 H :   -0.127935
   8 H :   -0.186912
   9 H :   -0.110824
  10 N :    0.113180
  11 O :    0.761307
  12 C :    0.610539
  13 H :   -0.147558
  14 H :   -0.184168
  15 H :   -0.136395
  16 C :    0.632010
  17 H :   -0.138000
  18 H :   -0.140366
  19 H :   -0.187083
  20 C :    0.613754
  21 H :   -0.134551
  22 H :   -0.178753
  23 H :   -0.148880
  24 C :    0.632507
  25 H :   -0.140508
  26 H :   -0.137701
  27 H :   -0.186505
  28 C :   -0.308804
  29 H :   -0.547056
  30 C :   -0.100705
  31 C :    0.210259
  32 C :    0.237905
  33 C :    0.231368
  34 H :   -0.169843
  35 C :    0.233251
  36 H :   -0.165332
  37 C :    0.228127
  38 H :   -0.169684
  39 H :   -0.168453
  40 H :   -0.166732
  41 O :    0.640235
  42 C :    0.414174
  43 H :   -0.162119
  44 H :   -0.170670
  45 H :   -0.163689
  46 C :    0.628015
  47 H :   -0.118987
  48 H :   -0.148827
  49 H :   -0.235329
  50 N :    0.603420
  51 C :   -0.649832
  52 C :    0.617055
  53 H :   -0.177149
  54 H :   -0.163120
  55 H :   -0.163705
  56 H :   -0.273655
  57 O :    0.488258

  Mayer bond orders larger than 0.100000
B(  0-C ,  1-C ) :  -0.1722 B(  0-C ,  2-C ) :   0.1787 B(  0-C ,  3-C ) :  -0.1563
B(  0-C ,  4-C ) :   0.3582 B(  0-C , 10-N ) :   0.6700 B(  0-C , 11-O ) :   0.2462
B(  0-C , 12-C ) :  -0.1095 B(  0-C , 15-H ) :  -0.2407 B(  0-C , 16-C ) :  -0.2392
B(  0-C , 17-H ) :  -0.1186 B(  0-C , 18-H ) :  -0.2892 B(  0-C , 19-H ) :  -0.1131
B(  0-C , 29-H ) :  -0.1401 B(  0-C , 49-H ) :   0.1694 B(  1-C ,  2-C ) :   0.2876
B(  1-C ,  3-C ) :  -0.1336 B(  1-C ,  4-C ) :   0.1659 B(  1-C , 10-N ) :   1.1310
B(  1-C , 20-C ) :  -0.3134 B(  1-C , 21-H ) :  -0.2577 B(  1-C , 24-C ) :  -0.4710
B(  1-C , 25-H ) :  -0.3361 B(  1-C , 26-H ) :  -0.1914 B(  1-C , 27-H ) :  -0.1354
B(  1-C , 29-H ) :  -0.1562 B(  2-C ,  3-C ) :   0.9263 B(  2-C ,  4-C ) :  -0.1180
B(  2-C ,  5-H ) :   1.1411 B(  2-C ,  6-H ) :   0.6232 B(  2-C ,  7-H ) :   0.1483
B(  2-C , 10-N ) :   0.2112 B(  2-C , 20-C ) :   0.1323 B(  2-C , 50-N ) :   0.2636
B(  3-C ,  4-C ) :   0.9100 B(  3-C ,  6-H ) :  -0.1134 B(  3-C ,  7-H ) :   0.7711
B(  3-C , 10-N ) :   0.3232 B(  3-C , 50-N ) :  -0.5327 B(  3-C , 51-C ) :  -0.5617
B(  4-C ,  7-H ) :   0.1378 B(  4-C ,  8-H ) :   1.2168 B(  4-C ,  9-H ) :   0.6166
B(  4-C , 10-N ) :   0.2008 B(  4-C , 50-N ) :   0.2420 B(  5-H , 57-O ) :  -0.1495
B(  7-H , 50-N ) :  -0.1810 B(  7-H , 51-C ) :   0.1492 B(  8-H , 57-O ) :  -0.1193
B( 10-N , 11-O ) :   0.1081 B( 10-N , 12-C ) :  -0.3116 B( 10-N , 13-H ) :  -0.2434
B( 10-N , 16-C ) :  -0.3414 B( 10-N , 17-H ) :  -0.3008 B( 10-N , 20-C ) :  -0.1038
B( 10-N , 24-C ) :  -0.2456 B( 10-N , 26-H ) :  -0.1957 B( 10-N , 28-C ) :   0.1453
B( 10-N , 29-H ) :   0.4663 B( 11-O , 12-C ) :   0.1519 B( 11-O , 13-H ) :   0.1401
B( 11-O , 16-C ) :   0.1740 B( 11-O , 17-H ) :   0.1433 B( 11-O , 24-C ) :   0.1669
B( 11-O , 28-C ) :   0.2149 B( 11-O , 29-H ) :  -0.4545 B( 12-C , 13-H ) :   1.2467
B( 12-C , 14-H ) :   0.9966 B( 12-C , 15-H ) :   1.4658 B( 12-C , 16-C ) :   0.1554
B( 12-C , 49-H ) :  -0.1669 B( 14-H , 41-O ) :   0.1139 B( 16-C , 17-H ) :   1.3431
B( 16-C , 18-H ) :   1.3904 B( 16-C , 19-H ) :   1.0978 B( 20-C , 21-H ) :   1.5553
B( 20-C , 22-H ) :   0.8873 B( 20-C , 23-H ) :   1.1424 B( 20-C , 24-C ) :   0.1804
B( 24-C , 25-H ) :   1.4251 B( 24-C , 26-H ) :   1.3293 B( 24-C , 27-H ) :   1.1028
B( 28-C , 29-H ) :   0.4900 B( 28-C , 30-C ) :   0.5417 B( 28-C , 32-C ) :   0.7877
B( 28-C , 33-C ) :   0.1264 B( 28-C , 34-H ) :  -0.2598 B( 28-C , 41-O ) :  -0.5640
B( 28-C , 42-C ) :  -0.1956 B( 28-C , 46-C ) :   0.3219 B( 28-C , 47-H ) :  -0.1201
B( 28-C , 48-H ) :  -0.1457 B( 28-C , 49-H ) :   0.3453 B( 29-H , 30-C ) :   0.3800
B( 29-H , 31-C ) :   0.1126 B( 29-H , 41-O ) :   0.3350 B( 30-C , 31-C ) :   0.9894
B( 30-C , 32-C ) :  -0.2204 B( 30-C , 36-H ) :  -0.2297 B( 30-C , 37-C ) :  -0.1535
B( 30-C , 39-H ) :  -0.1057 B( 30-C , 42-C ) :  -0.1522 B( 30-C , 46-C ) :  -0.1982
B( 30-C , 49-H ) :  -0.2733 B( 31-C , 32-C ) :  -0.6631 B( 31-C , 33-C ) :   1.7751
B( 31-C , 34-H ) :   0.9351 B( 31-C , 37-C ) :   0.2690 B( 31-C , 49-H ) :   0.1609
B( 32-C , 34-H ) :   0.3634 B( 32-C , 35-C ) :   1.5408 B( 32-C , 36-H ) :   1.8591
B( 32-C , 46-C ) :  -0.1630 B( 33-C , 34-H ) :  -0.1390 B( 33-C , 35-C ) :   0.1920
B( 33-C , 36-H ) :  -0.1192 B( 33-C , 37-C ) :   1.1506 B( 33-C , 38-H ) :   0.9271
B( 33-C , 40-H ) :  -0.1795 B( 34-H , 35-C ) :  -0.1368 B( 34-H , 36-H ) :   0.1377
B( 35-C , 37-C ) :   1.0322 B( 35-C , 39-H ) :   0.6874 B( 35-C , 40-H ) :  -0.1718
B( 37-C , 40-H ) :   0.4286 B( 41-O , 42-C ) :   1.2164 B( 41-O , 49-H ) :  -0.1123
B( 42-C , 43-H ) :   0.8722 B( 42-C , 44-H ) :   0.8167 B( 42-C , 45-H ) :   1.0115
B( 46-C , 47-H ) :   1.2917 B( 46-C , 48-H ) :   1.2238 B( 46-C , 49-H ) :   0.8146
B( 47-H , 49-H ) :  -0.1188 B( 50-N , 51-C ) :   1.2799 B( 50-N , 52-C ) :   0.1191
B( 50-N , 56-H ) :   1.2388 B( 51-C , 52-C ) :   0.3051 B( 51-C , 56-H ) :  -0.1458
B( 51-C , 57-O ) :   1.6000 B( 52-C , 53-H ) :   0.9949 B( 52-C , 54-H ) :   1.0170
B( 52-C , 55-H ) :   1.0179 B( 52-C , 57-O ) :  -0.1465

MP2 TOTAL ENERGY:    -1114.713118487 Eh
FINAL SINGLE POINT ENERGY     -1114.713118487161

DIPOLE MOMENT
-------------
                                X             Y             Z
Electronic contribution:    -10.26884       6.01118      -1.83950
Nuclear contribution   :     10.65953      -7.00287       2.49419
                        -----------------------------------------
Total Dipole Moment    :      0.39068      -0.99169       0.65469
                        -----------------------------------------
Magnitude (a.u.)       :      1.25088
Magnitude (Debye)      :      3.17949

Rotational constants in cm-1:     0.011256     0.004487     0.004234
Rotational constants in MHz :   337.458616   134.506398   126.926206

                             ****ORCA TERMINATED NORMALLY****
TOTAL RUN TIME: 0 days 3 hours 58 minutes 39 seconds 489 msec
