                         Program Version 4.2.1 -  RELEASE  -
|  1> %pal
|  2>  nprocs 32
|  3> end
|  4> !RI-MP2 aug-cc-pVTZ aug-cc-pVTZ/C TightSCF
|  5> %maxcore 4500
|  6> *xyzfile 0 1  01_46R2.xyz
|  7>
|  8>
|  9>                          ****END OF INPUT****

CARTESIAN COORDINATES (ANGSTROEM)
---------------------------------
  C      3.721433   -0.356417   -0.141190
  H      4.468336   -0.501599    0.634371
  H      3.442051    0.694290   -0.216972
  H      4.095557   -0.699005   -1.105408
  O      2.591216   -1.136035    0.262365
  C      1.537277   -1.089920   -0.557321
  O      1.525059   -0.459497   -1.584360
  C      0.378248   -1.892311   -0.070802
  C      0.482379   -2.720895    0.962328
  C     -0.901118   -1.672710   -0.812690
  H     -1.525899   -2.565175   -0.842514
  H     -0.729341   -1.303732   -1.821500
  S     -1.971055   -0.448826   -0.000401
  C     -0.919608    0.979802    0.172826
  C     -0.819143    1.873681   -0.882311
  C     -0.183007    1.133748    1.338168
  C      0.055694    2.942260   -0.770187
  H     -1.421204    1.729245   -1.769919
  C      0.690762    2.206603    1.437605
  H     -0.306757    0.426287    2.147290
  C      0.811229    3.104104    0.384480
  H      0.148299    3.649420   -1.584682
  H      1.271800    2.345152    2.340889
  H      1.494157    3.941170    0.466671
  O     -3.040577   -0.135220   -0.939614
  O     -2.272039   -0.951473    1.336120
  H     -0.373237   -3.288309    1.306616
  H      1.418963   -2.836400    1.490043

 Total Charge           Charge          ....    0
 Multiplicity           Mult            ....    1
 Number of Electrons    NEL             ....  126
 Basis Dimension        Dim             .... 1016

ORBITAL ENERGIES
----------------

  NO   OCC          E(Eh)            E(eV)
   0   2.0000     -92.177041     -2508.2648
   1   2.0000     -20.616562      -561.0052
   2   2.0000     -20.556782      -559.3785
   3   2.0000     -20.540348      -558.9313
   4   2.0000     -20.539856      -558.9179
   5   2.0000     -11.394362      -310.0564
   6   2.0000     -11.295865      -307.3761
   7   2.0000     -11.279564      -306.9325
   8   2.0000     -11.273812      -306.7760
   9   2.0000     -11.273259      -306.7610
  10   2.0000     -11.269447      -306.6573
  11   2.0000     -11.262794      -306.4762
  12   2.0000     -11.261649      -306.4451
  13   2.0000     -11.260622      -306.4171
  14   2.0000     -11.253919      -306.2347
  15   2.0000     -11.252330      -306.1915
  16   2.0000      -9.146639      -248.8927
  17   2.0000      -6.831134      -185.8846
  18   2.0000      -6.830809      -185.8758
  19   2.0000      -6.830740      -185.8739
  20   2.0000      -1.479962       -40.2718
  21   2.0000      -1.440419       -39.1958
  22   2.0000      -1.375903       -37.4402
  23   2.0000      -1.329948       -36.1897
  24   2.0000      -1.183979       -32.2177
  25   2.0000      -1.135392       -30.8956
  26   2.0000      -1.060253       -28.8509
  27   2.0000      -1.042247       -28.3610
  28   2.0000      -1.013707       -27.5844
  29   2.0000      -0.980160       -26.6715
  30   2.0000      -0.896144       -24.3853
  31   2.0000      -0.865694       -23.5567
  32   2.0000      -0.853450       -23.2236
  33   2.0000      -0.804571       -21.8935
  34   2.0000      -0.773411       -21.0456
  35   2.0000      -0.732438       -19.9306
  36   2.0000      -0.718335       -19.5469
  37   2.0000      -0.696383       -18.9495
  38   2.0000      -0.690033       -18.7768
  39   2.0000      -0.676657       -18.4128
  40   2.0000      -0.663109       -18.0441
  41   2.0000      -0.659191       -17.9375
  42   2.0000      -0.639871       -17.4118
  43   2.0000      -0.632204       -17.2032
  44   2.0000      -0.623710       -16.9720
  45   2.0000      -0.617933       -16.8148
  46   2.0000      -0.613191       -16.6858
  47   2.0000      -0.573811       -15.6142
  48   2.0000      -0.571980       -15.5644
  49   2.0000      -0.560855       -15.2617
  50   2.0000      -0.542334       -14.7576
  51   2.0000      -0.539212       -14.6727
  52   2.0000      -0.529190       -14.4000
  53   2.0000      -0.519533       -14.1372
  54   2.0000      -0.494027       -13.4431
  55   2.0000      -0.490889       -13.3578
  56   2.0000      -0.477028       -12.9806
  57   2.0000      -0.470857       -12.8127
  58   2.0000      -0.464684       -12.6447
  59   2.0000      -0.447907       -12.1882
  60   2.0000      -0.393046       -10.6953
  61   2.0000      -0.368411       -10.0250
  62   2.0000      -0.357952        -9.7404
  63   0.0000       0.019983         0.5438
  64   0.0000       0.027825         0.7572
  65   0.0000       0.031600         0.8599
  66   0.0000       0.033983         0.9247
  67   0.0000       0.041037         1.1167

MULLIKEN ATOMIC CHARGES
-----------------------
   0 C :   -0.990741
   1 H :    0.339280
   2 H :    0.481484
   3 H :    0.383376
   4 O :   -0.532829
   5 C :    1.030168
   6 O :   -1.089811
   7 C :    0.927972
   8 C :   -1.141069
   9 C :   -0.808022
  10 H :    0.334368
  11 H :    0.133255
  12 S :    2.189392
  13 C :    0.696422
  14 C :   -0.679673
  15 C :   -0.787436
  16 C :   -0.444296
  17 H :    0.407735
  18 C :   -0.372809
  19 H :    0.312543
  20 C :   -0.167092
  21 H :    0.448113
  22 H :    0.306461
  23 H :    0.473087
  24 O :   -1.136254
  25 O :   -1.142377
  26 H :    0.348787
  27 H :    0.479967
Sum of atomic charges:   -0.0000000

LOEWDIN ATOMIC CHARGES
----------------------
   0 C :    0.365324
   1 H :   -0.181478
   2 H :   -0.180028
   3 H :   -0.176132
   4 O :    0.571502
   5 C :   -0.860437
   6 O :    0.498040
   7 C :   -0.187822
   8 C :    0.571374
   9 C :    0.177095
  10 H :   -0.182494
  11 H :   -0.207612
  12 S :    0.292987
  13 C :   -0.254784
  14 C :    0.166883
  15 C :    0.156148
  16 C :    0.212635
  17 H :   -0.181805
  18 C :    0.207163
  19 H :   -0.190004
  20 C :    0.206718
  21 H :   -0.176474
  22 H :   -0.177764
  23 H :   -0.174314
  24 O :    0.045553
  25 O :    0.050982
  26 H :   -0.184211
  27 H :   -0.207046

  Mayer bond orders larger than 0.100000
B(  0-C ,  1-H ) :   0.9336 B(  0-C ,  2-H ) :   0.7652 B(  0-C ,  3-H ) :   0.8847
B(  0-C ,  4-O ) :   0.9403 B(  4-O ,  5-C ) :   0.7803 B(  5-C ,  6-O ) :   1.0382
B(  5-C ,  7-C ) :   0.6710 B(  6-O ,  7-C ) :  -0.2144 B(  7-C ,  8-C ) :   1.1633
B(  7-C ,  9-C ) :   1.1473 B(  7-C , 12-S ) :   0.2456 B(  8-C , 26-H ) :   0.9455
B(  8-C , 27-H ) :   0.8182 B(  9-C , 10-H ) :   0.8888 B(  9-C , 11-H ) :   1.0081
B(  9-C , 12-S ) :   0.9182 B(  9-C , 25-O ) :   0.1104 B( 11-H , 24-O ) :   0.1071
B( 12-S , 13-C ) :   1.0863 B( 12-S , 24-O ) :   0.7150 B( 12-S , 25-O ) :   0.8620
B( 13-C , 14-C ) :   0.7700 B( 13-C , 15-C ) :   0.8692 B( 13-C , 24-O ) :   0.2437
B( 13-C , 25-O ) :   0.1908 B( 14-C , 15-C ) :   0.2257 B( 14-C , 16-C ) :   1.2160
B( 14-C , 17-H ) :   0.8928 B( 14-C , 20-C ) :   0.1224 B( 15-C , 18-C ) :   1.2628
B( 15-C , 19-H ) :   0.9936 B( 15-C , 20-C ) :   0.1467 B( 16-C , 20-C ) :   1.1430
B( 16-C , 21-H ) :   0.8801 B( 18-C , 20-C ) :   1.1845 B( 18-C , 22-H ) :   1.1359
B( 20-C , 23-H ) :   0.8126

MP2 TOTAL ENERGY:    -1123.684863458 Eh
FINAL SINGLE POINT ENERGY     -1123.684863457673

DIPOLE MOMENT
-------------
                                X             Y             Z
Electronic contribution:     -9.40036      -1.43099      -0.70001
Nuclear contribution   :     11.84273       1.53926       1.01472
                        -----------------------------------------
Total Dipole Moment    :      2.44237       0.10827       0.31471
                        -----------------------------------------
Magnitude (a.u.)       :      2.46494
Magnitude (Debye)      :      6.26538

Rotational constants in cm-1:     0.020123     0.016885     0.011700
Rotational constants in MHz :   603.258196   506.189444   350.742221

                             ****ORCA TERMINATED NORMALLY****
TOTAL RUN TIME: 0 days 0 hours 24 minutes 38 seconds 187 msec
