                         Program Version 4.2.1 -  RELEASE  -
|  1> %pal
|  2>  nprocs 32
|  3> end
|  4> !RI-MP2 aug-cc-pVTZ aug-cc-pVTZ/C TightSCF
|  5> %maxcore 4500
|  6> *xyzfile 0 1  06_14TS.xyz
|  7>
|  8>
|  9>                          ****END OF INPUT****

CARTESIAN COORDINATES (ANGSTROEM)
---------------------------------
  C     -0.601337   -0.408195    1.119966
  H      0.209042   -0.720382    1.791008
  B     -0.131037   -0.235199   -0.375342
  C     -1.128162    0.947143    1.630747
  H     -0.267893    1.615715    1.737611
  H     -1.555106    0.833701    2.633984
  C     -1.651061   -1.543940    1.105724
  H     -1.126483   -2.477343    0.869793
  C      2.258439    3.112454   -0.000806
  H      1.722333    3.548001   -0.837319
  H      2.779067    3.794123    0.659072
  C      2.271249    1.799177    0.210649
  C      1.558383    0.823208   -0.607274
  H      2.821751    1.403274    1.058840
  H     -2.077176   -1.678097    2.106649
  H      1.115871    1.167836   -1.533407
  C      1.814776   -0.540760   -0.544766
  O      0.823100   -1.300680   -0.915320
  O      2.846830   -1.060403    0.081688
  C      2.794005   -2.459950    0.408188
  H      1.893666   -2.680365    0.979406
  H      2.809286   -3.059614   -0.500273
  H      3.683498   -2.647334    1.002570
  C     -2.792342   -1.359790    0.092072
  H     -3.324374   -2.310223   -0.013416
  H     -3.526814   -0.660349    0.490177
  C     -1.300269    0.253953   -1.304165
  H     -0.978940    0.396375   -2.342621
  C     -2.336101   -0.895090   -1.300793
  H     -1.884105   -1.746608   -1.821921
  H     -3.214972   -0.610397   -1.890385
  C     -1.824554    1.602285   -0.775295
  H     -2.704143    1.918721   -1.347354
  H     -1.053408    2.357510   -0.967068
  C     -2.164867    1.630294    0.723732
  H     -2.269010    2.673153    1.038376
  H     -3.145295    1.182224    0.884170

 Total Charge           Charge          ....    0
 Multiplicity           Mult            ....    1
 Number of Electrons    NEL             ....  120
 Basis Dimension        Dim             .... 1219

ORBITAL ENERGIES
----------------

  NO   OCC          E(Eh)            E(eV)
   0   2.0000     -20.630953      -561.3968
   1   2.0000     -20.586125      -560.1769
   2   2.0000     -11.405107      -310.3487
   3   2.0000     -11.305000      -307.6247
   4   2.0000     -11.238482      -305.8147
   5   2.0000     -11.225970      -305.4742
   6   2.0000     -11.217516      -305.2441
   7   2.0000     -11.207534      -304.9725
   8   2.0000     -11.206760      -304.9514
   9   2.0000     -11.205392      -304.9142
  10   2.0000     -11.204054      -304.8778
  11   2.0000     -11.202875      -304.8457
  12   2.0000     -11.201974      -304.8212
  13   2.0000     -11.184433      -304.3439
  14   2.0000     -11.182868      -304.3013
  15   2.0000      -7.602045      -206.8622
  16   2.0000      -1.496020       -40.7088
  17   2.0000      -1.402414       -38.1616
  18   2.0000      -1.103955       -30.0402
  19   2.0000      -1.093789       -29.7635
  20   2.0000      -1.029794       -28.0221
  21   2.0000      -1.018007       -27.7014
  22   2.0000      -1.016557       -27.6619
  23   2.0000      -0.960820       -26.1452
  24   2.0000      -0.920826       -25.0569
  25   2.0000      -0.902836       -24.5674
  26   2.0000      -0.820888       -22.3375
  27   2.0000      -0.792067       -21.5532
  28   2.0000      -0.781782       -21.2734
  29   2.0000      -0.776008       -21.1163
  30   2.0000      -0.743579       -20.2338
  31   2.0000      -0.718727       -19.5576
  32   2.0000      -0.713238       -19.4082
  33   2.0000      -0.696930       -18.9644
  34   2.0000      -0.660309       -17.9679
  35   2.0000      -0.635984       -17.3060
  36   2.0000      -0.622737       -16.9455
  37   2.0000      -0.618950       -16.8425
  38   2.0000      -0.608458       -16.5570
  39   2.0000      -0.584061       -15.8931
  40   2.0000      -0.574864       -15.6428
  41   2.0000      -0.571291       -15.5456
  42   2.0000      -0.565113       -15.3775
  43   2.0000      -0.552505       -15.0344
  44   2.0000      -0.545102       -14.8330
  45   2.0000      -0.541593       -14.7375
  46   2.0000      -0.529985       -14.4216
  47   2.0000      -0.515056       -14.0154
  48   2.0000      -0.497693       -13.5429
  49   2.0000      -0.491337       -13.3700
  50   2.0000      -0.489367       -13.3163
  51   2.0000      -0.470244       -12.7960
  52   2.0000      -0.461163       -12.5489
  53   2.0000      -0.453941       -12.3524
  54   2.0000      -0.446966       -12.1626
  55   2.0000      -0.431573       -11.7437
  56   2.0000      -0.411108       -11.1868
  57   2.0000      -0.406281       -11.0555
  58   2.0000      -0.369741       -10.0612
  59   2.0000      -0.308935        -8.4065
  60   0.0000       0.022268         0.6059
  61   0.0000       0.029557         0.8043
  62   0.0000       0.032011         0.8711
  63   0.0000       0.034103         0.9280
  64   0.0000       0.042841         1.1658

MULLIKEN ATOMIC CHARGES
-----------------------
   0 C :    0.760435
   1 H :    0.472382
   2 B :    1.812069
   3 C :   -0.997296
   4 H :    0.073320
   5 H :    0.210162
   6 C :   -1.056659
   7 H :    0.030387
   8 C :   -1.290963
   9 H :    0.252791
  10 H :    0.458548
  11 C :   -0.116894
  12 C :    0.327903
  13 H :    0.190126
  14 H :    0.208006
  15 H :    0.266125
  16 C :    0.629781
  17 O :   -1.136913
  18 O :   -0.727639
  19 C :   -1.013862
  20 H :    0.467932
  21 H :    0.361526
  22 H :    0.354481
  23 C :   -0.369010
  24 H :    0.370638
  25 H :    0.111451
  26 C :    0.397015
  27 H :    0.347645
  28 C :   -1.027521
  29 H :   -0.107441
  30 H :    0.282886
  31 C :   -0.904030
  32 H :    0.204643
  33 H :    0.048175
  34 C :   -0.383832
  35 H :    0.364619
  36 H :    0.129014
Sum of atomic charges:   -0.0000000

LOEWDIN ATOMIC CHARGES
----------------------
   0 C :    0.117331
   1 H :   -0.132504
   2 B :   -0.871504
   3 C :    0.325519
   4 H :   -0.146527
   5 H :   -0.130780
   6 C :    0.324933
   7 H :   -0.136183
   8 C :    0.528586
   9 H :   -0.216603
  10 H :   -0.227785
  11 C :    0.175225
  12 C :    0.192861
  13 H :   -0.181661
  14 H :   -0.131709
  15 H :   -0.177128
  16 C :   -0.674685
  17 O :    0.700481
  18 O :    0.631819
  19 C :    0.407590
  20 H :   -0.173663
  21 H :   -0.165816
  22 H :   -0.175056
  23 C :    0.326386
  24 H :   -0.135699
  25 H :   -0.178884
  26 C :    0.124224
  27 H :   -0.128431
  28 C :    0.329367
  29 H :   -0.132217
  30 H :   -0.131467
  31 C :    0.321818
  32 H :   -0.131035
  33 H :   -0.141520
  34 C :    0.328452
  35 H :   -0.135169
  36 H :   -0.178565

  Mayer bond orders larger than 0.100000
B(  0-C ,  1-H ) :   0.9667 B(  0-C ,  2-B ) :   1.1709 B(  0-C ,  3-C ) :   0.6154
B(  0-C ,  4-H ) :  -0.1146 B(  0-C ,  5-H ) :  -0.1007 B(  0-C ,  6-C ) :   0.6268
B(  0-C , 14-H ) :  -0.1192 B(  0-C , 17-O ) :  -0.2102 B(  0-C , 26-C ) :   0.1559
B(  0-C , 31-C ) :  -0.1229 B(  1-H ,  2-B ) :  -0.1779 B(  1-H ,  3-C ) :  -0.2304
B(  1-H ,  6-C ) :  -0.2740 B(  2-B , 15-H ) :   0.2661 B(  2-B , 16-C ) :   0.4615
B(  2-B , 17-O ) :  -1.1461 B(  2-B , 23-C ) :  -0.1207 B(  2-B , 25-H ) :  -0.1080
B(  2-B , 26-C ) :   1.2010 B(  2-B , 27-H ) :  -0.1232 B(  2-B , 28-C ) :  -0.1960
B(  2-B , 29-H ) :  -0.1622 B(  2-B , 31-C ) :   0.1383 B(  2-B , 34-C ) :  -0.1397
B(  3-C ,  4-H ) :   1.2605 B(  3-C ,  5-H ) :   1.0726 B(  3-C , 31-C ) :   0.1929
B(  3-C , 34-C ) :   0.8678 B(  6-C ,  7-H ) :   1.2522 B(  6-C , 14-H ) :   1.0764
B(  6-C , 23-C ) :   0.8802 B(  6-C , 25-H ) :   0.1104 B(  6-C , 28-C ) :   0.2235
B(  8-C ,  9-H ) :   1.1946 B(  8-C , 10-H ) :   0.7213 B(  8-C , 11-C ) :   0.9362
B(  8-C , 12-C ) :   0.2051 B( 11-C , 12-C ) :   0.5895 B( 11-C , 13-H ) :   1.1544
B( 11-C , 15-H ) :  -0.1710 B( 11-C , 16-C ) :   0.1058 B( 12-C , 15-H ) :   0.9796
B( 12-C , 16-C ) :   1.4130 B( 15-H , 16-C ) :  -0.1276 B( 16-C , 17-O ) :   1.0011
B( 16-C , 18-O ) :   0.4739 B( 18-O , 19-C ) :   0.9802 B( 19-C , 20-H ) :   0.7599
B( 19-C , 21-H ) :   0.8915 B( 19-C , 22-H ) :   0.9445 B( 23-C , 24-H ) :   0.8905
B( 23-C , 25-H ) :   1.1039 B( 23-C , 28-C ) :   0.8939 B( 24-H , 28-C ) :  -0.1035
B( 25-H , 28-C ) :   0.1367 B( 26-C , 27-H ) :   0.8301 B( 26-C , 28-C ) :   0.7436
B( 26-C , 31-C ) :   0.6842 B( 26-C , 32-H ) :  -0.1061 B( 27-H , 28-C ) :  -0.1792
B( 27-H , 31-C ) :  -0.1589 B( 28-C , 29-H ) :   1.4290 B( 28-C , 30-H ) :   0.9587
B( 31-C , 32-H ) :   1.0383 B( 31-C , 33-H ) :   1.2161 B( 31-C , 34-C ) :   0.9065
B( 34-C , 35-H ) :   0.8692 B( 34-C , 36-H ) :   1.1154

MP2 TOTAL ENERGY:     -681.939807753 Eh
FINAL SINGLE POINT ENERGY      -681.939807752853

DIPOLE MOMENT
-------------
                                X             Y             Z
Electronic contribution:     10.79660      -3.12117      -4.16709
Nuclear contribution   :    -10.16658       2.51071       4.38945
                        -----------------------------------------
Total Dipole Moment    :      0.63001      -0.61046       0.22236
                        -----------------------------------------
Magnitude (a.u.)       :      0.90500
Magnitude (Debye)      :      2.30033

Rotational constants in cm-1:     0.024057     0.015992     0.012158
Rotational constants in MHz :   721.199212   479.432028   364.499987

                             ****ORCA TERMINATED NORMALLY****
TOTAL RUN TIME: 0 days 0 hours 42 minutes 38 seconds 56 msec
