                         Program Version 4.2.1 -  RELEASE  -
|  1> %pal
|  2>  nprocs 32
|  3> end
|  4> !RI-MP2 aug-cc-pVTZ aug-cc-pVTZ/C TightSCF
|  5> %maxcore 4500
|  6> *xyzfile 0 1  02_40R1.xyz
|  7>
|  8>
|  9>                          ****END OF INPUT****

CARTESIAN COORDINATES (ANGSTROEM)
---------------------------------
  C      0.328236    0.031571   -0.684939
  C      0.204217    1.317206    0.079176
  C     -0.652414   -0.860385   -0.763571
  C     -1.948867   -0.656596   -0.083147
  O     -2.776958   -1.679638   -0.321638
  O     -2.238327    0.292913    0.599845
  O      0.687654    1.475449    1.174116
  O     -0.406519    2.259253   -0.614997
  C     -0.613594    3.504239    0.068240
  C     -4.063263   -1.596579    0.301328
  S      1.927449   -0.221347   -1.429420
  C      2.620581   -1.553613   -0.380608
  C      3.006648   -1.140877    1.033076
  O      1.903045   -0.981061    1.887698
  H     -1.094591    4.155098   -0.655855
  H      0.339147    3.919839    0.393326
  H     -1.258291    3.339888    0.930731
  H     -3.954534   -1.539296    1.383988
  H     -4.586288   -2.504354    0.014272
  H     -4.597910   -0.715337   -0.052326
  H      3.508163   -1.870881   -0.933398
  H      1.918411   -2.386831   -0.354745
  H      3.626222   -0.237647    0.999186
  H      3.615762   -1.945961    1.455200
  H      1.525629   -0.093355    1.783256
  H     -0.521318   -1.784741   -1.310440

 Total Charge           Charge          ....    0
 Multiplicity           Mult            ....    1
 Number of Electrons    NEL             ....  116
 Basis Dimension        Dim             ....  924

ORBITAL ENERGIES
----------------

  NO   OCC          E(Eh)            E(eV)
   0   2.0000     -91.974584     -2502.7557
   1   2.0000     -20.617291      -561.0250
   2   2.0000     -20.616778      -561.0110
   3   2.0000     -20.558937      -559.4371
   4   2.0000     -20.555040      -559.3311
   5   2.0000     -20.536739      -558.8331
   6   2.0000     -11.403232      -310.2977
   7   2.0000     -11.394794      -310.0681
   8   2.0000     -11.309001      -307.7336
   9   2.0000     -11.292973      -307.2974
  10   2.0000     -11.289780      -307.2105
  11   2.0000     -11.277696      -306.8817
  12   2.0000     -11.270166      -306.6768
  13   2.0000     -11.270053      -306.6737
  14   2.0000      -8.974796      -244.2166
  15   2.0000      -6.656120      -181.1222
  16   2.0000      -6.654943      -181.0902
  17   2.0000      -6.654089      -181.0670
  18   2.0000      -1.484216       -40.3876
  19   2.0000      -1.476966       -40.1903
  20   2.0000      -1.379842       -37.5474
  21   2.0000      -1.374601       -37.4048
  22   2.0000      -1.346986       -36.6534
  23   2.0000      -1.140840       -31.0438
  24   2.0000      -1.060479       -28.8571
  25   2.0000      -1.012541       -27.5526
  26   2.0000      -0.983040       -26.7499
  27   2.0000      -0.945141       -25.7186
  28   2.0000      -0.877349       -23.8739
  29   2.0000      -0.820159       -22.3177
  30   2.0000      -0.805597       -21.9214
  31   2.0000      -0.770919       -20.9778
  32   2.0000      -0.742003       -20.1909
  33   2.0000      -0.706103       -19.2140
  34   2.0000      -0.701952       -19.1011
  35   2.0000      -0.687628       -18.7113
  36   2.0000      -0.686489       -18.6803
  37   2.0000      -0.682171       -18.5628
  38   2.0000      -0.644459       -17.5366
  39   2.0000      -0.639396       -17.3988
  40   2.0000      -0.622016       -16.9259
  41   2.0000      -0.603062       -16.4102
  42   2.0000      -0.585187       -15.9238
  43   2.0000      -0.576536       -15.6883
  44   2.0000      -0.570043       -15.5117
  45   2.0000      -0.560958       -15.2644
  46   2.0000      -0.542209       -14.7543
  47   2.0000      -0.539495       -14.6804
  48   2.0000      -0.526684       -14.3318
  49   2.0000      -0.511773       -13.9261
  50   2.0000      -0.483177       -13.1479
  51   2.0000      -0.480306       -13.0698
  52   2.0000      -0.470287       -12.7971
  53   2.0000      -0.463156       -12.6031
  54   2.0000      -0.454881       -12.3779
  55   2.0000      -0.444234       -12.0882
  56   2.0000      -0.405802       -11.0424
  57   2.0000      -0.358609        -9.7582
  58   0.0000       0.026430         0.7192
  59   0.0000       0.030367         0.8263
  60   0.0000       0.032268         0.8781
  61   0.0000       0.040271         1.0958
  62   0.0000       0.044735         1.2173

MULLIKEN ATOMIC CHARGES
-----------------------
   0 C :    0.999518
   1 C :    0.991814
   2 C :   -0.590769
   3 C :    0.748109
   4 O :   -0.396651
   5 O :   -0.879207
   6 O :   -0.917857
   7 O :   -0.469588
   8 C :   -0.939774
   9 C :   -0.821831
  10 S :   -0.508225
  11 C :   -0.347270
  12 C :   -0.251274
  13 O :   -0.759862
  14 H :    0.368274
  15 H :    0.395234
  16 H :    0.391673
  17 H :    0.375409
  18 H :    0.376185
  19 H :    0.372472
  20 H :    0.292170
  21 H :    0.242166
  22 H :    0.346532
  23 H :    0.322007
  24 H :    0.349544
  25 H :    0.311202
Sum of atomic charges:   -0.0000000

LOEWDIN ATOMIC CHARGES
----------------------
   0 C :   -0.512409
   1 C :   -0.940387
   2 C :    0.131544
   3 C :   -0.855108
   4 O :    0.564888
   5 O :    0.488984
   6 O :    0.538385
   7 O :    0.572313
   8 C :    0.379508
   9 C :    0.364596
  10 S :    1.256248
  11 C :   -0.035220
  12 C :   -0.036436
  13 O :    0.828671
  14 H :   -0.180988
  15 H :   -0.179806
  16 H :   -0.171687
  17 H :   -0.178146
  18 H :   -0.184220
  19 H :   -0.178148
  20 H :   -0.228975
  21 H :   -0.219821
  22 H :   -0.165350
  23 H :   -0.168890
  24 H :   -0.686716
  25 H :   -0.202827

  Mayer bond orders larger than 0.100000
B(  0-C ,  1-C ) :   0.5388 B(  0-C ,  2-C ) :   1.5129 B(  0-C ,  3-C ) :   0.2603
B(  0-C ,  7-O ) :  -0.1491 B(  0-C , 10-S ) :   0.7634 B(  1-C ,  6-O ) :   1.1939
B(  1-C ,  7-O ) :   0.9498 B(  2-C ,  3-C ) :   0.7624 B(  2-C , 25-H ) :   1.0529
B(  3-C ,  4-O ) :   0.9857 B(  3-C ,  5-O ) :   1.4451 B(  4-O ,  9-C ) :   0.8642
B(  7-O ,  8-C ) :   0.9549 B(  8-C , 14-H ) :   0.8935 B(  8-C , 15-H ) :   0.8634
B(  8-C , 16-H ) :   0.8612 B(  9-C , 17-H ) :   0.8838 B(  9-C , 18-H ) :   0.8805
B(  9-C , 19-H ) :   0.8824 B( 10-S , 11-C ) :   0.8647 B( 10-S , 25-H ) :  -0.1230
B( 11-C , 12-C ) :   0.9478 B( 11-C , 20-H ) :   0.9047 B( 11-C , 21-H ) :   0.9305
B( 12-C , 13-O ) :   0.8225 B( 12-C , 22-H ) :   0.8966 B( 12-C , 23-H ) :   0.9527
B( 13-O , 24-H ) :   0.7142

MP2 TOTAL ENERGY:    -1084.747036340 Eh
FINAL SINGLE POINT ENERGY     -1084.747036339840

DIPOLE MOMENT
-------------
                                X             Y             Z
Electronic contribution:      1.11368       1.37820      -4.55393
Nuclear contribution   :     -1.56657      -1.61751       3.69980
                        -----------------------------------------
Total Dipole Moment    :     -0.45289      -0.23931      -0.85413
                        -----------------------------------------
Magnitude (a.u.)       :      0.99595
Magnitude (Debye)      :      2.53150

Rotational constants in cm-1:     0.023870     0.014754     0.011619
Rotational constants in MHz :   715.603847   442.324529   348.318913

                             ****ORCA TERMINATED NORMALLY****
TOTAL RUN TIME: 0 days 0 hours 13 minutes 27 seconds 468 msec
