                         Program Version 4.2.1 -  RELEASE  -
|  1> %pal
|  2>  nprocs 32
|  3> end
|  4> !RI-MP2 aug-cc-pVTZ aug-cc-pVTZ/C TightSCF
|  5> %maxcore 4500
|  6> *xyzfile -1 1  08_6R2.xyz
|  7>
|  8>
|  9>                          ****END OF INPUT****

CARTESIAN COORDINATES (ANGSTROEM)
---------------------------------
  N      1.590212    1.140865    0.000075
  C      2.248818   -0.020803    0.000069
  N      1.538125   -1.167479    0.000029
  C      0.265124   -0.710943    0.000012
  C      0.287456    0.718743    0.000013
  C     -0.931414    1.368044   -0.000029
  N     -2.073645    0.673788   -0.000066
  N     -0.880646   -1.410991   -0.000033
  C     -1.974226   -0.665114   -0.000066
  H     -2.920734   -1.201359   -0.000105
  H     -1.005957    2.453306   -0.000019
  H      3.333816   -0.044782    0.000102

 Total Charge           Charge          ....   -1
 Multiplicity           Mult            ....    1
 Number of Electrons    NEL             ....   62
 Basis Dimension        Dim             ....  483

ORBITAL ENERGIES
----------------

  NO   OCC          E(Eh)            E(eV)
   0   2.0000     -15.403207      -419.1426
   1   2.0000     -15.400927      -419.0805
   2   2.0000     -15.373776      -418.3417
   3   2.0000     -15.367232      -418.1636
   4   2.0000     -11.143013      -303.2168
   5   2.0000     -11.125179      -302.7315
   6   2.0000     -11.124759      -302.7201
   7   2.0000     -11.123843      -302.6952
   8   2.0000     -11.084356      -301.6207
   9   2.0000      -1.165732       -31.7212
  10   2.0000      -1.114300       -30.3216
  11   2.0000      -1.029593       -28.0166
  12   2.0000      -0.957972       -26.0677
  13   2.0000      -0.863380       -23.4938
  14   2.0000      -0.722274       -19.6541
  15   2.0000      -0.693310       -18.8659
  16   2.0000      -0.625732       -17.0270
  17   2.0000      -0.555986       -15.1292
  18   2.0000      -0.522435       -14.2162
  19   2.0000      -0.469632       -12.7793
  20   2.0000      -0.440824       -11.9954
  21   2.0000      -0.439501       -11.9594
  22   2.0000      -0.401788       -10.9332
  23   2.0000      -0.357090        -9.7169
  24   2.0000      -0.343329        -9.3425
  25   2.0000      -0.289174        -7.8688
  26   2.0000      -0.282830        -7.6962
  27   2.0000      -0.258739        -7.0407
  28   2.0000      -0.233494        -6.3537
  29   2.0000      -0.174337        -4.7439
  30   2.0000      -0.146289        -3.9807
  31   0.0000       0.115584         3.1452
  32   0.0000       0.121411         3.3038
  33   0.0000       0.121808         3.3146
  34   0.0000       0.172590         4.6964
  35   0.0000       0.172809         4.7024

MULLIKEN ATOMIC CHARGES
-----------------------
   0 N :   -0.776221
   1 C :   -0.909342
   2 N :   -0.541088
   3 C :    0.550413
   4 C :    1.092373
   5 C :   -0.594086
   6 N :   -0.464448
   7 N :   -0.398464
   8 C :   -0.696625
   9 H :    0.570037
  10 H :    0.553167
  11 H :    0.614286
Sum of atomic charges:   -1.0000000

LOEWDIN ATOMIC CHARGES
----------------------
   0 N :    0.310492
   1 C :   -0.291275
   2 N :    0.321575
   3 C :   -0.612367
   4 C :   -0.420387
   5 C :   -0.023892
   6 N :    0.300595
   7 N :    0.346584
   8 C :   -0.259340
   9 H :   -0.239447
  10 H :   -0.204691
  11 H :   -0.227846

  Mayer bond orders larger than 0.100000
B(  0-N ,  1-C ) :   1.7370 B(  0-N ,  4-C ) :   0.4354 B(  0-N ,  5-C ) :  -0.1491
B(  1-C ,  2-N ) :   1.3782 B(  1-C ,  3-C ) :  -0.4448 B(  1-C ,  4-C ) :  -0.2967
B(  1-C , 11-H ) :   0.5681 B(  2-N ,  3-C ) :   0.4743 B(  2-N ,  7-N ) :  -0.2070
B(  3-C ,  4-C ) :   1.2572 B(  3-C ,  5-C ) :   0.5567 B(  3-C ,  7-N ) :   0.7999
B(  3-C ,  8-C ) :  -0.2795 B(  4-C ,  5-C ) :   0.3940 B(  4-C ,  6-N ) :  -0.1700
B(  5-C ,  6-N ) :   0.9771 B(  5-C ,  8-C ) :  -0.1608 B(  5-C , 10-H ) :   0.5835
B(  6-N ,  8-C ) :   1.4015 B(  7-N ,  8-C ) :   1.4245 B(  8-C ,  9-H ) :   0.5927

MP2 TOTAL ENERGY:     -410.661367610 Eh
FINAL SINGLE POINT ENERGY      -410.661367610123

DIPOLE MOMENT
-------------
                                X             Y             Z
Electronic contribution:      0.16116      -0.66696       0.00001
Nuclear contribution   :     -0.56927       1.15679      -0.00002
                        -----------------------------------------
Total Dipole Moment    :     -0.40811       0.48983      -0.00001
                        -----------------------------------------
Magnitude (a.u.)       :      0.63757
Magnitude (Debye)      :      1.62056

Rotational constants in cm-1:     0.141484     0.060144     0.042204
Rotational constants in MHz :  4241.592925  1803.071483  1265.230744

                             ****ORCA TERMINATED NORMALLY****
TOTAL RUN TIME: 0 days 0 hours 1 minutes 55 seconds 989 msec
