                         Program Version 4.2.1 -  RELEASE  -
|  1> %pal
|  2>  nprocs 32
|  3> end
|  4> !RI-MP2 aug-cc-pVTZ aug-cc-pVTZ/C TightSCF
|  5> %maxcore 4500
|  6> *xyzfile 1 1  05_12P1.xyz
|  7>
|  8>
|  9>                          ****END OF INPUT****

CARTESIAN COORDINATES (ANGSTROEM)
---------------------------------
  C      1.560016   -0.361684    0.000038
  C      1.255429    0.994148    0.000024
  C      0.005484    1.601364    0.000013
  C      0.689874   -1.445158    0.000021
  C     -1.248593    1.002726   -0.000014
  C     -0.699753   -1.440400   -0.000029
  C     -1.562457   -0.350997   -0.000053
  H      2.616825   -0.606705    0.000059
  H      2.105901    1.667628    0.000026
  H      0.009203    2.686199    0.000024
  H      1.157210   -2.424176    0.000041
  H     -2.094431    1.682018   -0.000012
  H     -1.173784   -2.416194   -0.000046
  H     -2.620920   -0.588770   -0.000093

 Total Charge           Charge          ....    1
 Multiplicity           Mult            ....    1
 Number of Electrons    NEL             ....   48
 Basis Dimension        Dim             ....  483

ORBITAL ENERGIES
----------------

  NO   OCC          E(Eh)            E(eV)
   0   2.0000     -11.462223      -311.9030
   1   2.0000     -11.461780      -311.8909
   2   2.0000     -11.461780      -311.8909
   3   2.0000     -11.460718      -311.8620
   4   2.0000     -11.460717      -311.8620
   5   2.0000     -11.459869      -311.8389
   6   2.0000     -11.459869      -311.8389
   7   2.0000      -1.355510       -36.8853
   8   2.0000      -1.265332       -34.4314
   9   2.0000      -1.265329       -34.4313
  10   2.0000      -1.105115       -30.0717
  11   2.0000      -1.105113       -30.0717
  12   2.0000      -0.931456       -25.3462
  13   2.0000      -0.931455       -25.3462
  14   2.0000      -0.916496       -24.9391
  15   2.0000      -0.826169       -22.4812
  16   2.0000      -0.826165       -22.4811
  17   2.0000      -0.758136       -20.6299
  18   2.0000      -0.758135       -20.6299
  19   2.0000      -0.703344       -19.1390
  20   2.0000      -0.703343       -19.1389
  21   2.0000      -0.698921       -19.0186
  22   2.0000      -0.569096       -15.4859
  23   2.0000      -0.569093       -15.4858
  24   0.0000      -0.154408        -4.2016
  25   0.0000      -0.154406        -4.2016
  26   0.0000      -0.084768        -2.3067
  27   0.0000      -0.067601        -1.8395
  28   0.0000      -0.067601        -1.8395

MULLIKEN ATOMIC CHARGES
-----------------------
   0 C :   -0.219141
   1 C :   -0.219166
   2 C :   -0.219111
   3 C :   -0.219150
   4 C :   -0.219203
   5 C :   -0.219128
   6 C :   -0.219173
   7 H :    0.362001
   8 H :    0.362018
   9 H :    0.362008
  10 H :    0.361995
  11 H :    0.362017
  12 H :    0.361997
  13 H :    0.362033
Sum of atomic charges:    1.0000000

LOEWDIN ATOMIC CHARGES
----------------------
   0 C :    0.294686
   1 C :    0.294688
   2 C :    0.294693
   3 C :    0.294693
   4 C :    0.294694
   5 C :    0.294689
   6 C :    0.294689
   7 H :   -0.151830
   8 H :   -0.151833
   9 H :   -0.151834
  10 H :   -0.151834
  11 H :   -0.151833
  12 H :   -0.151835
  13 H :   -0.151831

  Mayer bond orders larger than 0.100000
B(  0-C ,  1-C ) :   1.1528 B(  0-C ,  3-C ) :   1.1528 B(  0-C ,  7-H ) :   0.8824
B(  1-C ,  2-C ) :   1.1528 B(  1-C ,  8-H ) :   0.8824 B(  2-C ,  4-C ) :   1.1528
B(  2-C ,  9-H ) :   0.8824 B(  3-C ,  5-C ) :   1.1528 B(  3-C , 10-H ) :   0.8825
B(  4-C ,  6-C ) :   1.1529 B(  4-C , 11-H ) :   0.8824 B(  5-C ,  6-C ) :   1.1528
B(  5-C , 12-H ) :   0.8824 B(  6-C , 13-H ) :   0.8824

MP2 TOTAL ENERGY:     -270.074772867 Eh
FINAL SINGLE POINT ENERGY      -270.074772867404

DIPOLE MOMENT
-------------
                                X             Y             Z
Electronic contribution:     -0.00001       0.00001       0.00000
Nuclear contribution   :      0.00000       0.00000      -0.00000
                        -----------------------------------------
Total Dipole Moment    :     -0.00000       0.00001      -0.00000
                        -----------------------------------------
Magnitude (a.u.)       :      0.00001
Magnitude (Debye)      :      0.00002

Rotational constants in cm-1:     0.126501     0.126498     0.063250
Rotational constants in MHz :  3792.408605  3792.328244  1896.184212

                             ****ORCA TERMINATED NORMALLY****
TOTAL RUN TIME: 0 days 0 hours 1 minutes 34 seconds 430 msec
