                         Program Version 4.2.1 -  RELEASE  -
|  1> %pal
|  2>  nprocs 32
|  3> end
|  4> !RI-MP2 aug-cc-pVTZ aug-cc-pVTZ/C TightSCF
|  5> %maxcore 4500
|  6> *xyzfile 0 1  02_3R1.xyz
|  7>
|  8>
|  9>                          ****END OF INPUT****

CARTESIAN COORDINATES (ANGSTROEM)
---------------------------------
  C     -1.481834    1.491753    0.000007
  C     -0.761902    0.364361   -0.000007
  C      0.720488    0.330802   -0.000006
  C      1.418141    1.662707   -0.000003
  C      1.352091   -0.846639   -0.000007
  C      2.824218   -1.104711   -0.000004
  H      1.144331    2.249251   -0.880418
  H      1.144335    2.249243    0.880419
  H      2.499314    1.551405   -0.000003
  H      3.104713   -1.696612    0.876557
  H      3.104685   -1.696778   -0.876461
  H      3.429980   -0.200314   -0.000099
  O     -1.311553   -0.878860   -0.000028
  C     -2.717247   -0.987666    0.000031
  H     -3.149586   -0.524508    0.892229
  H     -2.938800   -2.052806    0.000057
  H     -3.149660   -0.524539   -0.892149
  H      0.730084   -1.734216   -0.000004
  H     -0.989996    2.450676    0.000025
  H     -2.560703    1.496434    0.000000

 Total Charge           Charge          ....    0
 Multiplicity           Mult            ....    1
 Number of Electrons    NEL             ....   62
 Basis Dimension        Dim             ....  644

ORBITAL ENERGIES
----------------

  NO   OCC          E(Eh)            E(eV)
   0   2.0000     -20.577585      -559.9446
   1   2.0000     -11.294333      -307.3344
   2   2.0000     -11.277227      -306.8689
   3   2.0000     -11.230467      -305.5965
   4   2.0000     -11.224162      -305.4250
   5   2.0000     -11.219343      -305.2939
   6   2.0000     -11.215894      -305.2000
   7   2.0000     -11.202158      -304.8262
   8   2.0000      -1.407932       -38.3118
   9   2.0000      -1.105778       -30.0897
  10   2.0000      -1.024669       -27.8827
  11   2.0000      -0.969397       -26.3786
  12   2.0000      -0.953356       -25.9421
  13   2.0000      -0.895496       -24.3677
  14   2.0000      -0.777748       -21.1636
  15   2.0000      -0.719125       -19.5684
  16   2.0000      -0.683829       -18.6079
  17   2.0000      -0.654733       -17.8162
  18   2.0000      -0.650884       -17.7115
  19   2.0000      -0.600450       -16.3391
  20   2.0000      -0.577704       -15.7201
  21   2.0000      -0.562431       -15.3045
  22   2.0000      -0.557029       -15.1575
  23   2.0000      -0.555211       -15.1081
  24   2.0000      -0.524396       -14.2695
  25   2.0000      -0.520102       -14.1527
  26   2.0000      -0.500987       -13.6325
  27   2.0000      -0.489187       -13.3114
  28   2.0000      -0.474950       -12.9240
  29   2.0000      -0.375488       -10.2176
  30   2.0000      -0.308496        -8.3946
  31   0.0000       0.029494         0.8026
  32   0.0000       0.032462         0.8833
  33   0.0000       0.035825         0.9748
  34   0.0000       0.042592         1.1590
  35   0.0000       0.045408         1.2356

MULLIKEN ATOMIC CHARGES
-----------------------
   0 C :   -1.509170
   1 C :    0.854683
   2 C :    1.601091
   3 C :   -0.792446
   4 C :   -0.792162
   5 C :   -1.039275
   6 H :    0.176985
   7 H :    0.176972
   8 H :    0.317065
   9 H :    0.219782
  10 H :    0.219747
  11 H :    0.379211
  12 O :   -0.893276
  13 C :   -0.900038
  14 H :    0.369474
  15 H :    0.339900
  16 H :    0.369465
  17 H :    0.245208
  18 H :    0.213841
  19 H :    0.442942
Sum of atomic charges:    0.0000000

LOEWDIN ATOMIC CHARGES
----------------------
   0 C :    0.531440
   1 C :   -0.400262
   2 C :   -0.101431
   3 C :    0.556517
   4 C :    0.235383
   5 C :    0.574324
   6 H :   -0.163457
   7 H :   -0.163458
   8 H :   -0.201036
   9 H :   -0.169205
  10 H :   -0.169208
  11 H :   -0.202254
  12 O :    0.577094
  13 C :    0.333530
  14 H :   -0.174302
  15 H :   -0.178788
  16 H :   -0.174298
  17 H :   -0.218937
  18 H :   -0.247508
  19 H :   -0.244142

  Mayer bond orders larger than 0.100000
B(  0-C ,  1-C ) :   0.9404 B(  0-C ,  3-C ) :  -0.1888 B(  0-C ,  4-C ) :   0.1121
B(  0-C , 12-O ) :  -0.1593 B(  0-C , 18-H ) :   1.4407 B(  0-C , 19-H ) :   0.7103
B(  1-C ,  2-C ) :   0.4793 B(  1-C ,  4-C ) :   0.3177 B(  1-C , 12-O ) :   0.8142
B(  2-C ,  3-C ) :   0.6087 B(  2-C ,  4-C ) :   0.5106 B(  2-C , 12-O ) :  -0.1085
B(  2-C , 17-H ) :  -0.2744 B(  2-C , 18-H ) :  -0.1547 B(  2-C , 19-H ) :   0.1807
B(  3-C ,  4-C ) :  -0.1956 B(  3-C ,  6-H ) :   1.1336 B(  3-C ,  7-H ) :   1.1336
B(  3-C ,  8-H ) :   0.8364 B(  4-C ,  5-C ) :   0.6565 B(  4-C ,  9-H ) :  -0.1110
B(  4-C , 10-H ) :  -0.1110 B(  4-C , 17-H ) :   1.3621 B(  5-C ,  9-H ) :   1.1087
B(  5-C , 10-H ) :   1.1088 B(  5-C , 11-H ) :   0.8238 B( 12-O , 13-C ) :   1.0462
B( 13-C , 14-H ) :   0.8670 B( 13-C , 15-H ) :   0.9481 B( 13-C , 16-H ) :   0.8670

MP2 TOTAL ENERGY:     -348.438899753 Eh
FINAL SINGLE POINT ENERGY      -348.438899752736

DIPOLE MOMENT
-------------
                                X             Y             Z
Electronic contribution:     -2.55464      -1.66960      -0.00013
Nuclear contribution   :      2.43737       1.61249       0.00016
                        -----------------------------------------
Total Dipole Moment    :     -0.11727      -0.05711       0.00003
                        -----------------------------------------
Magnitude (a.u.)       :      0.13044
Magnitude (Debye)      :      0.33154

Rotational constants in cm-1:     0.112765     0.044428     0.032450
Rotational constants in MHz :  3380.614787  1331.922368   972.824602

                             ****ORCA TERMINATED NORMALLY****
TOTAL RUN TIME: 0 days 0 hours 3 minutes 47 seconds 289 msec
