                         Program Version 4.2.1 -  RELEASE  -
|  1> %pal
|  2>  nprocs 32
|  3> end
|  4> !RI-MP2 aug-cc-pVTZ aug-cc-pVTZ/C TightSCF
|  5> %maxcore 4500
|  6> *xyzfile 0 1  10_49R.xyz
|  7>
|  8>
|  9>                          ****END OF INPUT****

CARTESIAN COORDINATES (ANGSTROEM)
---------------------------------
  C      0.003200    0.786020   -0.198775
  C     -0.003200    0.665662    1.314438
  C      0.003200   -0.665662    1.314438
  C     -0.003200   -0.786020   -0.198775
  C      1.175628   -1.482936   -0.855133
  H      1.163581   -2.556512   -0.649923
  H      1.156759   -1.351075   -1.940189
  H      2.120702   -1.081472   -0.480021
  C     -1.175628    1.482936   -0.855133
  H     -1.163581    2.556512   -0.649923
  H     -1.156759    1.351075   -1.940189
  H     -2.120702    1.081472   -0.480021
  H      0.016104   -1.411647    2.100740
  H     -0.016104    1.411647    2.100740
  H      0.944916    1.181645   -0.593788
  H     -0.944916   -1.181645   -0.593788

 Total Charge           Charge          ....    0
 Multiplicity           Mult            ....    1
 Number of Electrons    NEL             ....   46
 Basis Dimension        Dim             ....  506

ORBITAL ENERGIES
----------------

  NO   OCC          E(Eh)            E(eV)
   0   2.0000     -11.227496      -305.5157
   1   2.0000     -11.226985      -305.5018
   2   2.0000     -11.222569      -305.3816
   3   2.0000     -11.220843      -305.3347
   4   2.0000     -11.210956      -305.0656
   5   2.0000     -11.210954      -305.0656
   6   2.0000      -1.156573       -31.4720
   7   2.0000      -0.989488       -26.9253
   8   2.0000      -0.975864       -26.5546
   9   2.0000      -0.831978       -22.6393
  10   2.0000      -0.823325       -22.4038
  11   2.0000      -0.700248       -19.0547
  12   2.0000      -0.661289       -17.9946
  13   2.0000      -0.606651       -16.5078
  14   2.0000      -0.592375       -16.1193
  15   2.0000      -0.563079       -15.3222
  16   2.0000      -0.550811       -14.9883
  17   2.0000      -0.519310       -14.1312
  18   2.0000      -0.497451       -13.5363
  19   2.0000      -0.479358       -13.0440
  20   2.0000      -0.432695       -11.7742
  21   2.0000      -0.427295       -11.6273
  22   2.0000      -0.349552        -9.5118
  23   0.0000       0.030958         0.8424
  24   0.0000       0.035029         0.9532
  25   0.0000       0.036487         0.9929
  26   0.0000       0.040349         1.0980
  27   0.0000       0.050660         1.3785

MULLIKEN ATOMIC CHARGES
-----------------------
   0 C :    0.085838
   1 C :   -0.928681
   2 C :   -0.928681
   3 C :    0.085838
   4 C :   -0.855695
   5 H :    0.257306
   6 H :    0.244220
   7 H :    0.301122
   8 C :   -0.855695
   9 H :    0.257306
  10 H :    0.244220
  11 H :    0.301122
  12 H :    0.515336
  13 H :    0.515336
  14 H :    0.380553
  15 H :    0.380553
Sum of atomic charges:    0.0000000

LOEWDIN ATOMIC CHARGES
----------------------
   0 C :   -0.044822
   1 C :    0.270194
   2 C :    0.270194
   3 C :   -0.044822
   4 C :    0.586406
   5 H :   -0.168323
   6 H :   -0.165987
   7 H :   -0.168621
   8 C :    0.586406
   9 H :   -0.168323
  10 H :   -0.165987
  11 H :   -0.168621
  12 H :   -0.171292
  13 H :   -0.171292
  14 H :   -0.137554
  15 H :   -0.137554

  Mayer bond orders larger than 0.100000
B(  0-C ,  1-C ) :   1.1215 B(  0-C ,  2-C ) :  -0.2342 B(  0-C ,  3-C ) :   1.1988
B(  0-C ,  8-C ) :   0.6347 B(  0-C , 14-H ) :   0.8292 B(  1-C ,  2-C ) :   1.5873
B(  1-C ,  3-C ) :  -0.2342 B(  1-C , 13-H ) :   0.7936 B(  1-C , 14-H ) :  -0.1154
B(  2-C ,  3-C ) :   1.1215 B(  2-C , 12-H ) :   0.7936 B(  2-C , 15-H ) :  -0.1154
B(  3-C ,  4-C ) :   0.6347 B(  3-C , 15-H ) :   0.8292 B(  4-C ,  5-H ) :   1.0043
B(  4-C ,  6-H ) :   0.9763 B(  4-C ,  7-H ) :   0.9684 B(  8-C ,  9-H ) :   1.0043
B(  8-C , 10-H ) :   0.9763 B(  8-C , 11-H ) :   0.9684

MP2 TOTAL ENERGY:     -234.080770461 Eh
FINAL SINGLE POINT ENERGY      -234.080770461211

DIPOLE MOMENT
-------------
                                X             Y             Z
Electronic contribution:     -0.00000       0.00000       3.21998
Nuclear contribution   :      0.00000       0.00000      -3.28793
                        -----------------------------------------
Total Dipole Moment    :     -0.00000       0.00000      -0.06795
                        -----------------------------------------
Magnitude (a.u.)       :      0.06795
Magnitude (Debye)      :      0.17272

Rotational constants in cm-1:     0.176936     0.109569     0.078259
Rotational constants in MHz :  5304.410524  3284.789781  2346.152533

                             ****ORCA TERMINATED NORMALLY****
TOTAL RUN TIME: 0 days 0 hours 1 minutes 46 seconds 741 msec
