                         Program Version 4.2.1 -  RELEASE  -
|  1> %pal
|  2>  nprocs 32
|  3> end
|  4> !RI-MP2 aug-cc-pVTZ aug-cc-pVTZ/C TightSCF
|  5> %maxcore 4500
|  6> *xyzfile 0 1  10_80P.xyz
|  7>
|  8>
|  9>                          ****END OF INPUT****

CARTESIAN COORDINATES (ANGSTROEM)
---------------------------------
  C      2.579665   -1.246478    0.330929
  C      1.867572   -0.520995    1.467029
  C      0.756005    0.418954    0.959651
  C     -0.171392   -0.329393    0.038426
  C      0.471526   -1.126677   -1.053663
  C      1.580536   -2.036454   -0.507664
  H      3.342035   -1.914189    0.738307
  H      3.099254   -0.521046   -0.303539
  H      2.572820    0.063532    2.062846
  H      1.417932   -1.255293    2.142624
  H     -0.271898   -1.702342   -1.603838
  H      0.914146   -0.414793   -1.758146
  H      2.078377   -2.529479   -1.344878
  H      1.131065   -2.826416    0.102831
  C     -1.508505   -0.280629    0.200314
  C     -2.120844    0.497515    1.235651
  C     -2.403582   -0.990534   -0.663973
  N     -2.610028    1.121514    2.066263
  N     -3.119516   -1.561217   -1.356969
  C      0.497666    2.691777   -1.939232
  C      0.922931    2.178132   -0.824822
  C      1.338119    1.650885    0.287811
  H     -0.304903    3.420816   -1.948710
  H      0.932851    2.411420   -2.892372
  H      2.144788    2.138595    0.829778
  H      0.192159    0.770499    1.827312

 Total Charge           Charge          ....    0
 Multiplicity           Mult            ....    1
 Number of Electrons    NEL             ....   98
 Basis Dimension        Dim             ....  920

ORBITAL ENERGIES
----------------

  NO   OCC          E(Eh)            E(eV)
   0   2.0000     -15.582533      -424.0223
   1   2.0000     -15.582162      -424.0122
   2   2.0000     -11.320133      -308.0365
   3   2.0000     -11.316235      -307.9304
   4   2.0000     -11.288834      -307.1848
   5   2.0000     -11.288526      -307.1764
   6   2.0000     -11.279343      -306.9265
   7   2.0000     -11.272814      -306.7489
   8   2.0000     -11.265212      -306.5420
   9   2.0000     -11.259912      -306.3978
  10   2.0000     -11.254961      -306.2631
  11   2.0000     -11.253674      -306.2280
  12   2.0000     -11.250665      -306.1462
  13   2.0000     -11.244473      -305.9777
  14   2.0000      -1.249088       -33.9894
  15   2.0000      -1.231172       -33.5019
  16   2.0000      -1.192170       -32.4406
  17   2.0000      -1.114340       -30.3227
  18   2.0000      -1.102134       -29.9906
  19   2.0000      -1.054027       -28.6815
  20   2.0000      -1.011921       -27.5358
  21   2.0000      -0.961795       -26.1718
  22   2.0000      -0.882846       -24.0235
  23   2.0000      -0.862415       -23.4675
  24   2.0000      -0.790338       -21.5062
  25   2.0000      -0.787265       -21.4226
  26   2.0000      -0.739013       -20.1096
  27   2.0000      -0.702990       -19.1293
  28   2.0000      -0.662692       -18.0328
  29   2.0000      -0.652083       -17.7441
  30   2.0000      -0.633595       -17.2410
  31   2.0000      -0.625719       -17.0267
  32   2.0000      -0.615984       -16.7618
  33   2.0000      -0.595590       -16.2068
  34   2.0000      -0.578185       -15.7332
  35   2.0000      -0.574871       -15.6430
  36   2.0000      -0.572911       -15.5897
  37   2.0000      -0.555501       -15.1160
  38   2.0000      -0.550870       -14.9899
  39   2.0000      -0.530410       -14.4332
  40   2.0000      -0.499621       -13.5954
  41   2.0000      -0.493435       -13.4270
  42   2.0000      -0.491184       -13.3658
  43   2.0000      -0.490124       -13.3369
  44   2.0000      -0.484202       -13.1758
  45   2.0000      -0.470521       -12.8035
  46   2.0000      -0.397523       -10.8172
  47   2.0000      -0.387182       -10.5358
  48   2.0000      -0.382602       -10.4111
  49   0.0000       0.018029         0.4906
  50   0.0000       0.025119         0.6835
  51   0.0000       0.027002         0.7348
  52   0.0000       0.034540         0.9399
  53   0.0000       0.041262         1.1228

MULLIKEN ATOMIC CHARGES
-----------------------
   0 C :   -0.526976
   1 C :   -0.553139
   2 C :   -0.420840
   3 C :   -0.497975
   4 C :   -1.065956
   5 C :   -0.455942
   6 H :    0.329658
   7 H :    0.162590
   8 H :    0.235956
   9 H :    0.200529
  10 H :    0.091371
  11 H :    0.214994
  12 H :    0.323690
  13 H :    0.150192
  14 C :    1.831344
  15 C :    1.012881
  16 C :    0.754914
  17 N :   -0.998286
  18 N :   -0.997833
  19 C :   -1.316931
  20 C :    1.230172
  21 C :   -0.612976
  22 H :    0.401696
  23 H :    0.262891
  24 H :    0.181794
  25 H :    0.062182
Sum of atomic charges:    0.0000000

LOEWDIN ATOMIC CHARGES
----------------------
   0 C :    0.301076
   1 C :    0.316126
   2 C :   -0.019656
   3 C :   -0.072667
   4 C :    0.318945
   5 C :    0.319715
   6 H :   -0.132959
   7 H :   -0.136419
   8 H :   -0.132482
   9 H :   -0.127157
  10 H :   -0.163072
  11 H :   -0.137656
  12 H :   -0.131415
  13 H :   -0.131178
  14 C :   -0.177422
  15 C :   -0.257181
  16 C :   -0.257904
  17 N :    0.303782
  18 N :    0.298991
  19 C :    0.499645
  20 C :    0.122921
  21 C :    0.200887
  22 H :   -0.228782
  23 H :   -0.229808
  24 H :   -0.178786
  25 H :   -0.167545

  Mayer bond orders larger than 0.100000
B(  0-C ,  1-C ) :   0.9112 B(  0-C ,  5-C ) :   0.8940 B(  0-C ,  6-H ) :   0.8860
B(  0-C ,  7-H ) :   1.0779 B(  1-C ,  2-C ) :   0.8196 B(  1-C ,  8-H ) :   1.0151
B(  1-C ,  9-H ) :   1.0590 B(  2-C ,  3-C ) :   1.7880 B(  2-C ,  4-C ) :   0.2617
B(  2-C , 14-C ) :  -0.6133 B(  2-C , 15-C ) :   0.1547 B(  2-C , 17-N ) :   0.1139
B(  2-C , 19-C ) :  -0.2792 B(  2-C , 20-C ) :  -0.1311 B(  2-C , 21-C ) :   1.4091
B(  2-C , 24-H ) :   0.1296 B(  2-C , 25-H ) :   1.1333 B(  3-C ,  4-C ) :   1.1279
B(  3-C , 10-H ) :   0.2523 B(  3-C , 14-C ) :   0.3883 B(  3-C , 15-C ) :   0.1646
B(  3-C , 16-C ) :   1.0377 B(  3-C , 20-C ) :   0.2210 B(  3-C , 21-C ) :   0.2061
B(  3-C , 25-H ) :   0.1353 B(  4-C ,  5-C ) :   0.9401 B(  4-C , 10-H ) :   1.0661
B(  4-C , 11-H ) :   1.0441 B(  4-C , 14-C ) :  -0.5337 B(  4-C , 19-C ) :   0.1349
B(  4-C , 25-H ) :   0.1382 B(  5-C , 12-H ) :   0.8962 B(  5-C , 13-H ) :   1.0816
B( 10-H , 14-C ) :  -0.3192 B( 14-C , 15-C ) :   0.8382 B( 14-C , 16-C ) :  -0.1476
B( 14-C , 17-N ) :   0.3335 B( 14-C , 18-N ) :   0.2204 B( 14-C , 25-H ) :  -0.3295
B( 15-C , 16-C ) :  -0.2429 B( 15-C , 17-N ) :   1.3600 B( 16-C , 18-N ) :   1.4837
B( 16-C , 25-H ) :   0.1450 B( 19-C , 20-C ) :   1.0807 B( 19-C , 21-C ) :  -0.2139
B( 19-C , 22-H ) :   0.9210 B( 19-C , 23-H ) :   1.2057 B( 20-C , 21-C ) :   1.2265
B( 20-C , 23-H ) :  -0.1707 B( 21-C , 24-H ) :   1.1726

MP2 TOTAL ENERGY:     -572.742269204 Eh
FINAL SINGLE POINT ENERGY      -572.742269203836

DIPOLE MOMENT
-------------
                                X             Y             Z
Electronic contribution:    -14.49372       2.24641       1.82496
Nuclear contribution   :     17.19716      -2.35883      -2.14140
                        -----------------------------------------
Total Dipole Moment    :      2.70344      -0.11243      -0.31644
                        -----------------------------------------
Magnitude (a.u.)       :      2.72422
Magnitude (Debye)      :      6.92441

Rotational constants in cm-1:     0.026673     0.019345     0.016852
Rotational constants in MHz :   799.641667   579.955218   505.221739

                             ****ORCA TERMINATED NORMALLY****
TOTAL RUN TIME: 0 days 0 hours 16 minutes 48 seconds 238 msec
