                         Program Version 4.2.1 -  RELEASE  -
|  1> %pal
|  2>  nprocs 32
|  3> end
|  4> !RI-MP2 aug-cc-pVTZ aug-cc-pVTZ/C TightSCF
|  5> %maxcore 4500
|  6> *xyzfile 0 1  08_10R1.xyz
|  7>
|  8>
|  9>                          ****END OF INPUT****

CARTESIAN COORDINATES (ANGSTROEM)
---------------------------------
  S      1.154888    1.738283    0.711320
  C      2.382526    0.793642   -0.279008
  C      2.685554   -0.596752    0.312875
  H      3.305006    1.373942   -0.321064
  H      1.992381    0.689390   -1.290498
  N      3.640843   -1.354823   -0.476373
  C      1.400401   -1.393491    0.447147
  H      3.078602   -0.489096    1.324147
  O      0.862634   -1.647871    1.491786
  O      0.901671   -1.716965   -0.746775
  S     -0.265786    2.325069   -0.678486
  C     -1.216577    0.796066   -0.979577
  C     -1.780842    0.124177    0.269646
  H     -0.594051    0.091105   -1.524069
  H     -2.025567    1.115105   -1.643789
  N     -2.786294    0.948820    0.936128
  C     -2.413360   -1.202626   -0.165297
  H     -0.955473   -0.132473    0.937399
  O     -1.767477   -2.120344   -0.615182
  O     -3.723065   -1.250987   -0.034063
  H     -0.011006   -2.085744   -0.647085
  H     -3.971955   -0.380070    0.357409
  H      4.538022   -0.890214   -0.534646
  H      3.292845   -1.533014   -1.411078
  H     -2.687303    0.910381    1.943569
  H     -2.705268    1.922310    0.665238

 Total Charge           Charge          ....    0
 Multiplicity           Mult            ....    1
 Number of Electrons    NEL             ....  126
 Basis Dimension        Dim             ....  928

ORBITAL ENERGIES
----------------

  NO   OCC          E(Eh)            E(eV)
   0   2.0000     -91.998423     -2503.4044
   1   2.0000     -91.991927     -2503.2276
   2   2.0000     -20.616153      -560.9940
   3   2.0000     -20.596470      -560.4584
   4   2.0000     -20.558618      -559.4284
   5   2.0000     -20.544352      -559.0402
   6   2.0000     -15.589887      -424.2224
   7   2.0000     -15.562824      -423.4860
   8   2.0000     -11.397051      -310.1295
   9   2.0000     -11.379979      -309.6650
  10   2.0000     -11.303333      -307.5793
  11   2.0000     -11.291515      -307.2577
  12   2.0000     -11.290889      -307.2407
  13   2.0000     -11.282388      -307.0094
  14   2.0000      -8.996587      -244.8096
  15   2.0000      -8.990469      -244.6431
  16   2.0000      -6.677581      -181.7062
  17   2.0000      -6.676372      -181.6733
  18   2.0000      -6.675496      -181.6495
  19   2.0000      -6.671458      -181.5396
  20   2.0000      -6.670295      -181.5080
  21   2.0000      -6.669456      -181.4851
  22   2.0000      -1.479974       -40.2721
  23   2.0000      -1.461064       -39.7576
  24   2.0000      -1.381042       -37.5801
  25   2.0000      -1.357757       -36.9464
  26   2.0000      -1.237266       -33.6677
  27   2.0000      -1.214587       -33.0506
  28   2.0000      -1.107824       -30.1454
  29   2.0000      -1.060463       -28.8567
  30   2.0000      -0.999252       -27.1910
  31   2.0000      -0.944416       -25.6989
  32   2.0000      -0.897228       -24.4148
  33   2.0000      -0.834680       -22.7128
  34   2.0000      -0.819431       -22.2979
  35   2.0000      -0.798039       -21.7157
  36   2.0000      -0.747663       -20.3449
  37   2.0000      -0.724274       -19.7085
  38   2.0000      -0.715456       -19.4685
  39   2.0000      -0.700722       -19.0676
  40   2.0000      -0.688437       -18.7333
  41   2.0000      -0.662276       -18.0215
  42   2.0000      -0.661451       -17.9990
  43   2.0000      -0.645145       -17.5553
  44   2.0000      -0.636480       -17.3195
  45   2.0000      -0.625074       -17.0091
  46   2.0000      -0.602486       -16.3945
  47   2.0000      -0.591395       -16.0927
  48   2.0000      -0.586427       -15.9575
  49   2.0000      -0.580346       -15.7920
  50   2.0000      -0.560256       -15.2453
  51   2.0000      -0.543036       -14.7768
  52   2.0000      -0.536301       -14.5935
  53   2.0000      -0.507547       -13.8111
  54   2.0000      -0.494688       -13.4612
  55   2.0000      -0.485504       -13.2112
  56   2.0000      -0.473908       -12.8957
  57   2.0000      -0.455349       -12.3907
  58   2.0000      -0.454119       -12.3572
  59   2.0000      -0.434500       -11.8233
  60   2.0000      -0.421745       -11.4763
  61   2.0000      -0.379689       -10.3319
  62   2.0000      -0.363247        -9.8845
  63   0.0000       0.022125         0.6020
  64   0.0000       0.024954         0.6790
  65   0.0000       0.031877         0.8674
  66   0.0000       0.041112         1.1187
  67   0.0000       0.043496         1.1836

MULLIKEN ATOMIC CHARGES
-----------------------
   0 S :   -0.328176
   1 C :   -0.358166
   2 C :    0.751643
   3 H :    0.328917
   4 H :    0.270654
   5 N :   -0.759350
   6 C :    0.863839
   7 H :    0.396808
   8 O :   -1.081540
   9 O :   -0.625807
  10 S :   -0.367925
  11 C :   -0.359051
  12 C :    0.727545
  13 H :    0.264381
  14 H :    0.326874
  15 N :   -0.678990
  16 C :    0.532946
  17 H :    0.492362
  18 O :   -0.714483
  19 O :   -0.639359
  20 H :    0.366573
  21 H :    0.229659
  22 H :    0.070558
  23 H :    0.110255
  24 H :    0.063214
  25 H :    0.116620
Sum of atomic charges:    0.0000000

LOEWDIN ATOMIC CHARGES
----------------------
   0 S :    0.789166
   1 C :   -0.089555
   2 C :   -0.232630
   3 H :   -0.223421
   4 H :   -0.247727
   5 N :    0.851869
   6 C :   -0.840137
   7 H :   -0.161709
   8 O :    0.475828
   9 O :    0.860446
  10 S :    0.772513
  11 C :   -0.115034
  12 C :   -0.198417
  13 H :   -0.255696
  14 H :   -0.210571
  15 N :    0.865320
  16 C :   -0.731020
  17 H :   -0.233281
  18 O :    0.551431
  19 O :    0.865577
  20 H :   -0.673551
  21 H :   -0.577006
  22 H :   -0.310553
  23 H :   -0.326360
  24 H :   -0.275268
  25 H :   -0.330215

  Mayer bond orders larger than 0.100000
B(  0-S ,  1-C ) :   0.8624 B(  0-S ,  3-H ) :  -0.1030 B(  0-S , 10-S ) :   1.0588
B(  1-C ,  2-C ) :   0.9591 B(  1-C ,  3-H ) :   0.8843 B(  1-C ,  4-H ) :   0.9862
B(  2-C ,  5-N ) :   0.2981 B(  2-C ,  6-C ) :   0.6816 B(  2-C ,  7-H ) :   0.9026
B(  5-N ,  6-C ) :   0.1859 B(  5-N , 22-H ) :   1.0223 B(  5-N , 23-H ) :   0.9964
B(  6-C ,  7-H ) :  -0.1199 B(  6-C ,  8-O ) :   1.0247 B(  6-C ,  9-O ) :   0.9049
B(  9-O , 20-H ) :   0.6701 B( 10-S , 11-C ) :   0.7496 B( 10-S , 12-C ) :   0.1492
B( 11-C , 12-C ) :   0.7757 B( 11-C , 13-H ) :   1.0049 B( 11-C , 14-H ) :   0.9165
B( 11-C , 16-C ) :   0.1867 B( 12-C , 15-N ) :   0.3439 B( 12-C , 16-C ) :   0.4001
B( 12-C , 17-H ) :   0.9169 B( 15-N , 16-C ) :   0.1402 B( 15-N , 21-H ) :   0.1563
B( 15-N , 24-H ) :   1.0693 B( 15-N , 25-H ) :   1.0383 B( 16-C , 18-O ) :   1.3209
B( 16-C , 19-O ) :   0.7300 B( 18-O , 19-O ) :  -0.1286 B( 19-O , 21-H ) :   0.8606

MP2 TOTAL ENERGY:    -1440.695995562 Eh
FINAL SINGLE POINT ENERGY     -1440.695995561607

DIPOLE MOMENT
-------------
                                X             Y             Z
Electronic contribution:     -2.89013       1.48826       1.71078
Nuclear contribution   :      3.12678       0.35223      -2.10870
                        -----------------------------------------
Total Dipole Moment    :      0.23665       1.84049      -0.39792
                        -----------------------------------------
Magnitude (a.u.)       :      1.89783
Magnitude (Debye)      :      4.82389

Rotational constants in cm-1:     0.023982     0.014487     0.010502
Rotational constants in MHz :   718.967884   434.301364   314.835100

                             ****ORCA TERMINATED NORMALLY****
TOTAL RUN TIME: 0 days 0 hours 16 minutes 42 seconds 261 msec
