                         Program Version 4.2.1 -  RELEASE  -
|  1> %pal
|  2>  nprocs 32
|  3> end
|  4> !RI-MP2 aug-cc-pVTZ aug-cc-pVTZ/C TightSCF
|  5> %maxcore 4500
|  6> *xyzfile 1 1  04_62R1.xyz
|  7>
|  8>
|  9>                          ****END OF INPUT****

CARTESIAN COORDINATES (ANGSTROEM)
---------------------------------
  N     -0.747196    0.896331    1.057308
  C     -1.908413    0.052210    1.119936
  H      0.025527    0.748362    1.690304
  C     -1.952664   -0.984554    0.008385
  H     -1.918864   -0.472933    2.076057
  H     -2.811830    0.663719    1.071484
  O     -3.125546   -1.188925   -0.577001
  N     -0.949117   -1.693503   -0.336729
  H     -1.230984   -2.317281   -1.094074
  C     -0.570847    1.673855   -0.044194
  C      0.834927    2.246024   -0.213845
  O     -1.426485    1.784947   -0.896488
  N      1.640134    1.159548   -0.775848
  H      1.279609    2.573140    0.724195
  H      0.804870    3.073015   -0.917247
  H      1.579094    1.014435   -1.773109
  H     -3.759474   -0.485990   -0.388263
  C      2.027965    0.143436    0.004253
  C      2.401709   -1.172462   -0.667774
  O      2.009834    0.163194    1.225865
  N      1.681589   -2.194046    0.142959
  H      3.476154   -1.344230   -0.608439
  H      2.070945   -1.246189   -1.702078
  H      0.602898   -2.019258    0.045215
  H      1.927234   -2.041013    1.126789
  H      1.918477   -3.148879   -0.124240

 Total Charge           Charge          ....    1
 Multiplicity           Mult            ....    1
 Number of Electrons    NEL             ....  100
 Basis Dimension        Dim             ....  897

ORBITAL ENERGIES
----------------

  NO   OCC          E(Eh)            E(eV)
   0   2.0000     -20.745897      -564.5246
   1   2.0000     -20.689879      -563.0002
   2   2.0000     -20.656171      -562.0830
   3   2.0000     -15.829790      -430.7505
   4   2.0000     -15.753957      -428.6870
   5   2.0000     -15.718101      -427.7113
   6   2.0000     -15.692430      -427.0127
   7   2.0000     -11.524297      -313.5921
   8   2.0000     -11.506303      -313.1024
   9   2.0000     -11.481922      -312.4390
  10   2.0000     -11.468188      -312.0653
  11   2.0000     -11.423808      -310.8576
  12   2.0000     -11.416758      -310.6658
  13   2.0000      -1.582960       -43.0745
  14   2.0000      -1.564955       -42.5846
  15   2.0000      -1.525056       -41.4989
  16   2.0000      -1.454701       -39.5844
  17   2.0000      -1.404063       -38.2065
  18   2.0000      -1.379236       -37.5309
  19   2.0000      -1.343785       -36.5662
  20   2.0000      -1.185332       -32.2545
  21   2.0000      -1.142824       -31.0978
  22   2.0000      -1.096918       -29.8487
  23   2.0000      -0.978083       -26.6150
  24   2.0000      -0.965296       -26.2670
  25   2.0000      -0.942006       -25.6333
  26   2.0000      -0.930326       -25.3155
  27   2.0000      -0.914332       -24.8803
  28   2.0000      -0.889120       -24.1942
  29   2.0000      -0.868000       -23.6195
  30   2.0000      -0.847900       -23.0725
  31   2.0000      -0.832322       -22.6486
  32   2.0000      -0.819472       -22.2990
  33   2.0000      -0.798603       -21.7311
  34   2.0000      -0.784772       -21.3547
  35   2.0000      -0.771582       -20.9958
  36   2.0000      -0.752610       -20.4796
  37   2.0000      -0.748914       -20.3790
  38   2.0000      -0.732033       -19.9196
  39   2.0000      -0.719101       -19.5677
  40   2.0000      -0.702815       -19.1246
  41   2.0000      -0.693712       -18.8769
  42   2.0000      -0.680445       -18.5158
  43   2.0000      -0.662136       -18.0176
  44   2.0000      -0.619738       -16.8639
  45   2.0000      -0.605106       -16.4658
  46   2.0000      -0.589113       -16.0306
  47   2.0000      -0.566257       -15.4086
  48   2.0000      -0.544489       -14.8163
  49   2.0000      -0.531827       -14.4717
  50   0.0000      -0.087663        -2.3854
  51   0.0000      -0.069279        -1.8852
  52   0.0000      -0.060282        -1.6403
  53   0.0000      -0.058690        -1.5970
  54   0.0000      -0.045525        -1.2388

MULLIKEN ATOMIC CHARGES
-----------------------
   0 N :   -0.056482
   1 C :    0.016369
   2 H :    0.160077
   3 C :    0.470864
   4 H :    0.372976
   5 H :    0.311566
   6 O :   -0.572407
   7 N :   -0.544479
   8 H :    0.122944
   9 C :    0.459144
  10 C :   -0.079192
  11 O :   -1.027324
  12 N :   -0.430124
  13 H :    0.311333
  14 H :    0.376334
  15 H :    0.065003
  16 H :    0.188276
  17 C :    1.112441
  18 C :   -0.366517
  19 O :   -1.090971
  20 N :    0.066590
  21 H :    0.440912
  22 H :    0.229086
  23 H :    0.354974
  24 H :    0.079919
  25 H :    0.028689
Sum of atomic charges:    1.0000000

LOEWDIN ATOMIC CHARGES
----------------------
   0 N :    0.557383
   1 C :    0.223825
   2 H :   -0.355409
   3 C :   -0.479237
   4 H :   -0.123212
   5 H :   -0.150000
   6 O :    0.902987
   7 N :    0.730513
   8 H :   -0.355637
   9 C :   -0.651408
  10 C :    0.260685
  11 O :    0.486220
  12 N :    0.584023
  13 H :   -0.142094
  14 H :   -0.135922
  15 H :   -0.254589
  16 H :   -0.434425
  17 C :   -0.616707
  18 C :    0.349789
  19 O :    0.534849
  20 N :    1.045549
  21 H :   -0.109789
  22 H :   -0.122509
  23 H :   -0.408186
  24 H :   -0.199979
  25 H :   -0.136722

  Mayer bond orders larger than 0.100000
B(  0-N ,  1-C ) :   1.0093 B(  0-N ,  2-H ) :   0.9888 B(  0-N ,  3-C ) :   0.1141
B(  0-N ,  9-C ) :   1.0079 B(  1-C ,  3-C ) :   0.2600 B(  1-C ,  4-H ) :   0.8506
B(  1-C ,  5-H ) :   0.9878 B(  1-C ,  9-C ) :  -0.1045 B(  3-C ,  6-O ) :   0.6890
B(  3-C ,  7-N ) :   1.4671 B(  3-C ,  8-H ) :  -0.1125 B(  6-O ,  7-N ) :  -0.1005
B(  6-O , 16-H ) :   1.0009 B(  7-N ,  8-H ) :   1.0867 B(  7-N , 23-H ) :   0.1546
B(  9-C , 10-C ) :   0.5357 B(  9-C , 11-O ) :   1.0275 B( 10-C , 12-N ) :   0.9667
B( 10-C , 13-H ) :   0.9586 B( 10-C , 14-H ) :   0.9133 B( 12-N , 15-H ) :   1.0728
B( 12-N , 17-C ) :   0.8974 B( 17-C , 18-C ) :   0.7462 B( 17-C , 19-O ) :   1.0147
B( 18-C , 20-N ) :   0.9058 B( 18-C , 21-H ) :   0.8313 B( 18-C , 22-H ) :   0.9818
B( 20-N , 23-H ) :   0.7548 B( 20-N , 24-H ) :   1.0591 B( 20-N , 25-H ) :   1.1033

MP2 TOTAL ENERGY:     -679.801163247 Eh
FINAL SINGLE POINT ENERGY      -679.801163246561

DIPOLE MOMENT
-------------
                                X             Y             Z
Electronic contribution:     -2.25383       2.70635      -0.20561
Nuclear contribution   :      3.94331      -5.01485       0.12352
                        -----------------------------------------
Total Dipole Moment    :      1.68948      -2.30850      -0.08208
                        -----------------------------------------
Magnitude (a.u.)       :      2.86186
Magnitude (Debye)      :      7.27427

Rotational constants in cm-1:     0.034566     0.022889     0.016716
Rotational constants in MHz :  1036.261161   686.199695   501.121489

                             ****ORCA TERMINATED NORMALLY****
TOTAL RUN TIME: 0 days 0 hours 13 minutes 21 seconds 552 msec
