                         Program Version 4.2.1 -  RELEASE  -
|  1> %pal
|  2>  nprocs 32
|  3> end
|  4> !RI-MP2 aug-cc-pVTZ aug-cc-pVTZ/C TightSCF
|  5> %maxcore 4500
|  6> *xyzfile 0 1  02_42R2.xyz
|  7>
|  8>
|  9>                          ****END OF INPUT****

CARTESIAN COORDINATES (ANGSTROEM)
---------------------------------
  C     -0.050085   -1.194386    0.000009
  C      0.025395    1.223488   -0.000047
  C     -1.259493    0.874167   -0.000009
  H      0.165683   -1.805867    0.877456
  H      0.165620   -1.805826   -0.877484
  C     -1.471456   -0.616110    0.000057
  H     -2.050815   -0.922320    0.875276
  H     -2.050915   -0.922398   -0.875068
  C      0.879920    0.016329   -0.000014
  O      2.085387   -0.019836   -0.000006
  H     -2.090880    1.569355   -0.000019
  H      0.432527    2.224820   -0.000089

 Total Charge           Charge          ....    0
 Multiplicity           Mult            ....    1
 Number of Electrons    NEL             ....   44
 Basis Dimension        Dim             ....  414

ORBITAL ENERGIES
----------------

  NO   OCC          E(Eh)            E(eV)
   0   2.0000     -20.536823      -558.8354
   1   2.0000     -11.325618      -308.1857
   2   2.0000     -11.268974      -306.6444
   3   2.0000     -11.250651      -306.1458
   4   2.0000     -11.239133      -305.8324
   5   2.0000     -11.238962      -305.8277
   6   2.0000      -1.381569       -37.5944
   7   2.0000      -1.153491       -31.3881
   8   2.0000      -1.000320       -27.2201
   9   2.0000      -0.939298       -25.5596
  10   2.0000      -0.795269       -21.6404
  11   2.0000      -0.734191       -19.9783
  12   2.0000      -0.685438       -18.6517
  13   2.0000      -0.651139       -17.7184
  14   2.0000      -0.605054       -16.4644
  15   2.0000      -0.585558       -15.9338
  16   2.0000      -0.549013       -14.9394
  17   2.0000      -0.543316       -14.7844
  18   2.0000      -0.521227       -14.1833
  19   2.0000      -0.502168       -13.6647
  20   2.0000      -0.403815       -10.9884
  21   2.0000      -0.383672       -10.4402
  22   0.0000       0.023862         0.6493
  23   0.0000       0.034851         0.9483
  24   0.0000       0.038425         1.0456
  25   0.0000       0.040138         1.0922
  26   0.0000       0.052420         1.4264

MULLIKEN ATOMIC CHARGES
-----------------------
   0 C :   -0.353161
   1 C :   -0.667315
   2 C :   -0.634253
   3 H :    0.273989
   4 H :    0.273980
   5 C :   -0.348692
   6 H :    0.296659
   7 H :    0.296671
   8 C :    0.717819
   9 O :   -0.870720
  10 H :    0.484482
  11 H :    0.530542
Sum of atomic charges:   -0.0000000

LOEWDIN ATOMIC CHARGES
----------------------
   0 C :    0.295865
   1 C :    0.239992
   2 C :    0.242263
   3 H :   -0.147259
   4 H :   -0.147259
   5 C :    0.271618
   6 H :   -0.148723
   7 H :   -0.148722
   8 C :   -0.553974
   9 O :    0.438848
  10 H :   -0.160555
  11 H :   -0.182093

  Mayer bond orders larger than 0.100000
B(  0-C ,  3-H ) :   0.9498 B(  0-C ,  4-H ) :   0.9498 B(  0-C ,  5-C ) :   1.0576
B(  0-C ,  8-C ) :   0.6972 B(  1-C ,  2-C ) :   1.6706 B(  1-C ,  8-C ) :   0.9519
B(  1-C , 11-H ) :   0.6831 B(  2-C ,  5-C ) :   0.8334 B(  2-C , 10-H ) :   0.7474
B(  5-C ,  6-H ) :   0.9157 B(  5-C ,  7-H ) :   0.9157 B(  8-C ,  9-O ) :   1.2301

MP2 TOTAL ENERGY:     -268.827454427 Eh
FINAL SINGLE POINT ENERGY      -268.827454426805

DIPOLE MOMENT
-------------
                                X             Y             Z
Electronic contribution:      3.70645       1.64991      -0.00007
Nuclear contribution   :     -5.43095      -1.67335       0.00007
                        -----------------------------------------
Total Dipole Moment    :     -1.72450      -0.02344       0.00000
                        -----------------------------------------
Magnitude (a.u.)       :      1.72466
Magnitude (Debye)      :      4.38373

Rotational constants in cm-1:     0.249106     0.120530     0.083726
Rotational constants in MHz :  7467.999914  3613.389613  2510.042556

                             ****ORCA TERMINATED NORMALLY****
TOTAL RUN TIME: 0 days 0 hours 1 minutes 6 seconds 748 msec
