                         Program Version 4.2.1 -  RELEASE  -
|  1> %pal
|  2>  nprocs 32
|  3> end
|  4> !RI-MP2 aug-cc-pVTZ aug-cc-pVTZ/C TightSCF
|  5> %maxcore 4500
|  6> *xyzfile 0 1  10_57R2.xyz
|  7>
|  8>
|  9>                          ****END OF INPUT****

CARTESIAN COORDINATES (ANGSTROEM)
---------------------------------
  C     -0.967813   -1.169443   -0.000021
  C     -0.967813    1.169443   -0.000043
  C     -0.077178    0.000000   -0.000008
  C     -2.242492    0.731283   -0.000066
  C     -2.242492   -0.731283   -0.000046
  C      1.269950    0.000000    0.000029
  C      2.084660   -1.257389    0.000064
  C      2.084660    1.257389    0.000055
  H      1.478471    2.159348   -0.000122
  H      2.738664    1.280590   -0.877134
  H      2.738364    1.280737    0.877466
  H      1.478471   -2.159349    0.000100
  H      2.738522   -1.280634    0.877358
  H      2.738505   -1.280692   -0.877242
  H     -3.129631    1.349182   -0.000092
  H     -0.650318    2.200366   -0.000046
  H     -0.650318   -2.200366   -0.000008
  H     -3.129631   -1.349182   -0.000058

 Total Charge           Charge          ....    0
 Multiplicity           Mult            ....    1
 Number of Electrons    NEL             ....   58
 Basis Dimension        Dim             ....  598

ORBITAL ENERGIES
----------------

  NO   OCC          E(Eh)            E(eV)
   0   2.0000     -11.263301      -306.4900
   1   2.0000     -11.230057      -305.5854
   2   2.0000     -11.230036      -305.5848
   3   2.0000     -11.224762      -305.4413
   4   2.0000     -11.218863      -305.2808
   5   2.0000     -11.218118      -305.2605
   6   2.0000     -11.215669      -305.1939
   7   2.0000     -11.215646      -305.1932
   8   2.0000      -1.159498       -31.5516
   9   2.0000      -1.087150       -29.5829
  10   2.0000      -0.967879       -26.3373
  11   2.0000      -0.945345       -25.7241
  12   2.0000      -0.943134       -25.6640
  13   2.0000      -0.807573       -21.9752
  14   2.0000      -0.728482       -19.8230
  15   2.0000      -0.708913       -19.2905
  16   2.0000      -0.671549       -18.2738
  17   2.0000      -0.605490       -16.4762
  18   2.0000      -0.587122       -15.9764
  19   2.0000      -0.585753       -15.9392
  20   2.0000      -0.557728       -15.1765
  21   2.0000      -0.546617       -14.8742
  22   2.0000      -0.525788       -14.3074
  23   2.0000      -0.523952       -14.2575
  24   2.0000      -0.502922       -13.6852
  25   2.0000      -0.488991       -13.3061
  26   2.0000      -0.472411       -12.8550
  27   2.0000      -0.321779        -8.7561
  28   2.0000      -0.298879        -8.1329
  29   0.0000       0.027950         0.7606
  30   0.0000       0.033737         0.9180
  31   0.0000       0.034297         0.9333
  32   0.0000       0.042321         1.1516
  33   0.0000       0.044728         1.2171

MULLIKEN ATOMIC CHARGES
-----------------------
   0 C :   -0.877900
   1 C :   -0.877894
   2 C :    1.816320
   3 C :   -0.714450
   4 C :   -0.714449
   5 C :    0.581985
   6 C :   -1.373878
   7 C :   -1.373888
   8 H :    0.330779
   9 H :    0.217572
  10 H :    0.217643
  11 H :    0.330778
  12 H :    0.217578
  13 H :    0.217640
  14 H :    0.551778
  15 H :    0.449302
  16 H :    0.449303
  17 H :    0.551779
Sum of atomic charges:   -0.0000000

LOEWDIN ATOMIC CHARGES
----------------------
   0 C :    0.203707
   1 C :    0.203707
   2 C :   -0.135466
   3 C :    0.199967
   4 C :    0.199967
   5 C :   -0.065444
   6 C :    0.587298
   7 C :    0.587298
   8 H :   -0.194981
   9 H :   -0.156798
  10 H :   -0.156791
  11 H :   -0.194980
  12 H :   -0.156795
  13 H :   -0.156795
  14 H :   -0.188007
  15 H :   -0.193941
  16 H :   -0.193941
  17 H :   -0.188007

  Mayer bond orders larger than 0.100000
B(  0-C ,  1-C ) :  -0.2538 B(  0-C ,  4-C ) :   1.6444 B(  0-C ,  5-C ) :   0.2161
B(  0-C , 16-H ) :   0.8600 B(  1-C ,  3-C ) :   1.6443 B(  1-C ,  5-C ) :   0.2161
B(  1-C , 15-H ) :   0.8600 B(  2-C ,  3-C ) :  -0.2619 B(  2-C ,  4-C ) :  -0.2619
B(  2-C ,  5-C ) :   0.9037 B(  2-C ,  6-C ) :  -0.1165 B(  2-C ,  7-C ) :  -0.1165
B(  3-C ,  4-C ) :   0.9658 B(  3-C ,  5-C ) :   0.1370 B(  3-C , 14-H ) :   0.7149
B(  4-C ,  5-C ) :   0.1370 B(  4-C , 17-H ) :   0.7149 B(  5-C ,  6-C ) :   0.6927
B(  5-C ,  7-C ) :   0.6927 B(  5-C ,  9-H ) :  -0.1255 B(  5-C , 10-H ) :  -0.1255
B(  5-C , 12-H ) :  -0.1255 B(  5-C , 13-H ) :  -0.1255 B(  6-C , 11-H ) :   0.9148
B(  6-C , 12-H ) :   1.1498 B(  6-C , 13-H ) :   1.1497 B(  7-C ,  8-H ) :   0.9148
B(  7-C ,  9-H ) :   1.1498 B(  7-C , 10-H ) :   1.1497

MP2 TOTAL ENERGY:     -310.149855037 Eh
FINAL SINGLE POINT ENERGY      -310.149855036656

DIPOLE MOMENT
-------------
                                X             Y             Z
Electronic contribution:     -5.81062       0.00000      -0.00020
Nuclear contribution   :      6.51622       0.00000       0.00023
                        -----------------------------------------
Total Dipole Moment    :      0.70560       0.00000       0.00003
                        -----------------------------------------
Magnitude (a.u.)       :      0.70560
Magnitude (Debye)      :      1.79348

Rotational constants in cm-1:     0.145043     0.051852     0.038742
Rotational constants in MHz :  4348.288988  1554.486809  1161.448595

                             ****ORCA TERMINATED NORMALLY****
TOTAL RUN TIME: 0 days 0 hours 3 minutes 31 seconds 180 msec
