                         Program Version 4.2.1 -  RELEASE  -
|  1> %pal
|  2>  nprocs 32
|  3> end
|  4> !RI-MP2 aug-cc-pVTZ aug-cc-pVTZ/C TightSCF
|  5> %maxcore 4500
|  6> *xyzfile 0 1  07_1P.xyz
|  7>
|  8>
|  9>                          ****END OF INPUT****

CARTESIAN COORDINATES (ANGSTROEM)
---------------------------------
  N     -0.335858   -1.162182   -0.000014
  C     -0.898158    0.030423   -0.000002
  C     -0.184483    1.229412    0.000012
  C      1.191395    1.148180    0.000019
  C      1.807057   -0.102447    0.000009
  C      0.998592   -1.221873   -0.000009
  O     -2.244924    0.082369   -0.000013
  H     -0.713753    2.172104    0.000019
  H      1.787125    2.053117    0.000032
  H      2.883930   -0.202259    0.000015
  H      1.427005   -2.218434   -0.000015
  H     -2.560330   -0.830377   -0.000025

 Total Charge           Charge          ....    0
 Multiplicity           Mult            ....    1
 Number of Electrons    NEL             ....   50
 Basis Dimension        Dim             ....  437

ORBITAL ENERGIES
----------------

  NO   OCC          E(Eh)            E(eV)
   0   2.0000     -20.595610      -560.4350
   1   2.0000     -15.563158      -423.4951
   2   2.0000     -11.340875      -308.6009
   3   2.0000     -11.281608      -306.9882
   4   2.0000     -11.263753      -306.5023
   5   2.0000     -11.237231      -305.7806
   6   2.0000     -11.233321      -305.6742
   7   2.0000      -1.427622       -38.8476
   8   2.0000      -1.258790       -34.2534
   9   2.0000      -1.096021       -29.8243
  10   2.0000      -1.029198       -28.0059
  11   2.0000      -0.880078       -23.9481
  12   2.0000      -0.855857       -23.2890
  13   2.0000      -0.750329       -20.4175
  14   2.0000      -0.709344       -19.3022
  15   2.0000      -0.667453       -18.1623
  16   2.0000      -0.622284       -16.9332
  17   2.0000      -0.614949       -16.7336
  18   2.0000      -0.597056       -16.2467
  19   2.0000      -0.572396       -15.5757
  20   2.0000      -0.534942       -14.5565
  21   2.0000      -0.512804       -13.9541
  22   2.0000      -0.433220       -11.7885
  23   2.0000      -0.392142       -10.6707
  24   2.0000      -0.331966        -9.0332
  25   0.0000       0.027202         0.7402
  26   0.0000       0.034552         0.9402
  27   0.0000       0.036103         0.9824
  28   0.0000       0.049162         1.3378
  29   0.0000       0.052491         1.4284

MULLIKEN ATOMIC CHARGES
-----------------------
   0 N :   -0.259053
   1 C :    0.365310
   2 C :   -0.324120
   3 C :   -0.573706
   4 C :   -0.077425
   5 C :   -0.655660
   6 O :   -0.561216
   7 H :    0.442275
   8 H :    0.478622
   9 H :    0.310008
  10 H :    0.631412
  11 H :    0.223553
Sum of atomic charges:   -0.0000000

LOEWDIN ATOMIC CHARGES
----------------------
   0 N :    0.390662
   1 C :   -0.590145
   2 C :    0.214047
   3 C :    0.181096
   4 C :    0.188495
   5 C :    0.004354
   6 O :    0.836124
   7 H :   -0.185756
   8 H :   -0.170275
   9 H :   -0.195613
  10 H :   -0.188096
  11 H :   -0.484893

  Mayer bond orders larger than 0.100000
B(  0-N ,  1-C ) :   1.1846 B(  0-N ,  4-C ) :  -0.1620 B(  0-N ,  5-C ) :   1.1780
B(  0-N ,  6-O ) :  -0.1565 B(  1-C ,  2-C ) :   0.8883 B(  1-C ,  3-C ) :   0.1086
B(  1-C ,  4-C ) :  -0.1244 B(  1-C ,  5-C ) :   0.3142 B(  1-C ,  6-O ) :   0.7331
B(  2-C ,  3-C ) :   1.3039 B(  2-C ,  7-H ) :   0.8510 B(  3-C ,  4-C ) :   1.0826
B(  3-C ,  5-C ) :   0.2561 B(  3-C ,  8-H ) :   0.8346 B(  3-C ,  9-H ) :  -0.1217
B(  4-C ,  5-C ) :   0.8958 B(  4-C ,  9-H ) :   1.0229 B(  5-C , 10-H ) :   0.4244
B(  6-O , 11-H ) :   0.9471

MP2 TOTAL ENERGY:     -322.923166766 Eh
FINAL SINGLE POINT ENERGY      -322.923166766051

DIPOLE MOMENT
-------------
                                X             Y             Z
Electronic contribution:     -2.19933      -0.77473      -0.00002
Nuclear contribution   :      2.75153       0.95643       0.00003
                        -----------------------------------------
Total Dipole Moment    :      0.55220       0.18171       0.00001
                        -----------------------------------------
Magnitude (a.u.)       :      0.58133
Magnitude (Debye)      :      1.47762

Rotational constants in cm-1:     0.196535     0.093006     0.063131
Rotational constants in MHz :  5891.967371  2788.237629  1892.605662

                             ****ORCA TERMINATED NORMALLY****
TOTAL RUN TIME: 0 days 0 hours 1 minutes 15 seconds 839 msec
