                         Program Version 4.2.1 -  RELEASE  -
|  1> %pal
|  2>  nprocs 32
|  3> end
|  4> !RI-MP2 aug-cc-pVTZ aug-cc-pVTZ/C TightSCF
|  5> %maxcore 4500
|  6> *xyzfile -1 1  09_7TS.xyz
|  7>
|  8>
|  9>                          ****END OF INPUT****

CARTESIAN COORDINATES (ANGSTROEM)
---------------------------------
  C     -2.636889    1.549948    0.191301
  C     -2.593975    0.026153    0.109689
  O     -3.301611   -0.518006   -0.767602
  C     -1.665646   -0.648516    0.914482
  C     -0.157286   -0.821202   -0.655523
  C      1.054474   -0.636528   -0.430232
  C      1.914719   -0.239915    0.684492
  O      3.320136   -0.165254    0.398502
  C      3.610401    0.746331   -0.626058
  H     -3.667961    1.868619    0.367464
  H     -1.993988    1.953747    0.976396
  H     -2.325999    1.963880   -0.772056
  H     -1.760196   -1.723551    1.013261
  H     -1.164239   -0.122508    1.718733
  H     -0.922773   -1.081904   -1.366225
  H      1.596377    0.742267    1.072283
  H      1.844409   -0.962187    1.502127
  H      4.686892    0.708251   -0.803351
  H      3.072375    0.488731   -1.545272
  H      3.332120    1.773101   -0.339466

 Total Charge           Charge          ....   -1
 Multiplicity           Mult            ....    1
 Number of Electrons    NEL             ....   70
 Basis Dimension        Dim             ....  667

ORBITAL ENERGIES
----------------

  NO   OCC          E(Eh)            E(eV)
   0   2.0000     -20.430406      -555.9396
   1   2.0000     -20.327402      -553.1367
   2   2.0000     -11.154758      -303.5364
   3   2.0000     -11.150495      -303.4204
   4   2.0000     -11.132320      -302.9258
   5   2.0000     -11.090622      -301.7912
   6   2.0000     -11.075948      -301.3919
   7   2.0000     -11.039104      -300.3893
   8   2.0000     -11.026746      -300.0530
   9   2.0000      -1.246353       -33.9150
  10   2.0000      -1.161853       -31.6156
  11   2.0000      -0.899665       -24.4811
  12   2.0000      -0.858570       -23.3629
  13   2.0000      -0.823598       -22.4112
  14   2.0000      -0.773701       -21.0535
  15   2.0000      -0.739494       -20.1226
  16   2.0000      -0.573742       -15.6123
  17   2.0000      -0.549578       -14.9548
  18   2.0000      -0.533369       -14.5137
  19   2.0000      -0.531569       -14.4647
  20   2.0000      -0.498759       -13.5719
  21   2.0000      -0.455011       -12.3815
  22   2.0000      -0.453292       -12.3347
  23   2.0000      -0.438171       -11.9232
  24   2.0000      -0.431352       -11.7377
  25   2.0000      -0.413510       -11.2522
  26   2.0000      -0.383847       -10.4450
  27   2.0000      -0.363727        -9.8975
  28   2.0000      -0.352229        -9.5846
  29   2.0000      -0.320753        -8.7281
  30   2.0000      -0.306623        -8.3436
  31   2.0000      -0.252374        -6.8674
  32   2.0000      -0.226104        -6.1526
  33   2.0000      -0.211865        -5.7651
  34   2.0000      -0.095649        -2.6027
  35   0.0000       0.105172         2.8619
  36   0.0000       0.115274         3.1368
  37   0.0000       0.121971         3.3190
  38   0.0000       0.124762         3.3949
  39   0.0000       0.130137         3.5412

MULLIKEN ATOMIC CHARGES
-----------------------
   0 C :   -0.824594
   1 C :    0.833063
   2 O :   -1.178269
   3 C :   -0.869786
   4 C :   -0.502005
   5 C :   -0.434964
   6 C :   -0.073002
   7 O :   -0.649663
   8 C :   -0.867167
   9 H :    0.258198
  10 H :    0.282787
  11 H :    0.263338
  12 H :    0.365758
  13 H :    0.281287
  14 H :    0.409054
  15 H :    0.275734
  16 H :    0.415055
  17 H :    0.348400
  18 H :    0.368924
  19 H :    0.297850
Sum of atomic charges:   -1.0000000

LOEWDIN ATOMIC CHARGES
----------------------
   0 C :    0.523584
   1 C :   -0.744935
   2 O :    0.336015
   3 C :    0.321719
   4 C :    0.259644
   5 C :    0.006657
   6 C :   -0.116828
   7 O :    0.513321
   8 C :    0.254161
   9 H :   -0.195365
  10 H :   -0.202685
  11 H :   -0.188191
  12 H :   -0.244468
  13 H :   -0.255101
  14 H :   -0.300059
  15 H :   -0.179925
  16 H :   -0.186454
  17 H :   -0.201908
  18 H :   -0.213178
  19 H :   -0.186005

  Mayer bond orders larger than 0.100000
B(  0-C ,  1-C ) :   0.7570 B(  0-C ,  9-H ) :   1.0121 B(  0-C , 10-H ) :   0.9393
B(  0-C , 11-H ) :   0.9539 B(  1-C ,  2-O ) :   0.8444 B(  1-C ,  3-C ) :   1.1842
B(  3-C ,  4-C ) :   0.4728 B(  3-C , 12-H ) :   0.8715 B(  3-C , 13-H ) :   0.9683
B(  4-C ,  5-C ) :   1.8315 B(  4-C , 14-H ) :   0.9850 B(  5-C ,  6-C ) :   1.0708
B(  5-C , 14-H ) :  -0.1656 B(  6-C ,  7-O ) :   0.6465 B(  6-C , 15-H ) :   0.8985
B(  6-C , 16-H ) :   0.8775 B(  7-O ,  8-C ) :   1.0155 B(  8-C , 17-H ) :   0.9272
B(  8-C , 18-H ) :   0.8461 B(  8-C , 19-H ) :   0.9062

MP2 TOTAL ENERGY:     -422.917709150 Eh
FINAL SINGLE POINT ENERGY      -422.917709150175

DIPOLE MOMENT
-------------
                                X             Y             Z
Electronic contribution:     -0.88986      -4.35085      -1.12888
Nuclear contribution   :      2.74873       5.70438       1.85273
                        -----------------------------------------
Total Dipole Moment    :      1.85886       1.35354       0.72386
                        -----------------------------------------
Magnitude (a.u.)       :      2.41068
Magnitude (Debye)      :      6.12747

Rotational constants in cm-1:     0.125821     0.018853     0.018330
Rotational constants in MHz :  3772.008152   565.187038   549.524132

                             ****ORCA TERMINATED NORMALLY****
TOTAL RUN TIME: 0 days 0 hours 4 minutes 8 seconds 702 msec
