                         Program Version 4.2.1 -  RELEASE  -
|  1> %pal
|  2>  nprocs 32
|  3> end
|  4> !RI-MP2 aug-cc-pVTZ aug-cc-pVTZ/C TightSCF
|  5> %maxcore 4500
|  6> *xyzfile 1 1  05_21P1.xyz
|  7>
|  8>
|  9>                          ****END OF INPUT****

CARTESIAN COORDINATES (ANGSTROEM)
---------------------------------
  C     -3.801159    0.455886   -0.000036
  C     -2.530765   -0.101321   -0.000010
  C     -3.683913   -0.872361   -0.000050
  H     -4.436696    1.327287   -0.000007
  H     -4.157615   -1.841297   -0.000082
  C     -1.142975    0.025334   -0.000001
  C     -0.539168    1.306274    0.000026
  C     -0.325022   -1.122481   -0.000020
  C      0.818573    1.425851    0.000029
  H     -1.160715    2.193390    0.000043
  C      1.041302   -1.010528   -0.000017
  H     -0.781115   -2.105188   -0.000041
  C      1.627144    0.269517    0.000010
  H      1.308028    2.390401    0.000049
  H      1.654632   -1.899200   -0.000036
  O      2.926685    0.487852    0.000014
  C      3.849457   -0.607418    0.000040
  H      4.835047   -0.152904    0.000096
  H      3.722012   -1.213923    0.897942
  H      3.722099   -1.213890   -0.897896

 Total Charge           Charge          ....    1
 Multiplicity           Mult            ....    1
 Number of Electrons    NEL             ....   76
 Basis Dimension        Dim             ....  713

ORBITAL ENERGIES
----------------

  NO   OCC          E(Eh)            E(eV)
   0   2.0000     -20.730749      -564.1124
   1   2.0000     -11.498357      -312.8862
   2   2.0000     -11.486819      -312.5722
   3   2.0000     -11.485136      -312.5264
   4   2.0000     -11.471343      -312.1511
   5   2.0000     -11.413080      -310.5657
   6   2.0000     -11.406145      -310.3770
   7   2.0000     -11.403205      -310.2970
   8   2.0000     -11.399572      -310.1981
   9   2.0000     -11.375211      -309.5352
  10   2.0000     -11.369952      -309.3921
  11   2.0000      -1.566544       -42.6278
  12   2.0000      -1.440163       -39.1888
  13   2.0000      -1.313423       -35.7400
  14   2.0000      -1.195129       -32.5211
  15   2.0000      -1.183168       -32.1956
  16   2.0000      -1.097510       -29.8648
  17   2.0000      -1.017147       -27.6780
  18   2.0000      -1.003712       -27.3124
  19   2.0000      -0.979691       -26.6587
  20   2.0000      -0.949337       -25.8328
  21   2.0000      -0.898726       -24.4556
  22   2.0000      -0.856920       -23.3180
  23   2.0000      -0.826753       -22.4971
  24   2.0000      -0.788996       -21.4697
  25   2.0000      -0.774580       -21.0774
  26   2.0000      -0.751582       -20.4516
  27   2.0000      -0.746416       -20.3110
  28   2.0000      -0.730572       -19.8799
  29   2.0000      -0.725586       -19.7442
  30   2.0000      -0.694016       -18.8851
  31   2.0000      -0.688581       -18.7372
  32   2.0000      -0.664199       -18.0738
  33   2.0000      -0.657412       -17.8891
  34   2.0000      -0.620880       -16.8950
  35   2.0000      -0.611597       -16.6424
  36   2.0000      -0.501313       -13.6414
  37   2.0000      -0.467415       -12.7190
  38   0.0000      -0.096965        -2.6386
  39   0.0000      -0.075502        -2.0545
  40   0.0000      -0.073266        -1.9937
  41   0.0000      -0.064342        -1.7508
  42   0.0000      -0.056450        -1.5361

MULLIKEN ATOMIC CHARGES
-----------------------
   0 C :   -0.748088
   1 C :    1.429526
   2 C :   -0.868177
   3 H :    0.449284
   4 H :    0.442265
   5 C :    2.380703
   6 C :   -1.216665
   7 C :   -1.216602
   8 C :   -0.817841
   9 H :   -0.197256
  10 C :   -0.415012
  11 H :   -0.177479
  12 C :    1.446781
  13 H :    0.655652
  14 H :    0.425345
  15 O :   -0.842705
  16 C :   -0.883718
  17 H :    0.392552
  18 H :    0.380718
  19 H :    0.380716
Sum of atomic charges:    1.0000000

LOEWDIN ATOMIC CHARGES
----------------------
   0 C :    0.431442
   1 C :   -0.012069
   2 C :    0.430848
   3 H :   -0.122023
   4 H :   -0.122525
   5 C :   -0.119211
   6 C :    0.234173
   7 C :    0.238451
   8 C :    0.261638
   9 H :   -0.149916
  10 C :    0.259780
  11 H :   -0.147656
  12 C :   -0.353382
  13 H :   -0.164476
  14 H :   -0.190994
  15 O :    0.611155
  16 C :    0.407118
  17 H :   -0.165249
  18 H :   -0.163553
  19 H :   -0.163550

  Mayer bond orders larger than 0.100000
B(  0-C ,  1-C ) :   0.3992 B(  0-C ,  2-C ) :   1.3977 B(  0-C ,  3-H ) :   1.0554
B(  0-C ,  9-H ) :  -0.1329 B(  0-C , 11-H ) :  -0.1168 B(  0-C , 14-H ) :   0.1035
B(  1-C ,  2-C ) :   0.1727 B(  1-C ,  5-C ) :   0.1125 B(  1-C ,  6-C ) :   0.5393
B(  1-C ,  7-C ) :   0.4826 B(  1-C ,  9-H ) :  -0.3876 B(  1-C , 11-H ) :  -0.2894
B(  1-C , 13-H ) :   0.3710 B(  1-C , 14-H ) :   0.4389 B(  1-C , 15-O ) :  -0.1007
B(  2-C ,  4-H ) :   1.0643 B(  2-C ,  5-C ) :   0.1712 B(  2-C ,  6-C ) :   0.1212
B(  2-C ,  9-H ) :  -0.1231 B(  2-C , 13-H ) :   0.1016 B(  5-C ,  6-C ) :  -0.4320
B(  5-C ,  7-C ) :  -0.3981 B(  5-C ,  8-C ) :   0.2949 B(  5-C ,  9-H ) :  -0.3789
B(  5-C , 10-C ) :   0.5211 B(  5-C , 11-H ) :  -0.4985 B(  5-C , 12-C ) :   0.1987
B(  5-C , 13-H ) :  -0.2830 B(  5-C , 14-H ) :  -0.3614 B(  5-C , 15-O ) :   0.1617
B(  6-C ,  7-C ) :  -0.6647 B(  6-C ,  8-C ) :   1.5207 B(  6-C ,  9-H ) :   2.3355
B(  6-C , 11-H ) :   0.3892 B(  6-C , 12-C ) :  -0.3602 B(  6-C , 14-H ) :  -0.1427
B(  7-C ,  9-H ) :   0.3658 B(  7-C , 10-C ) :   1.2400 B(  7-C , 11-H ) :   2.2626
B(  7-C , 12-C ) :  -0.3480 B(  8-C , 10-C ) :   0.1055 B(  8-C , 12-C ) :   0.9307
B(  8-C , 13-H ) :   0.3381 B(  8-C , 15-O ) :   0.2818 B(  9-H , 11-H ) :   0.2673
B(  9-H , 12-C ) :  -0.1067 B(  9-H , 13-H ) :  -0.1042 B( 10-C , 11-H ) :  -0.2359
B( 10-C , 12-C ) :   1.0139 B( 10-C , 14-H ) :   0.7893 B( 10-C , 15-O ) :  -0.2510
B( 12-C , 13-H ) :   0.1601 B( 12-C , 14-H ) :   0.1540 B( 12-C , 15-O ) :   0.4469
B( 15-O , 16-C ) :   0.9549 B( 16-C , 17-H ) :   0.9022 B( 16-C , 18-H ) :   0.8650
B( 16-C , 19-H ) :   0.8650

MP2 TOTAL ENERGY:     -460.431302276 Eh
FINAL SINGLE POINT ENERGY      -460.431302276302

DIPOLE MOMENT
-------------
                                X             Y             Z
Electronic contribution:     -7.53034       1.78975      -0.00009
Nuclear contribution   :      4.73318      -2.49780       0.00007
                        -----------------------------------------
Total Dipole Moment    :     -2.79717      -0.70805      -0.00002
                        -----------------------------------------
Magnitude (a.u.)       :      2.88539
Magnitude (Debye)      :      7.33408

Rotational constants in cm-1:     0.138664     0.018760     0.016577
Rotational constants in MHz :  4157.037339   562.399337   496.963688

                             ****ORCA TERMINATED NORMALLY****
TOTAL RUN TIME: 0 days 0 hours 6 minutes 6 seconds 48 msec
