                         Program Version 4.2.1 -  RELEASE  -
|  1> %pal
|  2>  nprocs 32
|  3> end
|  4> !RI-MP2 aug-cc-pVTZ aug-cc-pVTZ/C TightSCF
|  5> %maxcore 4500
|  6> *xyzfile 1 1  05_42TS.xyz
|  7>
|  8>
|  9>                          ****END OF INPUT****

CARTESIAN COORDINATES (ANGSTROEM)
---------------------------------
  C     -1.758834    0.997972   -1.095370
  C     -1.568097   -1.669062   -0.824844
  C     -3.096691   -1.680724   -0.958396
  C     -3.744269   -0.431098   -0.399705
  C     -3.261939    0.749596   -1.228956
  H     -3.367002   -1.778656   -2.014778
  H     -3.461832   -2.573138   -0.446779
  H     -3.457195   -0.282557    0.642988
  H     -3.516144    0.566803   -2.277393
  H     -3.777239    1.657673   -0.917247
  N     -1.023950   -0.305709   -1.117448
  O      0.234094   -0.243115   -1.303933
  C     -1.273908    1.840228   -2.274347
  H     -1.874396    2.749706   -2.319066
  H     -0.231588    2.127646   -2.165403
  H     -1.397756    1.300650   -3.214204
  C     -1.454188    1.720518    0.224218
  H     -0.387958    1.919959    0.319967
  H     -1.973731    2.679033    0.221123
  H     -1.805822    1.159573    1.089715
  C     -0.969712   -2.642416   -1.841373
  H      0.111008   -2.713301   -1.750435
  H     -1.397402   -3.631890   -1.674004
  H     -1.208968   -2.332700   -2.859566
  C     -1.159952   -2.071334    0.599007
  H     -1.503014   -3.089189    0.788207
  H     -0.079354   -2.053408    0.722165
  H     -1.600968   -1.416935    1.349827
  H      0.980093   -0.074083   -0.352265
  C      1.288279   -1.692181    4.118624
  C      2.321894   -2.188865    3.335830
  C      2.607324   -1.615589    2.108053
  C      1.865848   -0.522701    1.640510
  C      0.834019   -0.025849    2.451470
  C      0.545981   -0.605233    3.672512
  H      1.068436   -2.143322    5.078222
  H      2.919023   -3.020147    3.688950
  H      3.433589   -1.995135    1.524024
  H      0.251058    0.819164    2.116177
  H     -0.257215   -0.208127    4.280634
  C      2.166233    0.117131    0.336467
  C      3.037206   -0.624376   -0.610731
  C      4.182576   -0.037003   -1.161071
  C      2.742088   -1.952276   -0.949188
  C      5.003900   -0.757254   -2.011976
  H      4.449734    0.975731   -0.893595
  C      3.553835   -2.664516   -1.810626
  H      1.865204   -2.425296   -0.529196
  C      4.688889   -2.067091   -2.346573
  H      5.897529   -0.294662   -2.411430
  H      3.305357   -3.686932   -2.066101
  H      5.329212   -2.624539   -3.018810
  C      2.249091    1.599456    0.292652
  C      2.167747    2.259148   -0.942831
  C      2.441144    2.366284    1.447286
  C      2.249063    3.636272   -1.016826
  H      2.031434    1.678257   -1.845478
  C      2.536301    3.746366    1.367832
  H      2.549769    1.880283    2.406594
  C      2.430938    4.385666    0.140650
  H      2.175850    4.130092   -1.977727
  H      2.702526    4.323686    2.268531
  H      2.501320    5.464750    0.083037
  N     -5.187569   -0.541056   -0.402885
  C     -5.933274    0.263658    0.411201
  C     -7.427591    0.100388    0.330088
  H     -7.743171   -0.669232   -0.374607
  H     -7.804307   -0.146098    1.322998
  H     -7.868287    1.054954    0.041074
  O     -5.398546    1.061148    1.159032
  H     -5.644943   -1.156197   -1.056150

 Total Charge           Charge          ....    1
 Multiplicity           Mult            ....    1
 Number of Electrons    NEL             ....  246
 Basis Dimension        Dim             .... 2415

ORBITAL ENERGIES
----------------

  NO   OCC          E(Eh)            E(eV)
   0   2.0000     -20.787931      -565.6684
   1   2.0000     -20.595957      -560.4445
   2   2.0000     -15.792533      -429.7367
   3   2.0000     -15.671180      -426.4345
   4   2.0000     -11.429426      -311.0105
   5   2.0000     -11.428879      -310.9956
   6   2.0000     -11.402457      -310.2766
   7   2.0000     -11.396068      -310.1028
   8   2.0000     -11.367214      -309.3176
   9   2.0000     -11.366939      -309.3101
  10   2.0000     -11.364319      -309.2388
  11   2.0000     -11.363313      -309.2115
  12   2.0000     -11.353678      -308.9493
  13   2.0000     -11.353251      -308.9377
  14   2.0000     -11.352046      -308.9049
  15   2.0000     -11.351713      -308.8958
  16   2.0000     -11.350761      -308.8699
  17   2.0000     -11.350719      -308.8688
  18   2.0000     -11.349999      -308.8492
  19   2.0000     -11.348145      -308.7987
  20   2.0000     -11.346680      -308.7589
  21   2.0000     -11.342693      -308.6504
  22   2.0000     -11.341952      -308.6302
  23   2.0000     -11.340949      -308.6029
  24   2.0000     -11.339819      -308.5722
  25   2.0000     -11.339749      -308.5702
  26   2.0000     -11.339180      -308.5548
  27   2.0000     -11.337653      -308.5132
  28   2.0000     -11.328499      -308.2641
  29   2.0000     -11.325692      -308.1877
  30   2.0000     -11.325295      -308.1769
  31   2.0000     -11.323399      -308.1254
  32   2.0000     -11.319543      -308.0204
  33   2.0000     -11.308587      -307.7223
  34   2.0000      -1.624487       -44.2045
  35   2.0000      -1.465701       -39.8838
  36   2.0000      -1.330533       -36.2057
  37   2.0000      -1.308105       -35.5954
  38   2.0000      -1.288677       -35.0667
  39   2.0000      -1.269042       -34.5324
  40   2.0000      -1.266857       -34.4729
  41   2.0000      -1.221877       -33.2490
  42   2.0000      -1.207952       -32.8701
  43   2.0000      -1.155240       -31.4357
  44   2.0000      -1.140111       -31.0240
  45   2.0000      -1.139551       -31.0088
  46   2.0000      -1.128911       -30.7192
  47   2.0000      -1.125436       -30.6247
  48   2.0000      -1.124345       -30.5950
  49   2.0000      -1.104503       -30.0550
  50   2.0000      -1.072836       -29.1933
  51   2.0000      -1.058140       -28.7934
  52   2.0000      -1.048281       -28.5252
  53   2.0000      -1.043514       -28.3955
  54   2.0000      -1.042787       -28.3757
  55   2.0000      -0.956951       -26.0400
  56   2.0000      -0.955551       -26.0019
  57   2.0000      -0.948623       -25.8133
  58   2.0000      -0.938267       -25.5315
  59   2.0000      -0.935092       -25.4451
  60   2.0000      -0.932718       -25.3805
  61   2.0000      -0.931578       -25.3495
  62   2.0000      -0.898642       -24.4533
  63   2.0000      -0.881240       -23.9798
  64   2.0000      -0.873207       -23.7612
  65   2.0000      -0.823266       -22.4022
  66   2.0000      -0.822573       -22.3833
  67   2.0000      -0.806542       -21.9471
  68   2.0000      -0.804653       -21.8957
  69   2.0000      -0.798121       -21.7180
  70   2.0000      -0.790379       -21.5073
  71   2.0000      -0.770571       -20.9683
  72   2.0000      -0.762966       -20.7614
  73   2.0000      -0.762483       -20.7482
  74   2.0000      -0.754612       -20.5340
  75   2.0000      -0.740280       -20.1440
  76   2.0000      -0.738989       -20.1089
  77   2.0000      -0.738108       -20.0849
  78   2.0000      -0.728164       -19.8143
  79   2.0000      -0.723931       -19.6992
  80   2.0000      -0.718207       -19.5434
  81   2.0000      -0.707320       -19.2472
  82   2.0000      -0.703942       -19.1552
  83   2.0000      -0.702778       -19.1236
  84   2.0000      -0.701109       -19.0782
  85   2.0000      -0.698938       -19.0191
  86   2.0000      -0.694484       -18.8979
  87   2.0000      -0.692365       -18.8402
  88   2.0000      -0.689394       -18.7594
  89   2.0000      -0.679333       -18.4856
  90   2.0000      -0.676681       -18.4134
  91   2.0000      -0.670171       -18.2363
  92   2.0000      -0.661126       -17.9902
  93   2.0000      -0.650092       -17.6899
  94   2.0000      -0.646004       -17.5787
  95   2.0000      -0.637536       -17.3482
  96   2.0000      -0.635084       -17.2815
  97   2.0000      -0.632458       -17.2101
  98   2.0000      -0.626009       -17.0346
  99   2.0000      -0.624657       -16.9978
 100   2.0000      -0.618968       -16.8430
 101   2.0000      -0.617630       -16.8066
 102   2.0000      -0.614380       -16.7181
 103   2.0000      -0.612135       -16.6570
 104   2.0000      -0.611194       -16.6314
 105   2.0000      -0.605982       -16.4896
 106   2.0000      -0.603512       -16.4224
 107   2.0000      -0.597887       -16.2693
 108   2.0000      -0.594673       -16.1819
 109   2.0000      -0.589171       -16.0321
 110   2.0000      -0.587663       -15.9911
 111   2.0000      -0.582654       -15.8548
 112   2.0000      -0.567820       -15.4512
 113   2.0000      -0.565197       -15.3798
 114   2.0000      -0.526084       -14.3155
 115   2.0000      -0.504207       -13.7202
 116   2.0000      -0.478563       -13.0223
 117   2.0000      -0.458472       -12.4756
 118   2.0000      -0.451467       -12.2850
 119   2.0000      -0.450951       -12.2710
 120   2.0000      -0.442767       -12.0483
 121   2.0000      -0.441350       -12.0098
 122   2.0000      -0.406201       -11.0533
 123   0.0000      -0.152058        -4.1377
 124   0.0000      -0.049246        -1.3401
 125   0.0000      -0.042548        -1.1578
 126   0.0000      -0.042210        -1.1486
 127   0.0000      -0.039570        -1.0768

MULLIKEN ATOMIC CHARGES
-----------------------
   0 C :    2.248444
   1 C :    2.176090
   2 C :   -1.636070
   3 C :    1.049384
   4 C :   -1.261111
   5 H :    0.117786
   6 H :    0.218916
   7 H :    0.696576
   8 H :    0.181723
   9 H :    0.282046
  10 N :    1.051785
  11 O :   -1.270081
  12 C :   -2.242315
  13 H :    0.133268
  14 H :    0.651768
  15 H :    0.149440
  16 C :   -1.581359
  17 H :    0.850065
  18 H :    0.089294
  19 H :    0.274951
  20 C :   -2.141226
  21 H :    0.692669
  22 H :    0.096168
  23 H :    0.212679
  24 C :   -1.683340
  25 H :    0.028708
  26 H :    0.637941
  27 H :    0.402146
  28 H :    0.271841
  29 C :   -0.186254
  30 C :   -0.942444
  31 C :   -0.642583
  32 C :    1.726766
  33 C :    0.145509
  34 C :   -1.330854
  35 H :    0.661260
  36 H :    0.516085
  37 H :    0.127403
  38 H :    0.639924
  39 H :    0.405458
  40 C :   -1.760095
  41 C :    2.514996
  42 C :   -0.992409
  43 C :    0.063482
  44 C :   -0.900747
  45 H :   -0.082299
  46 C :   -1.273819
  47 H :    0.498153
  48 C :   -0.263720
  49 H :    0.576163
  50 H :    0.538132
  51 H :    0.552195
  52 C :    1.412918
  53 C :   -0.082082
  54 C :   -0.677495
  55 C :   -1.019813
  56 H :    0.227239
  57 C :   -0.926097
  58 H :    0.232451
  59 C :   -0.156233
  60 H :    0.526299
  61 H :    0.477264
  62 H :    0.634042
  63 N :   -0.556752
  64 C :    0.803836
  65 C :   -0.939158
  66 H :    0.269985
  67 H :    0.323238
  68 H :    0.323730
  69 O :   -1.056415
  70 H :   -0.105447
Sum of atomic charges:    1.0000000

LOEWDIN ATOMIC CHARGES
----------------------
   0 C :   -0.357781
   1 C :   -0.356920
   2 C :    0.331168
   3 C :   -0.106492
   4 C :    0.331402
   5 H :   -0.126178
   6 H :   -0.117821
   7 H :   -0.160556
   8 H :   -0.122259
   9 H :   -0.131081
  10 N :    0.123267
  11 O :    0.750164
  12 C :    0.617321
  13 H :   -0.138027
  14 H :   -0.195961
  15 H :   -0.141618
  16 C :    0.631333
  17 H :   -0.195324
  18 H :   -0.128394
  19 H :   -0.153097
  20 C :    0.617762
  21 H :   -0.193280
  22 H :   -0.139436
  23 H :   -0.141608
  24 C :    0.625717
  25 H :   -0.133355
  26 H :   -0.197261
  27 H :   -0.153720
  28 H :   -0.499090
  29 C :    0.237434
  30 C :    0.242804
  31 C :    0.249636
  32 C :   -0.089581
  33 C :    0.207000
  34 C :    0.241675
  35 H :   -0.162817
  36 H :   -0.167552
  37 H :   -0.178349
  38 H :   -0.201068
  39 H :   -0.164470
  40 C :   -0.034319
  41 C :   -0.087116
  42 C :    0.250877
  43 C :    0.216343
  44 C :    0.241426
  45 H :   -0.174801
  46 C :    0.243249
  47 H :   -0.193402
  48 C :    0.234879
  49 H :   -0.168959
  50 H :   -0.168489
  51 H :   -0.164518
  52 C :   -0.101627
  53 C :    0.201667
  54 C :    0.246848
  55 C :    0.238971
  56 H :   -0.166228
  57 C :    0.242006
  58 H :   -0.176236
  59 C :    0.236205
  60 H :   -0.165908
  61 H :   -0.167867
  62 H :   -0.163587
  63 N :    0.593377
  64 C :   -0.663495
  65 C :    0.611335
  66 H :   -0.179133
  67 H :   -0.165670
  68 H :   -0.165432
  69 O :    0.467910
  70 H :   -0.271892

  Mayer bond orders larger than 0.100000
B(  0-C ,  1-C ) :  -0.5999 B(  0-C ,  2-C ) :  -0.1054 B(  0-C ,  4-C ) :  -0.1290
B(  0-C ,  8-H ) :  -0.1765 B(  0-C , 10-N ) :   0.5999 B(  0-C , 11-O ) :   0.2709
B(  0-C , 13-H ) :  -0.1509 B(  0-C , 15-H ) :  -0.2125 B(  0-C , 16-C ) :   0.2374
B(  0-C , 18-H ) :  -0.1441 B(  0-C , 28-H ) :   0.2728 B(  0-C , 33-C ) :  -0.1279
B(  0-C , 52-C ) :  -0.1843 B(  1-C ,  3-C ) :   0.1471 B(  1-C ,  5-H ) :  -0.1912
B(  1-C , 10-N ) :   1.1220 B(  1-C , 12-C ) :  -0.1211 B(  1-C , 22-H ) :  -0.1909
B(  1-C , 23-H ) :  -0.1829 B(  1-C , 24-C ) :   0.1168 B(  1-C , 25-H ) :  -0.1277
B(  1-C , 28-H ) :  -0.1313 B(  1-C , 32-C ) :  -0.1024 B(  1-C , 33-C ) :   0.1032
B(  2-C ,  3-C ) :   0.4769 B(  2-C ,  4-C ) :   0.3099 B(  2-C ,  5-H ) :   1.4883
B(  2-C ,  6-H ) :   1.0037 B(  2-C ,  7-H ) :  -0.1365 B(  2-C , 63-N ) :   0.2607
B(  3-C ,  4-C ) :   0.7904 B(  3-C ,  7-H ) :   0.6994 B(  3-C , 10-N ) :  -0.1676
B(  3-C , 65-C ) :   0.1255 B(  3-C , 69-O ) :   0.2043 B(  4-C ,  7-H ) :   0.1831
B(  4-C ,  8-H ) :   1.2497 B(  4-C ,  9-H ) :   1.1093 B(  4-C , 10-N ) :  -0.2511
B(  4-C , 63-N ) :   0.1575 B(  4-C , 69-O ) :   0.1158 B(  7-H , 63-N ) :  -0.4665
B(  7-H , 64-C ) :  -0.1747 B(  7-H , 69-O ) :  -0.4002 B( 10-N , 11-O ) :   0.9671
B( 10-N , 12-C ) :  -0.4282 B( 10-N , 15-H ) :  -0.1995 B( 10-N , 16-C ) :   0.1100
B( 10-N , 20-C ) :  -0.3312 B( 10-N , 21-H ) :   0.1321 B( 10-N , 23-H ) :  -0.2351
B( 10-N , 26-H ) :   0.1080 B( 10-N , 28-H ) :   0.3789 B( 10-N , 31-C ) :  -0.1687
B( 10-N , 32-C ) :   0.1061 B( 10-N , 33-C ) :   0.1279 B( 10-N , 40-C ) :  -0.2977
B( 10-N , 41-C ) :  -0.1942 B( 10-N , 52-C ) :   0.2071 B( 10-N , 54-C ) :  -0.1021
B( 11-O , 12-C ) :   0.2688 B( 11-O , 16-C ) :  -0.1255 B( 11-O , 20-C ) :   0.2717
B( 11-O , 23-H ) :   0.1334 B( 11-O , 28-H ) :  -1.1711 B( 11-O , 32-C ) :   0.1369
B( 11-O , 40-C ) :  -0.4522 B( 11-O , 52-C ) :   0.1571 B( 12-C , 13-H ) :   1.3840
B( 12-C , 14-H ) :   0.7620 B( 12-C , 15-H ) :   1.4089 B( 12-C , 53-C ) :   0.1084
B( 14-H , 55-C ) :  -0.1422 B( 16-C , 17-H ) :   0.5066 B( 16-C , 18-H ) :   1.2532
B( 16-C , 19-H ) :   1.0903 B( 17-H , 40-C ) :  -0.1579 B( 17-H , 52-C ) :   0.1194
B( 17-H , 54-C ) :  -0.1029 B( 20-C , 21-H ) :   0.5739 B( 20-C , 22-H ) :   1.4265
B( 20-C , 23-H ) :   1.3165 B( 20-C , 26-H ) :  -0.1111 B( 24-C , 25-H ) :   1.3582
B( 24-C , 26-H ) :   0.5317 B( 24-C , 27-H ) :   1.0033 B( 26-H , 27-H ) :   0.1208
B( 27-H , 32-C ) :   0.1062 B( 28-H , 30-C ) :   0.1417 B( 28-H , 32-C ) :   0.9209
B( 28-H , 33-C ) :  -0.4100 B( 28-H , 40-C ) :   0.7244 B( 28-H , 41-C ) :   0.4478
B( 28-H , 42-C ) :  -0.3991 B( 28-H , 43-C ) :  -0.1057 B( 28-H , 44-C ) :   0.1091
B( 28-H , 46-C ) :  -0.1621 B( 28-H , 47-H ) :  -0.1098 B( 28-H , 52-C ) :   1.5563
B( 28-H , 54-C ) :  -0.4066 B( 28-H , 56-H ) :  -0.1509 B( 28-H , 58-H ) :  -0.1586
B( 29-C , 30-C ) :   1.0386 B( 29-C , 31-C ) :   0.2404 B( 29-C , 32-C ) :  -0.2553
B( 29-C , 33-C ) :   0.4745 B( 29-C , 34-C ) :   1.0987 B( 29-C , 35-H ) :   0.4561
B( 29-C , 38-H ) :  -0.2486 B( 29-C , 40-C ) :   0.3057 B( 30-C , 31-C ) :   1.0578
B( 30-C , 32-C ) :   0.1625 B( 30-C , 34-C ) :   0.2925 B( 30-C , 35-H ) :  -0.1832
B( 30-C , 36-H ) :   0.6002 B( 30-C , 38-H ) :  -0.1144 B( 30-C , 56-H ) :   0.1069
B( 31-C , 32-C ) :  -0.3969 B( 31-C , 33-C ) :  -0.4307 B( 31-C , 34-C ) :  -0.1308
B( 31-C , 35-H ) :   0.1415 B( 31-C , 37-H ) :   1.3986 B( 31-C , 38-H ) :   0.1656
B( 31-C , 40-C ) :   1.0711 B( 31-C , 41-C ) :  -0.4403 B( 31-C , 42-C ) :   0.1665
B( 31-C , 43-C ) :   0.1665 B( 31-C , 46-C ) :  -0.1486 B( 31-C , 47-H ) :  -0.1600
B( 31-C , 53-C ) :   0.1756 B( 31-C , 54-C ) :   0.1223 B( 31-C , 56-H ) :  -0.2233
B( 31-C , 61-H ) :   0.1135 B( 32-C , 33-C ) :   0.8800 B( 32-C , 37-H ) :  -0.1506
B( 32-C , 38-H ) :   0.2010 B( 32-C , 40-C ) :   0.8177 B( 32-C , 41-C ) :  -0.2934
B( 32-C , 42-C ) :  -0.5385 B( 32-C , 46-C ) :   0.2693 B( 32-C , 48-C ) :  -0.1014
B( 32-C , 49-H ) :   0.1100 B( 32-C , 50-H ) :   0.1026 B( 32-C , 51-H ) :  -0.1269
B( 32-C , 52-C ) :  -0.6917 B( 32-C , 54-C ) :  -0.1406 B( 32-C , 56-H ) :   0.1796
B( 32-C , 57-C ) :  -0.3074 B( 32-C , 58-H ) :   0.1232 B( 32-C , 60-H ) :  -0.1073
B( 33-C , 34-C ) :   1.3401 B( 33-C , 35-H ) :  -0.1836 B( 33-C , 37-H ) :   0.1545
B( 33-C , 39-H ) :   0.1563 B( 33-C , 40-C ) :  -0.4587 B( 33-C , 42-C ) :   0.1842
B( 33-C , 43-C ) :   0.1434 B( 33-C , 52-C ) :   0.2347 B( 33-C , 53-C ) :   0.1130
B( 33-C , 54-C ) :  -0.1270 B( 33-C , 56-H ) :   0.1576 B( 34-C , 35-H ) :  -0.1494
B( 34-C , 37-H ) :  -0.1748 B( 34-C , 38-H ) :  -0.1064 B( 34-C , 39-H ) :   0.8550
B( 34-C , 40-C ) :   0.2193 B( 34-C , 52-C ) :   0.1138 B( 35-H , 40-C ) :   0.2064
B( 36-H , 40-C ) :  -0.2258 B( 36-H , 52-C ) :   0.1442 B( 37-H , 38-H ) :   0.1652
B( 37-H , 40-C ) :  -0.3842 B( 37-H , 41-C ) :   0.1530 B( 37-H , 56-H ) :   0.1158
B( 38-H , 40-C ) :  -0.1953 B( 38-H , 45-H ) :   0.1108 B( 38-H , 52-C ) :  -0.1207
B( 38-H , 54-C ) :  -0.1009 B( 38-H , 56-H ) :   0.1056 B( 39-H , 40-C ) :  -0.1412
B( 40-C , 41-C ) :   0.8158 B( 40-C , 42-C ) :   0.9881 B( 40-C , 43-C ) :  -0.6005
B( 40-C , 44-C ) :   0.1873 B( 40-C , 45-H ) :  -0.7876 B( 40-C , 46-C ) :   0.4114
B( 40-C , 47-H ) :  -0.1542 B( 40-C , 48-C ) :   0.3424 B( 40-C , 49-H ) :  -0.4745
B( 40-C , 50-H ) :  -0.4220 B( 40-C , 51-H ) :   0.8555 B( 40-C , 52-C ) :   0.5298
B( 40-C , 54-C ) :   0.5150 B( 40-C , 55-C ) :   0.1823 B( 40-C , 56-H ) :  -0.4687
B( 40-C , 57-C ) :   0.4578 B( 40-C , 58-H ) :  -0.3740 B( 40-C , 59-C ) :   0.2756
B( 40-C , 60-H ) :   0.1543 B( 40-C , 62-H ) :   0.1733 B( 41-C , 42-C ) :  -0.5753
B( 41-C , 43-C ) :   0.7256 B( 41-C , 45-H ) :  -0.3452 B( 41-C , 46-C ) :  -0.7972
B( 41-C , 47-H ) :   0.5360 B( 41-C , 49-H ) :   0.1007 B( 41-C , 51-H ) :  -0.1153
B( 41-C , 52-C ) :  -0.4921 B( 41-C , 53-C ) :   0.1108 B( 41-C , 54-C ) :   0.1192
B( 41-C , 56-H ) :   0.2175 B( 41-C , 57-C ) :  -0.1089 B( 42-C , 43-C ) :  -0.7636
B( 42-C , 44-C ) :   1.3740 B( 42-C , 45-H ) :   2.0960 B( 42-C , 47-H ) :   0.1761
B( 42-C , 48-C ) :   0.1242 B( 42-C , 51-H ) :   0.1334 B( 42-C , 52-C ) :  -0.4450
B( 42-C , 54-C ) :   0.3323 B( 43-C , 45-H ) :   0.1513 B( 43-C , 46-C ) :   1.3416
B( 43-C , 48-C ) :   0.2060 B( 43-C , 50-H ) :   0.2892 B( 43-C , 51-H ) :  -0.1734
B( 43-C , 54-C ) :   0.2394 B( 44-C , 46-C ) :   0.5403 B( 44-C , 47-H ) :  -0.2966
B( 44-C , 48-C ) :   1.1292 B( 44-C , 49-H ) :   0.5472 B( 44-C , 51-H ) :  -0.2627
B( 44-C , 52-C ) :  -0.1131 B( 45-H , 46-C ) :  -0.2555 B( 45-H , 47-H ) :   0.2770
B( 45-H , 52-C ) :   0.2664 B( 45-H , 53-C ) :  -0.1287 B( 45-H , 54-C ) :   0.2190
B( 45-H , 55-C ) :  -0.1124 B( 45-H , 58-H ) :   0.1503 B( 46-C , 47-H ) :   0.2335
B( 46-C , 48-C ) :   1.0823 B( 46-C , 50-H ) :   0.5002 B( 46-C , 51-H ) :  -0.1964
B( 47-H , 48-C ) :  -0.3154 B( 47-H , 51-H ) :   0.1316 B( 47-H , 57-C ) :   0.1115
B( 48-C , 51-H ) :   0.6209 B( 48-C , 52-C ) :  -0.2298 B( 49-H , 52-C ) :   0.1280
B( 50-H , 52-C ) :   0.1060 B( 50-H , 53-C ) :  -0.1069 B( 51-H , 52-C ) :  -0.3019
B( 52-C , 53-C ) :   0.6174 B( 52-C , 54-C ) :  -0.2663 B( 52-C , 55-C ) :   0.1565
B( 52-C , 57-C ) :  -0.3103 B( 52-C , 58-H ) :  -0.2414 B( 52-C , 59-C ) :  -0.2472
B( 53-C , 54-C ) :   0.1813 B( 53-C , 55-C ) :   1.5440 B( 53-C , 56-H ) :   0.6913
B( 53-C , 57-C ) :   0.1184 B( 53-C , 58-H ) :   0.1343 B( 53-C , 59-C ) :   0.4174
B( 54-C , 55-C ) :  -0.1274 B( 54-C , 56-H ) :   0.2535 B( 54-C , 57-C ) :   0.9942
B( 54-C , 58-H ) :   1.4012 B( 54-C , 59-C ) :   0.1933 B( 54-C , 62-H ) :   0.1266
B( 55-C , 57-C ) :   0.2249 B( 55-C , 58-H ) :  -0.1358 B( 55-C , 59-C ) :   1.0882
B( 55-C , 60-H ) :   0.6986 B( 55-C , 62-H ) :  -0.2300 B( 56-H , 59-C ) :  -0.1402
B( 56-H , 62-H ) :   0.1069 B( 57-C , 58-H ) :  -0.1030 B( 57-C , 59-C ) :   1.0570
B( 57-C , 61-H ) :   0.6839 B( 57-C , 62-H ) :  -0.1749 B( 59-C , 62-H ) :   0.4824
B( 63-N , 64-C ) :   1.0835 B( 63-N , 70-H ) :   1.2989 B( 64-C , 65-C ) :   0.3786
B( 64-C , 69-O ) :   1.5164 B( 64-C , 70-H ) :  -0.1244 B( 65-C , 66-H ) :   1.0109
B( 65-C , 67-H ) :   1.0011 B( 65-C , 68-H ) :   0.9841 B( 65-C , 69-O ) :  -0.1425

MP2 TOTAL ENERGY:    -1422.308730693 Eh
FINAL SINGLE POINT ENERGY     -1422.308730692649

DIPOLE MOMENT
-------------
                                X             Y             Z
Electronic contribution:     19.64048       2.88089       5.51887
Nuclear contribution   :    -19.16304      -3.87179      -6.31625
                        -----------------------------------------
Total Dipole Moment    :      0.47743      -0.99090      -0.79738
                        -----------------------------------------
Magnitude (a.u.)       :      1.35854
Magnitude (Debye)      :      3.45314

Rotational constants in cm-1:     0.005859     0.002785     0.002669
Rotational constants in MHz :   175.643018    83.503457    80.003389

                             ****ORCA TERMINATED NORMALLY****
TOTAL RUN TIME: 0 days 10 hours 45 minutes 21 seconds 406 msec
