                         Program Version 4.2.1 -  RELEASE  -
|  1> %pal
|  2>  nprocs 32
|  3> end
|  4> !RI-MP2 aug-cc-pVTZ aug-cc-pVTZ/C TightSCF
|  5> %maxcore 4500
|  6> *xyzfile 0 2  03_24P1.xyz
|  7>
|  8>
|  9>                          ****END OF INPUT****

CARTESIAN COORDINATES (ANGSTROEM)
---------------------------------
  C      1.593888    0.300012   -0.348313
  C      1.860059   -1.086464    0.260751
  O      3.068486   -1.573943   -0.004515
  O      1.033776   -1.683568    0.892417
  C      0.841535    1.178669    0.590296
  H      0.975864    0.100273   -1.230115
  N      2.871221    0.867067   -0.841165
  H      3.527490   -0.869115   -0.511949
  C     -0.245385    2.088897    0.138526
  H      3.254094    1.524072   -0.169643
  H      2.750925    1.358490   -1.717653
  H     -0.145055    3.063785    0.628134
  C     -1.651152    1.535651    0.446710
  H     -0.162216    2.267852   -0.939519
  H     -2.393597    2.284569    0.150788
  H     -1.749265    1.408560    1.529867
  C     -1.940048    0.212098   -0.251540
  H     -1.839006    0.326866   -1.336280
  C     -3.330012   -0.327405    0.045485
  H     -1.202116   -0.533423    0.062792
  H     -4.082853    0.385597   -0.304660
  H     -3.453647   -0.411866    1.135875
  N     -3.543297   -1.588643   -0.659064
  H     -4.477469   -1.947510   -0.505601
  H     -2.888042   -2.293517   -0.339854
  H      0.998019    1.037737    1.654721

 Total Charge           Charge          ....    0
 Multiplicity           Mult            ....    2
 Number of Electrons    NEL             ....   87
 Basis Dimension        Dim             ....  851

ORBITAL ENERGIES
----------------
                 SPIN UP ORBITALS
  NO   OCC          E(Eh)            E(eV)
   0   1.0000     -20.596014      -560.4460
   1   1.0000     -20.534596      -558.7748
   2   1.0000     -15.585432      -424.1012
   3   1.0000     -15.531703      -422.6391
   4   1.0000     -11.373437      -309.4870
   5   1.0000     -11.293185      -307.3032
   6   1.0000     -11.246592      -306.0353
   7   1.0000     -11.241270      -305.8905
   8   1.0000     -11.233906      -305.6901
   9   1.0000     -11.225011      -305.4481
  10   1.0000     -11.210196      -305.0450
  11   1.0000      -1.455568       -39.6080
  12   1.0000      -1.358384       -36.9635
  13   1.0000      -1.226495       -33.3746
  14   1.0000      -1.172342       -31.9010
  15   1.0000      -1.099385       -29.9158
  16   1.0000      -1.030420       -28.0392
  17   1.0000      -0.967740       -26.3335
  18   1.0000      -0.890392       -24.2288
  19   1.0000      -0.826037       -22.4776
  20   1.0000      -0.802878       -21.8474
  21   1.0000      -0.787299       -21.4235
  22   1.0000      -0.742285       -20.1986
  23   1.0000      -0.696420       -18.9505
  24   1.0000      -0.673228       -18.3195
  25   1.0000      -0.658474       -17.9180
  26   1.0000      -0.641387       -17.4530
  27   1.0000      -0.624795       -17.0015
  28   1.0000      -0.623107       -16.9556
  29   1.0000      -0.608959       -16.5706
  30   1.0000      -0.598298       -16.2805
  31   1.0000      -0.577828       -15.7235
  32   1.0000      -0.565672       -15.3927
  33   1.0000      -0.543434       -14.7876
  34   1.0000      -0.521988       -14.2040
  35   1.0000      -0.506477       -13.7819
  36   1.0000      -0.485824       -13.2199
  37   1.0000      -0.477501       -12.9935
  38   1.0000      -0.474076       -12.9003
  39   1.0000      -0.468562       -12.7502
  40   1.0000      -0.464361       -12.6359
  41   1.0000      -0.422231       -11.4895
  42   1.0000      -0.382330       -10.4037
  43   1.0000      -0.352375        -9.5886
  44   0.0000       0.018258         0.4968
  45   0.0000       0.029943         0.8148
  46   0.0000       0.032308         0.8791
  47   0.0000       0.036032         0.9805
  48   0.0000       0.045501         1.2381

                 SPIN DOWN ORBITALS
  NO   OCC          E(Eh)            E(eV)
   0   1.0000     -20.595951      -560.4443
   1   1.0000     -20.534432      -558.7703
   2   1.0000     -15.582465      -424.0204
   3   1.0000     -15.531685      -422.6386
   4   1.0000     -11.372939      -309.4734
   5   1.0000     -11.296512      -307.3937
   6   1.0000     -11.241286      -305.8909
   7   1.0000     -11.237078      -305.7764
   8   1.0000     -11.222631      -305.3833
   9   1.0000     -11.222299      -305.3743
  10   1.0000     -11.210226      -305.0458
  11   1.0000      -1.455124       -39.5959
  12   1.0000      -1.357953       -36.9518
  13   1.0000      -1.216626       -33.1061
  14   1.0000      -1.172201       -31.8972
  15   1.0000      -1.080401       -29.3992
  16   1.0000      -1.010313       -27.4920
  17   1.0000      -0.967068       -26.3153
  18   1.0000      -0.870508       -23.6877
  19   1.0000      -0.818162       -22.2633
  20   1.0000      -0.797940       -21.7130
  21   1.0000      -0.773477       -21.0474
  22   1.0000      -0.740543       -20.1512
  23   1.0000      -0.686410       -18.6782
  24   1.0000      -0.670240       -18.2382
  25   1.0000      -0.657201       -17.8834
  26   1.0000      -0.636932       -17.3318
  27   1.0000      -0.622778       -16.9467
  28   1.0000      -0.618778       -16.8378
  29   1.0000      -0.600801       -16.3486
  30   1.0000      -0.592994       -16.1362
  31   1.0000      -0.571755       -15.5582
  32   1.0000      -0.556107       -15.1324
  33   1.0000      -0.541557       -14.7365
  34   1.0000      -0.517215       -14.0741
  35   1.0000      -0.500178       -13.6105
  36   1.0000      -0.476570       -12.9681
  37   1.0000      -0.473151       -12.8751
  38   1.0000      -0.470858       -12.8127
  39   1.0000      -0.464265       -12.6333
  40   1.0000      -0.460366       -12.5272
  41   1.0000      -0.417268       -11.3545
  42   1.0000      -0.381974       -10.3940
  43   0.0000       0.017662         0.4806
  44   0.0000       0.029482         0.8022
  45   0.0000       0.032196         0.8761
  46   0.0000       0.035564         0.9678
  47   0.0000       0.045569         1.2400

MULLIKEN ATOMIC CHARGES AND SPIN POPULATIONS
--------------------------------------------
   0 C :    0.825152   -0.195424
   1 C :    0.411261    0.026650
   2 O :   -0.592150    0.002411
   3 O :   -0.767622    0.000743
   4 C :   -0.485283    1.440215
   5 H :    0.345321    0.002258
   6 N :   -0.645961    0.073584
   7 H :    0.238126   -0.002044
   8 C :   -0.332199   -0.251735
   9 H :    0.102195   -0.004630
  10 H :    0.070718   -0.003532
  11 H :    0.326699    0.057215
  12 C :   -0.444198    0.081077
  13 H :    0.091510   -0.011865
  14 H :    0.289136   -0.001855
  15 H :    0.237858    0.000952
  16 C :   -0.320579   -0.005210
  17 H :    0.190291   -0.000597
  18 C :   -0.195738    0.000439
  19 H :    0.319745   -0.006978
  20 H :    0.255815    0.000250
  21 H :    0.223098    0.000157
  22 N :   -0.628456    0.000592
  23 H :    0.072347   -0.000015
  24 H :    0.114203    0.000031
  25 H :    0.298712   -0.202690
Sum of atomic charges         :    0.0000000

LOEWDIN ATOMIC CHARGES AND SPIN POPULATIONS
-------------------------------------------
   0 C :   -0.137043    0.100363
   1 C :   -0.793417    0.011335
   2 O :    0.846884    0.001758
   3 O :    0.449823    0.004662
   4 C :    0.289903    0.542027
   5 H :   -0.144843    0.007012
   6 N :    0.871698    0.043367
   7 H :   -0.593758    0.000536
   8 C :    0.264019    0.102123
   9 H :   -0.292127    0.011365
  10 H :   -0.290755    0.003933
  11 H :   -0.150240    0.014554
  12 C :    0.281316    0.031426
  13 H :   -0.151323    0.001994
  14 H :   -0.139827    0.005092
  15 H :   -0.139710    0.002720
  16 C :    0.259293    0.006431
  17 H :   -0.136061    0.000281
  18 C :    0.145042    0.000906
  19 H :   -0.173348    0.004727
  20 H :   -0.148543    0.000459
  21 H :   -0.140794    0.000141
  22 N :    0.839266    0.000210
  23 H :   -0.327203    0.000014
  24 H :   -0.323919    0.000032
  25 H :   -0.164333    0.102533

  Mayer bond orders larger than 0.100000
B(  0-C ,  1-C ) :   0.5470 B(  0-C ,  2-O ) :   0.1334 B(  0-C ,  4-C ) :   0.7044
B(  0-C ,  5-H ) :   0.9254 B(  0-C ,  6-N ) :   0.4401 B(  1-C ,  2-O ) :   0.6694
B(  1-C ,  3-O ) :   1.4963 B(  1-C ,  4-C ) :   0.1079 B(  1-C ,  6-N ) :   0.1725
B(  2-O ,  3-O ) :  -0.1028 B(  2-O ,  7-H ) :   0.8528 B(  4-C ,  8-C ) :   0.7849
B(  4-C , 11-H ) :  -0.1071 B(  4-C , 12-C ) :   0.1654 B(  4-C , 25-H ) :   0.9012
B(  6-N ,  7-H ) :   0.1480 B(  6-N ,  9-H ) :   0.9715 B(  6-N , 10-H ) :   1.0860
B(  8-C , 11-H ) :   0.9122 B(  8-C , 12-C ) :   0.9210 B(  8-C , 13-H ) :   1.1048
B( 12-C , 14-H ) :   0.9217 B( 12-C , 15-H ) :   0.9627 B( 12-C , 16-C ) :   0.7527
B( 16-C , 17-H ) :   1.0065 B( 16-C , 18-C ) :   0.8792 B( 16-C , 19-H ) :   0.9342
B( 18-C , 20-H ) :   0.9859 B( 18-C , 21-H ) :   0.9984 B( 18-C , 22-N ) :   0.6558
B( 22-N , 23-H ) :   1.0130 B( 22-N , 24-H ) :   0.9726

MP2 TOTAL ENERGY:     -534.700717018 Eh
FINAL SINGLE POINT ENERGY      -534.700717018321

DIPOLE MOMENT
-------------
                                X             Y             Z
Electronic contribution:     11.34272      -5.99689       1.49762
Nuclear contribution   :    -11.11062       7.84771      -1.93751
                        -----------------------------------------
Total Dipole Moment    :      0.23211       1.85081      -0.43990
                        -----------------------------------------
Magnitude (a.u.)       :      1.91648
Magnitude (Debye)      :      4.87130

Rotational constants in cm-1:     0.050192     0.018557     0.014817
Rotational constants in MHz :  1504.714056   556.314480   444.214049

                             ****ORCA TERMINATED NORMALLY****
TOTAL RUN TIME: 0 days 0 hours 15 minutes 12 seconds 437 msec
