                         Program Version 4.2.1 -  RELEASE  -
|  1> %pal
|  2>  nprocs 32
|  3> end
|  4> !RI-MP2 aug-cc-pVTZ aug-cc-pVTZ/C TightSCF
|  5> %maxcore 4500
|  6> *xyzfile -1 1  08_11P2.xyz
|  7>
|  8>
|  9>                          ****END OF INPUT****

CARTESIAN COORDINATES (ANGSTROEM)
---------------------------------
  O      2.141791    0.612321   -0.939810
  P      1.964502   -0.577876   -0.017879
  O      2.831974   -1.773916   -0.018348
  O      1.883446    0.032779    1.508659
  O      0.399689   -1.097711   -0.254679
  C     -0.540532   -0.199192   -0.809021
  C     -1.047543    0.844494    0.217070
  O     -2.474284    0.759685    0.200882
  C     -2.821131   -0.583598   -0.133091
  C     -1.809483   -0.955648   -1.216062
  H     -2.161651   -0.603396   -2.187725
  H     -1.605309   -2.023939   -1.280649
  H     -0.082421    0.301408   -1.663913
  H      1.638276    0.967629    1.468782
  C     -0.642013    2.281241   -0.072337
  H     -0.669663    0.562203    1.204885
  O      0.718863    2.523614    0.201231
  H     -1.228830    2.943614    0.568537
  H     -0.890859    2.521103   -1.115936
  H      1.285690    1.939905   -0.372492
  C     -2.755434   -1.497042    1.083752
  H     -3.845338   -0.544162   -0.512618
  H     -3.122444   -2.494142    0.825537
  H     -3.371927   -1.096057    1.891313
  H     -1.728062   -1.601731    1.437113

 Total Charge           Charge          ....   -1
 Multiplicity           Mult            ....    1
 Number of Electrons    NEL             ....  112
 Basis Dimension        Dim             ....  878

ORBITAL ENERGIES
----------------

  NO   OCC          E(Eh)            E(eV)
   0   2.0000     -79.903691     -2174.2900
   1   2.0000     -20.448883      -556.4424
   2   2.0000     -20.418606      -555.6185
   3   2.0000     -20.416476      -555.5606
   4   2.0000     -20.415006      -555.5205
   5   2.0000     -20.340532      -553.4940
   6   2.0000     -20.325827      -553.0939
   7   2.0000     -11.178540      -304.1835
   8   2.0000     -11.161384      -303.7167
   9   2.0000     -11.156745      -303.5905
  10   2.0000     -11.155805      -303.5649
  11   2.0000     -11.116708      -302.5010
  12   2.0000     -11.115145      -302.4585
  13   2.0000      -7.419794      -201.9029
  14   2.0000      -5.318415      -144.7214
  15   2.0000      -5.317952      -144.7088
  16   2.0000      -5.316734      -144.6757
  17   2.0000      -1.279335       -34.8125
  18   2.0000      -1.254662       -34.1411
  19   2.0000      -1.223576       -33.2952
  20   2.0000      -1.202022       -32.7087
  21   2.0000      -1.130945       -30.7746
  22   2.0000      -1.098923       -29.9032
  23   2.0000      -0.953356       -25.9421
  24   2.0000      -0.919210       -25.0130
  25   2.0000      -0.852527       -23.1984
  26   2.0000      -0.769618       -20.9424
  27   2.0000      -0.688222       -18.7275
  28   2.0000      -0.681083       -18.5332
  29   2.0000      -0.627130       -17.0651
  30   2.0000      -0.596428       -16.2296
  31   2.0000      -0.570275       -15.5180
  32   2.0000      -0.556571       -15.1451
  33   2.0000      -0.524637       -14.2761
  34   2.0000      -0.514770       -14.0076
  35   2.0000      -0.493977       -13.4418
  36   2.0000      -0.481856       -13.1120
  37   2.0000      -0.474472       -12.9110
  38   2.0000      -0.471427       -12.8282
  39   2.0000      -0.449462       -12.2305
  40   2.0000      -0.437612       -11.9080
  41   2.0000      -0.431508       -11.7419
  42   2.0000      -0.425759       -11.5855
  43   2.0000      -0.400543       -10.8993
  44   2.0000      -0.396225       -10.7818
  45   2.0000      -0.383914       -10.4468
  46   2.0000      -0.371738       -10.1155
  47   2.0000      -0.360783        -9.8174
  48   2.0000      -0.333851        -9.0845
  49   2.0000      -0.331863        -9.0304
  50   2.0000      -0.315381        -8.5820
  51   2.0000      -0.306558        -8.3419
  52   2.0000      -0.302271        -8.2252
  53   2.0000      -0.296602        -8.0710
  54   2.0000      -0.278888        -7.5889
  55   2.0000      -0.270538        -7.3617
  56   0.0000       0.092969         2.5298
  57   0.0000       0.104614         2.8467
  58   0.0000       0.107926         2.9368
  59   0.0000       0.116440         3.1685
  60   0.0000       0.123002         3.3471

MULLIKEN ATOMIC CHARGES
-----------------------
   0 O :   -0.962959
   1 P :    1.796010
   2 O :   -1.185706
   3 O :   -0.685663
   4 O :   -0.812318
   5 C :    0.611784
   6 C :    0.513110
   7 O :   -1.098248
   8 C :    0.175479
   9 C :   -0.978351
  10 H :    0.187695
  11 H :    0.310642
  12 H :    0.607559
  13 H :    0.284441
  14 C :   -0.345921
  15 H :    0.356013
  16 O :   -0.857393
  17 H :    0.311371
  18 H :    0.223282
  19 H :    0.308194
  20 C :   -1.097580
  21 H :    0.473352
  22 H :    0.209575
  23 H :    0.265891
  24 H :    0.389743
Sum of atomic charges:   -1.0000000

LOEWDIN ATOMIC CHARGES
----------------------
   0 O :    0.114133
   1 P :   -0.447098
   2 O :   -0.079699
   3 O :    0.605673
   4 O :    0.380706
   5 C :   -0.329556
   6 C :   -0.258086
   7 O :    0.596478
   8 C :   -0.271173
   9 C :    0.313458
  10 H :   -0.146322
  11 H :   -0.148791
  12 H :   -0.187864
  13 H :   -0.668005
  14 C :    0.029267
  15 H :   -0.166767
  16 O :    0.819657
  17 H :   -0.168468
  18 H :   -0.152355
  19 H :   -0.772934
  20 C :    0.590513
  21 H :   -0.145351
  22 H :   -0.168246
  23 H :   -0.167755
  24 H :   -0.171415

  Mayer bond orders larger than 0.100000
B(  0-O ,  1-P ) :   1.4434 B(  0-O ,  3-O ) :   0.1149 B(  0-O ,  5-C ) :   0.1019
B(  0-O , 12-H ) :  -0.2270 B(  0-O , 19-H ) :   0.1753 B(  1-P ,  2-O ) :   1.0333
B(  1-P ,  3-O ) :   0.7295 B(  1-P ,  4-O ) :   0.9507 B(  3-O , 13-H ) :   0.8848
B(  4-O ,  5-C ) :   0.1519 B(  4-O ,  6-C ) :   0.1463 B(  4-O ,  9-C ) :   0.1323
B(  5-C ,  6-C ) :   0.8916 B(  5-C ,  7-O ) :   0.1176 B(  5-C ,  9-C ) :   0.9242
B(  5-C , 12-H ) :   0.7557 B(  6-C ,  7-O ) :   0.2830 B(  6-C , 14-C ) :   0.7268
B(  6-C , 15-H ) :   0.9185 B(  6-C , 16-O ) :  -0.1220 B(  7-O ,  8-C ) :   0.7863
B(  7-O ,  9-C ) :   0.1581 B(  8-C ,  9-C ) :   1.0739 B(  8-C , 20-C ) :   0.7438
B(  8-C , 21-H ) :   0.7976 B(  9-C , 10-H ) :   1.0323 B(  9-C , 11-H ) :   0.9602
B(  9-C , 12-H ) :  -0.1459 B( 14-C , 16-O ) :   0.8471 B( 14-C , 17-H ) :   0.9777
B( 14-C , 18-H ) :   1.1051 B( 14-C , 19-H ) :   0.1056 B( 16-O , 19-H ) :   0.6691
B( 20-C , 22-H ) :   1.0589 B( 20-C , 23-H ) :   0.9817 B( 20-C , 24-H ) :   0.8490

MP2 TOTAL ENERGY:    -1027.237257646 Eh
FINAL SINGLE POINT ENERGY     -1027.237257646440

DIPOLE MOMENT
-------------
                                X             Y             Z
Electronic contribution:     13.66883      -0.91208      -0.46651
Nuclear contribution   :    -17.34511       1.42129       0.28719
                        -----------------------------------------
Total Dipole Moment    :     -3.67628       0.50921      -0.17931
                        -----------------------------------------
Magnitude (a.u.)       :      3.71571
Magnitude (Debye)      :      9.44457

Rotational constants in cm-1:     0.036675     0.018683     0.014885
Rotational constants in MHz :  1099.500668   560.100474   446.233677

                             ****ORCA TERMINATED NORMALLY****
TOTAL RUN TIME: 0 days 0 hours 12 minutes 28 seconds 54 msec
