                         Program Version 4.2.1 -  RELEASE  -
|  1> %pal
|  2>  nprocs 32
|  3> end
|  4> !RI-MP2 aug-cc-pVTZ aug-cc-pVTZ/C TightSCF
|  5> %maxcore 4500
|  6> *xyzfile 0 1  10_3R2.xyz
|  7>
|  8>
|  9>                          ****END OF INPUT****

CARTESIAN COORDINATES (ANGSTROEM)
---------------------------------
  C     -1.315422   -0.643757    0.000001
  C     -0.043529    0.115927    0.000004
  C     -2.478866   -0.010261    0.000015
  O      1.010666   -0.715311   -0.000022
  O      0.060290    1.315344    0.000029
  C      2.295974   -0.089091   -0.000023
  H      3.018370   -0.900757   -0.000095
  H      2.415378    0.532394   -0.887368
  H      2.415433    0.532283    0.887393
  H     -1.237875   -1.723715   -0.000016
  H     -2.510845    1.073105    0.000030
  H     -3.417057   -0.550487    0.000011

 Total Charge           Charge          ....    0
 Multiplicity           Mult            ....    1
 Number of Electrons    NEL             ....   46
 Basis Dimension        Dim             ....  414

ORBITAL ENERGIES
----------------

  NO   OCC          E(Eh)            E(eV)
   0   2.0000     -20.605155      -560.6948
   1   2.0000     -20.540536      -558.9364
   2   2.0000     -11.379355      -309.6480
   3   2.0000     -11.284943      -307.0789
   4   2.0000     -11.257382      -306.3289
   5   2.0000     -11.248257      -306.0806
   6   2.0000      -1.464112       -39.8405
   7   2.0000      -1.360128       -37.0110
   8   2.0000      -1.081798       -29.4372
   9   2.0000      -0.981014       -26.6947
  10   2.0000      -0.853943       -23.2370
  11   2.0000      -0.761837       -20.7306
  12   2.0000      -0.714648       -19.4466
  13   2.0000      -0.677487       -18.4354
  14   2.0000      -0.673273       -18.3207
  15   2.0000      -0.633192       -17.2300
  16   2.0000      -0.586168       -15.9504
  17   2.0000      -0.555742       -15.1225
  18   2.0000      -0.548834       -14.9345
  19   2.0000      -0.528037       -14.3686
  20   2.0000      -0.464461       -12.6386
  21   2.0000      -0.452733       -12.3195
  22   2.0000      -0.396718       -10.7952
  23   0.0000       0.028101         0.7647
  24   0.0000       0.032676         0.8892
  25   0.0000       0.041457         1.1281
  26   0.0000       0.050962         1.3867
  27   0.0000       0.053219         1.4482

MULLIKEN ATOMIC CHARGES
-----------------------
   0 C :   -0.090379
   1 C :    0.659307
   2 C :   -0.985821
   3 O :   -0.324276
   4 O :   -0.807789
   5 C :   -0.731626
   6 H :    0.361339
   7 H :    0.349493
   8 H :    0.349482
   9 H :    0.364810
  10 H :    0.340435
  11 H :    0.515024
Sum of atomic charges:    0.0000000

LOEWDIN ATOMIC CHARGES
----------------------
   0 C :    0.165527
   1 C :   -0.884355
   2 C :    0.534794
   3 O :    0.552076
   4 O :    0.455943
   5 C :    0.351899
   6 H :   -0.186707
   7 H :   -0.180658
   8 H :   -0.180654
   9 H :   -0.209013
  10 H :   -0.211207
  11 H :   -0.207645

  Mayer bond orders larger than 0.100000
B(  0-C ,  1-C ) :   0.7495 B(  0-C ,  2-C ) :   1.4722 B(  0-C ,  4-O ) :  -0.2120
B(  0-C ,  9-H ) :   0.9102 B(  1-C ,  3-O ) :   1.0398 B(  1-C ,  4-O ) :   1.5664
B(  2-C , 10-H ) :   0.9159 B(  2-C , 11-H ) :   0.7119 B(  3-O ,  5-C ) :   0.8241
B(  5-C ,  6-H ) :   0.8795 B(  5-C ,  7-H ) :   0.8885 B(  5-C ,  8-H ) :   0.8885

MP2 TOTAL ENERGY:     -305.928036392 Eh
FINAL SINGLE POINT ENERGY      -305.928036392266

DIPOLE MOMENT
-------------
                                X             Y             Z
Electronic contribution:     -0.77491       0.35989       0.00003
Nuclear contribution   :      0.70274      -1.03131      -0.00004
                        -----------------------------------------
Total Dipole Moment    :     -0.07217      -0.67143      -0.00002
                        -----------------------------------------
Magnitude (a.u.)       :      0.67530
Magnitude (Debye)      :      1.71647

Rotational constants in cm-1:     0.347436     0.077853     0.064373
Rotational constants in MHz : 10415.882931  2333.983707  1929.842986

                             ****ORCA TERMINATED NORMALLY****
TOTAL RUN TIME: 0 days 0 hours 0 minutes 58 seconds 455 msec
