                         Program Version 4.2.1 -  RELEASE  -
|  1> %pal
|  2>  nprocs 32
|  3> end
|  4> !RI-MP2 aug-cc-pVTZ aug-cc-pVTZ/C TightSCF
|  5> %maxcore 4500
|  6> *xyzfile 0 2  04_1R.xyz
|  7>
|  8>
|  9>                          ****END OF INPUT****

CARTESIAN COORDINATES (ANGSTROEM)
---------------------------------
  C     -2.417605   -0.148814   -0.148850
  H     -2.618044    0.354747   -1.087009
  H     -3.247574   -0.628295    0.353799
  C     -1.023712   -0.341854    0.324302
  H     -1.001952   -0.374818    1.420825
  C      1.372138    0.497293    0.264731
  H      2.003966    1.330273   -0.065386
  O      1.823397   -0.725090   -0.307671
  H     -0.645670   -1.322117   -0.000744
  H      1.421083    0.446897    1.360562
  C     -0.057188    0.730118   -0.176847
  H     -0.376530    1.713668    0.181624
  H     -0.082567    0.764306   -1.270541
  H      2.718314   -0.904400   -0.011776

 Total Charge           Charge          ....    0
 Multiplicity           Mult            ....    2
 Number of Electrons    NEL             ....   41
 Basis Dimension        Dim             ....  437

ORBITAL ENERGIES
----------------
                 SPIN UP ORBITALS
  NO   OCC          E(Eh)            E(eV)
   0   1.0000     -20.556231      -559.3635
   1   1.0000     -11.274041      -306.7823
   2   1.0000     -11.223161      -305.3977
   3   1.0000     -11.218103      -305.2601
   4   1.0000     -11.215319      -305.1843
   5   1.0000      -1.358846       -36.9761
   6   1.0000      -1.073825       -29.2203
   7   1.0000      -0.979549       -26.6549
   8   1.0000      -0.853487       -23.2246
   9   1.0000      -0.787797       -21.4370
  10   1.0000      -0.704946       -19.1826
  11   1.0000      -0.639393       -17.3988
  12   1.0000      -0.615069       -16.7369
  13   1.0000      -0.593956       -16.1624
  14   1.0000      -0.558006       -15.1841
  15   1.0000      -0.536412       -14.5965
  16   1.0000      -0.499501       -13.5921
  17   1.0000      -0.483427       -13.1547
  18   1.0000      -0.474464       -12.9108
  19   1.0000      -0.441749       -12.0206
  20   1.0000      -0.342181        -9.3112
  21   0.0000       0.028466         0.7746
  22   0.0000       0.036117         0.9828
  23   0.0000       0.038726         1.0538
  24   0.0000       0.042039         1.1439
  25   0.0000       0.054866         1.4930

                 SPIN DOWN ORBITALS
  NO   OCC          E(Eh)            E(eV)
   0   1.0000     -20.556151      -559.3613
   1   1.0000     -11.274103      -306.7839
   2   1.0000     -11.218492      -305.2707
   3   1.0000     -11.217391      -305.2407
   4   1.0000     -11.199826      -304.7628
   5   1.0000      -1.358700       -36.9721
   6   1.0000      -1.062396       -28.9093
   7   1.0000      -0.952188       -25.9104
   8   1.0000      -0.823145       -22.3989
   9   1.0000      -0.767172       -20.8758
  10   1.0000      -0.704098       -19.1595
  11   1.0000      -0.637017       -17.3341
  12   1.0000      -0.606704       -16.5092
  13   1.0000      -0.579533       -15.7699
  14   1.0000      -0.552195       -15.0260
  15   1.0000      -0.529717       -14.4143
  16   1.0000      -0.487533       -13.2664
  17   1.0000      -0.476566       -12.9680
  18   1.0000      -0.470311       -12.7978
  19   1.0000      -0.440036       -11.9740
  20   0.0000       0.028493         0.7753
  21   0.0000       0.036733         0.9996
  22   0.0000       0.038719         1.0536
  23   0.0000       0.041834         1.1384
  24   0.0000       0.054900         1.4939

MULLIKEN ATOMIC CHARGES AND SPIN POPULATIONS
--------------------------------------------
   0 C :   -1.157645    1.234497
   1 H :    0.394561   -0.059140
   2 H :    0.347316   -0.078117
   3 C :   -0.140877   -0.216717
   4 H :    0.232462    0.029161
   5 C :   -0.217357   -0.003932
   6 H :    0.286546    0.000817
   7 O :   -0.541171   -0.000451
   8 H :    0.299653    0.066170
   9 H :    0.260891   -0.000494
  10 C :   -0.438284    0.034327
  11 H :    0.293593   -0.003090
  12 H :    0.255781   -0.003436
  13 H :    0.124531    0.000405
Sum of atomic charges         :    0.0000000

LOEWDIN ATOMIC CHARGES AND SPIN POPULATIONS
-------------------------------------------
   0 C :    0.593241    0.566542
   1 H :   -0.226307    0.123538
   2 H :   -0.229294    0.121285
   3 C :    0.198257    0.131740
   4 H :   -0.159051    0.010611
   5 C :    0.028008    0.000813
   6 H :   -0.154898    0.000053
   7 O :    0.812959    0.001563
   8 H :   -0.162978    0.030073
   9 H :   -0.152966    0.000127
  10 C :    0.241350    0.010291
  11 H :   -0.146603    0.003607
  12 H :   -0.148247   -0.000359
  13 H :   -0.493469    0.000115

  Mayer bond orders larger than 0.100000
B(  0-C ,  1-H ) :   0.8474 B(  0-C ,  2-H ) :   0.8966 B(  0-C ,  3-C ) :   0.7519
B(  3-C ,  4-H ) :   0.9814 B(  3-C ,  8-H ) :   0.9063 B(  3-C , 10-C ) :   0.9159
B(  5-C ,  6-H ) :   0.9679 B(  5-C ,  7-O ) :   0.7703 B(  5-C ,  9-H ) :   0.9496
B(  5-C , 10-C ) :   0.9302 B(  7-O , 13-H ) :   1.0436 B( 10-C , 11-H ) :   0.9283
B( 10-C , 12-H ) :   0.9306

MP2 TOTAL ENERGY:     -232.535952649 Eh
FINAL SINGLE POINT ENERGY      -232.535952648879

DIPOLE MOMENT
-------------
                                X             Y             Z
Electronic contribution:      2.33406      -1.12941      -0.53004
Nuclear contribution   :     -1.89591       1.44158       0.92309
                        -----------------------------------------
Total Dipole Moment    :      0.43815       0.31217       0.39305
                        -----------------------------------------
Magnitude (a.u.)       :      0.66627
Magnitude (Debye)      :      1.69352

Rotational constants in cm-1:     0.429049     0.083318     0.076776
Rotational constants in MHz : 12862.568066  2497.799526  2301.672231

                             ****ORCA TERMINATED NORMALLY****
TOTAL RUN TIME: 0 days 0 hours 1 minutes 29 seconds 896 msec
