                         Program Version 4.2.1 -  RELEASE  -
|  1> %pal
|  2>  nprocs 32
|  3> end
|  4> !RI-MP2 aug-cc-pVTZ aug-cc-pVTZ/C TightSCF
|  5> %maxcore 4500
|  6> *xyzfile 0 1  03_12P2.xyz
|  7>
|  8>
|  9>                          ****END OF INPUT****

CARTESIAN COORDINATES (ANGSTROEM)
---------------------------------
  F      0.051621    1.086746    0.000000
  S      0.051621   -0.568097    0.000000
  H     -1.290526   -0.691168    0.000000

 Total Charge           Charge          ....    0
 Multiplicity           Mult            ....    1
 Number of Electrons    NEL             ....   26
 Basis Dimension        Dim             ....  119

ORBITAL ENERGIES
----------------

  NO   OCC          E(Eh)            E(eV)
   0   2.0000     -92.049839     -2504.8035
   1   2.0000     -26.315533      -716.0820
   2   2.0000      -9.043248      -246.0793
   3   2.0000      -6.724434      -182.9811
   4   2.0000      -6.722659      -182.9328
   5   2.0000      -6.721111      -182.8907
   6   2.0000      -1.601285       -43.5732
   7   2.0000      -0.981879       -26.7183
   8   2.0000      -0.705955       -19.2100
   9   2.0000      -0.686312       -18.6755
  10   2.0000      -0.665935       -18.1210
  11   2.0000      -0.526171       -14.3178
  12   2.0000      -0.399017       -10.8578
  13   0.0000       0.029000         0.7891
  14   0.0000       0.049331         1.3424
  15   0.0000       0.084749         2.3061
  16   0.0000       0.093478         2.5437
  17   0.0000       0.128675         3.5014

MULLIKEN ATOMIC CHARGES
-----------------------
   0 F :   -0.527801
   1 S :    0.335692
   2 H :    0.192109
Sum of atomic charges:   -0.0000000

LOEWDIN ATOMIC CHARGES
----------------------
   0 F :   -0.178151
   1 S :    0.825144
   2 H :   -0.646993

  Mayer bond orders larger than 0.100000
B(  0-F ,  1-S ) :   0.6107 B(  1-S ,  2-H ) :   0.9775

MP2 TOTAL ENERGY:     -498.011222622 Eh
FINAL SINGLE POINT ENERGY      -498.011222621887

DIPOLE MOMENT
-------------
                                X             Y             Z
Electronic contribution:      0.87641       1.02286      -0.00000
Nuclear contribution   :     -1.25962      -1.63832       0.00000
                        -----------------------------------------
Total Dipole Moment    :     -0.38321      -0.61546      -0.00000
                        -----------------------------------------
Magnitude (a.u.)       :      0.72502
Magnitude (Debye)      :      1.84284

Rotational constants in cm-1:     9.632529     0.507180     0.481811
Rotational constants in MHz : 288775.969432 15204.868679 14444.333795

                             ****ORCA TERMINATED NORMALLY****
TOTAL RUN TIME: 0 days 0 hours 0 minutes 10 seconds 1 msec
