                         Program Version 4.2.1 -  RELEASE  -
|  1> %pal
|  2>  nprocs 32
|  3> end
|  4> !RI-MP2 aug-cc-pVTZ aug-cc-pVTZ/C TightSCF
|  5> %maxcore 4500
|  6> *xyzfile 0 2  04_13P1.xyz
|  7>
|  8>
|  9>                          ****END OF INPUT****

CARTESIAN COORDINATES (ANGSTROEM)
---------------------------------
  N     -0.532120   -1.152429    0.087671
  H      0.020500   -2.000498   -0.024603
  C      0.241033   -0.021905    0.210561
  C     -0.354357    1.299645    0.574797
  C      1.659517   -0.298841   -0.015295
  H     -1.041509    1.163107    1.415906
  H      0.435265    1.968969    0.913934
  O      2.050296   -1.455050   -0.145460
  H     -1.832208    1.460522   -0.641861
  N      2.512973    0.765027   -0.044132
  H      2.171728    1.690651   -0.243550
  H      3.460854    0.555569   -0.315187
  C     -1.887630   -1.231649   -0.032728
  H     -2.241236   -2.269723   -0.101851
  O     -2.643751   -0.282222   -0.067775
  O     -1.005387    1.944735   -0.503211

 Total Charge           Charge          ....    0
 Multiplicity           Mult            ....    2
 Number of Electrons    NEL             ....   69
 Basis Dimension        Dim             ....  575

ORBITAL ENERGIES
----------------
                 SPIN UP ORBITALS
  NO   OCC          E(Eh)            E(eV)
   0   1.0000     -20.561073      -559.4953
   1   1.0000     -20.558098      -559.4143
   2   1.0000     -20.544537      -559.0453
   3   1.0000     -15.627908      -425.2570
   4   1.0000     -15.597583      -424.4318
   5   1.0000     -11.379261      -309.6454
   6   1.0000     -11.369730      -309.3861
   7   1.0000     -11.307418      -307.6905
   8   1.0000     -11.298896      -307.4586
   9   1.0000      -1.426663       -38.8215
  10   1.0000      -1.409592       -38.3569
  11   1.0000      -1.367535       -37.2125
  12   1.0000      -1.285350       -34.9762
  13   1.0000      -1.230612       -33.4867
  14   1.0000      -1.059590       -28.8329
  15   1.0000      -0.933464       -25.4008
  16   1.0000      -0.864339       -23.5199
  17   1.0000      -0.798832       -21.7373
  18   1.0000      -0.774259       -21.0687
  19   1.0000      -0.734009       -19.9734
  20   1.0000      -0.710302       -19.3283
  21   1.0000      -0.678106       -18.4522
  22   1.0000      -0.672377       -18.2963
  23   1.0000      -0.648219       -17.6389
  24   1.0000      -0.638288       -17.3687
  25   1.0000      -0.609341       -16.5810
  26   1.0000      -0.606535       -16.5047
  27   1.0000      -0.596791       -16.2395
  28   1.0000      -0.521737       -14.1972
  29   1.0000      -0.501914       -13.6578
  30   1.0000      -0.483448       -13.1553
  31   1.0000      -0.469316       -12.7707
  32   1.0000      -0.456954       -12.4343
  33   1.0000      -0.447416       -12.1748
  34   1.0000      -0.334860        -9.1120
  35   0.0000       0.024524         0.6673
  36   0.0000       0.029473         0.8020
  37   0.0000       0.039413         1.0725
  38   0.0000       0.047181         1.2839
  39   0.0000       0.054847         1.4925

                 SPIN DOWN ORBITALS
  NO   OCC          E(Eh)            E(eV)
   0   1.0000     -20.555970      -559.3564
   1   1.0000     -20.555907      -559.3547
   2   1.0000     -20.537240      -558.8467
   3   1.0000     -15.628076      -425.2616
   4   1.0000     -15.596610      -424.4053
   5   1.0000     -11.379827      -309.6608
   6   1.0000     -11.373482      -309.4882
   7   1.0000     -11.301626      -307.5329
   8   1.0000     -11.287053      -307.1363
   9   1.0000      -1.416358       -38.5411
  10   1.0000      -1.396741       -38.0073
  11   1.0000      -1.360684       -37.0261
  12   1.0000      -1.272235       -34.6193
  13   1.0000      -1.224780       -33.3280
  14   1.0000      -1.020895       -27.7800
  15   1.0000      -0.927826       -25.2474
  16   1.0000      -0.859519       -23.3887
  17   1.0000      -0.795148       -21.6371
  18   1.0000      -0.766654       -20.8617
  19   1.0000      -0.730817       -19.8865
  20   1.0000      -0.703258       -19.1366
  21   1.0000      -0.670523       -18.2459
  22   1.0000      -0.659466       -17.9450
  23   1.0000      -0.633409       -17.2359
  24   1.0000      -0.615710       -16.7543
  25   1.0000      -0.600424       -16.3384
  26   1.0000      -0.595747       -16.2111
  27   1.0000      -0.572575       -15.5806
  28   1.0000      -0.513225       -13.9656
  29   1.0000      -0.475117       -12.9286
  30   1.0000      -0.463088       -12.6013
  31   1.0000      -0.455882       -12.4052
  32   1.0000      -0.442355       -12.0371
  33   1.0000      -0.414717       -11.2850
  34   0.0000       0.024427         0.6647
  35   0.0000       0.029521         0.8033
  36   0.0000       0.039128         1.0647
  37   0.0000       0.045249         1.2313
  38   0.0000       0.051160         1.3921

MULLIKEN ATOMIC CHARGES AND SPIN POPULATIONS
--------------------------------------------
   0 N :   -0.154143    0.026824
   1 H :    0.169986    0.006243
   2 C :    0.278470    0.951798
   3 C :    0.132961   -0.129046
   4 C :    0.735393   -0.165800
   5 H :    0.315730    0.025509
   6 H :    0.263023   -0.010839
   7 O :   -0.884771    0.161495
   8 H :    0.255917   -0.001397
   9 N :   -0.372943    0.026622
  10 H :    0.130752   -0.000922
  11 H :    0.165855   -0.005456
  12 C :   -0.261341   -0.033191
  13 H :    0.627181    0.004295
  14 O :   -0.726625    0.108493
  15 O :   -0.675446    0.035374
Sum of atomic charges         :    0.0000000

LOEWDIN ATOMIC CHARGES AND SPIN POPULATIONS
-------------------------------------------
   0 N :    0.511802    0.106946
   1 H :   -0.342990    0.004532
   2 C :   -0.124350    0.445519
   3 C :    0.027654    0.075033
   4 C :   -0.665773    0.085162
   5 H :   -0.156278    0.009182
   6 H :   -0.188057    0.003578
   7 O :    0.463742    0.118793
   8 H :   -0.622091    0.001797
   9 N :    0.858690    0.015648
  10 H :   -0.312828    0.000773
  11 H :   -0.287422    0.001936
  12 C :   -0.294947    0.015673
  13 H :   -0.167502    0.001280
  14 O :    0.477568    0.084714
  15 O :    0.822782    0.029433

  Mayer bond orders larger than 0.100000
B(  0-N ,  1-H ) :   1.0640 B(  0-N ,  2-C ) :   0.5922 B(  0-N ,  4-C ) :  -0.1604
B(  0-N ,  7-O ) :  -0.1189 B(  0-N , 12-C ) :   1.3784 B(  2-C ,  3-C ) :   0.5031
B(  2-C ,  4-C ) :   0.7743 B(  2-C ,  7-O ) :   0.2625 B(  2-C ,  9-N ) :  -0.1093
B(  2-C , 12-C ) :  -0.2790 B(  2-C , 14-O ) :   0.1163 B(  3-C ,  5-H ) :   1.0108
B(  3-C ,  6-H ) :   0.9619 B(  3-C , 15-O ) :   0.7132 B(  4-C ,  7-O ) :   1.0129
B(  4-C ,  9-N ) :   0.9433 B(  8-H , 15-O ) :   0.9212 B(  9-N , 10-H ) :   1.0609
B(  9-N , 11-H ) :   1.0134 B( 12-C , 13-H ) :   0.5303 B( 12-C , 14-O ) :   1.6386

MP2 TOTAL ENERGY:     -490.992856428 Eh
FINAL SINGLE POINT ENERGY      -490.992856428194

DIPOLE MOMENT
-------------
                                X             Y             Z
Electronic contribution:     -0.44161      -2.66405      -0.71266
Nuclear contribution   :      0.94866       2.53973       0.98022
                        -----------------------------------------
Total Dipole Moment    :      0.50705      -0.12433       0.26757
                        -----------------------------------------
Magnitude (a.u.)       :      0.58664
Magnitude (Debye)      :      1.49113

Rotational constants in cm-1:     0.086844     0.041613     0.029360
Rotational constants in MHz :  2603.502983  1247.531782   880.191267

                             ****ORCA TERMINATED NORMALLY****
TOTAL RUN TIME: 0 days 0 hours 5 minutes 23 seconds 737 msec
