                         Program Version 4.2.1 -  RELEASE  -
|  1> %pal
|  2>  nprocs 32
|  3> end
|  4> !RI-MP2 aug-cc-pVTZ aug-cc-pVTZ/C TightSCF
|  5> %maxcore 4500
|  6> *xyzfile 0 1  05_25R1.xyz
|  7>
|  8>
|  9>                          ****END OF INPUT****

CARTESIAN COORDINATES (ANGSTROEM)
---------------------------------
  C      2.445836   -0.303180   -0.869809
  C      0.981464   -0.111176   -0.564605
  C      0.463807    1.175887   -0.395837
  C      0.117146   -1.184865   -0.444265
  C     -0.871514    1.374304   -0.118474
  H      1.130019    2.027498   -0.472979
  C     -1.237941   -1.004923   -0.172208
  H      0.498138   -2.193880   -0.561222
  C     -1.733415    0.281125   -0.007599
  H     -1.279888    2.368023    0.015168
  H     -1.881563   -1.868776   -0.086377
  O      3.302711    0.334223    0.057561
  C      3.255258   -0.233921    1.346619
  H      3.532800   -1.296108    1.319001
  H      3.974923    0.305780    1.960238
  H      2.259756   -0.142715    1.794415
  O     -3.031448    0.576198    0.264490
  C     -3.948914   -0.490453    0.384916
  H     -4.913946   -0.035624    0.596332
  H     -4.015675   -1.065382   -0.543906
  H     -3.676629   -1.159471    1.207129
  H      2.674771   -1.376823   -0.920067
  H      2.696830    0.137322   -1.836562

 Total Charge           Charge          ....    0
 Multiplicity           Mult            ....    1
 Number of Electrons    NEL             ....   82
 Basis Dimension        Dim             ....  782

ORBITAL ENERGIES
----------------

  NO   OCC          E(Eh)            E(eV)
   0   2.0000     -20.586161      -560.1779
   1   2.0000     -20.553861      -559.2990
   2   2.0000     -11.299373      -307.4716
   3   2.0000     -11.285378      -307.0907
   4   2.0000     -11.276804      -306.8574
   5   2.0000     -11.263774      -306.5029
   6   2.0000     -11.238517      -305.8156
   7   2.0000     -11.234670      -305.7109
   8   2.0000     -11.230191      -305.5890
   9   2.0000     -11.227301      -305.5104
  10   2.0000     -11.226696      -305.4939
  11   2.0000      -1.414429       -38.4886
  12   2.0000      -1.373108       -37.3642
  13   2.0000      -1.155179       -31.4340
  14   2.0000      -1.042747       -28.3746
  15   2.0000      -1.021660       -27.8008
  16   2.0000      -0.970163       -26.3995
  17   2.0000      -0.936623       -25.4868
  18   2.0000      -0.869254       -23.6536
  19   2.0000      -0.838452       -22.8154
  20   2.0000      -0.790358       -21.5067
  21   2.0000      -0.721407       -19.6305
  22   2.0000      -0.682260       -18.5652
  23   2.0000      -0.665570       -18.1111
  24   2.0000      -0.658625       -17.9221
  25   2.0000      -0.653254       -17.7760
  26   2.0000      -0.638603       -17.3773
  27   2.0000      -0.623175       -16.9575
  28   2.0000      -0.593593       -16.1525
  29   2.0000      -0.586322       -15.9546
  30   2.0000      -0.579378       -15.7657
  31   2.0000      -0.536777       -14.6064
  32   2.0000      -0.524300       -14.2669
  33   2.0000      -0.522662       -14.2224
  34   2.0000      -0.518629       -14.1126
  35   2.0000      -0.483029       -13.1439
  36   2.0000      -0.471688       -12.8353
  37   2.0000      -0.462841       -12.5946
  38   2.0000      -0.422801       -11.5050
  39   2.0000      -0.343006        -9.3337
  40   2.0000      -0.310762        -8.4563
  41   0.0000       0.025648         0.6979
  42   0.0000       0.032188         0.8759
  43   0.0000       0.035496         0.9659
  44   0.0000       0.039226         1.0674
  45   0.0000       0.044312         1.2058

MULLIKEN ATOMIC CHARGES
-----------------------
   0 C :   -0.192209
   1 C :    1.415004
   2 C :   -0.738164
   3 C :   -0.950067
   4 C :   -0.973034
   5 H :    0.149723
   6 C :   -0.476443
   7 H :   -0.055443
   8 C :    1.418186
   9 H :    0.550993
  10 H :    0.311464
  11 O :   -0.669020
  12 C :   -0.882891
  13 H :    0.314456
  14 H :    0.342420
  15 H :    0.405916
  16 O :   -0.858477
  17 C :   -0.907132
  18 H :    0.383307
  19 H :    0.366047
  20 H :    0.354593
  21 H :    0.295190
  22 H :    0.395582
Sum of atomic charges:   -0.0000000

LOEWDIN ATOMIC CHARGES
----------------------
   0 C :    0.008153
   1 C :   -0.137824
   2 C :    0.210707
   3 C :    0.207912
   4 C :    0.220085
   5 H :   -0.163628
   6 C :    0.212598
   7 H :   -0.172745
   8 C :   -0.387774
   9 H :   -0.178562
  10 H :   -0.205848
  11 O :    0.549206
  12 C :    0.314590
  13 H :   -0.173860
  14 H :   -0.184313
  15 H :   -0.180185
  16 O :    0.574242
  17 C :    0.334872
  18 H :   -0.179817
  19 H :   -0.173106
  20 H :   -0.173241
  21 H :   -0.165134
  22 H :   -0.156327

  Mayer bond orders larger than 0.100000
B(  0-C ,  1-C ) :   0.4927 B(  0-C ,  2-C ) :   0.2745 B(  0-C ,  6-C ) :  -0.1006
B(  0-C , 11-O ) :   0.8549 B(  0-C , 21-H ) :   1.0237 B(  0-C , 22-H ) :   0.9200
B(  1-C ,  2-C ) :   0.5136 B(  1-C ,  3-C ) :   0.2406 B(  1-C ,  4-C ) :   0.2473
B(  1-C ,  5-H ) :  -0.3122 B(  1-C ,  6-C ) :   0.2432 B(  1-C ,  7-H ) :  -0.3084
B(  2-C ,  3-C ) :  -0.2576 B(  2-C ,  4-C ) :   1.4857 B(  2-C ,  5-H ) :   1.3807
B(  2-C ,  6-C ) :  -0.1149 B(  2-C ,  7-H ) :   0.1550 B(  2-C ,  8-C ) :  -0.2698
B(  2-C , 11-O ) :  -0.1138 B(  3-C ,  4-C ) :   0.1121 B(  3-C ,  5-H ) :   0.2029
B(  3-C ,  6-C ) :   1.0981 B(  3-C ,  7-H ) :   1.8065 B(  3-C ,  8-C ) :  -0.1899
B(  3-C , 10-H ) :  -0.1604 B(  4-C ,  6-C ) :   0.1990 B(  4-C ,  8-C ) :   0.8668
B(  4-C ,  9-H ) :   0.5301 B(  4-C , 16-O ) :   0.2460 B(  6-C ,  7-H ) :  -0.1874
B(  6-C ,  8-C ) :   1.0539 B(  6-C , 10-H ) :   0.9785 B(  6-C , 16-O ) :  -0.2429
B(  8-C ,  9-H ) :   0.1116 B(  8-C , 10-H ) :   0.1033 B(  8-C , 16-O ) :   0.3195
B( 10-H , 17-C ) :  -0.1099 B( 11-O , 12-C ) :   0.9751 B( 12-C , 13-H ) :   0.8992
B( 12-C , 14-H ) :   0.9579 B( 12-C , 15-H ) :   0.8119 B( 16-O , 17-C ) :   1.0183
B( 17-C , 18-H ) :   0.9166 B( 17-C , 19-H ) :   0.8859 B( 17-C , 20-H ) :   0.8856

MP2 TOTAL ENERGY:     -499.645132890 Eh
FINAL SINGLE POINT ENERGY      -499.645132889715

DIPOLE MOMENT
-------------
                                X             Y             Z
Electronic contribution:     -1.59593       3.51050      -2.33523
Nuclear contribution   :      1.01574      -4.33675       2.50568
                        -----------------------------------------
Total Dipole Moment    :     -0.58019      -0.82624       0.17044
                        -----------------------------------------
Magnitude (a.u.)       :      1.02389
Magnitude (Debye)      :      2.60251

Rotational constants in cm-1:     0.103054     0.017684     0.016849
Rotational constants in MHz :  3089.472226   530.156898   505.117874

                             ****ORCA TERMINATED NORMALLY****
TOTAL RUN TIME: 0 days 0 hours 7 minutes 47 seconds 157 msec
