                         Program Version 4.2.1 -  RELEASE  -
|  1> %pal
|  2>  nprocs 32
|  3> end
|  4> !RI-MP2 aug-cc-pVTZ aug-cc-pVTZ/C TightSCF
|  5> %maxcore 4500
|  6> *xyzfile 0 1  10_20R1.xyz
|  7>
|  8>
|  9>                          ****END OF INPUT****

CARTESIAN COORDINATES (ANGSTROEM)
---------------------------------
  N      1.467630   -0.895202   -0.000005
  N      2.396874   -0.093300   -0.000014
  N      3.320947    0.547447   -0.000023
  C      0.149692   -0.371226    0.000001
  C     -0.137466    0.990551   -0.000004
  C     -0.882104   -1.304114    0.000012
  C     -1.459849    1.410672    0.000002
  C     -2.197404   -0.872426    0.000018
  C     -2.493524    0.485499    0.000013
  H      0.661389    1.722991   -0.000013
  H     -1.679660    2.471293   -0.000002
  H     -3.523386    0.819359    0.000018
  H     -2.997764   -1.602225    0.000026
  H     -0.634804   -2.357767    0.000015

 Total Charge           Charge          ....    0
 Multiplicity           Mult            ....    1
 Number of Electrons    NEL             ....   62
 Basis Dimension        Dim             ....  529

ORBITAL ENERGIES
----------------

  NO   OCC          E(Eh)            E(eV)
   0   2.0000     -15.794070      -429.7785
   1   2.0000     -15.680966      -426.7008
   2   2.0000     -15.621202      -425.0745
   3   2.0000     -11.296446      -307.3919
   4   2.0000     -11.247525      -306.0607
   5   2.0000     -11.245881      -306.0160
   6   2.0000     -11.244235      -305.9712
   7   2.0000     -11.239820      -305.8511
   8   2.0000     -11.237547      -305.7892
   9   2.0000      -1.524491       -41.4835
  10   2.0000      -1.317632       -35.8546
  11   2.0000      -1.165555       -31.7164
  12   2.0000      -1.040788       -28.3213
  13   2.0000      -1.030226       -28.0339
  14   2.0000      -0.884966       -24.0811
  15   2.0000      -0.845647       -23.0112
  16   2.0000      -0.770259       -20.9598
  17   2.0000      -0.721321       -19.6281
  18   2.0000      -0.720041       -19.5933
  19   2.0000      -0.690252       -18.7827
  20   2.0000      -0.680884       -18.5278
  21   2.0000      -0.636777       -17.3276
  22   2.0000      -0.618589       -16.8327
  23   2.0000      -0.598816       -16.2946
  24   2.0000      -0.533427       -14.5153
  25   2.0000      -0.531527       -14.4636
  26   2.0000      -0.512001       -13.9323
  27   2.0000      -0.458281       -12.4704
  28   2.0000      -0.438274       -11.9260
  29   2.0000      -0.351733        -9.5711
  30   2.0000      -0.313891        -8.5414
  31   0.0000       0.028390         0.7725
  32   0.0000       0.033217         0.9039
  33   0.0000       0.038112         1.0371
  34   0.0000       0.049341         1.3426
  35   0.0000       0.052989         1.4419

MULLIKEN ATOMIC CHARGES
-----------------------
   0 N :   -1.059447
   1 N :    1.265524
   2 N :   -0.860761
   3 C :    1.008973
   4 C :   -0.612218
   5 C :   -0.816308
   6 C :   -0.619268
   7 C :   -0.380676
   8 C :   -0.493703
   9 H :    0.627376
  10 H :    0.421094
  11 H :    0.530483
  12 H :    0.316072
  13 H :    0.672857
Sum of atomic charges:   -0.0000000

LOEWDIN ATOMIC CHARGES
----------------------
   0 N :    0.227032
   1 N :   -0.229047
   2 N :    0.313014
   3 C :   -0.340172
   4 C :    0.190166
   5 C :    0.194311
   6 C :    0.189291
   7 C :    0.190598
   8 C :    0.190798
   9 H :   -0.198876
  10 H :   -0.180014
  11 H :   -0.186873
  12 H :   -0.179751
  13 H :   -0.180477

  Mayer bond orders larger than 0.100000
B(  0-N ,  1-N ) :   0.6888 B(  0-N ,  2-N ) :   0.8083 B(  0-N ,  3-C ) :   0.8401
B(  0-N ,  4-C ) :  -0.3879 B(  0-N ,  5-C ) :  -0.1544 B(  1-N ,  2-N ) :   0.9574
B(  1-N ,  5-C ) :   0.1444 B(  1-N ,  9-H ) :  -0.1156 B(  2-N ,  3-C ) :   0.1268
B(  3-C ,  4-C ) :   0.8209 B(  3-C ,  5-C ) :   0.8309 B(  3-C ,  6-C ) :  -0.2050
B(  3-C ,  7-C ) :  -0.2600 B(  3-C ,  9-H ) :   0.1071 B(  3-C , 13-H ) :   0.1133
B(  4-C ,  5-C ) :   0.4061 B(  4-C ,  6-C ) :   1.2435 B(  4-C ,  8-C ) :   0.1936
B(  4-C ,  9-H ) :   0.4790 B(  5-C ,  7-C ) :   1.1604 B(  5-C ,  8-C ) :   0.2513
B(  5-C , 13-H ) :   0.2978 B(  6-C ,  7-C ) :  -0.1020 B(  6-C ,  8-C ) :   1.2297
B(  6-C , 10-H ) :   0.8432 B(  7-C ,  8-C ) :   1.0561 B(  7-C , 12-H ) :   1.0496
B(  8-C , 11-H ) :   0.6647

MP2 TOTAL ENERGY:     -395.090541612 Eh
FINAL SINGLE POINT ENERGY      -395.090541612246

DIPOLE MOMENT
-------------
                                X             Y             Z
Electronic contribution:      7.41979      -0.77674      -0.00004
Nuclear contribution   :     -7.94866       1.02736       0.00004
                        -----------------------------------------
Total Dipole Moment    :     -0.52887       0.25062       0.00000
                        -----------------------------------------
Magnitude (a.u.)       :      0.58524
Magnitude (Debye)      :      1.48757

Rotational constants in cm-1:     0.163200     0.036811     0.030036
Rotational constants in MHz :  4892.617863  1103.568816   900.462375

                             ****ORCA TERMINATED NORMALLY****
TOTAL RUN TIME: 0 days 0 hours 2 minutes 52 seconds 268 msec
