                         Program Version 4.2.1 -  RELEASE  -
|  1> %pal
|  2>  nprocs 32
|  3> end
|  4> !RI-MP2 aug-cc-pVTZ aug-cc-pVTZ/C TightSCF
|  5> %maxcore 4500
|  6> *xyzfile 1 1  10_30TS.xyz
|  7>
|  8>
|  9>                          ****END OF INPUT****

CARTESIAN COORDINATES (ANGSTROEM)
---------------------------------
  C     -2.728638    2.755464   -0.070629
  C     -1.797764    1.742919    0.620243
  C     -0.375626    3.265593   -0.130697
  C     -1.729186    3.821410   -0.605798
  H     -3.320395    2.285187   -0.854208
  H     -3.417071    3.178030    0.661483
  H     -1.764025    3.932222   -1.690476
  H     -1.909886    4.805276   -0.172569
  C     -0.725224    2.650117    1.225644
  H      0.099191    2.115442    1.691147
  H     -1.141418    3.376965    1.920534
  H     -2.280229    1.006323    1.248902
  H      0.472628    3.943161   -0.177970
  N     -0.072661    2.027193   -0.891701
  N     -1.026617    1.106294   -0.471825
  C     -0.816933   -0.177488   -0.778578
  C     -1.670171   -1.249125   -0.231569
  C     -1.792118   -1.477874    1.139949
  C     -2.335085   -2.087207   -1.125162
  C     -2.588865   -2.509449    1.606136
  H     -1.239919   -0.870506    1.846545
  C     -3.140585   -3.113609   -0.655863
  H     -2.226815   -1.931781   -2.192358
  C     -3.269874   -3.323896    0.709166
  H     -2.672534   -2.686543    2.670907
  H     -3.661132   -3.753197   -1.357125
  H     -3.891866   -4.130459    1.076460
  H     -0.478239   -0.333836   -1.797509
  H     -0.091670    2.151905   -1.900930
  C      1.157304   -0.590886   -0.138937
  H      0.989682   -0.748844    0.925023
  C      1.833955    0.558947   -0.472522
  H      2.153887    0.672237   -1.506347
  C      1.435905   -1.849644   -0.925026
  H      0.606113   -2.557167   -0.856762
  H      1.567975   -1.599154   -1.983530
  C      2.575981    1.372125    0.523275
  H      2.113285    1.281061    1.509251
  H      2.617618    2.430381    0.257213
  C      4.019846    0.817743    0.603507
  H      4.549875    1.068181   -0.320481
  H      4.529074    1.361718    1.402691
  C      4.134800   -0.691740    0.860726
  H      5.127626   -0.863039    1.280623
  H      3.436130   -0.982030    1.652403
  C      2.716117   -2.521472   -0.402062
  H      2.916295   -3.390084   -1.034758
  H      2.526913   -2.918337    0.600631
  C      3.966663   -1.630373   -0.363774
  H      4.830764   -2.296800   -0.391266
  H      4.030069   -1.050044   -1.291025

 Total Charge           Charge          ....    1
 Multiplicity           Mult            ....    1
 Number of Electrons    NEL             ....  162
 Basis Dimension        Dim             .... 1679

ORBITAL ENERGIES
----------------

  NO   OCC          E(Eh)            E(eV)
   0   2.0000     -15.766947      -429.0404
   1   2.0000     -15.748005      -428.5250
   2   2.0000     -11.463664      -311.9422
   3   2.0000     -11.406576      -310.3887
   4   2.0000     -11.399673      -310.2009
   5   2.0000     -11.397506      -310.1419
   6   2.0000     -11.372626      -309.4649
   7   2.0000     -11.361167      -309.1531
   8   2.0000     -11.360433      -309.1331
   9   2.0000     -11.356587      -309.0284
  10   2.0000     -11.351468      -308.8891
  11   2.0000     -11.349168      -308.8266
  12   2.0000     -11.347717      -308.7871
  13   2.0000     -11.347536      -308.7822
  14   2.0000     -11.347169      -308.7722
  15   2.0000     -11.346531      -308.7548
  16   2.0000     -11.342526      -308.6458
  17   2.0000     -11.336445      -308.4804
  18   2.0000     -11.330000      -308.3050
  19   2.0000     -11.317057      -307.9528
  20   2.0000     -11.315802      -307.9186
  21   2.0000     -11.313462      -307.8550
  22   2.0000      -1.510853       -41.1124
  23   2.0000      -1.308262       -35.5996
  24   2.0000      -1.270102       -34.5612
  25   2.0000      -1.246835       -33.9281
  26   2.0000      -1.238653       -33.7055
  27   2.0000      -1.169898       -31.8345
  28   2.0000      -1.160973       -31.5917
  29   2.0000      -1.151494       -31.3337
  30   2.0000      -1.139195       -30.9991
  31   2.0000      -1.108775       -30.1713
  32   2.0000      -1.083514       -29.4839
  33   2.0000      -1.036290       -28.1989
  34   2.0000      -1.025681       -27.9102
  35   2.0000      -1.000237       -27.2178
  36   2.0000      -0.962998       -26.2045
  37   2.0000      -0.951844       -25.9010
  38   2.0000      -0.920244       -25.0411
  39   2.0000      -0.901910       -24.5422
  40   2.0000      -0.899034       -24.4639
  41   2.0000      -0.888923       -24.1888
  42   2.0000      -0.882105       -24.0033
  43   2.0000      -0.860481       -23.4149
  44   2.0000      -0.827946       -22.5296
  45   2.0000      -0.812139       -22.0994
  46   2.0000      -0.794031       -21.6067
  47   2.0000      -0.781009       -21.2523
  48   2.0000      -0.757193       -20.6043
  49   2.0000      -0.752411       -20.4741
  50   2.0000      -0.748720       -20.3737
  51   2.0000      -0.737397       -20.0656
  52   2.0000      -0.736515       -20.0416
  53   2.0000      -0.719785       -19.5864
  54   2.0000      -0.709224       -19.2990
  55   2.0000      -0.699018       -19.0212
  56   2.0000      -0.691685       -18.8217
  57   2.0000      -0.686380       -18.6773
  58   2.0000      -0.672437       -18.2979
  59   2.0000      -0.669574       -18.2200
  60   2.0000      -0.659795       -17.9539
  61   2.0000      -0.654679       -17.8147
  62   2.0000      -0.645615       -17.5681
  63   2.0000      -0.637954       -17.3596
  64   2.0000      -0.633774       -17.2459
  65   2.0000      -0.629736       -17.1360
  66   2.0000      -0.622243       -16.9321
  67   2.0000      -0.621278       -16.9058
  68   2.0000      -0.614628       -16.7249
  69   2.0000      -0.611760       -16.6468
  70   2.0000      -0.601156       -16.3583
  71   2.0000      -0.596249       -16.2248
  72   2.0000      -0.586470       -15.9587
  73   2.0000      -0.578678       -15.7466
  74   2.0000      -0.561069       -15.2675
  75   2.0000      -0.551382       -15.0039
  76   2.0000      -0.542017       -14.7490
  77   2.0000      -0.511808       -13.9270
  78   2.0000      -0.458222       -12.4689
  79   2.0000      -0.453992       -12.3538
  80   2.0000      -0.441706       -12.0194
  81   0.0000      -0.070120        -1.9081
  82   0.0000      -0.060921        -1.6577
  83   0.0000      -0.053839        -1.4650
  84   0.0000      -0.048935        -1.3316
  85   0.0000      -0.043615        -1.1868

MULLIKEN ATOMIC CHARGES
-----------------------
   0 C :   -0.925331
   1 C :   -0.315279
   2 C :   -0.302988
   3 C :   -0.655198
   4 H :    0.292993
   5 H :    0.239918
   6 H :    0.272208
   7 H :    0.261111
   8 C :   -0.728780
   9 H :    0.254782
  10 H :    0.392486
  11 H :    0.608565
  12 H :    0.496815
  13 N :   -0.107174
  14 N :   -0.173168
  15 C :    0.930451
  16 C :    1.971528
  17 C :   -0.375825
  18 C :   -1.070086
  19 C :   -1.192242
  20 H :   -0.185394
  21 C :   -0.667725
  22 H :   -0.238743
  23 C :    0.036778
  24 H :    0.394465
  25 H :    0.618256
  26 H :    0.660832
  27 H :    0.434632
  28 H :   -0.264243
  29 C :    0.935272
  30 H :    0.097395
  31 C :   -0.075461
  32 H :    0.242558
  33 C :   -1.003452
  34 H :    0.543218
  35 H :    0.202266
  36 C :   -0.539412
  37 H :    0.217383
  38 H :    0.368034
  39 C :   -0.572372
  40 H :    0.164723
  41 H :    0.260580
  42 C :   -0.521598
  43 H :    0.255230
  44 H :    0.154656
  45 C :   -0.646546
  46 H :    0.255544
  47 H :    0.136086
  48 C :   -0.481886
  49 H :    0.265483
  50 H :    0.078655
Sum of atomic charges:    1.0000000

LOEWDIN ATOMIC CHARGES
----------------------
   0 C :    0.370713
   1 C :   -0.009393
   2 C :   -0.035110
   3 C :    0.366598
   4 H :   -0.131972
   5 H :   -0.128399
   6 H :   -0.135359
   7 H :   -0.130330
   8 C :    0.368775
   9 H :   -0.149302
  10 H :   -0.109862
  11 H :   -0.138991
  12 H :   -0.103476
  13 N :    0.536374
  14 N :    0.221137
  15 C :    0.096064
  16 C :   -0.109332
  17 C :    0.217332
  18 C :    0.236767
  19 C :    0.237611
  20 H :   -0.169130
  21 C :    0.233924
  22 H :   -0.158927
  23 C :    0.232042
  24 H :   -0.168519
  25 H :   -0.168545
  26 H :   -0.165017
  27 H :   -0.146161
  28 H :   -0.233958
  29 C :    0.139315
  30 H :   -0.153226
  31 C :    0.222010
  32 H :   -0.117268
  33 C :    0.286198
  34 H :   -0.148476
  35 H :   -0.132535
  36 C :    0.307559
  37 H :   -0.153045
  38 H :   -0.135920
  39 C :    0.325268
  40 H :   -0.137304
  41 H :   -0.133803
  42 C :    0.323750
  43 H :   -0.143104
  44 H :   -0.150270
  45 C :    0.320081
  46 H :   -0.136451
  47 H :   -0.137239
  48 C :    0.323171
  49 H :   -0.143159
  50 H :   -0.151105

  Mayer bond orders larger than 0.100000
B(  0-C ,  1-C ) :   0.9395 B(  0-C ,  3-C ) :   1.2320 B(  0-C ,  4-H ) :   0.9852
B(  0-C ,  5-H ) :   1.0324 B(  0-C ,  8-C ) :   0.1044 B(  0-C , 11-H ) :  -0.1229
B(  0-C , 14-N ) :  -0.2557 B(  0-C , 15-C ) :  -0.1094 B(  1-C ,  2-C ) :  -0.1586
B(  1-C ,  8-C ) :   0.9592 B(  1-C , 11-H ) :   0.5613 B(  1-C , 13-N ) :  -0.1503
B(  1-C , 14-N ) :   1.1872 B(  1-C , 15-C ) :  -0.1216 B(  1-C , 16-C ) :  -0.1137
B(  2-C ,  3-C ) :   0.9202 B(  2-C ,  8-C ) :   1.0267 B(  2-C , 12-H ) :   0.6967
B(  2-C , 13-N ) :   1.2939 B(  2-C , 14-N ) :  -0.2526 B(  3-C ,  6-H ) :   0.9594
B(  3-C ,  7-H ) :   0.9989 B(  8-C ,  9-H ) :   1.0082 B(  8-C , 10-H ) :   0.8625
B(  8-C , 11-H ) :  -0.1201 B( 13-N , 14-N ) :   0.3664 B( 13-N , 28-H ) :   0.9458
B( 13-N , 29-C ) :   0.1914 B( 13-N , 32-H ) :   0.1410 B( 14-N , 15-C ) :   0.9886
B( 14-N , 20-H ) :   0.2006 B( 14-N , 27-H ) :   0.2297 B( 14-N , 28-H ) :   0.1436
B( 14-N , 30-H ) :  -0.1015 B( 15-C , 16-C ) :  -0.3417 B( 15-C , 17-C ) :  -0.2715
B( 15-C , 18-C ) :   0.4194 B( 15-C , 19-C ) :   0.1041 B( 15-C , 20-H ) :  -0.6574
B( 15-C , 21-C ) :   0.1993 B( 15-C , 22-H ) :  -0.4086 B( 15-C , 27-H ) :   0.6179
B( 15-C , 28-H ) :   0.1162 B( 15-C , 30-H ) :   0.1735 B( 15-C , 31-C ) :   0.1367
B( 15-C , 32-H ) :   0.1591 B( 15-C , 33-C ) :   0.2180 B( 16-C , 17-C ) :   1.1102
B( 16-C , 19-C ) :  -0.1265 B( 16-C , 20-H ) :  -0.1160 B( 16-C , 21-C ) :   0.1408
B( 16-C , 22-H ) :  -0.5929 B( 16-C , 24-H ) :  -0.1180 B( 16-C , 29-C ) :   0.2242
B( 16-C , 33-C ) :  -0.1354 B( 16-C , 34-H ) :  -0.1161 B( 17-C , 18-C ) :  -0.7024
B( 17-C , 19-C ) :   1.4902 B( 17-C , 20-H ) :   1.7835 B( 17-C , 22-H ) :   0.2323
B( 17-C , 26-H ) :  -0.1301 B( 18-C , 19-C ) :   0.1669 B( 18-C , 20-H ) :   0.2342
B( 18-C , 21-C ) :   1.2750 B( 18-C , 22-H ) :   2.2389 B( 18-C , 26-H ) :   0.1671
B( 19-C , 21-C ) :   0.2214 B( 19-C , 23-C ) :   1.1602 B( 19-C , 24-H ) :   0.8464
B( 19-C , 26-H ) :  -0.2578 B( 20-H , 22-H ) :   0.2968 B( 20-H , 23-C ) :  -0.1709
B( 21-C , 22-H ) :  -0.1537 B( 21-C , 23-C ) :   0.9752 B( 21-C , 25-H ) :   0.5323
B( 21-C , 26-H ) :  -0.1938 B( 23-C , 26-H ) :   0.4793 B( 29-C , 30-H ) :   0.8233
B( 29-C , 31-C ) :   1.0867 B( 29-C , 32-H ) :  -0.1974 B( 29-C , 33-C ) :   0.5031
B( 29-C , 35-H ) :  -0.1235 B( 29-C , 42-C ) :  -0.1240 B( 29-C , 44-H ) :  -0.1040
B( 30-H , 32-H ) :   0.2387 B( 31-C , 32-H ) :   0.9185 B( 31-C , 36-C ) :   0.7381
B( 33-C , 34-H ) :   0.7556 B( 33-C , 35-H ) :   1.2252 B( 33-C , 45-C ) :   1.0136
B( 34-H , 45-C ) :  -0.1374 B( 36-C , 37-H ) :   1.1469 B( 36-C , 38-H ) :   0.8730
B( 36-C , 39-C ) :   0.8429 B( 39-C , 40-H ) :   1.1753 B( 39-C , 41-H ) :   0.9910
B( 39-C , 42-C ) :   0.8332 B( 42-C , 43-H ) :   0.9864 B( 42-C , 44-H ) :   1.1251
B( 42-C , 48-C ) :   0.8275 B( 45-C , 46-H ) :   0.9619 B( 45-C , 47-H ) :   1.1760
B( 45-C , 48-C ) :   0.8589 B( 48-C , 49-H ) :   0.9549 B( 48-C , 50-H ) :   1.1844

MP2 TOTAL ENERGY:     -886.930998815 Eh
FINAL SINGLE POINT ENERGY      -886.930998814686

DIPOLE MOMENT
-------------
                                X             Y             Z
Electronic contribution:    -15.38955      -2.50759      -1.59746
Nuclear contribution   :     14.88660       3.61698       1.24368
                        -----------------------------------------
Total Dipole Moment    :     -0.50295       1.10939      -0.35378
                        -----------------------------------------
Magnitude (a.u.)       :      1.26841
Magnitude (Debye)      :      3.22405

Rotational constants in cm-1:     0.010517     0.008663     0.005400
Rotational constants in MHz :   315.304978   259.717171   161.886942

                             ****ORCA TERMINATED NORMALLY****
TOTAL RUN TIME: 0 days 2 hours 9 minutes 11 seconds 815 msec
