                         Program Version 4.2.1 -  RELEASE  -
|  1> %pal
|  2>  nprocs 32
|  3> end
|  4> !RI-MP2 aug-cc-pVTZ aug-cc-pVTZ/C TightSCF
|  5> %maxcore 4500
|  6> *xyzfile 0 1  03_18R1.xyz
|  7>
|  8>
|  9>                          ****END OF INPUT****

CARTESIAN COORDINATES (ANGSTROEM)
---------------------------------
  C      1.986004   -0.000023    0.831122
  C      0.529809   -0.000016    0.503811
  C     -0.161902   -1.196027    0.344499
  C     -0.161895    1.196007    0.344525
  H      0.364054   -2.137799    0.456257
  C     -1.512562   -1.194526    0.035057
  C     -1.512552    1.194522    0.035083
  C     -2.211047    0.000001   -0.122331
  H      0.364069    2.137772    0.456303
  H     -2.033968   -2.137419   -0.087567
  H     -2.033951    2.137421   -0.087521
  C     -3.683851    0.000017   -0.426930
  H     -3.970444    0.883509   -0.999195
  H     -3.970537   -0.883672   -0.998843
  H     -4.271361    0.000234    0.495610
  H      2.276480   -0.887292    1.387319
  H      2.276479    0.887216    1.387366
  Cl     3.021598    0.000018   -0.663456

 Total Charge           Charge          ....    0
 Multiplicity           Mult            ....    1
 Number of Electrons    NEL             ....   74
 Basis Dimension        Dim             ....  625

ORBITAL ENERGIES
----------------

  NO   OCC          E(Eh)            E(eV)
   0   2.0000    -104.818503     -2852.2565
   1   2.0000     -11.298142      -307.4381
   2   2.0000     -11.247725      -306.0662
   3   2.0000     -11.245907      -306.0167
   4   2.0000     -11.240884      -305.8800
   5   2.0000     -11.240716      -305.8754
   6   2.0000     -11.234983      -305.7194
   7   2.0000     -11.234919      -305.7177
   8   2.0000     -11.228865      -305.5529
   9   2.0000     -10.542626      -286.8794
  10   2.0000      -8.009372      -217.9461
  11   2.0000      -8.007620      -217.8984
  12   2.0000      -8.007592      -217.8976
  13   2.0000      -1.174804       -31.9680
  14   2.0000      -1.124154       -30.5898
  15   2.0000      -1.054884       -28.7048
  16   2.0000      -1.022882       -27.8340
  17   2.0000      -0.963616       -26.2213
  18   2.0000      -0.888383       -24.1741
  19   2.0000      -0.840240       -22.8641
  20   2.0000      -0.792934       -21.5768
  21   2.0000      -0.685825       -18.6623
  22   2.0000      -0.667517       -18.1641
  23   2.0000      -0.639798       -17.4098
  24   2.0000      -0.596563       -16.2333
  25   2.0000      -0.591031       -16.0828
  26   2.0000      -0.584768       -15.9123
  27   2.0000      -0.581243       -15.8164
  28   2.0000      -0.553133       -15.0515
  29   2.0000      -0.542036       -14.7496
  30   2.0000      -0.502213       -13.6659
  31   2.0000      -0.492894       -13.4123
  32   2.0000      -0.487995       -13.2790
  33   2.0000      -0.431786       -11.7495
  34   2.0000      -0.430403       -11.7119
  35   2.0000      -0.344409        -9.3718
  36   2.0000      -0.328357        -8.9351
  37   0.0000       0.027926         0.7599
  38   0.0000       0.030716         0.8358
  39   0.0000       0.032985         0.8976
  40   0.0000       0.043037         1.1711
  41   0.0000       0.045390         1.2351

MULLIKEN ATOMIC CHARGES
-----------------------
   0 C :   -0.113589
   1 C :    1.242257
   2 C :   -0.992445
   3 C :   -0.992544
   4 H :    0.277428
   5 C :   -0.901289
   6 C :   -0.901406
   7 C :    1.509050
   8 H :    0.277385
   9 H :    0.245799
  10 H :    0.245889
  11 C :   -0.906566
  12 H :    0.265016
  13 H :    0.264989
  14 H :    0.312264
  15 H :    0.257364
  16 H :    0.257359
  17 Cl:   -0.346962
Sum of atomic charges:    0.0000000

LOEWDIN ATOMIC CHARGES
----------------------
   0 C :   -0.262034
   1 C :   -0.224273
   2 C :    0.205577
   3 C :    0.205577
   4 H :   -0.172182
   5 C :    0.221708
   6 C :    0.221707
   7 C :   -0.122997
   8 H :   -0.172183
   9 H :   -0.175100
  10 H :   -0.175096
  11 C :    0.579691
  12 H :   -0.173864
  13 H :   -0.173871
  14 H :   -0.161868
  15 H :   -0.242171
  16 H :   -0.242171
  17 Cl:    0.863552

  Mayer bond orders larger than 0.100000
B(  0-C ,  1-C ) :   0.8419 B(  0-C , 15-H ) :   0.9748 B(  0-C , 16-H ) :   0.9748
B(  0-C , 17-Cl) :   0.6441 B(  1-C ,  2-C ) :   0.5299 B(  1-C ,  3-C ) :   0.5299
B(  1-C ,  4-H ) :  -0.1004 B(  1-C ,  7-C ) :   0.1306 B(  1-C ,  8-H ) :  -0.1004
B(  1-C , 17-Cl) :   0.1018 B(  2-C ,  4-H ) :   1.1174 B(  2-C ,  5-C ) :   1.3984
B(  3-C ,  6-C ) :   1.3985 B(  3-C ,  8-H ) :   1.1175 B(  5-C ,  7-C ) :   0.6364
B(  5-C ,  9-H ) :   1.1766 B(  6-C ,  7-C ) :   0.6364 B(  6-C , 10-H ) :   1.1764
B(  7-C , 11-C ) :   0.4724 B( 11-C , 12-H ) :   1.0054 B( 11-C , 13-H ) :   1.0054
B( 11-C , 14-H ) :   0.9596

MP2 TOTAL ENERGY:     -769.325115552 Eh
FINAL SINGLE POINT ENERGY      -769.325115552190

DIPOLE MOMENT
-------------
                                X             Y             Z
Electronic contribution:     14.29131       0.00005      -2.32044
Nuclear contribution   :    -15.14382      -0.00006       2.92449
                        -----------------------------------------
Total Dipole Moment    :     -0.85251      -0.00001       0.60405
                        -----------------------------------------
Magnitude (a.u.)       :      1.04482
Magnitude (Debye)      :      2.65571

Rotational constants in cm-1:     0.131091     0.022239     0.020815
Rotational constants in MHz :  3930.000929   666.700828   624.015765

                             ****ORCA TERMINATED NORMALLY****
TOTAL RUN TIME: 0 days 0 hours 4 minutes 12 seconds 74 msec
