                         Program Version 4.2.1 -  RELEASE  -
|  1> %pal
|  2>  nprocs 32
|  3> end
|  4> !RI-MP2 aug-cc-pVTZ aug-cc-pVTZ/C TightSCF
|  5> %maxcore 4500
|  6> *xyzfile 0 2  01_10R.xyz
|  7>
|  8>
|  9>                          ****END OF INPUT****

CARTESIAN COORDINATES (ANGSTROEM)
---------------------------------
  N      1.184431    0.457207   -0.780103
  C      1.027463   -0.623435    0.076337
  C     -0.116150   -1.549487   -0.261206
  C     -1.410827   -0.825332   -0.645549
  H     -0.263369   -2.202880    0.600149
  H      0.215986   -2.176669   -1.094088
  C     -1.932692    0.040290    0.462001
  H     -2.159750   -1.582612   -0.897812
  H     -1.248991   -0.223969   -1.542688
  C     -2.169163    1.340389    0.360764
  O      1.832580   -0.852497    0.957230
  C      1.613529    1.688285   -0.192247
  H      2.163172    2.283716   -0.920309
  H      2.211061    1.511546    0.707701
  H      0.721223    2.254861    0.109809
  H     -2.547357    1.915818    1.197010
  H     -2.002659    1.873470   -0.570058
  H     -2.113938   -0.458017    1.412566

 Total Charge           Charge          ....    0
 Multiplicity           Mult            ....    2
 Number of Electrons    NEL             ....   61
 Basis Dimension        Dim             ....  598

ORBITAL ENERGIES
----------------
                 SPIN UP ORBITALS
  NO   OCC          E(Eh)            E(eV)
   0   1.0000     -20.561764      -559.5141
   1   1.0000     -15.606243      -424.6675
   2   1.0000     -11.345855      -308.7364
   3   1.0000     -11.256430      -306.3030
   4   1.0000     -11.245092      -305.9945
   5   1.0000     -11.243478      -305.9506
   6   1.0000     -11.242068      -305.9122
   7   1.0000     -11.231244      -305.6177
   8   1.0000      -1.420117       -38.6434
   9   1.0000      -1.245915       -33.9031
  10   1.0000      -1.104492       -30.0547
  11   1.0000      -1.028714       -27.9927
  12   1.0000      -0.945140       -25.7186
  13   1.0000      -0.889350       -24.2004
  14   1.0000      -0.774955       -21.0876
  15   1.0000      -0.737990       -20.0817
  16   1.0000      -0.693798       -18.8792
  17   1.0000      -0.672341       -18.2953
  18   1.0000      -0.655535       -17.8380
  19   1.0000      -0.633407       -17.2359
  20   1.0000      -0.619675       -16.8622
  21   1.0000      -0.594936       -16.1890
  22   1.0000      -0.572450       -15.5772
  23   1.0000      -0.560021       -15.2389
  24   1.0000      -0.539574       -14.6826
  25   1.0000      -0.510213       -13.8836
  26   1.0000      -0.494273       -13.4499
  27   1.0000      -0.475464       -12.9380
  28   1.0000      -0.457036       -12.4366
  29   1.0000      -0.434143       -11.8136
  30   1.0000      -0.375553       -10.2193
  31   0.0000       0.027322         0.7435
  32   0.0000       0.032287         0.8786
  33   0.0000       0.035499         0.9660
  34   0.0000       0.041447         1.1278
  35   0.0000       0.049464         1.3460

                 SPIN DOWN ORBITALS
  NO   OCC          E(Eh)            E(eV)
   0   1.0000     -20.549149      -559.1708
   1   1.0000     -15.576015      -423.8449
   2   1.0000     -11.352777      -308.9248
   3   1.0000     -11.259132      -306.3766
   4   1.0000     -11.244410      -305.9760
   5   1.0000     -11.243506      -305.9513
   6   1.0000     -11.242110      -305.9134
   7   1.0000     -11.231219      -305.6170
   8   1.0000      -1.391428       -37.8627
   9   1.0000      -1.163127       -31.6503
  10   1.0000      -1.101901       -29.9843
  11   1.0000      -1.027616       -27.9629
  12   1.0000      -0.936742       -25.4900
  13   1.0000      -0.882696       -24.0194
  14   1.0000      -0.774150       -21.0657
  15   1.0000      -0.719495       -19.5784
  16   1.0000      -0.669066       -18.2062
  17   1.0000      -0.658255       -17.9120
  18   1.0000      -0.636296       -17.3145
  19   1.0000      -0.628922       -17.1138
  20   1.0000      -0.598137       -16.2761
  21   1.0000      -0.577391       -15.7116
  22   1.0000      -0.564806       -15.3691
  23   1.0000      -0.554685       -15.0938
  24   1.0000      -0.514819       -14.0089
  25   1.0000      -0.499807       -13.6004
  26   1.0000      -0.486619       -13.2416
  27   1.0000      -0.437226       -11.8975
  28   1.0000      -0.412645       -11.2287
  29   1.0000      -0.375302       -10.2125
  30   0.0000       0.027300         0.7429
  31   0.0000       0.032160         0.8751
  32   0.0000       0.035364         0.9623
  33   0.0000       0.041406         1.1267
  34   0.0000       0.049280         1.3410

MULLIKEN ATOMIC CHARGES AND SPIN POPULATIONS
--------------------------------------------
   0 N :   -0.341044    1.024418
   1 C :    0.702578   -0.302151
   2 C :   -0.310203    0.029534
   3 C :   -0.162361    0.006892
   4 H :    0.235410   -0.003746
   5 H :    0.298301   -0.011428
   6 C :   -0.185048   -0.003635
   7 H :    0.374012    0.002033
   8 H :    0.136822   -0.006357
   9 C :   -1.016285    0.004199
  10 O :   -0.889674    0.285320
  11 C :   -0.845044   -0.143579
  12 H :    0.324337    0.013461
  13 H :    0.365999    0.027191
  14 H :    0.422702    0.076177
  15 H :    0.539011    0.000223
  16 H :    0.234567    0.001113
  17 H :    0.115921    0.000335
Sum of atomic charges         :   -0.0000000

LOEWDIN ATOMIC CHARGES AND SPIN POPULATIONS
-------------------------------------------
   0 N :    0.431053    0.636158
   1 C :   -0.725240    0.034846
   2 C :    0.263288   -0.012557
   3 C :    0.236535    0.003695
   4 H :   -0.158447   -0.000217
   5 H :   -0.142869   -0.004072
   6 C :    0.175936   -0.000720
   7 H :   -0.144141    0.000314
   8 H :   -0.166383    0.004108
   9 C :    0.520584    0.000954
  10 O :    0.478522    0.196787
  11 C :    0.400201    0.105400
  12 H :   -0.184810    0.002268
  13 H :   -0.196195    0.007912
  14 H :   -0.179239    0.024926
  15 H :   -0.219970    0.000206
  16 H :   -0.213150    0.000156
  17 H :   -0.175674   -0.000163

  Mayer bond orders larger than 0.100000
B(  0-N ,  1-C ) :   0.8427 B(  0-N , 11-C ) :   0.8163 B(  1-C ,  2-C ) :   0.6639
B(  1-C , 10-O ) :   1.0985 B(  2-C ,  3-C ) :   0.9999 B(  2-C ,  4-H ) :   0.9504
B(  2-C ,  5-H ) :   0.9664 B(  3-C ,  6-C ) :   0.7142 B(  3-C ,  7-H ) :   0.8968
B(  3-C ,  8-H ) :   1.0061 B(  6-C ,  7-H ) :  -0.1070 B(  6-C ,  8-H ) :   0.1286
B(  6-C ,  9-C ) :   1.3819 B(  6-C , 17-H ) :   1.2088 B(  9-C , 15-H ) :   0.5801
B(  9-C , 16-H ) :   1.1509 B( 11-C , 12-H ) :   0.9323 B( 11-C , 13-H ) :   0.8866
B( 11-C , 14-H ) :   0.8135

MP2 TOTAL ENERGY:     -363.830096511 Eh
FINAL SINGLE POINT ENERGY      -363.830096510962

DIPOLE MOMENT
-------------
                                X             Y             Z
Electronic contribution:      4.28185      -2.91359       0.66026
Nuclear contribution   :     -5.09600       3.25295      -1.00843
                        -----------------------------------------
Total Dipole Moment    :     -0.81415       0.33936      -0.34816
                        -----------------------------------------
Magnitude (a.u.)       :      0.94828
Magnitude (Debye)      :      2.41032

Rotational constants in cm-1:     0.089830     0.053014     0.040267
Rotational constants in MHz :  2693.022057  1589.311145  1207.170746

                             ****ORCA TERMINATED NORMALLY****
TOTAL RUN TIME: 0 days 0 hours 9 minutes 7 seconds 329 msec
