                         Program Version 4.2.1 -  RELEASE  -
|  1> %pal
|  2>  nprocs 32
|  3> end
|  4> !RI-MP2 aug-cc-pVTZ aug-cc-pVTZ/C TightSCF
|  5> %maxcore 4500
|  6> *xyzfile 0 1  05_18R2.xyz
|  7>
|  8>
|  9>                          ****END OF INPUT****

CARTESIAN COORDINATES (ANGSTROEM)
---------------------------------
  C      1.179777    1.234178   -0.063848
  C      2.400440    0.572521   -0.125009
  C      2.429802   -0.806617   -0.030858
  C      1.256459   -1.550899    0.128055
  C      0.044953   -0.905119    0.199902
  C     -0.022506    0.501870    0.101650
  C     -1.288192    1.212129    0.130988
  C     -2.568431    0.423361    0.288480
  C     -2.453241   -1.029159   -0.100506
  H     -3.367678    0.912587   -0.265826
  H     -2.832039    0.461058    1.353313
  C     -1.208716   -1.719708    0.400655
  H     -1.352012   -1.888201    1.475981
  H     -1.127944   -2.696330   -0.074398
  H      3.303539    1.157103   -0.252935
  H      1.327491   -2.628533    0.191810
  O     -1.359329    2.435664    0.033792
  O     -3.301679   -1.597136   -0.736543
  O      3.583770   -1.506048   -0.089047
  H      4.331138   -0.911975   -0.208285
  O      1.183574    2.559403   -0.168169
  H      0.244754    2.863878   -0.116980

 Total Charge           Charge          ....    0
 Multiplicity           Mult            ....    1
 Number of Electrons    NEL             ....  100
 Basis Dimension        Dim             ....  828

ORBITAL ENERGIES
----------------

  NO   OCC          E(Eh)            E(eV)
   0   2.0000     -20.620970      -561.1251
   1   2.0000     -20.591719      -560.3292
   2   2.0000     -20.568522      -559.6979
   3   2.0000     -20.563212      -559.5535
   4   2.0000     -11.362176      -309.1805
   5   2.0000     -11.353056      -308.9324
   6   2.0000     -11.342912      -308.6563
   7   2.0000     -11.342184      -308.6365
   8   2.0000     -11.293561      -307.3134
   9   2.0000     -11.267311      -306.5991
  10   2.0000     -11.263448      -306.4940
  11   2.0000     -11.250212      -306.1338
  12   2.0000     -11.240116      -305.8591
  13   2.0000     -11.239184      -305.8337
  14   2.0000      -1.441790       -39.2331
  15   2.0000      -1.434356       -39.0308
  16   2.0000      -1.414548       -38.4918
  17   2.0000      -1.399099       -38.0714
  18   2.0000      -1.189884       -32.3784
  19   2.0000      -1.109734       -30.1974
  20   2.0000      -1.061108       -28.8742
  21   2.0000      -1.032220       -28.0881
  22   2.0000      -0.999229       -27.1904
  23   2.0000      -0.892075       -24.2746
  24   2.0000      -0.856977       -23.3195
  25   2.0000      -0.828120       -22.5343
  26   2.0000      -0.776742       -21.1362
  27   2.0000      -0.761207       -20.7135
  28   2.0000      -0.726997       -19.7826
  29   2.0000      -0.705600       -19.2004
  30   2.0000      -0.687217       -18.7001
  31   2.0000      -0.662842       -18.0369
  32   2.0000      -0.661253       -17.9936
  33   2.0000      -0.642625       -17.4867
  34   2.0000      -0.629741       -17.1361
  35   2.0000      -0.623247       -16.9594
  36   2.0000      -0.614279       -16.7154
  37   2.0000      -0.608863       -16.5680
  38   2.0000      -0.601341       -16.3633
  39   2.0000      -0.593782       -16.1576
  40   2.0000      -0.572535       -15.5795
  41   2.0000      -0.563364       -15.3299
  42   2.0000      -0.542008       -14.7488
  43   2.0000      -0.525006       -14.2861
  44   2.0000      -0.511220       -13.9110
  45   2.0000      -0.476826       -12.9751
  46   2.0000      -0.445414       -12.1203
  47   2.0000      -0.427385       -11.6297
  48   2.0000      -0.356618        -9.7041
  49   2.0000      -0.335760        -9.1365
  50   0.0000       0.021206         0.5770
  51   0.0000       0.026300         0.7157
  52   0.0000       0.034426         0.9368
  53   0.0000       0.042919         1.1679
  54   0.0000       0.044643         1.2148

MULLIKEN ATOMIC CHARGES
-----------------------
   0 C :    0.324562
   1 C :   -0.971498
   2 C :    0.975083
   3 C :   -1.034468
   4 C :    1.114151
   5 C :    1.070104
   6 C :   -0.025758
   7 C :   -0.094770
   8 C :    0.515216
   9 H :    0.295280
  10 H :    0.334378
  11 C :   -0.221992
  12 H :    0.286658
  13 H :    0.243948
  14 H :    0.447759
  15 H :    0.263863
  16 O :   -1.080467
  17 O :   -0.985578
  18 O :   -0.760505
  19 H :    0.160556
  20 O :   -1.022953
  21 H :    0.166433
Sum of atomic charges:    0.0000000

LOEWDIN ATOMIC CHARGES
----------------------
   0 C :   -0.356274
   1 C :    0.249047
   2 C :   -0.370743
   3 C :    0.241282
   4 C :   -0.104806
   5 C :   -0.058339
   6 C :   -0.453837
   7 C :    0.314105
   8 C :   -0.495741
   9 H :   -0.152147
  10 H :   -0.132215
  11 C :    0.306287
  12 H :   -0.126701
  13 H :   -0.150484
  14 H :   -0.179437
  15 H :   -0.175600
  16 O :    0.571568
  17 O :    0.491484
  18 O :    0.864462
  19 H :   -0.463374
  20 O :    0.880520
  21 H :   -0.699057

  Mayer bond orders larger than 0.100000
B(  0-C ,  1-C ) :   0.9715 B(  0-C ,  3-C ) :   0.1803 B(  0-C ,  4-C ) :  -0.7773
B(  0-C ,  6-C ) :   0.8997 B(  0-C , 16-O ) :   0.1155 B(  0-C , 20-O ) :   0.2402
B(  0-C , 21-H ) :   0.1480 B(  1-C ,  2-C ) :   0.9641 B(  1-C ,  3-C ) :   0.1876
B(  1-C ,  4-C ) :  -0.4730 B(  1-C ,  5-C ) :   0.2522 B(  1-C ,  6-C ) :   0.1337
B(  1-C , 14-H ) :   0.6555 B(  1-C , 18-O ) :  -0.1989 B(  1-C , 20-O ) :   0.2922
B(  2-C ,  3-C ) :   0.6624 B(  2-C , 15-H ) :  -0.1026 B(  2-C , 18-O ) :   0.4907
B(  3-C ,  4-C ) :   0.2041 B(  3-C ,  5-C ) :   0.5217 B(  3-C ,  6-C ) :   0.1008
B(  3-C , 11-C ) :  -0.1796 B(  3-C , 15-H ) :   1.0237 B(  4-C ,  5-C ) :   1.3956
B(  4-C ,  6-C ) :  -0.2028 B(  4-C ,  8-C ) :   0.4429 B(  4-C , 11-C ) :   0.5592
B(  5-C ,  6-C ) :   0.2671 B(  5-C ,  8-C ) :  -0.3373 B(  5-C , 20-O ) :  -0.1822
B(  6-C ,  7-C ) :   0.7919 B(  6-C ,  8-C ) :   0.2161 B(  6-C , 16-O ) :   0.7790
B(  7-C ,  8-C ) :   0.7936 B(  7-C ,  9-H ) :   0.9255 B(  7-C , 10-H ) :   0.9377
B(  8-C , 11-C ) :   0.7032 B(  8-C , 17-O ) :   0.7710 B( 11-C , 12-H ) :   0.9797
B( 11-C , 13-H ) :   0.9559 B( 16-O , 21-H ) :   0.1890 B( 18-O , 19-H ) :   1.0615
B( 20-O , 21-H ) :   0.8823

MP2 TOTAL ENERGY:     -685.601555174 Eh
FINAL SINGLE POINT ENERGY      -685.601555174295

DIPOLE MOMENT
-------------
                                X             Y             Z
Electronic contribution:      0.55598       2.08893      -1.25310
Nuclear contribution   :      0.51692      -2.63928       2.04016
                        -----------------------------------------
Total Dipole Moment    :      1.07290      -0.55035       0.78705
                        -----------------------------------------
Magnitude (a.u.)       :      1.43995
Magnitude (Debye)      :      3.66005

Rotational constants in cm-1:     0.036347     0.019401     0.012996
Rotational constants in MHz :  1089.649237   581.629889   389.601737

                             ****ORCA TERMINATED NORMALLY****
TOTAL RUN TIME: 0 days 0 hours 11 minutes 27 seconds 63 msec
