                         Program Version 4.2.1 -  RELEASE  -
|  1> %pal
|  2>  nprocs 32
|  3> end
|  4> !RI-MP2 aug-cc-pVTZ aug-cc-pVTZ/C TightSCF
|  5> %maxcore 4500
|  6> *xyzfile 0 1  03_30P2.xyz
|  7>
|  8>
|  9>                          ****END OF INPUT****

CARTESIAN COORDINATES (ANGSTROEM)
---------------------------------
  S      1.408561   -0.519481   -0.164514
  C     -0.300181   -0.594014    0.379620
  C     -1.266297    0.265291   -0.424372
  C     -2.693944    0.151790    0.099656
  H     -3.373899    0.775523   -0.483053
  H     -2.760173    0.473564    1.141984
  H     -3.057845   -0.877677    0.044881
  H     -0.934048    1.304778   -0.378255
  H     -1.221216   -0.033405   -1.474649
  H     -0.540850   -1.659893    0.283108
  H     -0.336140   -0.352400    1.444356
  F      1.694414    1.082534    0.191603

 Total Charge           Charge          ....    0
 Multiplicity           Mult            ....    1
 Number of Electrons    NEL             ....   50
 Basis Dimension        Dim             ....  395

ORBITAL ENERGIES
----------------

  NO   OCC          E(Eh)            E(eV)
   0   2.0000     -92.026940     -2504.1803
   1   2.0000     -26.295227      -715.5295
   2   2.0000     -11.273120      -306.7572
   3   2.0000     -11.236460      -305.7596
   4   2.0000     -11.225991      -305.4747
   5   2.0000      -9.020183      -245.4517
   6   2.0000      -6.701471      -182.3563
   7   2.0000      -6.699323      -182.2978
   8   2.0000      -6.698050      -182.2632
   9   2.0000      -1.581203       -43.0267
  10   2.0000      -1.098774       -29.8992
  11   2.0000      -1.002392       -27.2765
  12   2.0000      -0.883563       -24.0430
  13   2.0000      -0.815704       -22.1964
  14   2.0000      -0.679613       -18.4932
  15   2.0000      -0.671215       -18.2647
  16   2.0000      -0.662356       -18.0236
  17   2.0000      -0.631692       -17.1892
  18   2.0000      -0.589228       -16.0337
  19   2.0000      -0.559342       -15.2205
  20   2.0000      -0.554533       -15.0896
  21   2.0000      -0.505323       -13.7505
  22   2.0000      -0.491342       -13.3701
  23   2.0000      -0.462882       -12.5957
  24   2.0000      -0.365707        -9.9514
  25   0.0000       0.028232         0.7682
  26   0.0000       0.036392         0.9903
  27   0.0000       0.038845         1.0570
  28   0.0000       0.046370         1.2618
  29   0.0000       0.058590         1.5943

MULLIKEN ATOMIC CHARGES
-----------------------
   0 S :    0.241227
   1 C :   -0.334479
   2 C :   -0.446672
   3 C :   -0.931145
   4 H :    0.284605
   5 H :    0.282316
   6 H :    0.276985
   7 H :    0.305669
   8 H :    0.290001
   9 H :    0.325546
  10 H :    0.282198
  11 F :   -0.576251
Sum of atomic charges:   -0.0000000

LOEWDIN ATOMIC CHARGES
----------------------
   0 S :    0.820124
   1 C :   -0.138205
   2 C :    0.172557
   3 C :    0.570191
   4 H :   -0.170988
   5 H :   -0.170406
   6 H :   -0.170546
   7 H :   -0.167729
   8 H :   -0.165587
   9 H :   -0.227640
  10 H :   -0.221470
  11 F :   -0.130303

  Mayer bond orders larger than 0.100000
B(  0-S ,  1-C ) :   0.9291 B(  0-S , 11-F ) :   0.5802 B(  1-C ,  2-C ) :   0.9361
B(  1-C ,  9-H ) :   0.9118 B(  1-C , 10-H ) :   0.8947 B(  2-C ,  3-C ) :   0.8696
B(  2-C ,  7-H ) :   0.9392 B(  2-C ,  8-H ) :   0.9353 B(  3-C ,  4-H ) :   0.9512
B(  3-C ,  5-H ) :   0.9424 B(  3-C ,  6-H ) :   0.9456

MP2 TOTAL ENERGY:     -615.694822960 Eh
FINAL SINGLE POINT ENERGY      -615.694822959968

DIPOLE MOMENT
-------------
                                X             Y             Z
Electronic contribution:     12.97934       0.87789      -0.33950
Nuclear contribution   :    -13.90499      -1.41890       0.39320
                        -----------------------------------------
Total Dipole Moment    :     -0.92564      -0.54101       0.05370
                        -----------------------------------------
Magnitude (a.u.)       :      1.07350
Magnitude (Debye)      :      2.72861

Rotational constants in cm-1:     0.311668     0.063229     0.056655
Rotational constants in MHz :  9343.570701  1895.566387  1698.470766

                             ****ORCA TERMINATED NORMALLY****
TOTAL RUN TIME: 0 days 0 hours 0 minutes 57 seconds 617 msec
