                         Program Version 4.2.1 -  RELEASE  -
|  1> %pal
|  2>  nprocs 32
|  3> end
|  4> !RI-MP2 aug-cc-pVTZ aug-cc-pVTZ/C TightSCF
|  5> %maxcore 4500
|  6> *xyzfile 0 1  10_6TS.xyz
|  7>
|  8>
|  9>                          ****END OF INPUT****

CARTESIAN COORDINATES (ANGSTROEM)
---------------------------------
  C     -0.059080   -0.786681   -0.461146
  H     -0.289087   -0.764742   -1.524358
  C      0.249214    0.408549    0.128797
  H      0.279746    0.428819    1.216911
  C     -0.740278   -1.866798    0.318685
  H     -0.525932   -2.860632   -0.082371
  H     -0.385591   -1.852930    1.354598
  C     -0.113748    1.703500   -0.522496
  H     -0.024765    1.604295   -1.608112
  H      0.539535    2.525106   -0.218061
  C     -1.572024    2.042356   -0.148941
  H     -1.609814    2.338371    0.905596
  H     -1.874984    2.925339   -0.720037
  C     -2.599969    0.920363   -0.382823
  H     -3.579292    1.400257   -0.457822
  H     -2.423754    0.468408   -1.363702
  C     -2.260680   -1.612938    0.294126
  H     -2.744175   -2.335887    0.958677
  H     -2.640697   -1.826729   -0.711140
  C     -2.700825   -0.193748    0.696721
  H     -3.746737   -0.261339    1.007341
  H     -2.153383    0.112156    1.594189
  N      2.469908    0.415314   -0.078722
  N      2.576340   -0.783240   -0.431476
  N      1.935720   -1.671806   -0.796354
  C      3.379435    0.914477    0.941428
  H      4.403602    0.984789    0.567755
  H      3.041962    1.918583    1.193130
  H      3.367326    0.299791    1.847158

 Total Charge           Charge          ....    0
 Multiplicity           Mult            ....    1
 Number of Electrons    NEL             ....   92
 Basis Dimension        Dim             ....  943

ORBITAL ENERGIES
----------------

  NO   OCC          E(Eh)            E(eV)
   0   2.0000     -15.717420      -427.6927
   1   2.0000     -15.649646      -425.8485
   2   2.0000     -15.600560      -424.5128
   3   2.0000     -11.266799      -306.5852
   4   2.0000     -11.235468      -305.7326
   5   2.0000     -11.219028      -305.2853
   6   2.0000     -11.217735      -305.2501
   7   2.0000     -11.214133      -305.1521
   8   2.0000     -11.213920      -305.1463
   9   2.0000     -11.213347      -305.1307
  10   2.0000     -11.212755      -305.1146
  11   2.0000     -11.210421      -305.0511
  12   2.0000      -1.466283       -39.8996
  13   2.0000      -1.239498       -33.7285
  14   2.0000      -1.112482       -30.2722
  15   2.0000      -1.046259       -28.4702
  16   2.0000      -1.036025       -28.1917
  17   2.0000      -0.979328       -26.6489
  18   2.0000      -0.916520       -24.9398
  19   2.0000      -0.908406       -24.7190
  20   2.0000      -0.782567       -21.2947
  21   2.0000      -0.774650       -21.0793
  22   2.0000      -0.754696       -20.5363
  23   2.0000      -0.743553       -20.2331
  24   2.0000      -0.688363       -18.7313
  25   2.0000      -0.668617       -18.1940
  26   2.0000      -0.647785       -17.6271
  27   2.0000      -0.631519       -17.1845
  28   2.0000      -0.623054       -16.9542
  29   2.0000      -0.615656       -16.7529
  30   2.0000      -0.580680       -15.8011
  31   2.0000      -0.574496       -15.6328
  32   2.0000      -0.562574       -15.3084
  33   2.0000      -0.553564       -15.0632
  34   2.0000      -0.551652       -15.0112
  35   2.0000      -0.524555       -14.2739
  36   2.0000      -0.519533       -14.1372
  37   2.0000      -0.495717       -13.4891
  38   2.0000      -0.479613       -13.0509
  39   2.0000      -0.464293       -12.6341
  40   2.0000      -0.454169       -12.3586
  41   2.0000      -0.446712       -12.1556
  42   2.0000      -0.432289       -11.7632
  43   2.0000      -0.415340       -11.3020
  44   2.0000      -0.357757        -9.7351
  45   2.0000      -0.306498        -8.3402
  46   0.0000       0.026847         0.7305
  47   0.0000       0.032783         0.8921
  48   0.0000       0.032849         0.8939
  49   0.0000       0.036333         0.9887
  50   0.0000       0.044959         1.2234

MULLIKEN ATOMIC CHARGES
-----------------------
   0 C :   -0.393062
   1 H :    0.154828
   2 C :    0.046491
   3 H :    0.228617
   4 C :   -0.474867
   5 H :    0.334454
   6 H :    0.146987
   7 C :   -0.356795
   8 H :    0.174979
   9 H :    0.327250
  10 C :   -0.471087
  11 H :    0.157152
  12 H :    0.304371
  13 C :   -0.426280
  14 H :    0.266727
  15 H :    0.128671
  16 C :   -0.436538
  17 H :    0.309703
  18 H :    0.159910
  19 C :   -0.459372
  20 H :    0.260236
  21 H :    0.147855
  22 N :    0.020958
  23 N :    0.408263
  24 N :   -0.805989
  25 C :   -0.809333
  26 H :    0.319215
  27 H :    0.383703
  28 H :    0.352952
Sum of atomic charges:    0.0000000

LOEWDIN ATOMIC CHARGES
----------------------
   0 C :    0.050803
   1 H :   -0.163630
   2 C :    0.082816
   3 H :   -0.149165
   4 C :    0.255333
   5 H :   -0.151783
   6 H :   -0.147421
   7 C :    0.273343
   8 H :   -0.142452
   9 H :   -0.149419
  10 C :    0.300208
  11 H :   -0.145491
  12 H :   -0.145620
  13 C :    0.310760
  14 H :   -0.152717
  15 H :   -0.158175
  16 C :    0.297012
  17 H :   -0.147107
  18 H :   -0.145607
  19 C :    0.309619
  20 H :   -0.152772
  21 H :   -0.158142
  22 N :    0.210120
  23 N :   -0.186959
  24 N :    0.350161
  25 C :    0.407652
  26 H :   -0.184200
  27 H :   -0.188674
  28 H :   -0.178492

  Mayer bond orders larger than 0.100000
B(  0-C ,  1-H ) :   1.0574 B(  0-C ,  2-C ) :   1.3530 B(  0-C ,  4-C ) :   0.9080
B(  0-C ,  7-C ) :   0.1119 B(  0-C , 24-N ) :   0.1180 B(  2-C ,  3-H ) :   0.9384
B(  2-C ,  7-C ) :   0.7080 B(  2-C , 22-N ) :   0.2024 B(  2-C , 23-N ) :   0.1599
B(  4-C ,  5-H ) :   0.9280 B(  4-C ,  6-H ) :   1.0976 B(  4-C , 16-C ) :   0.8636
B(  7-C ,  8-H ) :   1.1002 B(  7-C ,  9-H ) :   0.9044 B(  7-C , 10-C ) :   0.8843
B( 10-C , 11-H ) :   1.0909 B( 10-C , 12-H ) :   0.9064 B( 10-C , 13-C ) :   0.8567
B( 13-C , 14-H ) :   0.9361 B( 13-C , 15-H ) :   1.1427 B( 13-C , 19-C ) :   0.8277
B( 16-C , 17-H ) :   0.9028 B( 16-C , 18-H ) :   1.0858 B( 16-C , 19-C ) :   0.8470
B( 19-C , 20-H ) :   0.9549 B( 19-C , 21-H ) :   1.1231 B( 22-N , 23-N ) :   1.0091
B( 22-N , 24-N ) :   0.3166 B( 22-N , 25-C ) :   0.7524 B( 23-N , 24-N ) :   1.4799
B( 25-C , 26-H ) :   0.9417 B( 25-C , 27-H ) :   0.8596 B( 25-C , 28-H ) :   0.8791

MP2 TOTAL ENERGY:     -516.288964027 Eh
FINAL SINGLE POINT ENERGY      -516.288964027500

DIPOLE MOMENT
-------------
                                X             Y             Z
Electronic contribution:     10.70936      -4.70049      -3.49614
Nuclear contribution   :    -10.66623       5.25993       4.08267
                        -----------------------------------------
Total Dipole Moment    :      0.04313       0.55943       0.58653
                        -----------------------------------------
Magnitude (a.u.)       :      0.81169
Magnitude (Debye)      :      2.06316

Rotational constants in cm-1:     0.048219     0.021204     0.016457
Rotational constants in MHz :  1445.558972   635.686451   493.363081

                             ****ORCA TERMINATED NORMALLY****
TOTAL RUN TIME: 0 days 0 hours 20 minutes 51 seconds 140 msec
