                         Program Version 4.2.1 -  RELEASE  -
|  1> %pal
|  2>  nprocs 32
|  3> end
|  4> !RI-MP2 aug-cc-pVTZ aug-cc-pVTZ/C TightSCF
|  5> %maxcore 4500
|  6> *xyzfile 0 2  01_1R.xyz
|  7>
|  8>
|  9>                          ****END OF INPUT****

CARTESIAN COORDINATES (ANGSTROEM)
---------------------------------
  C      0.615889    0.544785    0.145402
  C      1.748652   -0.348056   -0.226713
  C     -0.661464   -0.199398    0.410807
  C     -1.787248   -0.038736   -0.268849
  H      0.436275    1.283902   -0.650716
  H      0.889557    1.129167    1.031913
  H      1.567569   -1.258807   -0.783198
  H      2.773583   -0.043031   -0.060232
  H     -2.678019   -0.609096   -0.035092
  H     -1.858779    0.672744   -1.085366
  H     -0.625168   -0.926451    1.218808

 Total Charge           Charge          ....    0
 Multiplicity           Mult            ....    2
 Number of Electrons    NEL             ....   31
 Basis Dimension        Dim             ....  345

ORBITAL ENERGIES
----------------
                 SPIN UP ORBITALS
  NO   OCC          E(Eh)            E(eV)
   0   1.0000     -11.233885      -305.6895
   1   1.0000     -11.232800      -305.6600
   2   1.0000     -11.230693      -305.6027
   3   1.0000     -11.218571      -305.2728
   4   1.0000      -1.088966       -29.6323
   5   1.0000      -0.995845       -27.0983
   6   1.0000      -0.853121       -23.2146
   7   1.0000      -0.758525       -20.6405
   8   1.0000      -0.647850       -17.6289
   9   1.0000      -0.613358       -16.6903
  10   1.0000      -0.587900       -15.9976
  11   1.0000      -0.545498       -14.8438
  12   1.0000      -0.524479       -14.2718
  13   1.0000      -0.485348       -13.2070
  14   1.0000      -0.371649       -10.1131
  15   1.0000      -0.349456        -9.5092
  16   0.0000       0.031729         0.8634
  17   0.0000       0.036760         1.0003
  18   0.0000       0.041129         1.1192
  19   0.0000       0.042977         1.1695
  20   0.0000       0.054465         1.4821

                 SPIN DOWN ORBITALS
  NO   OCC          E(Eh)            E(eV)
   0   1.0000     -11.234105      -305.6956
   1   1.0000     -11.231534      -305.6256
   2   1.0000     -11.220185      -305.3168
   3   1.0000     -11.209240      -305.0189
   4   1.0000      -1.077534       -29.3212
   5   1.0000      -0.969838       -26.3906
   6   1.0000      -0.806909       -21.9571
   7   1.0000      -0.750115       -20.4117
   8   1.0000      -0.643001       -17.4970
   9   1.0000      -0.604541       -16.4504
  10   1.0000      -0.574985       -15.6461
  11   1.0000      -0.533332       -14.5127
  12   1.0000      -0.509922       -13.8757
  13   1.0000      -0.482405       -13.1269
  14   1.0000      -0.365258        -9.9392
  15   0.0000       0.032107         0.8737
  16   0.0000       0.036931         1.0050
  17   0.0000       0.040390         1.0991
  18   0.0000       0.043225         1.1762
  19   0.0000       0.054457         1.4818

MULLIKEN ATOMIC CHARGES AND SPIN POPULATIONS
--------------------------------------------
   0 C :    0.012367   -0.176297
   1 C :   -1.098447    1.207136
   2 C :   -0.247800    0.093051
   3 C :   -1.083396   -0.078558
   4 H :    0.231236    0.063391
   5 H :    0.248883    0.023376
   6 H :    0.450015   -0.049920
   7 H :    0.374043   -0.074562
   8 H :    0.522291    0.003787
   9 H :    0.259596    0.004317
  10 H :    0.331212   -0.015720
Sum of atomic charges         :   -0.0000000

LOEWDIN ATOMIC CHARGES AND SPIN POPULATIONS
-------------------------------------------
   0 C :    0.170562    0.136846
   1 C :    0.588629    0.569488
   2 C :    0.154834    0.036044
   3 C :    0.516698   -0.024656
   4 H :   -0.170398    0.030999
   5 H :   -0.167225    0.010064
   6 H :   -0.227155    0.123025
   7 H :   -0.229554    0.122358
   8 H :   -0.228605   -0.007450
   9 H :   -0.221633   -0.006546
  10 H :   -0.186153    0.009829

  Mayer bond orders larger than 0.100000
B(  0-C ,  1-C ) :   0.8325 B(  0-C ,  2-C ) :   0.8369 B(  0-C ,  4-H ) :   0.9246
B(  0-C ,  5-H ) :   0.9802 B(  1-C ,  6-H ) :   0.7745 B(  1-C ,  7-H ) :   0.8651
B(  2-C ,  3-C ) :   1.4806 B(  2-C , 10-H ) :   0.9340 B(  3-C ,  8-H ) :   0.6304
B(  3-C ,  9-H ) :   1.0771

MP2 TOTAL ENERGY:     -156.185783305 Eh
FINAL SINGLE POINT ENERGY      -156.185783305316

DIPOLE MOMENT
-------------
                                X             Y             Z
Electronic contribution:     -0.44234      -0.18400       0.39794
Nuclear contribution   :      0.53362       0.26250      -0.38449
                        -----------------------------------------
Total Dipole Moment    :      0.09128       0.07850       0.01345
                        -----------------------------------------
Magnitude (a.u.)       :      0.12114
Magnitude (Debye)      :      0.30791

Rotational constants in cm-1:     0.829509     0.145677     0.141581
Rotational constants in MHz : 24868.059694  4367.286826  4244.502042

                             ****ORCA TERMINATED NORMALLY****
TOTAL RUN TIME: 0 days 0 hours 1 minutes 19 seconds 131 msec
