                         Program Version 4.2.1 -  RELEASE  -
|  1> %pal
|  2>  nprocs 32
|  3> end
|  4> !RI-MP2 aug-cc-pVTZ aug-cc-pVTZ/C TightSCF
|  5> %maxcore 4500
|  6> *xyzfile 0 1  10_82P.xyz
|  7>
|  8>
|  9>                          ****END OF INPUT****

CARTESIAN COORDINATES (ANGSTROEM)
---------------------------------
  C      1.213223    1.532138    1.527395
  C      0.369894    0.580114    0.658510
  C      1.302891   -0.348488   -0.076284
  C      2.349683    0.323179   -0.905078
  C      3.198129    1.238562   -0.005487
  C      2.321563    2.235975    0.745969
  H      1.657739    0.940681    2.333471
  H      0.549652    2.260330    1.996893
  H      2.973121   -0.402498   -1.425633
  H      1.850057    0.938821   -1.660792
  H      3.754655    0.618377    0.704436
  H      3.936708    1.757850   -0.619308
  H      1.883339    2.941338    0.035713
  H      2.931818    2.825015    1.434499
  C      1.243399   -1.686764    0.073100
  C      0.284017   -2.317331    0.929429
  C     -1.064671    3.838323   -0.242915
  C      2.152417   -2.563588   -0.602819
  N     -0.469856   -2.824525    1.631163
  N      2.882525   -3.262385   -1.147938
  C     -0.799954    2.568349   -0.274498
  C     -0.560223    1.290565   -0.320807
  C     -1.271392    0.438330   -1.343597
  H     -2.020680    1.026007   -1.869530
  H     -0.564717    0.018174   -2.060955
  O     -1.879648   -0.711677   -0.741538
  C     -3.094035   -0.529777   -0.169316
  C     -3.604936   -1.807685    0.417879
  O     -3.655257    0.531285   -0.162874
  H     -2.882234   -2.206606    1.130675
  H     -4.561718   -1.626253    0.900285
  H     -3.720713   -2.550443   -0.373217
  H     -1.857493    4.224218    0.388445
  H     -0.267579   -0.012242    1.318077
  H     -0.511426    4.547332   -0.849229

 Total Charge           Charge          ....    0
 Multiplicity           Mult            ....    1
 Number of Electrons    NEL             ....  136
 Basis Dimension        Dim             .... 1242

ORBITAL ENERGIES
----------------

  NO   OCC          E(Eh)            E(eV)
   0   2.0000     -20.609719      -560.8190
   1   2.0000     -20.548358      -559.1492
   2   2.0000     -15.585410      -424.1006
   3   2.0000     -15.585264      -424.0966
   4   2.0000     -11.383070      -309.7491
   5   2.0000     -11.322496      -308.1008
   6   2.0000     -11.319595      -308.0218
   7   2.0000     -11.311730      -307.8078
   8   2.0000     -11.294229      -307.3316
   9   2.0000     -11.291667      -307.2619
  10   2.0000     -11.279230      -306.9234
  11   2.0000     -11.272645      -306.7443
  12   2.0000     -11.268553      -306.6329
  13   2.0000     -11.264143      -306.5129
  14   2.0000     -11.254494      -306.2503
  15   2.0000     -11.252692      -306.2013
  16   2.0000     -11.250889      -306.1523
  17   2.0000     -11.242718      -305.9299
  18   2.0000     -11.234002      -305.6927
  19   2.0000      -1.469400       -39.9844
  20   2.0000      -1.368325       -37.2340
  21   2.0000      -1.252913       -34.0935
  22   2.0000      -1.235056       -33.6076
  23   2.0000      -1.196673       -32.5631
  24   2.0000      -1.129801       -30.7435
  25   2.0000      -1.103829       -30.0367
  26   2.0000      -1.051240       -28.6057
  27   2.0000      -1.043206       -28.3871
  28   2.0000      -1.016470       -27.6595
  29   2.0000      -0.987016       -26.8581
  30   2.0000      -0.920462       -25.0471
  31   2.0000      -0.887717       -24.1560
  32   2.0000      -0.857967       -23.3465
  33   2.0000      -0.799605       -21.7584
  34   2.0000      -0.791054       -21.5257
  35   2.0000      -0.782443       -21.2913
  36   2.0000      -0.729709       -19.8564
  37   2.0000      -0.708439       -19.2776
  38   2.0000      -0.702565       -19.1178
  39   2.0000      -0.688103       -18.7242
  40   2.0000      -0.678914       -18.4742
  41   2.0000      -0.652464       -17.7545
  42   2.0000      -0.644257       -17.5311
  43   2.0000      -0.631527       -17.1847
  44   2.0000      -0.626231       -17.0406
  45   2.0000      -0.608922       -16.5696
  46   2.0000      -0.601996       -16.3811
  47   2.0000      -0.587047       -15.9743
  48   2.0000      -0.584655       -15.9093
  49   2.0000      -0.579374       -15.7656
  50   2.0000      -0.575134       -15.6502
  51   2.0000      -0.565926       -15.3996
  52   2.0000      -0.558912       -15.2088
  53   2.0000      -0.550712       -14.9856
  54   2.0000      -0.541086       -14.7237
  55   2.0000      -0.535239       -14.5646
  56   2.0000      -0.517559       -14.0835
  57   2.0000      -0.497361       -13.5339
  58   2.0000      -0.496526       -13.5112
  59   2.0000      -0.494660       -13.4604
  60   2.0000      -0.488278       -13.2867
  61   2.0000      -0.486377       -13.2350
  62   2.0000      -0.474611       -12.9148
  63   2.0000      -0.473271       -12.8784
  64   2.0000      -0.455912       -12.4060
  65   2.0000      -0.402243       -10.9456
  66   2.0000      -0.383353       -10.4316
  67   2.0000      -0.381177       -10.3723
  68   0.0000       0.016577         0.4511
  69   0.0000       0.025878         0.7042
  70   0.0000       0.028076         0.7640
  71   0.0000       0.032836         0.8935
  72   0.0000       0.040619         1.1053

MULLIKEN ATOMIC CHARGES
-----------------------
   0 C :   -0.689108
   1 C :   -0.629777
   2 C :   -0.059964
   3 C :   -0.977123
   4 C :   -0.515698
   5 C :   -0.500225
   6 H :    0.255314
   7 H :    0.225884
   8 H :    0.078420
   9 H :    0.209605
  10 H :    0.103773
  11 H :    0.342098
  12 H :    0.166923
  13 H :    0.344103
  14 C :    1.213126
  15 C :    1.471934
  16 C :   -1.569473
  17 C :    1.217334
  18 N :   -1.137812
  19 N :   -1.096542
  20 C :    1.429703
  21 C :    0.115561
  22 C :   -0.561034
  23 H :    0.375072
  24 H :    0.242263
  25 O :   -0.343262
  26 C :    0.438112
  27 C :   -0.754208
  28 O :   -0.873442
  29 H :    0.384037
  30 H :    0.332811
  31 H :    0.280684
  32 H :    0.295685
  33 H :   -0.146155
  34 H :    0.331384
Sum of atomic charges:   -0.0000000

LOEWDIN ATOMIC CHARGES
----------------------
   0 C :    0.324855
   1 C :    0.003664
   2 C :   -0.074656
   3 C :    0.322676
   4 C :    0.325435
   5 C :    0.306725
   6 H :   -0.124550
   7 H :   -0.136131
   8 H :   -0.159964
   9 H :   -0.126862
  10 H :   -0.129599
  11 H :   -0.130182
  12 H :   -0.154467
  13 H :   -0.129796
  14 C :   -0.169760
  15 C :   -0.247205
  16 C :    0.521787
  17 C :   -0.253858
  18 N :    0.328323
  19 N :    0.300427
  20 C :    0.135262
  21 C :   -0.105492
  22 C :    0.045913
  23 H :   -0.172624
  24 H :   -0.154127
  25 O :    0.592270
  26 C :   -0.816282
  27 C :    0.586214
  28 O :    0.475579
  29 H :   -0.223772
  30 H :   -0.179111
  31 H :   -0.167356
  32 H :   -0.221877
  33 H :   -0.166085
  34 H :   -0.225374

  Mayer bond orders larger than 0.100000
B(  0-C ,  1-C ) :   0.5815 B(  0-C ,  2-C ) :  -0.1731 B(  0-C ,  4-C ) :   0.1317
B(  0-C ,  5-C ) :   0.9224 B(  0-C ,  6-H ) :   1.0284 B(  0-C ,  7-H ) :   1.0630
B(  0-C , 14-C ) :   0.1681 B(  0-C , 20-C ) :  -0.1239 B(  0-C , 21-C ) :   0.1237
B(  0-C , 33-H ) :  -0.1427 B(  1-C ,  2-C ) :   1.8230 B(  1-C ,  3-C ) :   0.2765
B(  1-C , 14-C ) :  -0.2325 B(  1-C , 16-C ) :  -0.1821 B(  1-C , 17-C ) :  -0.1561
B(  1-C , 18-N ) :   0.2867 B(  1-C , 21-C ) :   1.5996 B(  1-C , 22-C ) :   0.1523
B(  1-C , 33-H ) :   1.2942 B(  2-C ,  3-C ) :   0.9950 B(  2-C ,  4-C ) :  -0.1601
B(  2-C ,  8-H ) :   0.1128 B(  2-C , 14-C ) :   0.6202 B(  2-C , 15-C ) :   0.2165
B(  2-C , 16-C ) :  -0.1914 B(  2-C , 17-C ) :   0.9383 B(  2-C , 18-N ) :  -0.1452
B(  2-C , 21-C ) :   0.9232 B(  2-C , 22-C ) :  -0.1406 B(  3-C ,  4-C ) :   0.9791
B(  3-C ,  8-H ) :   1.0312 B(  3-C ,  9-H ) :   1.0987 B(  3-C , 14-C ) :  -0.4611
B(  3-C , 15-C ) :  -0.1260 B(  3-C , 33-H ) :   0.1083 B(  4-C ,  5-C ) :   0.8696
B(  4-C , 10-H ) :   1.1531 B(  4-C , 11-H ) :   0.8678 B(  5-C , 12-H ) :   1.0445
B(  5-C , 13-H ) :   0.8813 B(  8-H , 14-C ) :  -0.1612 B(  8-H , 17-C ) :   0.1039
B(  8-H , 33-H ) :   0.1148 B( 14-C , 15-C ) :   0.9226 B( 14-C , 17-C ) :   0.1960
B( 14-C , 18-N ) :   0.6662 B( 14-C , 19-N ) :   0.4097 B( 14-C , 21-C ) :  -0.2641
B( 14-C , 33-H ) :  -0.1077 B( 15-C , 17-C ) :  -0.1966 B( 15-C , 18-N ) :   0.9521
B( 16-C , 20-C ) :   0.5875 B( 16-C , 21-C ) :   0.6233 B( 16-C , 22-C ) :  -0.1922
B( 16-C , 32-H ) :   1.1192 B( 16-C , 34-H ) :   1.0618 B( 17-C , 19-N ) :   1.0622
B( 20-C , 21-C ) :   0.5004 B( 20-C , 32-H ) :  -0.1633 B( 20-C , 34-H ) :  -0.1830
B( 21-C , 22-C ) :   0.9378 B( 21-C , 33-H ) :   0.3689 B( 22-C , 23-H ) :   0.9761
B( 22-C , 24-H ) :   1.0655 B( 22-C , 25-O ) :   0.7275 B( 22-C , 28-O ) :   0.1151
B( 23-H , 28-O ) :  -0.1308 B( 25-O , 26-C ) :   0.9838 B( 26-C , 27-C ) :   0.7343
B( 26-C , 28-O ) :   1.4439 B( 27-C , 29-H ) :   0.8805 B( 27-C , 30-H ) :   0.9379
B( 27-C , 31-H ) :   0.9619

MP2 TOTAL ENERGY:     -839.500110901 Eh
FINAL SINGLE POINT ENERGY      -839.500110901124

DIPOLE MOMENT
-------------
                                X             Y             Z
Electronic contribution:     -2.54768     -13.02726      -1.54602
Nuclear contribution   :      3.06679      15.20871       1.36766
                        -----------------------------------------
Total Dipole Moment    :      0.51910       2.18144      -0.17836
                        -----------------------------------------
Magnitude (a.u.)       :      2.24944
Magnitude (Debye)      :      5.71762

Rotational constants in cm-1:     0.014705     0.012252     0.007844
Rotational constants in MHz :   440.853086   367.311118   235.145159

                             ****ORCA TERMINATED NORMALLY****
TOTAL RUN TIME: 0 days 0 hours 42 minutes 53 seconds 893 msec
