                         Program Version 4.2.1 -  RELEASE  -
|  1> %pal
|  2>  nprocs 32
|  3> end
|  4> !RI-MP2 aug-cc-pVTZ aug-cc-pVTZ/C TightSCF
|  5> %maxcore 4500
|  6> *xyzfile -1 1  05_1R.xyz
|  7>
|  8>
|  9>                          ****END OF INPUT****

CARTESIAN COORDINATES (ANGSTROEM)
---------------------------------
  O      0.243578   -1.290281   -0.612531
  C      0.487592   -0.297791    0.029442
  C      1.886059    0.257606    0.375550
  O      2.874730   -0.779286    0.173896
  O      2.043802    1.326501   -0.375336
  C     -0.627640    0.675379    0.461560
  C     -1.987816    0.137701    0.191801
  H     -0.431919    1.595840   -0.088127
  H     -0.521073    0.870552    1.529446
  O     -2.702655   -0.430777    0.981571
  O     -2.383779    0.335513   -1.084688
  H      3.093981   -0.682051   -0.759475
  H     -3.224234   -0.131401   -1.179823
  H      1.928663    0.416322    1.484562

 Total Charge           Charge          ....   -1
 Multiplicity           Mult            ....    1
 Number of Electrons    NEL             ....   70
 Basis Dimension        Dim             ....  529

ORBITAL ENERGIES
----------------

  NO   OCC          E(Eh)            E(eV)
   0   2.0000     -20.496268      -557.7318
   1   2.0000     -20.432385      -555.9935
   2   2.0000     -20.398295      -555.0658
   3   2.0000     -20.375972      -554.4584
   4   2.0000     -20.274051      -551.6850
   5   2.0000     -11.268134      -306.6215
   6   2.0000     -11.175807      -304.1092
   7   2.0000     -11.144884      -303.2677
   8   2.0000     -11.112066      -302.3747
   9   2.0000      -1.351431       -36.7743
  10   2.0000      -1.245198       -33.8836
  11   2.0000      -1.243696       -33.8427
  12   2.0000      -1.188231       -32.3334
  13   2.0000      -1.072033       -29.1715
  14   2.0000      -0.917748       -24.9732
  15   2.0000      -0.755533       -20.5591
  16   2.0000      -0.690489       -18.7892
  17   2.0000      -0.601216       -16.3599
  18   2.0000      -0.590530       -16.0691
  19   2.0000      -0.556027       -15.1303
  20   2.0000      -0.538454       -14.6521
  21   2.0000      -0.500751       -13.6261
  22   2.0000      -0.478909       -13.0318
  23   2.0000      -0.467166       -12.7122
  24   2.0000      -0.453644       -12.3443
  25   2.0000      -0.436448       -11.8764
  26   2.0000      -0.420426       -11.4404
  27   2.0000      -0.375596       -10.2205
  28   2.0000      -0.364113        -9.9080
  29   2.0000      -0.339781        -9.2459
  30   2.0000      -0.333965        -9.0876
  31   2.0000      -0.317172        -8.6307
  32   2.0000      -0.271964        -7.4005
  33   2.0000      -0.201063        -5.4712
  34   2.0000      -0.171976        -4.6797
  35   0.0000       0.109242         2.9726
  36   0.0000       0.129396         3.5210
  37   0.0000       0.140692         3.8284
  38   0.0000       0.142371         3.8741
  39   0.0000       0.149954         4.0804

MULLIKEN ATOMIC CHARGES
-----------------------
   0 O :   -0.838257
   1 C :    0.361905
   2 C :    0.684458
   3 O :   -0.647119
   4 O :   -1.095260
   5 C :   -0.038810
   6 C :    0.549795
   7 H :    0.319562
   8 H :    0.320431
   9 O :   -0.857224
  10 O :   -0.442823
  11 H :    0.145776
  12 H :    0.222697
  13 H :    0.314870
Sum of atomic charges:   -1.0000000

LOEWDIN ATOMIC CHARGES
----------------------
   0 O :    0.430300
   1 C :   -0.555685
   2 C :   -0.894380
   3 O :    0.741216
   4 O :    0.239144
   5 C :    0.239984
   6 C :   -0.838890
   7 H :   -0.186628
   8 H :   -0.172330
   9 O :    0.428541
  10 O :    0.830416
  11 H :   -0.563926
  12 H :   -0.491323
  13 H :   -0.206440

  Mayer bond orders larger than 0.100000
B(  0-O ,  1-C ) :   1.2765 B(  1-C ,  2-C ) :   0.6317 B(  1-C ,  5-C ) :   0.8648
B(  1-C ,  6-C ) :   0.1164 B(  2-C ,  3-O ) :   0.6981 B(  2-C ,  4-O ) :   1.1118
B(  2-C , 13-H ) :   0.9966 B(  3-O , 11-H ) :   0.9851 B(  5-C ,  6-C ) :   0.5348
B(  5-C ,  7-H ) :   0.9231 B(  5-C ,  8-H ) :   0.9607 B(  6-C ,  9-O ) :   1.3403
B(  6-C , 10-O ) :   0.9585 B( 10-O , 12-H ) :   0.9461

MP2 TOTAL ENERGY:     -530.790121798 Eh
FINAL SINGLE POINT ENERGY      -530.790121797773

DIPOLE MOMENT
-------------
                                X             Y             Z
Electronic contribution:     -3.39201      -2.02756      -0.88361
Nuclear contribution   :      0.82440       2.00210       0.94662
                        -----------------------------------------
Total Dipole Moment    :     -2.56762      -0.02547       0.06301
                        -----------------------------------------
Magnitude (a.u.)       :      2.56852
Magnitude (Debye)      :      6.52865

Rotational constants in cm-1:     0.124857     0.028870     0.027593
Rotational constants in MHz :  3743.108862   865.508196   827.226600

                             ****ORCA TERMINATED NORMALLY****
TOTAL RUN TIME: 0 days 0 hours 2 minutes 20 seconds 914 msec
