                         Program Version 4.2.1 -  RELEASE  -
|  1> %pal
|  2>  nprocs 32
|  3> end
|  4> !RI-MP2 aug-cc-pVTZ aug-cc-pVTZ/C TightSCF
|  5> %maxcore 4500
|  6> *xyzfile -1 1  02_13TS.xyz
|  7>
|  8>
|  9>                          ****END OF INPUT****

CARTESIAN COORDINATES (ANGSTROEM)
---------------------------------
  C      4.807920   -0.859905   -1.801578
  C      3.343081   -0.429695   -1.888038
  H      2.837300   -1.066487   -2.622062
  H      3.272752    0.591277   -2.283713
  H      5.230406   -0.911970   -2.810833
  H      4.844973   -1.879078   -1.398590
  C      2.603734   -0.533475   -0.571424
  H      2.900721   -1.354565    0.073721
  C      1.264547   -0.182168   -0.476909
  H      0.753339    0.263089   -1.321081
  C      3.817180    0.832133    0.555718
  C      3.117099    0.977728    1.736495
  H      3.479268    0.473354    2.627674
  C      1.820244    1.495121    1.759527
  H      1.246458    1.388851    2.674585
  C      1.151881    1.862100    0.615049
  H      1.725944    2.167107   -0.251181
  C     -0.273417    2.322804    0.622780
  H     -0.822444    1.884466    1.457661
  H     -0.777097    2.040176   -0.302092
  H     -0.323476    3.414905    0.714450
  C      0.430725   -0.919856    0.516660
  C     -0.994032   -1.007491    0.264076
  O      0.992005   -1.441795    1.479622
  C     -1.922044   -1.777056    1.086232
  C     -1.703976   -0.474916   -0.839570
  O     -1.361365    0.252611   -1.784200
  O     -1.741767   -2.492591    2.056912
  C     -3.165271   -0.947981   -0.737630
  H     -3.312010   -1.676284   -1.548837
  C     -4.172997    0.189310   -0.928225
  C     -4.048271    1.240482    0.177112
  H     -4.370787    0.799048    1.124397
  H     -2.992760    1.486859    0.302712
  C     -4.823059    2.525448   -0.099548
  H     -4.509070    2.972741   -1.047379
  H     -4.649263    3.263563    0.687875
  H     -5.901582    2.354660   -0.153483
  N     -3.212806   -1.587802    0.558222
  H     -3.850152   -2.349158    0.733473
  C     -5.593068   -0.363754   -1.039291
  H     -6.322393    0.419406   -1.259014
  H     -5.893988   -0.843419   -0.102146
  H     -5.660559   -1.109861   -1.836417
  H     -3.896875    0.659778   -1.878504
  C      5.189589    0.211491    0.493278
  H      5.904024    0.833277    1.047053
  H      5.173454   -0.761837    0.996234
  H      3.627528    1.564496   -0.222414
  C      5.686309    0.047605   -0.942296
  H      6.709656   -0.342510   -0.933689
  H      5.738243    1.039380   -1.409122

 Total Charge           Charge          ....   -1
 Multiplicity           Mult            ....    1
 Number of Electrons    NEL             ....  180
 Basis Dimension        Dim             .... 1748

ORBITAL ENERGIES
----------------

  NO   OCC          E(Eh)            E(eV)
   0   2.0000     -20.370754      -554.3164
   1   2.0000     -20.360510      -554.0376
   2   2.0000     -20.358934      -553.9948
   3   2.0000     -15.430633      -419.8889
   4   2.0000     -11.192344      -304.5592
   5   2.0000     -11.173535      -304.0473
   6   2.0000     -11.168306      -303.9051
   7   2.0000     -11.138442      -303.0924
   8   2.0000     -11.135808      -303.0207
   9   2.0000     -11.132084      -302.9194
  10   2.0000     -11.131900      -302.9144
  11   2.0000     -11.129747      -302.8558
  12   2.0000     -11.128804      -302.8301
  13   2.0000     -11.126522      -302.7681
  14   2.0000     -11.119736      -302.5834
  15   2.0000     -11.119729      -302.5832
  16   2.0000     -11.118713      -302.5556
  17   2.0000     -11.116847      -302.5048
  18   2.0000     -11.109053      -302.2927
  19   2.0000     -11.108494      -302.2775
  20   2.0000     -11.101526      -302.0879
  21   2.0000     -11.100468      -302.0591
  22   2.0000     -11.092443      -301.8407
  23   2.0000     -11.052783      -300.7615
  24   2.0000      -1.227103       -33.3912
  25   2.0000      -1.210602       -32.9421
  26   2.0000      -1.202348       -32.7175
  27   2.0000      -1.101428       -29.9714
  28   2.0000      -1.023039       -27.8383
  29   2.0000      -0.982508       -26.7354
  30   2.0000      -0.980917       -26.6921
  31   2.0000      -0.947511       -25.7831
  32   2.0000      -0.913891       -24.8682
  33   2.0000      -0.901217       -24.5234
  34   2.0000      -0.891644       -24.2629
  35   2.0000      -0.869629       -23.6638
  36   2.0000      -0.828208       -22.5367
  37   2.0000      -0.818559       -22.2741
  38   2.0000      -0.765744       -20.8370
  39   2.0000      -0.757638       -20.6164
  40   2.0000      -0.723406       -19.6849
  41   2.0000      -0.703791       -19.1511
  42   2.0000      -0.682618       -18.5750
  43   2.0000      -0.670228       -18.2378
  44   2.0000      -0.638257       -17.3679
  45   2.0000      -0.614311       -16.7163
  46   2.0000      -0.608419       -16.5559
  47   2.0000      -0.571791       -15.5592
  48   2.0000      -0.552350       -15.0302
  49   2.0000      -0.542221       -14.7546
  50   2.0000      -0.537536       -14.6271
  51   2.0000      -0.524456       -14.2712
  52   2.0000      -0.521561       -14.1924
  53   2.0000      -0.520598       -14.1662
  54   2.0000      -0.512240       -13.9388
  55   2.0000      -0.506619       -13.7858
  56   2.0000      -0.487159       -13.2563
  57   2.0000      -0.479292       -13.0422
  58   2.0000      -0.472555       -12.8589
  59   2.0000      -0.468247       -12.7416
  60   2.0000      -0.460602       -12.5336
  61   2.0000      -0.460157       -12.5215
  62   2.0000      -0.450808       -12.2671
  63   2.0000      -0.444534       -12.0964
  64   2.0000      -0.443453       -12.0670
  65   2.0000      -0.434590       -11.8258
  66   2.0000      -0.418251       -11.3812
  67   2.0000      -0.416981       -11.3466
  68   2.0000      -0.416717       -11.3394
  69   2.0000      -0.413944       -11.2640
  70   2.0000      -0.404467       -11.0061
  71   2.0000      -0.399714       -10.8768
  72   2.0000      -0.390898       -10.6369
  73   2.0000      -0.388827       -10.5805
  74   2.0000      -0.380380       -10.3507
  75   2.0000      -0.376618       -10.2483
  76   2.0000      -0.370907       -10.0929
  77   2.0000      -0.364299        -9.9131
  78   2.0000      -0.359880        -9.7928
  79   2.0000      -0.358859        -9.7650
  80   2.0000      -0.357548        -9.7294
  81   2.0000      -0.348051        -9.4709
  82   2.0000      -0.314715        -8.5638
  83   2.0000      -0.292321        -7.9545
  84   2.0000      -0.258903        -7.0451
  85   2.0000      -0.247055        -6.7227
  86   2.0000      -0.239967        -6.5298
  87   2.0000      -0.192271        -5.2319
  88   2.0000      -0.181468        -4.9380
  89   2.0000      -0.160854        -4.3771
  90   0.0000       0.083925         2.2837
  91   0.0000       0.088479         2.4076
  92   0.0000       0.095117         2.5883
  93   0.0000       0.097478         2.6525
  94   0.0000       0.101150         2.7524

MULLIKEN ATOMIC CHARGES
-----------------------
   0 C :   -0.650545
   1 C :   -0.608288
   2 H :    0.352723
   3 H :    0.104380
   4 H :    0.293248
   5 H :    0.129105
   6 C :   -0.459439
   7 H :    0.076905
   8 C :    0.157998
   9 H :    0.437758
  10 C :    1.229110
  11 C :   -1.104498
  12 H :    0.006062
  13 C :   -0.557580
  14 H :    0.032976
  15 C :    0.162447
  16 H :    0.005334
  17 C :   -0.834949
  18 H :    0.307457
  19 H :    0.243931
  20 H :    0.323593
  21 C :    1.048617
  22 C :    0.816547
  23 O :   -1.633931
  24 C :   -0.205691
  25 C :    2.250212
  26 O :   -1.651868
  27 O :   -1.202302
  28 C :   -0.307420
  29 H :    0.320466
  30 C :    0.585338
  31 C :   -0.543806
  32 H :    0.230938
  33 H :    0.551740
  34 C :   -1.197228
  35 H :    0.243844
  36 H :    0.249389
  37 H :    0.271573
  38 N :    0.084738
  39 H :   -0.159648
  40 C :   -1.274363
  41 H :    0.271142
  42 H :    0.255022
  43 H :    0.226935
  44 H :    0.265359
  45 C :   -0.727012
  46 H :    0.362976
  47 H :    0.118403
  48 H :    0.214937
  49 C :   -0.535062
  50 H :    0.304666
  51 H :    0.117763
Sum of atomic charges:   -1.0000000

LOEWDIN ATOMIC CHARGES
----------------------
   0 C :    0.283591
   1 C :    0.279286
   2 H :   -0.138973
   3 H :   -0.139920
   4 H :   -0.146219
   5 H :   -0.140648
   6 C :    0.144635
   7 H :   -0.188855
   8 C :    0.165876
   9 H :   -0.252175
  10 C :    0.128288
  11 C :    0.195664
  12 H :   -0.166311
  13 C :    0.171938
  14 H :   -0.174445
  15 C :    0.157569
  16 H :   -0.190927
  17 C :    0.567457
  18 H :   -0.169549
  19 H :   -0.224231
  20 H :   -0.161764
  21 C :   -0.597544
  22 C :   -0.113041
  23 O :    0.458456
  24 C :   -0.723089
  25 C :   -0.589225
  26 O :    0.452969
  27 O :    0.398319
  28 C :   -0.130113
  29 H :   -0.123024
  30 C :   -0.025191
  31 C :    0.275720
  32 H :   -0.139783
  33 H :   -0.180422
  34 C :    0.582523
  35 H :   -0.164905
  36 H :   -0.172397
  37 H :   -0.184995
  38 N :    0.550514
  39 H :   -0.288267
  40 C :    0.583337
  41 H :   -0.179389
  42 H :   -0.161183
  43 H :   -0.166367
  44 H :   -0.143151
  45 C :    0.273542
  46 H :   -0.142745
  47 H :   -0.140067
  48 H :   -0.199471
  49 C :    0.277560
  50 H :   -0.146120
  51 H :   -0.142741

  Mayer bond orders larger than 0.100000
B(  0-C ,  1-C ) :   1.0070 B(  0-C ,  4-H ) :   0.9500 B(  0-C ,  5-H ) :   1.1387
B(  0-C , 49-C ) :   0.8407 B(  1-C ,  2-H ) :   0.8815 B(  1-C ,  3-H ) :   1.2062
B(  1-C ,  6-C ) :   0.6533 B(  1-C , 10-C ) :   0.1253 B(  6-C ,  7-H ) :   1.1589
B(  6-C ,  8-C ) :   1.2501 B(  6-C ,  9-H ) :  -0.1122 B(  6-C , 11-C ) :   0.1127
B(  6-C , 15-C ) :   0.2311 B(  6-C , 16-H ) :   0.4932 B(  6-C , 21-C ) :   0.6480
B(  6-C , 22-C ) :  -0.1300 B(  7-H , 13-C ) :  -0.1044 B(  7-H , 16-H ) :   0.1029
B(  7-H , 23-O ) :   0.1228 B(  8-C ,  9-H ) :   0.9290 B(  8-C , 10-C ) :   0.1291
B(  8-C , 11-C ) :   0.1349 B(  8-C , 14-H ) :  -0.1120 B(  8-C , 15-C ) :   0.1225
B(  8-C , 16-H ) :  -0.4692 B(  8-C , 17-C ) :   0.3194 B(  8-C , 21-C ) :   1.0596
B(  8-C , 22-C ) :  -0.3241 B(  8-C , 23-O ) :   0.1200 B(  8-C , 24-C ) :   0.1291
B(  8-C , 26-O ) :  -0.3057 B(  8-C , 48-H ) :  -0.1610 B(  9-H , 13-C ) :   0.1343
B(  9-H , 16-H ) :  -0.2653 B(  9-H , 26-O ) :  -0.1198 B( 10-C , 11-C ) :   0.8238
B( 10-C , 12-H ) :  -0.1261 B( 10-C , 16-H ) :  -0.1875 B( 10-C , 45-C ) :   0.4376
B( 10-C , 47-H ) :  -0.1158 B( 10-C , 48-H ) :   1.0242 B( 11-C , 12-H ) :   1.4410
B( 11-C , 13-C ) :   0.9098 B( 11-C , 14-H ) :  -0.1968 B( 11-C , 15-C ) :   0.1234
B( 11-C , 16-H ) :   0.1580 B( 11-C , 45-C ) :  -0.1357 B( 12-H , 13-C ) :  -0.1997
B( 13-C , 14-H ) :   1.3785 B( 13-C , 15-C ) :   0.9961 B( 13-C , 17-C ) :  -0.1163
B( 13-C , 21-C ) :   0.1268 B( 14-H , 15-C ) :  -0.1398 B( 14-H , 16-H ) :   0.1749
B( 15-C , 16-H ) :   1.3822 B( 15-C , 17-C ) :   0.2878 B( 15-C , 20-H ) :  -0.1601
B( 16-H , 21-C ) :   0.1481 B( 17-C , 18-H ) :   1.0758 B( 17-C , 19-H ) :   1.0562
B( 17-C , 20-H ) :   0.9738 B( 21-C , 22-C ) :   0.5627 B( 21-C , 23-O ) :  -0.5562
B( 21-C , 24-C ) :   0.8137 B( 21-C , 26-O ) :   0.3807 B( 21-C , 48-H ) :   0.1106
B( 22-C , 23-O ) :   0.4014 B( 22-C , 24-C ) :  -0.8291 B( 22-C , 25-C ) :   1.5672
B( 22-C , 26-O ) :   0.1403 B( 22-C , 27-O ) :   0.6718 B( 22-C , 28-C ) :   0.1476
B( 22-C , 38-N ) :  -0.2579 B( 24-C , 25-C ) :  -2.0557 B( 24-C , 27-O ) :   0.1235
B( 24-C , 28-C ) :   0.7290 B( 24-C , 38-N ) :   0.5883 B( 25-C , 28-C ) :   0.4639
B( 27-O , 38-N ) :  -0.2208 B( 28-C , 29-H ) :   0.9024 B( 28-C , 30-C ) :   0.8226
B( 28-C , 31-C ) :   0.1584 B( 28-C , 38-N ) :   0.7150 B( 30-C , 31-C ) :   0.8153
B( 30-C , 38-N ) :   0.2115 B( 30-C , 40-C ) :   0.4903 B( 30-C , 42-H ) :  -0.1324
B( 30-C , 44-H ) :   0.8736 B( 31-C , 32-H ) :   1.0847 B( 31-C , 33-H ) :   0.6851
B( 31-C , 34-C ) :   0.5842 B( 31-C , 40-C ) :   0.1454 B( 34-C , 35-H ) :   1.0557
B( 34-C , 36-H ) :   1.0592 B( 34-C , 37-H ) :   1.0087 B( 38-N , 39-H ) :   1.1908
B( 40-C , 41-H ) :   1.0438 B( 40-C , 42-H ) :   1.0554 B( 40-C , 43-H ) :   1.0620
B( 45-C , 46-H ) :   0.9152 B( 45-C , 47-H ) :   1.2691 B( 45-C , 49-C ) :   0.9479
B( 49-C , 50-H ) :   0.9367 B( 49-C , 51-H ) :   1.1155

MP2 TOTAL ENERGY:    -1057.386776768 Eh
FINAL SINGLE POINT ENERGY     -1057.386776767522

DIPOLE MOMENT
-------------
                                X             Y             Z
Electronic contribution:      0.66314     -13.98586       7.36830
Nuclear contribution   :      0.11137      15.51827      -9.06424
                        -----------------------------------------
Total Dipole Moment    :      0.77451       1.53241      -1.69594
                        -----------------------------------------
Magnitude (a.u.)       :      2.41337
Magnitude (Debye)      :      6.13431

Rotational constants in cm-1:     0.016067     0.004158     0.004033
Rotational constants in MHz :   481.675577   124.655753   120.912249

                             ****ORCA TERMINATED NORMALLY****
TOTAL RUN TIME: 0 days 1 hours 51 minutes 4 seconds 750 msec
