                         Program Version 4.2.1 -  RELEASE  -
|  1> %pal
|  2>  nprocs 32
|  3> end
|  4> !RI-MP2 aug-cc-pVTZ aug-cc-pVTZ/C TightSCF
|  5> %maxcore 4500
|  6> *xyzfile 1 1  05_8TS.xyz
|  7>
|  8>
|  9>                          ****END OF INPUT****

CARTESIAN COORDINATES (ANGSTROEM)
---------------------------------
  C      3.468145   -0.467706    0.035585
  C      2.383519   -1.254598   -0.684227
  C      1.000953   -1.067317   -0.043696
  H      2.336886   -0.938358   -1.732173
  H      2.623969   -2.318901   -0.691316
  C      0.953050   -1.767140    1.326289
  H      1.112628   -2.837191    1.184258
  H     -0.002894   -1.640977    1.830910
  H      1.732395   -1.403284    1.998048
  C      0.686974    0.427678    0.094676
  C      1.709378    1.394521    0.115773
  C      3.157798    1.022566    0.003356
  H      4.438622   -0.638343   -0.430964
  H      3.567436   -0.806622    1.068728
  C      1.409081    2.864075    0.094127
  C     -0.083710   -1.645099   -0.971939
  C     -1.504788   -1.544408   -0.412047
  H      0.168262   -2.688385   -1.173049
  H     -0.022104   -1.131639   -1.936696
  C     -0.755720    0.852626   -0.045523
  H      1.167702    0.829453    1.223843
  C     -1.769323   -0.224695    0.350622
  H     -0.871911    1.108956   -1.105819
  H     -0.959114    1.770758    0.504597
  H     -1.712554   -2.378942    0.258640
  H     -2.208772   -1.647150   -1.238378
  C     -3.191140    0.266492    0.172081
  H     -1.639700   -0.407321    1.419411
  C     -4.050456    0.203204    1.181868
  H     -3.759299   -0.176094    2.154894
  H     -5.080264    0.520240    1.070552
  C     -3.582432    0.802299   -1.177804
  H     -3.310078    0.118312   -1.986182
  H     -3.094359    1.758991   -1.388055
  H     -4.657180    0.968610   -1.232249
  H      3.450248    1.454681   -0.963601
  H      3.731050    1.581785    0.746534
  H      0.555272    3.141513    0.708476
  H      1.169948    3.144398   -0.936443
  H      2.275840    3.440519    0.411186

 Total Charge           Charge          ....    1
 Multiplicity           Mult            ....    1
 Number of Electrons    NEL             ....  114
 Basis Dimension        Dim             .... 1265

ORBITAL ENERGIES
----------------

  NO   OCC          E(Eh)            E(eV)
   0   2.0000     -11.490247      -312.6655
   1   2.0000     -11.470887      -312.1387
   2   2.0000     -11.397663      -310.1462
   3   2.0000     -11.396331      -310.1099
   4   2.0000     -11.394289      -310.0544
   5   2.0000     -11.386781      -309.8501
   6   2.0000     -11.365555      -309.2725
   7   2.0000     -11.361401      -309.1594
   8   2.0000     -11.361282      -309.1562
   9   2.0000     -11.355114      -308.9884
  10   2.0000     -11.354914      -308.9829
  11   2.0000     -11.342318      -308.6402
  12   2.0000     -11.342295      -308.6395
  13   2.0000     -11.322276      -308.0948
  14   2.0000     -11.316292      -307.9320
  15   2.0000      -1.364296       -37.1244
  16   2.0000      -1.264700       -34.4142
  17   2.0000      -1.238765       -33.7085
  18   2.0000      -1.203560       -32.7505
  19   2.0000      -1.151688       -31.3390
  20   2.0000      -1.142491       -31.0888
  21   2.0000      -1.103152       -30.0183
  22   2.0000      -1.082417       -29.4541
  23   2.0000      -1.044183       -28.4137
  24   2.0000      -1.029836       -28.0233
  25   2.0000      -0.995332       -27.0844
  26   2.0000      -0.949382       -25.8340
  27   2.0000      -0.913805       -24.8659
  28   2.0000      -0.839447       -22.8425
  29   2.0000      -0.830770       -22.6064
  30   2.0000      -0.824948       -22.4480
  31   2.0000      -0.805551       -21.9202
  32   2.0000      -0.797618       -21.7043
  33   2.0000      -0.772411       -21.0184
  34   2.0000      -0.752773       -20.4840
  35   2.0000      -0.742309       -20.1993
  36   2.0000      -0.737437       -20.0667
  37   2.0000      -0.733437       -19.9578
  38   2.0000      -0.716888       -19.5075
  39   2.0000      -0.707347       -19.2479
  40   2.0000      -0.698442       -19.0056
  41   2.0000      -0.690279       -18.7835
  42   2.0000      -0.682632       -18.5754
  43   2.0000      -0.677307       -18.4305
  44   2.0000      -0.663765       -18.0620
  45   2.0000      -0.657427       -17.8895
  46   2.0000      -0.651434       -17.7264
  47   2.0000      -0.641641       -17.4599
  48   2.0000      -0.627329       -17.0705
  49   2.0000      -0.625066       -17.0089
  50   2.0000      -0.615231       -16.7413
  51   2.0000      -0.604205       -16.4412
  52   2.0000      -0.600363       -16.3367
  53   2.0000      -0.581952       -15.8357
  54   2.0000      -0.574670       -15.6376
  55   2.0000      -0.559178       -15.2160
  56   2.0000      -0.456915       -12.4333
  57   0.0000      -0.075880        -2.0648
  58   0.0000      -0.064140        -1.7453
  59   0.0000      -0.055940        -1.5222
  60   0.0000      -0.053080        -1.4444
  61   0.0000      -0.048837        -1.3289

MULLIKEN ATOMIC CHARGES
-----------------------
   0 C :   -0.650098
   1 C :   -1.173962
   2 C :    2.261064
   3 H :    0.251024
   4 H :    0.311414
   5 C :   -1.486139
   6 H :    0.080946
   7 H :    0.510740
   8 H :    0.158499
   9 C :    0.571722
  10 C :    0.956046
  11 C :   -0.682297
  12 H :    0.400043
  13 H :    0.131669
  14 C :   -1.116742
  15 C :   -1.114221
  16 C :   -0.641982
  17 H :    0.362276
  18 H :    0.091824
  19 C :   -0.849339
  20 H :    0.130422
  21 C :    0.448305
  22 H :    0.129404
  23 H :    0.337666
  24 H :    0.054525
  25 H :    0.426355
  26 C :    1.129256
  27 H :   -0.286204
  28 C :   -1.620549
  29 H :    0.272752
  30 H :    0.324678
  31 C :   -0.840482
  32 H :    0.273289
  33 H :    0.252710
  34 H :    0.214462
  35 H :    0.171215
  36 H :    0.386298
  37 H :    0.323359
  38 H :    0.264676
  39 H :    0.235378
Sum of atomic charges:    1.0000000

LOEWDIN ATOMIC CHARGES
----------------------
   0 C :    0.345431
   1 C :    0.331192
   2 C :   -0.228594
   3 H :   -0.117235
   4 H :   -0.114808
   5 C :    0.647845
   6 H :   -0.124404
   7 H :   -0.169202
   8 H :   -0.155227
   9 C :    0.105274
  10 C :    0.066586
  11 C :    0.372887
  12 H :   -0.117998
  13 H :   -0.143130
  14 C :    0.686025
  15 C :    0.335266
  16 C :    0.356422
  17 H :   -0.114271
  18 H :   -0.123769
  19 C :    0.369416
  20 H :   -0.083637
  21 C :    0.019447
  22 H :   -0.115498
  23 H :   -0.134430
  24 H :   -0.123652
  25 H :   -0.145567
  26 C :   -0.102216
  27 H :   -0.163480
  28 C :    0.580775
  29 H :   -0.202104
  30 H :   -0.200501
  31 C :    0.585292
  32 H :   -0.164537
  33 H :   -0.162574
  34 H :   -0.163509
  35 H :   -0.106537
  36 H :   -0.114494
  37 H :   -0.152770
  38 H :   -0.118213
  39 H :   -0.139498

  Mayer bond orders larger than 0.100000
B(  0-C ,  1-C ) :   1.0206 B(  0-C ,  2-C ) :  -0.1747 B(  0-C , 11-C ) :   0.9718
B(  0-C , 12-H ) :   0.8480 B(  0-C , 13-H ) :   1.1460 B(  1-C ,  3-H ) :   1.1130
B(  1-C ,  4-H ) :   1.0095 B(  1-C ,  9-C ) :   0.2637 B(  1-C , 10-C ) :  -0.1424
B(  1-C , 11-C ) :   0.1851 B(  1-C , 15-C ) :   0.1476 B(  2-C ,  4-H ) :  -0.1163
B(  2-C ,  5-C ) :   0.1238 B(  2-C ,  6-H ) :  -0.2889 B(  2-C ,  8-H ) :  -0.1796
B(  2-C ,  9-C ) :   1.1632 B(  2-C , 10-C ) :   0.2686 B(  2-C , 13-H ) :  -0.1077
B(  2-C , 15-C ) :   0.1707 B(  2-C , 16-C ) :  -0.1785 B(  2-C , 18-H ) :  -0.1782
B(  5-C ,  6-H ) :   1.4514 B(  5-C ,  7-H ) :   0.7694 B(  5-C ,  8-H ) :   1.2540
B(  5-C ,  9-C ) :  -0.1967 B(  7-H ,  9-C ) :  -0.1130 B(  9-C , 10-C ) :   1.7370
B(  9-C , 11-C ) :   0.4848 B(  9-C , 14-C ) :   0.3076 B(  9-C , 15-C ) :   0.3245
B(  9-C , 19-C ) :  -0.1579 B(  9-C , 20-H ) :   0.5988 B(  9-C , 21-C ) :  -0.1664
B(  9-C , 22-H ) :  -0.2561 B( 10-C , 11-C ) :   0.1448 B( 10-C , 14-C ) :   0.1649
B( 10-C , 20-H ) :   0.4008 B( 10-C , 21-C ) :   0.1024 B( 10-C , 35-H ) :  -0.1592
B( 10-C , 38-H ) :  -0.1182 B( 11-C , 19-C ) :  -0.2199 B( 11-C , 35-H ) :   1.1735
B( 11-C , 36-H ) :   0.8793 B( 14-C , 37-H ) :   1.0037 B( 14-C , 38-H ) :   1.0502
B( 14-C , 39-H ) :   1.0689 B( 15-C , 16-C ) :   0.9854 B( 15-C , 17-H ) :   0.9495
B( 15-C , 18-H ) :   1.3392 B( 15-C , 19-C ) :  -0.1268 B( 15-C , 25-H ) :  -0.1313
B( 16-C , 17-H ) :  -0.1024 B( 16-C , 19-C ) :   0.2973 B( 16-C , 21-C ) :   0.7284
B( 16-C , 24-H ) :   1.3023 B( 16-C , 25-H ) :   0.8571 B( 16-C , 28-C ) :  -0.1117
B( 19-C , 20-H ) :   0.1654 B( 19-C , 21-C ) :   1.0853 B( 19-C , 22-H ) :   1.3488
B( 19-C , 23-H ) :   0.9207 B( 19-C , 26-C ) :   0.2483 B( 19-C , 27-H ) :   0.1449
B( 19-C , 31-C ) :  -0.1617 B( 21-C , 23-H ) :  -0.1004 B( 21-C , 24-H ) :  -0.1071
B( 21-C , 26-C ) :   1.3417 B( 21-C , 27-H ) :   1.2115 B( 21-C , 28-C ) :  -0.2117
B( 21-C , 29-H ) :  -0.1250 B( 21-C , 31-C ) :   0.2554 B( 22-H , 27-H ) :   0.1010
B( 26-C , 27-H ) :  -0.3370 B( 26-C , 28-C ) :   0.5829 B( 26-C , 31-C ) :   0.5309
B( 27-H , 28-C ) :   0.3026 B( 28-C , 29-H ) :   1.1987 B( 28-C , 30-H ) :   0.8917
B( 28-C , 31-C ) :  -0.1567 B( 31-C , 32-H ) :   0.9931 B( 31-C , 33-H ) :   1.0069
B( 31-C , 34-H ) :   1.0490

MP2 TOTAL ENERGY:     -585.072728043 Eh
FINAL SINGLE POINT ENERGY      -585.072728043210

DIPOLE MOMENT
-------------
                                X             Y             Z
Electronic contribution:      0.86611       0.26306       0.35555
Nuclear contribution   :      1.06433       0.86765      -0.24698
                        -----------------------------------------
Total Dipole Moment    :      1.93044       1.13071       0.10856
                        -----------------------------------------
Magnitude (a.u.)       :      2.23984
Magnitude (Debye)      :      5.69321

Rotational constants in cm-1:     0.034410     0.013360     0.011116
Rotational constants in MHz :  1031.571263   400.534237   333.260305

                             ****ORCA TERMINATED NORMALLY****
TOTAL RUN TIME: 0 days 0 hours 37 minutes 43 seconds 144 msec
