                         Program Version 4.2.1 -  RELEASE  -
|  1> %pal
|  2>  nprocs 32
|  3> end
|  4> !RI-MP2 aug-cc-pVTZ aug-cc-pVTZ/C TightSCF
|  5> %maxcore 4500
|  6> *xyzfile 0 1  05_33R1.xyz
|  7>
|  8>
|  9>                          ****END OF INPUT****

CARTESIAN COORDINATES (ANGSTROEM)
---------------------------------
  C      4.151345   -0.102292   -0.832365
  O      5.053894    0.392530    0.139913
  C      4.828942   -0.124243    1.431980
  H      4.912160   -1.219259    1.438389
  H      3.841972    0.153058    1.817735
  C      2.756932    0.409572   -0.649084
  H      2.647932    1.491771   -0.633290
  C      1.682132   -0.367206   -0.512244
  H      1.807614   -1.448520   -0.518559
  H      5.597365    0.294051    2.080254
  C      0.327142    0.127148   -0.355703
  H      0.208394    1.206648   -0.351220
  C     -0.736676   -0.671360   -0.220737
  H     -0.569244   -1.745840   -0.234828
  C     -2.135003   -0.266361   -0.053536
  C     -2.542831    1.070536    0.000770
  C     -3.113752   -1.256316    0.058191
  C     -3.877631    1.398925    0.159284
  H     -1.810850    1.864109   -0.081003
  C     -4.452088   -0.929138    0.217204
  H     -2.816406   -2.298397    0.018735
  C     -4.840210    0.401232    0.268314
  H     -4.171952    2.440923    0.198767
  H     -5.192388   -1.715643    0.301217
  H     -5.884111    0.662013    0.392425
  H      4.153830   -1.201604   -0.829901
  H      4.554725    0.233473   -1.790472

 Total Charge           Charge          ....    0
 Multiplicity           Mult            ....    1
 Number of Electrons    NEL             ....   94
 Basis Dimension        Dim             ....  920

ORBITAL ENERGIES
----------------

  NO   OCC          E(Eh)            E(eV)
   0   2.0000     -20.555621      -559.3469
   1   2.0000     -11.279311      -306.9257
   2   2.0000     -11.265648      -306.5539
   3   2.0000     -11.247453      -306.0588
   4   2.0000     -11.241538      -305.8978
   5   2.0000     -11.240133      -305.8596
   6   2.0000     -11.238832      -305.8242
   7   2.0000     -11.237760      -305.7950
   8   2.0000     -11.237383      -305.7847
   9   2.0000     -11.236143      -305.7510
  10   2.0000     -11.235913      -305.7447
  11   2.0000     -11.235215      -305.7257
  12   2.0000     -11.232553      -305.6533
  13   2.0000      -1.374019       -37.3889
  14   2.0000      -1.165165       -31.7058
  15   2.0000      -1.109276       -30.1849
  16   2.0000      -1.060509       -28.8579
  17   2.0000      -1.020902       -27.7801
  18   2.0000      -1.004611       -27.3368
  19   2.0000      -0.953849       -25.9555
  20   2.0000      -0.886959       -24.1354
  21   2.0000      -0.843309       -22.9476
  22   2.0000      -0.828259       -22.5381
  23   2.0000      -0.776993       -21.1430
  24   2.0000      -0.761599       -20.7242
  25   2.0000      -0.706627       -19.2283
  26   2.0000      -0.670534       -18.2461
  27   2.0000      -0.659050       -17.9336
  28   2.0000      -0.653804       -17.7909
  29   2.0000      -0.642444       -17.4818
  30   2.0000      -0.627082       -17.0638
  31   2.0000      -0.612299       -16.6615
  32   2.0000      -0.591092       -16.0844
  33   2.0000      -0.585577       -15.9344
  34   2.0000      -0.569091       -15.4858
  35   2.0000      -0.538882       -14.6637
  36   2.0000      -0.527528       -14.3548
  37   2.0000      -0.520000       -14.1499
  38   2.0000      -0.510076       -13.8799
  39   2.0000      -0.500181       -13.6106
  40   2.0000      -0.489976       -13.3329
  41   2.0000      -0.473551       -12.8860
  42   2.0000      -0.451911       -12.2971
  43   2.0000      -0.424916       -11.5625
  44   2.0000      -0.372412       -10.1338
  45   2.0000      -0.342479        -9.3193
  46   2.0000      -0.287679        -7.8281
  47   0.0000       0.027147         0.7387
  48   0.0000       0.028934         0.7873
  49   0.0000       0.031314         0.8521
  50   0.0000       0.039022         1.0618
  51   0.0000       0.040004         1.0886

MULLIKEN ATOMIC CHARGES
-----------------------
   0 C :   -0.048750
   1 O :   -0.641837
   2 C :   -0.867544
   3 H :    0.316123
   4 H :    0.406697
   5 C :   -0.526081
   6 H :    0.153354
   7 C :    0.212337
   8 H :   -0.002635
   9 H :    0.351359
  10 C :    0.089406
  11 H :    0.075459
  12 C :   -0.435668
  13 H :    0.000176
  14 C :    2.238219
  15 C :   -0.553595
  16 C :   -1.003349
  17 C :   -0.835753
  18 H :   -0.267091
  19 C :   -0.731190
  20 H :   -0.102057
  21 C :   -0.083681
  22 H :    0.612860
  23 H :    0.643833
  24 H :    0.304588
  25 H :    0.303294
  26 H :    0.391526
Sum of atomic charges:   -0.0000000

LOEWDIN ATOMIC CHARGES
----------------------
   0 C :   -0.010247
   1 O :    0.541691
   2 C :    0.308201
   3 H :   -0.176066
   4 H :   -0.184114
   5 C :    0.208750
   6 H :   -0.172320
   7 C :    0.185724
   8 H :   -0.181013
   9 H :   -0.186787
  10 C :    0.198872
  11 H :   -0.195350
  12 C :    0.218889
  13 H :   -0.188925
  14 C :   -0.130923
  15 C :    0.215514
  16 C :    0.206902
  17 C :    0.199709
  18 H :   -0.191568
  19 C :    0.197370
  20 H :   -0.179829
  21 C :    0.194460
  22 H :   -0.181361
  23 H :   -0.182051
  24 H :   -0.184296
  25 H :   -0.167418
  26 H :   -0.163813

  Mayer bond orders larger than 0.100000
B(  0-C ,  1-O ) :   0.8332 B(  0-C ,  5-C ) :   0.7559 B(  0-C , 25-H ) :   0.9953
B(  0-C , 26-H ) :   0.8850 B(  1-O ,  2-C ) :   0.9531 B(  2-C ,  3-H ) :   0.8929
B(  2-C ,  4-H ) :   0.8244 B(  2-C ,  9-H ) :   0.9434 B(  5-C ,  6-H ) :   1.2928
B(  5-C ,  7-C ) :   0.6792 B(  5-C , 12-C ) :   0.1055 B(  5-C , 18-H ) :   0.1064
B(  6-H ,  7-C ) :  -0.1907 B(  6-H , 14-C ) :   0.1008 B(  7-C ,  8-H ) :   1.5715
B(  7-C , 10-C ) :   0.1897 B(  7-C , 12-C ) :  -0.3094 B(  7-C , 13-H ) :  -0.1605
B(  7-C , 14-C ) :   0.1789 B(  8-H , 10-C ) :  -0.2381 B(  8-H , 12-C ) :  -0.1672
B( 10-C , 11-H ) :   1.8548 B( 10-C , 12-C ) :   0.7722 B( 10-C , 13-H ) :  -0.1196
B( 10-C , 14-C ) :  -0.1330 B( 10-C , 17-C ) :  -0.1411 B( 10-C , 18-H ) :  -0.3165
B( 10-C , 19-C ) :  -0.1232 B( 10-C , 20-H ) :  -0.1451 B( 10-C , 21-C ) :   0.1439
B( 10-C , 23-H ) :   0.1314 B( 11-H , 12-C ) :  -0.1857 B( 11-H , 14-C ) :  -0.2000
B( 11-H , 15-C ) :  -0.1458 B( 12-C , 13-H ) :   1.6408 B( 12-C , 15-C ) :   0.2852
B( 12-C , 16-C ) :   0.1638 B( 12-C , 20-H ) :  -0.2759 B( 12-C , 21-C ) :   0.1762
B( 14-C , 15-C ) :   0.3644 B( 14-C , 16-C ) :  -0.1629 B( 14-C , 17-C ) :   0.2173
B( 14-C , 18-H ) :  -0.5771 B( 14-C , 19-C ) :   0.1543 B( 14-C , 20-H ) :  -0.5604
B( 14-C , 23-H ) :   0.1002 B( 15-C , 16-C ) :  -0.5149 B( 15-C , 17-C ) :   1.0983
B( 15-C , 18-H ) :   2.2212 B( 15-C , 20-H ) :   0.2509 B( 15-C , 21-C ) :  -0.3195
B( 16-C , 17-C ) :   0.1131 B( 16-C , 18-H ) :   0.2490 B( 16-C , 19-C ) :   1.1317
B( 16-C , 20-H ) :   2.0791 B( 16-C , 21-C ) :  -0.3181 B( 16-C , 23-H ) :  -0.2474
B( 16-C , 24-H ) :   0.2946 B( 17-C , 18-H ) :  -0.1476 B( 17-C , 19-C ) :   0.4336
B( 17-C , 21-C ) :   1.0295 B( 17-C , 22-H ) :   0.3985 B( 17-C , 24-H ) :  -0.2105
B( 18-H , 20-H ) :   0.2882 B( 18-H , 21-C ) :  -0.1064 B( 18-H , 22-H ) :  -0.1183
B( 18-H , 23-H ) :  -0.1437 B( 18-H , 24-H ) :   0.1556 B( 19-C , 20-H ) :  -0.1656
B( 19-C , 21-C ) :   1.0333 B( 19-C , 23-H ) :   0.4152 B( 19-C , 24-H ) :  -0.1964
B( 20-H , 22-H ) :  -0.1351 B( 21-C , 22-H ) :   0.1281 B( 21-C , 23-H ) :   0.1083
B( 21-C , 24-H ) :   1.0209

MP2 TOTAL ENERGY:     -539.772884038 Eh
FINAL SINGLE POINT ENERGY      -539.772884037669

DIPOLE MOMENT
-------------
                                X             Y             Z
Electronic contribution:     -7.95926       0.97088      -1.70444
Nuclear contribution   :      7.45567      -1.29386       1.83431
                        -----------------------------------------
Total Dipole Moment    :     -0.50359      -0.32298       0.12987
                        -----------------------------------------
Magnitude (a.u.)       :      0.61220
Magnitude (Debye)      :      1.55608

Rotational constants in cm-1:     0.098106     0.007498     0.007330
Rotational constants in MHz :  2941.150094   224.772894   219.746105

                             ****ORCA TERMINATED NORMALLY****
TOTAL RUN TIME: 0 days 0 hours 10 minutes 58 seconds 418 msec
