                         Program Version 4.2.1 -  RELEASE  -
|  1> %pal
|  2>  nprocs 32
|  3> end
|  4> !RI-MP2 aug-cc-pVTZ aug-cc-pVTZ/C TightSCF
|  5> %maxcore 4500
|  6> *xyzfile 1 1  04_5R1.xyz
|  7>
|  8>
|  9>                          ****END OF INPUT****

CARTESIAN COORDINATES (ANGSTROEM)
---------------------------------
  C      0.250197   -1.217854    0.000001
  C      0.973598   -0.014357    0.000024
  C      0.279863    1.205645    0.000016
  C     -1.086143    1.189079   -0.000019
  H     -1.731530   -2.057368   -0.000052
  H      0.775255   -2.162822    0.000010
  H     -1.683654    2.090416   -0.000028
  H     -2.765193    0.030366   -0.000074
  N     -1.751751    0.018510   -0.000042
  C     -1.111486   -1.171545   -0.000033
  O      2.286519   -0.109366    0.000047
  H      2.736253    0.745715    0.000097
  H      0.802796    2.153249    0.000034

 Total Charge           Charge          ....    1
 Multiplicity           Mult            ....    1
 Number of Electrons    NEL             ....   50
 Basis Dimension        Dim             ....  460

ORBITAL ENERGIES
----------------

  NO   OCC          E(Eh)            E(eV)
   0   2.0000     -20.789697      -565.7164
   1   2.0000     -15.844299      -431.1453
   2   2.0000     -11.535436      -313.8952
   3   2.0000     -11.505934      -313.0924
   4   2.0000     -11.500617      -312.9477
   5   2.0000     -11.434270      -311.1423
   6   2.0000     -11.427460      -310.9570
   7   2.0000      -1.621121       -44.1129
   8   2.0000      -1.521767       -41.4094
   9   2.0000      -1.293676       -35.2027
  10   2.0000      -1.261540       -34.3283
  11   2.0000      -1.095494       -29.8099
  12   2.0000      -1.081314       -29.4241
  13   2.0000      -0.979041       -26.6411
  14   2.0000      -0.955831       -26.0095
  15   2.0000      -0.901963       -24.5437
  16   2.0000      -0.843386       -22.9497
  17   2.0000      -0.823786       -22.4163
  18   2.0000      -0.807919       -21.9846
  19   2.0000      -0.787670       -21.4336
  20   2.0000      -0.764556       -20.8046
  21   2.0000      -0.763381       -20.7726
  22   2.0000      -0.712404       -19.3855
  23   2.0000      -0.568124       -15.4595
  24   2.0000      -0.562897       -15.3172
  25   0.0000      -0.100347        -2.7306
  26   0.0000      -0.092186        -2.5085
  27   0.0000      -0.075816        -2.0631
  28   0.0000      -0.075684        -2.0595
  29   0.0000      -0.066747        -1.8163

MULLIKEN ATOMIC CHARGES
-----------------------
   0 C :   -0.291853
   1 C :    0.705197
   2 C :   -0.405681
   3 C :   -0.426306
   4 H :    0.757679
   5 H :    0.448529
   6 H :    0.774562
   7 H :    0.095329
   8 N :   -0.145187
   9 C :   -0.467820
  10 O :   -0.626213
  11 H :    0.232365
  12 H :    0.349400
Sum of atomic charges:    1.0000000

LOEWDIN ATOMIC CHARGES
----------------------
   0 C :    0.288516
   1 C :   -0.325889
   2 C :    0.292443
   3 C :    0.213082
   4 H :   -0.120375
   5 H :   -0.154322
   6 H :   -0.119062
   7 H :   -0.206136
   8 N :    0.574551
   9 C :    0.215353
  10 O :    0.909125
  11 H :   -0.407947
  12 H :   -0.159339

  Mayer bond orders larger than 0.100000
B(  0-C ,  1-C ) :   1.1361 B(  0-C ,  2-C ) :   0.1315 B(  0-C ,  3-C ) :  -0.1799
B(  0-C ,  5-H ) :   0.8546 B(  0-C ,  8-N ) :  -0.1417 B(  0-C ,  9-C ) :   1.0083
B(  1-C ,  2-C ) :   1.1366 B(  1-C , 10-O ) :   0.8074 B(  2-C ,  3-C ) :   0.9862
B(  2-C ,  8-N ) :  -0.1569 B(  2-C , 12-H ) :   0.9823 B(  3-C ,  6-H ) :   0.2306
B(  3-C ,  8-N ) :   1.2686 B(  3-C ,  9-C ) :   0.2121 B(  4-H ,  9-C ) :   0.2799
B(  7-H ,  8-N ) :   1.1538 B(  8-N ,  9-C ) :   1.2659 B( 10-O , 11-H ) :   0.9848

MP2 TOTAL ENERGY:     -323.279518344 Eh
FINAL SINGLE POINT ENERGY      -323.279518343532

DIPOLE MOMENT
-------------
                                X             Y             Z
Electronic contribution:      0.56227      -0.18718       0.00001
Nuclear contribution   :     -1.83404       0.79522      -0.00001
                        -----------------------------------------
Total Dipole Moment    :     -1.27177       0.60805      -0.00001
                        -----------------------------------------
Magnitude (a.u.)       :      1.40965
Magnitude (Debye)      :      3.58305

Rotational constants in cm-1:     0.192625     0.088210     0.060503
Rotational constants in MHz :  5774.745617  2644.478224  1813.847609

                             ****ORCA TERMINATED NORMALLY****
TOTAL RUN TIME: 0 days 0 hours 1 minutes 41 seconds 796 msec
