                         Program Version 4.2.1 -  RELEASE  -
|  1> %pal
|  2>  nprocs 32
|  3> end
|  4> !RI-MP2 aug-cc-pVTZ aug-cc-pVTZ/C TightSCF
|  5> %maxcore 4500
|  6> *xyzfile 1 1  10_17TS.xyz
|  7>
|  8>
|  9>                          ****END OF INPUT****

CARTESIAN COORDINATES (ANGSTROEM)
---------------------------------
  C     -1.572622    1.301014   -0.183660
  N     -0.275218    1.034212   -0.149922
  N      0.405253    0.094361   -0.504900
  C      1.778779    0.069888   -0.206528
  C      2.470609   -1.034488   -0.697841
  C      2.424878    1.061631    0.536637
  C      3.827041   -1.151427   -0.444876
  H      1.938088   -1.781749   -1.272141
  C      3.775708    0.933384    0.782679
  H      1.868363    1.913320    0.906398
  C      4.474676   -0.170445    0.293089
  H      4.377921   -2.002942   -0.821920
  H      4.294967    1.690845    1.355363
  H      5.535495   -0.260734    0.491257
  C     -2.337379    1.035778    1.090648
  H     -2.076576    1.868485    1.755270
  H     -3.398873    1.161883    0.868947
  C     -1.981831    2.467744   -1.032842
  H     -1.418922    2.505102   -1.963818
  H     -3.048604    2.423659   -1.243309
  H     -1.788972    3.387913   -0.473220
  C     -2.472790   -0.334227   -1.550359
  C     -1.697231   -1.379205   -1.198761
  H     -3.388681   -0.119823   -1.015507
  H     -2.361774    0.120758   -2.526588
  C     -1.837635   -2.174585    0.056571
  H     -2.269826   -3.142234   -0.226900
  H     -0.837958   -2.414663    0.432012
  H     -0.937209   -1.716412   -1.894015
  C     -2.670020   -1.551052    1.175980
  C     -2.082810   -0.286881    1.815822
  H     -1.010445   -0.421877    1.990383
  H     -2.525926   -0.173127    2.806835
  H     -3.691625   -1.357724    0.834559
  H     -2.765931   -2.303476    1.960793

 Total Charge           Charge          ....    1
 Multiplicity           Mult            ....    1
 Number of Electrons    NEL             ....  116
 Basis Dimension        Dim             .... 1173

ORBITAL ENERGIES
----------------

  NO   OCC          E(Eh)            E(eV)
   0   2.0000     -15.817395      -430.4132
   1   2.0000     -15.804123      -430.0521
   2   2.0000     -11.519112      -313.4510
   3   2.0000     -11.402204      -310.2697
   4   2.0000     -11.401212      -310.2428
   5   2.0000     -11.394410      -310.0577
   6   2.0000     -11.389868      -309.9341
   7   2.0000     -11.373707      -309.4943
   8   2.0000     -11.371742      -309.4408
   9   2.0000     -11.365213      -309.2632
  10   2.0000     -11.362568      -309.1912
  11   2.0000     -11.359052      -309.0955
  12   2.0000     -11.358732      -309.0868
  13   2.0000     -11.357580      -309.0555
  14   2.0000     -11.355778      -309.0064
  15   2.0000     -11.351377      -308.8867
  16   2.0000      -1.571526       -42.7634
  17   2.0000      -1.335181       -36.3321
  18   2.0000      -1.279457       -34.8158
  19   2.0000      -1.238402       -33.6986
  20   2.0000      -1.194180       -32.4953
  21   2.0000      -1.174007       -31.9464
  22   2.0000      -1.151339       -31.3295
  23   2.0000      -1.119421       -30.4610
  24   2.0000      -1.104820       -30.0637
  25   2.0000      -1.044252       -28.4155
  26   2.0000      -0.994529       -27.0625
  27   2.0000      -0.966922       -26.3113
  28   2.0000      -0.958928       -26.0938
  29   2.0000      -0.887541       -24.1512
  30   2.0000      -0.877552       -23.8794
  31   2.0000      -0.851264       -23.1641
  32   2.0000      -0.819781       -22.3074
  33   2.0000      -0.808522       -22.0010
  34   2.0000      -0.806059       -21.9340
  35   2.0000      -0.799977       -21.7685
  36   2.0000      -0.765259       -20.8238
  37   2.0000      -0.749323       -20.3901
  38   2.0000      -0.739727       -20.1290
  39   2.0000      -0.737131       -20.0584
  40   2.0000      -0.724732       -19.7210
  41   2.0000      -0.719617       -19.5818
  42   2.0000      -0.716625       -19.5004
  43   2.0000      -0.707766       -19.2593
  44   2.0000      -0.704447       -19.1690
  45   2.0000      -0.689005       -18.7488
  46   2.0000      -0.661614       -18.0034
  47   2.0000      -0.649222       -17.6662
  48   2.0000      -0.644600       -17.5405
  49   2.0000      -0.627056       -17.0631
  50   2.0000      -0.618775       -16.8377
  51   2.0000      -0.609349       -16.5812
  52   2.0000      -0.604985       -16.4625
  53   2.0000      -0.598167       -16.2770
  54   2.0000      -0.554889       -15.0993
  55   2.0000      -0.499599       -13.5948
  56   2.0000      -0.467287       -12.7155
  57   2.0000      -0.464514       -12.6401
  58   0.0000      -0.092438        -2.5154
  59   0.0000      -0.080977        -2.2035
  60   0.0000      -0.062254        -1.6940
  61   0.0000      -0.053766        -1.4630
  62   0.0000      -0.050752        -1.3810

MULLIKEN ATOMIC CHARGES
-----------------------
   0 C :    1.227168
   1 N :   -1.211847
   2 N :    0.715858
   3 C :    1.009987
   4 C :   -0.650508
   5 C :   -0.250065
   6 C :   -0.796413
   7 H :    0.528067
   8 C :   -1.004623
   9 H :    0.526668
  10 C :   -0.362182
  11 H :    0.405194
  12 H :    0.480488
  13 H :    0.499902
  14 C :   -0.498411
  15 H :    0.341962
  16 H :    0.196743
  17 C :   -1.210744
  18 H :    0.293356
  19 H :    0.305297
  20 H :    0.263077
  21 C :   -0.879457
  22 C :   -0.375680
  23 H :    0.448912
  24 H :    0.262577
  25 C :   -0.288416
  26 H :    0.312028
  27 H :    0.163544
  28 H :    0.588171
  29 C :   -0.430527
  30 C :   -0.521985
  31 H :    0.269471
  32 H :    0.246149
  33 H :    0.088813
  34 H :    0.307426
Sum of atomic charges:    1.0000000

LOEWDIN ATOMIC CHARGES
----------------------
   0 C :   -0.217179
   1 N :    0.276772
   2 N :    0.307412
   3 C :   -0.271350
   4 C :    0.216895
   5 C :    0.227673
   6 C :    0.230241
   7 H :   -0.166886
   8 C :    0.229754
   9 H :   -0.174430
  10 C :    0.236589
  11 H :   -0.169974
  12 H :   -0.169460
  13 H :   -0.162092
  14 C :    0.327189
  15 H :   -0.116140
  16 H :   -0.135179
  17 C :    0.637088
  18 H :   -0.143602
  19 H :   -0.147024
  20 H :   -0.131425
  21 C :    0.499369
  22 C :    0.224918
  23 H :   -0.210150
  24 H :   -0.176916
  25 C :    0.300630
  26 H :   -0.125965
  27 H :   -0.143248
  28 H :   -0.152009
  29 C :    0.314641
  30 C :    0.327569
  31 H :   -0.140282
  32 H :   -0.131037
  33 H :   -0.140207
  34 H :   -0.132185

  Mayer bond orders larger than 0.100000
B(  0-C ,  1-N ) :   1.3359 B(  0-C ,  2-N ) :   0.1499 B(  0-C ,  3-C ) :   0.1986
B(  0-C , 14-C ) :   0.9053 B(  0-C , 17-C ) :   0.1425 B(  0-C , 18-H ) :  -0.1292
B(  0-C , 19-H ) :  -0.1074 B(  0-C , 20-H ) :  -0.1515 B(  0-C , 21-C ) :   0.1706
B(  0-C , 22-C ) :   0.1714 B(  1-N ,  3-C ) :   0.4985 B(  1-N ,  4-C ) :   0.2416
B(  1-N ,  5-C ) :   0.2687 B(  1-N ,  6-C ) :  -0.1033 B(  1-N ,  9-H ) :  -0.3333
B(  1-N , 14-C ) :   0.1695 B(  2-N ,  3-C ) :  -0.1015 B(  2-N ,  4-C ) :  -0.5740
B(  2-N ,  5-C ) :  -0.8498 B(  2-N ,  6-C ) :   0.2271 B(  2-N ,  9-H ) :   0.1978
B(  2-N , 12-H ) :  -0.1013 B(  2-N , 21-C ) :   0.1579 B(  3-C ,  4-C ) :   0.6572
B(  3-C ,  5-C ) :   0.7261 B(  3-C ,  6-C ) :  -0.2945 B(  3-C ,  8-C ) :  -0.2009
B(  3-C , 10-C ) :  -0.1379 B(  4-C ,  6-C ) :   1.3373 B(  4-C ,  7-H ) :   0.6517
B(  4-C , 10-C ) :   0.2056 B(  5-C ,  8-C ) :   1.1814 B(  5-C ,  9-H ) :   0.7996
B(  6-C ,  7-H ) :  -0.1279 B(  6-C , 10-C ) :   1.2067 B(  6-C , 11-H ) :   0.9085
B(  8-C , 10-C ) :   1.1865 B(  8-C , 12-H ) :   0.7386 B( 10-C , 13-H ) :   0.7491
B( 14-C , 15-H ) :   0.8835 B( 14-C , 16-H ) :   1.0691 B( 14-C , 30-C ) :   0.8612
B( 17-C , 18-H ) :   1.0349 B( 17-C , 19-H ) :   1.0051 B( 17-C , 20-H ) :   1.1053
B( 21-C , 22-C ) :   1.4788 B( 21-C , 23-H ) :   0.8431 B( 21-C , 24-H ) :   0.9958
B( 22-C , 25-C ) :   0.7712 B( 22-C , 28-H ) :   0.6692 B( 22-C , 29-C ) :   0.1464
B( 25-C , 26-H ) :   0.8957 B( 25-C , 27-H ) :   1.0903 B( 25-C , 29-C ) :   0.9109
B( 29-C , 30-C ) :   0.8552 B( 29-C , 33-H ) :   1.1163 B( 29-C , 34-H ) :   0.9093
B( 30-C , 31-H ) :   1.0258 B( 30-C , 32-H ) :   0.9764

MP2 TOTAL ENERGY:     -652.738214903 Eh
FINAL SINGLE POINT ENERGY      -652.738214903271

DIPOLE MOMENT
-------------
                                X             Y             Z
Electronic contribution:     12.72369       1.27290      -2.02401
Nuclear contribution   :    -13.78262      -0.62880       2.00075
                        -----------------------------------------
Total Dipole Moment    :     -1.05893       0.64410      -0.02326
                        -----------------------------------------
Magnitude (a.u.)       :      1.23966
Magnitude (Debye)      :      3.15096

Rotational constants in cm-1:     0.030579     0.010823     0.009830
Rotational constants in MHz :   916.730668   324.478603   294.695593

                             ****ORCA TERMINATED NORMALLY****
TOTAL RUN TIME: 0 days 0 hours 38 minutes 45 seconds 699 msec
