                         Program Version 4.2.1 -  RELEASE  -
|  1> %pal
|  2>  nprocs 32
|  3> end
|  4> !RI-MP2 aug-cc-pVTZ aug-cc-pVTZ/C TightSCF
|  5> %maxcore 4500
|  6> *xyzfile 0 1  09_18R1.xyz
|  7>
|  8>
|  9>                          ****END OF INPUT****

CARTESIAN COORDINATES (ANGSTROEM)
---------------------------------
  C     -0.745946    0.268767   -0.004698
  O     -0.626695    1.465026   -0.004914
  C     -2.078309   -0.434348    0.005276
  H     -2.586853   -0.194575    0.940857
  H     -1.982420   -1.515470   -0.086567
  H     -2.683299   -0.045760   -0.814795
  S      0.656837   -0.826938   -0.004811
  C      1.987967    0.396178    0.007441
  H      1.923579    1.030073   -0.873932
  H      2.924713   -0.158276    0.000329
  H      1.926170    1.011236    0.902287

 Total Charge           Charge          ....    0
 Multiplicity           Mult            ....    1
 Number of Electrons    NEL             ....   48
 Basis Dimension        Dim             ....  372

ORBITAL ENERGIES
----------------

  NO   OCC          E(Eh)            E(eV)
   0   2.0000     -91.971342     -2502.6675
   1   2.0000     -20.555192      -559.3352
   2   2.0000     -11.362435      -309.1876
   3   2.0000     -11.258880      -306.3697
   4   2.0000     -11.245204      -305.9976
   5   2.0000      -8.972944      -244.1662
   6   2.0000      -6.654137      -181.0683
   7   2.0000      -6.653003      -181.0374
   8   2.0000      -6.652355      -181.0198
   9   2.0000      -1.405929       -38.2573
  10   2.0000      -1.070955       -29.1422
  11   2.0000      -1.016658       -27.6647
  12   2.0000      -0.894298       -24.3351
  13   2.0000      -0.733228       -19.9522
  14   2.0000      -0.655119       -17.8267
  15   2.0000      -0.638402       -17.3718
  16   2.0000      -0.621718       -16.9178
  17   2.0000      -0.590559       -16.0699
  18   2.0000      -0.586933       -15.9713
  19   2.0000      -0.541436       -14.7332
  20   2.0000      -0.516616       -14.0578
  21   2.0000      -0.482607       -13.1324
  22   2.0000      -0.407997       -11.1022
  23   2.0000      -0.371714       -10.1148
  24   0.0000       0.029802         0.8109
  25   0.0000       0.033433         0.9097
  26   0.0000       0.043436         1.1820
  27   0.0000       0.045890         1.2487
  28   0.0000       0.056174         1.5286

MULLIKEN ATOMIC CHARGES
-----------------------
   0 C :    0.622330
   1 O :   -0.800397
   2 C :   -0.694639
   3 H :    0.297925
   4 H :    0.328118
   5 H :    0.297452
   6 S :   -0.117874
   7 C :   -0.794814
   8 H :    0.291304
   9 H :    0.279584
  10 H :    0.291013
Sum of atomic charges:    0.0000000

LOEWDIN ATOMIC CHARGES
----------------------
   0 C :   -0.959955
   1 O :    0.390179
   2 C :    0.494992
   3 H :   -0.178989
   4 H :   -0.211983
   5 H :   -0.180553
   6 S :    1.177985
   7 C :    0.213359
   8 H :   -0.244305
   9 H :   -0.257175
  10 H :   -0.243554

  Mayer bond orders larger than 0.100000
B(  0-C ,  1-O ) :   1.4668 B(  0-C ,  2-C ) :   0.6169 B(  0-C ,  6-S ) :   1.0058
B(  1-O ,  2-C ) :  -0.1070 B(  2-C ,  3-H ) :   0.9476 B(  2-C ,  4-H ) :   0.9268
B(  2-C ,  5-H ) :   0.9568 B(  6-S ,  7-C ) :   0.9833 B(  7-C ,  8-H ) :   0.9114
B(  7-C ,  9-H ) :   0.9580 B(  7-C , 10-H ) :   0.9122

MP2 TOTAL ENERGY:     -590.521202868 Eh
FINAL SINGLE POINT ENERGY      -590.521202867987

DIPOLE MOMENT
-------------
                                X             Y             Z
Electronic contribution:      0.54995      -0.76782      -0.05701
Nuclear contribution   :     -0.50830       0.17585       0.06826
                        -----------------------------------------
Total Dipole Moment    :      0.04165      -0.59197       0.01125
                        -----------------------------------------
Magnitude (a.u.)       :      0.59354
Magnitude (Debye)      :      1.50866

Rotational constants in cm-1:     0.246459     0.102862     0.074604
Rotational constants in MHz :  7388.659067  3083.730318  2236.575121

                             ****ORCA TERMINATED NORMALLY****
TOTAL RUN TIME: 0 days 0 hours 0 minutes 51 seconds 566 msec
