                         Program Version 4.2.1 -  RELEASE  -
|  1> %pal
|  2>  nprocs 32
|  3> end
|  4> !RI-MP2 aug-cc-pVTZ aug-cc-pVTZ/C TightSCF
|  5> %maxcore 4500
|  6> *xyzfile 1 1  10_13P.xyz
|  7>
|  8>
|  9>                          ****END OF INPUT****

CARTESIAN COORDINATES (ANGSTROEM)
---------------------------------
  C      2.106373   -0.634399    0.030209
  N      0.667642   -0.962052    0.037757
  N     -0.012813    0.061324   -0.065908
  C     -1.443058    0.022946   -0.036748
  C     -2.148612    1.216195    0.074128
  C     -2.088758   -1.208625   -0.109877
  C     -3.532315    1.169528    0.117054
  H     -1.644162    2.169931    0.141074
  C     -3.469094   -1.234515   -0.072327
  H     -1.514136   -2.119587   -0.200235
  C     -4.190511   -0.049842    0.042063
  H     -4.095105    2.088962    0.209079
  H     -3.987225   -2.182418   -0.134926
  H     -5.272350   -0.079584    0.070876
  C      2.542164   -0.747294    1.496989
  H      2.041880   -0.017792    2.136534
  H      2.326738   -1.745047    1.878483
  H      3.617423   -0.581378    1.561692
  C      2.829123   -1.655433   -0.836081
  H      2.435638   -1.661898   -1.853551
  H      3.888773   -1.398782   -0.881692
  H      2.738160   -2.657968   -0.418425
  C      2.149141    0.803404   -0.543853
  C      0.767239    1.332703   -0.192370
  C      3.291468    1.689296   -0.072411
  H      4.254824    1.239757   -0.316309
  H      3.253358    2.659808   -0.568915
  H      3.257370    1.860732    1.004454
  H      0.310181    1.958863   -0.954025
  H      0.722816    1.839701    0.774279
  H      2.203056    0.708017   -1.632001

 Total Charge           Charge          ....    1
 Multiplicity           Mult            ....    1
 Number of Electrons    NEL             ....  102
 Basis Dimension        Dim             .... 1035

ORBITAL ENERGIES
----------------

  NO   OCC          E(Eh)            E(eV)
   0   2.0000     -15.893161      -432.4749
   1   2.0000     -15.835907      -430.9169
   2   2.0000     -11.448416      -311.5272
   3   2.0000     -11.438268      -311.2511
   4   2.0000     -11.436307      -311.1977
   5   2.0000     -11.396745      -310.1212
   6   2.0000     -11.393324      -310.0281
   7   2.0000     -11.385988      -309.8285
   8   2.0000     -11.375806      -309.5514
   9   2.0000     -11.372844      -309.4708
  10   2.0000     -11.371951      -309.4465
  11   2.0000     -11.366944      -309.3103
  12   2.0000     -11.359249      -309.1009
  13   2.0000     -11.357798      -309.0614
  14   2.0000      -1.624647       -44.2089
  15   2.0000      -1.337798       -36.4033
  16   2.0000      -1.282179       -34.8899
  17   2.0000      -1.262836       -34.3635
  18   2.0000      -1.185146       -32.2495
  19   2.0000      -1.169258       -31.8171
  20   2.0000      -1.128189       -30.6996
  21   2.0000      -1.090814       -29.6826
  22   2.0000      -1.081714       -29.4349
  23   2.0000      -0.993777       -27.0420
  24   2.0000      -0.985921       -26.8283
  25   2.0000      -0.959221       -26.1017
  26   2.0000      -0.924349       -25.1528
  27   2.0000      -0.896311       -24.3899
  28   2.0000      -0.859938       -23.4001
  29   2.0000      -0.822135       -22.3714
  30   2.0000      -0.810262       -22.0484
  31   2.0000      -0.781389       -21.2627
  32   2.0000      -0.767713       -20.8905
  33   2.0000      -0.756661       -20.5898
  34   2.0000      -0.751211       -20.4415
  35   2.0000      -0.738007       -20.0822
  36   2.0000      -0.728578       -19.8256
  37   2.0000      -0.708263       -19.2728
  38   2.0000      -0.696383       -18.9496
  39   2.0000      -0.685176       -18.6446
  40   2.0000      -0.678391       -18.4600
  41   2.0000      -0.670416       -18.2429
  42   2.0000      -0.657807       -17.8998
  43   2.0000      -0.652332       -17.7509
  44   2.0000      -0.644703       -17.5433
  45   2.0000      -0.643311       -17.5054
  46   2.0000      -0.635696       -17.2982
  47   2.0000      -0.610695       -16.6178
  48   2.0000      -0.602091       -16.3837
  49   2.0000      -0.484349       -13.1798
  50   2.0000      -0.480598       -13.0777
  51   0.0000      -0.109578        -2.9818
  52   0.0000      -0.069204        -1.8831
  53   0.0000      -0.055930        -1.5219
  54   0.0000      -0.054520        -1.4836
  55   0.0000      -0.050920        -1.3856

MULLIKEN ATOMIC CHARGES
-----------------------
   0 C :    1.482080
   1 N :   -1.312190
   2 N :    1.208887
   3 C :    0.806566
   4 C :   -0.489344
   5 C :   -0.432973
   6 C :   -0.812378
   7 H :    0.446968
   8 C :   -0.809110
   9 H :    0.578678
  10 C :   -0.290865
  11 H :    0.427671
  12 H :    0.436938
  13 H :    0.515290
  14 C :   -1.113572
  15 H :    0.295949
  16 H :    0.254699
  17 H :    0.272102
  18 C :   -1.317156
  19 H :    0.290704
  20 H :    0.269801
  21 H :    0.252292
  22 C :   -0.001426
  23 C :   -0.769388
  24 C :   -0.939855
  25 H :    0.313596
  26 H :    0.201391
  27 H :    0.253348
  28 H :    0.379278
  29 H :    0.356211
  30 H :    0.245812
Sum of atomic charges:    1.0000000

LOEWDIN ATOMIC CHARGES
----------------------
   0 C :   -0.417954
   1 N :    0.505151
   2 N :    0.164285
   3 C :   -0.167232
   4 C :    0.239700
   5 C :    0.243472
   6 C :    0.239950
   7 H :   -0.179869
   8 C :    0.239954
   9 H :   -0.176437
  10 C :    0.243787
  11 H :   -0.164584
  12 H :   -0.163839
  13 H :   -0.160008
  14 C :    0.618808
  15 H :   -0.146416
  16 H :   -0.143332
  17 H :   -0.142624
  18 C :    0.625480
  19 H :   -0.147387
  20 H :   -0.139180
  21 H :   -0.144913
  22 C :    0.018653
  23 C :    0.309899
  24 C :    0.629472
  25 H :   -0.143155
  26 H :   -0.142829
  27 H :   -0.158591
  28 H :   -0.114817
  29 H :   -0.105107
  30 H :   -0.120339

  Mayer bond orders larger than 0.100000
B(  0-C ,  1-N ) :   0.7540 B(  0-C , 14-C ) :   0.3370 B(  0-C , 18-C ) :   0.1548
B(  0-C , 19-H ) :  -0.1369 B(  0-C , 20-H ) :  -0.1035 B(  0-C , 21-H ) :  -0.1407
B(  0-C , 22-C ) :   1.0323 B(  1-N ,  2-N ) :  -0.2554 B(  1-N ,  3-C ) :  -0.1060
B(  1-N ,  4-C ) :   0.2336 B(  1-N ,  5-C ) :   0.1996 B(  1-N ,  9-H ) :  -0.2280
B(  1-N , 10-C ) :   0.1016 B(  1-N , 16-H ) :  -0.1071 B(  2-N ,  3-C ) :   0.6737
B(  2-N ,  4-C ) :  -0.9245 B(  2-N ,  5-C ) :  -0.7364 B(  2-N ,  7-H ) :   0.1190
B(  2-N ,  9-H ) :   0.1724 B(  2-N , 10-C ) :  -0.1576 B(  2-N , 23-C ) :   0.8141
B(  3-C ,  4-C ) :   0.8427 B(  3-C ,  5-C ) :   0.6213 B(  3-C ,  6-C ) :  -0.3031
B(  3-C ,  7-H ) :  -0.2638 B(  3-C ,  8-C ) :  -0.3401 B(  3-C ,  9-H ) :  -0.1424
B(  3-C , 23-C ) :  -0.1552 B(  4-C ,  6-C ) :   1.3495 B(  4-C ,  7-H ) :   0.7244
B(  4-C , 10-C ) :   0.1776 B(  5-C ,  8-C ) :   1.3493 B(  5-C ,  9-H ) :   0.7091
B(  5-C , 23-C ) :   0.1180 B(  6-C , 10-C ) :   1.0917 B(  6-C , 11-H ) :   0.8484
B(  8-C , 10-C ) :   1.1278 B(  8-C , 12-H ) :   0.8653 B( 10-C , 13-H ) :   0.7144
B( 14-C , 15-H ) :   1.0051 B( 14-C , 16-H ) :   1.0553 B( 14-C , 17-H ) :   1.0354
B( 18-C , 19-H ) :   1.0395 B( 18-C , 20-H ) :   1.0454 B( 18-C , 21-H ) :   1.1184
B( 22-C , 23-C ) :   1.0854 B( 22-C , 24-C ) :   0.5984 B( 22-C , 30-H ) :   0.9358
B( 23-C , 28-H ) :   0.9015 B( 23-C , 29-H ) :   0.8729 B( 24-C , 25-H ) :   0.9766
B( 24-C , 26-H ) :   1.0766 B( 24-C , 27-H ) :   1.0179

MP2 TOTAL ENERGY:     -575.566477691 Eh
FINAL SINGLE POINT ENERGY      -575.566477691278

DIPOLE MOMENT
-------------
                                X             Y             Z
Electronic contribution:    -14.27414      -1.56444      -0.89628
Nuclear contribution   :     14.86062       2.12165       0.83416
                        -----------------------------------------
Total Dipole Moment    :      0.58648       0.55721      -0.06212
                        -----------------------------------------
Magnitude (a.u.)       :      0.81136
Magnitude (Debye)      :      2.06232

Rotational constants in cm-1:     0.055204     0.013103     0.011464
Rotational constants in MHz :  1654.971606   392.817556   343.696024

                             ****ORCA TERMINATED NORMALLY****
TOTAL RUN TIME: 0 days 0 hours 24 minutes 16 seconds 346 msec
