                         Program Version 4.2.1 -  RELEASE  -
|  1> %pal
|  2>  nprocs 32
|  3> end
|  4> !RI-MP2 aug-cc-pVTZ aug-cc-pVTZ/C TightSCF
|  5> %maxcore 4500
|  6> *xyzfile 0 1  06_4R1.xyz
|  7>
|  8>
|  9>                          ****END OF INPUT****

CARTESIAN COORDINATES (ANGSTROEM)
---------------------------------
  C      0.009810   -1.233927    0.000056
  C      1.264980   -0.712711    0.000056
  C      1.264980    0.712711    0.000002
  C      0.009810    1.233927   -0.000061
  H      2.160727    1.317889   -0.000002
  H      2.160727   -1.317889    0.000102
  H     -0.280933   -2.272534    0.000097
  S     -1.191067    0.000000   -0.000025
  H     -0.280934    2.272534   -0.000118

 Total Charge           Charge          ....    0
 Multiplicity           Mult            ....    1
 Number of Electrons    NEL             ....   44
 Basis Dimension        Dim             ....  326

ORBITAL ENERGIES
----------------

  NO   OCC          E(Eh)            E(eV)
   0   2.0000     -91.984037     -2503.0129
   1   2.0000     -11.261799      -306.4491
   2   2.0000     -11.261769      -306.4483
   3   2.0000     -11.238599      -305.8178
   4   2.0000     -11.237580      -305.7901
   5   2.0000      -8.984451      -244.4793
   6   2.0000      -6.665449      -181.3761
   7   2.0000      -6.664950      -181.3625
   8   2.0000      -6.664215      -181.3425
   9   2.0000      -1.172835       -31.9145
  10   2.0000      -0.986404       -26.8414
  11   2.0000      -0.984442       -26.7880
  12   2.0000      -0.767901       -20.8957
  13   2.0000      -0.750672       -20.4268
  14   2.0000      -0.698783       -19.0149
  15   2.0000      -0.577968       -15.7273
  16   2.0000      -0.551536       -15.0080
  17   2.0000      -0.527110       -14.3434
  18   2.0000      -0.524252       -14.2656
  19   2.0000      -0.474463       -12.9108
  20   2.0000      -0.346626        -9.4322
  21   2.0000      -0.330087        -8.9821
  22   0.0000       0.029967         0.8154
  23   0.0000       0.034597         0.9414
  24   0.0000       0.039350         1.0708
  25   0.0000       0.049972         1.3598
  26   0.0000       0.072551         1.9742

MULLIKEN ATOMIC CHARGES
-----------------------
   0 C :   -0.319710
   1 C :   -0.585591
   2 C :   -0.585591
   3 C :   -0.319709
   4 H :    0.478021
   5 H :    0.478021
   6 H :    0.494180
   7 S :   -0.133800
   8 H :    0.494180
Sum of atomic charges:    0.0000000

LOEWDIN ATOMIC CHARGES
----------------------
   0 C :   -0.207428
   1 C :    0.057197
   2 C :    0.057197
   3 C :   -0.207428
   4 H :   -0.196592
   5 H :   -0.196592
   6 H :   -0.263673
   7 S :    1.220992
   8 H :   -0.263673

  Mayer bond orders larger than 0.100000
B(  0-C ,  1-C ) :   1.4304 B(  0-C ,  3-C ) :   0.1096 B(  0-C ,  6-H ) :   0.7800
B(  0-C ,  7-S ) :   1.1854 B(  1-C ,  2-C ) :   1.3422 B(  1-C ,  5-H ) :   0.8264
B(  2-C ,  3-C ) :   1.4304 B(  2-C ,  4-H ) :   0.8264 B(  3-C ,  7-S ) :   1.1854
B(  3-C ,  8-H ) :   0.7800

MP2 TOTAL ENERGY:     -552.207278390 Eh
FINAL SINGLE POINT ENERGY      -552.207278389542

DIPOLE MOMENT
-------------
                                X             Y             Z
Electronic contribution:     -3.42285       0.00000      -0.00007
Nuclear contribution   :      3.72862      -0.00000       0.00008
                        -----------------------------------------
Total Dipole Moment    :      0.30577       0.00000       0.00001
                        -----------------------------------------
Magnitude (a.u.)       :      0.30577
Magnitude (Debye)      :      0.77722

Rotational constants in cm-1:     0.268903     0.180633     0.108051
Rotational constants in MHz :  8061.517765  5415.239278  3239.284310

                             ****ORCA TERMINATED NORMALLY****
TOTAL RUN TIME: 0 days 0 hours 0 minutes 40 seconds 632 msec
