                         Program Version 4.2.1 -  RELEASE  -
|  1> %pal
|  2>  nprocs 32
|  3> end
|  4> !RI-MP2 aug-cc-pVTZ aug-cc-pVTZ/C TightSCF
|  5> %maxcore 4500
|  6> *xyzfile 0 2  04_71R2.xyz
|  7>
|  8>
|  9>                          ****END OF INPUT****

CARTESIAN COORDINATES (ANGSTROEM)
---------------------------------
  O     -1.958174    0.000003   -0.194247
  O     -0.830273    0.000041   -0.842925
  C      0.360909   -0.000003    0.045517
  C      1.511248    0.000045   -0.942592
  C      0.316802   -1.262572    0.887085
  C      0.316793    1.262493    0.887196
  H      0.308910    2.149779    0.251873
  H      1.197086    1.305769    1.531049
  H     -0.574285    1.271360    1.514310
  H      0.308926   -2.149803    0.251684
  H     -0.574275   -1.271502    1.514199
  H      1.197097   -1.305896    1.530933
  H      1.474756   -0.885946   -1.578130
  H      2.460100    0.000027   -0.403721
  H      1.474748    0.886089   -1.578056

 Total Charge           Charge          ....    0
 Multiplicity           Mult            ....    2
 Number of Electrons    NEL             ....   49
 Basis Dimension        Dim             ....  483

ORBITAL ENERGIES
----------------
                 SPIN UP ORBITALS
  NO   OCC          E(Eh)            E(eV)
   0   1.0000     -20.660447      -562.1993
   1   1.0000     -20.647389      -561.8440
   2   1.0000     -11.303101      -307.5730
   3   1.0000     -11.226834      -305.4977
   4   1.0000     -11.224068      -305.4224
   5   1.0000     -11.224054      -305.4220
   6   1.0000      -1.567512       -42.6542
   7   1.0000      -1.208952       -32.8973
   8   1.0000      -1.065470       -28.9929
   9   1.0000      -0.955051       -25.9882
  10   1.0000      -0.953967       -25.9588
  11   1.0000      -0.788114       -21.4457
  12   1.0000      -0.746421       -20.3111
  13   1.0000      -0.686755       -18.6876
  14   1.0000      -0.680934       -18.5291
  15   1.0000      -0.622488       -16.9388
  16   1.0000      -0.601151       -16.3581
  17   1.0000      -0.571295       -15.5457
  18   1.0000      -0.553780       -15.0691
  19   1.0000      -0.549493       -14.9525
  20   1.0000      -0.529110       -14.3978
  21   1.0000      -0.514265       -13.9939
  22   1.0000      -0.493217       -13.4211
  23   1.0000      -0.463153       -12.6030
  24   1.0000      -0.459238       -12.4965
  25   0.0000       0.028136         0.7656
  26   0.0000       0.036470         0.9924
  27   0.0000       0.036679         0.9981
  28   0.0000       0.044655         1.2151
  29   0.0000       0.058636         1.5956

                 SPIN DOWN ORBITALS
  NO   OCC          E(Eh)            E(eV)
   0   1.0000     -20.636997      -561.5612
   1   1.0000     -20.621283      -561.1336
   2   1.0000     -11.303825      -307.5927
   3   1.0000     -11.226861      -305.4984
   4   1.0000     -11.223908      -305.4181
   5   1.0000     -11.223894      -305.4177
   6   1.0000      -1.504409       -40.9371
   7   1.0000      -1.147683       -31.2300
   8   1.0000      -1.027252       -27.9530
   9   1.0000      -0.953482       -25.9456
  10   1.0000      -0.952389       -25.9158
  11   1.0000      -0.775727       -21.1086
  12   1.0000      -0.678590       -18.4654
  13   1.0000      -0.662440       -18.0259
  14   1.0000      -0.635774       -17.3003
  15   1.0000      -0.597619       -16.2620
  16   1.0000      -0.574325       -15.6282
  17   1.0000      -0.561939       -15.2911
  18   1.0000      -0.547972       -14.9111
  19   1.0000      -0.528864       -14.3911
  20   1.0000      -0.523371       -14.2417
  21   1.0000      -0.489803       -13.3282
  22   1.0000      -0.469911       -12.7869
  23   1.0000      -0.436072       -11.8661
  24   0.0000       0.028155         0.7661
  25   0.0000       0.036481         0.9927
  26   0.0000       0.036713         0.9990
  27   0.0000       0.044709         1.2166
  28   0.0000       0.058602         1.5947

MULLIKEN ATOMIC CHARGES AND SPIN POPULATIONS
--------------------------------------------
   0 O :   -0.295441    0.935415
   1 O :   -0.422814    0.084919
   2 C :    1.505206   -0.010185
   3 C :   -1.064329    0.005196
   4 C :   -1.149878   -0.001821
   5 C :   -1.149875   -0.001821
   6 H :    0.263724   -0.002613
   7 H :    0.277623   -0.000210
   8 H :    0.318593   -0.002205
   9 H :    0.263727   -0.002613
  10 H :    0.318592   -0.002205
  11 H :    0.277621   -0.000210
  12 H :    0.278418   -0.000268
  13 H :    0.300417   -0.001108
  14 H :    0.278415   -0.000268
Sum of atomic charges         :   -0.0000000

LOEWDIN ATOMIC CHARGES AND SPIN POPULATIONS
-------------------------------------------
   0 O :    0.198122    0.796407
   1 O :    0.190300    0.221593
   2 C :   -0.620215   -0.010940
   3 C :    0.572066   -0.003006
   4 C :    0.567797   -0.000534
   5 C :    0.567796   -0.000533
   6 H :   -0.160517   -0.000534
   7 H :   -0.158296   -0.000138
   8 H :   -0.179348   -0.000262
   9 H :   -0.160517   -0.000534
  10 H :   -0.179347   -0.000262
  11 H :   -0.158295   -0.000138
  12 H :   -0.161547   -0.000135
  13 H :   -0.156452   -0.000848
  14 H :   -0.161547   -0.000135

  Mayer bond orders larger than 0.100000
B(  0-O ,  1-O ) :   0.9016 B(  1-O ,  2-C ) :   0.2336 B(  1-O ,  4-C ) :   0.1171
B(  1-O ,  5-C ) :   0.1171 B(  2-C ,  3-C ) :   0.5193 B(  2-C ,  4-C ) :   0.6844
B(  2-C ,  5-C ) :   0.6844 B(  3-C , 12-H ) :   1.0003 B(  3-C , 13-H ) :   0.9668
B(  3-C , 14-H ) :   1.0003 B(  4-C ,  5-C ) :   0.1126 B(  4-C ,  9-H ) :   0.9953
B(  4-C , 10-H ) :   0.9554 B(  4-C , 11-H ) :   0.9626 B(  5-C ,  6-H ) :   0.9953
B(  5-C ,  7-H ) :   0.9626 B(  5-C ,  8-H ) :   0.9554

MP2 TOTAL ENERGY:     -307.601326060 Eh
FINAL SINGLE POINT ENERGY      -307.601326060025

DIPOLE MOMENT
-------------
                                X             Y             Z
Electronic contribution:     -6.51167       0.00011      -2.66930
Nuclear contribution   :      7.46530      -0.00013       3.11639
                        -----------------------------------------
Total Dipole Moment    :      0.95363      -0.00002       0.44709
                        -----------------------------------------
Magnitude (a.u.)       :      1.05324
Magnitude (Debye)      :      2.67711

Rotational constants in cm-1:     0.150723     0.097163     0.097124
Rotational constants in MHz :  4518.576373  2912.883286  2911.699972

                             ****ORCA TERMINATED NORMALLY****
TOTAL RUN TIME: 0 days 0 hours 3 minutes 36 seconds 387 msec
