                         Program Version 4.2.1 -  RELEASE  -
|  1> %pal
|  2>  nprocs 32
|  3> end
|  4> !RI-MP2 aug-cc-pVTZ aug-cc-pVTZ/C TightSCF
|  5> %maxcore 4500
|  6> *xyzfile 0 1  02_47P.xyz
|  7>
|  8>
|  9>                          ****END OF INPUT****

CARTESIAN COORDINATES (ANGSTROEM)
---------------------------------
  C      0.000000    1.238605   -0.863995
  C      0.000000   -1.238605   -0.863995
  N      1.189660    0.610245   -1.546219
  N      1.189660   -0.610245   -1.546219
  C      0.000000   -2.726612   -1.060807
  H     -0.890185   -3.168264   -0.612386
  H      0.000000   -2.952981   -2.126646
  H      0.890185   -3.168264   -0.612386
  C      0.000000    2.726612   -1.060807
  H      0.000000    2.952981   -2.126646
  H     -0.890185    3.168264   -0.612386
  H      0.890185    3.168264   -0.612386
  C      0.000000    0.695711    2.913540
  C      0.000000    1.403642    1.718513
  C      0.000000    0.693294    0.530016
  C      0.000000   -0.693294    0.530016
  C      0.000000   -1.403642    1.718513
  C      0.000000   -0.695711    2.913540
  H      0.000000    1.232540    3.854069
  H      0.000000    2.486146    1.720811
  H      0.000000   -2.486146    1.720811
  H      0.000000   -1.232540    3.854069
  N     -1.189660    0.610245   -1.546219
  N     -1.189660   -0.610245   -1.546219

 Total Charge           Charge          ....    0
 Multiplicity           Mult            ....    1
 Number of Electrons    NEL             ....   98
 Basis Dimension        Dim             ....  874

ORBITAL ENERGIES
----------------

  NO   OCC          E(Eh)            E(eV)
   0   2.0000     -15.642157      -425.6447
   1   2.0000     -15.642139      -425.6442
   2   2.0000     -15.640604      -425.6025
   3   2.0000     -15.640603      -425.6024
   4   2.0000     -11.319464      -308.0183
   5   2.0000     -11.319436      -308.0175
   6   2.0000     -11.260060      -306.4018
   7   2.0000     -11.258806      -306.3677
   8   2.0000     -11.255732      -306.2840
   9   2.0000     -11.255684      -306.2827
  10   2.0000     -11.251938      -306.1808
  11   2.0000     -11.250721      -306.1477
  12   2.0000     -11.234986      -305.7195
  13   2.0000     -11.234985      -305.7195
  14   2.0000      -1.440901       -39.2089
  15   2.0000      -1.358427       -36.9647
  16   2.0000      -1.187953       -32.3259
  17   2.0000      -1.149498       -31.2794
  18   2.0000      -1.089221       -29.6392
  19   2.0000      -1.033983       -28.1361
  20   2.0000      -1.015293       -27.6275
  21   2.0000      -0.936264       -25.4771
  22   2.0000      -0.909991       -24.7621
  23   2.0000      -0.901406       -24.5285
  24   2.0000      -0.850820       -23.1520
  25   2.0000      -0.824661       -22.4402
  26   2.0000      -0.741017       -20.1641
  27   2.0000      -0.740771       -20.1574
  28   2.0000      -0.704068       -19.1587
  29   2.0000      -0.686884       -18.6911
  30   2.0000      -0.643351       -17.5065
  31   2.0000      -0.632077       -17.1997
  32   2.0000      -0.629357       -17.1257
  33   2.0000      -0.594713       -16.1830
  34   2.0000      -0.586256       -15.9528
  35   2.0000      -0.572972       -15.5914
  36   2.0000      -0.559546       -15.2260
  37   2.0000      -0.558449       -15.1962
  38   2.0000      -0.550432       -14.9780
  39   2.0000      -0.536248       -14.5921
  40   2.0000      -0.532591       -14.4925
  41   2.0000      -0.528486       -14.3808
  42   2.0000      -0.524593       -14.2749
  43   2.0000      -0.492589       -13.4040
  44   2.0000      -0.478109       -13.0100
  45   2.0000      -0.423232       -11.5167
  46   2.0000      -0.389598       -10.6015
  47   2.0000      -0.349927        -9.5220
  48   2.0000      -0.337303        -9.1785
  49   0.0000       0.023427         0.6375
  50   0.0000       0.027031         0.7356
  51   0.0000       0.034833         0.9478
  52   0.0000       0.040152         1.0926
  53   0.0000       0.045037         1.2255

MULLIKEN ATOMIC CHARGES
-----------------------
   0 C :    1.628651
   1 C :    1.628231
   2 N :   -0.553150
   3 N :   -0.553150
   4 C :   -1.270957
   5 H :    0.311899
   6 H :    0.216604
   7 H :    0.311874
   8 C :   -1.270976
   9 H :    0.216611
  10 H :    0.311889
  11 H :    0.311884
  12 C :   -0.415438
  13 C :   -0.773910
  14 C :    0.569713
  15 C :    0.570143
  16 C :   -0.773867
  17 C :   -0.415281
  18 H :    0.516437
  19 H :    0.011421
  20 H :    0.011334
  21 H :    0.516348
  22 N :   -0.553202
  23 N :   -0.553106
Sum of atomic charges:   -0.0000000

LOEWDIN ATOMIC CHARGES
----------------------
   0 C :   -0.606054
   1 C :   -0.606054
   2 N :    0.261637
   3 N :    0.261637
   4 C :    0.576670
   5 H :   -0.158295
   6 H :   -0.159556
   7 H :   -0.158295
   8 C :    0.576670
   9 H :   -0.159556
  10 H :   -0.158295
  11 H :   -0.158295
  12 C :    0.215910
  13 C :    0.246915
  14 C :   -0.126733
  15 C :   -0.126733
  16 C :    0.246915
  17 C :    0.215910
  18 H :   -0.180077
  19 H :   -0.173758
  20 H :   -0.173758
  21 H :   -0.180077
  22 N :    0.261637
  23 N :    0.261637

  Mayer bond orders larger than 0.100000
B(  0-C ,  2-N ) :   0.4968 B(  0-C ,  3-N ) :   0.2809 B(  0-C ,  8-C ) :  -0.1991
B(  0-C ,  9-H ) :  -0.2803 B(  0-C , 10-H ) :  -0.1588 B(  0-C , 11-H ) :  -0.1587
B(  0-C , 13-C ) :   0.1833 B(  0-C , 14-C ) :   0.6216 B(  0-C , 15-C ) :   0.1579
B(  0-C , 22-N ) :   0.4970 B(  0-C , 23-N ) :   0.2808 B(  1-C ,  2-N ) :   0.2809
B(  1-C ,  3-N ) :   0.4972 B(  1-C ,  4-C ) :  -0.1990 B(  1-C ,  5-H ) :  -0.1588
B(  1-C ,  6-H ) :  -0.2803 B(  1-C ,  7-H ) :  -0.1588 B(  1-C , 14-C ) :   0.1580
B(  1-C , 15-C ) :   0.6219 B(  1-C , 16-C ) :   0.1831 B(  1-C , 22-N ) :   0.2808
B(  1-C , 23-N ) :   0.4973 B(  2-N ,  3-N ) :   0.1380 B(  2-N , 14-C ) :   0.2910
B(  2-N , 15-C ) :  -0.1969 B(  2-N , 22-N ) :   0.1237 B(  3-N , 14-C ) :  -0.1969
B(  3-N , 15-C ) :   0.2908 B(  3-N , 23-N ) :   0.1236 B(  4-C ,  5-H ) :   1.0713
B(  4-C ,  6-H ) :   1.1617 B(  4-C ,  7-H ) :   1.0713 B(  6-H , 15-C ) :   0.1115
B(  8-C ,  9-H ) :   1.1617 B(  8-C , 10-H ) :   1.0713 B(  8-C , 11-H ) :   1.0713
B(  9-H , 14-C ) :   0.1114 B( 12-C , 13-C ) :   0.9453 B( 12-C , 15-C ) :   0.3247
B( 12-C , 16-C ) :  -0.1138 B( 12-C , 17-C ) :   1.0312 B( 12-C , 18-H ) :   0.7434
B( 12-C , 19-H ) :  -0.1659 B( 13-C , 17-C ) :  -0.1139 B( 13-C , 18-H ) :  -0.1316
B( 13-C , 19-H ) :   1.6880 B( 14-C , 15-C ) :  -0.1989 B( 14-C , 17-C ) :   0.3249
B( 14-C , 19-H ) :  -0.1852 B( 14-C , 22-N ) :   0.2909 B( 14-C , 23-N ) :  -0.1968
B( 15-C , 20-H ) :  -0.1852 B( 15-C , 22-N ) :  -0.1968 B( 15-C , 23-N ) :   0.2907
B( 16-C , 17-C ) :   0.9451 B( 16-C , 20-H ) :   1.6880 B( 16-C , 21-H ) :  -0.1316
B( 17-C , 20-H ) :  -0.1660 B( 17-C , 21-H ) :   0.7436 B( 22-N , 23-N ) :   0.1379

MP2 TOTAL ENERGY:     -604.852364326 Eh
FINAL SINGLE POINT ENERGY      -604.852364325871

DIPOLE MOMENT
-------------
                                X             Y             Z
Electronic contribution:     -0.00000      -0.00000      -3.05472
Nuclear contribution   :      0.00000       0.00000       4.35930
                        -----------------------------------------
Total Dipole Moment    :     -0.00000      -0.00000       1.30458
                        -----------------------------------------
Magnitude (a.u.)       :      1.30458
Magnitude (Debye)      :      3.31597

Rotational constants in cm-1:     0.036419     0.028599     0.018998
Rotational constants in MHz :  1091.824796   857.365498   569.537747

                             ****ORCA TERMINATED NORMALLY****
TOTAL RUN TIME: 0 days 0 hours 17 minutes 19 seconds 411 msec
