                         Program Version 4.2.1 -  RELEASE  -
|  1> %pal
|  2>  nprocs 32
|  3> end
|  4> !RI-MP2 aug-cc-pVTZ aug-cc-pVTZ/C TightSCF
|  5> %maxcore 4500
|  6> *xyzfile 0 1  08_5R1.xyz
|  7>
|  8>
|  9>                          ****END OF INPUT****

CARTESIAN COORDINATES (ANGSTROEM)
---------------------------------
  C      1.053369    0.025775   -0.018733
  O      1.602966    0.671160   -0.865082
  O      1.605813   -1.041885    0.574795
  C     -0.334709    0.308851    0.524242
  C     -0.771112    1.732747    0.277637
  H     -0.100041    2.416920    0.801536
  H     -1.784704    1.883742    0.646979
  H     -0.734227    1.965857   -0.785285
  Cl    -1.461431   -0.856055   -0.281308
  H      2.467970   -1.196513    0.163433
  H     -0.360202    0.044498    1.578997

 Total Charge           Charge          ....    0
 Multiplicity           Mult            ....    1
 Number of Electrons    NEL             ....   56
 Basis Dimension        Dim             ....  395

ORBITAL ENERGIES
----------------

  NO   OCC          E(Eh)            E(eV)
   0   2.0000    -104.841118     -2852.8719
   1   2.0000     -20.627795      -561.3109
   2   2.0000     -20.566763      -559.6501
   3   2.0000     -11.403222      -310.2974
   4   2.0000     -11.325563      -308.1842
   5   2.0000     -11.241393      -305.8939
   6   2.0000     -10.565155      -287.4925
   7   2.0000      -8.031946      -218.5604
   8   2.0000      -8.030073      -218.5094
   9   2.0000      -8.030020      -218.5080
  10   2.0000      -1.486405       -40.4471
  11   2.0000      -1.382919       -37.6311
  12   2.0000      -1.163193       -31.6521
  13   2.0000      -1.025382       -27.9021
  14   2.0000      -0.931661       -25.3518
  15   2.0000      -0.804357       -21.8877
  16   2.0000      -0.729112       -19.8401
  17   2.0000      -0.713821       -19.4241
  18   2.0000      -0.662226       -18.0201
  19   2.0000      -0.623347       -16.9621
  20   2.0000      -0.613702       -16.6997
  21   2.0000      -0.571295       -15.5457
  22   2.0000      -0.549184       -14.9441
  23   2.0000      -0.524645       -14.2763
  24   2.0000      -0.499628       -13.5956
  25   2.0000      -0.487076       -13.2540
  26   2.0000      -0.449597       -12.2342
  27   2.0000      -0.442308       -12.0358
  28   0.0000       0.026914         0.7324
  29   0.0000       0.033873         0.9217
  30   0.0000       0.043159         1.1744
  31   0.0000       0.047731         1.2988
  32   0.0000       0.060524         1.6469

MULLIKEN ATOMIC CHARGES
-----------------------
   0 C :    0.610894
   1 O :   -0.735817
   2 O :   -0.394995
   3 C :    0.353900
   4 C :   -0.873403
   5 H :    0.287287
   6 H :    0.310539
   7 H :    0.309350
   8 Cl:   -0.378377
   9 H :    0.234989
  10 H :    0.275634
Sum of atomic charges:   -0.0000000

LOEWDIN ATOMIC CHARGES
----------------------
   0 C :   -0.905532
   1 O :    0.463360
   2 O :    0.827410
   3 C :   -0.593161
   4 C :    0.486424
   5 H :   -0.165624
   6 H :   -0.181570
   7 H :   -0.182559
   8 Cl:    0.947283
   9 H :   -0.462034
  10 H :   -0.233996

  Mayer bond orders larger than 0.100000
B(  0-C ,  1-O ) :   1.4507 B(  0-C ,  2-O ) :   0.9895 B(  0-C ,  3-C ) :   0.7229
B(  2-O ,  9-H ) :   0.9577 B(  3-C ,  4-C ) :   0.8842 B(  3-C ,  8-Cl) :   0.7463
B(  3-C , 10-H ) :   0.9449 B(  4-C ,  5-H ) :   0.9172 B(  4-C ,  6-H ) :   0.9457
B(  4-C ,  7-H ) :   0.9403

MP2 TOTAL ENERGY:     -727.065289358 Eh
FINAL SINGLE POINT ENERGY      -727.065289358183

DIPOLE MOMENT
-------------
                                X             Y             Z
Electronic contribution:     -1.39734      -5.98879      -1.93891
Nuclear contribution   :      1.57983       6.13776       2.71695
                        -----------------------------------------
Total Dipole Moment    :      0.18250       0.14897       0.77804
                        -----------------------------------------
Magnitude (a.u.)       :      0.81292
Magnitude (Debye)      :      2.06628

Rotational constants in cm-1:     0.130068     0.076839     0.057700
Rotational constants in MHz :  3899.353956  2303.575276  1729.813928

                             ****ORCA TERMINATED NORMALLY****
TOTAL RUN TIME: 0 days 0 hours 0 minutes 57 seconds 263 msec
