                         Program Version 4.2.1 -  RELEASE  -
|  1> %pal
|  2>  nprocs 32
|  3> end
|  4> !RI-MP2 aug-cc-pVTZ aug-cc-pVTZ/C TightSCF
|  5> %maxcore 4500
|  6> *xyzfile 0 1  10_44P.xyz
|  7>
|  8>
|  9>                          ****END OF INPUT****

CARTESIAN COORDINATES (ANGSTROEM)
---------------------------------
  C      0.321519   -2.549670    0.399329
  H      0.265980   -3.481021   -0.173753
  H      0.428913   -2.849216    1.463297
  C     -0.963722   -1.797296    0.240716
  C      0.284683    0.286311   -0.170231
  H      0.506455    0.474981   -1.225572
  H      0.178544    1.260968    0.304854
  C      1.467662   -0.446564    0.459517
  H      1.304076   -0.471247    1.555566
  N      1.477868   -1.807378   -0.059271
  C     -2.302916    0.209790   -0.163228
  C     -2.242955   -2.562230    0.450574
  C     -3.399141   -0.537206   -0.363708
  C     -3.348690   -2.039869   -0.459323
  C     -0.998406   -0.488634   -0.029731
  C     -4.696088   -2.685401   -0.156135
  H     -4.647096   -3.771087   -0.267639
  H     -5.008811   -2.466012    0.868490
  H     -5.472153   -2.314054   -0.829705
  C      2.777110    0.278834    0.214741
  C      2.716633   -2.512301    0.201136
  H      2.593151   -3.551463   -0.111984
  H      2.956642   -2.523161    1.280585
  C      3.840346   -1.857021   -0.577963
  H      3.668977   -2.019111   -1.646484
  C      3.898023   -0.380690   -0.288277
  H      4.797772   -2.320979   -0.327159
  C      5.076113    0.334099   -0.497733
  H      5.943827   -0.187671   -0.887714
  C      2.875073    1.635794    0.523906
  H      2.020006    2.153822    0.941939
  C      5.157744    1.684587   -0.208256
  H      6.082459    2.223220   -0.376714
  C      4.048916    2.338314    0.314256
  H      4.100271    3.392022    0.560526
  Si    -2.493790    2.082456   -0.033313
  C     -1.909997    2.673609    1.655770
  H     -0.855337    2.460077    1.840245
  H     -2.049749    3.753559    1.754705
  H     -2.485525    2.189273    2.448500
  C     -1.546977    2.977583   -1.389834
  H     -0.466074    2.858686   -1.303920
  H     -1.843632    2.608370   -2.374736
  H     -1.766602    4.048439   -1.357689
  C     -4.309762    2.530885   -0.207636
  H     -4.924533    2.064007    0.565029
  H     -4.428395    3.613597   -0.112820
  H     -4.711529    2.242120   -1.181577
  H     -3.072708   -2.286339   -1.496427
  H     -2.559721   -2.459285    1.499196
  H     -2.086224   -3.630498    0.276495
  H     -4.372010   -0.072280   -0.491591

 Total Charge           Charge          ....    0
 Multiplicity           Mult            ....    1
 Number of Electrons    NEL             ....  176
 Basis Dimension        Dim             .... 1729

ORBITAL ENERGIES
----------------

  NO   OCC          E(Eh)            E(eV)
   0   2.0000     -68.748754     -1870.7487
   1   2.0000     -15.544768      -422.9947
   2   2.0000     -11.258331      -306.3548
   3   2.0000     -11.251176      -306.1601
   4   2.0000     -11.247930      -306.0717
   5   2.0000     -11.233662      -305.6835
   6   2.0000     -11.232440      -305.6502
   7   2.0000     -11.228470      -305.5422
   8   2.0000     -11.227884      -305.5262
   9   2.0000     -11.227205      -305.5078
  10   2.0000     -11.226143      -305.4789
  11   2.0000     -11.225750      -305.4682
  12   2.0000     -11.225299      -305.4559
  13   2.0000     -11.222804      -305.3880
  14   2.0000     -11.222036      -305.3671
  15   2.0000     -11.221428      -305.3506
  16   2.0000     -11.220059      -305.3133
  17   2.0000     -11.218668      -305.2755
  18   2.0000     -11.214962      -305.1746
  19   2.0000     -11.205690      -304.9223
  20   2.0000     -11.192900      -304.5743
  21   2.0000     -11.192360      -304.5596
  22   2.0000     -11.190427      -304.5070
  23   2.0000      -6.095808      -165.8754
  24   2.0000      -4.202172      -114.3469
  25   2.0000      -4.202061      -114.3439
  26   2.0000      -4.201988      -114.3419
  27   2.0000      -1.252304       -34.0769
  28   2.0000      -1.155815       -31.4513
  29   2.0000      -1.139798       -31.0155
  30   2.0000      -1.077835       -29.3294
  31   2.0000      -1.056682       -28.7538
  32   2.0000      -1.040898       -28.3243
  33   2.0000      -1.016894       -27.6711
  34   2.0000      -0.993416       -27.0322
  35   2.0000      -0.971051       -26.4236
  36   2.0000      -0.958695       -26.0874
  37   2.0000      -0.928571       -25.2677
  38   2.0000      -0.919396       -25.0180
  39   2.0000      -0.917968       -24.9792
  40   2.0000      -0.877924       -23.8895
  41   2.0000      -0.859079       -23.3767
  42   2.0000      -0.840254       -22.8645
  43   2.0000      -0.814770       -22.1710
  44   2.0000      -0.808792       -22.0084
  45   2.0000      -0.762496       -20.7486
  46   2.0000      -0.741276       -20.1711
  47   2.0000      -0.693450       -18.8697
  48   2.0000      -0.676343       -18.4042
  49   2.0000      -0.667834       -18.1727
  50   2.0000      -0.649122       -17.6635
  51   2.0000      -0.639825       -17.4105
  52   2.0000      -0.637593       -17.3498
  53   2.0000      -0.620971       -16.8975
  54   2.0000      -0.616951       -16.7881
  55   2.0000      -0.596135       -16.2217
  56   2.0000      -0.592146       -16.1131
  57   2.0000      -0.588827       -16.0228
  58   2.0000      -0.581300       -15.8180
  59   2.0000      -0.574081       -15.6215
  60   2.0000      -0.564179       -15.3521
  61   2.0000      -0.558881       -15.2079
  62   2.0000      -0.556945       -15.1552
  63   2.0000      -0.553107       -15.0508
  64   2.0000      -0.542553       -14.7636
  65   2.0000      -0.538086       -14.6421
  66   2.0000      -0.533346       -14.5131
  67   2.0000      -0.533152       -14.5078
  68   2.0000      -0.528680       -14.3861
  69   2.0000      -0.525170       -14.2906
  70   2.0000      -0.523890       -14.2558
  71   2.0000      -0.518794       -14.1171
  72   2.0000      -0.508372       -13.8335
  73   2.0000      -0.499857       -13.6018
  74   2.0000      -0.495505       -13.4834
  75   2.0000      -0.484537       -13.1849
  76   2.0000      -0.477911       -13.0046
  77   2.0000      -0.472761       -12.8645
  78   2.0000      -0.454425       -12.3655
  79   2.0000      -0.433959       -11.8086
  80   2.0000      -0.431319       -11.7368
  81   2.0000      -0.423006       -11.5106
  82   2.0000      -0.406954       -11.0738
  83   2.0000      -0.390637       -10.6298
  84   2.0000      -0.358199        -9.7471
  85   2.0000      -0.326665        -8.8890
  86   2.0000      -0.319557        -8.6956
  87   2.0000      -0.291766        -7.9394
  88   0.0000       0.023005         0.6260
  89   0.0000       0.027385         0.7452
  90   0.0000       0.027963         0.7609
  91   0.0000       0.031742         0.8637
  92   0.0000       0.035489         0.9657

MULLIKEN ATOMIC CHARGES
-----------------------
   0 C :   -0.572101
   1 H :    0.278226
   2 H :    0.268382
   3 C :    0.389177
   4 C :   -1.244107
   5 H :    0.181341
   6 H :   -0.025492
   7 C :   -0.143184
   8 H :    0.109020
   9 N :   -0.488221
  10 C :    1.492259
  11 C :   -0.581770
  12 C :   -1.614528
  13 C :    0.072658
  14 C :    0.942482
  15 C :   -1.142963
  16 H :    0.254094
  17 H :    0.255532
  18 H :    0.250064
  19 C :    1.528974
  20 C :   -0.757856
  21 H :    0.353754
  22 H :    0.231806
  23 C :   -0.511167
  24 H :    0.196405
  25 C :    1.076377
  26 H :    0.227706
  27 C :   -1.046805
  28 H :   -0.005350
  29 C :   -1.178871
  30 H :    0.500100
  31 C :   -0.392894
  32 H :    0.677057
  33 C :   -0.840239
  34 H :    0.352309
  35 Si:    2.994688
  36 C :   -1.478653
  37 H :    0.470628
  38 H :    0.152988
  39 H :    0.221888
  40 C :   -1.503845
  41 H :    0.432899
  42 H :    0.257622
  43 H :    0.144707
  44 C :   -1.926280
  45 H :    0.235863
  46 H :    0.009122
  47 H :    0.238339
  48 H :    0.258952
  49 H :    0.217924
  50 H :    0.293264
  51 H :   -0.112284
Sum of atomic charges:    0.0000000

LOEWDIN ATOMIC CHARGES
----------------------
   0 C :    0.169653
   1 H :   -0.139933
   2 H :   -0.111568
   3 C :   -0.025636
   4 C :    0.287723
   5 H :   -0.113404
   6 H :   -0.219181
   7 C :   -0.106695
   8 H :   -0.101198
   9 N :    0.316255
  10 C :   -0.029250
  11 C :    0.294028
  12 C :    0.201938
  13 C :   -0.045824
  14 C :   -0.072960
  15 C :    0.590232
  16 H :   -0.160760
  17 H :   -0.158981
  18 H :   -0.164014
  19 C :   -0.036876
  20 C :    0.166422
  21 H :   -0.136680
  22 H :   -0.114464
  23 C :    0.300608
  24 H :   -0.131594
  25 C :   -0.067153
  26 H :   -0.143199
  27 C :    0.222297
  28 H :   -0.172822
  29 C :    0.227690
  30 H :   -0.180903
  31 C :    0.198772
  32 H :   -0.183176
  33 C :    0.205087
  34 H :   -0.182648
  35 Si:    0.495915
  36 C :    0.593548
  37 H :   -0.240945
  38 H :   -0.225433
  39 H :   -0.223326
  40 C :    0.590565
  41 H :   -0.242821
  42 H :   -0.222189
  43 H :   -0.226552
  44 C :    0.573172
  45 H :   -0.224651
  46 H :   -0.225832
  47 H :   -0.224325
  48 H :   -0.117533
  49 H :   -0.122572
  50 H :   -0.138654
  51 H :   -0.200149

  Mayer bond orders larger than 0.100000
B(  0-C ,  1-H ) :   1.1503 B(  0-C ,  2-H ) :   1.2037 B(  0-C ,  3-C ) :  -0.1373
B(  0-C ,  7-C ) :   0.1684 B(  0-C ,  9-N ) :   0.7509 B(  0-C , 10-C ) :  -0.6481
B(  0-C , 11-C ) :   0.1236 B(  0-C , 12-C ) :   0.2372 B(  0-C , 14-C ) :   0.4832
B(  0-C , 21-H ) :  -0.1094 B(  0-C , 51-H ) :   0.1170 B(  1-H ,  3-C ) :  -0.2350
B(  2-H ,  3-C ) :  -0.2484 B(  2-H ,  9-N ) :  -0.1304 B(  3-C ,  7-C ) :   0.2142
B(  3-C , 10-C ) :   1.2513 B(  3-C , 11-C ) :   0.3226 B(  3-C , 12-C ) :   0.3810
B(  3-C , 13-C ) :   0.1827 B(  3-C , 14-C ) :   1.9125 B(  3-C , 35-Si) :  -0.1136
B(  3-C , 50-H ) :  -0.1512 B(  4-C ,  5-H ) :   0.9050 B(  4-C ,  6-H ) :   1.3459
B(  4-C ,  7-C ) :   0.9177 B(  4-C ,  9-N ) :   0.5497 B(  4-C , 10-C ) :   0.7265
B(  4-C , 12-C ) :  -0.2532 B(  4-C , 14-C ) :   0.6831 B(  4-C , 19-C ) :   0.3563
B(  4-C , 25-C ) :  -0.1321 B(  4-C , 49-H ) :   0.1062 B(  6-H , 10-C ) :   0.1330
B(  7-C ,  8-H ) :   0.9903 B(  7-C ,  9-N ) :   0.5734 B(  7-C , 14-C ) :   0.2075
B(  7-C , 19-C ) :   0.7804 B(  7-C , 23-C ) :  -0.1768 B(  7-C , 25-C ) :   0.5715
B(  7-C , 27-C ) :  -0.1003 B(  7-C , 29-C ) :   0.7226 B(  7-C , 51-H ) :  -0.1046
B(  9-N , 14-C ) :  -0.2884 B(  9-N , 19-C ) :  -0.2931 B(  9-N , 20-C ) :   0.9871
B(  9-N , 23-C ) :  -0.1025 B(  9-N , 25-C ) :  -0.1218 B( 10-C , 11-C ) :  -0.1914
B( 10-C , 14-C ) :   0.3074 B( 10-C , 36-C ) :   0.2094 B( 10-C , 40-C ) :   0.3442
B( 10-C , 44-C ) :  -0.3382 B( 10-C , 46-H ) :  -0.1348 B( 10-C , 51-H ) :  -0.6708
B( 11-C , 12-C ) :   0.4403 B( 11-C , 13-C ) :   0.9481 B( 11-C , 49-H ) :   1.0709
B( 11-C , 50-H ) :   0.9696 B( 12-C , 13-C ) :   0.8621 B( 12-C , 14-C ) :  -0.5645
B( 12-C , 15-C ) :  -0.2810 B( 12-C , 35-Si) :   0.4570 B( 12-C , 44-C ) :   0.1436
B( 12-C , 51-H ) :   1.9210 B( 13-C , 14-C ) :   0.1587 B( 13-C , 15-C ) :   0.7659
B( 13-C , 48-H ) :   0.9098 B( 14-C , 19-C ) :  -0.1582 B( 14-C , 35-Si) :   0.4160
B( 14-C , 40-C ) :  -0.1851 B( 14-C , 44-C ) :   0.1312 B( 14-C , 46-H ) :   0.1143
B( 14-C , 51-H ) :  -0.1779 B( 15-C , 16-H ) :   1.0269 B( 15-C , 17-H ) :   1.0423
B( 15-C , 18-H ) :   1.0352 B( 19-C , 23-C ) :   0.2787 B( 19-C , 25-C ) :   0.6733
B( 19-C , 27-C ) :   0.5785 B( 19-C , 28-H ) :   0.1498 B( 19-C , 29-C ) :  -0.3886
B( 19-C , 31-C ) :  -0.1689 B( 19-C , 33-C ) :  -0.2049 B( 20-C , 21-H ) :   0.9271
B( 20-C , 22-H ) :   1.0636 B( 20-C , 23-C ) :   1.0199 B( 20-C , 25-C ) :   0.1227
B( 20-C , 27-C ) :  -0.1050 B( 23-C , 24-H ) :   1.1380 B( 23-C , 26-H ) :   1.1071
B( 23-C , 27-C ) :   0.1576 B( 23-C , 29-C ) :  -0.1129 B( 24-H , 25-C ) :  -0.1193
B( 25-C , 27-C ) :   0.3309 B( 25-C , 28-H ) :  -0.1304 B( 25-C , 29-C ) :  -0.3437
B( 25-C , 31-C ) :   0.3195 B( 27-C , 28-H ) :   1.6480 B( 27-C , 31-C ) :   0.8929
B( 27-C , 33-C ) :  -0.1115 B( 28-H , 31-C ) :  -0.1697 B( 29-C , 30-H ) :   0.8122
B( 29-C , 31-C ) :   0.3207 B( 29-C , 33-C ) :   1.4195 B( 31-C , 32-H ) :   0.3971
B( 31-C , 33-C ) :   1.0725 B( 31-C , 34-H ) :  -0.1244 B( 33-C , 34-H ) :   0.9480
B( 35-Si, 36-C ) :   0.3058 B( 35-Si, 37-H ) :   0.1093 B( 35-Si, 38-H ) :  -0.1063
B( 35-Si, 40-C ) :   0.1623 B( 35-Si, 43-H ) :  -0.1219 B( 35-Si, 44-C ) :  -1.0937
B( 35-Si, 46-H ) :  -0.2150 B( 35-Si, 51-H ) :   0.2471 B( 36-C , 37-H ) :   0.7656
B( 36-C , 38-H ) :   1.1367 B( 36-C , 39-H ) :   1.0658 B( 36-C , 40-C ) :   0.2932
B( 36-C , 44-C ) :   0.1900 B( 40-C , 41-H ) :   0.8136 B( 40-C , 42-H ) :   1.0270
B( 40-C , 43-H ) :   1.1608 B( 40-C , 44-C ) :   0.1492 B( 44-C , 45-H ) :   1.0886
B( 44-C , 46-H ) :   1.4484 B( 44-C , 47-H ) :   1.0624

MP2 TOTAL ENERGY:    -1159.680745841 Eh
FINAL SINGLE POINT ENERGY     -1159.680745840900

DIPOLE MOMENT
-------------
                                X             Y             Z
Electronic contribution:     15.97377      -1.23223      -1.07092
Nuclear contribution   :    -16.08281       0.82002       1.22143
                        -----------------------------------------
Total Dipole Moment    :     -0.10904      -0.41221       0.15051
                        -----------------------------------------
Magnitude (a.u.)       :      0.45217
Magnitude (Debye)      :      1.14933

Rotational constants in cm-1:     0.012387     0.005341     0.003953
Rotational constants in MHz :   371.338711   160.111176   118.497478

                             ****ORCA TERMINATED NORMALLY****
TOTAL RUN TIME: 0 days 1 hours 49 minutes 58 seconds 827 msec
