                         Program Version 4.2.1 -  RELEASE  -
|  1> %pal
|  2>  nprocs 32
|  3> end
|  4> !RI-MP2 aug-cc-pVTZ aug-cc-pVTZ/C TightSCF
|  5> %maxcore 4500
|  6> *xyzfile 0 1  02_5R.xyz
|  7>
|  8>
|  9>                          ****END OF INPUT****

CARTESIAN COORDINATES (ANGSTROEM)
---------------------------------
  C      1.776438   -1.483908   -0.592522
  C      2.734509   -0.405059   -1.124411
  C      2.851995    0.594310    0.031071
  C      1.484944    0.584438    0.678001
  C      0.823798   -0.703007    0.289016
  H      1.264097   -2.036835   -1.379532
  H      2.326160   -2.209309    0.016406
  H      2.285154    0.086596   -1.991271
  H      3.695554   -0.814942   -1.436115
  H      3.582770    0.243065    0.767982
  H      3.140398    1.601732   -0.264928
  C     -0.386141   -1.028071    0.644043
  C     -1.600732   -1.292572    1.024177
  C     -2.854049   -0.909900    0.279038
  H     -3.501837   -0.341797    0.953455
  H     -3.402557   -1.822612    0.024972
  C     -2.617930   -0.104493   -1.001065
  H     -1.959332   -0.666110   -1.670235
  H     -3.569621    0.016927   -1.524605
  C     -2.037075    1.212252   -0.759226
  C     -1.560448    2.289106   -0.546856
  H     -1.111321    3.232223   -0.350361
  N      1.030819    1.530897    1.381415
  H     -1.742190   -1.840799    1.953648
  H      0.085142    1.317004    1.703089

 Total Charge           Charge          ....    0
 Multiplicity           Mult            ....    1
 Number of Electrons    NEL             ....   86
 Basis Dimension        Dim             ....  851

ORBITAL ENERGIES
----------------

  NO   OCC          E(Eh)            E(eV)
   0   2.0000     -15.530433      -422.6046
   1   2.0000     -11.277277      -306.8703
   2   2.0000     -11.257063      -306.3202
   3   2.0000     -11.252727      -306.2023
   4   2.0000     -11.250838      -306.1509
   5   2.0000     -11.250060      -306.1297
   6   2.0000     -11.244120      -305.9680
   7   2.0000     -11.236410      -305.7583
   8   2.0000     -11.228903      -305.5540
   9   2.0000     -11.226414      -305.4863
  10   2.0000     -11.224251      -305.4274
  11   2.0000     -11.214068      -305.1503
  12   2.0000      -1.212637       -32.9975
  13   2.0000      -1.124645       -30.6031
  14   2.0000      -1.107047       -30.1243
  15   2.0000      -1.054644       -28.6983
  16   2.0000      -1.010375       -27.4937
  17   2.0000      -0.965659       -26.2769
  18   2.0000      -0.932301       -25.3692
  19   2.0000      -0.878725       -23.9113
  20   2.0000      -0.819785       -22.3075
  21   2.0000      -0.766880       -20.8679
  22   2.0000      -0.715012       -19.4565
  23   2.0000      -0.696079       -18.9413
  24   2.0000      -0.666766       -18.1436
  25   2.0000      -0.651912       -17.7394
  26   2.0000      -0.651104       -17.7174
  27   2.0000      -0.638223       -17.3669
  28   2.0000      -0.590228       -16.0609
  29   2.0000      -0.568163       -15.4605
  30   2.0000      -0.554987       -15.1020
  31   2.0000      -0.547381       -14.8950
  32   2.0000      -0.540262       -14.7013
  33   2.0000      -0.530109       -14.4250
  34   2.0000      -0.521156       -14.1814
  35   2.0000      -0.504859       -13.7379
  36   2.0000      -0.491816       -13.3830
  37   2.0000      -0.437252       -11.8982
  38   2.0000      -0.411529       -11.1983
  39   2.0000      -0.384831       -10.4718
  40   2.0000      -0.381912       -10.3924
  41   2.0000      -0.361627        -9.8404
  42   2.0000      -0.345954        -9.4139
  43   0.0000       0.025063         0.6820
  44   0.0000       0.030313         0.8248
  45   0.0000       0.033401         0.9089
  46   0.0000       0.036725         0.9993
  47   0.0000       0.043837         1.1929

MULLIKEN ATOMIC CHARGES
-----------------------
   0 C :   -0.710096
   1 C :   -0.601884
   2 C :   -0.407174
   3 C :    0.151664
   4 C :    1.175639
   5 H :    0.287287
   6 H :    0.177335
   7 H :    0.198160
   8 H :    0.328189
   9 H :    0.243215
  10 H :    0.330223
  11 C :    0.828398
  12 C :   -1.363935
  13 C :   -0.400616
  14 H :    0.264455
  15 H :    0.281734
  16 C :   -0.213253
  17 H :    0.210945
  18 H :    0.290373
  19 C :    1.272722
  20 C :   -1.932834
  21 H :    0.369887
  22 N :   -1.091713
  23 H :    0.211010
  24 H :    0.100267
Sum of atomic charges:   -0.0000000

LOEWDIN ATOMIC CHARGES
----------------------
   0 C :    0.287757
   1 C :    0.298738
   2 C :    0.296212
   3 C :   -0.312954
   4 C :   -0.108292
   5 H :   -0.143805
   6 H :   -0.140887
   7 H :   -0.141700
   8 H :   -0.141393
   9 H :   -0.137810
  10 H :   -0.144216
  11 C :    0.163363
  12 C :    0.206106
  13 C :    0.244693
  14 H :   -0.147745
  15 H :   -0.148487
  16 C :    0.204097
  17 H :   -0.156211
  18 H :   -0.155076
  19 C :    0.016520
  20 C :    0.396399
  21 H :   -0.283149
  22 N :    0.676564
  23 H :   -0.187012
  24 H :   -0.441714

  Mayer bond orders larger than 0.100000
B(  0-C ,  1-C ) :   1.1015 B(  0-C ,  4-C ) :   0.7156 B(  0-C ,  5-H ) :   0.8931
B(  0-C ,  6-H ) :   1.0605 B(  0-C , 11-C ) :  -0.2136 B(  1-C ,  2-C ) :   1.0266
B(  1-C ,  4-C ) :  -0.1538 B(  1-C ,  7-H ) :   1.0176 B(  1-C ,  8-H ) :   0.9366
B(  2-C ,  3-C ) :   0.6364 B(  2-C ,  9-H ) :   1.0043 B(  2-C , 10-H ) :   0.9224
B(  2-C , 22-N ) :  -0.1693 B(  3-C ,  4-C ) :   0.7794 B(  3-C , 11-C ) :   0.4595
B(  3-C , 22-N ) :   0.7236 B(  3-C , 24-H ) :   0.1265 B(  4-C , 11-C ) :   0.9303
B(  4-C , 12-C ) :  -0.1149 B(  4-C , 24-H ) :  -0.1425 B( 11-C , 12-C ) :   0.4263
B( 11-C , 20-C ) :   0.1495 B( 11-C , 23-H ) :  -0.1630 B( 11-C , 24-H ) :   0.1305
B( 12-C , 13-C ) :   1.0425 B( 12-C , 16-C ) :   0.1924 B( 12-C , 23-H ) :   1.1628
B( 13-C , 14-H ) :   0.9819 B( 13-C , 15-H ) :   0.9517 B( 13-C , 16-C ) :   0.9425
B( 13-C , 19-C ) :   0.1550 B( 16-C , 17-H ) :   0.9545 B( 16-C , 18-H ) :   0.9896
B( 16-C , 19-C ) :   0.8091 B( 16-C , 20-C ) :  -0.1922 B( 19-C , 21-H ) :  -0.4466
B( 20-C , 21-H ) :   1.4793 B( 22-N , 24-H ) :   0.9393

MP2 TOTAL ENERGY:     -480.605130790 Eh
FINAL SINGLE POINT ENERGY      -480.605130789536

DIPOLE MOMENT
-------------
                                X             Y             Z
Electronic contribution:     -1.46477       2.11524       2.72419
Nuclear contribution   :      1.11421      -3.27211      -3.23510
                        -----------------------------------------
Total Dipole Moment    :     -0.35055      -1.15687      -0.51091
                        -----------------------------------------
Magnitude (a.u.)       :      1.31235
Magnitude (Debye)      :      3.33573

Rotational constants in cm-1:     0.048708     0.021722     0.018903
Rotational constants in MHz :  1460.237547   651.202538   566.689317

                             ****ORCA TERMINATED NORMALLY****
TOTAL RUN TIME: 0 days 0 hours 11 minutes 48 seconds 230 msec
