                         Program Version 4.2.1 -  RELEASE  -
|  1> %pal
|  2>  nprocs 32
|  3> end
|  4> !RI-MP2 aug-cc-pVTZ aug-cc-pVTZ/C TightSCF
|  5> %maxcore 4500
|  6> *xyzfile 1 1  05_24TS.xyz
|  7>
|  8>
|  9>                          ****END OF INPUT****

CARTESIAN COORDINATES (ANGSTROEM)
---------------------------------
  C      0.309814    0.943647    1.933612
  C     -0.789872    1.755981    2.423504
  C     -2.051607    1.406620    2.109093
  N     -2.309617    0.236661    1.436372
  C     -1.339314   -0.712042    1.334997
  C     -0.053393   -0.439732    1.671942
  C      1.040647   -1.446594    1.692516
  O      2.197064   -1.078154    1.779898
  N      0.695507   -2.759494    1.576781
  C     -3.568038    0.083800    0.708092
  C     -3.404998    0.367481   -0.787312
  C     -4.604535   -0.375658   -1.344115
  C     -4.639047   -1.629263   -0.468186
  O     -4.018232   -1.233341    0.790202
  H     -4.273717    0.792703    1.154678
  C     -6.009373   -2.198821   -0.207214
  H     -3.993936   -2.381192   -0.931971
  H     -5.946405   -3.081250    0.429795
  H     -6.468547   -2.489028   -1.154261
  H     -6.648485   -1.461500    0.282452
  O     -4.477772   -0.752031   -2.690797
  H     -5.504541    0.231670   -1.186498
  O     -3.379801    1.720365   -1.127849
  H     -2.506802   -0.154723   -1.143432
  H     -2.473948    2.072773   -1.059347
  H     -4.652526    0.008474   -3.252753
  H     -0.215826   -3.083728    1.854907
  H      1.454158   -3.418253    1.669380
  H     -2.919243    1.997880    2.369579
  H     -0.603764    2.648692    3.005154
  H     -1.688698   -1.672976    0.982340
  H      0.676788    1.438260    0.749501
  C      4.624901    0.659932   -0.223000
  N      5.230018   -0.591525   -0.407024
  C      4.558229   -1.689086   -0.852378
  N      3.288905   -1.671347   -1.164876
  C      2.639825   -0.499985   -1.003273
  C      3.256117    0.662861   -0.604148
  N      2.518701    1.824915   -0.397748
  C      1.171552    1.840024   -0.470360
  C      0.598365    0.768231   -1.384358
  N      1.293810   -0.490480   -1.204263
  H      0.671546    1.143026   -2.416376
  H     -0.456742    0.632481   -1.161770
  C      0.558366    3.219725   -0.630536
  N     -0.902959    3.204833   -0.545541
  H      0.842039    3.575094   -1.625111
  H      1.023487    3.898754    0.093623
  O      5.240048    1.609650    0.227123
  H      6.195723   -0.649941   -0.111376
  N      5.247661   -2.844605   -0.955156
  H      6.252706   -2.866064   -0.923978
  H      4.770216   -3.622292   -1.380382
  H      0.911432   -1.319950   -1.633532
  H     -1.277110    4.018272   -1.022715
  H     -1.203335    3.270636    0.420862
  H      3.039475    2.598038    0.004262
  H      1.285583    1.076802    2.395287

 Total Charge           Charge          ....    1
 Multiplicity           Mult            ....    1
 Number of Electrons    NEL             ....  230
 Basis Dimension        Dim             .... 2047

ORBITAL ENERGIES
----------------

  NO   OCC          E(Eh)            E(eV)
   0   2.0000     -20.680077      -562.7335
   1   2.0000     -20.669053      -562.4335
   2   2.0000     -20.663150      -562.2729
   3   2.0000     -20.625681      -561.2533
   4   2.0000     -20.609142      -560.8033
   5   2.0000     -15.752006      -428.6339
   6   2.0000     -15.722996      -427.8445
   7   2.0000     -15.716235      -427.6605
   8   2.0000     -15.697034      -427.1380
   9   2.0000     -15.693494      -427.0417
  10   2.0000     -15.688164      -426.8967
  11   2.0000     -15.684684      -426.8019
  12   2.0000     -15.644570      -425.7104
  13   2.0000     -11.484818      -312.5178
  14   2.0000     -11.463097      -311.9267
  15   2.0000     -11.457973      -311.7873
  16   2.0000     -11.449847      -311.5662
  17   2.0000     -11.447562      -311.5040
  18   2.0000     -11.434101      -311.1377
  19   2.0000     -11.430064      -311.0279
  20   2.0000     -11.421773      -310.8022
  21   2.0000     -11.413107      -310.5664
  22   2.0000     -11.407197      -310.4056
  23   2.0000     -11.404595      -310.3348
  24   2.0000     -11.396462      -310.1135
  25   2.0000     -11.388713      -309.9026
  26   2.0000     -11.387288      -309.8639
  27   2.0000     -11.366855      -309.3078
  28   2.0000     -11.363438      -309.2149
  29   2.0000     -11.346183      -308.7453
  30   2.0000     -11.306114      -307.6550
  31   2.0000      -1.526356       -41.5343
  32   2.0000      -1.494389       -40.6644
  33   2.0000      -1.490272       -40.5524
  34   2.0000      -1.482262       -40.3344
  35   2.0000      -1.467769       -39.9400
  36   2.0000      -1.442048       -39.2401
  37   2.0000      -1.435815       -39.0705
  38   2.0000      -1.425816       -38.7984
  39   2.0000      -1.366218       -37.1767
  40   2.0000      -1.327766       -36.1304
  41   2.0000      -1.316876       -35.8340
  42   2.0000      -1.313077       -35.7306
  43   2.0000      -1.292344       -35.1665
  44   2.0000      -1.246591       -33.9215
  45   2.0000      -1.192807       -32.4579
  46   2.0000      -1.184095       -32.2209
  47   2.0000      -1.161899       -31.6169
  48   2.0000      -1.140570       -31.0365
  49   2.0000      -1.092958       -29.7409
  50   2.0000      -1.072934       -29.1960
  51   2.0000      -1.057112       -28.7655
  52   2.0000      -1.031608       -28.0715
  53   2.0000      -1.002890       -27.2900
  54   2.0000      -0.996550       -27.1175
  55   2.0000      -0.981752       -26.7148
  56   2.0000      -0.941256       -25.6129
  57   2.0000      -0.925283       -25.1782
  58   2.0000      -0.922813       -25.1110
  59   2.0000      -0.906849       -24.6766
  60   2.0000      -0.895619       -24.3710
  61   2.0000      -0.873534       -23.7701
  62   2.0000      -0.859554       -23.3897
  63   2.0000      -0.851359       -23.1667
  64   2.0000      -0.836899       -22.7732
  65   2.0000      -0.832258       -22.6469
  66   2.0000      -0.828860       -22.5544
  67   2.0000      -0.820460       -22.3258
  68   2.0000      -0.814190       -22.1552
  69   2.0000      -0.808953       -22.0127
  70   2.0000      -0.795873       -21.6568
  71   2.0000      -0.791352       -21.5338
  72   2.0000      -0.790977       -21.5236
  73   2.0000      -0.771493       -20.9934
  74   2.0000      -0.766345       -20.8533
  75   2.0000      -0.764977       -20.8161
  76   2.0000      -0.763763       -20.7831
  77   2.0000      -0.756128       -20.5753
  78   2.0000      -0.746652       -20.3174
  79   2.0000      -0.740968       -20.1628
  80   2.0000      -0.733394       -19.9567
  81   2.0000      -0.730577       -19.8800
  82   2.0000      -0.717847       -19.5336
  83   2.0000      -0.715394       -19.4669
  84   2.0000      -0.714570       -19.4444
  85   2.0000      -0.708411       -19.2768
  86   2.0000      -0.701374       -19.0854
  87   2.0000      -0.689535       -18.7632
  88   2.0000      -0.679937       -18.5020
  89   2.0000      -0.664810       -18.0904
  90   2.0000      -0.662008       -18.0142
  91   2.0000      -0.658855       -17.9284
  92   2.0000      -0.657995       -17.9050
  93   2.0000      -0.652325       -17.7507
  94   2.0000      -0.643446       -17.5090
  95   2.0000      -0.639499       -17.4017
  96   2.0000      -0.637343       -17.3430
  97   2.0000      -0.630425       -17.1547
  98   2.0000      -0.622378       -16.9358
  99   2.0000      -0.616918       -16.7872
 100   2.0000      -0.593798       -16.1581
 101   2.0000      -0.579963       -15.7816
 102   2.0000      -0.565299       -15.3826
 103   2.0000      -0.553465       -15.0605
 104   2.0000      -0.551562       -15.0088
 105   2.0000      -0.546368       -14.8674
 106   2.0000      -0.541256       -14.7283
 107   2.0000      -0.531268       -14.4565
 108   2.0000      -0.526798       -14.3349
 109   2.0000      -0.522463       -14.2169
 110   2.0000      -0.520221       -14.1559
 111   2.0000      -0.505293       -13.7497
 112   2.0000      -0.487701       -13.2710
 113   2.0000      -0.437996       -11.9185
 114   2.0000      -0.372021       -10.1232
 115   0.0000      -0.083684        -2.2772
 116   0.0000      -0.056990        -1.5508
 117   0.0000      -0.050902        -1.3851
 118   0.0000      -0.045376        -1.2347
 119   0.0000      -0.041825        -1.1381

MULLIKEN ATOMIC CHARGES
-----------------------
   0 C :    0.218549
   1 C :   -0.800568
   2 C :   -0.530873
   3 N :   -0.186251
   4 C :    0.238069
   5 C :    0.341278
   6 C :    1.242714
   7 O :   -1.188561
   8 N :   -0.710419
   9 C :    0.395973
  10 C :    0.573262
  11 C :    0.606630
  12 C :    0.346430
  13 O :   -1.002711
  14 H :    0.442258
  15 C :   -1.159665
  16 H :    0.326571
  17 H :    0.264728
  18 H :    0.284716
  19 H :    0.285308
  20 O :   -0.873875
  21 H :    0.284508
  22 O :   -1.188369
  23 H :    0.134257
  24 H :    0.438251
  25 H :    0.135677
  26 H :    0.121341
  27 H :    0.132081
  28 H :    0.537657
  29 H :    0.246991
  30 H :    0.440801
  31 H :   -0.599596
  32 C :    0.130846
  33 N :    0.291966
  34 C :   -0.447289
  35 N :   -0.700025
  36 C :    0.355211
  37 C :    1.756113
  38 N :   -1.323948
  39 C :    2.208805
  40 C :   -0.828523
  41 N :    0.321486
  42 H :   -0.041811
  43 H :    0.848375
  44 C :   -0.473000
  45 N :   -0.461928
  46 H :    0.283409
  47 H :    0.214888
  48 O :   -1.103678
  49 H :    0.127102
  50 N :   -0.555633
  51 H :    0.138914
  52 H :    0.073975
  53 H :   -0.130091
  54 H :    0.032351
  55 H :    0.087274
  56 H :   -0.108590
  57 H :    0.506636
Sum of atomic charges:    1.0000000

LOEWDIN ATOMIC CHARGES
----------------------
   0 C :    0.238128
   1 C :    0.280629
   2 C :    0.169232
   3 N :    0.285366
   4 C :    0.174626
   5 C :   -0.057303
   6 C :   -0.676084
   7 O :    0.503456
   8 N :    0.872616
   9 C :   -0.324974
  10 C :   -0.240790
  11 C :   -0.240487
  12 C :   -0.218444
  13 O :    0.638478
  14 H :   -0.120286
  15 C :    0.614853
  16 H :   -0.130354
  17 H :   -0.158671
  18 H :   -0.152958
  19 H :   -0.158350
  20 O :    0.861327
  21 H :   -0.115047
  22 O :    0.886014
  23 H :   -0.140294
  24 H :   -0.606846
  25 H :   -0.458133
  26 H :   -0.302508
  27 H :   -0.276982
  28 H :   -0.134898
  29 H :   -0.157358
  30 H :   -0.153302
  31 H :   -0.300709
  32 C :   -0.657354
  33 N :    0.602831
  34 C :   -0.497166
  35 N :    0.442447
  36 C :   -0.440016
  37 C :   -0.188690
  38 N :    0.605495
  39 C :   -0.116044
  40 C :    0.268447
  41 N :    0.600105
  42 H :   -0.095943
  43 H :   -0.177376
  44 C :    0.252603
  45 N :    0.889294
  46 H :   -0.119536
  47 H :   -0.116552
  48 O :    0.455765
  49 H :   -0.246290
  50 N :    0.895003
  51 H :   -0.272390
  52 H :   -0.275827
  53 H :   -0.248251
  54 H :   -0.266365
  55 H :   -0.332679
  56 H :   -0.238703
  57 H :   -0.122754

  Mayer bond orders larger than 0.100000
B(  0-C ,  1-C ) :   0.6433 B(  0-C ,  2-C ) :   0.2692 B(  0-C ,  3-N ) :  -0.1428
B(  0-C ,  4-C ) :   0.1567 B(  0-C ,  5-C ) :   0.8788 B(  0-C ,  6-C ) :   0.1772
B(  0-C ,  8-N ) :   0.1284 B(  0-C , 31-H ) :   0.4956 B(  0-C , 39-C ) :   0.2882
B(  0-C , 57-H ) :   0.9061 B(  1-C ,  2-C ) :   1.0665 B(  1-C ,  3-N ) :  -0.2946
B(  1-C ,  4-C ) :  -0.1797 B(  1-C ,  5-C ) :   0.8001 B(  1-C ,  6-C ) :  -0.1593
B(  1-C , 29-H ) :   1.2034 B(  1-C , 31-H ) :   0.4323 B(  1-C , 57-H ) :  -0.2838
B(  2-C ,  3-N ) :   1.4443 B(  2-C ,  4-C ) :  -0.4930 B(  2-C ,  5-C ) :  -0.1194
B(  2-C , 28-H ) :   0.5116 B(  2-C , 30-H ) :   0.1110 B(  3-N ,  4-C ) :   0.6012
B(  3-N ,  9-C ) :   0.9264 B(  3-N , 22-O ) :   0.1037 B(  3-N , 30-H ) :  -0.1342
B(  4-C ,  5-C ) :   1.2565 B(  4-C ,  6-C ) :   0.2557 B(  4-C ,  8-N ) :  -0.1345
B(  4-C , 10-C ) :   0.1371 B(  4-C , 13-O ) :  -0.1234 B(  4-C , 28-H ) :   0.1635
B(  4-C , 30-H ) :   1.0239 B(  4-C , 31-H ) :  -0.2578 B(  4-C , 39-C ) :   0.2116
B(  5-C ,  6-C ) :   0.7162 B(  5-C ,  7-O ) :  -0.2034 B(  5-C , 28-H ) :  -0.1017
B(  5-C , 30-H ) :  -0.2355 B(  5-C , 31-H ) :   0.7182 B(  5-C , 32-C ) :   0.1270
B(  5-C , 39-C ) :  -0.2126 B(  5-C , 57-H ) :  -0.3009 B(  6-C ,  7-O ) :   0.9793
B(  6-C ,  8-N ) :   0.4077 B(  7-O , 31-H ) :   0.1386 B(  7-O , 37-C ) :  -0.1338
B(  8-N , 26-H ) :   1.0934 B(  8-N , 27-H ) :   1.0506 B(  9-C , 10-C ) :   0.8358
B(  9-C , 13-O ) :   0.4910 B(  9-C , 14-H ) :   0.8069 B(  9-C , 22-O ) :   0.2619
B( 10-C , 11-C ) :   0.7987 B( 10-C , 13-O ) :   0.1847 B( 10-C , 22-O ) :  -0.1150
B( 10-C , 23-H ) :   1.0974 B( 11-C , 12-C ) :   1.0369 B( 11-C , 20-O ) :   0.1998
B( 11-C , 21-H ) :   1.0472 B( 12-C , 13-O ) :   0.6363 B( 12-C , 15-C ) :   0.5916
B( 12-C , 16-H ) :   0.9148 B( 12-C , 19-H ) :  -0.1157 B( 12-C , 20-O ) :   0.1517
B( 15-C , 17-H ) :   1.0251 B( 15-C , 18-H ) :   1.0228 B( 15-C , 19-H ) :   1.0189
B( 20-O , 25-H ) :   1.0684 B( 22-O , 24-H ) :   0.6592 B( 31-H , 38-N ) :   0.3295
B( 31-H , 39-C ) :   0.4979 B( 31-H , 44-C ) :   0.1287 B( 31-H , 45-N ) :  -0.1516
B( 32-C , 33-N ) :   1.0770 B( 32-C , 34-C ) :  -0.2887 B( 32-C , 35-N ) :   0.1155
B( 32-C , 36-C ) :   0.8862 B( 32-C , 37-C ) :  -0.5908 B( 32-C , 39-C ) :   0.2529
B( 32-C , 48-O ) :   0.4202 B( 33-N , 34-C ) :   0.7741 B( 33-N , 37-C ) :  -0.3597
B( 33-N , 48-O ) :  -0.2600 B( 33-N , 49-H ) :   1.0865 B( 33-N , 50-N ) :  -0.2151
B( 34-C , 35-N ) :   2.1267 B( 34-C , 36-C ) :  -0.9765 B( 34-C , 37-C ) :  -0.4019
B( 34-C , 41-N ) :  -0.1832 B( 34-C , 50-N ) :   0.9966 B( 35-N , 36-C ) :  -0.7307
B( 35-N , 37-C ) :  -0.3932 B( 35-N , 41-N ) :  -0.3323 B( 35-N , 50-N ) :  -0.5391
B( 36-C , 37-C ) :  -0.2163 B( 36-C , 38-N ) :   0.3834 B( 36-C , 39-C ) :   0.2718
B( 36-C , 40-C ) :  -0.3377 B( 36-C , 41-N ) :   0.6957 B( 36-C , 42-H ) :   0.2043
B( 36-C , 44-C ) :  -0.1042 B( 36-C , 50-N ) :   0.1250 B( 37-C , 38-N ) :   0.5481
B( 37-C , 39-C ) :  -0.3909 B( 37-C , 44-C ) :   0.2367 B( 37-C , 48-O ) :   0.5743
B( 37-C , 56-H ) :  -0.2680 B( 38-N , 39-C ) :  -0.5342 B( 38-N , 40-C ) :   0.3078
B( 38-N , 41-N ) :  -0.4674 B( 38-N , 48-O ) :   0.1157 B( 38-N , 56-H ) :   1.5325
B( 39-C , 40-C ) :   0.6606 B( 39-C , 41-N ) :   0.1143 B( 39-C , 42-H ) :  -0.1366
B( 39-C , 43-H ) :   0.1365 B( 39-C , 44-C ) :  -0.2050 B( 39-C , 46-H ) :  -0.1576
B( 39-C , 47-H ) :  -0.2092 B( 39-C , 48-O ) :  -0.1183 B( 40-C , 41-N ) :   1.1154
B( 40-C , 42-H ) :   1.1349 B( 40-C , 43-H ) :   0.4419 B( 41-N , 42-H ) :   0.2210
B( 41-N , 43-H ) :  -0.2423 B( 41-N , 53-H ) :   1.2628 B( 42-H , 43-H ) :  -0.2164
B( 44-C , 45-N ) :   0.9325 B( 44-C , 46-H ) :   1.1361 B( 44-C , 47-H ) :   1.1285
B( 45-N , 54-H ) :   1.0913 B( 45-N , 55-H ) :   1.0488 B( 50-N , 51-H ) :   1.0600
B( 50-N , 52-H ) :   1.1525

MP2 TOTAL ENERGY:    -1513.432094407 Eh
FINAL SINGLE POINT ENERGY     -1513.432094407390

DIPOLE MOMENT
-------------
                                X             Y             Z
Electronic contribution:     22.93818      -3.10907       3.34210
Nuclear contribution   :    -23.60334       3.17678      -3.60399
                        -----------------------------------------
Total Dipole Moment    :     -0.66516       0.06771      -0.26189
                        -----------------------------------------
Magnitude (a.u.)       :      0.71806
Magnitude (Debye)      :      1.82517

Rotational constants in cm-1:     0.008821     0.003026     0.002807
Rotational constants in MHz :   264.457969    90.723297    84.161390

                             ****ORCA TERMINATED NORMALLY****
TOTAL RUN TIME: 0 days 3 hours 49 minutes 20 seconds 663 msec
