                         Program Version 4.2.1 -  RELEASE  -
|  1> %pal
|  2>  nprocs 32
|  3> end
|  4> !RI-MP2 aug-cc-pVTZ aug-cc-pVTZ/C TightSCF
|  5> %maxcore 4500
|  6> *xyzfile 0 1  10_87TS.xyz
|  7>
|  8>
|  9>                          ****END OF INPUT****

CARTESIAN COORDINATES (ANGSTROEM)
---------------------------------
  O     -1.419102    1.265305    0.751142
  C     -1.190051    0.000196    0.756491
  C     -0.028081   -0.557283    1.225558
  H      0.601716    0.007325    1.896937
  H      0.096525   -1.631183    1.171361
  C     -2.156881   -0.858222   -0.036995
  O     -3.204059   -0.163268   -0.492885
  O     -2.004603   -2.026553   -0.250639
  C     -0.412019    2.066375   -0.697162
  C      0.860039    1.587445   -0.404474
  H      1.530871    2.175853    0.210739
  H     -0.666998    3.094981   -0.484013
  H     -0.997791    1.593052   -1.475458
  C      1.140916    0.251610   -0.569952
  H      0.598202   -0.359491   -1.279212
  C      2.459323   -0.281127   -0.134654
  O      3.231807    0.291041    0.585852
  O      2.689571   -1.501739   -0.642878
  H     -3.104715    0.744316   -0.155164
  H      3.553816   -1.797102   -0.322796

 Total Charge           Charge          ....    0
 Multiplicity           Mult            ....    1
 Number of Electrons    NEL             ....   90
 Basis Dimension        Dim             ....  736

ORBITAL ENERGIES
----------------

  NO   OCC          E(Eh)            E(eV)
   0   2.0000     -20.635785      -561.5283
   1   2.0000     -20.612653      -560.8988
   2   2.0000     -20.592186      -560.3419
   3   2.0000     -20.572021      -559.7932
   4   2.0000     -20.551063      -559.2229
   5   2.0000     -11.414079      -310.5929
   6   2.0000     -11.387233      -309.8624
   7   2.0000     -11.322251      -308.0941
   8   2.0000     -11.321452      -308.0724
   9   2.0000     -11.308608      -307.7229
  10   2.0000     -11.263243      -306.4884
  11   2.0000     -11.261329      -306.4363
  12   2.0000      -1.492918       -40.6244
  13   2.0000      -1.472646       -40.0727
  14   2.0000      -1.395856       -37.9832
  15   2.0000      -1.388606       -37.7859
  16   2.0000      -1.371627       -37.3239
  17   2.0000      -1.138161       -30.9709
  18   2.0000      -1.055245       -28.7147
  19   2.0000      -1.001602       -27.2550
  20   2.0000      -0.891908       -24.2700
  21   2.0000      -0.882678       -24.0189
  22   2.0000      -0.810841       -22.0641
  23   2.0000      -0.794521       -21.6200
  24   2.0000      -0.749573       -20.3969
  25   2.0000      -0.728255       -19.8168
  26   2.0000      -0.720474       -19.6051
  27   2.0000      -0.685672       -18.6581
  28   2.0000      -0.662559       -18.0291
  29   2.0000      -0.660936       -17.9850
  30   2.0000      -0.647392       -17.6164
  31   2.0000      -0.641826       -17.4650
  32   2.0000      -0.637198       -17.3390
  33   2.0000      -0.619913       -16.8687
  34   2.0000      -0.596317       -16.2266
  35   2.0000      -0.580078       -15.7847
  36   2.0000      -0.567439       -15.4408
  37   2.0000      -0.560397       -15.2492
  38   2.0000      -0.522850       -14.2275
  39   2.0000      -0.510418       -13.8892
  40   2.0000      -0.487697       -13.2709
  41   2.0000      -0.482919       -13.1409
  42   2.0000      -0.442075       -12.0295
  43   2.0000      -0.414375       -11.2757
  44   2.0000      -0.344877        -9.3846
  45   0.0000       0.022355         0.6083
  46   0.0000       0.023671         0.6441
  47   0.0000       0.028747         0.7822
  48   0.0000       0.036550         0.9946
  49   0.0000       0.041793         1.1372

MULLIKEN ATOMIC CHARGES
-----------------------
   0 O :   -1.115929
   1 C :    0.876502
   2 C :   -0.660961
   3 H :    0.538349
   4 H :    0.312019
   5 C :    0.711072
   6 O :   -0.538559
   7 O :   -0.827987
   8 C :   -0.426210
   9 C :   -0.668157
  10 H :    0.351031
  11 H :    0.421630
  12 H :    0.309215
  13 C :    0.455975
  14 H :    0.451925
  15 C :    0.669345
  16 O :   -0.917815
  17 O :   -0.515445
  18 H :    0.316902
  19 H :    0.257098
Sum of atomic charges:   -0.0000000

LOEWDIN ATOMIC CHARGES
----------------------
   0 O :    0.537645
   1 C :   -0.563719
   2 C :    0.479668
   3 H :   -0.189526
   4 H :   -0.190194
   5 C :   -0.825397
   6 O :    0.839765
   7 O :    0.442973
   8 C :    0.396209
   9 C :    0.160008
  10 H :   -0.173703
  11 H :   -0.163091
  12 H :   -0.176369
  13 C :    0.131289
  14 H :   -0.168392
  15 C :   -0.829575
  16 O :    0.473178
  17 O :    0.846739
  18 H :   -0.571201
  19 H :   -0.456308

  Mayer bond orders larger than 0.100000
B(  0-O ,  1-C ) :   0.7605 B(  0-O ,  5-C ) :   0.1139 B(  0-O ,  8-C ) :   0.2342
B(  0-O , 13-C ) :   0.1141 B(  1-C ,  2-C ) :   1.1892 B(  1-C ,  3-H ) :  -0.1164
B(  1-C ,  5-C ) :   0.7890 B(  2-C ,  3-H ) :   0.7224 B(  2-C ,  4-H ) :   0.9518
B(  2-C ,  9-C ) :   0.1275 B(  2-C , 13-C ) :   0.2373 B(  5-C ,  6-O ) :   0.7234
B(  5-C ,  7-O ) :   1.3909 B(  6-O , 18-H ) :   0.8945 B(  8-C ,  9-C ) :   1.3488
B(  8-C , 11-H ) :   0.8179 B(  8-C , 12-H ) :   0.9777 B(  8-C , 13-C ) :  -0.1413
B(  9-C , 10-H ) :   0.8877 B(  9-C , 13-C ) :   1.0871 B( 13-C , 14-H ) :   0.8160
B( 13-C , 15-C ) :   0.7014 B( 13-C , 17-O ) :  -0.1364 B( 15-C , 16-O ) :   1.2426
B( 15-C , 17-O ) :   0.9378 B( 17-O , 19-H ) :   0.9627

MP2 TOTAL ENERGY:     -646.570661717 Eh
FINAL SINGLE POINT ENERGY      -646.570661716848

DIPOLE MOMENT
-------------
                                X             Y             Z
Electronic contribution:     -0.75975      -2.67825       0.10694
Nuclear contribution   :      1.57158       3.72556      -0.43047
                        -----------------------------------------
Total Dipole Moment    :      0.81183       1.04731      -0.32352
                        -----------------------------------------
Magnitude (a.u.)       :      1.36403
Magnitude (Debye)      :      3.46709

Rotational constants in cm-1:     0.052596     0.020687     0.017005
Rotational constants in MHz :  1576.792673   620.188557   509.794757

                             ****ORCA TERMINATED NORMALLY****
TOTAL RUN TIME: 0 days 0 hours 6 minutes 49 seconds 737 msec
