                         Program Version 4.2.1 -  RELEASE  -
|  1> %pal
|  2>  nprocs 32
|  3> end
|  4> !RI-MP2 aug-cc-pVTZ aug-cc-pVTZ/C TightSCF
|  5> %maxcore 4500
|  6> *xyzfile 0 2  01_25R.xyz
|  7>
|  8>
|  9>                          ****END OF INPUT****

CARTESIAN COORDINATES (ANGSTROEM)
---------------------------------
  C     -2.147630    0.057058    0.184095
  C     -0.828641   -0.102973    0.866443
  C      0.365305   -0.133188   -0.104651
  H     -0.821883   -1.030850    1.450457
  H     -0.675610    0.717999    1.576537
  C      1.705325   -0.291472    0.616237
  H      0.381897    0.787463   -0.695799
  H      0.234038   -0.956229   -0.815132
  C      2.863766   -0.368235   -0.329187
  H      1.671902   -1.205021    1.222201
  H      1.851894    0.541404    1.310905
  C      3.870965    0.492006   -0.374608
  C     -2.576107    1.414847   -0.258435
  H     -2.162804    1.674666   -1.246615
  H     -2.244443    2.190157    0.436905
  H     -3.663811    1.482223   -0.352937
  C     -2.781022   -1.130416   -0.457737
  H     -2.406597   -1.293380   -1.481531
  H     -3.865005   -1.010763   -0.542956
  H     -2.581294   -2.047536    0.102344
  H      4.676984    0.387396   -1.090863
  H      3.926172    1.333834    0.308327
  H      2.846799   -1.197128   -1.034784

 Total Charge           Charge          ....    0
 Multiplicity           Mult            ....    2
 Number of Electrons    NEL             ....   63
 Basis Dimension        Dim             ....  713

ORBITAL ENERGIES
----------------
                 SPIN UP ORBITALS
  NO   OCC          E(Eh)            E(eV)
   0   1.0000     -11.229635      -305.5739
   1   1.0000     -11.223813      -305.4155
   2   1.0000     -11.223285      -305.4011
   3   1.0000     -11.221107      -305.3418
   4   1.0000     -11.216621      -305.2198
   5   1.0000     -11.216023      -305.2035
   6   1.0000     -11.212089      -305.0964
   7   1.0000     -11.211707      -305.0860
   8   1.0000      -1.109783       -30.1987
   9   1.0000      -1.075754       -29.2727
  10   1.0000      -1.008874       -27.4528
  11   1.0000      -0.935944       -25.4683
  12   1.0000      -0.922689       -25.1076
  13   1.0000      -0.828020       -22.5316
  14   1.0000      -0.757718       -20.6185
  15   1.0000      -0.734509       -19.9870
  16   1.0000      -0.653376       -17.7793
  17   1.0000      -0.625658       -17.0250
  18   1.0000      -0.612996       -16.6805
  19   1.0000      -0.606105       -16.4930
  20   1.0000      -0.583346       -15.8736
  21   1.0000      -0.568121       -15.4593
  22   1.0000      -0.538192       -14.6450
  23   1.0000      -0.531433       -14.4610
  24   1.0000      -0.516179       -14.0460
  25   1.0000      -0.507886       -13.8203
  26   1.0000      -0.489961       -13.3325
  27   1.0000      -0.477663       -12.9979
  28   1.0000      -0.466019       -12.6810
  29   1.0000      -0.463467       -12.6116
  30   1.0000      -0.361701        -9.8424
  31   1.0000      -0.307387        -8.3644
  32   0.0000       0.029089         0.7916
  33   0.0000       0.033629         0.9151
  34   0.0000       0.034450         0.9374
  35   0.0000       0.036872         1.0033
  36   0.0000       0.045757         1.2451

                 SPIN DOWN ORBITALS
  NO   OCC          E(Eh)            E(eV)
   0   1.0000     -11.229940      -305.5822
   1   1.0000     -11.223107      -305.3963
   2   1.0000     -11.219258      -305.2915
   3   1.0000     -11.218542      -305.2720
   4   1.0000     -11.216229      -305.2091
   5   1.0000     -11.215206      -305.1813
   6   1.0000     -11.214825      -305.1709
   7   1.0000     -11.199230      -304.7465
   8   1.0000      -1.094593       -29.7854
   9   1.0000      -1.056576       -28.7509
  10   1.0000      -1.000873       -27.2351
  11   1.0000      -0.935651       -25.4604
  12   1.0000      -0.921911       -25.0865
  13   1.0000      -0.819629       -22.3032
  14   1.0000      -0.756525       -20.5861
  15   1.0000      -0.699130       -19.0243
  16   1.0000      -0.651912       -17.7394
  17   1.0000      -0.621198       -16.9037
  18   1.0000      -0.601855       -16.3773
  19   1.0000      -0.584955       -15.9174
  20   1.0000      -0.570665       -15.5286
  21   1.0000      -0.557849       -15.1798
  22   1.0000      -0.530940       -14.4476
  23   1.0000      -0.524758       -14.2794
  24   1.0000      -0.513866       -13.9830
  25   1.0000      -0.504657       -13.7324
  26   1.0000      -0.485512       -13.2115
  27   1.0000      -0.472800       -12.8656
  28   1.0000      -0.462494       -12.5851
  29   1.0000      -0.456280       -12.4160
  30   1.0000      -0.359132        -9.7725
  31   0.0000       0.029244         0.7958
  32   0.0000       0.033698         0.9170
  33   0.0000       0.034512         0.9391
  34   0.0000       0.036733         0.9996
  35   0.0000       0.045796         1.2462

MULLIKEN ATOMIC CHARGES AND SPIN POPULATIONS
--------------------------------------------
   0 C :    0.299691    1.321210
   1 C :   -0.210671   -0.194257
   2 C :   -0.534497    0.044278
   3 H :    0.252704    0.015752
   4 H :    0.251246    0.017047
   5 C :   -0.101167    0.009385
   6 H :    0.242830   -0.006002
   7 H :    0.211744   -0.004932
   8 C :   -0.261143   -0.019783
   9 H :    0.278010   -0.001305
  10 H :    0.175452   -0.000587
  11 C :   -1.057349    0.020231
  12 C :   -1.023583   -0.202582
  13 H :    0.253552    0.070598
  14 H :    0.276277    0.010143
  15 H :    0.270635    0.023035
  16 C :   -1.021553   -0.205242
  17 H :    0.250249    0.069353
  18 H :    0.271181    0.024027
  19 H :    0.273695    0.010076
  20 H :    0.496768   -0.000914
  21 H :    0.219217   -0.001305
  22 H :    0.186713    0.001772
Sum of atomic charges         :   -0.0000000

LOEWDIN ATOMIC CHARGES AND SPIN POPULATIONS
-------------------------------------------
   0 C :   -0.053798    0.542723
   1 C :    0.259659    0.098631
   2 C :    0.270950    0.030001
   3 H :   -0.150868    0.006952
   4 H :   -0.150131    0.006630
   5 C :    0.242307    0.004474
   6 H :   -0.138502    0.001806
   7 H :   -0.141126    0.001838
   8 C :    0.177070   -0.003840
   9 H :   -0.144716   -0.000371
  10 H :   -0.153805   -0.000122
  11 C :    0.522015    0.006844
  12 C :    0.557427    0.109408
  13 H :   -0.159911    0.028377
  14 H :   -0.175092    0.004683
  15 H :   -0.176099    0.008622
  16 C :    0.556929    0.109353
  17 H :   -0.160182    0.028341
  18 H :   -0.176027    0.008751
  19 H :   -0.175120    0.004576
  20 H :   -0.229165    0.001939
  21 H :   -0.220902    0.001822
  22 H :   -0.180914   -0.001437

  Mayer bond orders larger than 0.100000
B(  0-C ,  1-C ) :   0.7064 B(  0-C ,  2-C ) :   0.1624 B(  0-C , 12-C ) :   0.7429
B(  0-C , 16-C ) :   0.7443 B(  1-C ,  2-C ) :   0.8897 B(  1-C ,  3-H ) :   0.9796
B(  1-C ,  4-H ) :   0.9950 B(  2-C ,  5-C ) :   0.9700 B(  2-C ,  6-H ) :   0.9878
B(  2-C ,  7-H ) :   0.9787 B(  5-C ,  8-C ) :   0.6865 B(  5-C ,  9-H ) :   0.9547
B(  5-C , 10-H ) :   0.9984 B(  8-C , 11-C ) :   1.3451 B(  8-C , 22-H ) :   1.1422
B( 11-C , 20-H ) :   0.6596 B( 11-C , 21-H ) :   1.1481 B( 12-C , 13-H ) :   0.9495
B( 12-C , 14-H ) :   0.9864 B( 12-C , 15-H ) :   1.0155 B( 12-C , 16-C ) :   0.1184
B( 16-C , 17-H ) :   0.9534 B( 16-C , 18-H ) :   1.0147 B( 16-C , 19-H ) :   0.9882

MP2 TOTAL ENERGY:     -313.095807086 Eh
FINAL SINGLE POINT ENERGY      -313.095807085685

DIPOLE MOMENT
-------------
                                X             Y             Z
Electronic contribution:      2.89442      -0.44572       0.88631
Nuclear contribution   :     -3.01282       0.39816      -0.90748
                        -----------------------------------------
Total Dipole Moment    :     -0.11840      -0.04756      -0.02117
                        -----------------------------------------
Magnitude (a.u.)       :      0.12934
Magnitude (Debye)      :      0.32876

Rotational constants in cm-1:     0.158099     0.024371     0.023221
Rotational constants in MHz :  4739.693051   730.637462   696.137993

                             ****ORCA TERMINATED NORMALLY****
TOTAL RUN TIME: 0 days 0 hours 9 minutes 37 seconds 949 msec
