                         Program Version 4.2.1 -  RELEASE  -
|  1> %pal
|  2>  nprocs 32
|  3> end
|  4> !RI-MP2 aug-cc-pVTZ aug-cc-pVTZ/C TightSCF
|  5> %maxcore 4500
|  6> *xyzfile -1 1  09_15TS.xyz
|  7>
|  8>
|  9>                          ****END OF INPUT****

CARTESIAN COORDINATES (ANGSTROEM)
---------------------------------
  C     -1.110588   -0.805645   -0.672096
  C     -1.193374    0.534851   -0.291998
  C     -2.353478    0.966717    0.349155
  C     -3.407843    0.097109    0.588863
  C     -3.318099   -1.233700    0.199233
  C     -2.160499   -1.680149   -0.427930
  C     -0.090266    1.550426   -0.521677
  O     -0.185317    2.639102    0.087287
  C      1.016399    1.180063   -1.294644
  C      2.355324    0.631460    0.363040
  C      2.322789    1.362392    1.377924
  C      3.019073   -0.538222   -0.250777
  O      2.196715   -1.693608   -0.393629
  C      1.703882   -2.174224    0.835305
  H      1.678060    1.977217   -1.609798
  H      0.978086    0.302194   -1.925718
  H      3.363167   -0.311159   -1.260229
  H      3.890425   -0.794656    0.369212
  H      1.688122    2.207659    1.613693
  H      1.097328   -3.053121    0.613931
  H      1.089556   -1.424864    1.341370
  H      2.527429   -2.460569    1.505097
  H     -2.387837    2.004498    0.657143
  H     -4.302698    0.456626    1.086716
  H     -4.137771   -1.918512    0.389041
  H     -2.070785   -2.720736   -0.722458
  H     -0.204177   -1.174996   -1.133675

 Total Charge           Charge          ....   -1
 Multiplicity           Mult            ....    1
 Number of Electrons    NEL             ....  102
 Basis Dimension        Dim             ....  943

ORBITAL ENERGIES
----------------

  NO   OCC          E(Eh)            E(eV)
   0   2.0000     -20.438158      -556.1505
   1   2.0000     -20.335585      -553.3594
   2   2.0000     -11.162018      -303.7340
   3   2.0000     -11.149566      -303.3951
   4   2.0000     -11.141063      -303.1637
   5   2.0000     -11.123448      -302.6844
   6   2.0000     -11.119245      -302.5700
   7   2.0000     -11.118851      -302.5593
   8   2.0000     -11.110252      -302.3253
   9   2.0000     -11.106738      -302.2297
  10   2.0000     -11.105491      -302.1958
  11   2.0000     -11.090794      -301.7959
  12   2.0000     -11.033523      -300.2374
  13   2.0000     -11.031569      -300.1842
  14   2.0000      -1.254386       -34.1336
  15   2.0000      -1.172081       -31.8939
  16   2.0000      -1.034225       -28.1427
  17   2.0000      -0.910013       -24.7627
  18   2.0000      -0.901059       -24.5191
  19   2.0000      -0.896440       -24.3934
  20   2.0000      -0.828957       -22.5571
  21   2.0000      -0.811037       -22.0694
  22   2.0000      -0.747189       -20.3320
  23   2.0000      -0.714784       -19.4503
  24   2.0000      -0.700326       -19.0569
  25   2.0000      -0.608623       -16.5615
  26   2.0000      -0.575009       -15.6468
  27   2.0000      -0.560815       -15.2605
  28   2.0000      -0.537157       -14.6168
  29   2.0000      -0.533562       -14.5190
  30   2.0000      -0.507989       -13.8231
  31   2.0000      -0.499968       -13.6048
  32   2.0000      -0.479924       -13.0594
  33   2.0000      -0.476386       -12.9631
  34   2.0000      -0.467377       -12.7180
  35   2.0000      -0.441033       -12.0011
  36   2.0000      -0.426517       -11.6061
  37   2.0000      -0.411278       -11.1915
  38   2.0000      -0.401770       -10.9327
  39   2.0000      -0.397395       -10.8137
  40   2.0000      -0.371862       -10.1189
  41   2.0000      -0.363640        -9.8951
  42   2.0000      -0.358586        -9.7576
  43   2.0000      -0.353368        -9.6156
  44   2.0000      -0.312545        -8.5048
  45   2.0000      -0.240922        -6.5558
  46   2.0000      -0.235656        -6.4125
  47   2.0000      -0.221301        -6.0219
  48   2.0000      -0.217049        -5.9062
  49   2.0000      -0.211404        -5.7526
  50   2.0000      -0.101547        -2.7632
  51   0.0000       0.094706         2.5771
  52   0.0000       0.103516         2.8168
  53   0.0000       0.110568         3.0087
  54   0.0000       0.115095         3.1319
  55   0.0000       0.117665         3.2018

MULLIKEN ATOMIC CHARGES
-----------------------
   0 C :   -0.544299
   1 C :    1.766015
   2 C :   -1.106721
   3 C :   -0.560279
   4 C :   -0.267432
   5 C :   -0.950640
   6 C :    0.888344
   7 O :   -1.326353
   8 C :   -0.800902
   9 C :    1.335040
  10 C :   -2.198346
  11 C :   -0.079654
  12 O :   -0.642670
  13 C :   -0.898286
  14 H :    0.416211
  15 H :    0.168959
  16 H :    0.315465
  17 H :    0.323982
  18 H :    0.404204
  19 H :    0.357234
  20 H :    0.468319
  21 H :    0.279114
  22 H :    0.200211
  23 H :    0.517390
  24 H :    0.466853
  25 H :    0.414267
  26 H :    0.053975
Sum of atomic charges:   -1.0000000

LOEWDIN ATOMIC CHARGES
----------------------
   0 C :    0.192711
   1 C :   -0.110642
   2 C :    0.193843
   3 C :    0.175738
   4 C :    0.163770
   5 C :    0.181567
   6 C :   -0.676917
   7 O :    0.388605
   8 C :    0.354260
   9 C :   -0.133303
  10 C :    0.339313
  11 C :   -0.078566
  12 O :    0.538284
  13 C :    0.280624
  14 H :   -0.229198
  15 H :   -0.263432
  16 H :   -0.184687
  17 H :   -0.178610
  18 H :   -0.372298
  19 H :   -0.189309
  20 H :   -0.197031
  21 H :   -0.176464
  22 H :   -0.208103
  23 H :   -0.195977
  24 H :   -0.198277
  25 H :   -0.192773
  26 H :   -0.223128

  Mayer bond orders larger than 0.100000
B(  0-C ,  1-C ) :   0.4728 B(  0-C ,  2-C ) :  -0.2696 B(  0-C ,  4-C ) :  -0.2124
B(  0-C ,  5-C ) :   0.9957 B(  0-C ,  6-C ) :   0.3497 B(  0-C ,  8-C ) :  -0.2010
B(  0-C , 22-H ) :   0.1449 B(  0-C , 26-H ) :   1.6450 B(  1-C ,  2-C ) :   0.4836
B(  1-C ,  3-C ) :   0.1507 B(  1-C ,  6-C ) :   0.3671 B(  1-C , 22-H ) :  -0.1310
B(  1-C , 24-H ) :   0.1429 B(  1-C , 26-H ) :  -0.1876 B(  2-C ,  3-C ) :   1.0718
B(  2-C ,  4-C ) :  -0.1733 B(  2-C ,  5-C ) :   0.1357 B(  2-C ,  6-C ) :   0.4217
B(  2-C , 22-H ) :   1.2493 B(  2-C , 24-H ) :   0.1237 B(  3-C ,  4-C ) :   1.1303
B(  3-C ,  5-C ) :   0.2032 B(  3-C , 23-H ) :   0.6688 B(  3-C , 24-H ) :  -0.1656
B(  4-C ,  5-C ) :   1.1846 B(  4-C ,  6-C ) :   0.1357 B(  4-C , 24-H ) :   0.8067
B(  5-C , 24-H ) :  -0.1815 B(  5-C , 25-H ) :   0.8131 B(  6-C ,  7-O ) :   0.5102
B(  6-C ,  8-C ) :   1.0934 B(  6-C ,  9-C ) :   0.1097 B(  6-C , 14-H ) :  -0.1515
B(  6-C , 22-H ) :  -0.1520 B(  8-C ,  9-C ) :   0.3553 B(  8-C , 14-H ) :   0.7686
B(  8-C , 15-H ) :   1.2086 B(  9-C , 10-C ) :  -0.4294 B(  9-C , 11-C ) :   0.8902
B( 10-C , 11-C ) :  -0.1351 B( 10-C , 18-H ) :   0.8731 B( 11-C , 12-O ) :   0.8437
B( 11-C , 16-H ) :   1.0039 B( 11-C , 17-H ) :   0.9016 B( 12-O , 13-C ) :   0.9112
B( 13-C , 19-H ) :   0.9148 B( 13-C , 20-H ) :   0.7546 B( 13-C , 21-H ) :   0.9750
B( 22-H , 26-H ) :   0.1133

MP2 TOTAL ENERGY:     -614.268106865 Eh
FINAL SINGLE POINT ENERGY      -614.268106865419

DIPOLE MOMENT
-------------
                                X             Y             Z
Electronic contribution:     -4.68011       4.34505      -1.37699
Nuclear contribution   :      3.24834      -6.91196       0.92169
                        -----------------------------------------
Total Dipole Moment    :     -1.43177      -2.56691      -0.45530
                        -----------------------------------------
Magnitude (a.u.)       :      2.97427
Magnitude (Debye)      :      7.56000

Rotational constants in cm-1:     0.033591     0.017317     0.013075
Rotational constants in MHz :  1007.029044   519.149345   391.973476

                             ****ORCA TERMINATED NORMALLY****
TOTAL RUN TIME: 0 days 0 hours 16 minutes 54 seconds 722 msec
