                         Program Version 4.2.1 -  RELEASE  -
|  1> %pal
|  2>  nprocs 32
|  3> end
|  4> !RI-MP2 aug-cc-pVTZ aug-cc-pVTZ/C TightSCF
|  5> %maxcore 4500
|  6> *xyzfile 1 1  03_30R1.xyz
|  7>
|  8>
|  9>                          ****END OF INPUT****

CARTESIAN COORDINATES (ANGSTROEM)
---------------------------------
  N     -1.244328   -0.000007   -0.000016
  C     -0.792083   -1.389852   -0.322454
  C      0.736225   -1.342192   -0.510587
  C      1.290792    0.000000    0.000019
  C     -0.792118    0.415690    1.364867
  C      0.736177    0.228912    1.417671
  C      2.811507    0.000016    0.000012
  H      3.202317   -0.220144   -0.995301
  C     -0.792124    0.974237   -1.042385
  C      0.736215    1.113232   -0.907105
  H     -1.335817   -1.688681   -1.216254
  H     -1.109523   -2.012112    0.512314
  H      0.989623   -1.470848   -1.563793
  H      1.187477   -2.171000    0.034890
  H     -1.335864   -0.208945    2.070553
  H     -1.109525    1.449759    1.486349
  H      0.989577   -0.618849    2.055712
  H      1.187435    1.115714    1.862698
  H      3.202340   -0.751863    0.688323
  H      3.202333    0.972058    0.306992
  H     -1.335804    1.897706   -0.854126
  H     -1.109643    0.562552   -1.998685
  H      0.989676    2.089688   -0.492016
  H      1.187421    1.055149   -1.897628
  F     -2.633252   -0.000044   -0.000015

 Total Charge           Charge          ....    1
 Multiplicity           Mult            ....    1
 Number of Electrons    NEL             ....   78
 Basis Dimension        Dim             ....  805

ORBITAL ENERGIES
----------------

  NO   OCC          E(Eh)            E(eV)
   0   2.0000     -26.528170      -721.8682
   1   2.0000     -15.948148      -433.9712
   2   2.0000     -11.459964      -311.8415
   3   2.0000     -11.459962      -311.8414
   4   2.0000     -11.459944      -311.8409
   5   2.0000     -11.406699      -310.3921
   6   2.0000     -11.396949      -310.1268
   7   2.0000     -11.396948      -310.1267
   8   2.0000     -11.396905      -310.1256
   9   2.0000     -11.354516      -308.9721
  10   2.0000      -1.845269       -50.2123
  11   2.0000      -1.478935       -40.2439
  12   2.0000      -1.280794       -34.8522
  13   2.0000      -1.228895       -33.4399
  14   2.0000      -1.228891       -33.4398
  15   2.0000      -1.111352       -30.2414
  16   2.0000      -1.066229       -29.0136
  17   2.0000      -1.066227       -29.0135
  18   2.0000      -1.013519       -27.5792
  19   2.0000      -0.944228       -25.6937
  20   2.0000      -0.908387       -24.7185
  21   2.0000      -0.908381       -24.7183
  22   2.0000      -0.868172       -23.6242
  23   2.0000      -0.846010       -23.0211
  24   2.0000      -0.846003       -23.0209
  25   2.0000      -0.766394       -20.8546
  26   2.0000      -0.763146       -20.7662
  27   2.0000      -0.763142       -20.7662
  28   2.0000      -0.762754       -20.7556
  29   2.0000      -0.742581       -20.2067
  30   2.0000      -0.742578       -20.2066
  31   2.0000      -0.718192       -19.5430
  32   2.0000      -0.718187       -19.5429
  33   2.0000      -0.667941       -18.1756
  34   2.0000      -0.667940       -18.1756
  35   2.0000      -0.658666       -17.9232
  36   2.0000      -0.625180       -17.0120
  37   2.0000      -0.611297       -16.6342
  38   2.0000      -0.611292       -16.6341
  39   0.0000      -0.077332        -2.1043
  40   0.0000      -0.064236        -1.7479
  41   0.0000      -0.064235        -1.7479
  42   0.0000      -0.058586        -1.5942
  43   0.0000      -0.045335        -1.2336

MULLIKEN ATOMIC CHARGES
-----------------------
   0 N :    1.332931
   1 C :   -0.660365
   2 C :   -0.757766
   3 C :    1.962278
   4 C :   -0.660393
   5 C :   -0.757784
   6 C :   -1.397508
   7 H :    0.272082
   8 C :   -0.660394
   9 C :   -0.757796
  10 H :    0.377650
  11 H :    0.145304
  12 H :    0.168260
  13 H :    0.363914
  14 H :    0.377665
  15 H :    0.145320
  16 H :    0.168324
  17 H :    0.363877
  18 H :    0.272110
  19 H :    0.272089
  20 H :    0.377651
  21 H :    0.145292
  22 H :    0.168360
  23 H :    0.363897
  24 F :   -0.624997
Sum of atomic charges:    1.0000000

LOEWDIN ATOMIC CHARGES
----------------------
   0 N :   -0.158415
   1 C :    0.323775
   2 C :    0.367652
   3 C :   -0.316951
   4 C :    0.323780
   5 C :    0.367651
   6 C :    0.629415
   7 H :   -0.139885
   8 C :    0.323791
   9 C :    0.367652
  10 H :   -0.112074
  11 H :   -0.110268
  12 H :   -0.117150
  13 H :   -0.116605
  14 H :   -0.112073
  15 H :   -0.110275
  16 H :   -0.117146
  17 H :   -0.116603
  18 H :   -0.139887
  19 H :   -0.139886
  20 H :   -0.112081
  21 H :   -0.110264
  22 H :   -0.117148
  23 H :   -0.116610
  24 F :    0.559607

  Mayer bond orders larger than 0.100000
B(  0-N ,  1-C ) :   0.7619 B(  0-N ,  3-C ) :   0.1262 B(  0-N ,  4-C ) :   0.7620
B(  0-N ,  8-C ) :   0.7618 B(  0-N , 24-F ) :   0.2799 B(  1-C ,  2-C ) :   0.9647
B(  1-C , 10-H ) :   0.8720 B(  1-C , 11-H ) :   1.1476 B(  1-C , 24-F ) :   0.1166
B(  2-C ,  3-C ) :   0.5132 B(  2-C ,  5-C ) :   0.2105 B(  2-C ,  9-C ) :   0.2105
B(  2-C , 12-H ) :   1.0934 B(  2-C , 13-H ) :   0.8956 B(  3-C ,  5-C ) :   0.5132
B(  3-C ,  6-C ) :   0.1578 B(  3-C ,  7-H ) :  -0.1096 B(  3-C ,  9-C ) :   0.5133
B(  3-C , 12-H ) :  -0.1002 B(  3-C , 16-H ) :  -0.1002 B(  3-C , 18-H ) :  -0.1096
B(  3-C , 19-H ) :  -0.1096 B(  3-C , 22-H ) :  -0.1002 B(  4-C ,  5-C ) :   0.9647
B(  4-C , 14-H ) :   0.8720 B(  4-C , 15-H ) :   1.1476 B(  4-C , 24-F ) :   0.1166
B(  5-C ,  9-C ) :   0.2104 B(  5-C , 16-H ) :   1.0933 B(  5-C , 17-H ) :   0.8956
B(  6-C ,  7-H ) :   1.0671 B(  6-C , 18-H ) :   1.0671 B(  6-C , 19-H ) :   1.0671
B(  8-C ,  9-C ) :   0.9647 B(  8-C , 20-H ) :   0.8721 B(  8-C , 21-H ) :   1.1476
B(  8-C , 24-F ) :   0.1166 B(  9-C , 22-H ) :   1.0932 B(  9-C , 23-H ) :   0.8956

MP2 TOTAL ENERGY:     -467.293939001 Eh
FINAL SINGLE POINT ENERGY      -467.293939001101

DIPOLE MOMENT
-------------
                                X             Y             Z
Electronic contribution:    -11.72160      -0.00019      -0.00002
Nuclear contribution   :     11.72359       0.00023       0.00004
                        -----------------------------------------
Total Dipole Moment    :      0.00199       0.00005       0.00002
                        -----------------------------------------
Magnitude (a.u.)       :      0.00199
Magnitude (Debye)      :      0.00506

Rotational constants in cm-1:     0.082182     0.036684     0.036684
Rotational constants in MHz :  2463.742736  1099.747685  1099.745496

                             ****ORCA TERMINATED NORMALLY****
TOTAL RUN TIME: 0 days 0 hours 10 minutes 47 seconds 938 msec
