                         Program Version 4.2.1 -  RELEASE  -
|  1> %pal
|  2>  nprocs 32
|  3> end
|  4> !RI-MP2 aug-cc-pVTZ aug-cc-pVTZ/C TightSCF
|  5> %maxcore 4500
|  6> *xyzfile 0 2  03_21R2.xyz
|  7>
|  8>
|  9>                          ****END OF INPUT****

CARTESIAN COORDINATES (ANGSTROEM)
---------------------------------
  O     -1.526802   -0.520161    0.000255
  C     -0.941977    0.500064    0.000076
  C      0.551295    0.730373   -0.000177
  C      1.378087   -0.551574   -0.000096
  H      0.762846    1.358322    0.869833
  H      0.762577    1.358034   -0.870464
  H      1.160798   -1.156585    0.880818
  H      2.443293   -0.314757   -0.000334
  H      1.160473   -1.156906   -0.880709

 Total Charge           Charge          ....    0
 Multiplicity           Mult            ....    2
 Number of Electrons    NEL             ....   31
 Basis Dimension        Dim             ....  299

ORBITAL ENERGIES
----------------
                 SPIN UP ORBITALS
  NO   OCC          E(Eh)            E(eV)
   0   1.0000     -20.594107      -560.3941
   1   1.0000     -11.335771      -308.4620
   2   1.0000     -11.265384      -306.5467
   3   1.0000     -11.233906      -305.6901
   4   1.0000      -1.442572       -39.2544
   5   1.0000      -1.077679       -29.3251
   6   1.0000      -0.915209       -24.9041
   7   1.0000      -0.760780       -20.7019
   8   1.0000      -0.685162       -18.6442
   9   1.0000      -0.647615       -17.6225
  10   1.0000      -0.632209       -17.2033
  11   1.0000      -0.562576       -15.3085
  12   1.0000      -0.554871       -15.0988
  13   1.0000      -0.530083       -14.4243
  14   1.0000      -0.510734       -13.8978
  15   1.0000      -0.357657        -9.7323
  16   0.0000       0.026375         0.7177
  17   0.0000       0.039546         1.0761
  18   0.0000       0.039877         1.0851
  19   0.0000       0.048247         1.3129
  20   0.0000       0.063654         1.7321

                 SPIN DOWN ORBITALS
  NO   OCC          E(Eh)            E(eV)
   0   1.0000     -20.583291      -560.0998
   1   1.0000     -11.316303      -307.9322
   2   1.0000     -11.259954      -306.3989
   3   1.0000     -11.232903      -305.6628
   4   1.0000      -1.415258       -38.5111
   5   1.0000      -1.060204       -28.8496
   6   1.0000      -0.894537       -24.3416
   7   1.0000      -0.728940       -19.8355
   8   1.0000      -0.643068       -17.4988
   9   1.0000      -0.636957       -17.3325
  10   1.0000      -0.566709       -15.4209
  11   1.0000      -0.554432       -15.0869
  12   1.0000      -0.534683       -14.5495
  13   1.0000      -0.511270       -13.9124
  14   1.0000      -0.492632       -13.4052
  15   0.0000       0.025653         0.6980
  16   0.0000       0.038597         1.0503
  17   0.0000       0.039683         1.0798
  18   0.0000       0.046279         1.2593
  19   0.0000       0.063747         1.7346

MULLIKEN ATOMIC CHARGES AND SPIN POPULATIONS
--------------------------------------------
   0 O :   -0.478126    0.168616
   1 C :   -0.007907    0.736066
   2 C :   -0.151758    0.057421
   3 C :   -0.840727    0.051600
   4 H :    0.294664   -0.010566
   5 H :    0.294659   -0.010564
   6 H :    0.297989   -0.000290
   7 H :    0.293209    0.008005
   8 H :    0.297996   -0.000289
Sum of atomic charges         :    0.0000000

LOEWDIN ATOMIC CHARGES AND SPIN POPULATIONS
-------------------------------------------
   0 O :    0.351426    0.247501
   1 C :   -0.215024    0.546483
   2 C :    0.188883    0.146707
   3 C :    0.556971    0.031311
   4 H :   -0.182193    0.008474
   5 H :   -0.182189    0.008474
   6 H :   -0.172500    0.001467
   7 H :   -0.172870    0.008116
   8 H :   -0.172502    0.001467

  Mayer bond orders larger than 0.100000
B(  0-O ,  1-C ) :   1.8788 B(  1-C ,  2-C ) :   0.6065 B(  2-C ,  3-C ) :   0.8897
B(  2-C ,  4-H ) :   0.9366 B(  2-C ,  5-H ) :   0.9366 B(  3-C ,  6-H ) :   0.9179
B(  3-C ,  7-H ) :   0.9345 B(  3-C ,  8-H ) :   0.9179

MP2 TOTAL ENERGY:     -192.130379187 Eh
FINAL SINGLE POINT ENERGY      -192.130379187356

DIPOLE MOMENT
-------------
                                X             Y             Z
Electronic contribution:     -5.34175       0.44359       0.00066
Nuclear contribution   :      6.39199       0.08152      -0.00087
                        -----------------------------------------
Total Dipole Moment    :      1.05024       0.52510      -0.00021
                        -----------------------------------------
Magnitude (a.u.)       :      1.17419
Magnitude (Debye)      :      2.98456

Rotational constants in cm-1:     0.625064     0.194299     0.156742
Rotational constants in MHz : 18738.933596  5824.928831  4699.005270

                             ****ORCA TERMINATED NORMALLY****
TOTAL RUN TIME: 0 days 0 hours 0 minutes 45 seconds 471 msec
