                         Program Version 4.2.1 -  RELEASE  -
|  1> %pal
|  2>  nprocs 32
|  3> end
|  4> !RI-MP2 aug-cc-pVTZ aug-cc-pVTZ/C TightSCF
|  5> %maxcore 4500
|  6> *xyzfile 0 1  06_30TS.xyz
|  7>
|  8>
|  9>                          ****END OF INPUT****

CARTESIAN COORDINATES (ANGSTROEM)
---------------------------------
  C      1.464571    2.484376    0.157466
  C      0.480151    1.860386    1.168136
  C     -0.897948    0.904185   -1.424954
  H      2.340174    1.837289    0.048701
  C     -0.812764    2.698229    1.295381
  H     -1.073186    2.780394    2.355545
  H     -0.614148    3.723006    0.963938
  H     -1.333241    0.415303   -2.299778
  H      0.992874    1.943797    2.130770
  C     -2.049641    2.147735    0.587386
  H     -2.325702    1.217499    1.085426
  H     -2.883527    2.833783    0.769630
  C     -1.980031    1.885449   -0.919628
  H     -2.959840    1.491812   -1.209431
  H     -1.884745    2.833709   -1.457889
  C      0.345617    1.616827   -1.998886
  H      1.133696    0.869543   -2.149727
  C      0.909043    2.800599   -1.223522
  H      1.709964    3.250542   -1.818958
  H      0.141067    3.574862   -1.140302
  H      0.081854    1.979349   -2.998572
  H      1.833045    3.422678    0.588893
  C     -0.556048   -0.230497   -0.420367
  H      0.173314   -0.862409   -0.950409
  Si    -1.981186   -1.493611   -0.320221
  C     -3.506265   -1.002839    0.675878
  H     -4.212503   -1.838416    0.658197
  H     -3.286506   -0.787758    1.723493
  H     -4.017687   -0.134009    0.258262
  C     -1.399284   -3.147456    0.380788
  H     -1.340077   -3.156416    1.472085
  H     -2.121518   -3.919623    0.101606
  H     -0.426878   -3.443742   -0.020030
  C     -2.571852   -1.844896   -2.075039
  H     -3.270695   -2.685745   -2.070120
  H     -3.089689   -0.993014   -2.521061
  H     -1.739764   -2.111178   -2.732202
  B      0.191759    0.286732    0.903669
  C      1.846038   -0.460656    1.322886
  H      2.394551    0.330019    1.810056
  C      0.733331   -1.079473    1.909762
  H      0.456112   -2.027884    1.469864
  C     -0.242177   -0.360953    2.591643
  H      0.000456    0.464532    3.243852
  H     -1.185637   -0.854632    2.781370
  C      2.554681   -1.191811    0.264876
  O      2.162516   -2.196522   -0.280530
  O      3.698734   -0.575119   -0.072399
  C      4.435973   -1.173755   -1.141072
  H      3.837136   -1.192533   -2.051585
  H      5.315984   -0.550486   -1.275103
  H      4.722545   -2.192950   -0.882737

 Total Charge           Charge          ....    0
 Multiplicity           Mult            ....    1
 Number of Electrons    NEL             ....  168
 Basis Dimension        Dim             .... 1683

ORBITAL ENERGIES
----------------

  NO   OCC          E(Eh)            E(eV)
   0   2.0000     -68.742364     -1870.5748
   1   2.0000     -20.604685      -560.6820
   2   2.0000     -20.539824      -558.9170
   3   2.0000     -11.380029      -309.6663
   4   2.0000     -11.292892      -307.2952
   5   2.0000     -11.285572      -307.0960
   6   2.0000     -11.246800      -306.0410
   7   2.0000     -11.244416      -305.9761
   8   2.0000     -11.214251      -305.1553
   9   2.0000     -11.208483      -304.9983
  10   2.0000     -11.207342      -304.9673
  11   2.0000     -11.206599      -304.9471
  12   2.0000     -11.204895      -304.9007
  13   2.0000     -11.204338      -304.8855
  14   2.0000     -11.203590      -304.8652
  15   2.0000     -11.200255      -304.7744
  16   2.0000     -11.190205      -304.5010
  17   2.0000     -11.188344      -304.4503
  18   2.0000     -11.185396      -304.3701
  19   2.0000     -11.175471      -304.1000
  20   2.0000      -7.600008      -206.8067
  21   2.0000      -6.089109      -165.6931
  22   2.0000      -4.195447      -114.1639
  23   2.0000      -4.195400      -114.1627
  24   2.0000      -4.195002      -114.1518
  25   2.0000      -1.464251       -39.8443
  26   2.0000      -1.360141       -37.0113
  27   2.0000      -1.160255       -31.5721
  28   2.0000      -1.105408       -30.0797
  29   2.0000      -1.042038       -28.3553
  30   2.0000      -1.037346       -28.2276
  31   2.0000      -1.015120       -27.6228
  32   2.0000      -0.967094       -26.3160
  33   2.0000      -0.949661       -25.8416
  34   2.0000      -0.943844       -25.6833
  35   2.0000      -0.917204       -24.9584
  36   2.0000      -0.912927       -24.8420
  37   2.0000      -0.909335       -24.7443
  38   2.0000      -0.869661       -23.6647
  39   2.0000      -0.819604       -22.3026
  40   2.0000      -0.795986       -21.6599
  41   2.0000      -0.782314       -21.2879
  42   2.0000      -0.760339       -20.6899
  43   2.0000      -0.733541       -19.9607
  44   2.0000      -0.704061       -19.1585
  45   2.0000      -0.684043       -18.6138
  46   2.0000      -0.676715       -18.4143
  47   2.0000      -0.661077       -17.9888
  48   2.0000      -0.640413       -17.4265
  49   2.0000      -0.631375       -17.1806
  50   2.0000      -0.626159       -17.0386
  51   2.0000      -0.616001       -16.7622
  52   2.0000      -0.612515       -16.6674
  53   2.0000      -0.593346       -16.1458
  54   2.0000      -0.585292       -15.9266
  55   2.0000      -0.573998       -15.6193
  56   2.0000      -0.568071       -15.4580
  57   2.0000      -0.566532       -15.4161
  58   2.0000      -0.558512       -15.1979
  59   2.0000      -0.555346       -15.1117
  60   2.0000      -0.552480       -15.0337
  61   2.0000      -0.550356       -14.9759
  62   2.0000      -0.539845       -14.6899
  63   2.0000      -0.533598       -14.5199
  64   2.0000      -0.530091       -14.4245
  65   2.0000      -0.527479       -14.3534
  66   2.0000      -0.524197       -14.2641
  67   2.0000      -0.516551       -14.0561
  68   2.0000      -0.495752       -13.4901
  69   2.0000      -0.484722       -13.1899
  70   2.0000      -0.480325       -13.0703
  71   2.0000      -0.471031       -12.8174
  72   2.0000      -0.466333       -12.6896
  73   2.0000      -0.458670       -12.4810
  74   2.0000      -0.456987       -12.4352
  75   2.0000      -0.447892       -12.1877
  76   2.0000      -0.434986       -11.8366
  77   2.0000      -0.424479       -11.5507
  78   2.0000      -0.421980       -11.4827
  79   2.0000      -0.412150       -11.2152
  80   2.0000      -0.401549       -10.9267
  81   2.0000      -0.396317       -10.7843
  82   2.0000      -0.380262       -10.3475
  83   2.0000      -0.341326        -9.2879
  84   0.0000       0.021945         0.5972
  85   0.0000       0.027819         0.7570
  86   0.0000       0.029120         0.7924
  87   0.0000       0.030732         0.8363
  88   0.0000       0.038807         1.0560

MULLIKEN ATOMIC CHARGES
-----------------------
   0 C :   -0.930099
   1 C :    0.788779
   2 C :   -0.529631
   3 H :    0.205611
   4 C :   -0.857929
   5 H :    0.062944
   6 H :   -0.071711
   7 H :    0.078473
   8 H :   -0.019823
   9 C :   -0.418499
  10 H :    0.214465
  11 H :    0.542097
  12 C :   -0.627061
  13 H :   -0.105879
  14 H :    0.126093
  15 C :   -0.927563
  16 H :    0.252856
  17 C :   -0.432542
  18 H :    0.441382
  19 H :   -0.054278
  20 H :    0.025969
  21 H :    0.118076
  22 C :    1.767350
  23 H :    0.704350
  24 Si:    2.817460
  25 C :   -1.234541
  26 H :    0.089023
  27 H :    0.193878
  28 H :    0.190430
  29 C :   -1.838689
  30 H :    0.220385
  31 H :   -0.052141
  32 H :    0.268793
  33 C :   -1.983236
  34 H :   -0.083810
  35 H :    0.285970
  36 H :    0.189462
  37 B :    1.128976
  38 C :    0.299416
  39 H :    0.465821
  40 C :   -0.830421
  41 H :    0.781112
  42 C :   -0.988865
  43 H :    0.216290
  44 H :    0.353930
  45 C :    0.805718
  46 O :   -1.229708
  47 O :   -0.482675
  48 C :   -1.093606
  49 H :    0.408906
  50 H :    0.349025
  51 H :    0.399667
Sum of atomic charges:    0.0000000

LOEWDIN ATOMIC CHARGES
----------------------
   0 C :    0.318164
   1 C :    0.139297
   2 C :    0.003249
   3 H :   -0.154575
   4 C :    0.334031
   5 H :   -0.132669
   6 H :   -0.143799
   7 H :   -0.180103
   8 H :   -0.168131
   9 C :    0.317497
  10 H :   -0.198998
  11 H :   -0.123699
  12 C :    0.336845
  13 H :   -0.146286
  14 H :   -0.142742
  15 C :    0.332905
  16 H :   -0.133053
  17 C :    0.306566
  18 H :   -0.132293
  19 H :   -0.163090
  20 H :   -0.132474
  21 H :   -0.126919
  22 C :    0.183871
  23 H :   -0.237664
  24 Si:    0.541672
  25 C :    0.595968
  26 H :   -0.218671
  27 H :   -0.233269
  28 H :   -0.230575
  29 C :    0.597282
  30 H :   -0.228611
  31 H :   -0.220855
  32 H :   -0.219581
  33 C :    0.594060
  34 H :   -0.225408
  35 H :   -0.227435
  36 H :   -0.213826
  37 B :   -0.674686
  38 C :    0.202133
  39 H :   -0.155967
  40 C :    0.186815
  41 H :   -0.188604
  42 C :    0.573645
  43 H :   -0.154394
  44 H :   -0.155666
  45 C :   -0.809907
  46 O :    0.507234
  47 O :    0.582031
  48 C :    0.360547
  49 H :   -0.177848
  50 H :   -0.183706
  51 H :   -0.178310

  Mayer bond orders larger than 0.100000
B(  0-C ,  1-C ) :   0.5499 B(  0-C ,  3-H ) :   0.9752 B(  0-C ,  8-H ) :  -0.1538
B(  0-C , 17-C ) :   0.7983 B(  0-C , 21-H ) :   1.2167 B(  0-C , 37-B ) :   0.3528
B(  1-C ,  2-C ) :   0.2014 B(  1-C ,  4-C ) :   0.5232 B(  1-C ,  5-H ) :  -0.1024
B(  1-C ,  6-H ) :  -0.1475 B(  1-C ,  8-H ) :   1.3159 B(  1-C ,  9-C ) :   0.1000
B(  1-C , 17-C ) :   0.1425 B(  1-C , 21-H ) :  -0.1342 B(  1-C , 37-B ) :   0.4395
B(  1-C , 42-C ) :   0.1773 B(  1-C , 43-H ) :   0.1206 B(  2-C ,  7-H ) :   1.2505
B(  2-C , 12-C ) :   1.0588 B(  2-C , 15-C ) :   0.7849 B(  2-C , 17-C ) :   0.1461
B(  2-C , 20-H ) :  -0.1193 B(  2-C , 22-C ) :   1.3317 B(  2-C , 23-H ) :  -0.2998
B(  2-C , 24-Si) :  -0.1466 B(  2-C , 29-C ) :   0.1203 B(  2-C , 33-C ) :   0.1290
B(  2-C , 36-H ) :   0.1099 B(  2-C , 37-B ) :  -0.1843 B(  4-C ,  5-H ) :   1.2908
B(  4-C ,  6-H ) :   1.3410 B(  4-C ,  8-H ) :  -0.1148 B(  4-C ,  9-C ) :   0.7680
B(  4-C , 10-H ) :   0.1637 B(  4-C , 11-H ) :  -0.1637 B(  4-C , 12-C ) :   0.1132
B(  4-C , 37-B ) :   0.1278 B(  5-H , 37-B ) :  -0.1245 B(  7-H , 12-C ) :  -0.2336
B(  7-H , 15-C ) :  -0.2139 B(  7-H , 22-C ) :  -0.3522 B(  7-H , 24-Si) :   0.1152
B(  7-H , 33-C ) :   0.2295 B(  7-H , 37-B ) :  -0.2513 B(  8-H , 22-C ) :   0.1109
B(  8-H , 37-B ) :  -1.0772 B(  8-H , 42-C ) :   0.1921 B(  8-H , 43-H ) :   0.1386
B(  9-C , 10-H ) :   1.0825 B(  9-C , 11-H ) :   0.7788 B(  9-C , 12-C ) :   0.7694
B( 10-H , 12-C ) :   0.1207 B( 11-H , 12-C ) :  -0.1723 B( 12-C , 13-H ) :   1.3753
B( 12-C , 14-H ) :   1.0463 B( 15-C , 16-H ) :   1.0386 B( 15-C , 17-C ) :   0.7410
B( 15-C , 19-H ) :   0.1016 B( 15-C , 20-H ) :   1.2956 B( 15-C , 22-C ) :   0.2197
B( 15-C , 37-B ) :  -0.1716 B( 17-C , 18-H ) :   0.7658 B( 17-C , 19-H ) :   1.3133
B( 17-C , 20-H ) :  -0.1180 B( 17-C , 37-B ) :  -0.1249 B( 22-C , 23-H ) :   0.4168
B( 22-C , 24-Si) :   1.5672 B( 22-C , 29-C ) :  -0.7807 B( 22-C , 31-H ) :  -0.1422
B( 22-C , 33-C ) :  -0.7819 B( 22-C , 34-H ) :  -0.2264 B( 22-C , 36-H ) :  -0.1686
B( 22-C , 37-B ) :   1.4331 B( 22-C , 38-C ) :   0.1284 B( 22-C , 40-C ) :  -0.2605
B( 22-C , 41-H ) :  -0.2214 B( 22-C , 46-O ) :   0.1241 B( 23-H , 24-Si) :  -0.6858
B( 23-H , 46-O ) :  -0.2313 B( 24-Si, 26-H ) :  -0.1898 B( 24-Si, 27-H ) :   0.1016
B( 24-Si, 29-C ) :  -0.6421 B( 24-Si, 31-H ) :  -0.2483 B( 24-Si, 32-H ) :  -0.1133
B( 24-Si, 33-C ) :  -1.1444 B( 24-Si, 34-H ) :  -0.2427 B( 24-Si, 36-H ) :  -0.1843
B( 24-Si, 37-B ) :   0.3037 B( 25-C , 26-H ) :   1.0526 B( 25-C , 27-H ) :   1.1148
B( 25-C , 28-H ) :   1.0886 B( 25-C , 29-C ) :   0.1153 B( 25-C , 33-C ) :   0.1799
B( 27-H , 28-H ) :   0.1251 B( 29-C , 30-H ) :   1.0864 B( 29-C , 31-H ) :   1.3828
B( 29-C , 32-H ) :   1.1390 B( 29-C , 33-C ) :   0.2382 B( 29-C , 37-B ) :   0.5417
B( 30-H , 32-H ) :   0.1109 B( 30-H , 37-B ) :  -0.1052 B( 31-H , 33-C ) :   0.1098
B( 31-H , 37-B ) :   0.1402 B( 33-C , 34-H ) :   1.5426 B( 33-C , 35-H ) :   1.0338
B( 33-C , 36-H ) :   1.2672 B( 33-C , 37-B ) :   0.2005 B( 37-B , 39-H ) :  -0.2466
B( 37-B , 40-C ) :  -0.4446 B( 37-B , 42-C ) :  -0.4390 B( 37-B , 43-H ) :  -0.2256
B( 37-B , 45-C ) :   0.4834 B( 37-B , 46-O ) :  -0.1278 B( 38-C , 39-H ) :   0.8829
B( 38-C , 40-C ) :   1.5487 B( 38-C , 41-H ) :  -0.2622 B( 38-C , 42-C ) :  -0.2577
B( 38-C , 45-C ) :   0.7722 B( 38-C , 46-O ) :  -0.1206 B( 38-C , 47-O ) :  -0.1920
B( 39-H , 45-C ) :  -0.2620 B( 40-C , 42-C ) :   1.4874 B( 40-C , 43-H ) :  -0.1972
B( 40-C , 46-O ) :   0.1318 B( 41-H , 42-C ) :  -0.1163 B( 41-H , 45-C ) :  -0.1710
B( 41-H , 46-O ) :   0.1685 B( 42-C , 43-H ) :   1.0943 B( 42-C , 44-H ) :   1.0194
B( 45-C , 46-O ) :   0.6961 B( 45-C , 47-O ) :   0.8363 B( 45-C , 48-C ) :  -0.1324
B( 47-O , 48-C ) :   1.0033 B( 48-C , 49-H ) :   0.8452 B( 48-C , 50-H ) :   0.9375
B( 48-C , 51-H ) :   0.8809

MP2 TOTAL ENERGY:    -1129.135051703 Eh
FINAL SINGLE POINT ENERGY     -1129.135051702617

DIPOLE MOMENT
-------------
                                X             Y             Z
Electronic contribution:     13.30938      -5.92641       5.41737
Nuclear contribution   :    -12.95154       6.21420      -4.97539
                        -----------------------------------------
Total Dipole Moment    :      0.35784       0.28779       0.44198
                        -----------------------------------------
Magnitude (a.u.)       :      0.63735
Magnitude (Debye)      :      1.62001

Rotational constants in cm-1:     0.011743     0.009151     0.007232
Rotational constants in MHz :   352.032646   274.340498   216.799837

                             ****ORCA TERMINATED NORMALLY****
TOTAL RUN TIME: 0 days 2 hours 14 minutes 9 seconds 415 msec
