                         Program Version 4.2.1 -  RELEASE  -
|  1> %pal
|  2>  nprocs 32
|  3> end
|  4> !RI-MP2 aug-cc-pVTZ aug-cc-pVTZ/C TightSCF
|  5> %maxcore 4500
|  6> *xyzfile 0 1  10_57TS.xyz
|  7>
|  8>
|  9>                          ****END OF INPUT****

CARTESIAN COORDINATES (ANGSTROEM)
---------------------------------
  C     -1.079070    0.733447    0.170644
  C     -0.343492    0.845373   -1.095071
  C     -0.432830    0.767279    1.428770
  C      0.701686    1.811735   -1.290498
  C      0.789733    1.345387    1.773201
  C      1.602735    2.294316   -0.391224
  C      1.697339    2.014304    0.986236
  H      0.816627    2.147033   -2.316421
  H      2.352960    2.972326   -0.785950
  H      2.553782    2.438892    1.499014
  H      1.035935    1.283142    2.828438
  C      0.468799   -1.751337    0.834406
  H     -1.042799    0.448613    2.265646
  C      0.389208   -0.950233   -1.346076
  H     -1.007629    0.812670   -1.950252
  C      1.295009   -1.128366   -0.175092
  C     -0.727930   -1.793884   -1.090592
  H      0.772351   -0.833303   -2.350291
  C     -0.690628   -2.221165    0.235799
  H      0.762065   -1.947433    1.853498
  H     -1.524830   -1.992060   -1.792838
  H     -1.469049   -2.781675    0.733388
  C      2.611257   -0.845251   -0.098955
  C      3.426027   -1.132411    1.125200
  C      3.397324   -0.338522   -1.268353
  H      2.771286    0.002229   -2.088578
  H      4.047550   -1.136570   -1.643378
  H      4.048574    0.484802   -0.967405
  H      2.822551   -1.407117    1.986553
  H      4.026470   -0.259115    1.390244
  H      4.126743   -1.949705    0.925377
  C     -2.417195    0.357238    0.091920
  C     -3.105482    0.277021   -1.146083
  N     -3.645793    0.213134   -2.162082
  C     -3.160079    0.036209    1.257975
  N     -3.729501   -0.243073    2.219183

 Total Charge           Charge          ....    0
 Multiplicity           Mult            ....    1
 Number of Electrons    NEL             ....  138
 Basis Dimension        Dim             .... 1288

ORBITAL ENERGIES
----------------

  NO   OCC          E(Eh)            E(eV)
   0   2.0000     -15.552097      -423.1941
   1   2.0000     -15.551393      -423.1749
   2   2.0000     -11.300236      -307.4951
   3   2.0000     -11.297834      -307.4297
   4   2.0000     -11.293486      -307.3114
   5   2.0000     -11.284803      -307.0751
   6   2.0000     -11.277089      -306.8652
   7   2.0000     -11.275506      -306.8221
   8   2.0000     -11.268828      -306.6404
   9   2.0000     -11.266438      -306.5754
  10   2.0000     -11.263029      -306.4826
  11   2.0000     -11.261482      -306.4405
  12   2.0000     -11.260198      -306.4056
  13   2.0000     -11.258490      -306.3591
  14   2.0000     -11.257134      -306.3222
  15   2.0000     -11.255882      -306.2881
  16   2.0000     -11.255226      -306.2703
  17   2.0000     -11.252989      -306.2094
  18   2.0000     -11.252006      -306.1827
  19   2.0000     -11.250694      -306.1470
  20   2.0000      -1.225767       -33.3548
  21   2.0000      -1.210170       -32.9304
  22   2.0000      -1.203810       -32.7573
  23   2.0000      -1.166088       -31.7309
  24   2.0000      -1.123163       -30.5628
  25   2.0000      -1.106224       -30.1019
  26   2.0000      -1.078827       -29.3564
  27   2.0000      -1.018998       -27.7284
  28   2.0000      -1.000232       -27.2177
  29   2.0000      -0.984385       -26.7865
  30   2.0000      -0.973824       -26.4991
  31   2.0000      -0.923328       -25.1250
  32   2.0000      -0.896765       -24.4022
  33   2.0000      -0.854521       -23.2527
  34   2.0000      -0.787106       -21.4183
  35   2.0000      -0.768037       -20.8993
  36   2.0000      -0.765242       -20.8233
  37   2.0000      -0.749048       -20.3826
  38   2.0000      -0.727130       -19.7862
  39   2.0000      -0.709881       -19.3168
  40   2.0000      -0.700422       -19.0594
  41   2.0000      -0.657541       -17.8926
  42   2.0000      -0.640737       -17.4353
  43   2.0000      -0.633845       -17.2478
  44   2.0000      -0.622275       -16.9330
  45   2.0000      -0.615221       -16.7410
  46   2.0000      -0.606932       -16.5155
  47   2.0000      -0.592133       -16.1127
  48   2.0000      -0.580747       -15.8029
  49   2.0000      -0.573075       -15.5942
  50   2.0000      -0.570138       -15.5142
  51   2.0000      -0.562718       -15.3123
  52   2.0000      -0.549125       -14.9425
  53   2.0000      -0.548589       -14.9279
  54   2.0000      -0.545287       -14.8380
  55   2.0000      -0.538653       -14.6575
  56   2.0000      -0.529357       -14.4045
  57   2.0000      -0.523761       -14.2523
  58   2.0000      -0.519930       -14.1480
  59   2.0000      -0.503376       -13.6976
  60   2.0000      -0.474383       -12.9086
  61   2.0000      -0.468292       -12.7429
  62   2.0000      -0.465161       -12.6577
  63   2.0000      -0.447789       -12.1850
  64   2.0000      -0.436102       -11.8670
  65   2.0000      -0.402306       -10.9473
  66   2.0000      -0.355920        -9.6851
  67   2.0000      -0.312782        -8.5112
  68   2.0000      -0.259020        -7.0483
  69   0.0000       0.003489         0.0949
  70   0.0000       0.012478         0.3396
  71   0.0000       0.021044         0.5726
  72   0.0000       0.024422         0.6646
  73   0.0000       0.029214         0.7949

MULLIKEN ATOMIC CHARGES
-----------------------
   0 C :    0.016454
   1 C :    0.946413
   2 C :   -0.470025
   3 C :   -0.615301
   4 C :    0.002853
   5 C :   -0.495787
   6 C :   -0.109202
   7 H :   -0.221944
   8 H :    0.097369
   9 H :    0.033097
  10 H :    0.032658
  11 C :   -0.505625
  12 H :   -0.409594
  13 C :   -0.321524
  14 H :    0.160445
  15 C :    0.282529
  16 C :   -0.904616
  17 H :    0.356074
  18 C :   -0.890866
  19 H :    0.243001
  20 H :    0.595917
  21 H :    0.645158
  22 C :    2.007069
  23 C :   -1.325833
  24 C :   -1.256570
  25 H :    0.345707
  26 H :    0.207212
  27 H :    0.184938
  28 H :    0.336579
  29 H :    0.190303
  30 H :    0.218247
  31 C :    0.637777
  32 C :    0.845777
  33 N :   -1.108216
  34 C :    1.372217
  35 N :   -1.122692
Sum of atomic charges:    0.0000000

LOEWDIN ATOMIC CHARGES
----------------------
   0 C :   -0.149930
   1 C :    0.137196
   2 C :    0.225778
   3 C :    0.238231
   4 C :    0.205206
   5 C :    0.192722
   6 C :    0.200165
   7 H :   -0.167765
   8 H :   -0.174583
   9 H :   -0.185591
  10 H :   -0.170523
  11 C :    0.249346
  12 H :   -0.203817
  13 C :    0.139796
  14 H :   -0.205133
  15 C :   -0.122233
  16 C :    0.245881
  17 H :   -0.146692
  18 C :    0.239309
  19 H :   -0.150440
  20 H :   -0.142197
  21 H :   -0.149113
  22 C :   -0.059774
  23 C :    0.600128
  24 C :    0.596799
  25 H :   -0.188014
  26 H :   -0.143383
  27 H :   -0.155409
  28 H :   -0.183720
  29 H :   -0.157197
  30 H :   -0.146674
  31 C :   -0.242419
  32 C :   -0.305976
  33 N :    0.290681
  34 C :   -0.295698
  35 N :    0.285045

  Mayer bond orders larger than 0.100000
B(  0-C ,  1-C ) :   1.0213 B(  0-C ,  2-C ) :   0.8237 B(  0-C ,  3-C ) :   0.2785
B(  0-C ,  4-C ) :   0.3994 B(  0-C ,  7-H ) :   0.1817 B(  0-C ,  8-H ) :  -0.2551
B(  0-C ,  9-H ) :   0.2125 B(  0-C , 10-H ) :  -0.1638 B(  0-C , 11-C ) :  -0.2380
B(  0-C , 12-H ) :   0.3180 B(  0-C , 13-C ) :   0.1160 B(  0-C , 14-H ) :   0.1020
B(  0-C , 15-C ) :   0.2192 B(  0-C , 32-C ) :   0.8053 B(  0-C , 33-N ) :  -0.1878
B(  0-C , 34-C ) :   0.1678 B(  1-C ,  2-C ) :  -0.1377 B(  1-C ,  4-C ) :   0.2401
B(  1-C ,  7-H ) :  -0.3393 B(  1-C , 11-C ) :   0.1937 B(  1-C , 12-H ) :  -0.1377
B(  1-C , 13-C ) :   0.4370 B(  1-C , 14-H ) :   1.1381 B(  1-C , 15-C ) :   0.1219
B(  1-C , 16-C ) :  -0.1202 B(  1-C , 18-C ) :   0.1764 B(  1-C , 31-C ) :   0.1600
B(  1-C , 33-N ) :   0.1598 B(  2-C ,  3-C ) :  -0.1667 B(  2-C ,  4-C ) :   0.5038
B(  2-C , 10-H ) :  -0.1347 B(  2-C , 11-C ) :   0.2214 B(  2-C , 12-H ) :   2.0165
B(  2-C , 15-C ) :   0.1596 B(  2-C , 22-C ) :  -0.2114 B(  2-C , 31-C ) :   0.4776
B(  3-C ,  4-C ) :   0.2315 B(  3-C ,  5-C ) :   1.3114 B(  3-C ,  6-C ) :   0.2026
B(  3-C ,  7-H ) :   1.7132 B(  3-C ,  8-H ) :  -0.2209 B(  3-C , 14-H ) :  -0.1949
B(  3-C , 15-C ) :  -0.1123 B(  4-C ,  6-C ) :   1.0281 B(  4-C ,  9-H ) :  -0.2555
B(  4-C , 10-H ) :   1.2687 B(  4-C , 12-H ) :  -0.1265 B(  4-C , 31-C ) :  -0.1275
B(  5-C ,  6-C ) :   1.0803 B(  5-C ,  7-H ) :  -0.2138 B(  5-C ,  8-H ) :   1.2584
B(  5-C ,  9-H ) :  -0.1355 B(  6-C ,  8-H ) :  -0.1109 B(  6-C ,  9-H ) :   1.3378
B(  6-C , 10-H ) :  -0.1124 B(  7-H , 31-C ) :  -0.1797 B(  8-H , 15-C ) :  -0.1291
B(  8-H , 31-C ) :   0.2593 B(  9-H , 31-C ) :  -0.1985 B( 10-H , 31-C ) :   0.2639
B( 11-C , 15-C ) :  -0.3779 B( 11-C , 18-C ) :   1.2762 B( 11-C , 19-H ) :   1.4070
B( 11-C , 22-C ) :   0.9089 B( 12-H , 22-C ) :   0.1003 B( 12-H , 31-C ) :  -0.8712
B( 12-H , 32-C ) :   0.3017 B( 13-C , 15-C ) :   1.6854 B( 13-C , 16-C ) :   1.0001
B( 13-C , 17-H ) :   0.8245 B( 13-C , 19-H ) :   0.1523 B( 13-C , 22-C ) :  -0.5512
B( 13-C , 32-C ) :   0.1064 B( 14-H , 16-C ) :   0.2000 B( 14-H , 31-C ) :  -0.2081
B( 15-C , 16-C ) :  -0.1550 B( 15-C , 17-H ) :  -0.2445 B( 15-C , 18-C ) :   0.5216
B( 15-C , 19-H ) :   0.5358 B( 15-C , 20-H ) :   0.2228 B( 15-C , 21-H ) :  -0.4142
B( 15-C , 24-C ) :   0.2838 B( 15-C , 31-C ) :  -0.1698 B( 16-C , 17-H ) :  -0.3546
B( 16-C , 18-C ) :   1.1491 B( 16-C , 20-H ) :   0.6377 B( 16-C , 22-C ) :  -0.1059
B( 16-C , 31-C ) :   0.1263 B( 17-H , 22-C ) :   0.1296 B( 18-C , 20-H ) :  -0.1219
B( 18-C , 21-H ) :   0.4913 B( 18-C , 22-C ) :  -0.1648 B( 19-H , 22-C ) :  -0.7188
B( 19-H , 24-C ) :  -0.1258 B( 20-H , 22-C ) :  -0.2137 B( 21-H , 22-C ) :   0.3859
B( 22-C , 23-C ) :   0.1095 B( 22-C , 24-C ) :   0.1178 B( 22-C , 27-H ) :  -0.1159
B( 22-C , 29-H ) :  -0.1466 B( 22-C , 30-H ) :  -0.1192 B( 22-C , 31-C ) :   0.2020
B( 23-C , 24-C ) :   0.1230 B( 23-C , 28-H ) :   0.9377 B( 23-C , 29-H ) :   1.2309
B( 23-C , 30-H ) :   1.1496 B( 24-C , 25-H ) :   0.9932 B( 24-C , 26-H ) :   1.0959
B( 24-C , 27-H ) :   1.1950 B( 31-C , 32-C ) :   0.2999 B( 31-C , 33-N ) :   0.6938
B( 31-C , 34-C ) :   0.9881 B( 31-C , 35-N ) :   0.7848 B( 32-C , 33-N ) :   1.0342
B( 32-C , 34-C ) :  -0.3241 B( 34-C , 35-N ) :   0.8359

MP2 TOTAL ENERGY:     -803.281126874 Eh
FINAL SINGLE POINT ENERGY      -803.281126873676

DIPOLE MOMENT
-------------
                                X             Y             Z
Electronic contribution:    -20.54680       1.30644       0.21773
Nuclear contribution   :     24.93711      -1.70975      -0.41077
                        -----------------------------------------
Total Dipole Moment    :      4.39031      -0.40331      -0.19305
                        -----------------------------------------
Magnitude (a.u.)       :      4.41302
Magnitude (Debye)      :     11.21701

Rotational constants in cm-1:     0.019968     0.009943     0.009826
Rotational constants in MHz :   598.615418   298.078133   294.589580

                             ****ORCA TERMINATED NORMALLY****
TOTAL RUN TIME: 0 days 1 hours 13 minutes 23 seconds 861 msec
