                         Program Version 4.2.1 -  RELEASE  -
|  1> %pal
|  2>  nprocs 32
|  3> end
|  4> !RI-MP2 aug-cc-pVTZ aug-cc-pVTZ/C TightSCF
|  5> %maxcore 4500
|  6> *xyzfile 0 1  10_51R.xyz
|  7>
|  8>
|  9>                          ****END OF INPUT****

CARTESIAN COORDINATES (ANGSTROEM)
---------------------------------
  C      0.194598    1.436983    1.313328
  N     -0.315486    0.104184    1.024352
  C      0.356475   -1.046228    1.606407
  C      1.392691   -1.716861    0.701482
  C      2.458330   -0.731874    0.263187
  C      2.075704    0.297969   -0.863321
  C      2.033484    1.771485   -0.491718
  C      0.694493    2.222932    0.094542
  C      3.562929   -1.168902   -0.677184
  C      3.282891   -0.249419   -1.599500
  C     -1.522071   -0.054036    0.362950
  C     -2.355884    1.040975    0.076453
  C     -3.567983    0.865780   -0.571328
  C     -3.999171   -0.392715   -0.963733
  C     -3.181630   -1.480926   -0.694146
  C     -1.965893   -1.322712   -0.050356
  H     -0.577342    2.024173    1.825281
  H      1.010263    1.325361    2.029452
  H      0.859928   -0.707633    2.516684
  H     -0.393411   -1.772552    1.927958
  H      1.849569   -2.543451    1.257226
  H      0.912844   -2.152216   -0.180106
  H      2.232261    2.371801   -1.385683
  H      2.849172    1.989391    0.207874
  H      0.772193    3.275465    0.385899
  H     -0.065749    2.177598   -0.689069
  H     -2.067062    2.039993    0.366946
  H     -4.184738    1.735258   -0.768274
  H     -4.945826   -0.521862   -1.472293
  H     -3.487120   -2.476160   -0.996241
  H     -1.352561   -2.195816    0.117710
  H      3.732183    0.013997   -2.550201
  H      4.314349   -1.946163   -0.600912
  H      1.136692    0.012664   -1.348130
  H      2.858988   -0.213852    1.143032

 Total Charge           Charge          ....    0
 Multiplicity           Mult            ....    1
 Number of Electrons    NEL             ....  116
 Basis Dimension        Dim             .... 1173

ORBITAL ENERGIES
----------------

  NO   OCC          E(Eh)            E(eV)
   0   2.0000     -15.560920      -423.4342
   1   2.0000     -11.274446      -306.7933
   2   2.0000     -11.257953      -306.3445
   3   2.0000     -11.257391      -306.3292
   4   2.0000     -11.228376      -305.5396
   5   2.0000     -11.227796      -305.5239
   6   2.0000     -11.227751      -305.5226
   7   2.0000     -11.225297      -305.4559
   8   2.0000     -11.224501      -305.4342
   9   2.0000     -11.222813      -305.3883
  10   2.0000     -11.218687      -305.2760
  11   2.0000     -11.218571      -305.2728
  12   2.0000     -11.217387      -305.2406
  13   2.0000     -11.215005      -305.1758
  14   2.0000     -11.214861      -305.1719
  15   2.0000     -11.210383      -305.0500
  16   2.0000      -1.257694       -34.2236
  17   2.0000      -1.160734       -31.5852
  18   2.0000      -1.133174       -30.8352
  19   2.0000      -1.067474       -29.0474
  20   2.0000      -1.032181       -28.0871
  21   2.0000      -1.007904       -27.4265
  22   2.0000      -0.989572       -26.9276
  23   2.0000      -0.950591       -25.8669
  24   2.0000      -0.896055       -24.3829
  25   2.0000      -0.860348       -23.4113
  26   2.0000      -0.823507       -22.4088
  27   2.0000      -0.813506       -22.1366
  28   2.0000      -0.790697       -21.5160
  29   2.0000      -0.772088       -21.0096
  30   2.0000      -0.710172       -19.3248
  31   2.0000      -0.705471       -19.1968
  32   2.0000      -0.671737       -18.2789
  33   2.0000      -0.658770       -17.9260
  34   2.0000      -0.646853       -17.6018
  35   2.0000      -0.634198       -17.2574
  36   2.0000      -0.619775       -16.8649
  37   2.0000      -0.602725       -16.4010
  38   2.0000      -0.590663       -16.0728
  39   2.0000      -0.575947       -15.6723
  40   2.0000      -0.569324       -15.4921
  41   2.0000      -0.567522       -15.4431
  42   2.0000      -0.551609       -15.0100
  43   2.0000      -0.545463       -14.8428
  44   2.0000      -0.529078       -14.3969
  45   2.0000      -0.518411       -14.1067
  46   2.0000      -0.500639       -13.6231
  47   2.0000      -0.496770       -13.5178
  48   2.0000      -0.481099       -13.0914
  49   2.0000      -0.477362       -12.9897
  50   2.0000      -0.473611       -12.8876
  51   2.0000      -0.462947       -12.5974
  52   2.0000      -0.438395       -11.9293
  53   2.0000      -0.422813       -11.5053
  54   2.0000      -0.393723       -10.7137
  55   2.0000      -0.349609        -9.5134
  56   2.0000      -0.332176        -9.0390
  57   2.0000      -0.275466        -7.4958
  58   0.0000       0.026394         0.7182
  59   0.0000       0.029288         0.7970
  60   0.0000       0.031611         0.8602
  61   0.0000       0.032158         0.8751
  62   0.0000       0.039945         1.0870

MULLIKEN ATOMIC CHARGES
-----------------------
   0 C :   -0.607265
   1 N :   -0.053474
   2 C :   -0.756610
   3 C :   -0.343452
   4 C :    0.643000
   5 C :    0.223159
   6 C :   -0.431667
   7 C :   -0.381197
   8 C :   -1.489461
   9 C :   -1.460239
  10 C :    1.528640
  11 C :   -0.316836
  12 C :   -0.969722
  13 C :   -0.373193
  14 C :   -0.948493
  15 C :   -0.235021
  16 H :    0.188517
  17 H :    0.219365
  18 H :    0.295778
  19 H :    0.207193
  20 H :    0.366549
  21 H :    0.188066
  22 H :    0.303228
  23 H :    0.132105
  24 H :    0.369557
  25 H :    0.154834
  26 H :    0.118267
  27 H :    0.339703
  28 H :    0.647731
  29 H :    0.342548
  30 H :    0.143176
  31 H :    0.490652
  32 H :    0.490525
  33 H :    0.617802
  34 H :    0.356237
Sum of atomic charges:   -0.0000000

LOEWDIN ATOMIC CHARGES
----------------------
   0 C :    0.206518
   1 N :    0.303607
   2 C :    0.201503
   3 C :    0.319074
   4 C :   -0.016812
   5 C :   -0.008727
   6 C :    0.310828
   7 C :    0.312806
   8 C :    0.291308
   9 C :    0.291268
  10 C :   -0.198502
  11 C :    0.223094
  12 C :    0.190189
  13 C :    0.183273
  14 C :    0.189432
  15 C :    0.226744
  16 H :   -0.145335
  17 H :   -0.148905
  18 H :   -0.143318
  19 H :   -0.153729
  20 H :   -0.131951
  21 H :   -0.146549
  22 H :   -0.137625
  23 H :   -0.138950
  24 H :   -0.135850
  25 H :   -0.162521
  26 H :   -0.212394
  27 H :   -0.178753
  28 H :   -0.194313
  29 H :   -0.178973
  30 H :   -0.212990
  31 H :   -0.167629
  32 H :   -0.169372
  33 H :   -0.131475
  34 H :   -0.134974

  Mayer bond orders larger than 0.100000
B(  0-C ,  1-N ) :   1.1191 B(  0-C ,  2-C ) :  -0.1425 B(  0-C ,  7-C ) :   0.7342
B(  0-C , 15-C ) :   0.1254 B(  0-C , 16-H ) :   1.1186 B(  0-C , 17-H ) :   1.0620
B(  1-N ,  2-C ) :   1.0641 B(  1-N ,  4-C ) :  -0.1459 B(  1-N , 10-C ) :   0.6592
B(  1-N , 11-C ) :  -0.4307 B(  1-N , 15-C ) :  -0.4354 B(  1-N , 18-H ) :  -0.1958
B(  2-C ,  3-C ) :   0.8365 B(  2-C , 10-C ) :  -0.3219 B(  2-C , 11-C ) :   0.1161
B(  2-C , 18-H ) :   1.0073 B(  2-C , 19-H ) :   1.1534 B(  3-C ,  4-C ) :   0.6662
B(  3-C ,  8-C ) :  -0.1110 B(  3-C , 20-H ) :   0.8632 B(  3-C , 21-H ) :   1.1945
B(  4-C ,  5-C ) :   1.1493 B(  4-C ,  9-C ) :  -0.3078 B(  4-C , 34-H ) :   1.1985
B(  5-C ,  6-C ) :   0.7041 B(  5-C ,  8-C ) :  -0.2742 B(  5-C ,  9-C ) :   0.3205
B(  5-C , 33-H ) :   0.9187 B(  6-C ,  7-C ) :   0.8276 B(  6-C ,  9-C ) :  -0.2437
B(  6-C , 22-H ) :   0.9774 B(  6-C , 23-H ) :   1.1978 B(  7-C , 24-H ) :   0.8629
B(  7-C , 25-H ) :   1.1885 B(  8-C ,  9-C ) :   1.9997 B(  8-C , 21-H ) :  -0.1110
B(  8-C , 32-H ) :   0.9057 B(  8-C , 34-H ) :  -0.4416 B(  9-C , 31-H ) :   0.9037
B(  9-C , 33-H ) :  -0.5622 B( 10-C , 11-C ) :   0.7023 B( 10-C , 13-C ) :  -0.1656
B( 10-C , 15-C ) :   0.6185 B( 10-C , 26-H ) :  -0.4117 B( 10-C , 27-H ) :   0.1566
B( 10-C , 29-H ) :   0.1500 B( 10-C , 30-H ) :  -0.3136 B( 11-C , 12-C ) :   0.9565
B( 11-C , 13-C ) :   0.1340 B( 11-C , 15-C ) :  -0.3503 B( 11-C , 26-H ) :   1.4459
B( 11-C , 27-H ) :  -0.1092 B( 11-C , 28-H ) :   0.1253 B( 12-C , 13-C ) :   1.1276
B( 12-C , 14-C ) :   0.1811 B( 12-C , 27-H ) :   0.9072 B( 12-C , 28-H ) :  -0.1201
B( 13-C , 14-C ) :   1.1371 B( 13-C , 15-C ) :   0.1596 B( 13-C , 28-H ) :   0.4929
B( 14-C , 15-C ) :   1.1693 B( 14-C , 28-H ) :  -0.1634 B( 14-C , 29-H ) :   0.9396
B( 15-C , 30-H ) :   1.3838

MP2 TOTAL ENERGY:     -636.384179204 Eh
FINAL SINGLE POINT ENERGY      -636.384179204371

DIPOLE MOMENT
-------------
                                X             Y             Z
Electronic contribution:     -5.04795      -2.36724      -1.50735
Nuclear contribution   :      5.56863       2.48838       1.83127
                        -----------------------------------------
Total Dipole Moment    :      0.52068       0.12114       0.32391
                        -----------------------------------------
Magnitude (a.u.)       :      0.62506
Magnitude (Debye)      :      1.58878

Rotational constants in cm-1:     0.032759     0.012050     0.010847
Rotational constants in MHz :   982.084444   361.264545   325.195430

                             ****ORCA TERMINATED NORMALLY****
TOTAL RUN TIME: 0 days 0 hours 37 minutes 12 seconds 656 msec
