                         Program Version 4.2.1 -  RELEASE  -
|  1> %pal
|  2>  nprocs 32
|  3> end
|  4> !RI-MP2 aug-cc-pVTZ aug-cc-pVTZ/C TightSCF
|  5> %maxcore 4500
|  6> *xyzfile 0 1  10_92R.xyz
|  7>
|  8>
|  9>                          ****END OF INPUT****

CARTESIAN COORDINATES (ANGSTROEM)
---------------------------------
  C      1.513309    1.951363   -0.730107
  C      2.626949    1.044653   -0.193471
  C      2.358986   -0.437207   -0.472625
  C      3.412688   -1.307303    0.034968
  C      0.212453    1.684215   -0.121607
  H      1.782701    2.995962   -0.553381
  H      1.433153    1.833314   -1.815778
  H      2.735151    1.194751    0.882852
  H      3.573894    1.333643   -0.654825
  H      1.407097   -0.724070   -0.017299
  H      2.249913   -0.595916   -1.550385
  C     -0.847043    1.453294    0.389807
  C      4.287946   -2.004135    0.460528
  C     -2.132359    1.132715    1.004528
  H     -2.939828    1.394858    0.314024
  C     -2.247360   -0.345855    1.394069
  H     -3.205536   -0.510702    1.891336
  H     -1.460463   -0.596155    2.108497
  C     -2.121459   -1.297222    0.198725
  H     -1.166918   -1.137870   -0.308376
  H     -2.144303   -2.336151    0.533524
  C     -3.190879   -1.107307   -0.776533
  N     -4.041851   -0.939484   -1.527340
  H     -2.274497    1.748350    1.896266
  H      5.063212   -2.626897    0.835242

 Total Charge           Charge          ....    0
 Multiplicity           Mult            ....    1
 Number of Electrons    NEL             ....   86
 Basis Dimension        Dim             ....  851

ORBITAL ENERGIES
----------------

  NO   OCC          E(Eh)            E(eV)
   0   2.0000     -15.565839      -423.5680
   1   2.0000     -11.282232      -307.0051
   2   2.0000     -11.270344      -306.6817
   3   2.0000     -11.262552      -306.4696
   4   2.0000     -11.260166      -306.4047
   5   2.0000     -11.259544      -306.3878
   6   2.0000     -11.258557      -306.3609
   7   2.0000     -11.245125      -305.9954
   8   2.0000     -11.236681      -305.7656
   9   2.0000     -11.230898      -305.6083
  10   2.0000     -11.226877      -305.4988
  11   2.0000     -11.223182      -305.3983
  12   2.0000      -1.223397       -33.2903
  13   2.0000      -1.125428       -30.6244
  14   2.0000      -1.113062       -30.2880
  15   2.0000      -1.062044       -28.8997
  16   2.0000      -1.029927       -28.0257
  17   2.0000      -0.987543       -26.8724
  18   2.0000      -0.949059       -25.8252
  19   2.0000      -0.870227       -23.6801
  20   2.0000      -0.842948       -22.9378
  21   2.0000      -0.724937       -19.7265
  22   2.0000      -0.714443       -19.4410
  23   2.0000      -0.680018       -18.5042
  24   2.0000      -0.666427       -18.1344
  25   2.0000      -0.656176       -17.8555
  26   2.0000      -0.642378       -17.4800
  27   2.0000      -0.632544       -17.2124
  28   2.0000      -0.614934       -16.7332
  29   2.0000      -0.595122       -16.1941
  30   2.0000      -0.559838       -15.2340
  31   2.0000      -0.549587       -14.9550
  32   2.0000      -0.544554       -14.8181
  33   2.0000      -0.539575       -14.6826
  34   2.0000      -0.528043       -14.3688
  35   2.0000      -0.522994       -14.2314
  36   2.0000      -0.509475       -13.8635
  37   2.0000      -0.459561       -12.5053
  38   2.0000      -0.459045       -12.4913
  39   2.0000      -0.397298       -10.8110
  40   2.0000      -0.391207       -10.6453
  41   2.0000      -0.379000       -10.3131
  42   2.0000      -0.375848       -10.2273
  43   0.0000       0.022980         0.6253
  44   0.0000       0.027411         0.7459
  45   0.0000       0.029860         0.8125
  46   0.0000       0.034317         0.9338
  47   0.0000       0.041024         1.1163

MULLIKEN ATOMIC CHARGES
-----------------------
   0 C :   -0.491656
   1 C :   -0.431236
   2 C :   -0.567632
   3 C :    1.235742
   4 C :    0.015892
   5 H :    0.264950
   6 H :    0.143493
   7 H :    0.234916
   8 H :    0.269795
   9 H :    0.400843
  10 H :    0.197790
  11 C :    0.241456
  12 C :   -1.829820
  13 C :   -0.571671
  14 H :    0.199234
  15 C :   -0.487938
  16 H :    0.281528
  17 H :    0.227615
  18 C :   -0.327517
  19 H :    0.353702
  20 H :    0.331015
  21 C :    0.367159
  22 N :   -0.760131
  23 H :    0.235635
  24 H :    0.466834
Sum of atomic charges:   -0.0000000

LOEWDIN ATOMIC CHARGES
----------------------
   0 C :    0.227182
   1 C :    0.266069
   2 C :    0.200181
   3 C :    0.025108
   4 C :    0.107890
   5 H :   -0.154655
   6 H :   -0.153234
   7 H :   -0.139051
   8 H :   -0.139134
   9 H :   -0.176103
  10 H :   -0.149864
  11 C :    0.107504
  12 C :    0.397252
  13 C :    0.223274
  14 H :   -0.160552
  15 C :    0.272036
  16 H :   -0.137666
  17 H :   -0.137818
  18 C :    0.239863
  19 H :   -0.172427
  20 H :   -0.149715
  21 C :   -0.211555
  22 N :    0.269959
  23 H :   -0.152033
  24 H :   -0.302513

  Mayer bond orders larger than 0.100000
B(  0-C ,  1-C ) :   1.0072 B(  0-C ,  4-C ) :   1.1234 B(  0-C ,  5-H ) :   0.9754
B(  0-C ,  6-H ) :   1.0120 B(  0-C , 11-C ) :  -0.2763 B(  1-C ,  2-C ) :   0.9208
B(  1-C ,  7-H ) :   0.9647 B(  1-C ,  8-H ) :   0.9696 B(  2-C ,  3-C ) :   0.9508
B(  2-C ,  9-H ) :   0.8328 B(  2-C , 10-H ) :   0.9876 B(  2-C , 12-C ) :   0.1270
B(  3-C , 12-C ) :  -0.2489 B(  3-C , 24-H ) :  -0.1685 B(  4-C , 11-C ) :   2.1173
B(  4-C , 13-C ) :  -0.1767 B( 11-C , 13-C ) :   1.0610 B( 12-C , 24-H ) :   1.0270
B( 13-C , 14-H ) :   1.0291 B( 13-C , 15-C ) :   0.9865 B( 13-C , 23-H ) :   0.9551
B( 15-C , 16-H ) :   0.9468 B( 15-C , 17-H ) :   0.9944 B( 15-C , 18-C ) :   0.8573
B( 15-C , 21-C ) :   0.1708 B( 18-C , 19-H ) :   0.8706 B( 18-C , 20-H ) :   0.9419
B( 18-C , 21-C ) :   0.8997 B( 20-H , 21-C ) :  -0.1067 B( 21-C , 22-N ) :   1.9924

MP2 TOTAL ENERGY:     -480.606415773 Eh
FINAL SINGLE POINT ENERGY      -480.606415773340

DIPOLE MOMENT
-------------
                                X             Y             Z
Electronic contribution:     -4.01185      -1.87272      -2.52618
Nuclear contribution   :      5.10194       1.99580       3.60365
                        -----------------------------------------
Total Dipole Moment    :      1.09009       0.12309       1.07747
                        -----------------------------------------
Magnitude (a.u.)       :      1.53766
Magnitude (Debye)      :      3.90843

Rotational constants in cm-1:     0.042229     0.013291     0.011639
Rotational constants in MHz :  1265.985896   398.447848   348.924205

                             ****ORCA TERMINATED NORMALLY****
TOTAL RUN TIME: 0 days 0 hours 8 minutes 30 seconds 769 msec
