                         Program Version 4.2.1 -  RELEASE  -
|  1> %pal
|  2>  nprocs 32
|  3> end
|  4> !RI-MP2 aug-cc-pVTZ aug-cc-pVTZ/C TightSCF
|  5> %maxcore 4500
|  6> *xyzfile 0 1  06_10P.xyz
|  7>
|  8>
|  9>                          ****END OF INPUT****

CARTESIAN COORDINATES (ANGSTROEM)
---------------------------------
  C      1.312948   -0.681078   -0.801955
  C      2.531614    0.453038    1.187287
  C      2.587918   -1.493852   -1.105843
  H      2.452355   -2.493349   -0.676132
  H      2.682377   -1.645894   -2.186862
  H      2.524125    0.671858    2.260626
  H      0.452794   -1.262227   -1.145902
  C      3.791514   -0.380699    0.878725
  H      3.797177   -1.238454    1.561863
  H      4.690432    0.197742    1.120087
  B      1.237799   -0.285166    0.708441
  C     -1.309159   -0.715175    0.940032
  C     -2.334781    0.126352    0.841607
  H     -2.330331    1.103795    1.309559
  C     -0.027241   -0.431036    1.635545
  C     -3.537419   -0.244899    0.077431
  O     -3.717023   -1.283073   -0.510029
  O     -4.452224    0.743081    0.106542
  C     -5.662973    0.487397   -0.606464
  H     -6.273132    1.377882   -0.479589
  H     -5.454763    0.312216   -1.662057
  H     -6.169947   -0.386338   -0.196775
  C      2.462791    1.818599    0.445687
  H      1.619378    2.384340    0.859499
  H      3.358446    2.404551    0.678592
  C      1.235948    0.696876   -1.522456
  H      0.237417    1.113323   -1.344773
  H      1.307146    0.541500   -2.604179
  C      3.894586   -0.902039   -0.560594
  H      4.241797   -0.104815   -1.217039
  H      4.672845   -1.669786   -0.602004
  C      2.287585    1.724060   -1.077657
  H      2.000577    2.708193   -1.459592
  H      3.244445    1.498660   -1.546105
  H     -1.408569   -1.673409    0.436547
  H      0.232956   -1.276106    2.294110
  H     -0.112533    0.436816    2.297748

 Total Charge           Charge          ....    0
 Multiplicity           Mult            ....    1
 Number of Electrons    NEL             ....  120
 Basis Dimension        Dim             .... 1219

ORBITAL ENERGIES
----------------

  NO   OCC          E(Eh)            E(eV)
   0   2.0000     -20.595148      -560.4225
   1   2.0000     -20.528568      -558.6107
   2   2.0000     -11.368706      -309.3582
   3   2.0000     -11.277766      -306.8836
   4   2.0000     -11.257238      -306.3250
   5   2.0000     -11.226857      -305.4983
   6   2.0000     -11.225140      -305.4516
   7   2.0000     -11.223119      -305.3966
   8   2.0000     -11.219609      -305.3011
   9   2.0000     -11.218644      -305.2748
  10   2.0000     -11.217360      -305.2399
  11   2.0000     -11.216657      -305.2207
  12   2.0000     -11.214534      -305.1630
  13   2.0000     -11.198129      -304.7166
  14   2.0000     -11.196732      -304.6786
  15   2.0000      -7.579746      -206.2554
  16   2.0000      -1.452929       -39.5362
  17   2.0000      -1.348358       -36.6907
  18   2.0000      -1.119500       -30.4631
  19   2.0000      -1.093564       -29.7574
  20   2.0000      -1.044780       -28.4299
  21   2.0000      -1.029253       -28.0074
  22   2.0000      -0.997980       -27.1564
  23   2.0000      -0.950122       -25.8541
  24   2.0000      -0.924584       -25.1592
  25   2.0000      -0.916669       -24.9438
  26   2.0000      -0.816184       -22.2095
  27   2.0000      -0.795186       -21.6381
  28   2.0000      -0.785429       -21.3726
  29   2.0000      -0.751562       -20.4511
  30   2.0000      -0.744523       -20.2595
  31   2.0000      -0.709427       -19.3045
  32   2.0000      -0.673427       -18.3249
  33   2.0000      -0.668076       -18.1793
  34   2.0000      -0.664313       -18.0769
  35   2.0000      -0.645952       -17.5772
  36   2.0000      -0.607253       -16.5242
  37   2.0000      -0.600959       -16.3529
  38   2.0000      -0.595607       -16.2073
  39   2.0000      -0.583377       -15.8745
  40   2.0000      -0.579701       -15.7745
  41   2.0000      -0.568213       -15.4619
  42   2.0000      -0.562976       -15.3194
  43   2.0000      -0.552137       -15.0244
  44   2.0000      -0.545960       -14.8563
  45   2.0000      -0.543644       -14.7933
  46   2.0000      -0.522241       -14.2109
  47   2.0000      -0.515755       -14.0344
  48   2.0000      -0.504912       -13.7394
  49   2.0000      -0.485422       -13.2090
  50   2.0000      -0.481515       -13.1027
  51   2.0000      -0.476152       -12.9567
  52   2.0000      -0.471481       -12.8296
  53   2.0000      -0.459513       -12.5040
  54   2.0000      -0.455543       -12.3959
  55   2.0000      -0.442148       -12.0315
  56   2.0000      -0.424327       -11.5465
  57   2.0000      -0.409443       -11.1415
  58   2.0000      -0.388264       -10.5652
  59   2.0000      -0.361824        -9.8457
  60   0.0000       0.022089         0.6011
  61   0.0000       0.029370         0.7992
  62   0.0000       0.031465         0.8562
  63   0.0000       0.032650         0.8884
  64   0.0000       0.038933         1.0594

MULLIKEN ATOMIC CHARGES
-----------------------
   0 C :    0.669391
   1 C :    0.472242
   2 C :   -0.973674
   3 H :    0.003862
   4 H :    0.225531
   5 H :    0.420379
   6 H :    0.532823
   7 C :   -0.866515
   8 H :   -0.013298
   9 H :    0.242658
  10 B :    0.579518
  11 C :    0.139148
  12 C :   -0.359171
  13 H :    0.124911
  14 C :   -0.738668
  15 C :    0.816796
  16 O :   -0.922077
  17 O :   -0.372686
  18 C :   -0.807141
  19 H :    0.355018
  20 H :    0.376490
  21 H :    0.372010
  22 C :   -0.792547
  23 H :    0.040901
  24 H :    0.265339
  25 C :   -0.892421
  26 H :    0.157076
  27 H :    0.217212
  28 C :   -0.351865
  29 H :    0.184596
  30 H :    0.359485
  31 C :   -0.429985
  32 H :    0.375926
  33 H :    0.162157
  34 H :    0.191326
  35 H :    0.203245
  36 H :    0.032009
Sum of atomic charges:   -0.0000000

LOEWDIN ATOMIC CHARGES
----------------------
   0 C :    0.137946
   1 C :    0.131942
   2 C :    0.328063
   3 H :   -0.133388
   4 H :   -0.131536
   5 H :   -0.133375
   6 H :   -0.143334
   7 C :    0.324111
   8 H :   -0.133737
   9 H :   -0.132422
  10 B :   -0.411661
  11 C :    0.213774
  12 C :    0.210258
  13 H :   -0.196148
  14 C :    0.416918
  15 C :   -0.874603
  16 O :    0.456493
  17 O :    0.553558
  18 C :    0.345589
  19 H :   -0.188142
  20 H :   -0.182085
  21 H :   -0.181573
  22 C :    0.331832
  23 H :   -0.130271
  24 H :   -0.128403
  25 C :    0.335560
  26 H :   -0.129954
  27 H :   -0.126208
  28 C :    0.319179
  29 H :   -0.178238
  30 H :   -0.135190
  31 C :    0.328255
  32 H :   -0.133054
  33 H :   -0.177528
  34 H :   -0.164418
  35 H :   -0.136343
  36 H :   -0.151867

  Mayer bond orders larger than 0.100000
B(  0-C ,  1-C ) :   0.1302 B(  0-C ,  2-C ) :   0.6551 B(  0-C ,  3-H ) :  -0.1023
B(  0-C ,  6-H ) :   0.7917 B(  0-C , 10-B ) :   0.9966 B(  0-C , 25-C ) :   0.7356
B(  1-C ,  5-H ) :   0.7983 B(  1-C ,  7-C ) :   0.7077 B(  1-C , 10-B ) :   1.0581
B(  1-C , 22-C ) :   0.7936 B(  2-C ,  3-H ) :   1.3225 B(  2-C ,  4-H ) :   1.0326
B(  2-C ,  6-H ) :  -0.2648 B(  2-C ,  7-C ) :   0.1728 B(  2-C , 28-C ) :   0.8768
B(  5-H ,  7-C ) :  -0.1541 B(  5-H , 10-B ) :  -0.1266 B(  5-H , 14-C ) :   0.1070
B(  5-H , 22-C ) :  -0.1536 B(  6-H , 10-B ) :  -0.1827 B(  6-H , 25-C ) :  -0.2041
B(  7-C ,  8-H ) :   1.2876 B(  7-C ,  9-H ) :   0.9886 B(  7-C , 28-C ) :   0.9063
B(  7-C , 29-H ) :   0.1105 B( 10-B , 14-C ) :   0.5198 B( 10-B , 22-C ) :   0.1041
B( 10-B , 25-C ) :   0.2575 B( 11-C , 12-C ) :   0.9297 B( 11-C , 14-C ) :   0.8492
B( 11-C , 15-C ) :   0.1531 B( 11-C , 34-H ) :   1.0480 B( 12-C , 13-H ) :   1.3987
B( 12-C , 14-C ) :   0.1977 B( 12-C , 15-C ) :   0.5330 B( 12-C , 17-O ) :  -0.1787
B( 13-H , 15-C ) :  -0.1589 B( 14-C , 35-H ) :   1.1047 B( 14-C , 36-H ) :   1.2405
B( 15-C , 16-O ) :   1.3596 B( 15-C , 17-O ) :   1.0149 B( 17-O , 18-C ) :   0.8460
B( 18-C , 19-H ) :   0.8998 B( 18-C , 20-H ) :   0.8757 B( 18-C , 21-H ) :   0.8756
B( 22-C , 23-H ) :   1.1873 B( 22-C , 24-H ) :   0.9652 B( 22-C , 25-C ) :   0.1315
B( 22-C , 31-C ) :   0.9275 B( 25-C , 26-H ) :   1.1093 B( 25-C , 27-H ) :   1.0290
B( 25-C , 31-C ) :   0.9010 B( 28-C , 29-H ) :   1.0206 B( 28-C , 30-H ) :   0.9151
B( 31-C , 32-H ) :   0.8592 B( 31-C , 33-H ) :   1.1031

MP2 TOTAL ENERGY:     -681.951684115 Eh
FINAL SINGLE POINT ENERGY      -681.951684114826

DIPOLE MOMENT
-------------
                                X             Y             Z
Electronic contribution:    -14.37407      -2.76685       3.28210
Nuclear contribution   :     14.98792       3.29861      -2.94828
                        -----------------------------------------
Total Dipole Moment    :      0.61385       0.53177       0.33382
                        -----------------------------------------
Magnitude (a.u.)       :      0.87808
Magnitude (Debye)      :      2.23189

Rotational constants in cm-1:     0.039075     0.007283     0.007244
Rotational constants in MHz :  1171.447975   218.344593   217.161797

                             ****ORCA TERMINATED NORMALLY****
TOTAL RUN TIME: 0 days 0 hours 34 minutes 37 seconds 265 msec
