                         Program Version 4.2.1 -  RELEASE  -
|  1> %pal
|  2>  nprocs 32
|  3> end
|  4> !RI-MP2 aug-cc-pVTZ aug-cc-pVTZ/C TightSCF
|  5> %maxcore 4500
|  6> *xyzfile 0 1  02_1R1.xyz
|  7>
|  8>
|  9>                          ****END OF INPUT****

CARTESIAN COORDINATES (ANGSTROEM)
---------------------------------
  C     -1.412557    0.674272   -0.000025
  O     -2.741037    0.418597   -0.000016
  C     -0.415228   -0.213543    0.000019
  C      1.008439    0.140179    0.000001
  C      1.358896    1.602418   -0.000048
  C      1.916161   -0.844388    0.000021
  C      3.408210   -0.740018    0.000003
  C     -3.144135   -0.934998    0.000045
  H      2.432699    1.771281    0.000007
  H      0.943027    2.100408   -0.880330
  H      0.942928    2.100488    0.880140
  H      3.829936   -1.240156    0.877414
  H      3.829921   -1.240316   -0.877324
  H      3.769240    0.287205   -0.000096
  H     -4.231705   -0.930499    0.000041
  H     -2.779075   -1.453433   -0.892139
  H     -2.779081   -1.453350    0.892280
  H      1.533946   -1.863075    0.000057
  H     -1.245577    1.743190   -0.000077
  H     -0.636679   -1.274045    0.000068

 Total Charge           Charge          ....    0
 Multiplicity           Mult            ....    1
 Number of Electrons    NEL             ....   62
 Basis Dimension        Dim             ....  644

ORBITAL ENERGIES
----------------

  NO   OCC          E(Eh)            E(eV)
   0   2.0000     -20.583717      -560.1114
   1   2.0000     -11.286007      -307.1079
   2   2.0000     -11.279431      -306.9289
   3   2.0000     -11.233725      -305.6852
   4   2.0000     -11.218722      -305.2769
   5   2.0000     -11.217176      -305.2349
   6   2.0000     -11.217160      -305.2345
   7   2.0000     -11.215889      -305.1999
   8   2.0000      -1.409148       -38.3449
   9   2.0000      -1.108654       -30.1680
  10   2.0000      -1.025031       -27.8925
  11   2.0000      -0.975451       -26.5434
  12   2.0000      -0.948084       -25.7987
  13   2.0000      -0.897234       -24.4150
  14   2.0000      -0.775434       -21.1006
  15   2.0000      -0.721091       -19.6219
  16   2.0000      -0.687288       -18.7021
  17   2.0000      -0.661972       -18.0132
  18   2.0000      -0.651249       -17.7214
  19   2.0000      -0.619160       -16.8482
  20   2.0000      -0.577535       -15.7155
  21   2.0000      -0.569125       -15.4867
  22   2.0000      -0.554198       -15.0805
  23   2.0000      -0.542966       -14.7749
  24   2.0000      -0.526333       -14.3223
  25   2.0000      -0.516344       -14.0504
  26   2.0000      -0.500413       -13.6169
  27   2.0000      -0.491446       -13.3729
  28   2.0000      -0.474774       -12.9193
  29   2.0000      -0.400826       -10.9070
  30   2.0000      -0.291099        -7.9212
  31   0.0000       0.028284         0.7696
  32   0.0000       0.032551         0.8858
  33   0.0000       0.035220         0.9584
  34   0.0000       0.041549         1.1306
  35   0.0000       0.044797         1.2190

MULLIKEN ATOMIC CHARGES
-----------------------
   0 C :   -0.304378
   1 O :   -0.630562
   2 C :   -0.383442
   3 C :    1.943431
   4 C :   -0.809226
   5 C :   -1.095476
   6 C :   -0.824517
   7 C :   -0.854793
   8 H :    0.304676
   9 H :    0.182301
  10 H :    0.182247
  11 H :    0.235647
  12 H :    0.235610
  13 H :    0.375769
  14 H :    0.389620
  15 H :    0.337852
  16 H :    0.337849
  17 H :   -0.157479
  18 H :    0.527158
  19 H :    0.007712
Sum of atomic charges:    0.0000000

LOEWDIN ATOMIC CHARGES
----------------------
   0 C :   -0.043331
   1 O :    0.550003
   2 C :    0.176510
   3 C :   -0.134428
   4 C :    0.560610
   5 C :    0.226382
   6 C :    0.562650
   7 C :    0.324952
   8 H :   -0.199555
   9 H :   -0.162855
  10 H :   -0.162863
  11 H :   -0.172152
  12 H :   -0.172154
  13 H :   -0.203452
  14 H :   -0.181935
  15 H :   -0.174654
  16 H :   -0.174653
  17 H :   -0.192993
  18 H :   -0.204515
  19 H :   -0.221569

  Mayer bond orders larger than 0.100000
B(  0-C ,  1-O ) :   0.5094 B(  0-C ,  2-C ) :   0.9185 B(  0-C ,  3-C ) :   0.1081
B(  0-C ,  4-C ) :  -0.1190 B(  0-C ,  5-C ) :   0.1821 B(  0-C , 18-H ) :   0.8305
B(  1-O ,  7-C ) :   0.9752 B(  1-O , 18-H ) :  -0.1601 B(  2-C ,  3-C ) :   0.5919
B(  2-C ,  4-C ) :   0.1024 B(  2-C ,  5-C ) :   0.2402 B(  2-C , 19-H ) :   1.5649
B(  3-C ,  4-C ) :   0.5752 B(  3-C ,  5-C ) :   0.1752 B(  3-C ,  6-C ) :   0.1293
B(  3-C , 17-H ) :  -0.5881 B(  4-C ,  5-C ) :  -0.1437 B(  4-C ,  8-H ) :   0.8649
B(  4-C ,  9-H ) :   1.0919 B(  4-C , 10-H ) :   1.0920 B(  4-C , 17-H ) :   0.1220
B(  5-C ,  6-C ) :   0.5509 B(  5-C , 11-H ) :  -0.1046 B(  5-C , 12-H ) :  -0.1046
B(  5-C , 17-H ) :   1.9974 B(  5-C , 19-H ) :  -0.1221 B(  6-C , 11-H ) :   1.0825
B(  6-C , 12-H ) :   1.0825 B(  6-C , 13-H ) :   0.8272 B(  7-C , 14-H ) :   0.8967
B(  7-C , 15-H ) :   0.8932 B(  7-C , 16-H ) :   0.8932

MP2 TOTAL ENERGY:     -348.436976414 Eh
FINAL SINGLE POINT ENERGY      -348.436976414348

DIPOLE MOMENT
-------------
                                X             Y             Z
Electronic contribution:     -5.68812       1.16750      -0.00003
Nuclear contribution   :      5.77819      -1.50072       0.00004
                        -----------------------------------------
Total Dipole Moment    :      0.09006      -0.33322       0.00001
                        -----------------------------------------
Magnitude (a.u.)       :      0.34518
Magnitude (Debye)      :      0.87737

Rotational constants in cm-1:     0.170826     0.029207     0.025296
Rotational constants in MHz :  5121.236805   875.616903   758.355152

                             ****ORCA TERMINATED NORMALLY****
TOTAL RUN TIME: 0 days 0 hours 3 minutes 30 seconds 896 msec
