                         Program Version 4.2.1 -  RELEASE  -
|  1> %pal
|  2>  nprocs 32
|  3> end
|  4> !RI-MP2 aug-cc-pVTZ aug-cc-pVTZ/C TightSCF
|  5> %maxcore 4500
|  6> *xyzfile 0 2  01_16R.xyz
|  7>
|  8>
|  9>                          ****END OF INPUT****

CARTESIAN COORDINATES (ANGSTROEM)
---------------------------------
  C     -2.530206    0.076709   -0.245422
  C     -2.171090    1.481884    0.071506
  C     -0.171861   -0.834042   -0.289376
  C     -1.539335   -0.958181    0.309359
  C      0.941471   -0.577133    0.384524
  C      2.305211   -0.431548   -0.219032
  C      2.904666    0.955436    0.019495
  H     -2.596834   -0.056970   -1.338063
  H     -3.536350   -0.145386    0.127322
  H     -1.476601   -0.857481    1.396576
  H     -1.934696   -1.958863    0.104254
  H      2.252146   -0.635852   -1.292058
  H      2.973190   -1.186674    0.210394
  H      2.287387    1.729611   -0.441501
  H      3.910856    1.028801   -0.398723
  H      2.970819    1.176314    1.087963
  H      0.879604   -0.443257    1.464456
  H     -1.142633    1.757804    0.265707
  H     -2.908382    2.270846   -0.001862
  H     -0.111643   -0.957646   -1.370783

 Total Charge           Charge          ....    0
 Multiplicity           Mult            ....    2
 Number of Electrons    NEL             ....   55
 Basis Dimension        Dim             ....  621

ORBITAL ENERGIES
----------------
                 SPIN UP ORBITALS
  NO   OCC          E(Eh)            E(eV)
   0   1.0000     -11.222959      -305.3922
   1   1.0000     -11.222449      -305.3784
   2   1.0000     -11.222237      -305.3726
   3   1.0000     -11.221897      -305.3633
   4   1.0000     -11.220272      -305.3191
   5   1.0000     -11.218305      -305.2656
   6   1.0000     -11.213111      -305.1242
   7   1.0000      -1.099668       -29.9235
   8   1.0000      -1.058655       -28.8075
   9   1.0000      -0.996023       -27.1032
  10   1.0000      -0.922038       -25.0899
  11   1.0000      -0.844641       -22.9839
  12   1.0000      -0.790611       -21.5136
  13   1.0000      -0.746786       -20.3211
  14   1.0000      -0.635979       -17.3059
  15   1.0000      -0.623875       -16.9765
  16   1.0000      -0.615293       -16.7430
  17   1.0000      -0.587299       -15.9812
  18   1.0000      -0.568806       -15.4780
  19   1.0000      -0.539411       -14.6781
  20   1.0000      -0.527249       -14.3472
  21   1.0000      -0.507852       -13.8194
  22   1.0000      -0.502242       -13.6667
  23   1.0000      -0.487927       -13.2772
  24   1.0000      -0.480095       -13.0640
  25   1.0000      -0.459012       -12.4904
  26   1.0000      -0.352750        -9.5988
  27   1.0000      -0.336768        -9.1639
  28   0.0000       0.030627         0.8334
  29   0.0000       0.033323         0.9068
  30   0.0000       0.036289         0.9875
  31   0.0000       0.037123         1.0102
  32   0.0000       0.048419         1.3175

                 SPIN DOWN ORBITALS
  NO   OCC          E(Eh)            E(eV)
   0   1.0000     -11.225477      -305.4607
   1   1.0000     -11.222310      -305.3746
   2   1.0000     -11.221699      -305.3580
   3   1.0000     -11.220220      -305.3177
   4   1.0000     -11.218392      -305.2680
   5   1.0000     -11.213061      -305.1229
   6   1.0000     -11.199509      -304.7541
   7   1.0000      -1.096634       -29.8409
   8   1.0000      -1.049488       -28.5580
   9   1.0000      -0.983371       -26.7589
  10   1.0000      -0.896668       -24.3996
  11   1.0000      -0.831735       -22.6327
  12   1.0000      -0.765214       -20.8225
  13   1.0000      -0.745428       -20.2841
  14   1.0000      -0.631811       -17.1924
  15   1.0000      -0.619811       -16.8659
  16   1.0000      -0.611195       -16.6315
  17   1.0000      -0.578219       -15.7341
  18   1.0000      -0.563297       -15.3281
  19   1.0000      -0.530672       -14.4403
  20   1.0000      -0.522631       -14.2215
  21   1.0000      -0.504665       -13.7326
  22   1.0000      -0.496266       -13.5041
  23   1.0000      -0.481223       -13.0948
  24   1.0000      -0.478698       -13.0260
  25   1.0000      -0.457471       -12.4484
  26   1.0000      -0.344980        -9.3874
  27   0.0000       0.030783         0.8376
  28   0.0000       0.033306         0.9063
  29   0.0000       0.036206         0.9852
  30   0.0000       0.037201         1.0123
  31   0.0000       0.048505         1.3199

MULLIKEN ATOMIC CHARGES AND SPIN POPULATIONS
--------------------------------------------
   0 C :   -0.142825   -0.199445
   1 C :   -1.288626    1.216073
   2 C :   -0.413782   -0.036950
   3 C :   -0.180077    0.024896
   4 C :   -0.252958    0.039074
   5 C :   -0.297011   -0.006907
   6 C :   -0.940873    0.002215
   7 H :    0.222801    0.066515
   8 H :    0.276377    0.031558
   9 H :    0.237687   -0.006274
  10 H :    0.283906   -0.000517
  11 H :    0.201750   -0.000460
  12 H :    0.285301    0.001618
  13 H :    0.316377   -0.000167
  14 H :    0.280606    0.000056
  15 H :    0.260307   -0.000025
  16 H :    0.139201   -0.003006
  17 H :    0.651992   -0.027026
  18 H :    0.257706   -0.105697
  19 H :    0.102141    0.004467
Sum of atomic charges         :   -0.0000000

LOEWDIN ATOMIC CHARGES AND SPIN POPULATIONS
-------------------------------------------
   0 C :    0.205534    0.131384
   1 C :    0.595007    0.563723
   2 C :    0.205695   -0.008904
   3 C :    0.236527    0.007381
   4 C :    0.210861    0.010664
   5 C :    0.229166    0.002606
   6 C :    0.571921    0.000604
   7 H :   -0.155892    0.030927
   8 H :   -0.161958    0.011892
   9 H :   -0.157423    0.003390
  10 H :   -0.149806    0.000167
  11 H :   -0.162448    0.000014
  12 H :   -0.153534    0.000583
  13 H :   -0.170800    0.000116
  14 H :   -0.173478    0.000126
  15 H :   -0.172770    0.000053
  16 H :   -0.171116    0.002969
  17 H :   -0.229494    0.123746
  18 H :   -0.226641    0.121042
  19 H :   -0.169352   -0.002483

  Mayer bond orders larger than 0.100000
B(  0-C ,  1-C ) :   0.5392 B(  0-C ,  2-C ) :   0.1352 B(  0-C ,  3-C ) :   0.9138
B(  0-C ,  7-H ) :   0.9526 B(  0-C ,  8-H ) :   0.9978 B(  1-C ,  3-C ) :   0.1017
B(  1-C , 17-H ) :   0.4851 B(  1-C , 18-H ) :   1.0650 B(  2-C ,  3-C ) :   0.7403
B(  2-C ,  4-C ) :   1.3177 B(  2-C , 19-H ) :   1.2338 B(  3-C ,  9-H ) :   0.9291
B(  3-C , 10-H ) :   0.9762 B(  4-C ,  5-C ) :   0.8050 B(  4-C , 16-H ) :   1.1672
B(  5-C ,  6-C ) :   0.9171 B(  5-C , 11-H ) :   0.9604 B(  5-C , 12-H ) :   0.9667
B(  6-C , 13-H ) :   0.9141 B(  6-C , 14-H ) :   0.9717 B(  6-C , 15-H ) :   0.9630
B( 16-H , 19-H ) :   0.1007

MP2 TOTAL ENERGY:     -273.866185292 Eh
FINAL SINGLE POINT ENERGY      -273.866185291513

DIPOLE MOMENT
-------------
                                X             Y             Z
Electronic contribution:     -1.65290      -1.89230       0.14253
Nuclear contribution   :      1.66542       1.82952      -0.19804
                        -----------------------------------------
Total Dipole Moment    :      0.01252      -0.06278      -0.05551
                        -----------------------------------------
Magnitude (a.u.)       :      0.08473
Magnitude (Debye)      :      0.21536

Rotational constants in cm-1:     0.167174     0.038819     0.033574
Rotational constants in MHz :  5011.752502  1163.773869  1006.517762

                             ****ORCA TERMINATED NORMALLY****
TOTAL RUN TIME: 0 days 0 hours 8 minutes 13 seconds 924 msec
