                         Program Version 4.2.1 -  RELEASE  -
|  1> %pal
|  2>  nprocs 32
|  3> end
|  4> !RI-MP2 aug-cc-pVTZ aug-cc-pVTZ/C TightSCF
|  5> %maxcore 4500
|  6> *xyzfile 1 1  05_8P.xyz
|  7>
|  8>
|  9>                          ****END OF INPUT****

CARTESIAN COORDINATES (ANGSTROEM)
---------------------------------
  C      3.320881   -0.184707   -0.607514
  C      2.239312   -1.232337   -0.824063
  C      1.034574   -1.086251    0.183668
  H      1.849837   -1.156193   -1.843427
  H      2.618895   -2.249035   -0.704575
  C      1.502063   -1.421026    1.615165
  H      1.758268   -2.480138    1.651991
  H      0.708684   -1.244354    2.342949
  H      2.378274   -0.856923    1.924778
  C      0.638330    0.332218    0.030997
  C      1.570137    1.386409    0.431904
  C      2.731114    1.215000   -0.633637
  H      4.069213   -0.276503   -1.397990
  H      3.847667   -0.355095    0.333641
  C      1.046702    2.814894    0.463075
  C     -0.112764   -2.014314   -0.232744
  C     -1.441256   -1.619637    0.423646
  H      0.147571   -3.042448    0.021242
  H     -0.221962   -1.993586   -1.320267
  C     -0.644686    0.601897   -0.579536
  C     -1.685667   -0.095047    0.398632
  H     -0.735725    0.086531   -1.540053
  H     -0.868123    1.656675   -0.702186
  H     -1.469643   -1.961208    1.458983
  H     -2.252806   -2.137854   -0.086585
  C     -3.081500    0.309831   -0.015057
  H     -1.514996    0.314670    1.396214
  C     -3.878560    0.909444    0.861576
  H     -3.549823    1.141059    1.868124
  H     -4.896137    1.178922    0.606359
  C     -3.507389   -0.001365   -1.420911
  H     -3.343818   -1.051179   -1.677575
  H     -2.954923    0.599726   -2.149954
  H     -4.565648    0.213355   -1.560171
  H      2.336870    1.454141   -1.625750
  H      3.469522    1.980391   -0.390825
  H      0.188073    2.918645    1.128344
  H      0.761550    3.168547   -0.528929
  H      1.830648    3.475888    0.832869
  H      2.020781    1.125912    1.391593

 Total Charge           Charge          ....    1
 Multiplicity           Mult            ....    1
 Number of Electrons    NEL             ....  114
 Basis Dimension        Dim             .... 1265

ORBITAL ENERGIES
----------------

  NO   OCC          E(Eh)            E(eV)
   0   2.0000     -11.503103      -313.0153
   1   2.0000     -11.407421      -310.4117
   2   2.0000     -11.404821      -310.3410
   3   2.0000     -11.396246      -310.1076
   4   2.0000     -11.393163      -310.0237
   5   2.0000     -11.388625      -309.9003
   6   2.0000     -11.382539      -309.7346
   7   2.0000     -11.366950      -309.3104
   8   2.0000     -11.365029      -309.2582
   9   2.0000     -11.364580      -309.2459
  10   2.0000     -11.361248      -309.1553
  11   2.0000     -11.358221      -309.0729
  12   2.0000     -11.357639      -309.0571
  13   2.0000     -11.333119      -308.3898
  14   2.0000     -11.331570      -308.3477
  15   2.0000      -1.351992       -36.7896
  16   2.0000      -1.262362       -34.3506
  17   2.0000      -1.235843       -33.6290
  18   2.0000      -1.201496       -32.6944
  19   2.0000      -1.153214       -31.3805
  20   2.0000      -1.151326       -31.3292
  21   2.0000      -1.082499       -29.4563
  22   2.0000      -1.076143       -29.2833
  23   2.0000      -1.054575       -28.6965
  24   2.0000      -1.031506       -28.0687
  25   2.0000      -0.979298       -26.6481
  26   2.0000      -0.959182       -26.1007
  27   2.0000      -0.930856       -25.3299
  28   2.0000      -0.864916       -23.5356
  29   2.0000      -0.853045       -23.2125
  30   2.0000      -0.824422       -22.4337
  31   2.0000      -0.803946       -21.8765
  32   2.0000      -0.779082       -21.1999
  33   2.0000      -0.766840       -20.8668
  34   2.0000      -0.752449       -20.4752
  35   2.0000      -0.746293       -20.3077
  36   2.0000      -0.734845       -19.9961
  37   2.0000      -0.723676       -19.6922
  38   2.0000      -0.715417       -19.4675
  39   2.0000      -0.710337       -19.3293
  40   2.0000      -0.698689       -19.0123
  41   2.0000      -0.690437       -18.7877
  42   2.0000      -0.686035       -18.6680
  43   2.0000      -0.676061       -18.3966
  44   2.0000      -0.668160       -18.1816
  45   2.0000      -0.659133       -17.9359
  46   2.0000      -0.650580       -17.7032
  47   2.0000      -0.641887       -17.4666
  48   2.0000      -0.635838       -17.3020
  49   2.0000      -0.625247       -17.0138
  50   2.0000      -0.619385       -16.8543
  51   2.0000      -0.614580       -16.7236
  52   2.0000      -0.602029       -16.3820
  53   2.0000      -0.595748       -16.2111
  54   2.0000      -0.592772       -16.1301
  55   2.0000      -0.574060       -15.6210
  56   2.0000      -0.470434       -12.8012
  57   0.0000      -0.108936        -2.9643
  58   0.0000      -0.065268        -1.7760
  59   0.0000      -0.059643        -1.6230
  60   0.0000      -0.053676        -1.4606
  61   0.0000      -0.050303        -1.3688

MULLIKEN ATOMIC CHARGES
-----------------------
   0 C :   -0.589843
   1 C :   -1.134955
   2 C :    2.113765
   3 H :    0.209448
   4 H :    0.300229
   5 C :   -1.418766
   6 H :    0.100392
   7 H :    0.273580
   8 H :    0.262675
   9 C :    0.753438
  10 C :   -0.407687
  11 C :   -0.591188
  12 H :    0.346211
  13 H :    0.093317
  14 C :   -1.098657
  15 C :   -0.892169
  16 C :   -0.606525
  17 H :    0.390842
  18 H :    0.119051
  19 C :   -0.126223
  20 C :    0.471660
  21 H :   -0.077372
  22 H :    0.701390
  23 H :    0.170163
  24 H :    0.294389
  25 C :    0.990379
  26 H :   -0.146897
  27 C :   -1.607681
  28 H :    0.302657
  29 H :    0.322247
  30 C :   -0.851626
  31 H :    0.276960
  32 H :    0.253454
  33 H :    0.224902
  34 H :    0.185246
  35 H :    0.377988
  36 H :    0.304459
  37 H :    0.289468
  38 H :    0.150167
  39 H :    0.271111
Sum of atomic charges:    1.0000000

LOEWDIN ATOMIC CHARGES
----------------------
   0 C :    0.332976
   1 C :    0.363496
   2 C :   -0.226694
   3 H :   -0.122746
   4 H :   -0.107395
   5 C :    0.652241
   6 H :   -0.130769
   7 H :   -0.134938
   8 H :   -0.169600
   9 C :    0.095093
  10 C :    0.071003
  11 C :    0.367174
  12 H :   -0.117575
  13 H :   -0.134755
  14 C :    0.636448
  15 C :    0.335132
  16 C :    0.364233
  17 H :   -0.113682
  18 H :   -0.134880
  19 C :    0.394243
  20 C :    0.050149
  21 H :   -0.124719
  22 H :   -0.135457
  23 H :   -0.125824
  24 H :   -0.143092
  25 C :   -0.103968
  26 H :   -0.142236
  27 C :    0.587959
  28 H :   -0.199547
  29 H :   -0.195847
  30 C :    0.590300
  31 H :   -0.162547
  32 H :   -0.159507
  33 H :   -0.160424
  34 H :   -0.116853
  35 H :   -0.113405
  36 H :   -0.141633
  37 H :   -0.149152
  38 H :   -0.140779
  39 H :   -0.132424

  Mayer bond orders larger than 0.100000
B(  0-C ,  1-C ) :   1.0311 B(  0-C ,  2-C ) :  -0.1574 B(  0-C , 11-C ) :   0.9518
B(  0-C , 12-H ) :   0.8806 B(  0-C , 13-H ) :   1.1489 B(  1-C ,  2-C ) :   0.1113
B(  1-C ,  3-H ) :   1.1362 B(  1-C ,  4-H ) :   1.0335 B(  1-C ,  9-C ) :   0.1604
B(  1-C , 11-C ) :   0.1234 B(  1-C , 13-H ) :   0.1070 B(  2-C ,  5-C ) :  -0.1305
B(  2-C ,  6-H ) :  -0.3049 B(  2-C ,  7-H ) :  -0.1412 B(  2-C ,  9-C ) :   1.4499
B(  2-C , 15-C ) :   0.3456 B(  2-C , 16-C ) :  -0.1227 B(  2-C , 18-H ) :  -0.1008
B(  5-C ,  6-H ) :   1.3973 B(  5-C ,  7-H ) :   1.1374 B(  5-C ,  8-H ) :   1.0547
B(  5-C ,  9-C ) :   0.1291 B(  5-C , 20-C ) :  -0.1014 B(  9-C , 10-C ) :   1.8284
B(  9-C , 11-C ) :  -0.2108 B(  9-C , 14-C ) :   0.2022 B(  9-C , 19-C ) :  -0.6700
B(  9-C , 20-C ) :   0.1143 B(  9-C , 22-H ) :  -0.5064 B(  9-C , 25-C ) :   0.1441
B(  9-C , 30-C ) :   0.1187 B(  9-C , 34-H ) :  -0.1245 B(  9-C , 39-H ) :   0.2114
B( 10-C , 11-C ) :   0.9233 B( 10-C , 14-C ) :   0.3230 B( 10-C , 19-C ) :  -0.6477
B( 10-C , 22-H ) :  -0.1496 B( 10-C , 39-H ) :   0.9617 B( 11-C , 34-H ) :   1.0978
B( 11-C , 35-H ) :   0.8620 B( 14-C , 36-H ) :   0.9751 B( 14-C , 37-H ) :   1.0652
B( 14-C , 38-H ) :   1.1729 B( 15-C , 16-C ) :   1.0555 B( 15-C , 17-H ) :   0.8760
B( 15-C , 18-H ) :   1.2936 B( 16-C , 17-H ) :  -0.1206 B( 16-C , 18-H ) :   0.1181
B( 16-C , 19-C ) :   0.1917 B( 16-C , 20-C ) :   0.8123 B( 16-C , 23-H ) :   1.1420
B( 16-C , 24-H ) :   0.9735 B( 16-C , 27-C ) :  -0.1491 B( 19-C , 20-C ) :   0.9537
B( 19-C , 21-H ) :   1.3085 B( 19-C , 22-H ) :   0.8653 B( 19-C , 25-C ) :   0.1408
B( 19-C , 26-H ) :   0.1135 B( 19-C , 27-C ) :  -0.1006 B( 19-C , 30-C ) :  -0.1872
B( 20-C , 22-H ) :  -0.1508 B( 20-C , 23-H ) :  -0.1347 B( 20-C , 25-C ) :   1.1601
B( 20-C , 26-H ) :   1.2312 B( 20-C , 27-C ) :  -0.1190 B( 20-C , 28-H ) :  -0.1101
B( 20-C , 30-C ) :   0.2441 B( 21-H , 22-H ) :  -0.2730 B( 22-H , 25-C ) :  -0.1111
B( 25-C , 26-H ) :  -0.1689 B( 25-C , 27-C ) :   0.4882 B( 25-C , 30-C ) :   0.5256
B( 26-H , 27-C ) :   0.3518 B( 27-C , 28-H ) :   1.1436 B( 27-C , 29-H ) :   0.9191
B( 27-C , 30-C ) :  -0.1217 B( 30-C , 31-H ) :   0.9912 B( 30-C , 32-H ) :   1.0016
B( 30-C , 33-H ) :   1.0481

MP2 TOTAL ENERGY:     -585.085540689 Eh
FINAL SINGLE POINT ENERGY      -585.085540689035

DIPOLE MOMENT
-------------
                                X             Y             Z
Electronic contribution:     -0.57335      -0.33558       0.53184
Nuclear contribution   :      1.69557       0.53630      -0.60072
                        -----------------------------------------
Total Dipole Moment    :      1.12222       0.20072      -0.06888
                        -----------------------------------------
Magnitude (a.u.)       :      1.14211
Magnitude (Debye)      :      2.90302

Rotational constants in cm-1:     0.032668     0.014212     0.011912
Rotational constants in MHz :   979.368644   426.068039   357.124310

                             ****ORCA TERMINATED NORMALLY****
TOTAL RUN TIME: 0 days 0 hours 45 minutes 21 seconds 969 msec
