                         Program Version 4.2.1 -  RELEASE  -
|  1> %pal
|  2>  nprocs 32
|  3> end
|  4> !RI-MP2 aug-cc-pVTZ aug-cc-pVTZ/C TightSCF
|  5> %maxcore 4500
|  6> *xyzfile 0 1  02_26R.xyz
|  7>
|  8>
|  9>                          ****END OF INPUT****

CARTESIAN COORDINATES (ANGSTROEM)
---------------------------------
  C     -2.192819   -1.085858   -0.385874
  C      1.111565    0.800192    0.677814
  C     -3.715820    2.226838    0.131723
  C     -3.536909    0.908355    0.155386
  C     -2.390233    0.230437   -0.432702
  C     -1.008200   -1.796084   -0.962119
  C     -0.172961   -2.520950    0.101104
  C      0.413991   -1.581629    1.164431
  H     -1.346900   -2.534529   -1.696587
  H      0.631103   -3.074767   -0.391212
  H     -0.394149   -1.111798    1.728008
  H     -0.383699   -1.079145   -1.502725
  H     -0.793689   -3.267050    0.605699
  H      0.998520   -2.178273    1.873504
  C      2.545949   -0.868665   -0.183513
  H      2.296778   -1.472346   -1.060530
  H      3.215058   -1.479946    0.429263
  C      3.156194    0.484734   -0.564453
  H      4.138558    0.651070   -0.119197
  C      1.296825   -0.520757    0.592830
  C      2.185696    1.527588   -0.015684
  O      2.295431    2.723816   -0.143394
  H      3.264311    0.625987   -1.640747
  H      0.290220    1.301284    1.171906
  H     -2.928807   -1.707912    0.122614
  H     -1.655714    0.860343   -0.929836
  H     -4.582137    2.690411    0.586045
  H     -2.996932    2.884921   -0.344652
  H     -4.275641    0.276012    0.641941

 Total Charge           Charge          ....    0
 Multiplicity           Mult            ....    1
 Number of Electrons    NEL             ....   96
 Basis Dimension        Dim             ....  966

ORBITAL ENERGIES
----------------

  NO   OCC          E(Eh)            E(eV)
   0   2.0000     -20.528458      -558.6077
   1   2.0000     -11.318123      -307.9818
   2   2.0000     -11.267067      -306.5925
   3   2.0000     -11.245668      -306.0102
   4   2.0000     -11.242183      -305.9154
   5   2.0000     -11.241034      -305.8841
   6   2.0000     -11.237690      -305.7931
   7   2.0000     -11.236847      -305.7702
   8   2.0000     -11.236159      -305.7514
   9   2.0000     -11.234291      -305.7006
  10   2.0000     -11.232688      -305.6570
  11   2.0000     -11.225627      -305.4648
  12   2.0000     -11.225098      -305.4504
  13   2.0000      -1.372998       -37.3612
  14   2.0000      -1.161131       -31.5960
  15   2.0000      -1.113882       -30.3103
  16   2.0000      -1.076730       -29.2993
  17   2.0000      -1.026040       -27.9200
  18   2.0000      -0.992349       -27.0032
  19   2.0000      -0.955464       -25.9995
  20   2.0000      -0.911151       -24.7937
  21   2.0000      -0.848105       -23.0781
  22   2.0000      -0.789535       -21.4843
  23   2.0000      -0.759183       -20.6584
  24   2.0000      -0.750268       -20.4158
  25   2.0000      -0.730284       -19.8720
  26   2.0000      -0.671061       -18.2605
  27   2.0000      -0.656418       -17.8620
  28   2.0000      -0.650688       -17.7061
  29   2.0000      -0.635505       -17.2930
  30   2.0000      -0.617405       -16.8004
  31   2.0000      -0.616635       -16.7795
  32   2.0000      -0.584900       -15.9159
  33   2.0000      -0.574316       -15.6279
  34   2.0000      -0.560493       -15.2518
  35   2.0000      -0.545844       -14.8532
  36   2.0000      -0.538852       -14.6629
  37   2.0000      -0.535348       -14.5675
  38   2.0000      -0.518011       -14.0958
  39   2.0000      -0.516377       -14.0513
  40   2.0000      -0.497458       -13.5365
  41   2.0000      -0.489817       -13.3286
  42   2.0000      -0.487194       -13.2572
  43   2.0000      -0.475545       -12.9402
  44   2.0000      -0.439845       -11.9688
  45   2.0000      -0.396155       -10.7799
  46   2.0000      -0.368092       -10.0163
  47   2.0000      -0.318576        -8.6689
  48   0.0000       0.021538         0.5861
  49   0.0000       0.028308         0.7703
  50   0.0000       0.030140         0.8202
  51   0.0000       0.033490         0.9113
  52   0.0000       0.041938         1.1412

MULLIKEN ATOMIC CHARGES
-----------------------
   0 C :   -0.495973
   1 C :   -1.266625
   2 C :   -1.110212
   3 C :   -0.066852
   4 C :    0.164948
   5 C :   -0.347448
   6 C :   -0.434159
   7 C :   -0.506623
   8 H :    0.368647
   9 H :    0.136670
  10 H :    0.171675
  11 H :    0.110173
  12 H :    0.340674
  13 H :    0.311143
  14 C :   -0.676263
  15 H :    0.190847
  16 H :    0.253929
  17 C :   -0.385318
  18 H :    0.262040
  19 C :    1.095989
  20 C :    0.886448
  21 O :   -1.009414
  22 H :    0.267196
  23 H :    0.404656
  24 H :    0.095603
  25 H :    0.191370
  26 H :    0.424544
  27 H :    0.295146
  28 H :    0.327188
Sum of atomic charges:   -0.0000000

LOEWDIN ATOMIC CHARGES
----------------------
   0 C :    0.215450
   1 C :    0.263416
   2 C :    0.522235
   3 C :    0.142841
   4 C :    0.174821
   5 C :    0.262546
   6 C :    0.290741
   7 C :    0.303004
   8 H :   -0.140615
   9 H :   -0.147176
  10 H :   -0.150664
  11 H :   -0.158383
  12 H :   -0.137888
  13 H :   -0.132742
  14 C :    0.296956
  15 H :   -0.145922
  16 H :   -0.132644
  17 C :    0.310033
  18 H :   -0.145212
  19 C :   -0.083652
  20 C :   -0.544922
  21 O :    0.437417
  22 H :   -0.145467
  23 H :   -0.166966
  24 H :   -0.166299
  25 H :   -0.182349
  26 H :   -0.226171
  27 H :   -0.219431
  28 H :   -0.192957

  Mayer bond orders larger than 0.100000
B(  0-C ,  2-C ) :   0.1920 B(  0-C ,  4-C ) :   0.9943 B(  0-C ,  5-C ) :   0.7059
B(  0-C ,  8-H ) :  -0.2006 B(  0-C , 11-H ) :   0.1457 B(  0-C , 24-H ) :   1.4005
B(  1-C , 14-C ) :   0.2266 B(  1-C , 17-C ) :   0.1033 B(  1-C , 19-C ) :   0.7535
B(  1-C , 20-C ) :   1.1467 B(  1-C , 23-H ) :   0.8416 B(  2-C ,  3-C ) :   1.1625
B(  2-C ,  4-C ) :  -0.1896 B(  2-C , 26-H ) :   0.7940 B(  2-C , 27-H ) :   1.0923
B(  3-C ,  4-C ) :   0.4742 B(  3-C , 28-H ) :   1.0140 B(  4-C , 25-H ) :   1.2748
B(  5-C ,  6-C ) :   0.8929 B(  5-C ,  8-H ) :   0.8857 B(  5-C , 11-H ) :   1.1373
B(  6-C ,  7-C ) :   0.8926 B(  6-C ,  9-H ) :   1.0208 B(  6-C , 12-H ) :   0.9163
B(  6-C , 19-C ) :   0.1083 B(  7-C , 10-H ) :   1.1098 B(  7-C , 13-H ) :   0.9430
B(  7-C , 19-C ) :   0.6918 B( 13-H , 19-C ) :  -0.1253 B( 14-C , 15-H ) :   1.0227
B( 14-C , 16-H ) :   0.9711 B( 14-C , 17-C ) :   1.1366 B( 14-C , 19-C ) :   0.6304
B( 14-C , 20-C ) :   0.1091 B( 17-C , 18-H ) :   0.9597 B( 17-C , 20-C ) :   0.7184
B( 17-C , 22-H ) :   0.9648 B( 19-C , 20-C ) :  -0.2345 B( 19-C , 21-O ) :   0.1674
B( 20-C , 21-O ) :   0.7996

MP2 TOTAL ENERGY:     -540.973814489 Eh
FINAL SINGLE POINT ENERGY      -540.973814489404

DIPOLE MOMENT
-------------
                                X             Y             Z
Electronic contribution:      4.37232       6.73581       0.69938
Nuclear contribution   :     -4.58968      -8.76910      -0.54087
                        -----------------------------------------
Total Dipole Moment    :     -0.21736      -2.03329       0.15851
                        -----------------------------------------
Magnitude (a.u.)       :      2.05101
Magnitude (Debye)      :      5.21324

Rotational constants in cm-1:     0.032175     0.016761     0.012057
Rotational constants in MHz :   964.571234   502.475559   361.452590

                             ****ORCA TERMINATED NORMALLY****
TOTAL RUN TIME: 0 days 0 hours 16 minutes 5 seconds 585 msec
