                         Program Version 4.2.1 -  RELEASE  -
|  1> %pal
|  2>  nprocs 32
|  3> end
|  4> !RI-MP2 aug-cc-pVTZ aug-cc-pVTZ/C TightSCF
|  5> %maxcore 4500
|  6> *xyzfile 1 1  05_28P1.xyz
|  7>
|  8>
|  9>                          ****END OF INPUT****

CARTESIAN COORDINATES (ANGSTROEM)
---------------------------------
  C      1.746709    0.235966   -0.000000
  O      2.805095   -0.519016    0.000003
  C      0.488662   -0.311429    0.000003
  H      0.382795   -1.387933    0.000013
  C     -0.594866    0.550110   -0.000007
  H     -0.370394    1.614580   -0.000017
  C     -1.969945    0.214240   -0.000005
  C     -2.910149    1.266143   -0.000019
  C     -2.430078   -1.120861    0.000011
  C     -4.261663    0.994991   -0.000019
  H     -2.560613    2.292033   -0.000031
  C     -3.779741   -1.383187    0.000012
  H     -1.727002   -1.943346    0.000023
  C     -4.693674   -0.327415   -0.000003
  H     -4.981199    1.802940   -0.000030
  H     -4.135601   -2.405034    0.000024
  H     -5.755423   -0.542746   -0.000003
  C      4.111905    0.146309   -0.000004
  O      4.155961    1.321293   -0.000016
  C      5.171453   -0.884648    0.000029
  H      6.144255   -0.400707   -0.000148
  H      5.061890   -1.520185    0.880743
  H      5.061692   -1.520487   -0.880438
  H      1.919479    1.311360   -0.000013

 Total Charge           Charge          ....    1
 Multiplicity           Mult            ....    1
 Number of Electrons    NEL             ....   92
 Basis Dimension        Dim             ....  851

ORBITAL ENERGIES
----------------

  NO   OCC          E(Eh)            E(eV)
   0   2.0000     -20.796752      -565.9084
   1   2.0000     -20.724234      -563.9351
   2   2.0000     -11.551004      -314.3188
   3   2.0000     -11.524524      -313.5982
   4   2.0000     -11.470568      -312.1300
   5   2.0000     -11.402867      -310.2878
   6   2.0000     -11.401520      -310.2511
   7   2.0000     -11.399590      -310.1986
   8   2.0000     -11.397608      -310.1447
   9   2.0000     -11.396125      -310.1043
  10   2.0000     -11.378479      -309.6242
  11   2.0000     -11.374272      -309.5097
  12   2.0000     -11.372757      -309.4684
  13   2.0000      -1.651128       -44.9295
  14   2.0000      -1.563576       -42.5471
  15   2.0000      -1.326080       -36.0845
  16   2.0000      -1.276169       -34.7263
  17   2.0000      -1.205340       -32.7990
  18   2.0000      -1.173537       -31.9336
  19   2.0000      -1.169227       -31.8163
  20   2.0000      -1.084510       -29.5110
  21   2.0000      -1.008615       -27.4458
  22   2.0000      -0.984208       -26.7817
  23   2.0000      -0.965545       -26.2738
  24   2.0000      -0.934407       -25.4265
  25   2.0000      -0.872149       -23.7324
  26   2.0000      -0.864166       -23.5151
  27   2.0000      -0.848793       -23.0968
  28   2.0000      -0.821674       -22.3589
  29   2.0000      -0.799808       -21.7639
  30   2.0000      -0.797968       -21.7138
  31   2.0000      -0.773576       -21.0501
  32   2.0000      -0.747014       -20.3273
  33   2.0000      -0.740550       -20.1514
  34   2.0000      -0.728982       -19.8366
  35   2.0000      -0.728666       -19.8280
  36   2.0000      -0.709034       -19.2938
  37   2.0000      -0.700102       -19.0507
  38   2.0000      -0.672752       -18.3065
  39   2.0000      -0.664882       -18.0924
  40   2.0000      -0.657268       -17.8852
  41   2.0000      -0.639694       -17.4069
  42   2.0000      -0.621785       -16.9196
  43   2.0000      -0.583693       -15.8831
  44   2.0000      -0.487413       -13.2632
  45   2.0000      -0.477703       -12.9990
  46   0.0000      -0.146194        -3.9781
  47   0.0000      -0.068297        -1.8585
  48   0.0000      -0.060019        -1.6332
  49   0.0000      -0.052101        -1.4178
  50   0.0000      -0.042748        -1.1632

MULLIKEN ATOMIC CHARGES
-----------------------
   0 C :   -0.384887
   1 O :   -0.266246
   2 C :    0.198344
   3 H :    0.106983
   4 C :   -0.040257
   5 H :    0.104954
   6 C :    2.432154
   7 C :   -0.923867
   8 C :   -0.606636
   9 C :   -0.805440
  10 H :   -0.061264
  11 C :   -0.940713
  12 H :   -0.179091
  13 C :    0.068528
  14 H :    0.656844
  15 H :    0.600423
  16 H :    0.380713
  17 C :    0.462310
  18 O :   -0.673193
  19 C :   -0.617244
  20 H :    0.403763
  21 H :    0.299286
  22 H :    0.299286
  23 H :    0.485250
Sum of atomic charges:    1.0000000

LOEWDIN ATOMIC CHARGES
----------------------
   0 C :   -0.004249
   1 O :    0.609904
   2 C :    0.263686
   3 H :   -0.180938
   4 C :    0.279748
   5 H :   -0.149287
   6 C :   -0.098570
   7 C :    0.248315
   8 C :    0.252279
   9 C :    0.251451
  10 H :   -0.156184
  11 C :    0.251398
  12 H :   -0.171258
  13 C :    0.260288
  14 H :   -0.166440
  15 H :   -0.166092
  16 H :   -0.150762
  17 C :   -0.666034
  18 O :    0.526939
  19 C :    0.617895
  20 H :   -0.160878
  21 H :   -0.157603
  22 H :   -0.157611
  23 H :   -0.175999

  Mayer bond orders larger than 0.100000
B(  0-C ,  1-O ) :   1.0294 B(  0-C ,  2-C ) :  -0.2338 B(  0-C ,  4-C ) :  -0.2204
B(  0-C ,  5-H ) :  -0.1508 B(  0-C ,  6-C ) :   0.3778 B(  0-C ,  7-C ) :   0.1373
B(  0-C ,  9-C ) :   0.1045 B(  0-C , 18-O ) :   0.1748 B(  0-C , 23-H ) :   1.0209
B(  1-O ,  2-C ) :  -0.1916 B(  1-O , 17-C ) :   0.7682 B(  2-C ,  3-H ) :   1.8542
B(  2-C ,  4-C ) :   0.4669 B(  2-C ,  6-C ) :  -0.2909 B(  2-C ,  8-C ) :  -0.1024
B(  2-C , 10-H ) :  -0.1725 B(  2-C , 11-C ) :  -0.1632 B(  2-C , 12-H ) :  -0.3360
B(  2-C , 13-C ) :   0.1278 B(  2-C , 14-H ) :   0.1086 B(  2-C , 18-O ) :  -0.1434
B(  2-C , 23-H ) :  -0.2359 B(  3-H ,  4-C ) :  -0.2619 B(  3-H ,  6-C ) :  -0.1830
B(  3-H ,  8-C ) :  -0.1635 B(  4-C ,  5-H ) :   1.4160 B(  4-C ,  6-C ) :   0.4525
B(  4-C ,  7-C ) :   0.1645 B(  4-C ,  8-C ) :   0.2747 B(  4-C , 10-H ) :  -0.4000
B(  4-C , 12-H ) :  -0.2050 B(  4-C , 13-C ) :   0.2695 B(  4-C , 14-H ) :   0.1927
B(  4-C , 15-H ) :   0.1316 B(  6-C ,  7-C ) :  -0.3124 B(  6-C ,  8-C ) :   0.1149
B(  6-C , 10-H ) :  -0.4988 B(  6-C , 11-C ) :   0.1269 B(  6-C , 12-H ) :  -0.5985
B(  7-C ,  8-C ) :  -0.5055 B(  7-C ,  9-C ) :   1.2386 B(  7-C , 10-H ) :   2.1362
B(  7-C , 11-C ) :   0.1297 B(  7-C , 12-H ) :   0.3034 B(  7-C , 13-C ) :  -0.3034
B(  7-C , 14-H ) :  -0.2410 B(  7-C , 15-H ) :  -0.1237 B(  7-C , 16-H ) :   0.3021
B(  8-C , 10-H ) :   0.3104 B(  8-C , 11-C ) :   1.3809 B(  8-C , 12-H ) :   2.1535
B(  8-C , 13-C ) :  -0.2980 B(  9-C , 10-H ) :  -0.1158 B(  9-C , 11-C ) :   0.3593
B(  9-C , 13-C ) :   1.0132 B(  9-C , 14-H ) :   0.3952 B(  9-C , 16-H ) :  -0.1435
B( 10-H , 12-H ) :   0.2578 B( 10-H , 13-C ) :  -0.1026 B( 11-C , 12-H ) :  -0.1214
B( 11-C , 13-C ) :   0.9999 B( 11-C , 15-H ) :   0.4557 B( 11-C , 16-H ) :  -0.1781
B( 12-H , 13-C ) :  -0.1209 B( 12-H , 14-H ) :  -0.1240 B( 12-H , 16-H ) :   0.1365
B( 13-C , 14-H ) :   0.1253 B( 13-C , 15-H ) :   0.1364 B( 13-C , 16-H ) :   0.8944
B( 17-C , 18-O ) :   1.5317 B( 17-C , 19-C ) :   0.6750 B( 19-C , 20-H ) :   0.8720
B( 19-C , 21-H ) :   0.9412 B( 19-C , 22-H ) :   0.9412

MP2 TOTAL ENERGY:     -574.861707219 Eh
FINAL SINGLE POINT ENERGY      -574.861707219188

DIPOLE MOMENT
-------------
                                X             Y             Z
Electronic contribution:      0.75006       2.18987      -0.00010
Nuclear contribution   :     -0.84774      -2.67850       0.00012
                        -----------------------------------------
Total Dipole Moment    :     -0.09767      -0.48863       0.00002
                        -----------------------------------------
Magnitude (a.u.)       :      0.49830
Magnitude (Debye)      :      1.26657

Rotational constants in cm-1:     0.112791     0.008327     0.007765
Rotational constants in MHz :  3381.402950   249.627896   232.801163

                             ****ORCA TERMINATED NORMALLY****
TOTAL RUN TIME: 0 days 0 hours 9 minutes 33 seconds 873 msec
