                         Program Version 4.2.1 -  RELEASE  -
|  1> %pal
|  2>  nprocs 32
|  3> end
|  4> !RI-MP2 aug-cc-pVTZ aug-cc-pVTZ/C TightSCF
|  5> %maxcore 4500
|  6> *xyzfile 0 1  02_39TS.xyz
|  7>
|  8>
|  9>                          ****END OF INPUT****

CARTESIAN COORDINATES (ANGSTROEM)
---------------------------------
  C      4.763277   -1.983414   -0.892725
  C      3.571892   -2.442172   -1.437876
  C      2.360651   -1.937444   -0.994961
  C      2.318107   -0.963032    0.007829
  C      3.521887   -0.504707    0.552443
  C      4.729155   -1.014319    0.100178
  H      5.710614   -2.377711   -1.239817
  H      3.583842   -3.196818   -2.215156
  H      1.439061   -2.300932   -1.431821
  H      3.506049    0.243356    1.330450
  H      5.652988   -0.648799    0.532448
  C      1.011070   -0.438816    0.433589
  C      0.809451    0.462050    1.579438
  O      1.624940    0.913627    2.323563
  O     -0.556805    0.689031    1.825029
  N     -0.103009   -0.968689    0.021205
  N     -0.765823   -1.849079   -0.449195
  C     -1.259591    0.964115    0.689118
  C     -2.482263    0.397829    0.330696
  H     -3.100247    1.062997   -0.263636
  C     -0.825677    2.195313   -0.003388
  C     -1.061804    2.357390   -1.370578
  C     -0.168009    3.209895    0.697373
  C     -0.663062    3.513450   -2.019852
  H     -1.530903    1.557316   -1.929693
  C      0.226636    4.365790    0.043465
  H      0.023183    3.090693    1.755424
  C     -0.019233    4.521815   -1.313929
  H     -0.841478    3.622645   -3.082594
  H      0.728454    5.149070    0.598118
  H      0.296155    5.424492   -1.822923
  C     -2.883671   -0.920001    0.334432
  C     -4.143234   -1.376029   -0.363661
  C     -2.083059   -2.062425    0.651431
  C     -3.803439   -2.797096   -0.834056
  H     -4.448550   -0.704709   -1.168537
  C     -2.833712   -3.306303    0.238199
  H     -1.527869   -2.098246    1.581151
  H     -4.683452   -3.429366   -0.952038
  H     -3.289758   -2.751169   -1.796608
  H     -2.154854   -4.083147   -0.116904
  H     -3.375898   -3.704291    1.101912
  H     -4.962838   -1.403579    0.364423

 Total Charge           Charge          ....    0
 Multiplicity           Mult            ....    1
 Number of Electrons    NEL             ....  174
 Basis Dimension        Dim             .... 1564

ORBITAL ENERGIES
----------------

  NO   OCC          E(Eh)            E(eV)
   0   2.0000     -20.619054      -561.0730
   1   2.0000     -20.548523      -559.1537
   2   2.0000     -15.658635      -426.0931
   3   2.0000     -15.631997      -425.3683
   4   2.0000     -11.388307      -309.8916
   5   2.0000     -11.360417      -309.1327
   6   2.0000     -11.283729      -307.0459
   7   2.0000     -11.280694      -306.9633
   8   2.0000     -11.271475      -306.7124
   9   2.0000     -11.259289      -306.3808
  10   2.0000     -11.253158      -306.2140
  11   2.0000     -11.251387      -306.1658
  12   2.0000     -11.250162      -306.1325
  13   2.0000     -11.246937      -306.0447
  14   2.0000     -11.246705      -306.0384
  15   2.0000     -11.245135      -305.9957
  16   2.0000     -11.244262      -305.9719
  17   2.0000     -11.244217      -305.9707
  18   2.0000     -11.235847      -305.7429
  19   2.0000     -11.235081      -305.7221
  20   2.0000     -11.225917      -305.4727
  21   2.0000     -11.224213      -305.4264
  22   2.0000     -11.223639      -305.4107
  23   2.0000     -11.222872      -305.3899
  24   2.0000     -11.219247      -305.2912
  25   2.0000      -1.478051       -40.2198
  26   2.0000      -1.396947       -38.0129
  27   2.0000      -1.384804       -37.6824
  28   2.0000      -1.183336       -32.2002
  29   2.0000      -1.174802       -31.9680
  30   2.0000      -1.155695       -31.4481
  31   2.0000      -1.113124       -30.2896
  32   2.0000      -1.094958       -29.7953
  33   2.0000      -1.040063       -28.3016
  34   2.0000      -1.032399       -28.0930
  35   2.0000      -1.010578       -27.4992
  36   2.0000      -1.007684       -27.4205
  37   2.0000      -0.989751       -26.9325
  38   2.0000      -0.969357       -26.3776
  39   2.0000      -0.883810       -24.0497
  40   2.0000      -0.871994       -23.7282
  41   2.0000      -0.844833       -22.9891
  42   2.0000      -0.838912       -22.8280
  43   2.0000      -0.828223       -22.5371
  44   2.0000      -0.813156       -22.1271
  45   2.0000      -0.800680       -21.7876
  46   2.0000      -0.762613       -20.7518
  47   2.0000      -0.749187       -20.3864
  48   2.0000      -0.733953       -19.9719
  49   2.0000      -0.712427       -19.3861
  50   2.0000      -0.697029       -18.9671
  51   2.0000      -0.685171       -18.6444
  52   2.0000      -0.679053       -18.4780
  53   2.0000      -0.653779       -17.7902
  54   2.0000      -0.647504       -17.6195
  55   2.0000      -0.646578       -17.5943
  56   2.0000      -0.637169       -17.3383
  57   2.0000      -0.632278       -17.2052
  58   2.0000      -0.617210       -16.7951
  59   2.0000      -0.612643       -16.6709
  60   2.0000      -0.606470       -16.5029
  61   2.0000      -0.602577       -16.3970
  62   2.0000      -0.596335       -16.2271
  63   2.0000      -0.577950       -15.7268
  64   2.0000      -0.569997       -15.5104
  65   2.0000      -0.567194       -15.4341
  66   2.0000      -0.556161       -15.1339
  67   2.0000      -0.546456       -14.8698
  68   2.0000      -0.532473       -14.4893
  69   2.0000      -0.526329       -14.3221
  70   2.0000      -0.520679       -14.1684
  71   2.0000      -0.509884       -13.8747
  72   2.0000      -0.507523       -13.8104
  73   2.0000      -0.502561       -13.6754
  74   2.0000      -0.498704       -13.5704
  75   2.0000      -0.497684       -13.5427
  76   2.0000      -0.493410       -13.4264
  77   2.0000      -0.488503       -13.2928
  78   2.0000      -0.481342       -13.0980
  79   2.0000      -0.453729       -12.3466
  80   2.0000      -0.395050       -10.7498
  81   2.0000      -0.379923       -10.3382
  82   2.0000      -0.358122        -9.7450
  83   2.0000      -0.352247        -9.5851
  84   2.0000      -0.329600        -8.9689
  85   2.0000      -0.299780        -8.1574
  86   2.0000      -0.271216        -7.3802
  87   0.0000       0.020639         0.5616
  88   0.0000       0.022726         0.6184
  89   0.0000       0.026033         0.7084
  90   0.0000       0.031127         0.8470
  91   0.0000       0.031715         0.8630

MULLIKEN ATOMIC CHARGES
-----------------------
   0 C :   -0.138717
   1 C :   -1.064934
   2 C :   -0.959891
   3 C :    2.676840
   4 C :   -0.942145
   5 C :   -0.859968
   6 H :    0.389037
   7 H :    0.548064
   8 H :    0.072032
   9 H :   -0.098984
  10 H :    0.519627
  11 C :    0.596299
  12 C :    0.868235
  13 O :   -1.218643
  14 O :   -1.032695
  15 N :    0.514232
  16 N :   -1.258307
  17 C :    1.667791
  18 C :   -0.616850
  19 H :   -0.666273
  20 C :    1.930454
  21 C :   -0.602772
  22 C :   -1.283360
  23 C :   -1.024366
  24 H :    0.088785
  25 C :   -0.770140
  26 H :    0.086189
  27 C :   -0.007836
  28 H :    0.377741
  29 H :    0.456648
  30 H :    0.624260
  31 C :    1.133676
  32 C :   -0.575633
  33 C :   -0.112131
  34 C :   -0.516276
  35 H :    0.337797
  36 C :   -0.882836
  37 H :    0.484711
  38 H :    0.359461
  39 H :    0.172270
  40 H :    0.318461
  41 H :    0.184011
  42 H :    0.226134
Sum of atomic charges:    0.0000000

LOEWDIN ATOMIC CHARGES
----------------------
   0 C :    0.190790
   1 C :    0.197501
   2 C :    0.210573
   3 C :   -0.116363
   4 C :    0.218231
   5 C :    0.199343
   6 H :   -0.186142
   7 H :   -0.182734
   8 H :   -0.215957
   9 H :   -0.241395
  10 H :   -0.182177
  11 C :   -0.234188
  12 C :   -0.794115
  13 O :    0.495015
  14 O :    0.596105
  15 N :    0.074344
  16 N :    0.364339
  17 C :   -0.372949
  18 C :    0.240817
  19 H :   -0.198821
  20 C :   -0.121098
  21 C :    0.222566
  22 C :    0.224969
  23 C :    0.215905
  24 H :   -0.170465
  25 C :    0.220093
  26 H :   -0.184150
  27 C :    0.209571
  28 H :   -0.179251
  29 H :   -0.176824
  30 H :   -0.176679
  31 C :   -0.068664
  32 C :    0.318463
  33 C :   -0.040515
  34 C :    0.311888
  35 H :   -0.138684
  36 C :    0.298297
  37 H :   -0.146160
  38 H :   -0.138361
  39 H :   -0.139757
  40 H :   -0.138963
  41 H :   -0.135777
  42 H :   -0.128622

  Mayer bond orders larger than 0.100000
B(  0-C ,  1-C ) :   1.0478 B(  0-C ,  2-C ) :  -0.2581 B(  0-C ,  4-C ) :  -0.2067
B(  0-C ,  5-C ) :   1.0097 B(  0-C ,  6-H ) :   0.9212 B(  0-C ,  8-H ) :  -0.1237
B(  0-C ,  9-H ) :  -0.1203 B(  0-C , 11-C ) :   0.2899 B(  1-C ,  2-C ) :   1.3050
B(  1-C ,  3-C ) :  -0.2264 B(  1-C ,  5-C ) :   0.3624 B(  1-C ,  6-H ) :  -0.2121
B(  1-C ,  7-H ) :   0.4669 B(  2-C ,  3-C ) :  -0.1617 B(  2-C ,  4-C ) :  -0.9354
B(  2-C ,  5-C ) :   0.1884 B(  2-C ,  6-H ) :   0.1553 B(  2-C ,  7-H ) :  -0.1153
B(  2-C ,  8-H ) :   1.8907 B(  2-C ,  9-H ) :   0.2713 B(  2-C , 11-C ) :   0.5589
B(  2-C , 16-N ) :  -0.1830 B(  3-C ,  8-H ) :  -0.1713 B(  3-C ,  9-H ) :  -0.3709
B(  3-C , 11-C ) :  -0.3084 B(  3-C , 15-N ) :  -0.4212 B(  4-C ,  5-C ) :   1.2338
B(  4-C ,  6-H ) :   0.1805 B(  4-C ,  9-H ) :   2.1578 B(  4-C , 10-H ) :  -0.1392
B(  4-C , 11-C ) :   0.6456 B(  5-C ,  6-H ) :  -0.2320 B(  5-C , 10-H ) :   0.6592
B(  5-C , 11-C ) :  -0.1262 B(  5-C , 12-C ) :   0.1133 B(  5-C , 15-N ) :   0.1176
B(  6-H , 11-C ) :  -0.2152 B(  7-H ,  9-H ) :  -0.1410 B(  7-H , 11-C ) :   0.3753
B(  8-H ,  9-H ) :   0.4319 B(  8-H , 10-H ) :  -0.1094 B(  8-H , 11-C ) :  -0.5548
B(  8-H , 12-C ) :   0.1207 B(  8-H , 15-N ) :  -0.1220 B(  9-H , 11-C ) :  -0.6234
B( 10-H , 11-C ) :   0.1511 B( 11-C , 12-C ) :   0.4505 B( 11-C , 13-O ) :   0.1618
B( 11-C , 14-O ) :  -0.2428 B( 11-C , 15-N ) :   1.6859 B( 11-C , 16-N ) :  -0.2740
B( 11-C , 17-C ) :   0.1196 B( 11-C , 33-C ) :  -0.1353 B( 12-C , 13-O ) :   0.5594
B( 12-C , 14-O ) :   1.2125 B( 12-C , 15-N ) :  -0.2493 B( 12-C , 16-N ) :   0.1561
B( 12-C , 20-C ) :   0.2474 B( 13-O , 14-O ) :  -0.2272 B( 14-O , 15-N ) :   0.1268
B( 14-O , 17-C ) :  -0.2885 B( 14-O , 18-C ) :   0.1462 B( 14-O , 20-C ) :   0.1171
B( 14-O , 26-H ) :  -0.1184 B( 15-N , 16-N ) :  -0.1357 B( 15-N , 17-C ) :   0.1321
B( 15-N , 31-C ) :   0.1289 B( 15-N , 33-C ) :  -0.1417 B( 16-N , 17-C ) :   0.1457
B( 16-N , 31-C ) :   0.2704 B( 16-N , 33-C ) :   0.8218 B( 17-C , 18-C ) :   0.5646
B( 17-C , 19-H ) :  -0.4749 B( 17-C , 20-C ) :   0.2359 B( 17-C , 22-C ) :   0.8805
B( 17-C , 24-H ) :  -0.1931 B( 17-C , 30-H ) :   0.1120 B( 17-C , 31-C ) :   0.2974
B( 18-C , 19-H ) :   2.1662 B( 18-C , 20-C ) :   0.1922 B( 18-C , 22-C ) :  -0.3626
B( 18-C , 31-C ) :   1.0851 B( 18-C , 32-C ) :   0.4726 B( 18-C , 33-C ) :  -0.3299
B( 19-H , 21-C ) :  -0.2105 B( 19-H , 31-C ) :  -0.4340 B( 19-H , 33-C ) :   0.1508
B( 20-C , 21-C ) :   0.6185 B( 20-C , 22-C ) :  -0.8097 B( 20-C , 23-C ) :  -0.1939
B( 20-C , 24-H ) :  -0.1496 B( 20-C , 25-C ) :  -0.1309 B( 20-C , 26-H ) :  -0.3442
B( 21-C , 22-C ) :  -0.5189 B( 21-C , 23-C ) :   1.4525 B( 21-C , 24-H ) :   1.6671
B( 22-C , 23-C ) :   0.1771 B( 22-C , 24-H ) :   0.2135 B( 22-C , 25-C ) :   1.5074
B( 22-C , 26-H ) :   1.7139 B( 22-C , 27-C ) :  -0.1154 B( 22-C , 29-H ) :  -0.1440
B( 22-C , 30-H ) :   0.1201 B( 23-C , 25-C ) :   0.1353 B( 23-C , 27-C ) :   1.2040
B( 23-C , 28-H ) :   0.9145 B( 23-C , 30-H ) :  -0.2006 B( 24-H , 25-C ) :  -0.1355
B( 24-H , 26-H ) :   0.1351 B( 25-C , 27-C ) :   1.1447 B( 25-C , 29-H ) :   0.8209
B( 25-C , 30-H ) :  -0.2225 B( 27-C , 30-H ) :   0.5652 B( 31-C , 33-C ) :   1.3137
B( 31-C , 34-C ) :  -0.1281 B( 31-C , 42-H ) :  -0.1329 B( 32-C , 34-C ) :   0.9791
B( 32-C , 35-H ) :   0.9164 B( 32-C , 36-C ) :   0.1714 B( 32-C , 42-H ) :   1.0750
B( 33-C , 36-C ) :   0.8251 B( 33-C , 37-H ) :   0.7150 B( 34-C , 36-C ) :   1.0693
B( 34-C , 38-H ) :   0.8784 B( 34-C , 39-H ) :   1.0719 B( 36-C , 37-H ) :  -0.1287
B( 36-C , 40-H ) :   0.9148 B( 36-C , 41-H ) :   1.0731

MP2 TOTAL ENERGY:    -1068.843606110 Eh
FINAL SINGLE POINT ENERGY     -1068.843606109729

DIPOLE MOMENT
-------------
                                X             Y             Z
Electronic contribution:      7.27315       6.56314       7.54503
Nuclear contribution   :     -8.86603      -6.46817      -8.59813
                        -----------------------------------------
Total Dipole Moment    :     -1.59287       0.09497      -1.05310
                        -----------------------------------------
Magnitude (a.u.)       :      1.91188
Magnitude (Debye)      :      4.85961

Rotational constants in cm-1:     0.008354     0.007051     0.004638
Rotational constants in MHz :   250.456550   211.387065   139.053564

                             ****ORCA TERMINATED NORMALLY****
TOTAL RUN TIME: 0 days 1 hours 52 minutes 41 seconds 147 msec
