                         Program Version 4.2.1 -  RELEASE  -
|  1> %pal
|  2>  nprocs 32
|  3> end
|  4> !RI-MP2 aug-cc-pVTZ aug-cc-pVTZ/C TightSCF
|  5> %maxcore 4500
|  6> *xyzfile 0 1  09_26TS.xyz
|  7>
|  8>
|  9>                          ****END OF INPUT****

CARTESIAN COORDINATES (ANGSTROEM)
---------------------------------
  C     -0.688438    1.844416   -0.175500
  C     -0.456469    0.527385    0.512351
  C      0.731564    0.296984    1.213443
  C      2.003956    0.196335   -0.312895
  C      3.326535    0.164667    0.458224
  C      4.454727    0.006746   -0.538255
  N     -1.301221   -0.477514    0.345639
  C     -2.545546   -0.449975   -0.406126
  C     -3.748356   -0.059779    0.447790
  H     -2.697419   -1.443624   -0.832032
  H     -2.435607    0.237380   -1.246119
  C     -5.037428   -0.044615   -0.364194
  H     -3.568904    0.922576    0.896902
  H     -3.840063   -0.768489    1.276957
  C     -6.244654    0.351013    0.480879
  H     -5.215081   -1.026563   -0.804420
  H     -4.936524    0.663402   -1.195829
  C     -7.574319    0.380287   -0.279071
  H     -6.080572    1.352713    0.891817
  H     -6.336414   -0.329727    1.334394
  C     -8.093564   -1.031397   -0.606338
  N     -8.641901    1.128128    0.394064
  H     -7.414057    0.853886   -1.253423
  O     -7.379106   -1.945662   -0.910462
  O     -9.418222   -1.142558   -0.548897
  H     -9.743230   -0.271348   -0.235410
  O      0.294143    2.790099    0.114748
  H     -1.661333    2.243841    0.125117
  H     -0.725880    1.643287   -1.255168
  H      1.081552    2.497199   -0.395190
  O      0.732623   -0.918898    1.889801
  H      1.143566    1.152801    1.739682
  H      1.659151   -1.194904    1.981577
  O      1.894341    1.142954   -1.145086
  H      1.663075   -0.820480   -0.589565
  O      3.346976   -0.921028    1.382069
  H      3.452380    1.114054    0.988615
  H      4.240360   -0.993959    1.734564
  O      5.658497   -0.143354    0.252061
  H      4.530041    0.881726   -1.180245
  H      4.312749   -0.892594   -1.143208
  H     -8.625124    2.112150    0.160656
  H     -8.576165    1.045912    1.403185
  P      7.086568   -0.264556   -0.466383
  O      8.064387   -0.190301    0.799018
  H      8.267508    0.705244    1.089211
  O      7.233125   -1.795859   -0.888023
  H      7.195066   -2.428975   -0.163073
  O      7.311460    0.672128   -1.565148
  H     -1.059576   -1.314035    0.866339

 Total Charge           Charge          ....    0
 Multiplicity           Mult            ....    1
 Number of Electrons    NEL             ....  206
 Basis Dimension        Dim             .... 1729

ORBITAL ENERGIES
----------------

  NO   OCC          E(Eh)            E(eV)
   0   2.0000     -80.111751     -2179.9516
   1   2.0000     -20.613535      -560.9228
   2   2.0000     -20.610667      -560.8448
   3   2.0000     -20.604562      -560.6786
   4   2.0000     -20.601720      -560.6013
   5   2.0000     -20.582948      -560.0905
   6   2.0000     -20.561290      -559.5011
   7   2.0000     -20.544530      -559.0451
   8   2.0000     -20.542292      -558.9842
   9   2.0000     -20.513941      -558.2127
  10   2.0000     -20.476191      -557.1855
  11   2.0000     -15.623513      -425.1374
  12   2.0000     -15.593482      -424.3202
  13   2.0000     -11.383664      -309.7652
  14   2.0000     -11.330902      -308.3295
  15   2.0000     -11.314855      -307.8928
  16   2.0000     -11.304506      -307.6112
  17   2.0000     -11.299376      -307.4716
  18   2.0000     -11.297933      -307.4324
  19   2.0000     -11.294064      -307.3271
  20   2.0000     -11.293387      -307.3087
  21   2.0000     -11.268673      -306.6362
  22   2.0000     -11.255101      -306.2669
  23   2.0000     -11.249064      -306.1026
  24   2.0000     -11.241147      -305.8872
  25   2.0000      -7.628230      -207.5747
  26   2.0000      -5.526790      -150.3916
  27   2.0000      -5.526328      -150.3790
  28   2.0000      -5.525332      -150.3519
  29   2.0000      -1.465109       -39.8676
  30   2.0000      -1.464867       -39.8611
  31   2.0000      -1.406331       -38.2682
  32   2.0000      -1.392897       -37.9027
  33   2.0000      -1.386781       -37.7362
  34   2.0000      -1.373438       -37.3732
  35   2.0000      -1.367970       -37.2244
  36   2.0000      -1.362226       -37.0681
  37   2.0000      -1.315171       -35.7876
  38   2.0000      -1.303118       -35.4596
  39   2.0000      -1.296233       -35.2723
  40   2.0000      -1.235583       -33.6219
  41   2.0000      -1.113768       -30.3072
  42   2.0000      -1.065119       -28.9834
  43   2.0000      -1.040292       -28.3078
  44   2.0000      -1.017960       -27.7001
  45   2.0000      -0.962108       -26.1803
  46   2.0000      -0.941771       -25.6269
  47   2.0000      -0.912159       -24.8211
  48   2.0000      -0.883825       -24.0501
  49   2.0000      -0.844819       -22.9887
  50   2.0000      -0.831985       -22.6395
  51   2.0000      -0.816428       -22.2161
  52   2.0000      -0.801013       -21.7967
  53   2.0000      -0.794966       -21.6321
  54   2.0000      -0.772317       -21.0158
  55   2.0000      -0.757023       -20.5997
  56   2.0000      -0.743371       -20.2281
  57   2.0000      -0.735745       -20.0206
  58   2.0000      -0.719894       -19.5893
  59   2.0000      -0.712855       -19.3978
  60   2.0000      -0.700522       -19.0622
  61   2.0000      -0.696216       -18.9450
  62   2.0000      -0.690683       -18.7944
  63   2.0000      -0.679523       -18.4908
  64   2.0000      -0.670141       -18.2355
  65   2.0000      -0.668803       -18.1991
  66   2.0000      -0.649973       -17.6867
  67   2.0000      -0.640148       -17.4193
  68   2.0000      -0.638932       -17.3862
  69   2.0000      -0.634368       -17.2620
  70   2.0000      -0.629238       -17.1224
  71   2.0000      -0.612924       -16.6785
  72   2.0000      -0.611510       -16.6400
  73   2.0000      -0.607259       -16.5244
  74   2.0000      -0.602037       -16.3823
  75   2.0000      -0.599838       -16.3224
  76   2.0000      -0.590413       -16.0660
  77   2.0000      -0.583332       -15.8733
  78   2.0000      -0.578797       -15.7499
  79   2.0000      -0.567027       -15.4296
  80   2.0000      -0.561531       -15.2800
  81   2.0000      -0.557198       -15.1621
  82   2.0000      -0.554543       -15.0899
  83   2.0000      -0.551998       -15.0206
  84   2.0000      -0.544302       -14.8112
  85   2.0000      -0.534251       -14.5377
  86   2.0000      -0.529325       -14.4037
  87   2.0000      -0.519003       -14.1228
  88   2.0000      -0.516092       -14.0436
  89   2.0000      -0.507022       -13.7968
  90   2.0000      -0.501705       -13.6521
  91   2.0000      -0.499562       -13.5938
  92   2.0000      -0.479737       -13.0543
  93   2.0000      -0.477003       -12.9799
  94   2.0000      -0.474631       -12.9154
  95   2.0000      -0.471587       -12.8325
  96   2.0000      -0.469133       -12.7658
  97   2.0000      -0.461377       -12.5547
  98   2.0000      -0.451690       -12.2911
  99   2.0000      -0.447232       -12.1698
 100   2.0000      -0.426004       -11.5922
 101   2.0000      -0.379200       -10.3186
 102   2.0000      -0.305641        -8.3169
 103   0.0000       0.011427         0.3109
 104   0.0000       0.021734         0.5914
 105   0.0000       0.023207         0.6315
 106   0.0000       0.028814         0.7841
 107   0.0000       0.030811         0.8384

MULLIKEN ATOMIC CHARGES
-----------------------
   0 C :    0.259189
   1 C :    0.189139
   2 C :    0.784782
   3 C :    0.527099
   4 C :    0.686872
   5 C :   -0.498395
   6 N :   -0.573128
   7 C :   -0.647662
   8 C :   -0.248220
   9 H :    0.376752
  10 H :    0.243679
  11 C :   -0.319172
  12 H :    0.284954
  13 H :    0.215916
  14 C :   -0.487994
  15 H :    0.317686
  16 H :    0.217587
  17 C :    0.667477
  18 H :    0.194408
  19 H :    0.308776
  20 C :    0.575912
  21 N :   -0.666094
  22 H :    0.284758
  23 O :   -0.755784
  24 O :   -0.605058
  25 H :    0.229971
  26 O :   -0.945632
  27 H :    0.286209
  28 H :    0.306503
  29 H :    0.245062
  30 O :   -1.038649
  31 H :    0.380628
  32 H :    0.194735
  33 O :   -1.290797
  34 H :    0.416795
  35 O :   -0.674941
  36 H :    0.269239
  37 H :    0.147918
  38 O :   -0.587332
  39 H :    0.374913
  40 H :    0.213417
  41 H :    0.051911
  42 H :    0.074940
  43 P :    1.727400
  44 O :   -0.550516
  45 H :    0.172157
  46 O :   -0.510483
  47 H :    0.182121
  48 O :   -0.963629
  49 H :   -0.045417
Sum of atomic charges:   -0.0000000

LOEWDIN ATOMIC CHARGES
----------------------
   0 C :    0.046109
   1 C :   -0.154128
   2 C :   -0.124427
   3 C :   -0.356964
   4 C :   -0.262429
   5 C :    0.019822
   6 N :    0.615986
   7 C :    0.236587
   8 C :    0.301750
   9 H :   -0.122003
  10 H :   -0.151073
  11 C :    0.283577
  12 H :   -0.142995
  13 H :   -0.130407
  14 C :    0.292182
  15 H :   -0.180413
  16 H :   -0.130582
  17 C :   -0.098208
  18 H :   -0.140308
  19 H :   -0.132207
  20 C :   -0.768888
  21 N :    0.867238
  22 H :   -0.128793
  23 O :    0.463035
  24 O :    0.849234
  25 H :   -0.589928
  26 O :    0.845634
  27 H :   -0.152257
  28 H :   -0.144882
  29 H :   -0.698763
  30 O :    0.852691
  31 H :   -0.180246
  32 H :   -0.641730
  33 O :    0.472608
  34 H :   -0.162568
  35 O :    0.887568
  36 H :   -0.135040
  37 H :   -0.486178
  38 O :    0.375248
  39 H :   -0.157248
  40 H :   -0.140373
  41 H :   -0.285239
  42 H :   -0.283159
  43 P :   -0.250836
  44 O :    0.630609
  45 H :   -0.534790
  46 O :    0.634284
  47 H :   -0.534519
  48 O :    0.020862
  49 H :   -0.293443

  Mayer bond orders larger than 0.100000
B(  0-C ,  1-C ) :   0.3928 B(  0-C , 26-O ) :   0.5466 B(  0-C , 27-H ) :   1.0305
B(  0-C , 28-H ) :   1.0177 B(  1-C ,  2-C ) :   0.5692 B(  1-C ,  3-C ) :   0.1479
B(  1-C ,  6-N ) :   0.7773 B(  1-C ,  7-C ) :  -0.1577 B(  1-C , 30-O ) :   0.2600
B(  1-C , 31-H ) :  -0.1069 B(  1-C , 49-H ) :  -0.2311 B(  2-C ,  3-C ) :   0.6005
B(  2-C , 31-H ) :   1.0083 B(  2-C , 32-H ) :  -0.1053 B(  2-C , 33-O ) :   0.1100
B(  3-C ,  4-C ) :   0.8624 B(  3-C , 30-O ) :   0.1391 B(  3-C , 33-O ) :   0.3986
B(  3-C , 34-H ) :   0.9470 B(  4-C ,  5-C ) :   0.7677 B(  4-C , 33-O ) :   0.2539
B(  4-C , 35-O ) :   0.3805 B(  4-C , 36-H ) :   1.0424 B(  4-C , 38-O ) :  -0.2089
B(  5-C , 38-O ) :   0.9683 B(  5-C , 39-H ) :   0.9414 B(  5-C , 40-H ) :   0.9943
B(  6-N ,  7-C ) :   1.2429 B(  6-N ,  8-C ) :  -0.2158 B(  6-N , 49-H ) :   1.3574
B(  7-C ,  8-C ) :   0.9428 B(  7-C ,  9-H ) :   0.8345 B(  7-C , 10-H ) :   1.0651
B(  7-C , 13-H ) :   0.1050 B(  8-C , 11-C ) :   0.8983 B(  8-C , 12-H ) :   0.9699
B(  8-C , 13-H ) :   1.0015 B( 11-C , 14-C ) :   0.8560 B( 11-C , 15-H ) :   0.9326
B( 11-C , 16-H ) :   1.0026 B( 11-C , 19-H ) :   0.1054 B( 14-C , 17-C ) :   0.9342
B( 14-C , 18-H ) :   0.9729 B( 14-C , 19-H ) :   0.8884 B( 14-C , 20-C ) :   0.2879
B( 17-C , 20-C ) :   0.4811 B( 17-C , 21-N ) :   0.3562 B( 17-C , 22-H ) :   0.9197
B( 17-C , 24-O ) :   0.1297 B( 20-C , 21-N ) :   0.1985 B( 20-C , 23-O ) :   1.4504
B( 20-C , 24-O ) :   0.6893 B( 21-N , 25-H ) :   0.1596 B( 21-N , 41-H ) :   1.0970
B( 21-N , 42-H ) :   0.9976 B( 23-O , 24-O ) :  -0.1228 B( 24-O , 25-H ) :   0.8542
B( 26-O , 29-H ) :   0.7536 B( 29-H , 33-O ) :   0.2113 B( 30-O , 32-H ) :   1.0054
B( 35-O , 37-H ) :   1.0423 B( 38-O , 43-P ) :   1.1122 B( 38-O , 46-O ) :   0.1371
B( 43-P , 44-O ) :   0.7018 B( 43-P , 46-O ) :   0.8115 B( 43-P , 48-O ) :   1.4094
B( 44-O , 45-H ) :   0.9728 B( 46-O , 47-H ) :   0.9764

MP2 TOTAL ENERGY:    -1672.907492136 Eh
FINAL SINGLE POINT ENERGY     -1672.907492136062

DIPOLE MOMENT
-------------
                                X             Y             Z
Electronic contribution:     39.79386      -5.78139      -2.25152
Nuclear contribution   :    -41.74432       6.13595       4.61704
                        -----------------------------------------
Total Dipole Moment    :     -1.95046       0.35457       2.36553
                        -----------------------------------------
Magnitude (a.u.)       :      3.08638
Magnitude (Debye)      :      7.84495

Rotational constants in cm-1:     0.023474     0.001373     0.001354
Rotational constants in MHz :   703.728973    41.152090    40.589251

                             ****ORCA TERMINATED NORMALLY****
TOTAL RUN TIME: 0 days 1 hours 7 minutes 42 seconds 706 msec
