                         Program Version 4.2.1 -  RELEASE  -
|  1> %pal
|  2>  nprocs 32
|  3> end
|  4> !RI-MP2 aug-cc-pVTZ aug-cc-pVTZ/C TightSCF
|  5> %maxcore 4500
|  6> *xyzfile 0 1  04_90R1.xyz
|  7>
|  8>
|  9>                          ****END OF INPUT****

CARTESIAN COORDINATES (ANGSTROEM)
---------------------------------
  C      2.134632    0.061724   -0.701143
  C      2.424750    0.142606    0.800206
  O      2.824741   -0.762409    1.480636
  O      2.227818    1.380903    1.277514
  H      2.439896    1.370944    2.221306
  N      1.030426    0.884511   -1.144546
  C     -0.211685    0.439321   -0.642030
  C     -0.430778   -0.893846   -0.392426
  N      0.553606   -1.801946   -0.634790
  C      1.861306   -1.386968   -1.108590
  H      2.617981   -2.041165   -0.679268
  H      1.916591   -1.446432   -2.198020
  C     -1.231279    1.384097   -0.360025
  N     -2.417258    0.791236    0.118783
  C     -2.548228   -0.542030    0.342114
  N     -1.604577   -1.393923    0.098460
  O     -1.159950    2.598800   -0.484146
  N     -3.731855   -0.968777    0.891942
  H     -3.835609   -1.971807    0.889614
  H     -4.569193   -0.457644    0.661083
  H     -3.138777    1.443053    0.393661
  H      1.150892    1.876213   -0.978097
  H      0.426031   -2.717607   -0.237846
  H      3.046616    0.398956   -1.202053

 Total Charge           Charge          ....    0
 Multiplicity           Mult            ....    1
 Number of Electrons    NEL             ....  110
 Basis Dimension        Dim             ....  897

ORBITAL ENERGIES
----------------

  NO   OCC          E(Eh)            E(eV)
   0   2.0000     -20.615474      -560.9756
   1   2.0000     -20.553526      -559.2899
   2   2.0000     -20.509466      -558.0909
   3   2.0000     -15.622793      -425.1178
   4   2.0000     -15.604420      -424.6178
   5   2.0000     -15.580687      -423.9720
   6   2.0000     -15.558211      -423.3604
   7   2.0000     -15.553325      -423.2275
   8   2.0000     -11.385847      -309.8247
   9   2.0000     -11.385589      -309.8176
  10   2.0000     -11.349353      -308.8316
  11   2.0000     -11.326506      -308.2099
  12   2.0000     -11.288114      -307.1652
  13   2.0000     -11.274933      -306.8065
  14   2.0000     -11.238109      -305.8045
  15   2.0000      -1.473597       -40.0986
  16   2.0000      -1.389365       -37.8065
  17   2.0000      -1.369113       -37.2555
  18   2.0000      -1.341393       -36.5012
  19   2.0000      -1.291302       -35.1381
  20   2.0000      -1.222459       -33.2648
  21   2.0000      -1.218291       -33.1514
  22   2.0000      -1.186805       -32.2946
  23   2.0000      -1.061984       -28.8980
  24   2.0000      -0.974338       -26.5131
  25   2.0000      -0.936482       -25.4830
  26   2.0000      -0.878025       -23.8923
  27   2.0000      -0.870609       -23.6905
  28   2.0000      -0.799154       -21.7461
  29   2.0000      -0.793640       -21.5960
  30   2.0000      -0.749689       -20.4001
  31   2.0000      -0.723947       -19.6996
  32   2.0000      -0.710798       -19.3418
  33   2.0000      -0.696586       -18.9551
  34   2.0000      -0.692531       -18.8447
  35   2.0000      -0.673161       -18.3176
  36   2.0000      -0.669403       -18.2154
  37   2.0000      -0.648103       -17.6358
  38   2.0000      -0.635328       -17.2881
  39   2.0000      -0.621808       -16.9202
  40   2.0000      -0.615315       -16.7436
  41   2.0000      -0.603862       -16.4319
  42   2.0000      -0.577726       -15.7207
  43   2.0000      -0.560086       -15.2407
  44   2.0000      -0.539811       -14.6890
  45   2.0000      -0.524875       -14.2826
  46   2.0000      -0.515767       -14.0347
  47   2.0000      -0.488265       -13.2864
  48   2.0000      -0.484056       -13.1718
  49   2.0000      -0.454767       -12.3748
  50   2.0000      -0.442441       -12.0394
  51   2.0000      -0.431643       -11.7456
  52   2.0000      -0.415317       -11.3013
  53   2.0000      -0.383938       -10.4475
  54   2.0000      -0.277200        -7.5430
  55   0.0000       0.017926         0.4878
  56   0.0000       0.029561         0.8044
  57   0.0000       0.034711         0.9445
  58   0.0000       0.038342         1.0433
  59   0.0000       0.043526         1.1844

MULLIKEN ATOMIC CHARGES
-----------------------
   0 C :    0.053236
   1 C :    0.893283
   2 O :   -0.963982
   3 O :   -0.529516
   4 H :    0.224241
   5 N :   -0.783439
   6 C :    1.908945
   7 C :    0.456858
   8 N :   -0.173839
   9 C :   -0.250595
  10 H :    0.340243
  11 H :    0.259904
  12 C :   -0.074824
  13 N :    0.191312
  14 C :   -0.234391
  15 N :   -0.571235
  16 O :   -0.997847
  17 N :   -0.517876
  18 H :    0.120258
  19 H :    0.123218
  20 H :    0.130320
  21 H :   -0.064697
  22 H :    0.028622
  23 H :    0.431803
Sum of atomic charges:   -0.0000000

LOEWDIN ATOMIC CHARGES
----------------------
   0 C :   -0.124946
   1 C :   -0.767536
   2 O :    0.472796
   3 O :    0.853354
   4 H :   -0.457905
   5 N :    0.562270
   6 C :   -0.226235
   7 C :   -0.407710
   8 N :    0.586915
   9 C :    0.219168
  10 H :   -0.152252
  11 H :   -0.132664
  12 C :   -0.669438
  13 N :    0.582296
  14 C :   -0.522095
  15 N :    0.431028
  16 O :    0.433330
  17 N :    0.877073
  18 H :   -0.296929
  19 H :   -0.292632
  20 H :   -0.260142
  21 H :   -0.314669
  22 H :   -0.269366
  23 H :   -0.123710

  Mayer bond orders larger than 0.100000
B(  0-C ,  1-C ) :   0.7382 B(  0-C ,  5-N ) :   1.0246 B(  0-C ,  7-C ) :   0.1256
B(  0-C ,  9-C ) :   0.9543 B(  0-C , 12-C ) :   0.1169 B(  0-C , 23-H ) :   0.8196
B(  1-C ,  2-O ) :   1.0945 B(  1-C ,  3-O ) :   0.8675 B(  1-C ,  6-C ) :   0.1107
B(  3-O ,  4-H ) :   0.9539 B(  5-N ,  6-C ) :   0.1126 B(  5-N , 21-H ) :   1.1737
B(  6-C ,  7-C ) :   0.4662 B(  6-C , 12-C ) :  -0.5109 B(  6-C , 13-N ) :  -0.2851
B(  6-C , 15-N ) :  -0.1978 B(  6-C , 16-O ) :   0.2709 B(  6-C , 21-H ) :  -0.1469
B(  7-C ,  8-N ) :   0.8856 B(  7-C ,  9-C ) :  -0.1952 B(  7-C , 12-C ) :   0.9458
B(  7-C , 14-C ) :  -0.9729 B(  7-C , 15-N ) :  -0.1901 B(  8-N ,  9-C ) :   0.7886
B(  8-N , 15-N ) :  -0.3859 B(  8-N , 22-H ) :   1.1573 B(  9-C , 10-H ) :   0.8781
B(  9-C , 11-H ) :   0.9474 B( 12-C , 13-N ) :   0.9973 B( 12-C , 14-C ) :  -0.3612
B( 12-C , 15-N ) :   0.1051 B( 12-C , 16-O ) :   0.7173 B( 13-N , 14-C ) :   0.8411
B( 13-N , 16-O ) :  -0.1880 B( 13-N , 17-N ) :  -0.1470 B( 13-N , 20-H ) :   1.0656
B( 14-C , 15-N ) :   1.9950 B( 14-C , 17-N ) :   0.9864 B( 15-N , 17-N ) :  -0.3473
B( 17-N , 18-H ) :   1.0410 B( 17-N , 19-H ) :   1.0715

MP2 TOTAL ENERGY:     -770.352203252 Eh
FINAL SINGLE POINT ENERGY      -770.352203252463

DIPOLE MOMENT
-------------
                                X             Y             Z
Electronic contribution:     -1.04731       2.43674       1.36018
Nuclear contribution   :      0.07785      -3.43305      -1.07383
                        -----------------------------------------
Total Dipole Moment    :     -0.96947      -0.99631       0.28635
                        -----------------------------------------
Magnitude (a.u.)       :      1.41933
Magnitude (Debye)      :      3.60765

Rotational constants in cm-1:     0.034175     0.016016     0.013583
Rotational constants in MHz :  1024.544487   480.139969   407.205850

                             ****ORCA TERMINATED NORMALLY****
TOTAL RUN TIME: 0 days 0 hours 13 minutes 20 seconds 545 msec
