                         Program Version 4.2.1 -  RELEASE  -
|  1> %pal
|  2>  nprocs 32
|  3> end
|  4> !RI-MP2 aug-cc-pVTZ aug-cc-pVTZ/C TightSCF
|  5> %maxcore 4500
|  6> *xyzfile 1 2  04_63P1.xyz
|  7>
|  8>
|  9>                          ****END OF INPUT****

CARTESIAN COORDINATES (ANGSTROEM)
---------------------------------
  N      1.113871    1.142410   -0.524772
  H      1.767030    1.884833   -0.764083
  C      1.703930    0.082269   -0.080660
  C      1.054064   -1.162909    0.219056
  O      3.021092   -0.038434    0.130341
  N     -0.265168   -1.466709    0.007704
  H      1.699808   -2.002709    0.431554
  C     -1.396030   -0.679311    0.028009
  C     -1.408586    0.583981    0.877591
  O     -2.394410   -0.986790   -0.572870
  N     -1.443112    1.730347   -0.071208
  H     -0.539597    0.703769    1.518846
  H     -2.319851    0.562734    1.472104
  H     -0.454114    1.687234   -0.501840
  H     -1.600445    2.623544    0.395985
  H     -2.171613    1.592832   -0.777159
  H     -0.460586   -2.409397   -0.317597
  H      3.506502    0.772446   -0.063611

 Total Charge           Charge          ....    1
 Multiplicity           Mult            ....    2
 Number of Electrons    NEL             ....   69
 Basis Dimension        Dim             ....  621

ORBITAL ENERGIES
----------------
                 SPIN UP ORBITALS
  NO   OCC          E(Eh)            E(eV)
   0   1.0000     -20.759726      -564.9009
   1   1.0000     -20.706481      -563.4520
   2   1.0000     -15.847215      -431.2246
   3   1.0000     -15.771547      -429.1656
   4   1.0000     -15.729712      -428.0272
   5   1.0000     -11.530627      -313.7643
   6   1.0000     -11.522145      -313.5335
   7   1.0000     -11.472780      -312.1902
   8   1.0000     -11.456804      -311.7555
   9   1.0000      -1.594770       -43.3959
  10   1.0000      -1.578084       -42.9419
  11   1.0000      -1.474564       -40.1249
  12   1.0000      -1.433636       -39.0112
  13   1.0000      -1.375853       -37.4389
  14   1.0000      -1.189772       -32.3753
  15   1.0000      -1.164655       -31.6919
  16   1.0000      -1.022442       -27.8221
  17   1.0000      -0.967191       -26.3186
  18   1.0000      -0.951765       -25.8988
  19   1.0000      -0.931220       -25.3398
  20   1.0000      -0.905451       -24.6386
  21   1.0000      -0.858510       -23.3613
  22   1.0000      -0.843174       -22.9439
  23   1.0000      -0.831233       -22.6190
  24   1.0000      -0.805618       -21.9220
  25   1.0000      -0.784390       -21.3443
  26   1.0000      -0.773205       -21.0400
  27   1.0000      -0.757037       -20.6000
  28   1.0000      -0.747141       -20.3308
  29   1.0000      -0.724207       -19.7067
  30   1.0000      -0.659653       -17.9501
  31   1.0000      -0.641206       -17.4481
  32   1.0000      -0.622363       -16.9353
  33   1.0000      -0.609879       -16.5956
  34   1.0000      -0.491748       -13.3812
  35   0.0000      -0.095506        -2.5989
  36   0.0000      -0.072717        -1.9787
  37   0.0000      -0.069437        -1.8895
  38   0.0000      -0.061649        -1.6776
  39   0.0000      -0.049391        -1.3440

                 SPIN DOWN ORBITALS
  NO   OCC          E(Eh)            E(eV)
   0   1.0000     -20.759996      -564.9082
   1   1.0000     -20.700938      -563.3012
   2   1.0000     -15.847515      -431.2328
   3   1.0000     -15.770402      -429.1344
   4   1.0000     -15.718218      -427.7145
   5   1.0000     -11.532309      -313.8101
   6   1.0000     -11.528217      -313.6987
   7   1.0000     -11.472653      -312.1868
   8   1.0000     -11.437269      -311.2239
   9   1.0000      -1.595095       -43.4047
  10   1.0000      -1.568664       -42.6855
  11   1.0000      -1.474200       -40.1150
  12   1.0000      -1.417487       -38.5718
  13   1.0000      -1.355559       -36.8866
  14   1.0000      -1.175549       -31.9883
  15   1.0000      -1.132395       -30.8140
  16   1.0000      -1.016905       -27.6714
  17   1.0000      -0.964102       -26.2345
  18   1.0000      -0.951234       -25.8844
  19   1.0000      -0.927836       -25.2477
  20   1.0000      -0.897499       -24.4222
  21   1.0000      -0.850400       -23.1406
  22   1.0000      -0.839668       -22.8485
  23   1.0000      -0.828905       -22.5557
  24   1.0000      -0.792069       -21.5533
  25   1.0000      -0.771169       -20.9846
  26   1.0000      -0.768225       -20.9045
  27   1.0000      -0.753406       -20.5012
  28   1.0000      -0.735681       -20.0189
  29   1.0000      -0.708990       -19.2926
  30   1.0000      -0.630954       -17.1691
  31   1.0000      -0.608721       -16.5641
  32   1.0000      -0.594169       -16.1682
  33   1.0000      -0.560247       -15.2451
  34   0.0000      -0.102148        -2.7796
  35   0.0000      -0.094868        -2.5815
  36   0.0000      -0.072338        -1.9684
  37   0.0000      -0.069210        -1.8833
  38   0.0000      -0.060939        -1.6582

MULLIKEN ATOMIC CHARGES AND SPIN POPULATIONS
--------------------------------------------
   0 N :   -0.457512    0.340756
   1 H :    0.162155   -0.015624
   2 C :    0.444333   -0.248425
   3 C :   -0.290529    0.898784
   4 O :   -0.504598    0.011239
   5 N :   -0.033049    0.025104
   6 H :    0.634888   -0.054862
   7 C :    0.504216   -0.080933
   8 C :   -0.169897    0.001260
   9 O :   -0.891922    0.126524
  10 N :    0.041811   -0.003393
  11 H :    0.341864   -0.004017
  12 H :    0.397366   -0.002774
  13 H :    0.257796   -0.003608
  14 H :    0.100882    0.001014
  15 H :    0.048896    0.000318
  16 H :    0.190494    0.014026
  17 H :    0.222806   -0.005388
Sum of atomic charges         :    1.0000000

LOEWDIN ATOMIC CHARGES AND SPIN POPULATIONS
-------------------------------------------
   0 N :    0.733561    0.199400
   1 H :   -0.344137    0.029174
   2 C :   -0.514351    0.063187
   3 C :    0.193233    0.427058
   4 O :    0.876041   -0.011317
   5 N :    0.543681    0.119115
   6 H :   -0.165403    0.081074
   7 C :   -0.603112   -0.004490
   8 C :    0.324428   -0.003968
   9 O :    0.510378    0.090222
  10 N :    1.064425   -0.003022
  11 H :   -0.140738    0.001619
  12 H :   -0.114686   -0.001445
  13 H :   -0.400359    0.005607
  14 H :   -0.131192   -0.000161
  15 H :   -0.149289   -0.000761
  16 H :   -0.252208    0.009073
  17 H :   -0.430271   -0.000365

  Mayer bond orders larger than 0.100000
B(  0-N ,  1-H ) :   1.0172 B(  0-N ,  2-C ) :   1.3111 B(  0-N , 13-H ) :   0.2062
B(  2-C ,  3-C ) :   0.9075 B(  2-C ,  4-O ) :   0.8895 B(  3-C ,  5-N ) :   0.9368
B(  3-C ,  6-H ) :   0.5249 B(  3-C ,  7-C ) :  -0.2326 B(  4-O , 17-H ) :   0.9743
B(  5-N ,  7-C ) :   0.9468 B(  5-N , 16-H ) :   1.0238 B(  7-C ,  8-C ) :   0.4154
B(  7-C ,  9-O ) :   1.3227 B(  8-C , 10-N ) :   0.8501 B(  8-C , 11-H ) :   0.8954
B(  8-C , 12-H ) :   0.8758 B( 10-N , 13-H ) :   0.8196 B( 10-N , 14-H ) :   1.0419
B( 10-N , 15-H ) :   1.0629

MP2 TOTAL ENERGY:     -471.466777072 Eh
FINAL SINGLE POINT ENERGY      -471.466777071830

DIPOLE MOMENT
-------------
                                X             Y             Z
Electronic contribution:      0.72328      -3.13327      -0.82704
Nuclear contribution   :     -0.56790       5.42099       1.38725
                        -----------------------------------------
Total Dipole Moment    :      0.15538       2.28772       0.56021
                        -----------------------------------------
Magnitude (a.u.)       :      2.36043
Magnitude (Debye)      :      5.99974

Rotational constants in cm-1:     0.091354     0.038436     0.029489
Rotational constants in MHz :  2738.733426  1152.296400   884.056301

                             ****ORCA TERMINATED NORMALLY****
TOTAL RUN TIME: 0 days 0 hours 8 minutes 18 seconds 147 msec
