                         Program Version 4.2.1 -  RELEASE  -
|  1> %pal
|  2>  nprocs 32
|  3> end
|  4> !RI-MP2 aug-cc-pVTZ aug-cc-pVTZ/C TightSCF
|  5> %maxcore 4500
|  6> *xyzfile 1 1  05_22P1.xyz
|  7>
|  8>
|  9>                          ****END OF INPUT****

CARTESIAN COORDINATES (ANGSTROEM)
---------------------------------
  C      2.525899    0.502308   -0.000005
  C      1.127332    0.298608   -0.000003
  C      0.302629    1.438687   -0.000013
  C      0.570934   -0.996223    0.000008
  C     -1.069254    1.290502   -0.000009
  H      0.738972    2.430611   -0.000022
  C     -0.796716   -1.142156    0.000011
  H      1.216400   -1.864676    0.000016
  C     -1.581364    0.004747    0.000002
  H     -1.741783    2.136842   -0.000015
  H     -1.272276   -2.113075    0.000019
  O      3.339615   -0.463985   -0.000010
  C      4.784286   -0.247612    0.000004
  H      4.997190    0.820392   -0.000140
  H      5.163712   -0.732829    0.895036
  H      5.163757   -0.733077   -0.894873
  N     -3.064592   -0.160161    0.000005
  O     -3.483185   -1.294343   -0.000008
  O     -3.722298    0.854197    0.000015
  H      2.930642    1.516808   -0.000015

 Total Charge           Charge          ....    1
 Multiplicity           Mult            ....    1
 Number of Electrons    NEL             ....   86
 Basis Dimension        Dim             ....  736

ORBITAL ENERGIES
----------------

  NO   OCC          E(Eh)            E(eV)
   0   2.0000     -20.850473      -567.3702
   1   2.0000     -20.730184      -564.0970
   2   2.0000     -20.729907      -564.0894
   3   2.0000     -15.982361      -434.9021
   4   2.0000     -11.586829      -315.2936
   5   2.0000     -11.481935      -312.4393
   6   2.0000     -11.481925      -312.4391
   7   2.0000     -11.449562      -311.5584
   8   2.0000     -11.445326      -311.4431
   9   2.0000     -11.442185      -311.3577
  10   2.0000     -11.421011      -310.7815
  11   2.0000     -11.420358      -310.7637
  12   2.0000      -1.745615       -47.5006
  13   2.0000      -1.688934       -45.9582
  14   2.0000      -1.539369       -41.8883
  15   2.0000      -1.371264       -37.3140
  16   2.0000      -1.285171       -34.9713
  17   2.0000      -1.220609       -33.2145
  18   2.0000      -1.202024       -32.7087
  19   2.0000      -1.133283       -30.8382
  20   2.0000      -1.062961       -28.9246
  21   2.0000      -1.027521       -27.9603
  22   2.0000      -0.986318       -26.8391
  23   2.0000      -0.933832       -25.4109
  24   2.0000      -0.922115       -25.0920
  25   2.0000      -0.909963       -24.7614
  26   2.0000      -0.872929       -23.7536
  27   2.0000      -0.858815       -23.3695
  28   2.0000      -0.854085       -23.2408
  29   2.0000      -0.816367       -22.2145
  30   2.0000      -0.812353       -22.1052
  31   2.0000      -0.792715       -21.5709
  32   2.0000      -0.786777       -21.4093
  33   2.0000      -0.743463       -20.2307
  34   2.0000      -0.739013       -20.1096
  35   2.0000      -0.724679       -19.7195
  36   2.0000      -0.690554       -18.7909
  37   2.0000      -0.690005       -18.7760
  38   2.0000      -0.623835       -16.9754
  39   2.0000      -0.620677       -16.8895
  40   2.0000      -0.577234       -15.7073
  41   2.0000      -0.550923       -14.9914
  42   2.0000      -0.527373       -14.3505
  43   0.0000      -0.172150        -4.6845
  44   0.0000      -0.089214        -2.4276
  45   0.0000      -0.072089        -1.9616
  46   0.0000      -0.070818        -1.9271
  47   0.0000      -0.063474        -1.7272

MULLIKEN ATOMIC CHARGES
-----------------------
   0 C :   -0.580692
   1 C :    1.944358
   2 C :   -0.707074
   3 C :   -0.379201
   4 C :   -0.584999
   5 H :    0.145671
   6 C :   -0.745519
   7 H :    0.154282
   8 C :    0.753891
   9 H :    0.558461
  10 H :    0.575285
  11 O :   -0.521050
  12 C :   -0.733772
  13 H :    0.409763
  14 H :    0.356917
  15 H :    0.356898
  16 N :    0.759148
  17 O :   -0.642205
  18 O :   -0.652369
  19 H :    0.532209
Sum of atomic charges:    1.0000000

LOEWDIN ATOMIC CHARGES
----------------------
   0 C :    0.071795
   1 C :   -0.094407
   2 C :    0.263137
   3 C :    0.274065
   4 C :    0.263822
   5 H :   -0.147961
   6 C :    0.263845
   7 H :   -0.151660
   8 C :   -0.155728
   9 H :   -0.178691
  10 H :   -0.178805
  11 O :    0.651366
  12 C :    0.511206
  13 H :   -0.166160
  14 H :   -0.150161
  15 H :   -0.150163
  16 N :   -0.683088
  17 O :    0.436899
  18 O :    0.436228
  19 H :   -0.115539

  Mayer bond orders larger than 0.100000
B(  0-C ,  2-C ) :   0.1247 B(  0-C ,  3-C ) :   0.3261 B(  0-C ,  8-C ) :   0.1833
B(  0-C , 11-O ) :   1.5366 B(  0-C , 19-H ) :   0.7367 B(  1-C ,  2-C ) :   0.2204
B(  1-C ,  3-C ) :   0.3547 B(  1-C ,  5-H ) :  -0.1910 B(  1-C ,  6-C ) :   0.1354
B(  1-C ,  7-H ) :  -0.3045 B(  1-C , 11-O ) :  -0.3396 B(  2-C ,  3-C ) :  -0.2989
B(  2-C ,  4-C ) :   1.2945 B(  2-C ,  5-H ) :   1.5162 B(  2-C ,  7-H ) :   0.1460
B(  2-C ,  8-C ) :  -0.1456 B(  3-C ,  5-H ) :   0.1007 B(  3-C ,  6-C ) :   1.3621
B(  3-C ,  7-H ) :   1.3331 B(  3-C ,  8-C ) :  -0.2452 B(  4-C ,  8-C ) :   1.0337
B(  4-C ,  9-H ) :   0.5863 B(  4-C , 16-N ) :  -0.2468 B(  4-C , 18-O ) :  -0.1193
B(  6-C ,  8-C ) :   0.9813 B(  6-C , 10-H ) :   0.5358 B(  6-C , 16-N ) :  -0.1551
B(  6-C , 17-O ) :  -0.1051 B(  7-H ,  8-C ) :  -0.1156 B(  8-C , 16-N ) :   1.2471
B(  8-C , 17-O ) :   0.3189 B(  8-C , 18-O ) :   0.3690 B( 11-O , 12-C ) :   0.7544
B( 12-C , 13-H ) :   0.8241 B( 12-C , 14-H ) :   0.8857 B( 12-C , 15-H ) :   0.8857
B( 16-N , 17-O ) :   1.0636 B( 16-N , 18-O ) :   1.0425 B( 17-O , 18-O ) :   0.1183

MP2 TOTAL ENERGY:     -588.659885829 Eh
FINAL SINGLE POINT ENERGY      -588.659885829298

DIPOLE MOMENT
-------------
                                X             Y             Z
Electronic contribution:    -11.20531      -0.58444      -0.00000
Nuclear contribution   :     16.83297       1.42176       0.00001
                        -----------------------------------------
Total Dipole Moment    :      5.62766       0.83732       0.00000
                        -----------------------------------------
Magnitude (a.u.)       :      5.68961
Magnitude (Debye)      :     14.46183

Rotational constants in cm-1:     0.117215     0.013560     0.012182
Rotational constants in MHz :  3514.024922   406.519009   365.217626

                             ****ORCA TERMINATED NORMALLY****
TOTAL RUN TIME: 0 days 0 hours 6 minutes 57 seconds 583 msec
