                         Program Version 4.2.1 -  RELEASE  -
|  1> %pal
|  2>  nprocs 32
|  3> end
|  4> !RI-MP2 aug-cc-pVTZ aug-cc-pVTZ/C TightSCF
|  5> %maxcore 4500
|  6> *xyzfile 0 1  06_11P.xyz
|  7>
|  8>
|  9>                          ****END OF INPUT****

CARTESIAN COORDINATES (ANGSTROEM)
---------------------------------
  C     -1.423375    0.176396   -1.235980
  C     -0.607186   -0.363417    1.172000
  C     -2.770900    0.660153   -0.665494
  H     -2.731945    1.754266   -0.626435
  H     -3.582184    0.409750   -1.358598
  H      0.160111   -0.204320    1.934458
  H     -1.231404    0.721039   -2.166082
  C     -1.949988    0.154924    1.725615
  H     -1.790510    1.186292    2.059114
  H     -2.226187   -0.412352    2.621550
  B     -0.275578    0.325582   -0.189059
  C      0.858447    2.347761    0.077894
  C      1.119960    0.997687   -0.535100
  C      0.166461    3.315266   -0.512536
  H     -0.221773    3.209130   -1.519883
  H     -0.020690    4.255413   -0.009088
  C      2.263197    0.282439    0.106291
  O      2.706517    0.487201    1.206798
  O      2.723417   -0.698098   -0.693271
  C      3.777221   -1.498329   -0.151690
  H      3.445883   -1.999938    0.757750
  H      4.019985   -2.225055   -0.922468
  H      4.644907   -0.881150    0.080166
  C     -0.595783   -1.879485    0.820837
  H      0.438499   -2.165868    0.597624
  H     -0.883186   -2.457473    1.705582
  C     -1.370605   -1.341078   -1.578345
  H     -0.422362   -1.539746   -2.091745
  H     -2.159653   -1.576262   -2.300549
  C     -3.121122    0.134973    0.734182
  H     -3.523428   -0.875045    0.660359
  H     -3.936046    0.740833    1.141264
  C     -1.481325   -2.281818   -0.369026
  H     -1.206715   -3.292504   -0.685210
  H     -2.520459   -2.349149   -0.050346
  H      1.226591    2.472015    1.090902
  H      1.268969    1.056571   -1.613180

 Total Charge           Charge          ....    0
 Multiplicity           Mult            ....    1
 Number of Electrons    NEL             ....  120
 Basis Dimension        Dim             .... 1219

ORBITAL ENERGIES
----------------

  NO   OCC          E(Eh)            E(eV)
   0   2.0000     -20.601726      -560.6015
   1   2.0000     -20.538742      -558.8876
   2   2.0000     -11.374750      -309.5227
   3   2.0000     -11.283967      -307.0523
   4   2.0000     -11.247310      -306.0549
   5   2.0000     -11.230586      -305.5998
   6   2.0000     -11.225473      -305.4607
   7   2.0000     -11.222641      -305.3836
   8   2.0000     -11.221397      -305.3497
   9   2.0000     -11.215494      -305.1891
  10   2.0000     -11.215198      -305.1811
  11   2.0000     -11.213840      -305.1441
  12   2.0000     -11.210850      -305.0627
  13   2.0000     -11.196859      -304.6820
  14   2.0000     -11.192729      -304.5696
  15   2.0000      -7.583804      -206.3658
  16   2.0000      -1.461362       -39.7657
  17   2.0000      -1.358142       -36.9569
  18   2.0000      -1.118376       -30.4326
  19   2.0000      -1.092905       -29.7395
  20   2.0000      -1.041563       -28.3424
  21   2.0000      -1.026796       -27.9405
  22   2.0000      -1.005126       -27.3509
  23   2.0000      -0.946718       -25.7615
  24   2.0000      -0.924512       -25.1572
  25   2.0000      -0.913631       -24.8612
  26   2.0000      -0.795686       -21.6517
  27   2.0000      -0.791557       -21.5393
  28   2.0000      -0.786346       -21.3976
  29   2.0000      -0.759838       -20.6762
  30   2.0000      -0.744647       -20.2629
  31   2.0000      -0.707211       -19.2442
  32   2.0000      -0.682962       -18.5843
  33   2.0000      -0.675404       -18.3787
  34   2.0000      -0.666025       -18.1235
  35   2.0000      -0.642606       -17.4862
  36   2.0000      -0.621391       -16.9089
  37   2.0000      -0.602818       -16.4035
  38   2.0000      -0.595028       -16.1915
  39   2.0000      -0.588834       -16.0230
  40   2.0000      -0.582456       -15.8494
  41   2.0000      -0.576177       -15.6786
  42   2.0000      -0.565092       -15.3769
  43   2.0000      -0.559999       -15.2384
  44   2.0000      -0.542556       -14.7637
  45   2.0000      -0.533273       -14.5111
  46   2.0000      -0.526495       -14.3267
  47   2.0000      -0.505337       -13.7509
  48   2.0000      -0.501495       -13.6464
  49   2.0000      -0.481399       -13.0995
  50   2.0000      -0.475489       -12.9387
  51   2.0000      -0.474237       -12.9046
  52   2.0000      -0.471907       -12.8412
  53   2.0000      -0.459342       -12.4993
  54   2.0000      -0.455933       -12.4066
  55   2.0000      -0.449287       -12.2257
  56   2.0000      -0.420796       -11.4504
  57   2.0000      -0.406975       -11.0744
  58   2.0000      -0.386495       -10.5171
  59   2.0000      -0.358896        -9.7661
  60   0.0000       0.023316         0.6345
  61   0.0000       0.028515         0.7759
  62   0.0000       0.031900         0.8681
  63   0.0000       0.033746         0.9183
  64   0.0000       0.041259         1.1227

MULLIKEN ATOMIC CHARGES
-----------------------
   0 C :    0.697960
   1 C :    0.615518
   2 C :   -0.963948
   3 H :   -0.026822
   4 H :    0.233074
   5 H :    0.370182
   6 H :    0.472849
   7 C :   -1.066997
   8 H :   -0.023494
   9 H :    0.206533
  10 B :    0.906123
  11 C :   -0.022438
  12 C :    0.402677
  13 C :   -1.273446
  14 H :    0.359313
  15 H :    0.341051
  16 C :    0.721474
  17 O :   -1.178524
  18 O :   -0.509014
  19 C :   -1.018416
  20 H :    0.387329
  21 H :    0.337894
  22 H :    0.389521
  23 C :   -0.982246
  24 H :    0.109551
  25 H :    0.224421
  26 C :   -0.926295
  27 H :   -0.016281
  28 H :    0.306434
  29 C :   -0.325458
  30 H :    0.135812
  31 H :    0.370747
  32 C :   -0.412765
  33 H :    0.371611
  34 H :    0.105424
  35 H :    0.283496
  36 H :    0.397150
Sum of atomic charges:    0.0000000

LOEWDIN ATOMIC CHARGES
----------------------
   0 C :    0.135218
   1 C :    0.139709
   2 C :    0.326385
   3 H :   -0.138762
   4 H :   -0.131195
   5 H :   -0.141459
   6 H :   -0.133837
   7 C :    0.330601
   8 H :   -0.132808
   9 H :   -0.130986
  10 B :   -0.507263
  11 C :    0.195892
  12 C :    0.086020
  13 C :    0.562521
  14 H :   -0.197762
  15 H :   -0.210039
  16 C :   -0.824441
  17 O :    0.500035
  18 O :    0.583030
  19 C :    0.355938
  20 H :   -0.178603
  21 H :   -0.184099
  22 H :   -0.178375
  23 C :    0.339330
  24 H :   -0.136691
  25 H :   -0.125783
  26 C :    0.337863
  27 H :   -0.127209
  28 H :   -0.127811
  29 C :    0.323160
  30 H :   -0.178111
  31 H :   -0.134867
  32 C :    0.331761
  33 H :   -0.133027
  34 H :   -0.177232
  35 H :   -0.171752
  36 H :   -0.145352

  Mayer bond orders larger than 0.100000
B(  0-C ,  1-C ) :   0.1673 B(  0-C ,  2-C ) :   0.7058 B(  0-C ,  6-H ) :   0.9280
B(  0-C ,  7-C ) :  -0.1201 B(  0-C , 10-B ) :   0.7602 B(  0-C , 26-C ) :   0.7624
B(  1-C ,  2-C ) :  -0.1083 B(  1-C ,  5-H ) :   0.9015 B(  1-C ,  7-C ) :   0.6170
B(  1-C ,  9-H ) :  -0.1246 B(  1-C , 10-B ) :   0.9250 B(  1-C , 18-O ) :   0.1181
B(  1-C , 23-C ) :   0.7226 B(  2-C ,  3-H ) :   1.3547 B(  2-C ,  4-H ) :   1.0144
B(  2-C ,  6-H ) :  -0.2257 B(  2-C ,  7-C ) :   0.2141 B(  2-C , 29-C ) :   0.8660
B(  2-C , 30-H ) :   0.1172 B(  5-H ,  7-C ) :  -0.2294 B(  5-H , 10-B ) :  -0.2138
B(  5-H , 23-C ) :  -0.2041 B(  6-H , 10-B ) :  -0.3046 B(  6-H , 26-C ) :  -0.2075
B(  7-C ,  8-H ) :   1.3431 B(  7-C ,  9-H ) :   1.0869 B(  7-C , 29-C ) :   0.8641
B( 10-B , 12-C ) :   0.9580 B( 10-B , 13-C ) :   0.1468 B( 10-B , 18-O ) :  -0.3186
B( 10-B , 23-C ) :   0.1390 B( 10-B , 27-H ) :  -0.1027 B( 10-B , 29-C ) :  -0.1143
B( 10-B , 30-H ) :  -0.1139 B( 10-B , 32-C ) :  -0.1399 B( 10-B , 34-H ) :  -0.1133
B( 10-B , 36-H ) :   0.1119 B( 11-C , 12-C ) :   0.9701 B( 11-C , 13-C ) :   0.9832
B( 11-C , 16-C ) :   0.2190 B( 11-C , 35-H ) :   0.9891 B( 11-C , 36-H ) :  -0.1576
B( 12-C , 16-C ) :   0.8841 B( 12-C , 17-O ) :  -0.1673 B( 12-C , 36-H ) :   0.8245
B( 13-C , 14-H ) :   0.9678 B( 13-C , 15-H ) :   0.9282 B( 13-C , 35-H ) :  -0.1103
B( 16-C , 17-O ) :   0.7967 B( 16-C , 18-O ) :   0.9439 B( 16-C , 36-H ) :  -0.1560
B( 18-O , 19-C ) :   0.9445 B( 19-C , 20-H ) :   0.8519 B( 19-C , 21-H ) :   0.9383
B( 19-C , 22-H ) :   0.8796 B( 23-C , 24-H ) :   1.1375 B( 23-C , 25-H ) :   1.0533
B( 23-C , 26-C ) :   0.1793 B( 23-C , 32-C ) :   0.8937 B( 23-C , 34-H ) :   0.1186
B( 26-C , 27-H ) :   1.2774 B( 26-C , 28-H ) :   0.9492 B( 26-C , 32-C ) :   0.9307
B( 26-C , 34-H ) :   0.1263 B( 29-C , 30-H ) :   1.0798 B( 29-C , 31-H ) :   0.8848
B( 32-C , 33-H ) :   0.8660 B( 32-C , 34-H ) :   1.1207

MP2 TOTAL ENERGY:     -681.954240427 Eh
FINAL SINGLE POINT ENERGY      -681.954240426908

DIPOLE MOMENT
-------------
                                X             Y             Z
Electronic contribution:     10.94379       4.20509      -0.05207
Nuclear contribution   :    -11.20495      -4.54511      -0.54712
                        -----------------------------------------
Total Dipole Moment    :     -0.26116      -0.34002      -0.59919
                        -----------------------------------------
Magnitude (a.u.)       :      0.73678
Magnitude (Debye)      :      1.87275

Rotational constants in cm-1:     0.024980     0.014521     0.011829
Rotational constants in MHz :   748.880748   435.331160   354.620146

                             ****ORCA TERMINATED NORMALLY****
TOTAL RUN TIME: 0 days 0 hours 38 minutes 52 seconds 880 msec
