                         Program Version 4.2.1 -  RELEASE  -
|  1> %pal
|  2>  nprocs 32
|  3> end
|  4> !RI-MP2 aug-cc-pVTZ aug-cc-pVTZ/C TightSCF
|  5> %maxcore 4500
|  6> *xyzfile -1 1  05_10R1.xyz
|  7>
|  8>
|  9>                          ****END OF INPUT****

CARTESIAN COORDINATES (ANGSTROEM)
---------------------------------
  C      0.959655   -0.602248   -0.224955
  C      0.979663    0.808458   -0.290834
  N     -0.202046    1.464139   -0.582680
  N     -0.255538   -1.280166   -0.427594
  C     -1.458843   -0.583790   -0.190584
  C     -1.404938    0.790600   -0.236804
  N     -2.546484   -1.309542    0.054470
  C     -3.714093   -0.660053    0.282503
  N     -3.674528    0.741710    0.286046
  C     -2.565776    1.538045    0.037540
  C     -0.266003   -2.723318   -0.388113
  H      0.408266   -3.120810   -1.151820
  H     -1.283709   -3.052311   -0.573663
  H      0.044877   -3.112199    0.591260
  H     -4.546060    1.214358    0.471540
  O     -4.794104   -1.211764    0.494729
  O     -2.638081    2.778436    0.058475
  C      2.153431   -1.266807    0.012143
  C      3.371609   -0.593274    0.167582
  C      3.385475    0.794695    0.105535
  C      2.183555    1.472146   -0.111860
  C      4.635864   -1.376087    0.404111
  H      5.109407   -1.109999    1.355094
  H      5.379839   -1.198540   -0.379906
  H      4.430192   -2.447562    0.426852
  C      4.666088    1.568277    0.272658
  H      5.405194    1.297957   -0.488512
  H      5.130097    1.378817    1.246019
  H      4.485738    2.641482    0.194238
  H      2.183495    2.556827   -0.160676
  H      2.153730   -2.346653    0.073452
  H     -0.247541    2.452408   -0.374743

 Total Charge           Charge          ....   -1
 Multiplicity           Mult            ....    1
 Number of Electrons    NEL             ....  136
 Basis Dimension        Dim             .... 1173

ORBITAL ENERGIES
----------------

  NO   OCC          E(Eh)            E(eV)
   0   2.0000     -20.368046      -554.2427
   1   2.0000     -20.353064      -553.8350
   2   2.0000     -15.471540      -421.0020
   3   2.0000     -15.450986      -420.4427
   4   2.0000     -15.448204      -420.3670
   5   2.0000     -15.382814      -418.5876
   6   2.0000     -11.217671      -305.2483
   7   2.0000     -11.202945      -304.8476
   8   2.0000     -11.190973      -304.5219
   9   2.0000     -11.168090      -303.8992
  10   2.0000     -11.166973      -303.8688
  11   2.0000     -11.141994      -303.1891
  12   2.0000     -11.140974      -303.1613
  13   2.0000     -11.140113      -303.1379
  14   2.0000     -11.135990      -303.0257
  15   2.0000     -11.130371      -302.8728
  16   2.0000     -11.126833      -302.7765
  17   2.0000     -11.121543      -302.6326
  18   2.0000     -11.095245      -301.9170
  19   2.0000      -1.242770       -33.8175
  20   2.0000      -1.213715       -33.0269
  21   2.0000      -1.186118       -32.2759
  22   2.0000      -1.116737       -30.3879
  23   2.0000      -1.097088       -29.8533
  24   2.0000      -1.052882       -28.6504
  25   2.0000      -1.031482       -28.0681
  26   2.0000      -0.943178       -25.6652
  27   2.0000      -0.935601       -25.4590
  28   2.0000      -0.884300       -24.0630
  29   2.0000      -0.853297       -23.2194
  30   2.0000      -0.844464       -22.9790
  31   2.0000      -0.790448       -21.5092
  32   2.0000      -0.742063       -20.1925
  33   2.0000      -0.722017       -19.6471
  34   2.0000      -0.697142       -18.9702
  35   2.0000      -0.657314       -17.8864
  36   2.0000      -0.625506       -17.0209
  37   2.0000      -0.598079       -16.2745
  38   2.0000      -0.569089       -15.4857
  39   2.0000      -0.556171       -15.1342
  40   2.0000      -0.537612       -14.6292
  41   2.0000      -0.532750       -14.4969
  42   2.0000      -0.515413       -14.0251
  43   2.0000      -0.507089       -13.7986
  44   2.0000      -0.505463       -13.7543
  45   2.0000      -0.490077       -13.3357
  46   2.0000      -0.482325       -13.1247
  47   2.0000      -0.477823       -13.0022
  48   2.0000      -0.467826       -12.7302
  49   2.0000      -0.459939       -12.5156
  50   2.0000      -0.454716       -12.3735
  51   2.0000      -0.451987       -12.2992
  52   2.0000      -0.439174       -11.9505
  53   2.0000      -0.436258       -11.8712
  54   2.0000      -0.427169       -11.6238
  55   2.0000      -0.398330       -10.8391
  56   2.0000      -0.394596       -10.7375
  57   2.0000      -0.387512       -10.5448
  58   2.0000      -0.359243        -9.7755
  59   2.0000      -0.348395        -9.4803
  60   2.0000      -0.306458        -8.3391
  61   2.0000      -0.287502        -7.8233
  62   2.0000      -0.275981        -7.5098
  63   2.0000      -0.270841        -7.3700
  64   2.0000      -0.267325        -7.2743
  65   2.0000      -0.220619        -6.0033
  66   2.0000      -0.183514        -4.9937
  67   2.0000      -0.116403        -3.1675
  68   0.0000       0.082248         2.2381
  69   0.0000       0.088051         2.3960
  70   0.0000       0.102766         2.7964
  71   0.0000       0.105036         2.8582
  72   0.0000       0.111733         3.0404

MULLIKEN ATOMIC CHARGES
-----------------------
   0 C :    0.763727
   1 C :    2.017480
   2 N :   -0.881554
   3 N :    0.110011
   4 C :    0.222416
   5 C :    1.459883
   6 N :   -0.604135
   7 C :   -0.118439
   8 N :    0.235084
   9 C :   -0.280239
  10 C :   -1.196905
  11 H :    0.312381
  12 H :    0.348878
  13 H :    0.322656
  14 H :    0.111753
  15 O :   -0.923618
  16 O :   -1.037681
  17 C :   -1.013231
  18 C :    0.425686
  19 C :    0.603853
  20 C :   -0.722301
  21 C :   -1.024265
  22 H :    0.228361
  23 H :    0.228643
  24 H :    0.227690
  25 C :   -1.058495
  26 H :    0.236765
  27 H :    0.241280
  28 H :    0.229940
  29 H :   -0.083995
  30 H :   -0.317732
  31 H :   -0.063894
Sum of atomic charges:   -1.0000000

LOEWDIN ATOMIC CHARGES
----------------------
   0 C :   -0.161162
   1 C :   -0.190700
   2 N :    0.551110
   3 N :    0.280365
   4 C :   -0.429726
   5 C :   -0.228362
   6 N :    0.365479
   7 C :   -0.931378
   8 N :    0.521521
   9 C :   -0.730288
  10 C :    0.458713
  11 H :   -0.165725
  12 H :   -0.218913
  13 H :   -0.150562
  14 H :   -0.296159
  15 O :    0.336753
  16 O :    0.370453
  17 C :    0.236328
  18 C :   -0.112990
  19 C :   -0.121980
  20 C :    0.242903
  21 C :    0.558719
  22 H :   -0.171466
  23 H :   -0.171354
  24 H :   -0.182699
  25 C :    0.562052
  26 H :   -0.170619
  27 H :   -0.170559
  28 H :   -0.182600
  29 H :   -0.178991
  30 H :   -0.209030
  31 H :   -0.309133

  Mayer bond orders larger than 0.100000
B(  0-C ,  1-C ) :   0.7367 B(  0-C ,  2-N ) :   0.2836 B(  0-C ,  3-N ) :   0.3551
B(  0-C ,  4-C ) :  -0.3502 B(  0-C ,  5-C ) :   0.3759 B(  0-C ,  6-N ) :   0.2110
B(  0-C , 10-C ) :  -0.3675 B(  0-C , 17-C ) :   0.3921 B(  0-C , 18-C ) :   0.2264
B(  0-C , 19-C ) :   0.1228 B(  0-C , 21-C ) :  -0.2113 B(  0-C , 25-C ) :   0.1495
B(  0-C , 26-H ) :   0.1041 B(  0-C , 27-H ) :   0.1060 B(  0-C , 30-H ) :  -0.5066
B(  1-C ,  2-N ) :  -0.1304 B(  1-C ,  3-N ) :  -0.1609 B(  1-C , 17-C ) :  -0.3894
B(  1-C , 18-C ) :  -0.2885 B(  1-C , 19-C ) :   0.4671 B(  1-C , 21-C ) :   0.1481
B(  1-C , 25-C ) :  -0.1127 B(  1-C , 29-H ) :  -0.1054 B(  1-C , 31-H ) :  -0.2233
B(  2-N ,  3-N ) :  -0.2219 B(  2-N ,  5-C ) :   0.5706 B(  2-N , 31-H ) :   1.4134
B(  3-N ,  4-C ) :   0.4702 B(  3-N ,  5-C ) :   0.3101 B(  3-N ,  6-N ) :  -0.2376
B(  3-N ,  9-C ) :  -0.1072 B(  3-N , 10-C ) :   1.1789 B(  3-N , 17-C ) :  -0.6458
B(  3-N , 18-C ) :   0.1055 B(  4-C ,  5-C ) :   0.4828 B(  4-C ,  6-N ) :   0.3711
B(  4-C ,  7-C ) :  -0.2036 B(  4-C ,  9-C ) :   0.9658 B(  5-C ,  6-N ) :  -0.3406
B(  5-C ,  7-C ) :  -0.3243 B(  5-C ,  8-N ) :  -0.2653 B(  5-C ,  9-C ) :  -0.5796
B(  5-C , 16-O ) :   0.1795 B(  5-C , 17-C ) :   0.1138 B(  6-N ,  7-C ) :   1.3918
B(  6-N ,  9-C ) :   0.1460 B(  6-N , 15-O ) :  -0.2237 B(  7-C ,  8-N ) :   1.0016
B(  7-C ,  9-C ) :  -0.2130 B(  7-C , 15-O ) :   1.4401 B(  8-N ,  9-C ) :   0.9414
B(  8-N , 14-H ) :   1.0629 B(  8-N , 15-O ) :  -0.1382 B(  8-N , 16-O ) :  -0.1872
B(  9-C , 16-O ) :   0.8282 B(  9-C , 17-C ) :  -0.1026 B( 10-C , 11-H ) :   0.9712
B( 10-C , 12-H ) :   0.9145 B( 10-C , 13-H ) :   0.9807 B( 10-C , 17-C ) :  -0.1558
B( 10-C , 18-C ) :   0.1023 B( 10-C , 30-H ) :  -0.1172 B( 17-C , 18-C ) :   1.2224
B( 17-C , 20-C ) :  -0.1218 B( 17-C , 21-C ) :  -0.2005 B( 17-C , 22-H ) :  -0.1102
B( 17-C , 25-C ) :   0.1620 B( 17-C , 30-H ) :   2.2404 B( 18-C , 19-C ) :   0.7951
B( 18-C , 20-C ) :  -0.2707 B( 18-C , 22-H ) :  -0.1879 B( 18-C , 23-H ) :  -0.1847
B( 18-C , 25-C ) :   0.6334 B( 18-C , 28-H ) :   0.1720 B( 18-C , 30-H ) :  -0.2804
B( 19-C , 20-C ) :   0.5565 B( 19-C , 21-C ) :   0.5038 B( 19-C , 22-H ) :   0.1013
B( 19-C , 24-H ) :   0.1406 B( 19-C , 26-H ) :  -0.2206 B( 19-C , 27-H ) :  -0.2055
B( 19-C , 29-H ) :  -0.1233 B( 19-C , 30-H ) :   0.1287 B( 20-C , 25-C ) :  -0.4586
B( 20-C , 26-H ) :  -0.1170 B( 20-C , 27-H ) :  -0.1280 B( 20-C , 28-H ) :  -0.1502
B( 20-C , 29-H ) :   1.7044 B( 20-C , 30-H ) :   0.1124 B( 21-C , 22-H ) :   1.0840
B( 21-C , 23-H ) :   1.0743 B( 21-C , 24-H ) :   1.0362 B( 25-C , 26-H ) :   1.0760
B( 25-C , 27-H ) :   1.0735 B( 25-C , 28-H ) :   1.0432

MP2 TOTAL ENERGY:     -871.189300830 Eh
FINAL SINGLE POINT ENERGY      -871.189300829696

DIPOLE MOMENT
-------------
                                X             Y             Z
Electronic contribution:    -23.30313       4.50599      -1.37241
Nuclear contribution   :     28.08366      -4.75379       1.21602
                        -----------------------------------------
Total Dipole Moment    :      4.78052      -0.24780      -0.15639
                        -----------------------------------------
Magnitude (a.u.)       :      4.78950
Magnitude (Debye)      :     12.17393

Rotational constants in cm-1:     0.028893     0.007686     0.006195
Rotational constants in MHz :   866.180284   230.420674   185.730692

                             ****ORCA TERMINATED NORMALLY****
TOTAL RUN TIME: 0 days 0 hours 35 minutes 33 seconds 331 msec
