                         Program Version 4.2.1 -  RELEASE  -
|  1> %pal
|  2>  nprocs 32
|  3> end
|  4> !RI-MP2 aug-cc-pVTZ aug-cc-pVTZ/C TightSCF
|  5> %maxcore 4500
|  6> *xyzfile 1 1  10_16P.xyz
|  7>
|  8>
|  9>                          ****END OF INPUT****

CARTESIAN COORDINATES (ANGSTROEM)
---------------------------------
  C     -1.718942    1.092835    0.442875
  C     -2.117193    1.399195   -1.009770
  C     -3.310562    0.587608   -1.495575
  C     -3.004781   -0.900337   -1.372920
  C     -2.765537   -1.272824    0.084495
  C     -1.712497   -0.416298    0.787612
  H     -3.532472    0.852468   -2.530402
  H     -1.269089    1.179871   -1.670339
  H     -2.303841    2.471716   -1.097927
  H     -2.125504   -1.146529   -1.979381
  H     -3.827152   -1.500696   -1.764582
  H     -2.479611   -2.321565    0.190085
  H     -3.698419   -1.146260    0.640975
  H     -4.202919    0.834373   -0.910226
  C     -1.761411   -0.675342    2.303776
  H     -0.996145   -0.121162    2.849831
  H     -1.631994   -1.737067    2.513633
  H     -2.738882   -0.367756    2.675283
  C     -0.257463    1.450092    0.666614
  N     -0.356252   -0.840081    0.384347
  N      0.397642    0.135792    0.350824
  C      1.791194    0.005851    0.056827
  C      2.271832   -1.211744   -0.418059
  C      2.629698    1.096098    0.261376
  C      3.620329   -1.328609   -0.692533
  H      1.595344   -2.040732   -0.570881
  C      3.980469    0.957647   -0.012788
  H      2.255004    2.036347    0.640961
  C      4.474060   -0.248258   -0.490000
  H      4.009466   -2.265636   -1.068670
  H      4.646564    1.795023    0.147535
  H      5.529859   -0.348918   -0.707367
  H      0.005574    1.703875    1.694410
  H      0.125249    2.210491   -0.009522
  H     -2.365943    1.626696    1.138807

 Total Charge           Charge          ....    1
 Multiplicity           Mult            ....    1
 Number of Electrons    NEL             ....  116
 Basis Dimension        Dim             .... 1173

ORBITAL ENERGIES
----------------

  NO   OCC          E(Eh)            E(eV)
   0   2.0000     -15.889269      -432.3690
   1   2.0000     -15.833523      -430.8521
   2   2.0000     -11.445722      -311.4539
   3   2.0000     -11.434691      -311.1537
   4   2.0000     -11.433088      -311.1102
   5   2.0000     -11.391986      -309.9917
   6   2.0000     -11.391662      -309.9829
   7   2.0000     -11.384482      -309.7875
   8   2.0000     -11.374406      -309.5133
   9   2.0000     -11.371579      -309.4364
  10   2.0000     -11.370751      -309.4139
  11   2.0000     -11.366049      -309.2859
  12   2.0000     -11.357197      -309.0450
  13   2.0000     -11.356691      -309.0313
  14   2.0000     -11.339943      -308.5755
  15   2.0000     -11.338397      -308.5335
  16   2.0000      -1.621915       -44.1346
  17   2.0000      -1.336573       -36.3700
  18   2.0000      -1.285848       -34.9897
  19   2.0000      -1.261631       -34.3307
  20   2.0000      -1.201664       -32.6989
  21   2.0000      -1.178232       -32.0613
  22   2.0000      -1.165533       -31.7158
  23   2.0000      -1.128372       -30.7046
  24   2.0000      -1.082111       -29.4457
  25   2.0000      -1.041990       -28.3540
  26   2.0000      -0.996538       -27.1172
  27   2.0000      -0.972816       -26.4717
  28   2.0000      -0.963549       -26.2195
  29   2.0000      -0.937107       -25.5000
  30   2.0000      -0.907818       -24.7030
  31   2.0000      -0.892223       -24.2786
  32   2.0000      -0.845446       -23.0058
  33   2.0000      -0.820557       -22.3285
  34   2.0000      -0.801707       -21.8156
  35   2.0000      -0.777721       -21.1629
  36   2.0000      -0.763861       -20.7857
  37   2.0000      -0.759297       -20.6615
  38   2.0000      -0.752001       -20.4630
  39   2.0000      -0.740846       -20.1594
  40   2.0000      -0.734565       -19.9885
  41   2.0000      -0.732204       -19.9243
  42   2.0000      -0.706405       -19.2222
  43   2.0000      -0.693130       -18.8610
  44   2.0000      -0.685413       -18.6510
  45   2.0000      -0.663763       -18.0619
  46   2.0000      -0.659004       -17.9324
  47   2.0000      -0.657053       -17.8793
  48   2.0000      -0.644726       -17.5439
  49   2.0000      -0.640012       -17.4156
  50   2.0000      -0.634374       -17.2622
  51   2.0000      -0.630021       -17.1437
  52   2.0000      -0.623454       -16.9650
  53   2.0000      -0.591562       -16.0972
  54   2.0000      -0.569731       -15.5032
  55   2.0000      -0.568680       -15.4746
  56   2.0000      -0.482859       -13.1393
  57   2.0000      -0.478820       -13.0293
  58   0.0000      -0.108238        -2.9453
  59   0.0000      -0.066857        -1.8193
  60   0.0000      -0.054209        -1.4751
  61   0.0000      -0.053038        -1.4432
  62   0.0000      -0.050374        -1.3707

MULLIKEN ATOMIC CHARGES
-----------------------
   0 C :    0.212868
   1 C :   -0.482938
   2 C :   -0.560513
   3 C :   -0.577126
   4 C :   -0.909262
   5 C :    1.555379
   6 H :    0.313929
   7 H :    0.206769
   8 H :    0.329202
   9 H :    0.195108
  10 H :    0.340538
  11 H :    0.332624
  12 H :    0.203740
  13 H :    0.090411
  14 C :   -1.481876
  15 H :    0.273610
  16 H :    0.236389
  17 H :    0.269725
  18 C :   -1.168650
  19 N :   -1.537101
  20 N :    1.649492
  21 C :    1.235735
  22 C :   -0.548875
  23 C :   -0.529155
  24 C :   -0.882234
  25 H :    0.520825
  26 C :   -0.818495
  27 H :    0.375085
  28 C :   -0.293607
  29 H :    0.499684
  30 H :    0.491266
  31 H :    0.481166
  32 H :    0.241959
  33 H :    0.331140
  34 H :    0.403185
Sum of atomic charges:    1.0000000

LOEWDIN ATOMIC CHARGES
----------------------
   0 C :    0.065786
   1 C :    0.325197
   2 C :    0.316513
   3 C :    0.314285
   4 C :    0.323360
   5 C :   -0.383650
   6 H :   -0.127094
   7 H :   -0.135100
   8 H :   -0.119706
   9 H :   -0.131640
  10 H :   -0.125938
  11 H :   -0.123919
  12 H :   -0.126467
  13 H :   -0.125792
  14 C :    0.633218
  15 H :   -0.152682
  16 H :   -0.138852
  17 H :   -0.138621
  18 C :    0.309533
  19 N :    0.511316
  20 N :    0.165556
  21 C :   -0.166922
  22 C :    0.243576
  23 C :    0.240865
  24 C :    0.239544
  25 H :   -0.176180
  26 C :    0.239784
  27 H :   -0.179130
  28 C :    0.243176
  29 H :   -0.164028
  30 H :   -0.164636
  31 H :   -0.160356
  32 H :   -0.105982
  33 H :   -0.124322
  34 H :   -0.100690

  Mayer bond orders larger than 0.100000
B(  0-C ,  1-C ) :   0.8082 B(  0-C ,  4-C ) :   0.1125 B(  0-C ,  5-C ) :   0.9847
B(  0-C , 18-C ) :   0.8998 B(  0-C , 20-N ) :  -0.2139 B(  0-C , 34-H ) :   0.8402
B(  1-C ,  2-C ) :   0.8930 B(  1-C ,  7-H ) :   1.0592 B(  1-C ,  8-H ) :   0.9112
B(  2-C ,  3-C ) :   0.8867 B(  2-C ,  6-H ) :   0.9067 B(  2-C , 13-H ) :   1.1131
B(  3-C ,  4-C ) :   0.9294 B(  3-C ,  9-H ) :   1.0374 B(  3-C , 10-H ) :   0.9011
B(  4-C ,  5-C ) :   0.2355 B(  4-C , 11-H ) :   0.9927 B(  4-C , 12-H ) :   1.1143
B(  4-C , 19-N ) :   0.1030 B(  5-C , 16-H ) :  -0.1547 B(  5-C , 17-H ) :  -0.1272
B(  5-C , 18-C ) :   0.1792 B(  5-C , 19-N ) :   1.0423 B(  5-C , 21-C ) :  -0.1523
B(  5-C , 22-C ) :   0.1193 B( 14-C , 15-H ) :   1.0758 B( 14-C , 16-H ) :   1.1656
B( 14-C , 17-H ) :   1.0987 B( 18-C , 20-N ) :   0.9408 B( 18-C , 21-C ) :  -0.1241
B( 18-C , 22-C ) :   0.1027 B( 18-C , 32-H ) :   1.0594 B( 18-C , 33-H ) :   0.9733
B( 19-N , 20-N ) :  -0.3925 B( 19-N , 21-C ) :  -0.4514 B( 19-N , 22-C ) :   0.4008
B( 19-N , 23-C ) :   0.3212 B( 19-N , 25-H ) :  -0.2741 B( 19-N , 28-C ) :   0.1144
B( 20-N , 21-C ) :   0.7630 B( 20-N , 22-C ) :  -0.8234 B( 20-N , 23-C ) :  -1.2014
B( 20-N , 24-C ) :   0.1306 B( 20-N , 25-H ) :   0.1932 B( 20-N , 26-C ) :   0.1572
B( 20-N , 27-H ) :   0.1747 B( 20-N , 28-C ) :  -0.1970 B( 20-N , 32-H ) :   0.1793
B( 21-C , 22-C ) :   0.5393 B( 21-C , 23-C ) :   0.8391 B( 21-C , 24-C ) :  -0.3027
B( 21-C , 25-H ) :  -0.1475 B( 21-C , 26-C ) :  -0.2409 B( 21-C , 27-H ) :  -0.2668
B( 22-C , 24-C ) :   1.3973 B( 22-C , 25-H ) :   0.8409 B( 23-C , 26-C ) :   1.3459
B( 23-C , 27-H ) :   0.8739 B( 23-C , 28-C ) :   0.1240 B( 24-C , 25-H ) :  -0.1006
B( 24-C , 28-C ) :   1.1767 B( 24-C , 29-H ) :   0.7423 B( 24-C , 31-H ) :  -0.1059
B( 26-C , 28-C ) :   1.1228 B( 26-C , 30-H ) :   0.7227 B( 26-C , 31-H ) :  -0.1191
B( 28-C , 31-H ) :   0.7496

MP2 TOTAL ENERGY:     -652.829954277 Eh
FINAL SINGLE POINT ENERGY      -652.829954276732

DIPOLE MOMENT
-------------
                                X             Y             Z
Electronic contribution:     13.34760      -1.11908       0.35417
Nuclear contribution   :    -13.27129       1.74547       0.19036
                        -----------------------------------------
Total Dipole Moment    :      0.07631       0.62640       0.54453
                        -----------------------------------------
Magnitude (a.u.)       :      0.83349
Magnitude (Debye)      :      2.11856

Rotational constants in cm-1:     0.038976     0.010261     0.010102
Rotational constants in MHz :  1168.466137   307.607182   302.851676

                             ****ORCA TERMINATED NORMALLY****
TOTAL RUN TIME: 0 days 0 hours 38 minutes 7 seconds 407 msec
