                         Program Version 4.2.1 -  RELEASE  -
|  1> %pal
|  2>  nprocs 32
|  3> end
|  4> !RI-MP2 aug-cc-pVTZ aug-cc-pVTZ/C TightSCF
|  5> %maxcore 4500
|  6> *xyzfile 0 1  05_31R1.xyz
|  7>
|  8>
|  9>                          ****END OF INPUT****

CARTESIAN COORDINATES (ANGSTROEM)
---------------------------------
  C      0.509312    1.628993   -0.729536
  C      1.556456    0.654242   -0.245156
  C      2.498811    0.152758   -1.136344
  C      1.616384    0.275782    1.090728
  C      3.493490   -0.710553   -0.699194
  H      2.452639    0.434745   -2.183375
  C      2.605985   -0.593139    1.527685
  H      0.876300    0.656256    1.783520
  C      3.548301   -1.086968    0.635769
  H      4.221261   -1.095759   -1.403297
  H      2.640055   -0.887351    2.569844
  O     -0.661189    1.656621    0.065323
  H      4.319194   -1.766411    0.978452
  C     -1.551250    0.627142   -0.030358
  C     -2.716070    0.770674    0.720249
  C     -1.360560   -0.508975   -0.808145
  C     -3.685323   -0.214577    0.687085
  H     -2.838432    1.665670    1.317008
  C     -2.346321   -1.490421   -0.833005
  H     -0.452102   -0.652816   -1.374576
  C     -3.508180   -1.353538   -0.092549
  H     -4.588586   -0.092603    1.272900
  H     -2.190323   -2.375152   -1.438711
  H     -4.267888   -2.124424   -0.117231
  H      0.897248    2.647597   -0.675016
  H      0.253945    1.428752   -1.775489

 Total Charge           Charge          ....    0
 Multiplicity           Mult            ....    1
 Number of Electrons    NEL             ....   98
 Basis Dimension        Dim             ....  920

ORBITAL ENERGIES
----------------

  NO   OCC          E(Eh)            E(eV)
   0   2.0000     -20.585208      -560.1520
   1   2.0000     -11.297461      -307.4195
   2   2.0000     -11.294585      -307.3413
   3   2.0000     -11.243788      -305.9590
   4   2.0000     -11.238549      -305.8165
   5   2.0000     -11.236715      -305.7666
   6   2.0000     -11.236567      -305.7625
   7   2.0000     -11.235741      -305.7400
   8   2.0000     -11.235150      -305.7240
   9   2.0000     -11.234217      -305.6986
  10   2.0000     -11.231920      -305.6361
  11   2.0000     -11.226855      -305.4983
  12   2.0000     -11.224151      -305.4247
  13   2.0000     -11.222843      -305.3891
  14   2.0000      -1.414571       -38.4924
  15   2.0000      -1.163032       -31.6477
  16   2.0000      -1.148502       -31.2523
  17   2.0000      -1.054793       -28.7024
  18   2.0000      -1.019951       -27.7543
  19   2.0000      -1.017499       -27.6875
  20   2.0000      -1.007908       -27.4266
  21   2.0000      -0.933597       -25.4045
  22   2.0000      -0.836455       -22.7611
  23   2.0000      -0.833255       -22.6740
  24   2.0000      -0.824262       -22.4293
  25   2.0000      -0.792089       -21.5538
  26   2.0000      -0.724976       -19.7276
  27   2.0000      -0.705812       -19.2061
  28   2.0000      -0.669477       -18.2174
  29   2.0000      -0.666807       -18.1447
  30   2.0000      -0.652089       -17.7442
  31   2.0000      -0.627704       -17.0807
  32   2.0000      -0.615756       -16.7556
  33   2.0000      -0.614063       -16.7095
  34   2.0000      -0.591853       -16.1051
  35   2.0000      -0.588816       -16.0225
  36   2.0000      -0.580917       -15.8076
  37   2.0000      -0.545179       -14.8351
  38   2.0000      -0.534108       -14.5338
  39   2.0000      -0.516265       -14.0483
  40   2.0000      -0.501521       -13.6471
  41   2.0000      -0.497258       -13.5311
  42   2.0000      -0.494181       -13.4473
  43   2.0000      -0.477718       -12.9994
  44   2.0000      -0.465599       -12.6696
  45   2.0000      -0.344335        -9.3698
  46   2.0000      -0.340904        -9.2765
  47   2.0000      -0.331613        -9.0236
  48   2.0000      -0.311861        -8.4862
  49   0.0000       0.026243         0.7141
  50   0.0000       0.031483         0.8567
  51   0.0000       0.032706         0.8900
  52   0.0000       0.033816         0.9202
  53   0.0000       0.040921         1.1135

MULLIKEN ATOMIC CHARGES
-----------------------
   0 C :    0.050571
   1 C :    1.419871
   2 C :   -0.844158
   3 C :   -0.878122
   4 C :   -0.720744
   5 H :   -0.145962
   6 C :   -0.892688
   7 H :   -0.079040
   8 C :    0.011673
   9 H :    0.556291
  10 H :    0.537179
  11 O :   -1.012008
  12 H :    0.460222
  13 C :    1.284016
  14 C :   -1.057174
  15 C :   -0.125089
  16 C :   -0.388768
  17 H :    0.454375
  18 C :   -0.971819
  19 H :    0.725054
  20 C :   -0.489769
  21 H :    0.368461
  22 H :    0.271421
  23 H :    0.569967
  24 H :    0.586007
  25 H :    0.310233
Sum of atomic charges:   -0.0000000

LOEWDIN ATOMIC CHARGES
----------------------
   0 C :    0.041996
   1 C :   -0.128345
   2 C :    0.208976
   3 C :    0.216980
   4 C :    0.197562
   5 H :   -0.171581
   6 C :    0.204306
   7 H :   -0.176955
   8 C :    0.194512
   9 H :   -0.181792
  10 H :   -0.179991
  11 O :    0.600243
  12 H :   -0.184122
  13 C :   -0.382475
  14 C :    0.207514
  15 C :    0.213882
  16 C :    0.183290
  17 H :   -0.180760
  18 C :    0.192377
  19 H :   -0.204390
  20 C :    0.185694
  21 H :   -0.180794
  22 H :   -0.178912
  23 H :   -0.190369
  24 H :   -0.145114
  25 H :   -0.161732

  Mayer bond orders larger than 0.100000
B(  0-C ,  1-C ) :   0.4047 B(  0-C ,  2-C ) :   0.1414 B(  0-C ,  5-H ) :  -0.1927
B(  0-C ,  7-H ) :  -0.2205 B(  0-C ,  8-C ) :   0.1189 B(  0-C , 11-O ) :   0.7727
B(  0-C , 14-C ) :   0.1067 B(  0-C , 24-H ) :   0.8955 B(  0-C , 25-H ) :   1.0286
B(  1-C ,  2-C ) :   0.4575 B(  1-C ,  3-C ) :   0.5471 B(  1-C ,  4-C ) :   0.2999
B(  1-C ,  5-H ) :  -0.4689 B(  1-C ,  6-C ) :   0.1360 B(  1-C ,  7-H ) :  -0.3361
B(  1-C ,  8-C ) :   0.1339 B(  1-C , 11-O ) :   0.1061 B(  2-C ,  3-C ) :  -0.6271
B(  2-C ,  4-C ) :   1.2584 B(  2-C ,  5-H ) :   2.0044 B(  2-C ,  7-H ) :   0.2759
B(  2-C ,  8-C ) :  -0.3466 B(  2-C ,  9-H ) :  -0.1339 B(  2-C , 12-H ) :   0.2192
B(  3-C ,  4-C ) :   0.1537 B(  3-C ,  5-H ) :   0.3288 B(  3-C ,  6-C ) :   1.3968
B(  3-C ,  7-H ) :   1.8770 B(  3-C ,  8-C ) :  -0.3302 B(  3-C , 12-H ) :   0.1319
B(  4-C ,  5-H ) :  -0.1194 B(  4-C ,  6-C ) :   0.3225 B(  4-C ,  8-C ) :   1.0570
B(  4-C ,  9-H ) :   0.6215 B(  4-C , 12-H ) :  -0.2227 B(  5-H ,  7-H ) :   0.2789
B(  5-H , 24-H ) :  -0.1150 B(  6-C ,  8-C ) :   1.1250 B(  6-C , 10-H ) :   0.6232
B(  6-C , 12-H ) :  -0.2482 B(  7-H ,  8-C ) :  -0.1019 B(  8-C , 12-H ) :   0.8045
B( 11-O , 13-C ) :   0.4719 B( 11-O , 14-C ) :   0.1359 B( 11-O , 15-C ) :  -0.4261
B( 11-O , 17-H ) :  -0.1318 B( 11-O , 24-H ) :  -0.1298 B( 13-C , 14-C ) :   0.5178
B( 13-C , 15-C ) :   0.8505 B( 13-C , 16-C ) :  -0.1373 B( 13-C , 18-C ) :  -0.2424
B( 14-C , 15-C ) :   0.3338 B( 14-C , 16-C ) :   1.1669 B( 14-C , 17-H ) :   0.7890
B( 14-C , 20-C ) :   0.2779 B( 15-C , 18-C ) :   0.8872 B( 15-C , 19-H ) :   0.4525
B( 15-C , 20-C ) :   0.1151 B( 16-C , 18-C ) :  -0.1468 B( 16-C , 20-C ) :   1.1419
B( 16-C , 21-H ) :   0.9520 B( 18-C , 20-C ) :   1.3057 B( 18-C , 22-H ) :   1.1212
B( 20-C , 21-H ) :  -0.1019 B( 20-C , 22-H ) :  -0.1150 B( 20-C , 23-H ) :   0.6148

MP2 TOTAL ENERGY:     -576.653264536 Eh
FINAL SINGLE POINT ENERGY      -576.653264535982

DIPOLE MOMENT
-------------
                                X             Y             Z
Electronic contribution:     -0.95774       1.94130       0.78401
Nuclear contribution   :      1.31156      -2.13321      -1.04388
                        -----------------------------------------
Total Dipole Moment    :      0.35382      -0.19191      -0.25987
                        -----------------------------------------
Magnitude (a.u.)       :      0.47911
Magnitude (Debye)      :      1.21780

Rotational constants in cm-1:     0.050823     0.013184     0.012532
Rotational constants in MHz :  1523.641480   395.260899   375.690923

                             ****ORCA TERMINATED NORMALLY****
TOTAL RUN TIME: 0 days 0 hours 14 minutes 19 seconds 449 msec
