                         Program Version 4.2.1 -  RELEASE  -
|  1> %pal
|  2>  nprocs 32
|  3> end
|  4> !RI-MP2 aug-cc-pVTZ aug-cc-pVTZ/C TightSCF
|  5> %maxcore 4500
|  6> *xyzfile 1 1  05_41TS.xyz
|  7>
|  8>
|  9>                          ****END OF INPUT****

CARTESIAN COORDINATES (ANGSTROEM)
---------------------------------
  C      1.260663   -2.027901   -0.717309
  C      1.190829   -0.941871    1.675253
  C      2.365146   -0.059592    1.244855
  C      3.265643   -0.689327    0.186005
  C      2.448368   -1.112866   -1.030822
  H      1.978600    0.880276    0.852445
  H      2.953957    0.172104    2.134979
  H      3.764955   -1.563396    0.609240
  H      2.084568   -0.209133   -1.519519
  H      3.092551   -1.631808   -1.743762
  N      0.498748   -1.447767    0.442032
  O     -0.745097   -1.708906    0.512727
  C      0.358593   -2.078799   -1.941522
  H      0.944077   -2.458244   -2.778830
  H     -0.493595   -2.739723   -1.797830
  H      0.009349   -1.087468   -2.216352
  C      1.694007   -3.465184   -0.385167
  H      2.504853   -3.517477    0.335775
  H      0.850977   -4.043911   -0.005569
  H      2.041620   -3.938752   -1.304404
  C      0.232697   -0.112105    2.514481
  H      0.797052    0.311946    3.345122
  H     -0.193463    0.710320    1.944639
  H     -0.560959   -0.727765    2.930548
  C      1.644605   -2.137379    2.533674
  H      2.493780   -2.671538    2.117689
  H      1.941989   -1.761410    3.513447
  H      0.825173   -2.842909    2.676412
  C     -2.632382   -0.045641   -0.013417
  H     -1.526996   -0.872335    0.060195
  C     -1.951419    1.263686    0.134131
  C     -0.717338    1.474200   -0.489704
  C     -2.525670    2.303643    0.872213
  C     -0.053385    2.684210   -0.361845
  H     -0.265093    0.687753   -1.077305
  C     -1.874700    3.520206    0.975823
  H     -3.495398    2.172395    1.334568
  C     -0.635049    3.707894    0.372184
  H      0.916815    2.811503   -0.825605
  H     -2.337660    4.329462    1.526573
  H     -0.127548    4.659690    0.467837
  O     -3.396053   -0.516986    0.981577
  C     -3.184227   -0.293943    2.378368
  H     -4.136552    0.035069    2.791955
  H     -2.420206    0.451481    2.566435
  H     -2.908148   -1.249031    2.823042
  C     -3.336309   -0.392701   -1.350325
  C     -2.600997    0.115032   -2.589221
  H     -1.640349   -0.369397   -2.740446
  H     -3.211199   -0.112799   -3.464279
  H     -2.449106    1.193746   -2.565191
  C     -3.571768   -1.902419   -1.449013
  H     -4.135220   -2.273810   -0.594289
  H     -4.140966   -2.122734   -2.353150
  H     -2.631031   -2.451195   -1.505249
  C     -4.698137    0.335790   -1.288773
  H     -5.232496    0.151464   -2.222005
  H     -5.307949   -0.028311   -0.463757
  H     -4.567992    1.415038   -1.187338
  N      4.341395    0.220718   -0.198255
  H      5.288999   -0.072389   -0.028929
  C      4.145117    1.438484   -0.773667
  C      5.387489    2.226553   -1.096076
  H      5.397539    2.435215   -2.166253
  H      5.335796    3.183896   -0.576775
  H      6.312199    1.719571   -0.821190
  O      3.028077    1.870158   -1.016813

 Total Charge           Charge          ....    1
 Multiplicity           Mult            ....    1
 Number of Electrons    NEL             ....  214
 Basis Dimension        Dim             .... 2185

ORBITAL ENERGIES
----------------

  NO   OCC          E(Eh)            E(eV)
   0   2.0000     -20.806928      -566.1853
   1   2.0000     -20.723695      -563.9204
   2   2.0000     -20.612026      -560.8817
   3   2.0000     -15.796921      -429.8561
   4   2.0000     -15.686433      -426.8495
   5   2.0000     -11.479606      -312.3759
   6   2.0000     -11.447736      -311.5087
   7   2.0000     -11.404065      -310.3204
   8   2.0000     -11.403336      -310.3006
   9   2.0000     -11.398490      -310.1687
  10   2.0000     -11.383124      -309.7505
  11   2.0000     -11.367242      -309.3184
  12   2.0000     -11.365221      -309.2634
  13   2.0000     -11.355054      -308.9867
  14   2.0000     -11.354390      -308.9687
  15   2.0000     -11.345986      -308.7400
  16   2.0000     -11.344336      -308.6951
  17   2.0000     -11.336464      -308.4809
  18   2.0000     -11.333027      -308.3873
  19   2.0000     -11.331621      -308.3491
  20   2.0000     -11.331358      -308.3419
  21   2.0000     -11.330891      -308.3292
  22   2.0000     -11.330135      -308.3087
  23   2.0000     -11.327909      -308.2481
  24   2.0000     -11.321418      -308.0715
  25   2.0000     -11.316905      -307.9486
  26   2.0000     -11.315981      -307.9235
  27   2.0000     -11.313777      -307.8635
  28   2.0000      -1.633417       -44.4475
  29   2.0000      -1.554600       -42.3028
  30   2.0000      -1.481075       -40.3021
  31   2.0000      -1.341122       -36.4938
  32   2.0000      -1.299521       -35.3618
  33   2.0000      -1.280640       -34.8480
  34   2.0000      -1.228752       -33.4360
  35   2.0000      -1.225006       -33.3341
  36   2.0000      -1.163770       -31.6678
  37   2.0000      -1.155246       -31.4358
  38   2.0000      -1.133863       -30.8540
  39   2.0000      -1.115782       -30.3620
  40   2.0000      -1.104895       -30.0657
  41   2.0000      -1.083289       -29.4778
  42   2.0000      -1.064152       -28.9571
  43   2.0000      -1.051035       -28.6001
  44   2.0000      -1.048514       -28.5315
  45   2.0000      -1.039958       -28.2987
  46   2.0000      -1.037348       -28.2277
  47   2.0000      -1.005367       -27.3574
  48   2.0000      -0.967608       -26.3300
  49   2.0000      -0.946641       -25.7594
  50   2.0000      -0.940324       -25.5875
  51   2.0000      -0.924804       -25.1652
  52   2.0000      -0.905339       -24.6355
  53   2.0000      -0.873828       -23.7781
  54   2.0000      -0.864803       -23.5325
  55   2.0000      -0.831061       -22.6143
  56   2.0000      -0.823641       -22.4124
  57   2.0000      -0.809038       -22.0150
  58   2.0000      -0.808526       -22.0011
  59   2.0000      -0.793399       -21.5895
  60   2.0000      -0.787121       -21.4187
  61   2.0000      -0.780095       -21.2275
  62   2.0000      -0.772775       -21.0283
  63   2.0000      -0.753288       -20.4980
  64   2.0000      -0.737833       -20.0775
  65   2.0000      -0.737567       -20.0702
  66   2.0000      -0.730522       -19.8785
  67   2.0000      -0.728750       -19.8303
  68   2.0000      -0.714899       -19.4534
  69   2.0000      -0.709124       -19.2962
  70   2.0000      -0.705626       -19.2010
  71   2.0000      -0.705072       -19.1860
  72   2.0000      -0.700961       -19.0741
  73   2.0000      -0.697864       -18.9899
  74   2.0000      -0.693854       -18.8807
  75   2.0000      -0.686751       -18.6875
  76   2.0000      -0.686130       -18.6705
  77   2.0000      -0.679389       -18.4871
  78   2.0000      -0.675819       -18.3900
  79   2.0000      -0.667304       -18.1583
  80   2.0000      -0.652233       -17.7482
  81   2.0000      -0.648342       -17.6423
  82   2.0000      -0.646211       -17.5843
  83   2.0000      -0.644647       -17.5417
  84   2.0000      -0.640406       -17.4263
  85   2.0000      -0.638615       -17.3776
  86   2.0000      -0.635888       -17.3034
  87   2.0000      -0.632334       -17.2067
  88   2.0000      -0.625948       -17.0329
  89   2.0000      -0.620842       -16.8940
  90   2.0000      -0.618354       -16.8263
  91   2.0000      -0.611537       -16.6408
  92   2.0000      -0.608729       -16.5644
  93   2.0000      -0.604095       -16.4383
  94   2.0000      -0.596639       -16.2354
  95   2.0000      -0.594001       -16.1636
  96   2.0000      -0.584925       -15.9166
  97   2.0000      -0.583805       -15.8862
  98   2.0000      -0.575030       -15.6474
  99   2.0000      -0.572528       -15.5793
 100   2.0000      -0.570887       -15.5346
 101   2.0000      -0.564187       -15.3523
 102   2.0000      -0.515961       -14.0400
 103   2.0000      -0.493457       -13.4276
 104   2.0000      -0.473655       -12.8888
 105   2.0000      -0.451340       -12.2816
 106   2.0000      -0.429503       -11.6874
 107   0.0000      -0.134425        -3.6579
 108   0.0000      -0.052683        -1.4336
 109   0.0000      -0.046591        -1.2678
 110   0.0000      -0.043133        -1.1737
 111   0.0000      -0.041165        -1.1202

MULLIKEN ATOMIC CHARGES
-----------------------
   0 C :    1.968398
   1 C :    1.785048
   2 C :   -0.941886
   3 C :    0.843132
   4 C :   -0.791454
   5 H :    0.663369
   6 H :    0.287857
   7 H :    0.188842
   8 H :    0.351528
   9 H :    0.395674
  10 N :    2.711315
  11 O :   -1.985399
  12 C :   -1.727227
  13 H :   -0.096743
  14 H :    0.329669
  15 H :    0.369976
  16 C :   -1.810452
  17 H :    0.307832
  18 H :    0.155206
  19 H :    0.055095
  20 C :   -2.032109
  21 H :   -0.061805
  22 H :    0.775394
  23 H :    0.185057
  24 C :   -1.727036
  25 H :    0.310183
  26 H :    0.073308
  27 H :    0.151180
  28 C :    2.753147
  29 H :    0.461188
  30 C :    1.494591
  31 C :   -0.957191
  32 C :   -0.968434
  33 C :   -0.935266
  34 H :    0.783921
  35 C :   -0.617519
  36 H :   -0.253820
  37 C :   -0.567856
  38 H :    0.786961
  39 H :    0.729942
  40 H :    0.543731
  41 O :   -1.049823
  42 C :   -1.177928
  43 H :    0.203283
  44 H :    0.661071
  45 H :    0.311589
  46 C :    1.597718
  47 C :   -1.600581
  48 H :    0.616669
  49 H :    0.049395
  50 H :    0.336625
  51 C :   -1.875888
  52 H :    0.258012
  53 H :    0.163669
  54 H :    0.556847
  55 C :   -1.672614
  56 H :    0.174704
  57 H :    0.223757
  58 H :    0.283481
  59 N :   -0.658427
  60 H :   -0.083400
  61 C :    0.803241
  62 C :   -0.972893
  63 H :    0.333494
  64 H :    0.330092
  65 H :    0.284835
  66 O :   -1.084278
Sum of atomic charges:    1.0000000

LOEWDIN ATOMIC CHARGES
----------------------
   0 C :   -0.354017
   1 C :   -0.354347
   2 C :    0.334513
   3 C :   -0.052972
   4 C :    0.334270
   5 H :   -0.181185
   6 H :   -0.111201
   7 H :   -0.130127
   8 H :   -0.177810
   9 H :   -0.111054
  10 N :    0.114110
  11 O :    0.739669
  12 C :    0.615222
  13 H :   -0.128296
  14 H :   -0.163294
  15 H :   -0.209877
  16 C :    0.632572
  17 H :   -0.189759
  18 H :   -0.137328
  19 H :   -0.142881
  20 C :    0.604717
  21 H :   -0.129489
  22 H :   -0.197916
  23 H :   -0.175837
  24 C :    0.632030
  25 H :   -0.193123
  26 H :   -0.141663
  27 H :   -0.137417
  28 C :   -0.274653
  29 H :   -0.484943
  30 C :   -0.099169
  31 C :    0.214041
  32 C :    0.224969
  33 C :    0.249544
  34 H :   -0.199633
  35 C :    0.242372
  36 H :   -0.164423
  37 C :    0.245399
  38 H :   -0.221938
  39 H :   -0.166605
  40 H :   -0.163379
  41 O :    0.670008
  42 C :    0.427808
  43 H :   -0.147744
  44 H :   -0.224607
  45 H :   -0.152575
  46 C :   -0.300357
  47 C :    0.616009
  48 H :   -0.202591
  49 H :   -0.137620
  50 H :   -0.149529
  51 C :    0.614093
  52 H :   -0.155439
  53 H :   -0.142205
  54 H :   -0.178179
  55 C :    0.611203
  56 H :   -0.143542
  57 H :   -0.158938
  58 H :   -0.148558
  59 N :    0.607012
  60 H :   -0.274340
  61 C :   -0.639763
  62 C :    0.618346
  63 H :   -0.163074
  64 H :   -0.163665
  65 H :   -0.176761
  66 O :    0.505920

  Mayer bond orders larger than 0.100000
B(  0-C ,  2-C ) :   0.1309 B(  0-C ,  3-C ) :  -0.1544 B(  0-C ,  4-C ) :   0.1380
B(  0-C , 10-N ) :   0.5381 B(  0-C , 11-O ) :   0.2420 B(  0-C , 13-H ) :  -0.1082
B(  0-C , 16-C ) :  -0.2488 B(  0-C , 17-H ) :  -0.1120 B(  0-C , 19-H ) :  -0.3565
B(  1-C ,  2-C ) :   0.3414 B(  1-C ,  3-C ) :  -0.1512 B(  1-C ,  4-C ) :   0.1448
B(  1-C , 10-N ) :   0.7305 B(  1-C , 11-O ) :   0.4938 B(  1-C , 20-C ) :  -0.1046
B(  1-C , 21-H ) :  -0.2220 B(  1-C , 24-C ) :  -0.2931 B(  1-C , 25-H ) :  -0.1466
B(  1-C , 26-H ) :  -0.3538 B(  1-C , 27-H ) :  -0.1080 B(  1-C , 29-H ) :  -0.2434
B(  2-C ,  3-C ) :   0.8310 B(  2-C ,  5-H ) :   0.7815 B(  2-C ,  6-H ) :   0.8062
B(  2-C ,  7-H ) :   0.1319 B(  2-C , 10-N ) :   0.2639 B(  2-C , 59-N ) :   0.2585
B(  3-C ,  4-C ) :   1.0359 B(  3-C ,  6-H ) :  -0.1330 B(  3-C ,  7-H ) :   0.7763
B(  3-C , 10-N ) :   0.1882 B(  3-C , 59-N ) :  -0.5450 B(  3-C , 61-C ) :  -0.6787
B(  4-C ,  7-H ) :   0.1310 B(  4-C ,  8-H ) :   1.1600 B(  4-C ,  9-H ) :   0.6942
B(  4-C , 10-N ) :   0.3190 B(  4-C , 59-N ) :   0.2225 B(  5-H , 20-C ) :  -0.1067
B(  5-H , 66-O ) :  -0.1100 B(  7-H , 59-N ) :  -0.2058 B(  7-H , 61-C ) :   0.1906
B(  8-H , 12-C ) :  -0.1006 B(  8-H , 66-O ) :  -0.1514 B( 10-N , 11-O ) :  -0.2111
B( 10-N , 12-C ) :  -0.5167 B( 10-N , 14-H ) :  -0.2036 B( 10-N , 16-C ) :  -0.4265
B( 10-N , 18-H ) :  -0.2920 B( 10-N , 20-C ) :  -0.5692 B( 10-N , 23-H ) :  -0.2470
B( 10-N , 24-C ) :  -0.3697 B( 10-N , 27-H ) :  -0.2770 B( 10-N , 28-C ) :   0.1544
B( 10-N , 29-H ) :   0.5368 B( 10-N , 33-C ) :  -0.2094 B( 10-N , 51-C ) :  -0.1342
B( 11-O , 12-C ) :   0.1779 B( 11-O , 14-H ) :   0.1225 B( 11-O , 16-C ) :   0.1658
B( 11-O , 18-H ) :   0.1335 B( 11-O , 20-C ) :   0.1599 B( 11-O , 24-C ) :   0.1626
B( 11-O , 27-H ) :   0.1348 B( 11-O , 28-C ) :   0.1667 B( 11-O , 29-H ) :  -0.6234
B( 11-O , 33-C ) :   0.1286 B( 11-O , 34-H ) :   0.1128 B( 11-O , 51-C ) :   0.1355
B( 12-C , 13-H ) :   1.5729 B( 12-C , 14-H ) :   1.0223 B( 12-C , 15-H ) :   1.1641
B( 12-C , 16-C ) :   0.1374 B( 15-H , 30-C ) :   0.1196 B( 15-H , 31-C ) :  -0.1030
B( 16-C , 17-H ) :   1.1110 B( 16-C , 18-H ) :   1.3033 B( 16-C , 19-H ) :   1.4871
B( 20-C , 21-H ) :   1.6156 B( 20-C , 22-H ) :   0.6150 B( 20-C , 23-H ) :   1.3092
B( 20-C , 24-C ) :   0.1848 B( 20-C , 30-C ) :  -0.1829 B( 20-C , 31-C ) :   0.1394
B( 21-H , 22-H ) :  -0.1321 B( 21-H , 28-C ) :   0.1994 B( 21-H , 30-C ) :  -0.2916
B( 22-H , 28-C ) :  -0.1922 B( 22-H , 30-C ) :   0.4638 B( 22-H , 32-C ) :  -0.2074
B( 24-C , 25-H ) :   1.1122 B( 24-C , 26-H ) :   1.4342 B( 24-C , 27-H ) :   1.2846
B( 28-C , 29-H ) :   0.5443 B( 28-C , 30-C ) :   0.2858 B( 28-C , 31-C ) :   0.2276
B( 28-C , 32-C ) :   0.4934 B( 28-C , 33-C ) :  -0.2895 B( 28-C , 34-H ) :   0.5365
B( 28-C , 35-C ) :   0.3087 B( 28-C , 36-H ) :  -0.5460 B( 28-C , 38-H ) :   0.1450
B( 28-C , 39-H ) :  -0.1793 B( 28-C , 41-O ) :  -1.6877 B( 28-C , 42-C ) :  -0.2218
B( 28-C , 45-H ) :  -0.1031 B( 28-C , 46-C ) :   0.4797 B( 28-C , 47-C ) :  -0.3351
B( 28-C , 51-C ) :  -0.2775 B( 28-C , 55-C ) :  -0.3206 B( 28-C , 57-H ) :  -0.1344
B( 29-H , 30-C ) :   0.4058 B( 29-H , 31-C ) :  -0.1580 B( 29-H , 41-O ) :   0.3569
B( 30-C , 31-C ) :   1.1127 B( 30-C , 32-C ) :  -0.3193 B( 30-C , 33-C ) :  -0.5954
B( 30-C , 34-H ) :   0.8068 B( 30-C , 35-C ) :   0.7183 B( 30-C , 36-H ) :  -0.2444
B( 30-C , 37-C ) :  -0.1679 B( 30-C , 38-H ) :  -0.1081 B( 30-C , 39-H ) :  -0.2374
B( 30-C , 40-H ) :   0.1758 B( 30-C , 41-O ) :   0.1624 B( 30-C , 46-C ) :   0.2376
B( 30-C , 55-C ) :  -0.1135 B( 31-C , 33-C ) :   2.0055 B( 31-C , 34-H ) :  -0.7543
B( 31-C , 36-H ) :   0.2578 B( 31-C , 37-C ) :   0.9578 B( 31-C , 39-H ) :   0.1829
B( 31-C , 40-H ) :  -0.1054 B( 32-C , 33-C ) :  -0.1408 B( 32-C , 35-C ) :   1.0038
B( 32-C , 36-H ) :   1.9695 B( 32-C , 37-C ) :   0.1720 B( 32-C , 40-H ) :   0.1456
B( 32-C , 41-O ) :   0.1945 B( 33-C , 34-H ) :   0.2210 B( 33-C , 35-C ) :   0.4976
B( 33-C , 36-H ) :  -0.1540 B( 33-C , 37-C ) :   0.6877 B( 33-C , 38-H ) :   0.2531
B( 33-C , 40-H ) :  -0.1389 B( 33-C , 66-O ) :  -0.1375 B( 34-H , 35-C ) :  -0.5446
B( 34-H , 36-H ) :   0.2669 B( 34-H , 37-C ) :  -0.1275 B( 34-H , 38-H ) :  -0.1635
B( 34-H , 40-H ) :   0.1504 B( 35-C , 36-H ) :  -0.1892 B( 35-C , 37-C ) :   0.9996
B( 35-C , 39-H ) :   0.3220 B( 35-C , 40-H ) :  -0.3140 B( 36-H , 39-H ) :  -0.1242
B( 36-H , 41-O ) :   0.1490 B( 37-C , 40-H ) :   0.5923 B( 41-O , 42-C ) :   0.9104
B( 41-O , 44-H ) :   0.1091 B( 41-O , 46-C ) :   0.3025 B( 42-C , 43-H ) :   1.2126
B( 42-C , 44-H ) :   0.5469 B( 42-C , 45-H ) :   0.9712 B( 46-C , 47-C ) :   0.2668
B( 46-C , 49-H ) :  -0.1277 B( 46-C , 51-C ) :   0.3640 B( 46-C , 53-H ) :  -0.1297
B( 46-C , 55-C ) :   0.2313 B( 46-C , 56-H ) :  -0.1678 B( 47-C , 48-H ) :   0.7815
B( 47-C , 49-H ) :   1.3671 B( 47-C , 50-H ) :   1.0518 B( 51-C , 52-H ) :   1.1610
B( 51-C , 53-H ) :   1.2799 B( 51-C , 54-H ) :   0.7649 B( 51-C , 55-C ) :   0.1064
B( 55-C , 56-H ) :   1.2268 B( 55-C , 57-H ) :   1.1649 B( 55-C , 58-H ) :   1.1198
B( 59-N , 60-H ) :   1.2346 B( 59-N , 61-C ) :   1.2864 B( 59-N , 66-O ) :   0.1374
B( 60-H , 61-C ) :  -0.1592 B( 61-C , 62-C ) :   0.3101 B( 61-C , 63-H ) :  -0.1064
B( 61-C , 66-O ) :   1.7023 B( 62-C , 63-H ) :   1.0298 B( 62-C , 64-H ) :   1.0296
B( 62-C , 65-H ) :   0.9767 B( 62-C , 66-O ) :  -0.2051

MP2 TOTAL ENERGY:    -1232.395411005 Eh
FINAL SINGLE POINT ENERGY     -1232.395411004792

DIPOLE MOMENT
-------------
                                X             Y             Z
Electronic contribution:      2.95558      11.11479       2.86297
Nuclear contribution   :     -2.30594     -11.79404      -1.97798
                        -----------------------------------------
Total Dipole Moment    :      0.64964      -0.67926       0.88499
                        -----------------------------------------
Magnitude (a.u.)       :      1.29098
Magnitude (Debye)      :      3.28141

Rotational constants in cm-1:     0.008353     0.004607     0.003993
Rotational constants in MHz :   250.412972   138.125441   119.705621

                             ****ORCA TERMINATED NORMALLY****
TOTAL RUN TIME: 0 days 6 hours 36 minutes 7 seconds 794 msec
