                         Program Version 4.2.1 -  RELEASE  -
|  1> %pal
|  2>  nprocs 32
|  3> end
|  4> !RI-MP2 aug-cc-pVTZ aug-cc-pVTZ/C TightSCF
|  5> %maxcore 4500
|  6> *xyzfile 1 1  05_30TS.xyz
|  7>
|  8>
|  9>                          ****END OF INPUT****

CARTESIAN COORDINATES (ANGSTROEM)
---------------------------------
  C      1.062366   -0.199543    1.280230
  C      1.002894   -1.715348   -0.867460
  C      2.471752   -1.286189   -0.925639
  C      2.671752    0.217699   -0.738849
  C      2.035596    0.753226    0.563810
  H      3.056748   -1.820511   -0.182067
  H      2.863053   -1.579752   -1.901423
  H      2.188702    0.723839   -1.576675
  H      2.821870    0.997623    1.274745
  H      1.503183    1.678385    0.334576
  N      0.333788   -0.997031    0.252992
  O     -0.887224   -1.289340    0.455562
  C      1.780245   -1.183113    2.224650
  H      2.225148   -0.611888    3.040135
  H      1.060268   -1.886174    2.646666
  H      2.591471   -1.722203    1.746356
  C      0.066313    0.610848    2.097974
  H     -0.620643   -0.027608    2.651707
  H      0.629696    1.206933    2.816217
  H     -0.505578    1.293728    1.472878
  C      0.898256   -3.221213   -0.607422
  H     -0.142970   -3.542958   -0.588293
  H      1.412541   -3.759984   -1.404568
  H      1.366036   -3.486337    0.340566
  C      0.278768   -1.364242   -2.170609
  H      0.721797   -1.937150   -2.985227
  H     -0.777029   -1.631522   -2.121171
  H      0.369962   -0.305545   -2.413184
  C     -2.757890    0.102159   -0.528154
  H     -2.731349   -0.343624   -1.527259
  H     -1.668193   -0.552081   -0.053527
  C     -2.310232    1.478602   -0.405946
  C     -2.755670    2.295503    0.641060
  C     -1.376378    1.972402   -1.325598
  C     -2.279547    3.587025    0.751304
  H     -3.478501    1.906940    1.345885
  C     -0.895449    3.264644   -1.199552
  H     -1.057050    1.351914   -2.153587
  C     -1.344925    4.070838   -0.161760
  H     -2.634118    4.225618    1.550273
  H     -0.185261    3.651484   -1.919328
  O     -3.737011   -0.299527    0.270410
  C     -4.391827   -1.569694   -0.047264
  H     -3.630143   -2.213433   -0.498243
  H     -0.976239    5.084733   -0.068147
  C     -5.514767   -1.301811   -1.027426
  H     -6.255531   -0.634802   -0.583729
  H     -6.007565   -2.239634   -1.288439
  H     -5.146802   -0.848524   -1.950144
  C     -4.850574   -2.151205    1.268585
  H     -4.007125   -2.304721    1.941981
  H     -5.568362   -1.484901    1.749878
  H     -5.336654   -3.112707    1.097669
  N      4.079613    0.579077   -0.844874
  C      5.021096    0.150625    0.043791
  C      6.432154    0.615036   -0.202129
  H      6.539485    1.236725   -1.091020
  H      6.770503    1.174997    0.670254
  H      7.074362   -0.260902   -0.296475
  O      4.725079   -0.563632    0.985988
  H      4.370138    1.162205   -1.611364

 Total Charge           Charge          ....    1
 Multiplicity           Mult            ....    1
 Number of Electrons    NEL             ....  198
 Basis Dimension        Dim             .... 2001

ORBITAL ENERGIES
----------------

  NO   OCC          E(Eh)            E(eV)
   0   2.0000     -20.801633      -566.0412
   1   2.0000     -20.730192      -564.0972
   2   2.0000     -20.603687      -560.6548
   3   2.0000     -15.791904      -429.7195
   4   2.0000     -15.679754      -426.6678
   5   2.0000     -11.481931      -312.4392
   6   2.0000     -11.438220      -311.2498
   7   2.0000     -11.414597      -310.6070
   8   2.0000     -11.402166      -310.2687
   9   2.0000     -11.394684      -310.0651
  10   2.0000     -11.381800      -309.7145
  11   2.0000     -11.380247      -309.6723
  12   2.0000     -11.376628      -309.5738
  13   2.0000     -11.367125      -309.3152
  14   2.0000     -11.366906      -309.3092
  15   2.0000     -11.359307      -309.1025
  16   2.0000     -11.356295      -309.0205
  17   2.0000     -11.341202      -308.6098
  18   2.0000     -11.330733      -308.3249
  19   2.0000     -11.329087      -308.2801
  20   2.0000     -11.328382      -308.2609
  21   2.0000     -11.325096      -308.1715
  22   2.0000     -11.322799      -308.1090
  23   2.0000     -11.321061      -308.0617
  24   2.0000     -11.315061      -307.8984
  25   2.0000     -11.311003      -307.7880
  26   2.0000      -1.635976       -44.5172
  27   2.0000      -1.562437       -42.5161
  28   2.0000      -1.474128       -40.1131
  29   2.0000      -1.334516       -36.3140
  30   2.0000      -1.299571       -35.3631
  31   2.0000      -1.294437       -35.2234
  32   2.0000      -1.219959       -33.1968
  33   2.0000      -1.208250       -32.8782
  34   2.0000      -1.163938       -31.6724
  35   2.0000      -1.155323       -31.4379
  36   2.0000      -1.149123       -31.2692
  37   2.0000      -1.109341       -30.1867
  38   2.0000      -1.076840       -29.3023
  39   2.0000      -1.063407       -28.9368
  40   2.0000      -1.061044       -28.8725
  41   2.0000      -1.048582       -28.5334
  42   2.0000      -1.045723       -28.4556
  43   2.0000      -1.039579       -28.2884
  44   2.0000      -0.969730       -26.3877
  45   2.0000      -0.962206       -26.1830
  46   2.0000      -0.939623       -25.5684
  47   2.0000      -0.939216       -25.5574
  48   2.0000      -0.930608       -25.3231
  49   2.0000      -0.899369       -24.4731
  50   2.0000      -0.866402       -23.5760
  51   2.0000      -0.847732       -23.0680
  52   2.0000      -0.828177       -22.5358
  53   2.0000      -0.819001       -22.2861
  54   2.0000      -0.813110       -22.1258
  55   2.0000      -0.798620       -21.7316
  56   2.0000      -0.790648       -21.5146
  57   2.0000      -0.784718       -21.3533
  58   2.0000      -0.763794       -20.7839
  59   2.0000      -0.747582       -20.3427
  60   2.0000      -0.744585       -20.2612
  61   2.0000      -0.738704       -20.1012
  62   2.0000      -0.725990       -19.7552
  63   2.0000      -0.724684       -19.7197
  64   2.0000      -0.717928       -19.5358
  65   2.0000      -0.714462       -19.4415
  66   2.0000      -0.704925       -19.1820
  67   2.0000      -0.699652       -19.0385
  68   2.0000      -0.698625       -19.0106
  69   2.0000      -0.685448       -18.6520
  70   2.0000      -0.684567       -18.6280
  71   2.0000      -0.674241       -18.3470
  72   2.0000      -0.668900       -18.2017
  73   2.0000      -0.667081       -18.1522
  74   2.0000      -0.658643       -17.9226
  75   2.0000      -0.654166       -17.8008
  76   2.0000      -0.648771       -17.6539
  77   2.0000      -0.646420       -17.5900
  78   2.0000      -0.642619       -17.4866
  79   2.0000      -0.639021       -17.3886
  80   2.0000      -0.638207       -17.3665
  81   2.0000      -0.632604       -17.2140
  82   2.0000      -0.631306       -17.1787
  83   2.0000      -0.624896       -17.0043
  84   2.0000      -0.622090       -16.9279
  85   2.0000      -0.614329       -16.7167
  86   2.0000      -0.606815       -16.5123
  87   2.0000      -0.600686       -16.3455
  88   2.0000      -0.596294       -16.2260
  89   2.0000      -0.593297       -16.1444
  90   2.0000      -0.588333       -16.0094
  91   2.0000      -0.584088       -15.8938
  92   2.0000      -0.570888       -15.5347
  93   2.0000      -0.561615       -15.2823
  94   2.0000      -0.508855       -13.8466
  95   2.0000      -0.494988       -13.4693
  96   2.0000      -0.486378       -13.2350
  97   2.0000      -0.467705       -12.7269
  98   2.0000      -0.425429       -11.5765
  99   0.0000      -0.142479        -3.8770
 100   0.0000      -0.058738        -1.5983
 101   0.0000      -0.049798        -1.3551
 102   0.0000      -0.045790        -1.2460
 103   0.0000      -0.042464        -1.1555

MULLIKEN ATOMIC CHARGES
-----------------------
   0 C :    1.876628
   1 C :    1.427693
   2 C :   -0.643936
   3 C :    0.641362
   4 C :   -0.963741
   5 H :    0.196616
   6 H :    0.345142
   7 H :    0.187863
   8 H :   -0.047283
   9 H :    0.796748
  10 N :    2.271435
  11 O :   -1.536898
  12 C :   -1.555203
  13 H :    0.139677
  14 H :    0.126697
  15 H :    0.369498
  16 C :   -2.004206
  17 H :    0.099494
  18 H :   -0.024825
  19 H :    0.843482
  20 C :   -1.807251
  21 H :    0.360914
  22 H :    0.178362
  23 H :    0.254374
  24 C :   -1.677637
  25 H :   -0.013801
  26 H :    0.370261
  27 H :    0.317626
  28 C :    0.498126
  29 H :    0.666209
  30 H :    0.767457
  31 C :    0.785448
  32 C :   -0.442606
  33 C :   -0.599536
  34 C :   -0.804919
  35 H :    0.299119
  36 C :   -0.750271
  37 H :    0.129597
  38 C :   -0.075453
  39 H :    0.459010
  40 H :    0.484206
  41 O :   -0.698775
  42 C :    0.346302
  43 H :    0.436395
  44 H :    0.585708
  45 C :   -1.205680
  46 H :    0.269063
  47 H :    0.286245
  48 H :    0.316960
  49 C :   -1.283975
  50 H :    0.336162
  51 H :    0.263332
  52 H :    0.268773
  53 N :   -0.478114
  54 C :    0.870490
  55 C :   -1.034081
  56 H :    0.274027
  57 H :    0.327485
  58 H :    0.342037
  59 O :   -1.058268
  60 H :   -0.109562
Sum of atomic charges:    1.0000000

LOEWDIN ATOMIC CHARGES
----------------------
   0 C :   -0.358718
   1 C :   -0.374144
   2 C :    0.331155
   3 C :   -0.041065
   4 C :    0.358481
   5 H :   -0.192698
   6 H :   -0.114298
   7 H :   -0.138014
   8 H :   -0.160986
   9 H :   -0.143419
  10 N :    0.109321
  11 O :    0.756370
  12 C :    0.629570
  13 H :   -0.138529
  14 H :   -0.142057
  15 H :   -0.202966
  16 C :    0.606428
  17 H :   -0.146212
  18 H :   -0.133052
  19 H :   -0.211002
  20 C :    0.621305
  21 H :   -0.157224
  22 H :   -0.141287
  23 H :   -0.151337
  24 C :    0.615164
  25 H :   -0.138371
  26 H :   -0.166796
  27 H :   -0.179071
  28 C :   -0.031734
  29 H :   -0.120219
  30 H :   -0.556452
  31 C :   -0.103150
  32 C :    0.239807
  33 C :    0.235679
  34 C :    0.239240
  35 H :   -0.160857
  36 C :    0.232039
  37 H :   -0.178954
  38 C :    0.239171
  39 H :   -0.164843
  40 H :   -0.168273
  41 O :    0.670032
  42 C :   -0.233792
  43 H :   -0.134371
  44 H :   -0.160797
  45 C :    0.611902
  46 H :   -0.151928
  47 H :   -0.152057
  48 H :   -0.162682
  49 C :    0.608777
  50 H :   -0.159342
  51 H :   -0.154534
  52 H :   -0.153969
  53 N :    0.596957
  54 C :   -0.655927
  55 C :    0.616750
  56 H :   -0.178203
  57 H :   -0.163491
  58 H :   -0.163998
  59 O :    0.497601
  60 H :   -0.274928

  Mayer bond orders larger than 0.100000
B(  0-C ,  1-C ) :  -0.1014 B(  0-C ,  2-C ) :   0.1236 B(  0-C ,  3-C ) :   0.2250
B(  0-C ,  4-C ) :   0.4009 B(  0-C ,  7-H ) :  -0.1353 B(  0-C ,  8-H ) :  -0.1550
B(  0-C , 10-N ) :   0.5799 B(  0-C , 11-O ) :   0.3378 B(  0-C , 13-H ) :  -0.1645
B(  0-C , 15-H ) :  -0.1376 B(  0-C , 18-H ) :  -0.1670 B(  0-C , 31-C ) :  -0.1078
B(  1-C ,  2-C ) :   0.3987 B(  1-C ,  6-H ) :  -0.1031 B(  1-C , 10-N ) :   0.7978
B(  1-C , 11-O ) :   0.1317 B(  1-C , 20-C ) :  -0.1519 B(  1-C , 21-H ) :  -0.1094
B(  1-C , 22-H ) :  -0.1512 B(  1-C , 23-H ) :  -0.2066 B(  1-C , 24-C ) :   0.3162
B(  1-C , 25-H ) :  -0.1669 B(  1-C , 30-H ) :  -0.2012 B(  2-C ,  3-C ) :   0.9802
B(  2-C ,  5-H ) :   1.3656 B(  2-C ,  6-H ) :   0.7945 B(  2-C , 10-N ) :  -0.2919
B(  2-C , 53-N ) :   0.1113 B(  2-C , 59-O ) :   0.1248 B(  3-C ,  4-C ) :   0.9417
B(  3-C ,  7-H ) :   0.8439 B(  3-C ,  9-H ) :  -0.1464 B(  3-C , 53-N ) :  -0.1375
B(  3-C , 54-C ) :  -0.3603 B(  3-C , 55-C ) :   0.1710 B(  4-C ,  7-H ) :   0.2276
B(  4-C ,  8-H ) :   1.5880 B(  4-C ,  9-H ) :   0.3468 B(  4-C , 10-N ) :   0.2562
B(  4-C , 19-H ) :  -0.1002 B(  4-C , 53-N ) :   0.2588 B(  5-H , 10-N ) :  -0.1601
B(  5-H , 59-O ) :  -0.1539 B(  7-H , 53-N ) :  -0.1072 B(  7-H , 54-C ) :   0.1246
B(  8-H ,  9-H ) :  -0.1577 B(  8-H , 10-N ) :   0.1405 B(  8-H , 59-O ) :  -0.1216
B(  9-H , 16-C ) :  -0.1582 B( 10-N , 11-O ) :   0.2668 B( 10-N , 12-C ) :  -0.2328
B( 10-N , 14-H ) :  -0.2241 B( 10-N , 16-C ) :  -0.5255 B( 10-N , 17-H ) :  -0.2438
B( 10-N , 19-H ) :   0.1532 B( 10-N , 24-C ) :  -0.5368 B( 10-N , 30-H ) :   0.3073
B( 10-N , 33-C ) :   0.1620 B( 10-N , 37-H ) :   0.1799 B( 10-N , 41-O ) :   0.1386
B( 11-O , 16-C ) :   0.1635 B( 11-O , 17-H ) :   0.1225 B( 11-O , 24-C ) :   0.1017
B( 11-O , 30-H ) :  -0.2655 B( 11-O , 41-O ) :  -0.1175 B( 12-C , 13-H ) :   1.2675
B( 12-C , 14-H ) :   1.2617 B( 12-C , 15-H ) :   1.0385 B( 12-C , 16-C ) :   0.2057
B( 16-C , 17-H ) :   1.4185 B( 16-C , 18-H ) :   1.5675 B( 16-C , 19-H ) :   0.3908
B( 18-H , 19-H ) :  -0.1879 B( 19-H , 31-C ) :   0.2165 B( 19-H , 34-C ) :  -0.1432
B( 20-C , 21-H ) :   0.9461 B( 20-C , 22-H ) :   1.2718 B( 20-C , 23-H ) :   1.1749
B( 20-C , 24-C ) :   0.1524 B( 24-C , 25-H ) :   1.4087 B( 24-C , 26-H ) :   0.9648
B( 24-C , 27-H ) :   1.1174 B( 26-H , 27-H ) :   0.1023 B( 28-C , 29-H ) :   0.6886
B( 28-C , 30-H ) :   0.2564 B( 28-C , 31-C ) :   0.3174 B( 28-C , 32-C ) :   0.1226
B( 28-C , 33-C ) :   0.3159 B( 28-C , 37-H ) :  -0.1521 B( 28-C , 39-H ) :   0.1088
B( 28-C , 41-O ) :   0.6320 B( 28-C , 45-C ) :  -0.1377 B( 29-H , 31-C ) :  -0.1824
B( 29-H , 41-O ) :  -0.1644 B( 30-H , 31-C ) :   0.3192 B( 31-C , 32-C ) :   0.8033
B( 31-C , 33-C ) :   0.9203 B( 31-C , 34-C ) :   0.1833 B( 31-C , 36-C ) :   0.2261
B( 31-C , 40-H ) :  -0.1358 B( 31-C , 44-H ) :   0.1333 B( 31-C , 45-C ) :   0.1035
B( 32-C , 33-C ) :  -0.1256 B( 32-C , 34-C ) :   1.1926 B( 32-C , 35-H ) :   1.0415
B( 32-C , 38-C ) :   0.1712 B( 33-C , 36-C ) :   1.5988 B( 33-C , 37-H ) :   1.4101
B( 33-C , 38-C ) :   0.1141 B( 34-C , 35-H ) :  -0.1299 B( 34-C , 38-C ) :   1.0425
B( 34-C , 39-H ) :   0.7833 B( 36-C , 37-H ) :  -0.1082 B( 36-C , 38-C ) :   1.0672
B( 36-C , 40-H ) :   0.7764 B( 38-C , 44-H ) :   0.5988 B( 41-O , 42-C ) :   0.7518
B( 41-O , 49-C ) :  -0.1428 B( 42-C , 43-H ) :   0.8411 B( 42-C , 45-C ) :   0.6633
B( 42-C , 49-C ) :   0.6576 B( 45-C , 46-H ) :   1.0193 B( 45-C , 47-H ) :   1.0128
B( 45-C , 48-H ) :   0.9251 B( 45-C , 49-C ) :   0.1914 B( 49-C , 50-H ) :   0.9313
B( 49-C , 51-H ) :   1.0404 B( 49-C , 52-H ) :   1.0523 B( 53-N , 54-C ) :   1.1369
B( 53-N , 60-H ) :   1.2599 B( 54-C , 55-C ) :   0.3508 B( 54-C , 59-O ) :   1.5544
B( 54-C , 60-H ) :  -0.1643 B( 55-C , 56-H ) :   1.0120 B( 55-C , 57-H ) :   1.0116
B( 55-C , 58-H ) :   0.9895 B( 55-C , 59-O ) :  -0.1200

MP2 TOTAL ENERGY:    -1153.943579146 Eh
FINAL SINGLE POINT ENERGY     -1153.943579145991

DIPOLE MOMENT
-------------
                                X             Y             Z
Electronic contribution:      1.88837      11.63635      -0.05219
Nuclear contribution   :     -3.22479     -10.94742      -1.55302
                        -----------------------------------------
Total Dipole Moment    :     -1.33642       0.68893      -1.60520
                        -----------------------------------------
Magnitude (a.u.)       :      2.19939
Magnitude (Debye)      :      5.59041

Rotational constants in cm-1:     0.010440     0.004182     0.003540
Rotational constants in MHz :   312.970128   125.381349   106.133585

                             ****ORCA TERMINATED NORMALLY****
TOTAL RUN TIME: 0 days 4 hours 2 minutes 55 seconds 985 msec
