                         Program Version 4.2.1 -  RELEASE  -
|  1> %pal
|  2>  nprocs 32
|  3> end
|  4> !RI-MP2 aug-cc-pVTZ aug-cc-pVTZ/C TightSCF
|  5> %maxcore 4500
|  6> *xyzfile 0 1  06_13TS.xyz
|  7>
|  8>
|  9>                          ****END OF INPUT****

CARTESIAN COORDINATES (ANGSTROEM)
---------------------------------
  C     -0.660181    0.075909    1.200444
  H      0.063964    0.401587    1.954411
  B     -0.123083    0.241195   -0.274226
  C     -1.944047    0.903890    1.383682
  H     -1.664588    1.962581    1.368792
  H     -2.370367    0.721053    2.376597
  C     -0.855888   -1.449134    1.395598
  H      0.137972   -1.909181    1.421986
  C      0.279684    2.284530   -0.812443
  H      0.546136    1.817213   -1.750663
  H     -0.593877    2.921056   -0.824003
  C      1.198542    2.420273    0.184960
  C      2.351497    1.602187    0.362716
  H      1.005259    3.159984    0.960243
  H     -1.303599   -1.643322    2.376700
  H      3.186252    1.919642    0.968514
  C      2.301485    0.305263   -0.050734
  O      1.229945   -0.254274   -0.559970
  O      3.359522   -0.488075    0.086219
  C      3.174352   -1.892836   -0.101846
  H      2.470061   -2.291311    0.629230
  H      2.812126   -2.104529   -1.106996
  H      4.156987   -2.332117    0.047798
  C     -1.689067   -2.150568    0.310480
  H     -1.540791   -3.231509    0.396368
  H     -2.749833   -1.989456    0.500098
  C     -1.213128   -0.186125   -1.329697
  H     -0.879016   -0.032360   -2.361269
  C     -1.351896   -1.717768   -1.124345
  H     -0.404928   -2.180345   -1.421019
  H     -2.113034   -2.110941   -1.807554
  C     -2.527111    0.588245   -1.125605
  H     -3.315075    0.154806   -1.752088
  H     -2.379170    1.605820   -1.498986
  C     -3.033232    0.662888    0.326037
  H     -3.775344    1.463944    0.397021
  H     -3.575507   -0.250329    0.570476

 Total Charge           Charge          ....    0
 Multiplicity           Mult            ....    1
 Number of Electrons    NEL             ....  120
 Basis Dimension        Dim             .... 1219

ORBITAL ENERGIES
----------------

  NO   OCC          E(Eh)            E(eV)
   0   2.0000     -20.606055      -560.7193
   1   2.0000     -20.578142      -559.9597
   2   2.0000     -11.381430      -309.7044
   3   2.0000     -11.291065      -307.2455
   4   2.0000     -11.275561      -306.8236
   5   2.0000     -11.212290      -305.1019
   6   2.0000     -11.210328      -305.0485
   7   2.0000     -11.208799      -305.0069
   8   2.0000     -11.206298      -304.9389
   9   2.0000     -11.206290      -304.9386
  10   2.0000     -11.206136      -304.9345
  11   2.0000     -11.204614      -304.8930
  12   2.0000     -11.204011      -304.8766
  13   2.0000     -11.185272      -304.3667
  14   2.0000     -11.183015      -304.3053
  15   2.0000      -7.606191      -206.9750
  16   2.0000      -1.472359       -40.0649
  17   2.0000      -1.380363       -37.5616
  18   2.0000      -1.105942       -30.0942
  19   2.0000      -1.100883       -29.9565
  20   2.0000      -1.031741       -28.0751
  21   2.0000      -1.019131       -27.7320
  22   2.0000      -1.015276       -27.6271
  23   2.0000      -0.942222       -25.6392
  24   2.0000      -0.922516       -25.1029
  25   2.0000      -0.904956       -24.6251
  26   2.0000      -0.837859       -22.7993
  27   2.0000      -0.806900       -21.9569
  28   2.0000      -0.782500       -21.2929
  29   2.0000      -0.775378       -21.0991
  30   2.0000      -0.738520       -20.0962
  31   2.0000      -0.723545       -19.6887
  32   2.0000      -0.686395       -18.6777
  33   2.0000      -0.674967       -18.3668
  34   2.0000      -0.655979       -17.8501
  35   2.0000      -0.651408       -17.7257
  36   2.0000      -0.633006       -17.2250
  37   2.0000      -0.611201       -16.6316
  38   2.0000      -0.589630       -16.0447
  39   2.0000      -0.588024       -16.0010
  40   2.0000      -0.579651       -15.7731
  41   2.0000      -0.568645       -15.4736
  42   2.0000      -0.567253       -15.4357
  43   2.0000      -0.552171       -15.0253
  44   2.0000      -0.542110       -14.7516
  45   2.0000      -0.533846       -14.5267
  46   2.0000      -0.527844       -14.3634
  47   2.0000      -0.520344       -14.1593
  48   2.0000      -0.498268       -13.5586
  49   2.0000      -0.493890       -13.4394
  50   2.0000      -0.491909       -13.3855
  51   2.0000      -0.470251       -12.7962
  52   2.0000      -0.463371       -12.6090
  53   2.0000      -0.458396       -12.4736
  54   2.0000      -0.448170       -12.1953
  55   2.0000      -0.434875       -11.8336
  56   2.0000      -0.411311       -11.1923
  57   2.0000      -0.397545       -10.8177
  58   2.0000      -0.372324       -10.1315
  59   2.0000      -0.295896        -8.0517
  60   0.0000       0.023515         0.6399
  61   0.0000       0.029621         0.8060
  62   0.0000       0.032223         0.8768
  63   0.0000       0.034922         0.9503
  64   0.0000       0.041100         1.1184

MULLIKEN ATOMIC CHARGES
-----------------------
   0 C :    0.490275
   1 H :    0.406846
   2 B :    2.190389
   3 C :   -0.966548
   4 H :   -0.086989
   5 H :    0.325812
   6 C :   -1.090567
   7 H :    0.126173
   8 C :   -0.538947
   9 H :    0.453326
  10 H :    0.250071
  11 C :   -0.304871
  12 C :   -0.515627
  13 H :    0.271246
  14 H :    0.209311
  15 H :    0.358451
  16 C :    0.371534
  17 O :   -0.666768
  18 O :   -0.871095
  19 C :   -0.906509
  20 H :    0.395563
  21 H :    0.333211
  22 H :    0.354605
  23 C :   -0.396478
  24 H :    0.360018
  25 H :    0.102788
  26 C :    0.328027
  27 H :    0.437245
  28 C :   -1.022962
  29 H :   -0.022279
  30 H :    0.258944
  31 C :   -0.902484
  32 H :    0.268535
  33 H :   -0.074055
  34 C :   -0.377910
  35 H :    0.414757
  36 H :    0.036963
Sum of atomic charges:   -0.0000000

LOEWDIN ATOMIC CHARGES
----------------------
   0 C :    0.117959
   1 H :   -0.137051
   2 B :   -0.868599
   3 C :    0.317843
   4 H :   -0.145718
   5 H :   -0.132101
   6 C :    0.329735
   7 H :   -0.148346
   8 C :    0.507160
   9 H :   -0.186002
  10 H :   -0.180095
  11 C :    0.191186
  12 C :    0.219122
  13 H :   -0.139554
  14 H :   -0.129158
  15 H :   -0.204425
  16 C :   -0.662683
  17 O :    0.694899
  18 O :    0.596250
  19 C :    0.379855
  20 H :   -0.177425
  21 H :   -0.175802
  22 H :   -0.179363
  23 C :    0.329040
  24 H :   -0.134817
  25 H :   -0.177881
  26 C :    0.118782
  27 H :   -0.130242
  28 C :    0.326688
  29 H :   -0.138373
  30 H :   -0.130894
  31 C :    0.321894
  32 H :   -0.132041
  33 H :   -0.154335
  34 C :    0.329089
  35 H :   -0.135751
  36 H :   -0.178847

  Mayer bond orders larger than 0.100000
B(  0-C ,  1-H ) :   0.8927 B(  0-C ,  2-B ) :   1.1415 B(  0-C ,  3-C ) :   0.6349
B(  0-C ,  5-H ) :  -0.1143 B(  0-C ,  6-C ) :   0.8337 B(  0-C , 14-H ) :  -0.1046
B(  0-C , 26-C ) :   0.2922 B(  1-H ,  2-B ) :  -0.3109 B(  1-H ,  3-C ) :  -0.2680
B(  1-H ,  6-C ) :  -0.1711 B(  2-B , 11-C ) :   0.1080 B(  2-B , 12-C ) :   0.1098
B(  2-B , 16-C ) :  -0.1561 B(  2-B , 17-O ) :  -1.4281 B(  2-B , 23-C ) :  -0.1299
B(  2-B , 26-C ) :   0.8461 B(  2-B , 27-H ) :  -0.1409 B(  2-B , 33-H ) :  -0.1056
B(  2-B , 36-H ) :  -0.1063 B(  3-C ,  4-H ) :   1.4197 B(  3-C ,  5-H ) :   0.9589
B(  3-C , 31-C ) :   0.2061 B(  3-C , 34-C ) :   0.8640 B(  3-C , 35-H ) :  -0.1043
B(  3-C , 36-H ) :   0.1083 B(  6-C ,  7-H ) :   1.1648 B(  6-C , 14-H ) :   1.0725
B(  6-C , 23-C ) :   0.8876 B(  6-C , 25-H ) :   0.1044 B(  6-C , 28-C ) :   0.1594
B(  8-C ,  9-H ) :   0.7707 B(  8-C , 10-H ) :   1.0552 B(  8-C , 11-C ) :   1.3061
B(  9-H , 17-O ) :   0.1069 B( 10-H , 11-C ) :  -0.1492 B( 11-C , 12-C ) :   1.0181
B( 11-C , 13-H ) :   1.0228 B( 11-C , 16-C ) :  -0.1244 B( 11-C , 17-O ) :   0.1184
B( 12-C , 15-H ) :   0.8883 B( 12-C , 16-C ) :   1.2302 B( 12-C , 17-O ) :  -0.2891
B( 16-C , 17-O ) :   1.4681 B( 16-C , 18-O ) :   0.5782 B( 17-O , 18-O ) :  -0.2588
B( 17-O , 19-C ) :  -0.1592 B( 17-O , 28-C ) :   0.1043 B( 18-O , 19-C ) :   0.9047
B( 19-C , 20-H ) :   0.8336 B( 19-C , 21-H ) :   0.8883 B( 19-C , 22-H ) :   0.9710
B( 23-C , 24-H ) :   0.8702 B( 23-C , 25-H ) :   1.1274 B( 23-C , 28-C ) :   0.9075
B( 25-H , 28-C ) :   0.1263 B( 26-C , 27-H ) :   0.9077 B( 26-C , 28-C ) :   0.7640
B( 26-C , 31-C ) :   0.6404 B( 27-H , 28-C ) :  -0.2413 B( 27-H , 31-C ) :  -0.2106
B( 28-C , 29-H ) :   1.2989 B( 28-C , 30-H ) :   1.0109 B( 31-C , 32-H ) :   1.0036
B( 31-C , 33-H ) :   1.3410 B( 31-C , 34-C ) :   0.8954 B( 31-C , 35-H ) :  -0.1114
B( 31-C , 36-H ) :   0.1383 B( 34-C , 35-H ) :   0.8347 B( 34-C , 36-H ) :   1.1693

MP2 TOTAL ENERGY:     -681.948067137 Eh
FINAL SINGLE POINT ENERGY      -681.948067136966

DIPOLE MOMENT
-------------
                                X             Y             Z
Electronic contribution:     12.62921       4.04189      -1.53456
Nuclear contribution   :    -12.40378      -4.25284       1.69873
                        -----------------------------------------
Total Dipole Moment    :      0.22543      -0.21095       0.16417
                        -----------------------------------------
Magnitude (a.u.)       :      0.34968
Magnitude (Debye)      :      0.88880

Rotational constants in cm-1:     0.027762     0.015540     0.012607
Rotational constants in MHz :   832.298476   465.873807   377.952227

                             ****ORCA TERMINATED NORMALLY****
TOTAL RUN TIME: 0 days 0 hours 47 minutes 42 seconds 314 msec
