                         Program Version 4.2.1 -  RELEASE  -
|  1> %pal
|  2>  nprocs 32
|  3> end
|  4> !RI-MP2 aug-cc-pVTZ aug-cc-pVTZ/C TightSCF
|  5> %maxcore 4500
|  6> *xyzfile 0 2  04_20R.xyz
|  7>
|  8>
|  9>                          ****END OF INPUT****

CARTESIAN COORDINATES (ANGSTROEM)
---------------------------------
  C     -1.642598   -0.131005    0.236672
  C     -0.795311   -0.209164   -1.017670
  C      0.622360   -0.746926   -0.845554
  H     -0.775992    0.787938   -1.471315
  H     -1.330740   -0.835663   -1.738550
  C      1.548107    0.060901    0.012151
  H      1.062812   -0.842717   -1.853419
  H      0.576222   -1.772173   -0.460629
  C      1.493414    1.550377   -0.032841
  C      2.818275   -0.590033    0.443488
  N     -1.244919   -0.355688    1.418211
  C     -3.078698    0.252350    0.009504
  H     -3.144328    1.209072   -0.516505
  H     -3.597486    0.328240    0.962822
  H     -3.580280   -0.491770   -0.615645
  H      2.666739   -1.639047    0.711178
  H      3.263861   -0.078460    1.300083
  H      1.861051    1.940043   -0.996521
  H      2.117506    1.991163    0.746901
  H      0.479167    1.935070    0.096842
  H      3.572407   -0.575000   -0.360873
  H     -0.249803   -0.585882    1.433654

 Total Charge           Charge          ....    0
 Multiplicity           Mult            ....    2
 Number of Electrons    NEL             ....   63
 Basis Dimension        Dim             ....  690

ORBITAL ENERGIES
----------------
                 SPIN UP ORBITALS
  NO   OCC          E(Eh)            E(eV)
   0   1.0000     -15.532111      -422.6502
   1   1.0000     -11.277033      -306.8637
   2   1.0000     -11.235738      -305.7400
   3   1.0000     -11.233445      -305.6776
   4   1.0000     -11.229972      -305.5831
   5   1.0000     -11.219062      -305.2862
   6   1.0000     -11.217836      -305.2528
   7   1.0000     -11.217097      -305.2327
   8   1.0000      -1.210704       -32.9449
   9   1.0000      -1.108310       -30.1586
  10   1.0000      -1.024882       -27.8885
  11   1.0000      -0.980725       -26.6869
  12   1.0000      -0.943194       -25.6656
  13   1.0000      -0.884714       -24.0743
  14   1.0000      -0.754810       -20.5394
  15   1.0000      -0.730396       -19.8751
  16   1.0000      -0.665691       -18.1144
  17   1.0000      -0.638753       -17.3813
  18   1.0000      -0.622810       -16.9475
  19   1.0000      -0.596380       -16.2283
  20   1.0000      -0.586922       -15.9710
  21   1.0000      -0.570164       -15.5149
  22   1.0000      -0.547847       -14.9077
  23   1.0000      -0.543868       -14.7994
  24   1.0000      -0.539983       -14.6937
  25   1.0000      -0.515215       -14.0197
  26   1.0000      -0.510841       -13.9007
  27   1.0000      -0.481776       -13.1098
  28   1.0000      -0.475462       -12.9380
  29   1.0000      -0.413968       -11.2646
  30   1.0000      -0.407674       -11.0934
  31   1.0000      -0.316086        -8.6011
  32   0.0000       0.026918         0.7325
  33   0.0000       0.031505         0.8573
  34   0.0000       0.034359         0.9349
  35   0.0000       0.037625         1.0238
  36   0.0000       0.048052         1.3076

                 SPIN DOWN ORBITALS
  NO   OCC          E(Eh)            E(eV)
   0   1.0000     -15.531159      -422.6243
   1   1.0000     -11.277333      -306.8718
   2   1.0000     -11.235267      -305.7272
   3   1.0000     -11.232947      -305.6640
   4   1.0000     -11.220871      -305.3354
   5   1.0000     -11.220087      -305.3141
   6   1.0000     -11.218961      -305.2835
   7   1.0000     -11.208837      -305.0079
   8   1.0000      -1.208601       -32.8877
   9   1.0000      -1.078326       -29.3427
  10   1.0000      -1.016492       -27.6602
  11   1.0000      -0.979454       -26.6523
  12   1.0000      -0.942749       -25.6535
  13   1.0000      -0.881058       -23.9748
  14   1.0000      -0.735632       -20.0176
  15   1.0000      -0.707578       -19.2542
  16   1.0000      -0.657817       -17.9001
  17   1.0000      -0.633253       -17.2317
  18   1.0000      -0.603227       -16.4147
  19   1.0000      -0.584230       -15.8977
  20   1.0000      -0.577187       -15.7061
  21   1.0000      -0.561066       -15.2674
  22   1.0000      -0.545197       -14.8356
  23   1.0000      -0.538774       -14.6608
  24   1.0000      -0.533762       -14.5244
  25   1.0000      -0.512079       -13.9344
  26   1.0000      -0.504728       -13.7343
  27   1.0000      -0.475990       -12.9524
  28   1.0000      -0.470124       -12.7927
  29   1.0000      -0.410288       -11.1645
  30   1.0000      -0.402566       -10.9544
  31   0.0000       0.026417         0.7188
  32   0.0000       0.031571         0.8591
  33   0.0000       0.034454         0.9375
  34   0.0000       0.037410         1.0180
  35   0.0000       0.048019         1.3067

MULLIKEN ATOMIC CHARGES AND SPIN POPULATIONS
--------------------------------------------
   0 C :    0.742349   -0.019857
   1 C :   -0.336838    0.023388
   2 C :   -0.499372   -0.203845
   3 H :    0.110378   -0.004681
   4 H :    0.438522   -0.006667
   5 C :    0.744561    1.293731
   6 H :    0.305182    0.116119
   7 H :    0.135209    0.009391
   8 C :   -1.142343   -0.197535
   9 C :   -1.153888   -0.228821
  10 N :   -1.032673    0.031115
  11 C :   -1.007430    0.005410
  12 H :    0.248586   -0.000278
  13 H :    0.308385    0.000287
  14 H :    0.282643   -0.000442
  15 H :    0.260421    0.008560
  16 H :    0.275898    0.020357
  17 H :    0.256755    0.072896
  18 H :    0.227761    0.009673
  19 H :    0.317115    0.018482
  20 H :    0.256488    0.069090
  21 H :    0.262291   -0.016373
Sum of atomic charges         :   -0.0000000

LOEWDIN ATOMIC CHARGES AND SPIN POPULATIONS
-------------------------------------------
   0 C :   -0.299387   -0.000150
   1 C :    0.280790    0.005139
   2 C :    0.254128    0.096519
   3 H :   -0.151253    0.000412
   4 H :   -0.142802   -0.000059
   5 C :   -0.065957    0.532840
   6 H :   -0.129388    0.028234
   7 H :   -0.150159    0.006586
   8 C :    0.564285    0.104273
   9 C :    0.563340    0.104341
  10 N :    0.699089    0.017859
  11 C :    0.572142   -0.000013
  12 H :   -0.168113    0.000072
  13 H :   -0.182052    0.000191
  14 H :   -0.168817   -0.000132
  15 H :   -0.174592    0.005440
  16 H :   -0.175872    0.006396
  17 H :   -0.151068    0.028121
  18 H :   -0.172918    0.003337
  19 H :   -0.183551    0.008391
  20 H :   -0.155851    0.028810
  21 H :   -0.461992    0.023393

  Mayer bond orders larger than 0.100000
B(  0-C ,  1-C ) :   0.7691 B(  0-C ,  2-C ) :   0.1465 B(  0-C ,  3-H ) :   0.1404
B(  0-C ,  4-H ) :  -0.1348 B(  0-C , 10-N ) :   0.8554 B(  0-C , 11-C ) :   0.8108
B(  1-C ,  2-C ) :   0.9352 B(  1-C ,  3-H ) :   0.9944 B(  1-C ,  4-H ) :   0.8763
B(  1-C ,  5-C ) :   0.1040 B(  1-C , 11-C ) :   0.1082 B(  2-C ,  5-C ) :   0.7999
B(  2-C ,  6-H ) :   0.9548 B(  2-C ,  7-H ) :   1.0337 B(  5-C ,  8-C ) :   0.6502
B(  5-C ,  9-C ) :   0.6050 B(  8-C , 17-H ) :   0.9831 B(  8-C , 18-H ) :   1.0555
B(  8-C , 19-H ) :   0.9784 B(  9-C , 15-H ) :   1.0319 B(  9-C , 16-H ) :   1.0087
B(  9-C , 20-H ) :   0.9904 B( 10-N , 21-H ) :   0.7481 B( 11-C , 12-H ) :   1.0140
B( 11-C , 13-H ) :   0.9388 B( 11-C , 14-H ) :   0.9803

MP2 TOTAL ENERGY:     -329.152319589 Eh
FINAL SINGLE POINT ENERGY      -329.152319589298

DIPOLE MOMENT
-------------
                                X             Y             Z
Electronic contribution:     -2.71718      -1.35833       1.84383
Nuclear contribution   :      3.07284       1.44342      -2.90392
                        -----------------------------------------
Total Dipole Moment    :      0.35566       0.08509      -1.06009
                        -----------------------------------------
Magnitude (a.u.)       :      1.12140
Magnitude (Debye)      :      2.85036

Rotational constants in cm-1:     0.126184     0.035484     0.035215
Rotational constants in MHz :  3782.896675  1063.795267  1055.704664

                             ****ORCA TERMINATED NORMALLY****
TOTAL RUN TIME: 0 days 0 hours 9 minutes 30 seconds 319 msec
