                         Program Version 4.2.1 -  RELEASE  -
|  1> %pal
|  2>  nprocs 32
|  3> end
|  4> !RI-MP2 aug-cc-pVTZ aug-cc-pVTZ/C TightSCF
|  5> %maxcore 4500
|  6> *xyzfile -1 1  05_3P.xyz
|  7>
|  8>
|  9>                          ****END OF INPUT****

CARTESIAN COORDINATES (ANGSTROEM)
---------------------------------
  O      0.697773    1.754740   -0.411407
  C      0.727171    0.809291    0.536450
  C      1.389147   -0.424573   -0.079649
  O      2.734885   -0.477422    0.133094
  O      0.862719   -1.255788   -0.783186
  C     -0.665431    0.410805    1.134812
  C     -1.665488   -0.213956    0.197478
  H     -1.082690    1.364869    1.476655
  H     -0.558280   -0.254665    1.997674
  O     -2.276582   -1.222633    0.502006
  H      3.050935   -1.201134   -0.424331
  C     -1.931546    0.505664   -1.097340
  H     -2.367326   -0.187180   -1.817760
  H     -2.647252    1.311225   -0.896717
  H     -1.007987    0.979895   -1.443497
  H      1.339116    1.072438    1.433412

 Total Charge           Charge          ....   -1
 Multiplicity           Mult            ....    1
 Number of Electrons    NEL             ....   70
 Basis Dimension        Dim             ....  575

ORBITAL ENERGIES
----------------

  NO   OCC          E(Eh)            E(eV)
   0   2.0000     -20.462665      -556.8174
   1   2.0000     -20.392246      -554.9012
   2   2.0000     -20.388030      -554.7865
   3   2.0000     -20.264376      -551.4217
   4   2.0000     -11.217624      -305.2471
   5   2.0000     -11.175856      -304.1105
   6   2.0000     -11.113881      -302.4241
   7   2.0000     -11.073240      -301.3182
   8   2.0000     -11.067259      -301.1554
   9   2.0000      -1.311249       -35.6809
  10   2.0000      -1.229289       -33.4506
  11   2.0000      -1.203576       -32.7510
  12   2.0000      -1.081995       -29.4426
  13   2.0000      -0.885230       -24.0883
  14   2.0000      -0.826068       -22.4785
  15   2.0000      -0.750607       -20.4251
  16   2.0000      -0.629956       -17.1420
  17   2.0000      -0.577489       -15.7143
  18   2.0000      -0.552821       -15.0430
  19   2.0000      -0.524244       -14.2654
  20   2.0000      -0.485938       -13.2231
  21   2.0000      -0.475869       -12.9490
  22   2.0000      -0.469734       -12.7821
  23   2.0000      -0.451554       -12.2874
  24   2.0000      -0.421186       -11.4611
  25   2.0000      -0.407274       -11.0825
  26   2.0000      -0.391972       -10.6661
  27   2.0000      -0.376875       -10.2553
  28   2.0000      -0.345285        -9.3957
  29   2.0000      -0.335123        -9.1192
  30   2.0000      -0.323184        -8.7943
  31   2.0000      -0.302984        -8.2446
  32   2.0000      -0.256886        -6.9902
  33   2.0000      -0.177588        -4.8324
  34   2.0000      -0.173377        -4.7178
  35   0.0000       0.116510         3.1704
  36   0.0000       0.122952         3.3457
  37   0.0000       0.125123         3.4048
  38   0.0000       0.136998         3.7279
  39   0.0000       0.139219         3.7883

MULLIKEN ATOMIC CHARGES
-----------------------
   0 O :   -1.216395
   1 C :    0.787830
   2 C :    0.544890
   3 O :   -0.497981
   4 O :   -0.858187
   5 C :   -0.489859
   6 C :    0.774713
   7 H :    0.278621
   8 H :    0.206178
   9 O :   -1.058437
  10 H :    0.212413
  11 C :   -0.877844
  12 H :    0.269334
  13 H :    0.292165
  14 H :    0.401725
  15 H :    0.230835
Sum of atomic charges:   -1.0000000

LOEWDIN ATOMIC CHARGES
----------------------
   0 O :    0.260139
   1 C :   -0.619227
   2 C :   -0.833456
   3 O :    0.806192
   4 O :    0.437251
   5 C :    0.237509
   6 C :   -0.576917
   7 H :   -0.166329
   8 H :   -0.179390
   9 O :    0.423651
  10 H :   -0.515696
  11 C :    0.559157
  12 H :   -0.188243
  13 H :   -0.175308
  14 H :   -0.274718
  15 H :   -0.194615

  Mayer bond orders larger than 0.100000
B(  0-O ,  1-C ) :   0.7958 B(  0-O ,  2-C ) :   0.1632 B(  1-C ,  2-C ) :   0.3998
B(  1-C ,  5-C ) :   0.8964 B(  1-C ,  6-C ) :   0.1292 B(  1-C , 15-H ) :   1.0580
B(  2-C ,  3-O ) :   0.7928 B(  2-C ,  4-O ) :   1.3880 B(  2-C ,  5-C ) :   0.1470
B(  3-O , 10-H ) :   0.9919 B(  5-C ,  6-C ) :   0.9151 B(  5-C ,  7-H ) :   0.9735
B(  5-C ,  8-H ) :   0.9530 B(  6-C ,  9-O ) :   0.9347 B(  6-C , 11-C ) :   0.7579
B( 11-C , 12-H ) :   0.9741 B( 11-C , 13-H ) :   0.9382 B( 11-C , 14-H ) :   0.8617

MP2 TOTAL ENERGY:     -494.872851467 Eh
FINAL SINGLE POINT ENERGY      -494.872851466840

DIPOLE MOMENT
-------------
                                X             Y             Z
Electronic contribution:      3.42809      -3.74879       0.20362
Nuclear contribution   :     -3.20408       3.03096       0.31295
                        -----------------------------------------
Total Dipole Moment    :      0.22401      -0.71783       0.51657
                        -----------------------------------------
Magnitude (a.u.)       :      0.91231
Magnitude (Debye)      :      2.31890

Rotational constants in cm-1:     0.088689     0.039451     0.034636
Rotational constants in MHz :  2658.832070  1182.704600  1038.372690

                             ****ORCA TERMINATED NORMALLY****
TOTAL RUN TIME: 0 days 0 hours 2 minutes 57 seconds 702 msec
