                         Program Version 4.2.1 -  RELEASE  -
|  1> %pal
|  2>  nprocs 32
|  3> end
|  4> !RI-MP2 aug-cc-pVTZ aug-cc-pVTZ/C TightSCF
|  5> %maxcore 4500
|  6> *xyzfile 0 2  03_10R2.xyz
|  7>
|  8>
|  9>                          ****END OF INPUT****

CARTESIAN COORDINATES (ANGSTROEM)
---------------------------------
  S     -1.479997   -0.040422    0.000067
  C      0.323519   -0.004107    0.000003
  F      0.716912    1.275611   -0.001235
  F      0.849204   -0.601553   -1.073285
  F      0.849311   -0.599459    1.074399

 Total Charge           Charge          ....    0
 Multiplicity           Mult            ....    2
 Number of Electrons    NEL             ....   49
 Basis Dimension        Dim             ....  234

ORBITAL ENERGIES
----------------
                 SPIN UP ORBITALS
  NO   OCC          E(Eh)            E(eV)
   0   1.0000     -92.029080     -2504.2386
   1   1.0000     -26.363612      -717.3903
   2   1.0000     -26.358465      -717.2503
   3   1.0000     -26.358441      -717.2496
   4   1.0000     -11.550034      -314.2924
   5   1.0000      -9.030029      -245.7196
   6   1.0000      -6.725564      -183.0119
   7   1.0000      -6.706896      -182.5039
   8   1.0000      -6.705002      -182.4524
   9   1.0000      -1.753060       -47.7032
  10   1.0000      -1.659267       -45.1510
  11   1.0000      -1.654005       -45.0078
  12   1.0000      -1.088669       -29.6242
  13   1.0000      -0.946948       -25.7678
  14   1.0000      -0.846962       -23.0470
  15   1.0000      -0.843319       -22.9479
  16   1.0000      -0.791618       -21.5410
  17   1.0000      -0.733073       -19.9479
  18   1.0000      -0.728336       -19.8190
  19   1.0000      -0.686039       -18.6681
  20   1.0000      -0.682952       -18.5841
  21   1.0000      -0.667891       -18.1742
  22   1.0000      -0.553451       -15.0602
  23   1.0000      -0.503186       -13.6924
  24   1.0000      -0.435978       -11.8636
  25   0.0000       0.049960         1.3595
  26   0.0000       0.074421         2.0251
  27   0.0000       0.080937         2.2024
  28   0.0000       0.085681         2.3315
  29   0.0000       0.094521         2.5721

                 SPIN DOWN ORBITALS
  NO   OCC          E(Eh)            E(eV)
   0   1.0000     -92.019813     -2503.9864
   1   1.0000     -26.362301      -717.3547
   2   1.0000     -26.358280      -717.2453
   3   1.0000     -26.358256      -717.2446
   4   1.0000     -11.551175      -314.3234
   5   1.0000      -9.019892      -245.4437
   6   1.0000      -6.702105      -182.3736
   7   1.0000      -6.699830      -182.3116
   8   1.0000      -6.683718      -181.8732
   9   1.0000      -1.751738       -47.6672
  10   1.0000      -1.656553       -45.0771
  11   1.0000      -1.653506       -44.9942
  12   1.0000      -1.043175       -28.3862
  13   1.0000      -0.919347       -25.0167
  14   1.0000      -0.843130       -22.9427
  15   1.0000      -0.843100       -22.9419
  16   1.0000      -0.762249       -20.7418
  17   1.0000      -0.727720       -19.8023
  18   1.0000      -0.726677       -19.7739
  19   1.0000      -0.683656       -18.6032
  20   1.0000      -0.682427       -18.5698
  21   1.0000      -0.666941       -18.1484
  22   1.0000      -0.540398       -14.7050
  23   1.0000      -0.415507       -11.3065
  24   0.0000      -0.026354        -0.7171
  25   0.0000       0.051703         1.4069
  26   0.0000       0.074671         2.0319
  27   0.0000       0.086083         2.3424
  28   0.0000       0.090140         2.4528

MULLIKEN ATOMIC CHARGES AND SPIN POPULATIONS
--------------------------------------------
   0 S :   -0.109503    1.064583
   1 C :    1.093333   -0.061648
   2 F :   -0.331631    0.000679
   3 F :   -0.326101   -0.001806
   4 F :   -0.326098   -0.001808
Sum of atomic charges         :   -0.0000000

LOEWDIN ATOMIC CHARGES AND SPIN POPULATIONS
-------------------------------------------
   0 S :    0.846311    0.820111
   1 C :   -2.089899    0.146521
   2 F :    0.414097    0.023117
   3 F :    0.414746    0.005131
   4 F :    0.414745    0.005120

  Mayer bond orders larger than 0.100000
B(  0-S ,  1-C ) :   1.0377 B(  1-C ,  2-F ) :   0.8355 B(  1-C ,  3-F ) :   0.8477
B(  1-C ,  4-F ) :   0.8477

MP2 TOTAL ENERGY:     -734.909738839 Eh
FINAL SINGLE POINT ENERGY      -734.909738839338

DIPOLE MOMENT
-------------
                                X             Y             Z
Electronic contribution:      1.64703       0.03288      -0.00007
Nuclear contribution   :     -2.13051      -0.06595       0.00011
                        -----------------------------------------
Total Dipole Moment    :     -0.48347      -0.03307       0.00004
                        -----------------------------------------
Magnitude (a.u.)       :      0.48460
Magnitude (Debye)      :      1.23177

Rotational constants in cm-1:     0.190521     0.110607     0.109991
Rotational constants in MHz :  5711.670592  3315.903646  3297.456055

                             ****ORCA TERMINATED NORMALLY****
TOTAL RUN TIME: 0 days 0 hours 0 minutes 23 seconds 301 msec
