                         Program Version 4.2.1 -  RELEASE  -
|  1> %pal
|  2>  nprocs 32
|  3> end
|  4> !RI-MP2 aug-cc-pVTZ aug-cc-pVTZ/C TightSCF
|  5> %maxcore 4500
|  6> *xyzfile 0 2  06_23P.xyz
|  7>
|  8>
|  9>                          ****END OF INPUT****

CARTESIAN COORDINATES (ANGSTROEM)
---------------------------------
  Si    -3.281658    0.111974   -0.099859
  C     -2.082325    1.550439   -0.324742
  C     -2.078071    2.573480    0.815639
  C     -3.261552   -0.943366   -1.660705
  C     -4.179501   -2.169111   -1.616519
  C     -5.021161    0.771455    0.221366
  C     -5.574873    1.664622   -0.894079
  C     -2.753971   -0.956729    1.387059
  C     -1.423291   -1.575369    1.183518
  C     -0.154609   -0.906034    1.586162
  C      0.978570   -1.069054    0.571770
  C      3.402009   -0.546691   -0.012434
  C      2.273704   -0.390186    1.000550
  C      4.697480    0.135821    0.411912
  C      5.825789   -0.022117   -0.600855
  C      7.122198    0.661100   -0.178729
  C      8.242967    0.495837   -1.198737
  H     -1.076983    1.140152   -0.464719
  H     -2.326694    2.051272   -1.267996
  H     -1.821758    2.111030    1.772256
  H     -1.355247    3.373666    0.639171
  H     -3.058152    3.041675    0.936598
  H     -2.228427   -1.258376   -1.840755
  H     -3.529916   -0.307650   -2.511481
  H     -4.131795   -2.744741   -2.543983
  H     -3.905996   -2.844373   -0.801706
  H     -5.223830   -1.883858   -1.464957
  H     -5.014006    1.320577    1.169123
  H     -5.690714   -0.080131    0.383253
  H     -4.943991    2.542742   -1.055002
  H     -5.631826    1.128710   -1.845013
  H     -6.580413    2.025174   -0.664061
  H     -0.337894    0.160775    1.757121
  H      0.192102   -1.298665    2.556267
  H      1.161802   -2.137013    0.407450
  H      0.656519   -0.664988   -0.394490
  H      3.079277   -0.141431   -0.978758
  H      3.592703   -1.613361   -0.179633
  H      2.594171   -0.797278    1.966809
  H      2.083900    0.676669    1.168862
  H      4.506736    1.202735    0.577906
  H      5.019721   -0.268542    1.378789
  H      6.017511   -1.089035   -0.766572
  H      5.503701    0.381346   -1.568345
  H      6.929879    1.726892   -0.014056
  H      7.443110    0.257652    0.787841
  H      9.159123    0.993468   -0.873572
  H      8.476707   -0.560290   -1.358016
  H      7.959642    0.919570   -2.165997
  H     -1.360675   -2.543662    0.697277
  H     -2.764013   -0.318255    2.278814
  H     -3.531257   -1.714671    1.532539

 Total Charge           Charge          ....    0
 Multiplicity           Mult            ....    2
 Number of Electrons    NEL             ....  145
 Basis Dimension        Dim             .... 1591

ORBITAL ENERGIES
----------------
                 SPIN UP ORBITALS
  NO   OCC          E(Eh)            E(eV)
   0   1.0000     -68.739005     -1870.4834
   1   1.0000     -11.217302      -305.2383
   2   1.0000     -11.214665      -305.1665
   3   1.0000     -11.214222      -305.1545
   4   1.0000     -11.214054      -305.1499
   5   1.0000     -11.213765      -305.1420
   6   1.0000     -11.213589      -305.1373
   7   1.0000     -11.213387      -305.1318
   8   1.0000     -11.212010      -305.0943
   9   1.0000     -11.211662      -305.0848
  10   1.0000     -11.211308      -305.0752
  11   1.0000     -11.210913      -305.0644
  12   1.0000     -11.208439      -304.9971
  13   1.0000     -11.197637      -304.7032
  14   1.0000     -11.197317      -304.6945
  15   1.0000     -11.197075      -304.6879
  16   1.0000     -11.196090      -304.6611
  17   1.0000      -6.087656      -165.6535
  18   1.0000      -4.194355      -114.1342
  19   1.0000      -4.193292      -114.1053
  20   1.0000      -4.193256      -114.1043
  21   1.0000      -1.097307       -29.8592
  22   1.0000      -1.078059       -29.3355
  23   1.0000      -1.045349       -28.4454
  24   1.0000      -1.026907       -27.9436
  25   1.0000      -1.008486       -27.4423
  26   1.0000      -1.004357       -27.3299
  27   1.0000      -0.996179       -27.1074
  28   1.0000      -0.943445       -25.6724
  29   1.0000      -0.885160       -24.0864
  30   1.0000      -0.852722       -23.2037
  31   1.0000      -0.834864       -22.7178
  32   1.0000      -0.821847       -22.3636
  33   1.0000      -0.820579       -22.3291
  34   1.0000      -0.785739       -21.3810
  35   1.0000      -0.784534       -21.3483
  36   1.0000      -0.772505       -21.0209
  37   1.0000      -0.658824       -17.9275
  38   1.0000      -0.640195       -17.4206
  39   1.0000      -0.639014       -17.3884
  40   1.0000      -0.614613       -16.7245
  41   1.0000      -0.612022       -16.6540
  42   1.0000      -0.609551       -16.5867
  43   1.0000      -0.592299       -16.1173
  44   1.0000      -0.589083       -16.0298
  45   1.0000      -0.581835       -15.8325
  46   1.0000      -0.574025       -15.6200
  47   1.0000      -0.567848       -15.4519
  48   1.0000      -0.564974       -15.3737
  49   1.0000      -0.559163       -15.2156
  50   1.0000      -0.545913       -14.8550
  51   1.0000      -0.537947       -14.6383
  52   1.0000      -0.534387       -14.5414
  53   1.0000      -0.519558       -14.1379
  54   1.0000      -0.513818       -13.9817
  55   1.0000      -0.504378       -13.7248
  56   1.0000      -0.501465       -13.6455
  57   1.0000      -0.496699       -13.5159
  58   1.0000      -0.494136       -13.4461
  59   1.0000      -0.488650       -13.2968
  60   1.0000      -0.486135       -13.2284
  61   1.0000      -0.484348       -13.1798
  62   1.0000      -0.476434       -12.9644
  63   1.0000      -0.471433       -12.8284
  64   1.0000      -0.466591       -12.6966
  65   1.0000      -0.459231       -12.4963
  66   1.0000      -0.456631       -12.4256
  67   1.0000      -0.456437       -12.4203
  68   1.0000      -0.442982       -12.0542
  69   1.0000      -0.422657       -11.5011
  70   1.0000      -0.396975       -10.8022
  71   1.0000      -0.396463       -10.7883
  72   1.0000      -0.291816        -7.9407
  73   0.0000       0.024640         0.6705
  74   0.0000       0.027812         0.7568
  75   0.0000       0.029574         0.8048
  76   0.0000       0.030748         0.8367
  77   0.0000       0.034631         0.9424

                 SPIN DOWN ORBITALS
  NO   OCC          E(Eh)            E(eV)
   0   1.0000     -68.738274     -1870.4635
   1   1.0000     -11.217148      -305.2341
   2   1.0000     -11.214650      -305.1661
   3   1.0000     -11.214176      -305.1532
   4   1.0000     -11.213764      -305.1420
   5   1.0000     -11.213580      -305.1370
   6   1.0000     -11.212532      -305.1085
   7   1.0000     -11.211956      -305.0928
   8   1.0000     -11.211617      -305.0836
   9   1.0000     -11.211286      -305.0746
  10   1.0000     -11.210904      -305.0642
  11   1.0000     -11.208439      -304.9971
  12   1.0000     -11.200340      -304.7767
  13   1.0000     -11.197374      -304.6960
  14   1.0000     -11.196774      -304.6797
  15   1.0000     -11.196117      -304.6618
  16   1.0000     -11.193454      -304.5894
  17   1.0000      -6.086501      -165.6221
  18   1.0000      -4.192898      -114.0946
  19   1.0000      -4.192701      -114.0892
  20   1.0000      -4.191894      -114.0672
  21   1.0000      -1.093563       -29.7574
  22   1.0000      -1.068225       -29.0679
  23   1.0000      -1.034416       -28.1479
  24   1.0000      -1.023755       -27.8578
  25   1.0000      -1.008382       -27.4395
  26   1.0000      -1.003984       -27.3198
  27   1.0000      -0.984835       -26.7987
  28   1.0000      -0.942148       -25.6372
  29   1.0000      -0.882172       -24.0051
  30   1.0000      -0.851624       -23.1739
  31   1.0000      -0.833247       -22.6738
  32   1.0000      -0.821711       -22.3599
  33   1.0000      -0.816377       -22.2147
  34   1.0000      -0.785126       -21.3644
  35   1.0000      -0.783178       -21.3114
  36   1.0000      -0.735075       -20.0024
  37   1.0000      -0.657285       -17.8856
  38   1.0000      -0.636632       -17.3236
  39   1.0000      -0.632334       -17.2067
  40   1.0000      -0.611900       -16.6506
  41   1.0000      -0.610356       -16.6086
  42   1.0000      -0.606737       -16.5102
  43   1.0000      -0.590595       -16.0709
  44   1.0000      -0.587667       -15.9912
  45   1.0000      -0.578709       -15.7475
  46   1.0000      -0.571426       -15.5493
  47   1.0000      -0.566595       -15.4178
  48   1.0000      -0.564490       -15.3606
  49   1.0000      -0.552405       -15.0317
  50   1.0000      -0.537761       -14.6332
  51   1.0000      -0.535474       -14.5710
  52   1.0000      -0.532868       -14.5001
  53   1.0000      -0.516569       -14.0566
  54   1.0000      -0.509963       -13.8768
  55   1.0000      -0.503605       -13.7038
  56   1.0000      -0.496855       -13.5201
  57   1.0000      -0.496298       -13.5050
  58   1.0000      -0.493078       -13.4173
  59   1.0000      -0.488260       -13.2862
  60   1.0000      -0.483426       -13.1547
  61   1.0000      -0.481734       -13.1086
  62   1.0000      -0.475592       -12.9415
  63   1.0000      -0.468400       -12.7458
  64   1.0000      -0.464655       -12.6439
  65   1.0000      -0.457708       -12.4549
  66   1.0000      -0.456530       -12.4228
  67   1.0000      -0.456133       -12.4120
  68   1.0000      -0.429799       -11.6954
  69   1.0000      -0.408161       -11.1066
  70   1.0000      -0.396843       -10.7986
  71   1.0000      -0.394742       -10.7415
  72   0.0000       0.024663         0.6711
  73   0.0000       0.027827         0.7572
  74   0.0000       0.029611         0.8057
  75   0.0000       0.030843         0.8393
  76   0.0000       0.034654         0.9430

MULLIKEN ATOMIC CHARGES AND SPIN POPULATIONS
--------------------------------------------
   0 Si:    2.097909    0.069619
   1 C :   -0.658049    0.002851
   2 C :   -1.173646    0.000155
   3 C :   -0.696982   -0.002182
   4 C :   -1.181922   -0.000953
   5 C :   -0.773133    0.012496
   6 C :   -1.170418    0.000907
   7 C :   -0.239856   -0.254128
   8 C :   -1.079121    1.434431
   9 C :   -0.094960   -0.245983
  10 C :   -0.487525    0.063986
  11 C :   -0.277480    0.001526
  12 C :   -0.293581    0.009740
  13 C :   -0.319371    0.000392
  14 C :   -0.261847    0.000204
  15 C :   -0.512005    0.000041
  16 C :   -1.005733    0.000022
  17 H :    0.344484    0.002353
  18 H :    0.163548   -0.002185
  19 H :    0.307543   -0.000290
  20 H :    0.280575   -0.000017
  21 H :    0.243520    0.000241
  22 H :    0.314549   -0.011745
  23 H :    0.143600    0.000138
  24 H :    0.260478    0.000289
  25 H :    0.307631   -0.000565
  26 H :    0.284904   -0.000016
  27 H :    0.238442   -0.001750
  28 H :    0.240846   -0.002365
  29 H :    0.301256   -0.001028
  30 H :    0.251583   -0.000287
  31 H :    0.268711    0.002282
  32 H :    0.139160   -0.010387
  33 H :    0.376114    0.104509
  34 H :    0.208876   -0.001946
  35 H :    0.218795    0.008944
  36 H :    0.194968    0.000319
  37 H :    0.201488    0.000074
  38 H :    0.146810   -0.001169
  39 H :    0.224250   -0.000516
  40 H :    0.203434   -0.000017
  41 H :    0.212113    0.000069
  42 H :    0.223942   -0.000002
  43 H :    0.210461   -0.000025
  44 H :    0.212516    0.000000
  45 H :    0.211939    0.000000
  46 H :    0.273699   -0.000003
  47 H :    0.256434    0.000007
  48 H :    0.257574    0.000006
  49 H :    0.085200   -0.274661
  50 H :    0.108599    0.017585
  51 H :    0.209675    0.079035
Sum of atomic charges         :    0.0000000

LOEWDIN ATOMIC CHARGES AND SPIN POPULATIONS
-------------------------------------------
   0 Si:    0.538913    0.035389
   1 C :    0.284573    0.001558
   2 C :    0.528894    0.000305
   3 C :    0.279101    0.003294
   4 C :    0.525860    0.000256
   5 C :    0.277867    0.008539
   6 C :    0.524438    0.002049
   7 C :    0.275936    0.120113
   8 C :    0.230529    0.530416
   9 C :    0.240722    0.109678
  10 C :    0.266657    0.015006
  11 C :    0.275202    0.000365
  12 C :    0.276523    0.003322
  13 C :    0.272487    0.000192
  14 C :    0.263486    0.000038
  15 C :    0.251161    0.000012
  16 C :    0.574617    0.000005
  17 H :   -0.216454    0.000547
  18 H :   -0.199222    0.000226
  19 H :   -0.181283    0.000238
  20 H :   -0.167959    0.000001
  21 H :   -0.177241    0.000077
  22 H :   -0.202344    0.002552
  23 H :   -0.203744    0.000095
  24 H :   -0.170699   -0.000016
  25 H :   -0.177568   -0.000041
  26 H :   -0.176466    0.000046
  27 H :   -0.203641   -0.000007
  28 H :   -0.204514   -0.000013
  29 H :   -0.177674    0.000112
  30 H :   -0.176473    0.000127
  31 H :   -0.170618    0.000698
  32 H :   -0.170766    0.003744
  33 H :   -0.136932    0.027983
  34 H :   -0.137079   -0.000026
  35 H :   -0.145686    0.004139
  36 H :   -0.136846    0.000025
  37 H :   -0.136690    0.000021
  38 H :   -0.136333    0.000652
  39 H :   -0.135839    0.000142
  40 H :   -0.137459   -0.000005
  41 H :   -0.137376    0.000026
  42 H :   -0.139111   -0.000001
  43 H :   -0.139098   -0.000002
  44 H :   -0.146104    0.000001
  45 H :   -0.146097   -0.000000
  46 H :   -0.173244    0.000001
  47 H :   -0.170537    0.000000
  48 H :   -0.170526    0.000000
  49 H :   -0.176170    0.105374
  50 H :   -0.201889    0.011858
  51 H :   -0.207281    0.010891

  Mayer bond orders larger than 0.100000
B(  0-Si,  1-C ) :   0.5800 B(  0-Si,  3-C ) :   0.4156 B(  0-Si,  5-C ) :   0.8291
B(  0-Si,  7-C ) :   0.4540 B(  0-Si,  8-C ) :   0.3905 B(  0-Si, 17-H ) :   0.1146
B(  0-Si, 49-H ) :   0.1019 B(  1-C ,  2-C ) :   0.9276 B(  1-C ,  3-C ) :   0.1081
B(  1-C ,  7-C ) :   0.1467 B(  1-C , 17-H ) :   0.8391 B(  1-C , 18-H ) :   1.0252
B(  2-C , 19-H ) :   0.9639 B(  2-C , 20-H ) :   0.9833 B(  2-C , 21-H ) :   1.0122
B(  3-C ,  4-C ) :   0.9686 B(  3-C ,  5-C ) :   0.1443 B(  3-C ,  7-C ) :   0.1400
B(  3-C , 22-H ) :   0.9174 B(  3-C , 23-H ) :   1.0484 B(  4-C , 24-H ) :   1.0112
B(  4-C , 25-H ) :   0.9482 B(  4-C , 26-H ) :   0.9655 B(  5-C ,  6-C ) :   0.9817
B(  5-C , 27-H ) :   0.9803 B(  5-C , 28-H ) :   0.9595 B(  6-C , 29-H ) :   0.9528
B(  6-C , 30-H ) :   0.9924 B(  6-C , 31-H ) :   1.0053 B(  7-C ,  8-C ) :   0.8183
B(  7-C , 50-H ) :   1.0449 B(  7-C , 51-H ) :   1.0648 B(  8-C ,  9-C ) :   0.5275
B(  8-C , 32-H ) :   0.1632 B(  8-C , 33-H ) :  -0.1760 B(  8-C , 49-H ) :   1.1978
B(  8-C , 51-H ) :  -0.1468 B(  9-C , 10-C ) :   0.9102 B(  9-C , 32-H ) :   1.0653
B(  9-C , 33-H ) :   0.8732 B( 10-C , 12-C ) :   0.9861 B( 10-C , 32-H ) :   0.1424
B( 10-C , 34-H ) :   0.9456 B( 10-C , 35-H ) :   1.0170 B( 10-C , 38-H ) :   0.1186
B( 11-C , 12-C ) :   0.9453 B( 11-C , 13-C ) :   0.9603 B( 11-C , 14-C ) :  -0.1153
B( 11-C , 36-H ) :   0.9523 B( 11-C , 37-H ) :   0.9462 B( 12-C , 38-H ) :   0.9838
B( 12-C , 39-H ) :   0.9710 B( 13-C , 14-C ) :   0.9657 B( 13-C , 15-C ) :  -0.1291
B( 13-C , 40-H ) :   0.9674 B( 13-C , 41-H ) :   0.9607 B( 14-C , 15-C ) :   0.9160
B( 14-C , 16-C ) :  -0.1175 B( 14-C , 42-H ) :   0.9625 B( 14-C , 43-H ) :   0.9768
B( 15-C , 16-C ) :   0.9307 B( 15-C , 44-H ) :   0.9878 B( 15-C , 45-H ) :   0.9867
B( 16-C , 46-H ) :   0.9969 B( 16-C , 47-H ) :   0.9783 B( 16-C , 48-H ) :   0.9775

MP2 TOTAL ENERGY:     -918.393703272 Eh
FINAL SINGLE POINT ENERGY      -918.393703271532

DIPOLE MOMENT
-------------
                                X             Y             Z
Electronic contribution:    -10.73325      -2.90692       2.90213
Nuclear contribution   :     10.72292       2.96358      -2.92307
                        -----------------------------------------
Total Dipole Moment    :     -0.01033       0.05666      -0.02094
                        -----------------------------------------
Magnitude (a.u.)       :      0.06128
Magnitude (Debye)      :      0.15577

Rotational constants in cm-1:     0.025841     0.003467     0.003380
Rotational constants in MHz :   774.705406   103.927978   101.324843

                             ****ORCA TERMINATED NORMALLY****
TOTAL RUN TIME: 0 days 1 hours 29 minutes 35 seconds 762 msec
