                         Program Version 4.2.1 -  RELEASE  -
|  1> %pal
|  2>  nprocs 32
|  3> end
|  4> !RI-MP2 aug-cc-pVTZ aug-cc-pVTZ/C TightSCF
|  5> %maxcore 4500
|  6> *xyzfile 0 1  08_3P1.xyz
|  7>
|  8>
|  9>                          ****END OF INPUT****

CARTESIAN COORDINATES (ANGSTROEM)
---------------------------------
  C     -0.000002    0.530601   -0.000010
  O     -1.161577   -0.247387    0.095194
  O      1.161563   -0.247401   -0.095195
  H      1.246720   -0.770069    0.708473
  H     -0.001612    1.157495   -0.894718
  H      0.001610    1.157513    0.894685
  H     -1.246600   -0.770237   -0.708370

 Total Charge           Charge          ....    0
 Multiplicity           Mult            ....    1
 Number of Electrons    NEL             ....   26
 Basis Dimension        Dim             ....  230

ORBITAL ENERGIES
----------------

  NO   OCC          E(Eh)            E(eV)
   0   2.0000     -20.570806      -559.7601
   1   2.0000     -20.570785      -559.7595
   2   2.0000     -11.334066      -308.4156
   3   2.0000      -1.414945       -38.5026
   4   2.0000      -1.339353       -36.4456
   5   2.0000      -0.916318       -24.9343
   6   2.0000      -0.753778       -20.5114
   7   2.0000      -0.661422       -17.9982
   8   2.0000      -0.646072       -17.5805
   9   2.0000      -0.616976       -16.7888
  10   2.0000      -0.502818       -13.6824
  11   2.0000      -0.499933       -13.6039
  12   2.0000      -0.468431       -12.7467
  13   0.0000       0.029835         0.8119
  14   0.0000       0.040148         1.0925
  15   0.0000       0.043254         1.1770
  16   0.0000       0.055308         1.5050
  17   0.0000       0.094937         2.5834

MULLIKEN ATOMIC CHARGES
-----------------------
   0 C :   -0.059727
   1 O :   -0.522573
   2 O :   -0.522570
   3 H :    0.184352
   4 H :    0.368077
   5 H :    0.368099
   6 H :    0.184341
Sum of atomic charges:   -0.0000000

LOEWDIN ATOMIC CHARGES
----------------------
   0 C :   -0.235162
   1 O :    0.792619
   2 O :    0.792622
   3 H :   -0.495997
   4 H :   -0.179040
   5 H :   -0.179040
   6 H :   -0.496003

  Mayer bond orders larger than 0.100000
B(  0-C ,  1-O ) :   0.8319 B(  0-C ,  2-O ) :   0.8319 B(  0-C ,  4-H ) :   0.8696
B(  0-C ,  5-H ) :   0.8696 B(  1-O ,  6-H ) :   0.9811 B(  2-O ,  3-H ) :   0.9811

MP2 TOTAL ENERGY:     -190.667894732 Eh
FINAL SINGLE POINT ENERGY      -190.667894732130

DIPOLE MOMENT
-------------
                                X             Y             Z
Electronic contribution:     -0.00002      -0.79831      -0.00000
Nuclear contribution   :      0.00012       0.77950       0.00007
                        -----------------------------------------
Total Dipole Moment    :      0.00010      -0.01881       0.00007
                        -----------------------------------------
Magnitude (a.u.)       :      0.01881
Magnitude (Debye)      :      0.04781

Rotational constants in cm-1:     1.396733     0.342483     0.303185
Rotational constants in MHz : 41873.013360 10267.383305  9089.253709

                             ****ORCA TERMINATED NORMALLY****
TOTAL RUN TIME: 0 days 0 hours 0 minutes 14 seconds 219 msec
