                         Program Version 4.2.1 -  RELEASE  -
|  1> %pal
|  2>  nprocs 32
|  3> end
|  4> !RI-MP2 aug-cc-pVTZ aug-cc-pVTZ/C TightSCF
|  5> %maxcore 4500
|  6> *xyzfile 0 1  04_58P2.xyz
|  7>
|  8>
|  9>                          ****END OF INPUT****

CARTESIAN COORDINATES (ANGSTROEM)
---------------------------------
  C      2.891384    0.892132    0.000090
  C      1.814419   -0.164658    0.000013
  O      2.067689   -1.355028    0.000108
  N      0.534937    0.289415   -0.000130
  H      0.317297    1.274422   -0.000082
  C     -0.571674   -0.628335   -0.000059
  C     -1.860835    0.143175   -0.000029
  H     -0.549821   -1.285941   -0.873926
  H     -0.549755   -1.285882    0.873854
  O     -1.946548    1.342067    0.000016
  O     -2.923680   -0.670600   -0.000050
  H     -3.719469   -0.119916   -0.000014
  H      2.499564    1.909545   -0.000452
  H      3.519474    0.747907   -0.879372
  H      3.518697    0.748571    0.880222

 Total Charge           Charge          ....    0
 Multiplicity           Mult            ....    1
 Number of Electrons    NEL             ....   62
 Basis Dimension        Dim             ....  529

ORBITAL ENERGIES
----------------

  NO   OCC          E(Eh)            E(eV)
   0   2.0000     -20.632672      -561.4436
   1   2.0000     -20.571189      -559.7705
   2   2.0000     -20.519348      -558.3598
   3   2.0000     -15.593181      -424.3120
   4   2.0000     -11.406691      -310.3918
   5   2.0000     -11.353129      -308.9343
   6   2.0000     -11.294163      -307.3298
   7   2.0000     -11.239339      -305.8380
   8   2.0000      -1.491496       -40.5857
   9   2.0000      -1.390455       -37.8362
  10   2.0000      -1.385471       -37.7006
  11   2.0000      -1.244697       -33.8699
  12   2.0000      -1.045483       -28.4490
  13   2.0000      -0.984964       -26.8022
  14   2.0000      -0.846806       -23.0428
  15   2.0000      -0.806089       -21.9348
  16   2.0000      -0.730136       -19.8680
  17   2.0000      -0.717904       -19.5352
  18   2.0000      -0.686820       -18.6893
  19   2.0000      -0.664707       -18.0876
  20   2.0000      -0.661489       -18.0000
  21   2.0000      -0.629040       -17.1171
  22   2.0000      -0.597246       -16.2519
  23   2.0000      -0.589221       -16.0335
  24   2.0000      -0.580902       -15.8071
  25   2.0000      -0.560462       -15.2509
  26   2.0000      -0.512216       -13.9381
  27   2.0000      -0.504605       -13.7310
  28   2.0000      -0.479523       -13.0485
  29   2.0000      -0.429028       -11.6744
  30   2.0000      -0.404306       -11.0017
  31   0.0000       0.024713         0.6725
  32   0.0000       0.029830         0.8117
  33   0.0000       0.041884         1.1397
  34   0.0000       0.045760         1.2452
  35   0.0000       0.049812         1.3555

MULLIKEN ATOMIC CHARGES
-----------------------
   0 C :   -0.645332
   1 C :    0.301437
   2 O :   -0.851058
   3 N :   -0.113027
   4 H :    0.174341
   5 C :    0.129528
   6 C :    0.432083
   7 H :    0.313521
   8 H :    0.313515
   9 O :   -0.760872
  10 O :   -0.447126
  11 H :    0.270342
  12 H :    0.306851
  13 H :    0.287912
  14 H :    0.287884
Sum of atomic charges:    0.0000000

LOEWDIN ATOMIC CHARGES
----------------------
   0 C :    0.598402
   1 C :   -0.687375
   2 O :    0.441101
   3 N :    0.536646
   4 H :   -0.330025
   5 C :    0.167155
   6 C :   -0.780063
   7 H :   -0.140797
   8 H :   -0.140799
   9 O :    0.474925
  10 O :    0.845618
  11 H :   -0.459919
  12 H :   -0.182652
  13 H :   -0.171116
  14 H :   -0.171102

  Mayer bond orders larger than 0.100000
B(  0-C ,  1-C ) :   0.5161 B(  0-C ,  2-O ) :  -0.1343 B(  0-C , 12-H ) :   0.9185
B(  0-C , 13-H ) :   0.9797 B(  0-C , 14-H ) :   0.9796 B(  1-C ,  2-O ) :   1.4928
B(  1-C ,  3-N ) :   1.0870 B(  1-C ,  5-C ) :  -0.1442 B(  3-N ,  4-H ) :   0.9810
B(  3-N ,  5-C ) :   0.6986 B(  5-C ,  6-C ) :   0.5733 B(  5-C ,  7-H ) :   0.9165
B(  5-C ,  8-H ) :   0.9165 B(  5-C ,  9-O ) :   0.1165 B(  6-C ,  9-O ) :   1.3717
B(  6-C , 10-O ) :   0.9981 B( 10-O , 11-H ) :   0.9514

MP2 TOTAL ENERGY:     -436.383585005 Eh
FINAL SINGLE POINT ENERGY      -436.383585005207

DIPOLE MOMENT
-------------
                                X             Y             Z
Electronic contribution:     -5.61369      -1.19892      -0.00024
Nuclear contribution   :      4.96665       1.96841       0.00023
                        -----------------------------------------
Total Dipole Moment    :     -0.64704       0.76949      -0.00001
                        -----------------------------------------
Magnitude (a.u.)       :      1.00538
Magnitude (Debye)      :      2.55547

Rotational constants in cm-1:     0.179482     0.033419     0.028468
Rotational constants in MHz :  5380.736430  1001.872796   853.453037

                             ****ORCA TERMINATED NORMALLY****
TOTAL RUN TIME: 0 days 0 hours 2 minutes 8 seconds 22 msec
