                         Program Version 4.2.1 -  RELEASE  -
|  1> %pal
|  2>  nprocs 32
|  3> end
|  4> !RI-MP2 aug-cc-pVTZ aug-cc-pVTZ/C TightSCF
|  5> %maxcore 4500
|  6> *xyzfile 0 1  10_41P.xyz
|  7>
|  8>
|  9>                          ****END OF INPUT****

CARTESIAN COORDINATES (ANGSTROEM)
---------------------------------
  C      0.816628   -1.766343   -0.641377
  H      0.722850   -2.047449   -1.711449
  C      1.868989   -0.710591   -0.507442
  C      0.145947    0.964885    0.060832
  H     -0.066658    1.069435    1.130265
  H     -0.019659    1.945752   -0.386938
  C     -0.838350   -0.037121   -0.542265
  H     -0.738247    0.014900   -1.644839
  N     -0.460375   -1.368028   -0.085473
  C      2.662628    1.537675    0.003747
  C      3.288044   -1.099419   -0.822526
  C      3.928061    1.118277    0.090154
  C      4.292191   -0.343104    0.048521
  C      1.574959    0.545487   -0.159318
  C      4.364148   -0.911969    1.471299
  H      4.678991   -1.959117    1.458042
  H      5.077211   -0.351541    2.079656
  H      3.387892   -0.851900    1.957548
  C     -1.486087   -2.366948   -0.307918
  H     -1.783877   -2.411550   -1.371984
  H     -1.075273   -3.344829   -0.046994
  C     -2.276557    0.307329   -0.203814
  C     -3.151867   -0.637907    0.330125
  C     -2.689602   -2.052237    0.558701
  H     -2.412745   -2.188083    1.608595
  H     -3.505282   -2.747409    0.343808
  H      1.149319   -2.669271   -0.118470
  C     -4.462797   -0.267585    0.625079
  H     -5.137151   -1.010376    1.038297
  C     -2.748252    1.595625   -0.457204
  H     -2.086009    2.331373   -0.897845
  C     -4.915744    1.018486    0.390450
  H     -5.938638    1.287425    0.624916
  C     -4.051898    1.955246   -0.162790
  H     -4.394763    2.962332   -0.367335
  C      2.311662    2.995952    0.101238
  H      1.635506    3.192247    0.937672
  H      1.810453    3.348322   -0.805028
  H      3.209461    3.597594    0.243981
  H      3.484839   -0.877640   -1.879840
  H      3.426048   -2.178134   -0.700881
  H      5.281395   -0.446827   -0.406767
  H      4.724349    1.836516    0.260945

 Total Charge           Charge          ....    0
 Multiplicity           Mult            ....    1
 Number of Electrons    NEL             ....  144
 Basis Dimension        Dim             .... 1449

ORBITAL ENERGIES
----------------

  NO   OCC          E(Eh)            E(eV)
   0   2.0000     -15.544987      -423.0006
   1   2.0000     -11.258724      -306.3654
   2   2.0000     -11.251353      -306.1649
   3   2.0000     -11.248015      -306.0740
   4   2.0000     -11.233707      -305.6847
   5   2.0000     -11.232486      -305.6515
   6   2.0000     -11.227872      -305.5259
   7   2.0000     -11.227341      -305.5115
   8   2.0000     -11.227176      -305.5070
   9   2.0000     -11.226121      -305.4783
  10   2.0000     -11.225961      -305.4739
  11   2.0000     -11.225315      -305.4563
  12   2.0000     -11.222832      -305.3888
  13   2.0000     -11.222640      -305.3836
  14   2.0000     -11.220036      -305.3127
  15   2.0000     -11.219760      -305.3052
  16   2.0000     -11.218829      -305.2799
  17   2.0000     -11.216924      -305.2280
  18   2.0000     -11.211694      -305.0857
  19   2.0000     -11.207557      -304.9731
  20   2.0000      -1.252477       -34.0816
  21   2.0000      -1.156261       -31.4635
  22   2.0000      -1.143883       -31.1266
  23   2.0000      -1.075898       -29.2767
  24   2.0000      -1.061575       -28.8869
  25   2.0000      -1.041096       -28.3297
  26   2.0000      -1.035392       -28.1744
  27   2.0000      -0.992379       -27.0040
  28   2.0000      -0.973729       -26.4965
  29   2.0000      -0.928934       -25.2776
  30   2.0000      -0.924391       -25.1540
  31   2.0000      -0.880406       -23.9571
  32   2.0000      -0.860403       -23.4127
  33   2.0000      -0.840975       -22.8841
  34   2.0000      -0.809635       -22.0313
  35   2.0000      -0.793861       -21.6021
  36   2.0000      -0.762303       -20.7433
  37   2.0000      -0.740181       -20.1414
  38   2.0000      -0.692743       -18.8505
  39   2.0000      -0.667920       -18.1750
  40   2.0000      -0.660876       -17.9834
  41   2.0000      -0.648743       -17.6532
  42   2.0000      -0.639935       -17.4135
  43   2.0000      -0.619048       -16.8452
  44   2.0000      -0.616064       -16.7640
  45   2.0000      -0.607610       -16.5339
  46   2.0000      -0.599821       -16.3220
  47   2.0000      -0.590213       -16.0605
  48   2.0000      -0.584599       -15.9077
  49   2.0000      -0.570120       -15.5138
  50   2.0000      -0.565757       -15.3950
  51   2.0000      -0.559301       -15.2194
  52   2.0000      -0.551088       -14.9959
  53   2.0000      -0.547896       -14.9090
  54   2.0000      -0.541512       -14.7353
  55   2.0000      -0.530034       -14.4230
  56   2.0000      -0.521849       -14.2002
  57   2.0000      -0.517059       -14.0699
  58   2.0000      -0.512242       -13.9388
  59   2.0000      -0.500400       -13.6166
  60   2.0000      -0.496362       -13.5067
  61   2.0000      -0.482463       -13.1285
  62   2.0000      -0.476961       -12.9788
  63   2.0000      -0.470407       -12.8004
  64   2.0000      -0.459458       -12.5025
  65   2.0000      -0.444636       -12.0992
  66   2.0000      -0.424334       -11.5467
  67   2.0000      -0.390366       -10.6224
  68   2.0000      -0.358511        -9.7556
  69   2.0000      -0.326638        -8.8883
  70   2.0000      -0.319606        -8.6969
  71   2.0000      -0.287718        -7.8292
  72   0.0000       0.025177         0.6851
  73   0.0000       0.028504         0.7756
  74   0.0000       0.028993         0.7889
  75   0.0000       0.033644         0.9155
  76   0.0000       0.036775         1.0007

MULLIKEN ATOMIC CHARGES
-----------------------
   0 C :   -0.774800
   1 H :    0.277814
   2 C :   -0.029906
   3 C :   -0.767035
   4 H :    0.293971
   5 H :    0.121252
   6 C :   -0.226682
   7 H :    0.111047
   8 N :   -0.362074
   9 C :    0.669734
  10 C :   -0.684083
  11 C :   -0.985737
  12 C :    0.373840
  13 C :    1.224359
  14 C :   -1.035591
  15 H :    0.223355
  16 H :    0.249314
  17 H :    0.329705
  18 C :   -0.738563
  19 H :    0.231294
  20 H :    0.368848
  21 C :    1.661943
  22 C :    1.036693
  23 C :   -0.565216
  24 H :    0.201872
  25 H :    0.222726
  26 H :    0.150334
  27 C :   -1.078692
  28 H :    0.017474
  29 C :   -1.160630
  30 H :    0.030220
  31 C :   -0.309999
  32 H :    0.658041
  33 C :   -0.624737
  34 H :    0.451359
  35 C :   -0.998552
  36 H :    0.241360
  37 H :    0.231234
  38 H :    0.225218
  39 H :    0.220948
  40 H :    0.290108
  41 H :    0.401128
  42 H :   -0.172894
Sum of atomic charges:   -0.0000000

LOEWDIN ATOMIC CHARGES
----------------------
   0 C :    0.169291
   1 H :   -0.110884
   2 C :   -0.032282
   3 C :    0.301259
   4 H :   -0.114518
   5 H :   -0.179654
   6 C :   -0.110011
   7 H :   -0.102795
   8 N :    0.315665
   9 C :   -0.073190
  10 C :    0.299487
  11 C :    0.261313
  12 C :   -0.039514
  13 C :   -0.024092
  14 C :    0.595560
  15 H :   -0.162014
  16 H :   -0.161367
  17 H :   -0.159300
  18 C :    0.165991
  19 H :   -0.114386
  20 H :   -0.136728
  21 C :   -0.039193
  22 C :   -0.068055
  23 C :    0.300114
  24 H :   -0.131558
  25 H :   -0.143296
  26 H :   -0.138991
  27 C :    0.221837
  28 H :   -0.173048
  29 C :    0.226939
  30 H :   -0.180277
  31 C :    0.198265
  32 H :   -0.183323
  33 C :    0.203521
  34 H :   -0.183119
  35 C :    0.573299
  36 H :   -0.163162
  37 H :   -0.162616
  38 H :   -0.175819
  39 H :   -0.124465
  40 H :   -0.142906
  41 H :   -0.134670
  42 H :   -0.167308

  Mayer bond orders larger than 0.100000
B(  0-C ,  1-H ) :   1.1094 B(  0-C ,  2-C ) :   0.6038 B(  0-C ,  8-N ) :   0.7620
B(  0-C ,  9-C ) :  -0.1975 B(  0-C , 20-H ) :  -0.1151 B(  0-C , 26-H ) :   1.3098
B(  1-H ,  2-C ) :  -0.2203 B(  1-H ,  8-N ) :  -0.1068 B(  2-C ,  5-H ) :   0.1025
B(  2-C ,  6-C ) :   0.1851 B(  2-C ,  8-N ) :  -0.1071 B(  2-C ,  9-C ) :   0.6211
B(  2-C , 10-C ) :   0.3609 B(  2-C , 11-C ) :   0.5232 B(  2-C , 12-C ) :   0.2082
B(  2-C , 13-C ) :   1.5524 B(  2-C , 26-H ) :  -0.1807 B(  2-C , 35-C ) :  -0.1027
B(  2-C , 39-H ) :  -0.1316 B(  2-C , 40-H ) :  -0.1533 B(  3-C ,  4-H ) :   1.0004
B(  3-C ,  5-H ) :   1.1974 B(  3-C ,  6-C ) :   0.8496 B(  3-C ,  8-N ) :   0.3097
B(  3-C ,  9-C ) :   0.3746 B(  3-C , 13-C ) :   0.2180 B(  3-C , 21-C ) :   0.1183
B(  3-C , 22-C ) :  -0.1330 B(  3-C , 29-C ) :   0.1027 B(  3-C , 35-C ) :  -0.1199
B(  4-H , 13-C ) :  -0.1239 B(  5-H , 42-H ) :  -0.1019 B(  6-C ,  7-H ) :   0.9956
B(  6-C ,  8-N ) :   0.7495 B(  6-C , 13-C ) :   0.1518 B(  6-C , 21-C ) :   0.7123
B(  6-C , 22-C ) :   0.5429 B(  6-C , 23-C ) :  -0.1314 B(  6-C , 29-C ) :   0.7710
B(  8-N , 13-C ) :  -0.2552 B(  8-N , 18-C ) :   1.0096 B(  8-N , 21-C ) :  -0.2486
B(  8-N , 22-C ) :  -0.1650 B(  8-N , 23-C ) :  -0.1072 B(  9-C , 11-C ) :   1.0321
B(  9-C , 12-C ) :   0.1932 B(  9-C , 36-H ) :  -0.2117 B(  9-C , 37-H ) :  -0.1741
B(  9-C , 42-H ) :  -0.2540 B( 10-C , 11-C ) :   0.3344 B( 10-C , 12-C ) :   1.0116
B( 10-C , 13-C ) :  -0.1801 B( 10-C , 14-C ) :   0.1192 B( 10-C , 39-H ) :   1.0714
B( 10-C , 40-H ) :   0.9812 B( 10-C , 41-H ) :  -0.1032 B( 11-C , 12-C ) :   0.5929
B( 11-C , 13-C ) :  -0.2675 B( 11-C , 14-C ) :   0.1038 B( 11-C , 41-H ) :  -0.2567
B( 11-C , 42-H ) :   1.7138 B( 12-C , 14-C ) :   0.6414 B( 12-C , 41-H ) :   0.9697
B( 13-C , 35-C ) :   0.4937 B( 13-C , 42-H ) :   0.2098 B( 14-C , 15-H ) :   1.0366
B( 14-C , 16-H ) :   1.0266 B( 14-C , 17-H ) :   0.9210 B( 18-C , 19-H ) :   1.0466
B( 18-C , 20-H ) :   0.8895 B( 18-C , 22-C ) :   0.1195 B( 18-C , 23-C ) :   1.0480
B( 21-C , 22-C ) :   0.7001 B( 21-C , 23-C ) :   0.2509 B( 21-C , 27-C ) :   0.4964
B( 21-C , 29-C ) :  -0.3714 B( 21-C , 30-H ) :  -0.1897 B( 21-C , 31-C ) :  -0.1415
B( 22-C , 24-H ) :  -0.1220 B( 22-C , 27-C ) :   0.4322 B( 22-C , 29-C ) :  -0.4018
B( 22-C , 31-C ) :   0.2336 B( 23-C , 24-H ) :   1.1203 B( 23-C , 25-H ) :   1.1170
B( 23-C , 27-C ) :   0.1446 B( 27-C , 28-H ) :   1.5911 B( 27-C , 31-C ) :   0.9130
B( 28-H , 31-C ) :  -0.1461 B( 29-C , 30-H ) :   1.5689 B( 29-C , 31-C ) :   0.1804
B( 29-C , 33-C ) :   1.3280 B( 31-C , 32-H ) :   0.4461 B( 31-C , 33-C ) :   1.0751
B( 33-C , 34-H ) :   0.7885 B( 35-C , 36-H ) :   1.0873 B( 35-C , 37-H ) :   1.1164
B( 35-C , 38-H ) :   1.0055

MP2 TOTAL ENERGY:     -790.946280541 Eh
FINAL SINGLE POINT ENERGY      -790.946280540565

DIPOLE MOMENT
-------------
                                X             Y             Z
Electronic contribution:    -11.56305       1.31078      -1.58829
Nuclear contribution   :     11.64442      -1.53488       1.37041
                        -----------------------------------------
Total Dipole Moment    :      0.08138      -0.22410      -0.21789
                        -----------------------------------------
Magnitude (a.u.)       :      0.32298
Magnitude (Debye)      :      0.82095

Rotational constants in cm-1:     0.024801     0.006818     0.005683
Rotational constants in MHz :   743.512120   204.402907   170.364266

                             ****ORCA TERMINATED NORMALLY****
TOTAL RUN TIME: 0 days 1 hours 7 minutes 29 seconds 684 msec
