                         Program Version 4.2.1 -  RELEASE  -
|  1> %pal
|  2>  nprocs 32
|  3> end
|  4> !RI-MP2 aug-cc-pVTZ aug-cc-pVTZ/C TightSCF
|  5> %maxcore 4500
|  6> *xyzfile 0 2  03_40P1.xyz
|  7>
|  8>
|  9>                          ****END OF INPUT****

CARTESIAN COORDINATES (ANGSTROEM)
---------------------------------
  C     -1.453573    0.356007    0.266815
  C     -2.573431   -0.325838   -0.443526
  C     -0.503739   -0.465823    1.078111
  C     -1.131520    1.763695   -0.101469
  H     -2.032561    2.386135   -0.126349
  H     -0.681908    1.838174   -1.104857
  H     -0.420798    2.212916    0.594157
  H     -2.902935   -1.224283    0.085372
  H     -2.289856   -0.641630   -1.460680
  H     -3.436473    0.336699   -0.559844
  H     -1.063237   -1.042905    1.825608
  H      0.178338    0.187052    1.628711
  C      0.326834   -1.467721    0.256246
  H      0.965105   -2.044154    0.931400
  C      1.197377   -0.809468   -0.822382
  H     -0.340801   -2.180562   -0.235953
  H      0.561175   -0.282413   -1.539527
  H      1.726183   -1.581618   -1.387856
  C      2.175176    0.129801   -0.282386
  C      2.972104    0.896016    0.177100
  H      3.682400    1.576581    0.578765

 Total Charge           Charge          ....    0
 Multiplicity           Mult            ....    2
 Number of Electrons    NEL             ....   61
 Basis Dimension        Dim             ....  667

ORBITAL ENERGIES
----------------
                 SPIN UP ORBITALS
  NO   OCC          E(Eh)            E(eV)
   0   1.0000     -11.248720      -306.0932
   1   1.0000     -11.229786      -305.5780
   2   1.0000     -11.229523      -305.5708
   3   1.0000     -11.222942      -305.3918
   4   1.0000     -11.215993      -305.2027
   5   1.0000     -11.215547      -305.1906
   6   1.0000     -11.213551      -305.1362
   7   1.0000     -11.209673      -305.0307
   8   1.0000      -1.114723       -30.3331
   9   1.0000      -1.068581       -29.0776
  10   1.0000      -1.005940       -27.3730
  11   1.0000      -0.940578       -25.5944
  12   1.0000      -0.935552       -25.4577
  13   1.0000      -0.839516       -22.8444
  14   1.0000      -0.738465       -20.0947
  15   1.0000      -0.710067       -19.3219
  16   1.0000      -0.651677       -17.7330
  17   1.0000      -0.641744       -17.4627
  18   1.0000      -0.610270       -16.6063
  19   1.0000      -0.597432       -16.2569
  20   1.0000      -0.586481       -15.9590
  21   1.0000      -0.552573       -15.0363
  22   1.0000      -0.538631       -14.6569
  23   1.0000      -0.524420       -14.2702
  24   1.0000      -0.502765       -13.6809
  25   1.0000      -0.500960       -13.6318
  26   1.0000      -0.472068       -12.8456
  27   1.0000      -0.467497       -12.7212
  28   1.0000      -0.383880       -10.4459
  29   1.0000      -0.383321       -10.4307
  30   1.0000      -0.306579        -8.3424
  31   0.0000       0.028452         0.7742
  32   0.0000       0.031818         0.8658
  33   0.0000       0.035245         0.9591
  34   0.0000       0.037086         1.0092
  35   0.0000       0.045704         1.2437

                 SPIN DOWN ORBITALS
  NO   OCC          E(Eh)            E(eV)
   0   1.0000     -11.248839      -306.0965
   1   1.0000     -11.229501      -305.5703
   2   1.0000     -11.227445      -305.5143
   3   1.0000     -11.219270      -305.2919
   4   1.0000     -11.216793      -305.2244
   5   1.0000     -11.215554      -305.1907
   6   1.0000     -11.212995      -305.1211
   7   1.0000     -11.198297      -304.7211
   8   1.0000      -1.099606       -29.9218
   9   1.0000      -1.047067       -28.4921
  10   1.0000      -1.000490       -27.2247
  11   1.0000      -0.940391       -25.5893
  12   1.0000      -0.935451       -25.4549
  13   1.0000      -0.831354       -22.6223
  14   1.0000      -0.718597       -19.5540
  15   1.0000      -0.694519       -18.8988
  16   1.0000      -0.644549       -17.5391
  17   1.0000      -0.626774       -17.0554
  18   1.0000      -0.605874       -16.4867
  19   1.0000      -0.593522       -16.1505
  20   1.0000      -0.557557       -15.1719
  21   1.0000      -0.547102       -14.8874
  22   1.0000      -0.531155       -14.4535
  23   1.0000      -0.519191       -14.1279
  24   1.0000      -0.499142       -13.5823
  25   1.0000      -0.491993       -13.3878
  26   1.0000      -0.467710       -12.7270
  27   1.0000      -0.459534       -12.5046
  28   1.0000      -0.383332       -10.4310
  29   1.0000      -0.383220       -10.4279
  30   0.0000       0.028649         0.7796
  31   0.0000       0.031859         0.8669
  32   0.0000       0.035280         0.9600
  33   0.0000       0.036831         1.0022
  34   0.0000       0.045792         1.2461

MULLIKEN ATOMIC CHARGES AND SPIN POPULATIONS
--------------------------------------------
   0 C :    0.358554    1.314509
   1 C :   -1.077403   -0.215987
   2 C :   -0.370520   -0.203733
   3 C :   -0.908247   -0.199036
   4 H :    0.285839    0.037926
   5 H :    0.250899    0.070385
   6 H :    0.272317    0.003157
   7 H :    0.276440    0.012205
   8 H :    0.226754    0.063079
   9 H :    0.247479    0.024791
  10 H :    0.306935    0.040795
  11 H :    0.156379   -0.002000
  12 C :   -0.470175    0.071883
  13 H :    0.323578   -0.000491
  14 C :   -0.166391   -0.010630
  15 H :    0.156154   -0.004864
  16 H :    0.204405   -0.004256
  17 H :    0.349742    0.000133
  18 C :    1.314446    0.002916
  19 C :   -2.118393   -0.000810
  20 H :    0.381210    0.000028
Sum of atomic charges         :   -0.0000000

LOEWDIN ATOMIC CHARGES AND SPIN POPULATIONS
-------------------------------------------
   0 C :   -0.056444    0.538139
   1 C :    0.555347    0.105892
   2 C :    0.263822    0.099028
   3 C :    0.558057    0.111057
   4 H :   -0.172724    0.012579
   5 H :   -0.163109    0.028207
   6 H :   -0.175701    0.002699
   7 H :   -0.172127    0.004140
   8 H :   -0.159695    0.026938
   9 H :   -0.173531    0.009427
  10 H :   -0.144982    0.016073
  11 H :   -0.165699    0.001558
  12 C :    0.278212    0.029639
  13 H :   -0.139516    0.005200
  14 C :    0.214806    0.004332
  15 H :   -0.145398    0.001756
  16 H :   -0.167915    0.002467
  17 H :   -0.152926    0.000445
  18 C :    0.015375    0.000527
  19 C :    0.404007   -0.000037
  20 H :   -0.299859   -0.000066

  Mayer bond orders larger than 0.100000
B(  0-C ,  1-C ) :   0.6967 B(  0-C ,  2-C ) :   0.7874 B(  0-C ,  3-C ) :   0.6339
B(  0-C ,  4-H ) :  -0.1027 B(  0-C , 12-C ) :   0.1132 B(  1-C ,  7-H ) :   1.0029
B(  1-C ,  8-H ) :   1.0122 B(  1-C ,  9-H ) :   1.0374 B(  2-C , 10-H ) :   0.9606
B(  2-C , 11-H ) :   1.0342 B(  2-C , 12-C ) :   0.8692 B(  2-C , 19-C ) :   0.1104
B(  3-C ,  4-H ) :   1.0071 B(  3-C ,  5-H ) :   0.9500 B(  3-C ,  6-H ) :   0.9924
B( 12-C , 13-H ) :   0.9061 B( 12-C , 14-C ) :   0.8813 B( 12-C , 15-H ) :   1.0427
B( 12-C , 18-C ) :   0.1706 B( 14-C , 16-H ) :   0.9704 B( 14-C , 17-H ) :   0.9339
B( 14-C , 18-C ) :   0.7425 B( 14-C , 19-C ) :  -0.1823 B( 18-C , 19-C ) :  -0.7046
B( 18-C , 20-H ) :  -0.4102 B( 19-C , 20-H ) :   1.4230

MP2 TOTAL ENERGY:     -311.860363876 Eh
FINAL SINGLE POINT ENERGY      -311.860363875633

DIPOLE MOMENT
-------------
                                X             Y             Z
Electronic contribution:      6.16449       0.29857       0.75062
Nuclear contribution   :     -6.35319      -0.48263      -0.80898
                        -----------------------------------------
Total Dipole Moment    :     -0.18870      -0.18406      -0.05836
                        -----------------------------------------
Magnitude (a.u.)       :      0.26999
Magnitude (Debye)      :      0.68625

Rotational constants in cm-1:     0.104759     0.042419     0.035721
Rotational constants in MHz :  3140.596534  1271.684377  1070.882560

                             ****ORCA TERMINATED NORMALLY****
TOTAL RUN TIME: 0 days 0 hours 6 minutes 47 seconds 673 msec
