                         Program Version 4.2.1 -  RELEASE  -
|  1> %pal
|  2>  nprocs 32
|  3> end
|  4> !RI-MP2 aug-cc-pVTZ aug-cc-pVTZ/C TightSCF
|  5> %maxcore 4500
|  6> *xyzfile 0 1  10_87P.xyz
|  7>
|  8>
|  9>                          ****END OF INPUT****

CARTESIAN COORDINATES (ANGSTROEM)
---------------------------------
  O     -1.207144   -1.210278   -0.793631
  C     -1.302639   -0.105265   -0.317766
  C     -0.173881    0.858233   -0.151752
  C     -2.698260    0.361744    0.147188
  O     -3.625991   -0.575390    0.000819
  O     -2.902566    1.456403    0.579209
  C      3.205705    1.502339    0.280092
  C      2.223314    1.367079   -0.595334
  C      1.168692    0.284897   -0.594700
  C      1.558056   -0.875019    0.296056
  O      1.186991   -1.029959    1.428313
  O      2.398909   -1.719526   -0.316334
  H     -3.191951   -1.360886   -0.376608
  H      2.615562   -2.423329    0.311613
  H      1.079550   -0.110689   -1.609491
  H     -0.138835    1.162472    0.897545
  H     -0.421682    1.767047   -0.708513
  H      3.903488    2.326947    0.208742
  H      3.354444    0.806323    1.098396
  H      2.111913    2.098074   -1.391406

 Total Charge           Charge          ....    0
 Multiplicity           Mult            ....    1
 Number of Electrons    NEL             ....   90
 Basis Dimension        Dim             ....  736

ORBITAL ENERGIES
----------------

  NO   OCC          E(Eh)            E(eV)
   0   2.0000     -20.628092      -561.3189
   1   2.0000     -20.624197      -561.2129
   2   2.0000     -20.608112      -560.7752
   3   2.0000     -20.575735      -559.8942
   4   2.0000     -20.562200      -559.5259
   5   2.0000     -11.406701      -310.3921
   6   2.0000     -11.398609      -310.1719
   7   2.0000     -11.379872      -309.6621
   8   2.0000     -11.278456      -306.9024
   9   2.0000     -11.269567      -306.6605
  10   2.0000     -11.261557      -306.4426
  11   2.0000     -11.245024      -305.9927
  12   2.0000      -1.494827       -40.6763
  13   2.0000      -1.483139       -40.3583
  14   2.0000      -1.443963       -39.2922
  15   2.0000      -1.394507       -37.9465
  16   2.0000      -1.378409       -37.5084
  17   2.0000      -1.141693       -31.0671
  18   2.0000      -1.055951       -28.7339
  19   2.0000      -0.985254       -26.8101
  20   2.0000      -0.908626       -24.7250
  21   2.0000      -0.853728       -23.2311
  22   2.0000      -0.826887       -22.5007
  23   2.0000      -0.776391       -21.1267
  24   2.0000      -0.753180       -20.4951
  25   2.0000      -0.722814       -19.6688
  26   2.0000      -0.710318       -19.3287
  27   2.0000      -0.703466       -19.1423
  28   2.0000      -0.683246       -18.5921
  29   2.0000      -0.665281       -18.1032
  30   2.0000      -0.657344       -17.8872
  31   2.0000      -0.633846       -17.2478
  32   2.0000      -0.618369       -16.8267
  33   2.0000      -0.615861       -16.7584
  34   2.0000      -0.595046       -16.1920
  35   2.0000      -0.566593       -15.4178
  36   2.0000      -0.561036       -15.2666
  37   2.0000      -0.540813       -14.7163
  38   2.0000      -0.537478       -14.6255
  39   2.0000      -0.522486       -14.2176
  40   2.0000      -0.500681       -13.6242
  41   2.0000      -0.496897       -13.5213
  42   2.0000      -0.464284       -12.6338
  43   2.0000      -0.446722       -12.1559
  44   2.0000      -0.390124       -10.6158
  45   0.0000       0.023190         0.6310
  46   0.0000       0.029986         0.8160
  47   0.0000       0.032018         0.8713
  48   0.0000       0.040809         1.1105
  49   0.0000       0.046572         1.2673

MULLIKEN ATOMIC CHARGES
-----------------------
   0 O :   -0.975088
   1 C :    0.845672
   2 C :   -0.258481
   3 C :    0.592823
   4 O :   -0.448159
   5 O :   -0.698367
   6 C :   -1.068393
   7 C :   -0.198955
   8 C :    0.502427
   9 C :    0.913452
  10 O :   -0.969251
  11 O :   -0.593446
  12 H :    0.281754
  13 H :    0.213166
  14 H :    0.237531
  15 H :    0.284472
  16 H :    0.390800
  17 H :    0.417511
  18 H :    0.329308
  19 H :    0.201225
Sum of atomic charges:   -0.0000000

LOEWDIN ATOMIC CHARGES
----------------------
   0 O :    0.542489
   1 C :   -0.468025
   2 C :    0.258150
   3 C :   -0.784656
   4 O :    0.839988
   5 O :    0.454384
   6 C :    0.544906
   7 C :    0.201754
   8 C :   -0.067756
   9 C :   -0.832062
  10 O :    0.488669
  11 O :    0.858161
  12 H :   -0.553460
  13 H :   -0.455591
  14 H :   -0.149922
  15 H :   -0.143318
  16 H :   -0.134903
  17 H :   -0.212355
  18 H :   -0.213170
  19 H :   -0.173280

  Mayer bond orders larger than 0.100000
B(  0-O ,  1-C ) :   1.1431 B(  1-C ,  2-C ) :   0.7217 B(  1-C ,  3-C ) :   0.7999
B(  2-C ,  7-C ) :   0.1295 B(  2-C ,  8-C ) :   1.0986 B(  2-C ,  9-C ) :   0.1201
B(  2-C , 15-H ) :   0.9553 B(  2-C , 16-H ) :   0.8398 B(  3-C ,  4-O ) :   0.8420
B(  3-C ,  5-O ) :   1.6159 B(  4-O , 12-H ) :   0.8799 B(  6-C ,  7-C ) :   1.1427
B(  6-C ,  8-C ) :   0.1210 B(  6-C ,  9-C ) :  -0.1035 B(  6-C , 17-H ) :   0.7717
B(  6-C , 18-H ) :   1.0264 B(  7-C ,  8-C ) :   0.7279 B(  7-C ,  9-C ) :   0.2076
B(  7-C , 19-H ) :   1.1423 B(  8-C ,  9-C ) :   0.5485 B(  8-C , 14-H ) :   0.8969
B(  9-C , 10-O ) :   1.1593 B(  9-C , 11-O ) :   0.7037 B( 11-O , 13-H ) :   0.9864

MP2 TOTAL ENERGY:     -646.627829012 Eh
FINAL SINGLE POINT ENERGY      -646.627829012120

DIPOLE MOMENT
-------------
                                X             Y             Z
Electronic contribution:     -7.82443      -4.29058       0.67648
Nuclear contribution   :      9.08003       4.14124      -1.52746
                        -----------------------------------------
Total Dipole Moment    :      1.25561      -0.14934      -0.85098
                        -----------------------------------------
Magnitude (a.u.)       :      1.52415
Magnitude (Debye)      :      3.87407

Rotational constants in cm-1:     0.058329     0.017964     0.015482
Rotational constants in MHz :  1748.672049   538.542018   464.128673

                             ****ORCA TERMINATED NORMALLY****
TOTAL RUN TIME: 0 days 0 hours 6 minutes 16 seconds 263 msec
