                         Program Version 4.2.1 -  RELEASE  -
|  1> %pal
|  2>  nprocs 32
|  3> end
|  4> !RI-MP2 aug-cc-pVTZ aug-cc-pVTZ/C TightSCF
|  5> %maxcore 4500
|  6> *xyzfile 0 1  03_6P2.xyz
|  7>
|  8>
|  9>                          ****END OF INPUT****

CARTESIAN COORDINATES (ANGSTROEM)
---------------------------------
  C     -0.380747    0.001459    0.045696
  C     -0.844677   -1.218970   -0.725290
  C     -0.887678    1.308391   -0.517167
  O     -0.750123   -0.047966    1.379864
  H     -1.935002   -1.266268   -0.683253
  H     -0.434204   -2.131542   -0.289600
  H     -0.528141   -1.165870   -1.766038
  H     -0.575186    1.428923   -1.553154
  H     -0.504852    2.139214    0.073184
  H     -1.978358    1.312672   -0.466339
  H     -0.467256   -0.885034    1.762377
  Cl     1.476623    0.023903   -0.055031

 Total Charge           Charge          ....    0
 Multiplicity           Mult            ....    1
 Number of Electrons    NEL             ....   50
 Basis Dimension        Dim             ....  395

ORBITAL ENERGIES
----------------

  NO   OCC          E(Eh)            E(eV)
   0   2.0000    -104.812389     -2852.0901
   1   2.0000     -20.587608      -560.2173
   2   2.0000     -11.364846      -309.2532
   3   2.0000     -11.238706      -305.8207
   4   2.0000     -11.231196      -305.6164
   5   2.0000     -10.537258      -286.7334
   6   2.0000      -8.003851      -217.7958
   7   2.0000      -8.002333      -217.7545
   8   2.0000      -8.002277      -217.7530
   9   2.0000      -1.409404       -38.3518
  10   2.0000      -1.120215       -30.4826
  11   2.0000      -1.021321       -27.7915
  12   2.0000      -0.968886       -26.3647
  13   2.0000      -0.810375       -22.0514
  14   2.0000      -0.701179       -19.0800
  15   2.0000      -0.648380       -17.6433
  16   2.0000      -0.644501       -17.5378
  17   2.0000      -0.578311       -15.7366
  18   2.0000      -0.564587       -15.3632
  19   2.0000      -0.557485       -15.1699
  20   2.0000      -0.536713       -14.6047
  21   2.0000      -0.506731       -13.7889
  22   2.0000      -0.458129       -12.4663
  23   2.0000      -0.435886       -11.8611
  24   2.0000      -0.430463       -11.7135
  25   0.0000       0.027547         0.7496
  26   0.0000       0.037588         1.0228
  27   0.0000       0.041656         1.1335
  28   0.0000       0.046247         1.2584
  29   0.0000       0.058952         1.6042

MULLIKEN ATOMIC CHARGES
-----------------------
   0 C :    1.104227
   1 C :   -1.007354
   2 C :   -0.956236
   3 O :   -0.705165
   4 H :    0.279581
   5 H :    0.321910
   6 H :    0.316756
   7 H :    0.307944
   8 H :    0.347131
   9 H :    0.285602
  10 H :    0.195858
  11 Cl:   -0.490254
Sum of atomic charges:    0.0000000

LOEWDIN ATOMIC CHARGES
----------------------
   0 C :   -1.112227
   1 C :    0.492731
   2 C :    0.489125
   3 O :    0.796151
   4 H :   -0.164875
   5 H :   -0.182648
   6 H :   -0.179026
   7 H :   -0.180319
   8 H :   -0.180042
   9 H :   -0.165831
  10 H :   -0.485643
  11 Cl:    0.872605

  Mayer bond orders larger than 0.100000
B(  0-C ,  1-C ) :   0.8137 B(  0-C ,  2-C ) :   0.7252 B(  0-C ,  3-O ) :   0.5845
B(  0-C , 11-Cl) :   0.7285 B(  1-C ,  4-H ) :   0.9123 B(  1-C ,  5-H ) :   0.9442
B(  1-C ,  6-H ) :   0.9355 B(  2-C ,  7-H ) :   0.9566 B(  2-C ,  8-H ) :   0.9278
B(  2-C ,  9-H ) :   0.9238 B(  3-O , 10-H ) :   0.9787

MP2 TOTAL ENERGY:     -653.123099004 Eh
FINAL SINGLE POINT ENERGY      -653.123099003710

DIPOLE MOMENT
-------------
                                X             Y             Z
Electronic contribution:      7.73029       0.12356       2.52395
Nuclear contribution   :     -8.48974      -0.59879      -2.80331
                        -----------------------------------------
Total Dipole Moment    :     -0.75944      -0.47524      -0.27936
                        -----------------------------------------
Magnitude (a.u.)       :      0.93843
Magnitude (Debye)      :      2.38530

Rotational constants in cm-1:     0.161245     0.102935     0.099264
Rotational constants in MHz :  4833.992781  3085.907420  2975.867027

                             ****ORCA TERMINATED NORMALLY****
TOTAL RUN TIME: 0 days 0 hours 0 minutes 54 seconds 437 msec
