                         Program Version 4.2.1 -  RELEASE  -
|  1> %pal
|  2>  nprocs 32
|  3> end
|  4> !RI-MP2 aug-cc-pVTZ aug-cc-pVTZ/C TightSCF
|  5> %maxcore 4500
|  6> *xyzfile 1 1  05_29TS.xyz
|  7>
|  8>
|  9>                          ****END OF INPUT****

CARTESIAN COORDINATES (ANGSTROEM)
---------------------------------
  C      1.086676    0.137843    1.393449
  C      1.429249   -1.111234   -0.912337
  C      2.894291   -1.288942   -0.503609
  C      3.408793   -0.179896    0.406628
  C      2.571108   -0.140884    1.671708
  H      3.008415   -2.247034    0.012714
  H      3.499076   -1.324423   -1.410214
  H      3.344780    0.773045   -0.120315
  H      2.658171   -1.099027    2.195229
  H      2.934633    0.635880    2.347340
  N      0.639008   -0.769962    0.302160
  O     -0.600075   -1.098651    0.289570
  C      0.265235   -0.173846    2.642014
  H      0.678750    0.388751    3.479629
  H     -0.778497    0.112621    2.523543
  H      0.306094   -1.236171    2.884582
  C      0.874074    1.608435    0.994873
  H     -0.163249    1.791235    0.722026
  H      1.110417    2.236228    1.855428
  H      1.510679    1.920505    0.170438
  C      0.898523   -2.426766   -1.478397
  H     -0.088272   -2.311706   -1.925015
  H      1.581032   -2.766787   -2.257673
  H      0.845245   -3.194651   -0.706191
  C      1.274228   -0.000798   -1.966359
  H      1.711289   -0.348617   -2.903056
  H      0.222620    0.223061   -2.150947
  H      1.781771    0.919644   -1.688338
  H     -1.337442   -0.382740   -0.233702
  C     -2.482887    0.088314   -0.900952
  C     -3.438934   -0.882429   -0.394965
  C     -4.566121   -0.537759    0.369860
  C     -3.229168   -2.237322   -0.712810
  C     -5.434694   -1.516609    0.809947
  H     -4.790867    0.500021    0.568448
  C     -4.093326   -3.212610   -0.256979
  H     -2.374001   -2.515540   -1.315938
  C     -5.195276   -2.854491    0.510445
  H     -6.314146   -1.238819    1.376752
  H     -3.917148   -4.251353   -0.504863
  H     -5.880704   -3.616329    0.860515
  C     -2.457569    1.510157   -0.602191
  C     -2.765432    2.026651    0.668231
  C     -2.045558    2.397625   -1.608316
  C     -2.708902    3.386573    0.901771
  H     -3.016014    1.354661    1.478239
  C     -1.997588    3.759305   -1.371700
  H     -1.788836    2.011098   -2.587776
  C     -2.333944    4.256219   -0.118555
  H     -2.946408    3.775111    1.883936
  H     -1.698259    4.435134   -2.162487
  H     -2.293005    5.322018    0.068755
  H     -2.091569   -0.163062   -1.885977
  N      4.811389   -0.357535    0.720169
  C      5.766448    0.018172   -0.182375
  C      7.197965   -0.219135    0.218697
  H      7.665864   -0.867724   -0.522388
  H      7.726258    0.734350    0.198327
  H      7.304206   -0.666711    1.207090
  O      5.456535    0.521031   -1.245979
  H      5.081497   -0.828675    1.568379

 Total Charge           Charge          ....    1
 Multiplicity           Mult            ....    1
 Number of Electrons    NEL             ....  206
 Basis Dimension        Dim             .... 2047

ORBITAL ENERGIES
----------------

  NO   OCC          E(Eh)            E(eV)
   0   2.0000     -20.781488      -565.4930
   1   2.0000     -20.592322      -560.3456
   2   2.0000     -15.770889      -429.1477
   3   2.0000     -15.667315      -426.3293
   4   2.0000     -11.442258      -311.3597
   5   2.0000     -11.425907      -310.9147
   6   2.0000     -11.395775      -310.0948
   7   2.0000     -11.392821      -310.0144
   8   2.0000     -11.384921      -309.7995
   9   2.0000     -11.381111      -309.6958
  10   2.0000     -11.376774      -309.5778
  11   2.0000     -11.374714      -309.5217
  12   2.0000     -11.370788      -309.4149
  13   2.0000     -11.370705      -309.4126
  14   2.0000     -11.368891      -309.3632
  15   2.0000     -11.365170      -309.2620
  16   2.0000     -11.362918      -309.2007
  17   2.0000     -11.359867      -309.1177
  18   2.0000     -11.358782      -309.0882
  19   2.0000     -11.352234      -308.9100
  20   2.0000     -11.351669      -308.8946
  21   2.0000     -11.334690      -308.4326
  22   2.0000     -11.326833      -308.2188
  23   2.0000     -11.324189      -308.1468
  24   2.0000     -11.323949      -308.1403
  25   2.0000     -11.323366      -308.1245
  26   2.0000     -11.322728      -308.1071
  27   2.0000     -11.305718      -307.6442
  28   2.0000      -1.616301       -43.9818
  29   2.0000      -1.462176       -39.7878
  30   2.0000      -1.326944       -36.1080
  31   2.0000      -1.311488       -35.6874
  32   2.0000      -1.289961       -35.1016
  33   2.0000      -1.284135       -34.9431
  34   2.0000      -1.217015       -33.1167
  35   2.0000      -1.216720       -33.1086
  36   2.0000      -1.154269       -31.4093
  37   2.0000      -1.153242       -31.3813
  38   2.0000      -1.148268       -31.2460
  39   2.0000      -1.143375       -31.1128
  40   2.0000      -1.105751       -30.0890
  41   2.0000      -1.069723       -29.1086
  42   2.0000      -1.064717       -28.9724
  43   2.0000      -1.056209       -28.7409
  44   2.0000      -1.046100       -28.4658
  45   2.0000      -1.040592       -28.3159
  46   2.0000      -0.969933       -26.3932
  47   2.0000      -0.966439       -26.2981
  48   2.0000      -0.949428       -25.8353
  49   2.0000      -0.944487       -25.7008
  50   2.0000      -0.931780       -25.3550
  51   2.0000      -0.917544       -24.9677
  52   2.0000      -0.888886       -24.1878
  53   2.0000      -0.875448       -23.8222
  54   2.0000      -0.838364       -22.8130
  55   2.0000      -0.826350       -22.4861
  56   2.0000      -0.803372       -21.8609
  57   2.0000      -0.798391       -21.7253
  58   2.0000      -0.793628       -21.5957
  59   2.0000      -0.790590       -21.5131
  60   2.0000      -0.775160       -21.0932
  61   2.0000      -0.765983       -20.8435
  62   2.0000      -0.753127       -20.4936
  63   2.0000      -0.751067       -20.4376
  64   2.0000      -0.748541       -20.3688
  65   2.0000      -0.726270       -19.7628
  66   2.0000      -0.722952       -19.6725
  67   2.0000      -0.715982       -19.4829
  68   2.0000      -0.714006       -19.4291
  69   2.0000      -0.711999       -19.3745
  70   2.0000      -0.705456       -19.1964
  71   2.0000      -0.698315       -19.0021
  72   2.0000      -0.694753       -18.9052
  73   2.0000      -0.689026       -18.7493
  74   2.0000      -0.680598       -18.5200
  75   2.0000      -0.676364       -18.4048
  76   2.0000      -0.674924       -18.3656
  77   2.0000      -0.660238       -17.9660
  78   2.0000      -0.650663       -17.7054
  79   2.0000      -0.647059       -17.6074
  80   2.0000      -0.642829       -17.4923
  81   2.0000      -0.640355       -17.4250
  82   2.0000      -0.634022       -17.2526
  83   2.0000      -0.633779       -17.2460
  84   2.0000      -0.629070       -17.1179
  85   2.0000      -0.628570       -17.1043
  86   2.0000      -0.623848       -16.9758
  87   2.0000      -0.618993       -16.8436
  88   2.0000      -0.614461       -16.7203
  89   2.0000      -0.611988       -16.6531
  90   2.0000      -0.599450       -16.3119
  91   2.0000      -0.589472       -16.0404
  92   2.0000      -0.586359       -15.9557
  93   2.0000      -0.582727       -15.8568
  94   2.0000      -0.563994       -15.3470
  95   2.0000      -0.561742       -15.2858
  96   2.0000      -0.534608       -14.5474
  97   2.0000      -0.500689       -13.6244
  98   2.0000      -0.474737       -12.9183
  99   2.0000      -0.470194       -12.7946
 100   2.0000      -0.462813       -12.5938
 101   2.0000      -0.455959       -12.4073
 102   2.0000      -0.419791       -11.4231
 103   0.0000      -0.160244        -4.3605
 104   0.0000      -0.053831        -1.4648
 105   0.0000      -0.047828        -1.3015
 106   0.0000      -0.044926        -1.2225
 107   0.0000      -0.042424        -1.1544

MULLIKEN ATOMIC CHARGES
-----------------------
   0 C :    1.955432
   1 C :    2.209914
   2 C :   -1.220949
   3 C :    1.234246
   4 C :   -1.467549
   5 H :    0.193706
   6 H :    0.360690
   7 H :    0.530582
   8 H :    0.201791
   9 H :    0.325285
  10 N :    0.723966
  11 O :   -1.131862
  12 C :   -2.022199
  13 H :    0.043660
  14 H :    0.535974
  15 H :    0.167557
  16 C :   -1.792118
  17 H :    1.138083
  18 H :   -0.035205
  19 H :    0.316862
  20 C :   -1.969317
  21 H :    0.459058
  22 H :    0.039038
  23 H :    0.204313
  24 C :   -1.603311
  25 H :    0.021349
  26 H :    0.710959
  27 H :    0.307488
  28 H :    0.521585
  29 C :   -0.825398
  30 C :    2.529001
  31 C :   -0.721879
  32 C :   -0.742854
  33 C :   -0.817593
  34 H :    0.065543
  35 C :   -1.152276
  36 H :    0.393767
  37 C :   -0.079034
  38 H :    0.544789
  39 H :    0.528302
  40 H :    0.516201
  41 C :    1.434796
  42 C :   -0.356609
  43 C :   -0.920155
  44 C :   -0.804182
  45 H :    0.377866
  46 C :   -0.630317
  47 H :   -0.047104
  48 C :   -0.085109
  49 H :    0.271235
  50 H :    0.561649
  51 H :    0.784481
  52 H :    0.203354
  53 N :   -0.611290
  54 C :    0.732107
  55 C :   -0.893356
  56 H :    0.321276
  57 H :    0.323735
  58 H :    0.272777
  59 O :   -1.044881
  60 H :   -0.087871
Sum of atomic charges:    1.0000000

LOEWDIN ATOMIC CHARGES
----------------------
   0 C :   -0.368268
   1 C :   -0.371776
   2 C :    0.334400
   3 C :   -0.102952
   4 C :    0.333850
   5 H :   -0.120548
   6 H :   -0.128929
   7 H :   -0.166151
   8 H :   -0.121598
   9 H :   -0.117314
  10 N :    0.110067
  11 O :    0.761354
  12 C :    0.602560
  13 H :   -0.145174
  14 H :   -0.165275
  15 H :   -0.145435
  16 C :    0.635991
  17 H :   -0.201369
  18 H :   -0.134154
  19 H :   -0.173954
  20 C :    0.601066
  21 H :   -0.174939
  22 H :   -0.142756
  23 H :   -0.144706
  24 C :    0.633930
  25 H :   -0.135674
  26 H :   -0.173009
  27 H :   -0.172665
  28 H :   -0.558158
  29 C :    0.262770
  30 C :   -0.065548
  31 C :    0.251727
  32 C :    0.247215
  33 C :    0.243763
  34 H :   -0.190392
  35 C :    0.244176
  36 H :   -0.174464
  37 C :    0.243974
  38 H :   -0.167990
  39 H :   -0.168264
  40 H :   -0.159258
  41 C :   -0.092237
  42 C :    0.216687
  43 C :    0.248525
  44 C :    0.243331
  45 H :   -0.170094
  46 C :    0.244032
  47 H :   -0.157087
  48 C :    0.245508
  49 H :   -0.164307
  50 H :   -0.165706
  51 H :   -0.157749
  52 H :   -0.130012
  53 N :    0.591431
  54 C :   -0.662969
  55 C :    0.610587
  56 H :   -0.165888
  57 H :   -0.165721
  58 H :   -0.179480
  59 O :    0.468179
  60 H :   -0.273149

  Mayer bond orders larger than 0.100000
B(  0-C ,  3-C ) :   0.1105 B(  0-C ,  8-H ) :  -0.1411 B(  0-C , 10-N ) :   0.7453
B(  0-C , 11-O ) :   0.1381 B(  0-C , 12-C ) :   0.1577 B(  0-C , 13-H ) :  -0.2655
B(  0-C , 15-H ) :  -0.1633 B(  0-C , 16-C ) :   0.2703 B(  0-C , 18-H ) :  -0.1160
B(  0-C , 20-C ) :  -0.1305 B(  1-C ,  4-C ) :  -0.1424 B(  1-C , 10-N ) :   0.6946
B(  1-C , 11-O ) :   0.2334 B(  1-C , 22-H ) :  -0.2470 B(  1-C , 23-H ) :  -0.2236
B(  1-C , 24-C ) :   0.2176 B(  1-C , 25-H ) :  -0.1623 B(  1-C , 27-H ) :  -0.1052
B(  1-C , 30-C ) :   0.1002 B(  2-C ,  3-C ) :   0.7109 B(  2-C ,  4-C ) :   0.2815
B(  2-C ,  5-H ) :   1.2022 B(  2-C ,  6-H ) :   0.9995 B(  2-C ,  7-H ) :   0.2117
B(  2-C , 53-N ) :   0.1633 B(  2-C , 59-O ) :   0.1091 B(  3-C ,  4-C ) :   0.4885
B(  3-C ,  7-H ) :   0.8360 B(  3-C , 10-N ) :  -0.2796 B(  3-C , 59-O ) :   0.1216
B(  4-C ,  8-H ) :   1.3084 B(  4-C ,  9-H ) :   0.8474 B(  4-C , 10-N ) :   0.1982
B(  4-C , 53-N ) :   0.1709 B(  7-H , 53-N ) :  -0.3843 B(  7-H , 54-C ) :  -0.1565
B(  7-H , 59-O ) :  -0.2720 B( 10-N , 11-O ) :   0.2516 B( 10-N , 12-C ) :  -0.6035
B( 10-N , 15-H ) :  -0.2345 B( 10-N , 16-C ) :   0.2791 B( 10-N , 20-C ) :  -0.2759
B( 10-N , 23-H ) :  -0.1700 B( 10-N , 24-C ) :   0.2948 B( 10-N , 41-C ) :   0.1377
B( 11-O , 12-C ) :   0.2861 B( 11-O , 15-H ) :   0.1087 B( 11-O , 20-C ) :   0.1201
B( 11-O , 28-H ) :  -0.3295 B( 11-O , 29-C ) :   0.1128 B( 12-C , 13-H ) :   1.5153
B( 12-C , 14-H ) :   0.7682 B( 12-C , 15-H ) :   1.3728 B( 12-C , 16-C ) :   0.1011
B( 12-C , 17-H ) :  -0.1261 B( 16-C , 18-H ) :   1.4476 B( 16-C , 19-H ) :   1.1206
B( 16-C , 43-C ) :   0.1110 B( 17-H , 18-H ) :  -0.1301 B( 17-H , 41-C ) :   0.1837
B( 17-H , 43-C ) :  -0.1592 B( 17-H , 48-C ) :  -0.1255 B( 20-C , 21-H ) :   0.7989
B( 20-C , 22-H ) :   1.5306 B( 20-C , 23-H ) :   1.3312 B( 20-C , 24-C ) :   0.1489
B( 20-C , 28-H ) :  -0.1113 B( 24-C , 25-H ) :   1.4366 B( 24-C , 26-H ) :   0.4738
B( 24-C , 27-H ) :   1.1039 B( 28-H , 29-C ) :   0.9433 B( 28-H , 32-C ) :   0.2413
B( 29-C , 30-C ) :   0.3845 B( 29-C , 31-C ) :   0.4032 B( 29-C , 32-C ) :   0.2434
B( 29-C , 33-C ) :   0.1055 B( 29-C , 34-H ) :  -0.1917 B( 29-C , 35-C ) :   0.2742
B( 29-C , 36-H ) :  -0.2826 B( 29-C , 39-H ) :   0.1032 B( 29-C , 41-C ) :   0.1535
B( 29-C , 42-C ) :   0.3307 B( 29-C , 43-C ) :   0.6182 B( 29-C , 45-H ) :  -0.3320
B( 29-C , 46-C ) :  -0.1083 B( 29-C , 47-H ) :  -0.2088 B( 29-C , 48-C ) :   0.1964
B( 29-C , 49-H ) :   0.1052 B( 29-C , 52-H ) :   1.2198 B( 30-C , 32-C ) :   0.1991
B( 30-C , 34-H ) :  -0.3064 B( 30-C , 35-C ) :  -0.1985 B( 30-C , 36-H ) :  -0.1742
B( 30-C , 37-C ) :   0.1527 B( 30-C , 42-C ) :   0.1417 B( 30-C , 43-C ) :  -0.1375
B( 31-C , 32-C ) :  -0.8660 B( 31-C , 33-C ) :   1.5611 B( 31-C , 34-H ) :   1.8657
B( 31-C , 36-H ) :   0.2367 B( 31-C , 37-C ) :  -0.1830 B( 32-C , 34-H ) :   0.1353
B( 32-C , 35-C ) :   1.6567 B( 32-C , 36-H ) :   0.9444 B( 32-C , 41-C ) :   0.1014
B( 33-C , 35-C ) :   0.4252 B( 33-C , 36-H ) :  -0.2409 B( 33-C , 37-C ) :   1.0488
B( 33-C , 38-H ) :   0.6034 B( 33-C , 40-H ) :  -0.2514 B( 34-H , 35-C ) :  -0.1705
B( 34-H , 36-H ) :   0.2710 B( 34-H , 41-C ) :  -0.1524 B( 34-H , 47-H ) :   0.1604
B( 35-C , 37-C ) :   1.0597 B( 35-C , 39-H ) :   0.5481 B( 35-C , 40-H ) :  -0.1903
B( 36-H , 37-C ) :  -0.1304 B( 36-H , 41-C ) :   0.1835 B( 36-H , 47-H ) :   0.1441
B( 37-C , 40-H ) :   0.7107 B( 39-H , 41-C ) :  -0.1172 B( 41-C , 42-C ) :   0.7022
B( 41-C , 45-H ) :   0.2385 B( 41-C , 46-C ) :   0.3640 B( 41-C , 47-H ) :  -0.2329
B( 41-C , 48-C ) :  -0.1640 B( 41-C , 49-H ) :  -0.1273 B( 41-C , 50-H ) :  -0.1352
B( 41-C , 51-H ) :   0.1331 B( 41-C , 52-H ) :  -0.1518 B( 42-C , 43-C ) :  -0.3801
B( 42-C , 44-C ) :   1.6324 B( 42-C , 45-H ) :   0.8566 B( 42-C , 46-C ) :   0.1066
B( 42-C , 48-C ) :   0.3435 B( 43-C , 44-C ) :   0.1622 B( 43-C , 46-C ) :   1.3612
B( 43-C , 47-H ) :   1.7209 B( 44-C , 48-C ) :   1.0307 B( 44-C , 49-H ) :   1.0939
B( 44-C , 51-H ) :  -0.1211 B( 46-C , 48-C ) :   1.0449 B( 46-C , 50-H ) :   0.6596
B( 46-C , 51-H ) :  -0.1993 B( 48-C , 51-H ) :   0.2663 B( 53-N , 54-C ) :   1.1798
B( 53-N , 60-H ) :   1.2993 B( 54-C , 55-C ) :   0.4319 B( 54-C , 59-O ) :   1.4953
B( 54-C , 60-H ) :  -0.1066 B( 55-C , 56-H ) :   0.9824 B( 55-C , 57-H ) :   0.9916
B( 55-C , 58-H ) :   1.0000 B( 55-C , 59-O ) :  -0.1351

MP2 TOTAL ENERGY:    -1191.713962834 Eh
FINAL SINGLE POINT ENERGY     -1191.713962833775

DIPOLE MOMENT
-------------
                                X             Y             Z
Electronic contribution:    -15.99571       1.84939      -2.09716
Nuclear contribution   :     13.85834      -1.97848       3.07452
                        -----------------------------------------
Total Dipole Moment    :     -2.13736      -0.12909       0.97736
                        -----------------------------------------
Magnitude (a.u.)       :      2.35377
Magnitude (Debye)      :      5.98280

Rotational constants in cm-1:     0.009350     0.003361     0.002877
Rotational constants in MHz :   280.293117   100.770368    86.250257

                             ****ORCA TERMINATED NORMALLY****
TOTAL RUN TIME: 0 days 6 hours 6 minutes 12 seconds 897 msec
