                         Program Version 4.2.1 -  RELEASE  -
|  1> %pal
|  2>  nprocs 32
|  3> end
|  4> !RI-MP2 aug-cc-pVTZ aug-cc-pVTZ/C TightSCF
|  5> %maxcore 4500
|  6> *xyzfile 1 1  10_24P.xyz
|  7>
|  8>
|  9>                          ****END OF INPUT****

CARTESIAN COORDINATES (ANGSTROEM)
---------------------------------
  C     -1.398605   -2.646126   -0.680404
  C     -0.564060   -1.610879    0.081168
  C     -2.634455   -0.963222    0.524561
  C     -2.848852   -2.149074   -0.420125
  H     -1.137349   -2.663288   -1.736143
  H     -1.239665   -3.643619   -0.270716
  H     -3.377831   -1.859339   -1.330536
  H     -3.462883   -2.898984    0.077517
  C     -1.409658   -1.369225    1.336267
  H     -1.030539   -0.594276    2.000894
  H     -1.593279   -2.276292    1.909786
  H      0.482472   -1.858034    0.214953
  H     -3.512765   -0.579632    1.037058
  N     -2.027322    0.152417   -0.316117
  N     -0.686565   -0.342330   -0.683134
  C      0.264183    0.790442   -0.455688
  C      1.669038    0.313755   -0.186384
  C      2.515435    0.106787   -1.272066
  C      2.140639    0.045512    1.096564
  C      3.806299   -0.364785   -1.083915
  H      2.161016    0.318202   -2.274715
  C      3.431572   -0.424760    1.287069
  H      1.510725    0.200184    1.963878
  C      4.266262   -0.632015    0.197332
  H      4.454369   -0.516870   -1.937787
  H      3.788617   -0.623718    2.289760
  H      5.275388   -0.994249    0.348200
  C     -1.875065    1.479792    0.383542
  C     -0.378032    1.719549    0.585656
  C     -0.578584    3.170045    0.087475
  H     -0.673298    3.878032    0.908797
  H      0.160032    3.546419   -0.618147
  C     -1.958991    2.750772   -0.483579
  H     -2.804753    3.407099   -0.291621
  H     -1.921977    2.532454   -1.552879
  H      0.287153    1.324552   -1.408681
  H      0.018999    1.582244    1.587412
  H     -2.505366    1.477972    1.269233
  H     -2.564602    0.271121   -1.176336

 Total Charge           Charge          ....    1
 Multiplicity           Mult            ....    1
 Number of Electrons    NEL             ....  130
 Basis Dimension        Dim             .... 1311

ORBITAL ENERGIES
----------------

  NO   OCC          E(Eh)            E(eV)
   0   2.0000     -15.849194      -431.2785
   1   2.0000     -15.750010      -428.5796
   2   2.0000     -11.438600      -311.2601
   3   2.0000     -11.430506      -311.0399
   4   2.0000     -11.411083      -310.5113
   5   2.0000     -11.403999      -310.3186
   6   2.0000     -11.377011      -309.5842
   7   2.0000     -11.375635      -309.5468
   8   2.0000     -11.373994      -309.5021
   9   2.0000     -11.371644      -309.4382
  10   2.0000     -11.360258      -309.1283
  11   2.0000     -11.357014      -309.0401
  12   2.0000     -11.354762      -308.9788
  13   2.0000     -11.346116      -308.7435
  14   2.0000     -11.343058      -308.6603
  15   2.0000     -11.339101      -308.5526
  16   2.0000     -11.337441      -308.5075
  17   2.0000     -11.336201      -308.4737
  18   2.0000      -1.531379       -41.6709
  19   2.0000      -1.318043       -35.8658
  20   2.0000      -1.309131       -35.6233
  21   2.0000      -1.260585       -34.3023
  22   2.0000      -1.257957       -34.2307
  23   2.0000      -1.159362       -31.5478
  24   2.0000      -1.127365       -30.6772
  25   2.0000      -1.124304       -30.5939
  26   2.0000      -1.101644       -29.9773
  27   2.0000      -1.076978       -29.3061
  28   2.0000      -1.035576       -28.1795
  29   2.0000      -1.003641       -27.3104
  30   2.0000      -0.970438       -26.4070
  31   2.0000      -0.943334       -25.6694
  32   2.0000      -0.926308       -25.2061
  33   2.0000      -0.914618       -24.8880
  34   2.0000      -0.905752       -24.6468
  35   2.0000      -0.865784       -23.5592
  36   2.0000      -0.845617       -23.0104
  37   2.0000      -0.838136       -22.8068
  38   2.0000      -0.803564       -21.8661
  39   2.0000      -0.796292       -21.6682
  40   2.0000      -0.769139       -20.9293
  41   2.0000      -0.758549       -20.6412
  42   2.0000      -0.741442       -20.1757
  43   2.0000      -0.736272       -20.0350
  44   2.0000      -0.728337       -19.8190
  45   2.0000      -0.713528       -19.4161
  46   2.0000      -0.698986       -19.0204
  47   2.0000      -0.695340       -18.9212
  48   2.0000      -0.688259       -18.7285
  49   2.0000      -0.682693       -18.5770
  50   2.0000      -0.666956       -18.1488
  51   2.0000      -0.658153       -17.9093
  52   2.0000      -0.644522       -17.5383
  53   2.0000      -0.634022       -17.2526
  54   2.0000      -0.622456       -16.9379
  55   2.0000      -0.618249       -16.8234
  56   2.0000      -0.609505       -16.5855
  57   2.0000      -0.609491       -16.5851
  58   2.0000      -0.605942       -16.4885
  59   2.0000      -0.597835       -16.2679
  60   2.0000      -0.587635       -15.9904
  61   2.0000      -0.581706       -15.8290
  62   2.0000      -0.532455       -14.4888
  63   2.0000      -0.445896       -12.1335
  64   2.0000      -0.445191       -12.1143
  65   0.0000      -0.070568        -1.9203
  66   0.0000      -0.062018        -1.6876
  67   0.0000      -0.052547        -1.4299
  68   0.0000      -0.051903        -1.4124
  69   0.0000      -0.040047        -1.0897

MULLIKEN ATOMIC CHARGES
-----------------------
   0 C :   -1.115785
   1 C :    0.007896
   2 C :   -0.497397
   3 C :   -0.633019
   4 H :    0.337833
   5 H :    0.219950
   6 H :    0.256430
   7 H :    0.296451
   8 C :   -0.625842
   9 H :    0.097149
  10 H :    0.499612
  11 H :    0.889982
  12 H :    0.490730
  13 N :    0.437029
  14 N :   -0.849187
  15 C :    1.296144
  16 C :    1.827403
  17 C :   -1.145847
  18 C :   -0.215530
  19 C :   -0.640343
  20 H :   -0.051628
  21 C :   -1.030565
  22 H :    0.007413
  23 C :   -0.222511
  24 H :    0.594418
  25 H :    0.379129
  26 H :    0.629422
  27 C :    0.137162
  28 C :   -0.369505
  29 C :   -0.979614
  30 H :    0.218065
  31 H :    0.350378
  32 C :   -0.951033
  33 H :    0.401000
  34 H :    0.098637
  35 H :    0.049028
  36 H :    0.321053
  37 H :    0.607281
  38 H :   -0.121785
Sum of atomic charges:    1.0000000

LOEWDIN ATOMIC CHARGES
----------------------
   0 C :    0.369985
   1 C :   -0.052145
   2 C :    0.040106
   3 C :    0.377267
   4 H :   -0.131155
   5 H :   -0.125918
   6 H :   -0.128008
   7 H :   -0.122826
   8 C :    0.381451
   9 H :   -0.133118
  10 H :   -0.104655
  11 H :   -0.128948
  12 H :   -0.091649
  13 N :    0.459118
  14 N :    0.400855
  15 C :   -0.052653
  16 C :   -0.094776
  17 C :    0.238624
  18 C :    0.218713
  19 C :    0.227608
  20 H :   -0.162691
  21 C :    0.227883
  22 H :   -0.184096
  23 C :    0.222711
  24 H :   -0.170172
  25 H :   -0.170856
  26 H :   -0.169613
  27 C :    0.055246
  28 C :    0.087722
  29 C :    0.398632
  30 H :   -0.129502
  31 H :   -0.127427
  32 C :    0.404927
  33 H :   -0.127682
  34 H :   -0.132189
  35 H :   -0.151427
  36 H :   -0.139298
  37 H :   -0.097452
  38 H :   -0.182592

  Mayer bond orders larger than 0.100000
B(  0-C ,  1-C ) :   0.7394 B(  0-C ,  3-C ) :   1.2161 B(  0-C ,  4-H ) :   0.9552
B(  0-C ,  5-H ) :   1.0944 B(  0-C ,  8-C ) :   0.1487 B(  0-C , 11-H ) :  -0.3053
B(  1-C ,  3-C ) :  -0.1281 B(  1-C ,  8-C ) :   0.8771 B(  1-C , 11-H ) :   0.4150
B(  1-C , 14-N ) :   1.0975 B(  2-C ,  3-C ) :   0.9457 B(  2-C ,  8-C ) :   1.0686
B(  2-C , 12-H ) :   0.7235 B(  2-C , 13-N ) :   0.9784 B(  3-C ,  6-H ) :   0.9829
B(  3-C ,  7-H ) :   0.9726 B(  3-C , 13-N ) :  -0.1327 B(  8-C ,  9-H ) :   1.1682
B(  8-C , 10-H ) :   0.7233 B(  8-C , 13-N ) :  -0.1211 B( 11-H , 14-N ) :  -0.1567
B( 11-H , 18-C ) :  -0.1135 B( 13-N , 14-N ) :   0.7574 B( 13-N , 27-C ) :   1.2078
B( 13-N , 28-C ) :   0.1511 B( 13-N , 32-C ) :   0.1788 B( 13-N , 38-H ) :   0.9033
B( 14-N , 15-C ) :   0.5554 B( 14-N , 27-C ) :  -0.1678 B( 14-N , 35-H ) :   0.2429
B( 15-C , 17-C ) :   0.1864 B( 15-C , 18-C ) :   0.3224 B( 15-C , 19-C ) :   0.1357
B( 15-C , 20-H ) :  -0.1558 B( 15-C , 21-C ) :   0.1670 B( 15-C , 27-C ) :   0.1286
B( 15-C , 28-C ) :   0.6897 B( 15-C , 32-C ) :  -0.2348 B( 15-C , 34-H ) :  -0.1108
B( 15-C , 35-H ) :   1.1608 B( 16-C , 17-C ) :  -0.1565 B( 16-C , 18-C ) :   0.5291
B( 16-C , 20-H ) :  -0.2405 B( 16-C , 22-H ) :  -0.2701 B( 16-C , 28-C ) :   0.2151
B( 16-C , 35-H ) :  -0.2380 B( 17-C , 18-C ) :  -0.2823 B( 17-C , 19-C ) :   1.3067
B( 17-C , 20-H ) :   1.6484 B( 17-C , 22-H ) :   0.1824 B( 17-C , 24-H ) :  -0.1119
B( 17-C , 26-H ) :   0.1083 B( 18-C , 20-H ) :   0.1785 B( 18-C , 21-C ) :   1.1982
B( 18-C , 22-H ) :   1.6195 B( 18-C , 23-C ) :   0.1047 B( 18-C , 26-H ) :  -0.1045
B( 18-C , 28-C ) :  -0.1029 B( 19-C , 21-C ) :   0.1266 B( 19-C , 22-H ) :  -0.1493
B( 19-C , 23-C ) :   1.1839 B( 19-C , 24-H ) :   0.5607 B( 19-C , 26-H ) :  -0.1499
B( 20-H , 22-H ) :   0.1090 B( 21-C , 22-H ) :  -0.2112 B( 21-C , 23-C ) :   1.1929
B( 21-C , 25-H ) :   0.9272 B( 21-C , 26-H ) :  -0.1398 B( 23-C , 26-H ) :   0.5072
B( 27-C , 28-C ) :   0.8848 B( 27-C , 29-C ) :  -0.2234 B( 27-C , 32-C ) :   0.8139
B( 27-C , 37-H ) :   0.6362 B( 28-C , 29-C ) :   0.7511 B( 28-C , 36-H ) :   0.8463
B( 29-C , 30-H ) :   1.0257 B( 29-C , 31-H ) :   0.9514 B( 29-C , 32-C ) :   1.4097
B( 29-C , 34-H ) :   0.1100 B( 29-C , 35-H ) :  -0.1414 B( 29-C , 36-H ) :  -0.1129
B( 32-C , 33-H ) :   0.7851 B( 32-C , 34-H ) :   1.1928 B( 32-C , 36-H ) :  -0.1774
B( 32-C , 37-H ) :  -0.1317

MP2 TOTAL ENERGY:     -730.058687069 Eh
FINAL SINGLE POINT ENERGY      -730.058687068620

DIPOLE MOMENT
-------------
                                X             Y             Z
Electronic contribution:      5.51372       0.06503      -0.78862
Nuclear contribution   :     -7.85047       0.02942       1.02349
                        -----------------------------------------
Total Dipole Moment    :     -2.33675       0.09445       0.23487
                        -----------------------------------------
Magnitude (a.u.)       :      2.35042
Magnitude (Debye)      :      5.97430

Rotational constants in cm-1:     0.022261     0.012122     0.009261
Rotational constants in MHz :   667.369762   363.402202   277.634549

                             ****ORCA TERMINATED NORMALLY****
TOTAL RUN TIME: 0 days 0 hours 45 minutes 50 seconds 488 msec
