                         Program Version 4.2.1 -  RELEASE  -
|  1> %pal
|  2>  nprocs 32
|  3> end
|  4> !RI-MP2 aug-cc-pVTZ aug-cc-pVTZ/C TightSCF
|  5> %maxcore 4500
|  6> *xyzfile 0 1  04_40P2.xyz
|  7>
|  8>
|  9>                          ****END OF INPUT****

CARTESIAN COORDINATES (ANGSTROEM)
---------------------------------
  C     -1.831862    0.016550    0.005511
  C     -1.144844   -1.190839   -0.000185
  C      0.242309   -1.195638   -0.009971
  C      0.952824   -0.002038   -0.007534
  C      0.252637    1.202236   -0.016128
  C     -1.130559    1.216513   -0.002972
  S      2.742790   -0.016432   -0.071300
  H     -1.690526   -2.128734   -0.000060
  H      0.777878   -2.136258   -0.018251
  H      0.800380    2.135819   -0.034222
  H     -1.682752    2.147351   -0.006167
  O     -3.190665    0.086032    0.015125
  H     -3.567840   -0.798019    0.012444
  H      2.960509    0.073807    1.253742

 Total Charge           Charge          ....    0
 Multiplicity           Mult            ....    1
 Number of Electrons    NEL             ....   66
 Basis Dimension        Dim             ....  510

ORBITAL ENERGIES
----------------

  NO   OCC          E(Eh)            E(eV)
   0   2.0000     -91.958894     -2502.3287
   1   2.0000     -20.600967      -560.5808
   2   2.0000     -11.314357      -307.8793
   3   2.0000     -11.263302      -306.4900
   4   2.0000     -11.252965      -306.2088
   5   2.0000     -11.251009      -306.1555
   6   2.0000     -11.242181      -305.9153
   7   2.0000     -11.236329      -305.7560
   8   2.0000      -8.959452      -243.7991
   9   2.0000      -6.640800      -180.7054
  10   2.0000      -6.639862      -180.6798
  11   2.0000      -6.638894      -180.6535
  12   2.0000      -1.418664       -38.6038
  13   2.0000      -1.168089       -31.7853
  14   2.0000      -1.048574       -28.5331
  15   2.0000      -1.034090       -28.1390
  16   2.0000      -0.941490       -25.6192
  17   2.0000      -0.860084       -23.4041
  18   2.0000      -0.816964       -22.2307
  19   2.0000      -0.747274       -20.3344
  20   2.0000      -0.683193       -18.5906
  21   2.0000      -0.650842       -17.7103
  22   2.0000      -0.618538       -16.8313
  23   2.0000      -0.603314       -16.4170
  24   2.0000      -0.601923       -16.3792
  25   2.0000      -0.581066       -15.8116
  26   2.0000      -0.551148       -14.9975
  27   2.0000      -0.506533       -13.7835
  28   2.0000      -0.498453       -13.5636
  29   2.0000      -0.463624       -12.6158
  30   2.0000      -0.368795       -10.0354
  31   2.0000      -0.354681        -9.6514
  32   2.0000      -0.324743        -8.8367
  33   0.0000       0.023960         0.6520
  34   0.0000       0.034231         0.9315
  35   0.0000       0.036040         0.9807
  36   0.0000       0.046931         1.2771
  37   0.0000       0.051610         1.4044

MULLIKEN ATOMIC CHARGES
-----------------------
   0 C :    0.863614
   1 C :   -0.626519
   2 C :   -0.778948
   3 C :    0.751231
   4 C :   -0.581199
   5 C :   -0.767756
   6 S :   -0.547420
   7 H :    0.522810
   8 H :    0.527804
   9 H :    0.524758
  10 H :    0.623291
  11 O :   -0.757336
  12 H :    0.163507
  13 H :    0.082162
Sum of atomic charges:   -0.0000000

LOEWDIN ATOMIC CHARGES
----------------------
   0 C :   -0.384901
   1 C :    0.206328
   2 C :    0.105913
   3 C :   -0.568353
   4 C :    0.109531
   5 C :    0.206755
   6 S :    1.281930
   7 H :   -0.183503
   8 H :   -0.197260
   9 H :   -0.195615
  10 H :   -0.180575
  11 O :    0.844321
  12 H :   -0.478127
  13 H :   -0.566444

  Mayer bond orders larger than 0.100000
B(  0-C ,  1-C ) :   1.1223 B(  0-C ,  4-C ) :  -0.2842 B(  0-C ,  5-C ) :   1.0538
B(  0-C , 11-O ) :   0.6294 B(  1-C ,  2-C ) :   1.2292 B(  1-C ,  5-C ) :   0.2888
B(  1-C ,  7-H ) :   0.6204 B(  1-C , 11-O ) :  -0.1534 B(  2-C ,  3-C ) :   0.9868
B(  2-C ,  4-C ) :   0.1366 B(  2-C ,  8-H ) :   0.7553 B(  3-C ,  4-C ) :   1.1228
B(  3-C ,  5-C ) :   0.1235 B(  3-C ,  6-S ) :   0.9322 B(  4-C ,  5-C ) :   1.3230
B(  4-C ,  9-H ) :   0.7786 B(  5-C , 10-H ) :   0.4556 B(  6-S ,  8-H ) :  -0.1627
B(  6-S ,  9-H ) :  -0.1706 B(  6-S , 13-H ) :   1.1725 B( 11-O , 12-H ) :   1.0447

MP2 TOTAL ENERGY:     -704.598956411 Eh
FINAL SINGLE POINT ENERGY      -704.598956410630

DIPOLE MOMENT
-------------
                                X             Y             Z
Electronic contribution:      1.90482       0.18787      -0.87610
Nuclear contribution   :     -2.49264      -0.69178       1.18863
                        -----------------------------------------
Total Dipole Moment    :     -0.58781      -0.50391       0.31253
                        -----------------------------------------
Magnitude (a.u.)       :      0.83494
Magnitude (Debye)      :      2.12225

Rotational constants in cm-1:     0.186838     0.032530     0.027864
Rotational constants in MHz :  5601.261881   975.238571   835.346561

                             ****ORCA TERMINATED NORMALLY****
TOTAL RUN TIME: 0 days 0 hours 2 minutes 17 seconds 638 msec
