                         Program Version 4.2.1 -  RELEASE  -
|  1> %pal
|  2>  nprocs 32
|  3> end
|  4> !RI-MP2 aug-cc-pVTZ aug-cc-pVTZ/C TightSCF
|  5> %maxcore 4500
|  6> *xyzfile 0 1  02_46TS.xyz
|  7>
|  8>
|  9>                          ****END OF INPUT****

CARTESIAN COORDINATES (ANGSTROEM)
---------------------------------
  C      4.018719   -2.394676    0.635736
  O      2.673351   -1.963711    0.468977
  H      4.444776   -2.697738   -0.322668
  C     -0.157264   -0.423823    0.489712
  C      0.945025   -0.253527   -0.345344
  C     -1.511629   -0.687853   -0.007828
  C     -1.948124   -0.265210   -1.268665
  C     -2.421136   -1.378028    0.798892
  C     -3.240939   -0.515894   -1.695830
  C     -3.713901   -1.635863    0.368492
  C      2.987374    1.317062   -0.982765
  C     -4.133621   -1.203600   -0.881296
  C      1.731844    1.625839   -0.222671
  C      0.682617    2.423296   -0.651408
  C     -0.490229    2.483381    0.105587
  C     -0.653816    1.797070    1.287654
  C     -1.962991    1.747830    2.007881
  O      3.422330    0.014449   -0.574192
  B      2.399657   -0.781441   -0.122009
  H      0.705247   -0.205981   -1.408009
  H      0.025886   -0.755394    1.506997
  H     -1.273811    0.281613   -1.915599
  H     -2.100639   -1.725335    1.774985
  H     -3.556716   -0.172682   -2.674257
  H     -4.395768   -2.178377    1.012872
  H      3.796785    2.012888   -0.752763
  H      2.818644    1.327738   -2.063841
  H     -5.142748   -1.402746   -1.220511
  H      1.889194    1.568522    0.850366
  H      0.216686    1.563837    1.886396
  H     -2.094872    0.800347    2.533624
  H     -2.800794    1.861213    1.317966
  H     -2.024744    2.544525    2.756874
  H      4.004957   -3.249265    1.310330
  H      4.636476   -1.599887    1.057201
  H      0.666121    2.786928   -1.674345
  H     -1.369992    2.925080   -0.352733

 Total Charge           Charge          ....    0
 Multiplicity           Mult            ....    1
 Number of Electrons    NEL             ....  130
 Basis Dimension        Dim             .... 1265

ORBITAL ENERGIES
----------------

  NO   OCC          E(Eh)            E(eV)
   0   2.0000     -20.561414      -559.5045
   1   2.0000     -20.558912      -559.4364
   2   2.0000     -11.291754      -307.2642
   3   2.0000     -11.273139      -306.7577
   4   2.0000     -11.251921      -306.1803
   5   2.0000     -11.239900      -305.8532
   6   2.0000     -11.237514      -305.7883
   7   2.0000     -11.236682      -305.7657
   8   2.0000     -11.227497      -305.5157
   9   2.0000     -11.227153      -305.5064
  10   2.0000     -11.226984      -305.5018
  11   2.0000     -11.221438      -305.3509
  12   2.0000     -11.221160      -305.3433
  13   2.0000     -11.220804      -305.3336
  14   2.0000     -11.219142      -305.2884
  15   2.0000     -11.217332      -305.2391
  16   2.0000     -11.215467      -305.1884
  17   2.0000      -7.631059      -207.6517
  18   2.0000      -1.391179       -37.8559
  19   2.0000      -1.355095       -36.8740
  20   2.0000      -1.153265       -31.3819
  21   2.0000      -1.116803       -30.3898
  22   2.0000      -1.057342       -28.7717
  23   2.0000      -1.043407       -28.3925
  24   2.0000      -1.008738       -27.4492
  25   2.0000      -0.980811       -26.6892
  26   2.0000      -0.969131       -26.3714
  27   2.0000      -0.935053       -25.4441
  28   2.0000      -0.886434       -24.1211
  29   2.0000      -0.849124       -23.1058
  30   2.0000      -0.823647       -22.4126
  31   2.0000      -0.813652       -22.1406
  32   2.0000      -0.774490       -21.0749
  33   2.0000      -0.728003       -19.8100
  34   2.0000      -0.715132       -19.4597
  35   2.0000      -0.698181       -18.9985
  36   2.0000      -0.680177       -18.5086
  37   2.0000      -0.666303       -18.1310
  38   2.0000      -0.646503       -17.5922
  39   2.0000      -0.633822       -17.2472
  40   2.0000      -0.631489       -17.1837
  41   2.0000      -0.627055       -17.0630
  42   2.0000      -0.614181       -16.7127
  43   2.0000      -0.600626       -16.3439
  44   2.0000      -0.588744       -16.0205
  45   2.0000      -0.580158       -15.7869
  46   2.0000      -0.576747       -15.6941
  47   2.0000      -0.572410       -15.5761
  48   2.0000      -0.549787       -14.9605
  49   2.0000      -0.541114       -14.7245
  50   2.0000      -0.524879       -14.2827
  51   2.0000      -0.510492       -13.8912
  52   2.0000      -0.508878       -13.8473
  53   2.0000      -0.500128       -13.6092
  54   2.0000      -0.495035       -13.4706
  55   2.0000      -0.488495       -13.2926
  56   2.0000      -0.485739       -13.2176
  57   2.0000      -0.478792       -13.0286
  58   2.0000      -0.465609       -12.6699
  59   2.0000      -0.457702       -12.4547
  60   2.0000      -0.450694       -12.2640
  61   2.0000      -0.357012        -9.7148
  62   2.0000      -0.333723        -9.0811
  63   2.0000      -0.318953        -8.6792
  64   2.0000      -0.253659        -6.9024
  65   0.0000       0.024286         0.6609
  66   0.0000       0.028893         0.7862
  67   0.0000       0.029604         0.8056
  68   0.0000       0.035100         0.9551
  69   0.0000       0.039691         1.0800

MULLIKEN ATOMIC CHARGES
-----------------------
   0 C :   -0.759611
   1 O :   -0.534806
   2 H :    0.321724
   3 C :   -0.624214
   4 C :    0.161007
   5 C :    1.937686
   6 C :   -0.517265
   7 C :   -0.799780
   8 C :   -1.043887
   9 C :   -0.690419
  10 C :   -0.539717
  11 C :   -0.207047
  12 C :    0.771076
  13 C :   -1.002052
  14 C :   -0.500680
  15 C :    0.191866
  16 C :   -0.967990
  17 O :   -0.603452
  18 B :    0.310073
  19 H :    0.462294
  20 H :   -0.238656
  21 H :    0.164191
  22 H :    0.268466
  23 H :    0.283093
  24 H :    0.366481
  25 H :    0.359343
  26 H :    0.189530
  27 H :    0.680842
  28 H :    0.310925
  29 H :    0.285742
  30 H :    0.292803
  31 H :    0.294927
  32 H :    0.266635
  33 H :    0.328410
  34 H :    0.390925
  35 H :    0.138192
  36 H :    0.253346
Sum of atomic charges:   -0.0000000

LOEWDIN ATOMIC CHARGES
----------------------
   0 C :    0.351990
   1 O :    0.618247
   2 H :   -0.167391
   3 C :    0.189168
   4 C :    0.245700
   5 C :   -0.137591
   6 C :    0.214501
   7 C :    0.200488
   8 C :    0.199510
   9 C :    0.195748
  10 C :    0.075323
  11 C :    0.189600
  12 C :    0.102964
  13 C :    0.210986
  14 C :    0.183654
  15 C :    0.168328
  16 C :    0.571638
  17 O :    0.643589
  18 B :   -0.952153
  19 H :   -0.185578
  20 H :   -0.161724
  21 H :   -0.185919
  22 H :   -0.173188
  23 H :   -0.180921
  24 H :   -0.181132
  25 H :   -0.141225
  26 H :   -0.137549
  27 H :   -0.188372
  28 H :   -0.170601
  29 H :   -0.194707
  30 H :   -0.181445
  31 H :   -0.164254
  32 H :   -0.160939
  33 H :   -0.180467
  34 H :   -0.175978
  35 H :   -0.167677
  36 H :   -0.172624

  Mayer bond orders larger than 0.100000
B(  0-C ,  1-O ) :   0.7948 B(  0-C ,  2-H ) :   0.8911 B(  0-C , 33-H ) :   0.9457
B(  0-C , 34-H ) :   0.8356 B(  1-O ,  3-C ) :   0.1956 B(  1-O ,  4-C ) :  -0.5886
B(  1-O , 18-B ) :   0.7736 B(  1-O , 20-H ) :   0.1582 B(  3-C ,  4-C ) :   0.8413
B(  3-C ,  5-C ) :   0.6031 B(  3-C ,  6-C ) :   0.1080 B(  3-C ,  7-C ) :   0.4632
B(  3-C , 13-C ) :   0.1693 B(  3-C , 15-C ) :   0.1525 B(  3-C , 20-H ) :   1.5223
B(  3-C , 22-H ) :  -0.1611 B(  4-C ,  5-C ) :   0.3061 B(  4-C ,  6-C ) :  -0.1153
B(  4-C , 12-C ) :   0.1486 B(  4-C , 13-C ) :   0.1572 B(  4-C , 15-C ) :   0.1226
B(  4-C , 18-B ) :   1.4377 B(  4-C , 19-H ) :   0.8403 B(  4-C , 22-H ) :   0.1005
B(  4-C , 35-H ) :   0.1364 B(  5-C ,  6-C ) :   0.5397 B(  5-C ,  7-C ) :   0.2739
B(  5-C , 20-H ) :  -0.1964 B(  5-C , 21-H ) :  -0.2595 B(  5-C , 27-H ) :   0.1044
B(  6-C ,  8-C ) :   1.1373 B(  6-C , 11-C ) :   0.1898 B(  6-C , 21-H ) :   1.3994
B(  6-C , 27-H ) :  -0.1200 B(  7-C ,  9-C ) :   1.1287 B(  7-C , 11-C ) :   0.2198
B(  7-C , 22-H ) :   1.0722 B(  8-C , 11-C ) :   1.0920 B(  8-C , 21-H ) :  -0.2203
B(  8-C , 23-H ) :   1.0629 B(  8-C , 27-H ) :  -0.1109 B(  9-C , 11-C ) :   1.1318
B(  9-C , 24-H ) :   0.9390 B(  9-C , 27-H ) :  -0.1038 B( 10-C , 12-C ) :   0.5718
B( 10-C , 17-O ) :   0.7261 B( 10-C , 18-B ) :   0.1536 B( 10-C , 25-H ) :   0.9688
B( 10-C , 26-H ) :   1.2126 B( 11-C , 27-H ) :   0.4436 B( 12-C , 13-C ) :   0.9223
B( 12-C , 17-O ) :   0.1115 B( 12-C , 25-H ) :  -0.1007 B( 12-C , 26-H ) :  -0.1076
B( 12-C , 28-H ) :   0.9504 B( 12-C , 35-H ) :  -0.1036 B( 13-C , 14-C ) :   0.9485
B( 13-C , 35-H ) :   1.1985 B( 14-C , 15-C ) :   1.3115 B( 14-C , 35-H ) :  -0.1709
B( 14-C , 36-H ) :   1.0480 B( 15-C , 16-C ) :   0.5157 B( 15-C , 29-H ) :   0.9286
B( 15-C , 32-H ) :  -0.1018 B( 16-C , 30-H ) :   0.9987 B( 16-C , 31-H ) :   1.0276
B( 16-C , 32-H ) :   1.0009 B( 17-O , 18-B ) :   0.7953 B( 18-B , 19-H ) :  -0.2410
B( 20-H , 22-H ) :  -0.1152

MP2 TOTAL ENERGY:     -756.832160699 Eh
FINAL SINGLE POINT ENERGY      -756.832160698832

DIPOLE MOMENT
-------------
                                X             Y             Z
Electronic contribution:      3.77187      -3.97451      -3.69926
Nuclear contribution   :     -3.42124       4.32007       3.75064
                        -----------------------------------------
Total Dipole Moment    :      0.35063       0.34556       0.05138
                        -----------------------------------------
Magnitude (a.u.)       :      0.49496
Magnitude (Debye)      :      1.25810

Rotational constants in cm-1:     0.021289     0.009319     0.007861
Rotational constants in MHz :   638.218685   279.365929   235.656511

                             ****ORCA TERMINATED NORMALLY****
TOTAL RUN TIME: 0 days 0 hours 42 minutes 18 seconds 348 msec
