                         Program Version 4.2.1 -  RELEASE  -
|  1> %pal
|  2>  nprocs 32
|  3> end
|  4> !RI-MP2 aug-cc-pVTZ aug-cc-pVTZ/C TightSCF
|  5> %maxcore 4500
|  6> *xyzfile 0 2  04_29TS.xyz
|  7>
|  8>
|  9>                          ****END OF INPUT****

CARTESIAN COORDINATES (ANGSTROEM)
---------------------------------
  C     -3.002690    0.170699   -0.938358
  S     -2.476460   -1.179728    0.152689
  C     -0.658318   -1.109488   -0.039375
  C     -0.022428    0.090817    0.601391
  C     -0.203347    0.254072    2.087262
  C      0.038983    1.303312   -0.274605
  O      0.044415    1.207826   -1.491659
  S      2.827270   -0.622963    0.435593
  C      2.812408   -0.799568   -1.374204
  H     -2.779138    1.148886   -0.515535
  H     -2.531554    0.082480   -1.915536
  H     -4.082305    0.072391   -1.046559
  H      0.572515    0.885441    2.526836
  H     -0.151214   -0.716818    2.581170
  H     -1.181664    0.683494    2.320587
  H     -0.299403   -2.021959    0.438643
  H     -0.414375   -1.147854   -1.099168
  H      3.850174   -0.777107   -1.706560
  H      2.364612   -1.744561   -1.676630
  H      2.276799    0.029355   -1.834057
  H      1.351817   -0.261947    0.541189
  N      0.113107    2.509987    0.346167
  H      0.274096    3.319060   -0.231675
  H      0.201959    2.600610    1.342213

 Total Charge           Charge          ....    0
 Multiplicity           Mult            ....    2
 Number of Electrons    NEL             ....   97
 Basis Dimension        Dim             ....  790

ORBITAL ENERGIES
----------------
                 SPIN UP ORBITALS
  NO   OCC          E(Eh)            E(eV)
   0   1.0000     -91.949861     -2502.0829
   1   1.0000     -91.949314     -2502.0680
   2   1.0000     -20.532933      -558.7295
   3   1.0000     -15.595962      -424.3877
   4   1.0000     -11.363801      -309.2248
   5   1.0000     -11.286096      -307.1103
   6   1.0000     -11.264788      -306.5305
   7   1.0000     -11.248606      -306.0901
   8   1.0000     -11.246424      -306.0308
   9   1.0000     -11.244422      -305.9763
  10   1.0000      -8.949993      -243.5417
  11   1.0000      -8.949789      -243.5361
  12   1.0000      -6.639275      -180.6639
  13   1.0000      -6.632045      -180.4671
  14   1.0000      -6.630378      -180.4218
  15   1.0000      -6.629204      -180.3898
  16   1.0000      -6.628416      -180.3684
  17   1.0000      -6.627311      -180.3383
  18   1.0000      -1.400690       -38.1147
  19   1.0000      -1.227063       -33.3901
  20   1.0000      -1.129973       -30.7481
  21   1.0000      -1.043341       -28.3907
  22   1.0000      -1.028593       -27.9894
  23   1.0000      -0.959544       -26.1105
  24   1.0000      -0.909494       -24.7486
  25   1.0000      -0.857292       -23.3281
  26   1.0000      -0.825484       -22.4626
  27   1.0000      -0.772918       -21.0322
  28   1.0000      -0.730831       -19.8869
  29   1.0000      -0.684419       -18.6240
  30   1.0000      -0.673411       -18.3245
  31   1.0000      -0.633249       -17.2316
  32   1.0000      -0.595537       -16.2054
  33   1.0000      -0.592347       -16.1186
  34   1.0000      -0.586913       -15.9707
  35   1.0000      -0.584422       -15.9029
  36   1.0000      -0.580062       -15.7843
  37   1.0000      -0.568855       -15.4793
  38   1.0000      -0.561423       -15.2771
  39   1.0000      -0.533472       -14.5165
  40   1.0000      -0.529974       -14.4213
  41   1.0000      -0.495446       -13.4818
  42   1.0000      -0.470192       -12.7946
  43   1.0000      -0.444452       -12.0941
  44   1.0000      -0.438121       -11.9219
  45   1.0000      -0.437765       -11.9122
  46   1.0000      -0.354295        -9.6408
  47   1.0000      -0.350570        -9.5395
  48   1.0000      -0.333638        -9.0788
  49   0.0000       0.021320         0.5802
  50   0.0000       0.033499         0.9115
  51   0.0000       0.034675         0.9436
  52   0.0000       0.036068         0.9815
  53   0.0000       0.048448         1.3183

                 SPIN DOWN ORBITALS
  NO   OCC          E(Eh)            E(eV)
   0   1.0000     -91.949174     -2502.0642
   1   1.0000     -91.944005     -2501.9236
   2   1.0000     -20.528235      -558.6017
   3   1.0000     -15.595996      -424.3886
   4   1.0000     -11.366478      -309.2976
   5   1.0000     -11.268063      -306.6196
   6   1.0000     -11.267002      -306.5907
   7   1.0000     -11.248663      -306.0917
   8   1.0000     -11.246863      -306.0427
   9   1.0000     -11.246164      -306.0237
  10   1.0000      -8.949230      -243.5209
  11   1.0000      -8.944023      -243.3792
  12   1.0000      -6.630402      -180.4224
  13   1.0000      -6.629090      -180.3867
  14   1.0000      -6.628414      -180.3683
  15   1.0000      -6.625833      -180.2981
  16   1.0000      -6.624174      -180.2529
  17   1.0000      -6.615751      -180.0237
  18   1.0000      -1.392596       -37.8945
  19   1.0000      -1.224068       -33.3086
  20   1.0000      -1.105427       -30.0802
  21   1.0000      -1.033345       -28.1187
  22   1.0000      -1.010411       -27.4947
  23   1.0000      -0.959508       -26.1095
  24   1.0000      -0.897564       -24.4240
  25   1.0000      -0.832493       -22.6533
  26   1.0000      -0.818557       -22.2741
  27   1.0000      -0.769146       -20.9295
  28   1.0000      -0.720572       -19.6078
  29   1.0000      -0.673410       -18.3244
  30   1.0000      -0.637378       -17.3439
  31   1.0000      -0.629839       -17.1388
  32   1.0000      -0.588446       -16.0124
  33   1.0000      -0.586523       -15.9601
  34   1.0000      -0.583542       -15.8790
  35   1.0000      -0.582519       -15.8512
  36   1.0000      -0.574691       -15.6381
  37   1.0000      -0.562209       -15.2985
  38   1.0000      -0.556870       -15.1532
  39   1.0000      -0.526745       -14.3335
  40   1.0000      -0.512485       -13.9454
  41   1.0000      -0.488687       -13.2979
  42   1.0000      -0.454699       -12.3730
  43   1.0000      -0.437671       -11.9096
  44   1.0000      -0.423835       -11.5331
  45   1.0000      -0.415274       -11.3002
  46   1.0000      -0.344881        -9.3847
  47   1.0000      -0.341765        -9.2999
  48   0.0000       0.021381         0.5818
  49   0.0000       0.026922         0.7326
  50   0.0000       0.033612         0.9146
  51   0.0000       0.034753         0.9457
  52   0.0000       0.036104         0.9824

MULLIKEN ATOMIC CHARGES AND SPIN POPULATIONS
--------------------------------------------
   0 C :   -0.722910   -0.004686
   1 S :   -0.519399    0.073351
   2 C :   -0.091983   -0.098490
   3 C :    0.876992    0.881455
   4 C :   -1.283953   -0.062528
   5 C :    1.207204   -0.143702
   6 O :   -1.145447    0.105978
   7 S :   -0.513619    0.597829
   8 C :   -0.823385   -0.045011
   9 H :    0.228581   -0.000002
  10 H :    0.273472    0.000262
  11 H :    0.299912   -0.000019
  12 H :    0.228063    0.019109
  13 H :    0.206899    0.008092
  14 H :    0.337331    0.032570
  15 H :    0.242540    0.006061
  16 H :    0.307469    0.014211
  17 H :    0.268555    0.009590
  18 H :    0.254230   -0.000670
  19 H :    0.366642    0.007034
  20 H :    0.481603   -0.409167
  21 N :   -0.754827    0.006853
  22 H :    0.125902   -0.000803
  23 H :    0.150127    0.002684
Sum of atomic charges         :    0.0000000

LOEWDIN ATOMIC CHARGES AND SPIN POPULATIONS
-------------------------------------------
   0 C :    0.226210    0.003914
   1 S :    1.205368    0.039103
   2 C :   -0.081350    0.032695
   3 C :   -0.230039    0.319598
   4 C :    0.550185    0.046148
   5 C :   -0.705636    0.031299
   6 O :    0.473864    0.074830
   7 S :    1.255241    0.314967
   8 C :    0.185542    0.048909
   9 H :   -0.246827   -0.000483
  10 H :   -0.240424   -0.000184
  11 H :   -0.254112    0.001125
  12 H :   -0.169815    0.001716
  13 H :   -0.154867    0.000359
  14 H :   -0.161238    0.014566
  15 H :   -0.219331    0.000717
  16 H :   -0.233195   -0.002176
  17 H :   -0.261401    0.011385
  18 H :   -0.247997   -0.000002
  19 H :   -0.273645    0.001587
  20 H :   -0.689745    0.065507
  21 N :    0.873685   -0.005020
  22 H :   -0.278726    0.000207
  23 H :   -0.321747   -0.000766

  Mayer bond orders larger than 0.100000
B(  0-C ,  1-S ) :   0.8802 B(  0-C ,  9-H ) :   0.9489 B(  0-C , 10-H ) :   0.9285
B(  0-C , 11-H ) :   0.9396 B(  1-S ,  2-C ) :   0.6209 B(  1-S ,  3-C ) :   0.4151
B(  1-S , 15-H ) :  -0.1158 B(  2-C ,  3-C ) :   0.9391 B(  2-C , 15-H ) :   1.0211
B(  2-C , 16-H ) :   0.9512 B(  3-C ,  4-C ) :   0.3013 B(  3-C ,  5-C ) :   0.9452
B(  3-C ,  6-O ) :  -0.1290 B(  3-C , 20-H ) :   0.1114 B(  4-C ,  5-C ) :   0.1020
B(  4-C , 12-H ) :   1.0831 B(  4-C , 13-H ) :   1.1560 B(  4-C , 14-H ) :   0.9888
B(  4-C , 21-N ) :   0.1096 B(  5-C ,  6-O ) :   0.9056 B(  5-C , 20-H ) :   0.1022
B(  5-C , 21-N ) :   0.5233 B(  7-S ,  8-C ) :   1.0092 B(  7-S , 20-H ) :   0.3392
B(  8-C , 17-H ) :   0.9758 B(  8-C , 18-H ) :   0.9265 B(  8-C , 19-H ) :   0.8471
B( 21-N , 22-H ) :   1.0388 B( 21-N , 23-H ) :   1.0483

MP2 TOTAL ENERGY:    -1161.722775812 Eh
FINAL SINGLE POINT ENERGY     -1161.722775812397

DIPOLE MOMENT
-------------
                                X             Y             Z
Electronic contribution:      0.39231      -1.36591       0.87136
Nuclear contribution   :     -0.56292       2.26410      -0.31798
                        -----------------------------------------
Total Dipole Moment    :     -0.17060       0.89819       0.55338
                        -----------------------------------------
Magnitude (a.u.)       :      1.06868
Magnitude (Debye)      :      2.71637

Rotational constants in cm-1:     0.040709     0.018867     0.017435
Rotational constants in MHz :  1220.424443   565.614504   522.685474

                             ****ORCA TERMINATED NORMALLY****
TOTAL RUN TIME: 0 days 0 hours 19 minutes 25 seconds 27 msec
