                         Program Version 4.2.1 -  RELEASE  -
|  1> %pal
|  2>  nprocs 32
|  3> end
|  4> !RI-MP2 aug-cc-pVTZ aug-cc-pVTZ/C TightSCF
|  5> %maxcore 4500
|  6> *xyzfile -1 1  09_1TS.xyz
|  7>
|  8>
|  9>                          ****END OF INPUT****

CARTESIAN COORDINATES (ANGSTROEM)
---------------------------------
  C     -0.554517    0.000000    0.182533
  C     -0.834878   -1.276212   -0.623662
  H     -0.366699   -1.261971   -1.610833
  H     -1.922141   -1.366356   -0.736601
  H     -0.473471   -2.138046   -0.063129
  C     -0.834872    1.276214   -0.623662
  H     -0.366695    1.261971   -1.610833
  H     -0.473461    2.138046   -0.063130
  H     -1.922136    1.366363   -0.736600
  C      1.379770   -0.000003   -0.000483
  N      2.539704   -0.000001    0.015069
  O     -0.898293    0.000001    1.388411

 Total Charge           Charge          ....   -1
 Multiplicity           Mult            ....    1
 Number of Electrons    NEL             ....   46
 Basis Dimension        Dim             ....  414

ORBITAL ENERGIES
----------------

  NO   OCC          E(Eh)            E(eV)
   0   2.0000     -20.302073      -552.4475
   1   2.0000     -15.347946      -417.6388
   2   2.0000     -11.166366      -303.8523
   3   2.0000     -11.069334      -301.2119
   4   2.0000     -11.069317      -301.2114
   5   2.0000     -11.034860      -300.2738
   6   2.0000      -1.149980       -31.2926
   7   2.0000      -0.995469       -27.0881
   8   2.0000      -0.863890       -23.5076
   9   2.0000      -0.793577       -21.5943
  10   2.0000      -0.579697       -15.7744
  11   2.0000      -0.486016       -13.2252
  12   2.0000      -0.449046       -12.2192
  13   2.0000      -0.446849       -12.1594
  14   2.0000      -0.400529       -10.8989
  15   2.0000      -0.388087       -10.5604
  16   2.0000      -0.370397       -10.0790
  17   2.0000      -0.359496        -9.7824
  18   2.0000      -0.327503        -8.9118
  19   2.0000      -0.258669        -7.0387
  20   2.0000      -0.258473        -7.0334
  21   2.0000      -0.204474        -5.5640
  22   2.0000      -0.201671        -5.4878
  23   0.0000       0.118670         3.2292
  24   0.0000       0.127610         3.4724
  25   0.0000       0.135385         3.6840
  26   0.0000       0.142078         3.8661
  27   0.0000       0.147054         4.0015

MULLIKEN ATOMIC CHARGES
-----------------------
   0 C :    1.333435
   1 C :   -0.999308
   2 H :    0.289539
   3 H :    0.255580
   4 H :    0.282206
   5 C :   -0.999309
   6 H :    0.289540
   7 H :    0.282206
   8 H :    0.255580
   9 C :   -0.166238
  10 N :   -0.606502
  11 O :   -1.216729
Sum of atomic charges:   -1.0000000

LOEWDIN ATOMIC CHARGES
----------------------
   0 C :   -0.896103
   1 C :    0.486109
   2 H :   -0.199913
   3 H :   -0.186048
   4 H :   -0.192932
   5 C :    0.486109
   6 H :   -0.199914
   7 H :   -0.192933
   8 H :   -0.186047
   9 C :   -0.253447
  10 N :    0.010153
  11 O :    0.324966

  Mayer bond orders larger than 0.100000
B(  0-C ,  1-C ) :   0.8037 B(  0-C ,  5-C ) :   0.8037 B(  0-C ,  9-C ) :   0.4752
B(  0-C , 11-O ) :   0.6920 B(  1-C ,  2-H ) :   0.9335 B(  1-C ,  3-H ) :   0.9555
B(  1-C ,  4-H ) :   0.9634 B(  5-C ,  6-H ) :   0.9335 B(  5-C ,  7-H ) :   0.9634
B(  5-C ,  8-H ) :   0.9555 B(  9-C , 10-N ) :   2.1812 B(  9-C , 11-O ) :   0.1318

MP2 TOTAL ENERGY:     -285.487770044 Eh
FINAL SINGLE POINT ENERGY      -285.487770043706

DIPOLE MOMENT
-------------
                                X             Y             Z
Electronic contribution:      3.98083      -0.00001       3.40757
Nuclear contribution   :     -5.55113       0.00001      -4.82285
                        -----------------------------------------
Total Dipole Moment    :     -1.57030       0.00000      -1.41528
                        -----------------------------------------
Magnitude (a.u.)       :      2.11397
Magnitude (Debye)      :      5.37328

Rotational constants in cm-1:     0.165611     0.083859     0.080327
Rotational constants in MHz :  4964.880596  2514.038188  2408.147798

                             ****ORCA TERMINATED NORMALLY****
TOTAL RUN TIME: 0 days 0 hours 1 minutes 10 seconds 901 msec
