                         Program Version 4.2.1 -  RELEASE  -
|  1> %pal
|  2>  nprocs 32
|  3> end
|  4> !RI-MP2 aug-cc-pVTZ aug-cc-pVTZ/C TightSCF
|  5> %maxcore 4500
|  6> *xyzfile 0 1  10_8TS.xyz
|  7>
|  8>
|  9>                          ****END OF INPUT****

CARTESIAN COORDINATES (ANGSTROEM)
---------------------------------
  C      2.001752    0.216064   -0.159216
  C      2.124479   -1.190325   -0.162450
  C      3.390875   -1.749989   -0.049788
  C      4.524755   -0.955477    0.050909
  C      4.400777    0.425690    0.038799
  C      3.147106    1.006448   -0.063782
  H      3.489808   -2.829885   -0.050103
  H      5.502007   -1.415943    0.133280
  H      5.280207    1.053801    0.112254
  H      3.042605    2.081367   -0.066934
  C      0.669193    0.761427   -0.216152
  C     -0.553049    0.584384   -0.209117
  C     -1.699921   -0.280762   -0.166907
  C     -2.949558    0.066778   -0.678663
  C     -1.499089   -1.566319    0.375915
  C     -4.003597   -0.831367   -0.635487
  H     -3.074379    1.042087   -1.130034
  C     -2.571098   -2.448597    0.414928
  C     -3.818093   -2.088856   -0.078628
  H     -4.968051   -0.551306   -1.041478
  H     -2.423361   -3.437329    0.835124
  H     -4.639893   -2.793472   -0.037082
  C     -0.129037   -1.967826    0.848191
  H     -3.129735    2.248620    0.922821
  C     -2.339685    2.995521    0.927030
  N     -1.392372    2.608863   -0.117556
  H     -1.872557    3.012021    1.914952
  H     -2.781431    3.970656    0.712544
  N     -0.275640    3.166222   -0.100929
  N      0.849266    2.971255   -0.225924
  H      0.226659   -1.243872    1.584519
  H     -0.193463   -2.929444    1.359323
  C      0.909046   -2.064832   -0.313791
  H      0.409479   -1.802620   -1.249435
  H      1.234190   -3.100834   -0.419630

 Total Charge           Charge          ....    0
 Multiplicity           Mult            ....    1
 Number of Electrons    NEL             ....  138
 Basis Dimension        Dim             .... 1265

ORBITAL ENERGIES
----------------

  NO   OCC          E(Eh)            E(eV)
   0   2.0000     -15.732372      -428.0996
   1   2.0000     -15.664528      -426.2535
   2   2.0000     -15.618819      -425.0097
   3   2.0000     -11.272186      -306.7318
   4   2.0000     -11.254003      -306.2370
   5   2.0000     -11.250028      -306.1288
   6   2.0000     -11.244200      -305.9702
   7   2.0000     -11.242063      -305.9121
   8   2.0000     -11.241287      -305.8910
   9   2.0000     -11.236479      -305.7601
  10   2.0000     -11.235617      -305.7367
  11   2.0000     -11.233163      -305.6699
  12   2.0000     -11.232759      -305.6589
  13   2.0000     -11.232139      -305.6420
  14   2.0000     -11.230187      -305.5889
  15   2.0000     -11.229648      -305.5743
  16   2.0000     -11.228466      -305.5421
  17   2.0000     -11.227481      -305.5153
  18   2.0000     -11.226994      -305.5021
  19   2.0000     -11.226144      -305.4789
  20   2.0000      -1.484302       -40.3899
  21   2.0000      -1.258081       -34.2341
  22   2.0000      -1.174708       -31.9654
  23   2.0000      -1.160121       -31.5685
  24   2.0000      -1.086482       -29.5647
  25   2.0000      -1.062206       -28.9041
  26   2.0000      -1.038440       -28.2574
  27   2.0000      -1.027648       -27.9637
  28   2.0000      -0.991843       -26.9894
  29   2.0000      -0.986273       -26.8379
  30   2.0000      -0.957868       -26.0649
  31   2.0000      -0.889906       -24.2156
  32   2.0000      -0.847072       -23.0500
  33   2.0000      -0.828240       -22.5376
  34   2.0000      -0.808379       -21.9971
  35   2.0000      -0.794621       -21.6227
  36   2.0000      -0.751016       -20.4362
  37   2.0000      -0.727525       -19.7970
  38   2.0000      -0.706404       -19.2222
  39   2.0000      -0.694363       -18.8946
  40   2.0000      -0.684344       -18.6219
  41   2.0000      -0.665440       -18.1075
  42   2.0000      -0.660962       -17.9857
  43   2.0000      -0.659003       -17.9324
  44   2.0000      -0.637417       -17.3450
  45   2.0000      -0.633459       -17.2373
  46   2.0000      -0.606875       -16.5139
  47   2.0000      -0.596313       -16.2265
  48   2.0000      -0.588033       -16.0012
  49   2.0000      -0.586523       -15.9601
  50   2.0000      -0.577292       -15.7089
  51   2.0000      -0.568501       -15.4697
  52   2.0000      -0.556600       -15.1459
  53   2.0000      -0.541248       -14.7281
  54   2.0000      -0.534325       -14.5397
  55   2.0000      -0.515733       -14.0338
  56   2.0000      -0.502504       -13.6738
  57   2.0000      -0.497029       -13.5248
  58   2.0000      -0.486848       -13.2478
  59   2.0000      -0.477197       -12.9852
  60   2.0000      -0.473317       -12.8796
  61   2.0000      -0.443699       -12.0737
  62   2.0000      -0.429639       -11.6911
  63   2.0000      -0.379615       -10.3299
  64   2.0000      -0.359892        -9.7932
  65   2.0000      -0.338157        -9.2017
  66   2.0000      -0.334552        -9.1036
  67   2.0000      -0.325173        -8.8484
  68   2.0000      -0.286128        -7.7859
  69   0.0000       0.025576         0.6960
  70   0.0000       0.028502         0.7756
  71   0.0000       0.030835         0.8391
  72   0.0000       0.036223         0.9857
  73   0.0000       0.037989         1.0337

MULLIKEN ATOMIC CHARGES
-----------------------
   0 C :    1.773947
   1 C :    0.444611
   2 C :   -1.294880
   3 C :   -0.219258
   4 C :   -0.493881
   5 C :   -1.398667
   6 H :   -0.052647
   7 H :    0.650035
   8 H :    0.407100
   9 H :   -0.124601
  10 C :   -0.305659
  11 C :    0.705518
  12 C :    2.207381
  13 C :   -1.445955
  14 C :    0.401993
  15 C :   -0.679082
  16 H :   -0.156100
  17 C :   -1.318066
  18 C :   -0.111404
  19 H :    0.388082
  20 H :    0.027373
  21 H :    0.643808
  22 C :   -0.447417
  23 H :    0.482962
  24 C :   -0.901691
  25 N :    0.197156
  26 H :    0.335887
  27 H :    0.329212
  28 N :    0.049988
  29 N :   -0.552919
  30 H :    0.124728
  31 H :    0.313386
  32 C :   -0.367061
  33 H :    0.098144
  34 H :    0.287977
Sum of atomic charges:   -0.0000000

LOEWDIN ATOMIC CHARGES
----------------------
   0 C :   -0.139196
   1 C :   -0.083072
   2 C :    0.225894
   3 C :    0.202566
   4 C :    0.202137
   5 C :    0.203031
   6 H :   -0.178418
   7 H :   -0.180841
   8 H :   -0.183824
   9 H :   -0.233355
  10 C :   -0.000015
  11 C :    0.005090
  12 C :   -0.135843
  13 C :    0.196324
  14 C :   -0.087264
  15 C :    0.204549
  16 H :   -0.197834
  17 C :    0.229682
  18 C :    0.203490
  19 H :   -0.182657
  20 H :   -0.176003
  21 H :   -0.181502
  22 C :    0.318003
  23 H :   -0.202541
  24 C :    0.427595
  25 N :    0.207691
  26 H :   -0.169929
  27 H :   -0.176245
  28 N :   -0.185994
  29 N :    0.361417
  30 H :   -0.154608
  31 H :   -0.151534
  32 C :    0.318163
  33 H :   -0.151275
  34 H :   -0.153680

  Mayer bond orders larger than 0.100000
B(  0-C ,  1-C ) :   0.9651 B(  0-C ,  2-C ) :   0.5171 B(  0-C ,  4-C ) :  -0.1501
B(  0-C ,  5-C ) :  -0.5687 B(  0-C ,  7-H ) :   0.2132 B(  0-C ,  9-H ) :  -0.3275
B(  0-C , 10-C ) :   0.6389 B(  0-C , 11-C ) :   0.4152 B(  0-C , 12-C ) :   0.1622
B(  0-C , 14-C ) :  -0.1352 B(  0-C , 17-C ) :   0.1131 B(  1-C ,  2-C ) :  -0.1971
B(  1-C ,  3-C ) :   0.1541 B(  1-C ,  4-C ) :   0.1801 B(  1-C ,  5-C ) :  -0.1051
B(  1-C ,  6-H ) :   0.1759 B(  1-C ,  7-H ) :  -0.2274 B(  1-C ,  9-H ) :   0.2319
B(  1-C , 10-C ) :   0.6138 B(  1-C , 11-C ) :  -0.4574 B(  1-C , 12-C ) :   0.1008
B(  1-C , 17-C ) :  -0.1011 B(  1-C , 22-C ) :   0.2290 B(  1-C , 32-C ) :   0.3788
B(  2-C ,  3-C ) :   0.9699 B(  2-C ,  5-C ) :   0.1060 B(  2-C ,  6-H ) :   1.7016
B(  2-C ,  7-H ) :  -0.2138 B(  2-C , 12-C ) :   0.1493 B(  2-C , 32-C ) :   0.1605
B(  3-C ,  4-C ) :   0.9550 B(  3-C ,  5-C ) :  -0.2464 B(  3-C ,  6-H ) :  -0.1633
B(  3-C ,  7-H ) :   0.5747 B(  3-C ,  9-H ) :  -0.1351 B(  3-C , 10-C ) :   0.2162
B(  3-C , 11-C ) :   0.1622 B(  4-C ,  5-C ) :   1.1423 B(  4-C ,  8-H ) :   0.8928
B(  4-C ,  9-H ) :  -0.1590 B(  5-C ,  9-H ) :   2.4086 B(  5-C , 10-C ) :   0.6087
B(  5-C , 13-C ) :   0.1042 B(  6-H , 10-C ) :   0.3235 B(  6-H , 11-C ) :  -0.5981
B(  7-H , 10-C ) :  -0.1376 B(  7-H , 11-C ) :   0.3816 B(  8-H , 11-C ) :  -0.2513
B(  9-H , 10-C ) :  -0.5683 B( 10-C , 11-C ) :   2.2120 B( 10-C , 12-C ) :   0.3800
B( 10-C , 13-C ) :   0.1867 B( 10-C , 16-H ) :  -0.1580 B( 10-C , 17-C ) :  -0.1734
B( 10-C , 19-H ) :  -0.1528 B( 10-C , 20-H ) :  -0.4106 B( 10-C , 21-H ) :   0.2045
B( 10-C , 22-C ) :   0.1899 B( 10-C , 25-N ) :  -0.1997 B( 10-C , 28-N ) :   0.2058
B( 10-C , 29-N ) :   0.1123 B( 11-C , 12-C ) :   0.3035 B( 11-C , 13-C ) :   0.5782
B( 11-C , 14-C ) :   0.4968 B( 11-C , 16-H ) :  -0.2891 B( 11-C , 17-C ) :   0.1035
B( 11-C , 18-C ) :   0.2274 B( 11-C , 20-H ) :   0.1364 B( 11-C , 21-H ) :  -0.1746
B( 11-C , 22-C ) :  -0.3439 B( 11-C , 28-N ) :   0.1159 B( 12-C , 13-C ) :  -0.6247
B( 12-C , 14-C ) :   0.8037 B( 12-C , 15-C ) :  -0.2571 B( 12-C , 16-H ) :  -0.3758
B( 12-C , 17-C ) :   0.3376 B( 12-C , 19-H ) :  -0.1379 B( 12-C , 21-H ) :   0.4224
B( 12-C , 22-C ) :   0.1073 B( 12-C , 25-N ) :   0.2068 B( 12-C , 28-N ) :   0.1293
B( 13-C , 14-C ) :  -0.3773 B( 13-C , 15-C ) :   1.5134 B( 13-C , 16-H ) :   2.4476
B( 13-C , 17-C ) :   0.1340 B( 13-C , 18-C ) :  -0.2844 B( 14-C , 15-C ) :   0.1398
B( 14-C , 18-C ) :   0.1748 B( 14-C , 20-H ) :   0.1505 B( 14-C , 21-H ) :  -0.1985
B( 14-C , 22-C ) :   0.5179 B( 14-C , 25-N ) :   0.1035 B( 14-C , 32-C ) :   0.2693
B( 15-C , 18-C ) :   0.9847 B( 15-C , 19-H ) :   0.9200 B( 15-C , 21-H ) :  -0.1315
B( 16-H , 18-C ) :  -0.1371 B( 17-C , 18-C ) :   0.9516 B( 17-C , 20-H ) :   1.5216
B( 17-C , 21-H ) :  -0.2132 B( 17-C , 22-C ) :   0.1821 B( 18-C , 20-H ) :  -0.1208
B( 18-C , 21-H ) :   0.5853 B( 22-C , 30-H ) :   1.1238 B( 22-C , 31-H ) :   0.8987
B( 22-C , 32-C ) :   0.8332 B( 23-H , 24-C ) :   0.7857 B( 24-C , 25-N ) :   0.7257
B( 24-C , 26-H ) :   0.9104 B( 24-C , 27-H ) :   0.9199 B( 25-N , 28-N ) :   0.8967
B( 25-N , 29-N ) :   0.3244 B( 28-N , 29-N ) :   1.6074 B( 32-C , 33-H ) :   1.1244
B( 32-C , 34-H ) :   0.9546

MP2 TOTAL ENERGY:     -819.321050392 Eh
FINAL SINGLE POINT ENERGY      -819.321050392368

DIPOLE MOMENT
-------------
                                X             Y             Z
Electronic contribution:      3.28404       6.39554      -3.00259
Nuclear contribution   :     -3.87055      -6.59005       3.54803
                        -----------------------------------------
Total Dipole Moment    :     -0.58652      -0.19450       0.54543
                        -----------------------------------------
Magnitude (a.u.)       :      0.82421
Magnitude (Debye)      :      2.09499

Rotational constants in cm-1:     0.017553     0.009409     0.006365
Rotational constants in MHz :   526.211163   282.079081   190.828659

                             ****ORCA TERMINATED NORMALLY****
TOTAL RUN TIME: 0 days 0 hours 52 minutes 54 seconds 785 msec
