                         Program Version 4.2.1 -  RELEASE  -
|  1> %pal
|  2>  nprocs 32
|  3> end
|  4> !RI-MP2 aug-cc-pVTZ aug-cc-pVTZ/C TightSCF
|  5> %maxcore 4500
|  6> *xyzfile 0 1  08_14R1.xyz
|  7>
|  8>
|  9>                          ****END OF INPUT****

CARTESIAN COORDINATES (ANGSTROEM)
---------------------------------
  O      2.152303   -1.826438   -0.141550
  C      1.387976   -0.786114    0.386849
  C     -0.068232   -0.960360    0.136554
  C     -0.872530    0.108076    0.083036
  C     -0.321129    1.461140    0.128216
  C      0.998088    1.699630    0.103227
  C      1.933238    0.580193   -0.004544
  H     -0.449025   -1.971310    0.068927
  H     -1.034237    2.276559    0.129588
  H      1.403255    2.701470    0.043150
  C     -2.342882   -0.012670   -0.059010
  O     -3.093269    0.925978   -0.119913
  O     -2.769946   -1.286016   -0.112524
  H     -3.731534   -1.263080   -0.211793
  O      3.091088    0.677054   -0.349500
  H      3.007457   -1.440347   -0.382902
  H      1.475495   -0.767291    1.494955

 Total Charge           Charge          ....    0
 Multiplicity           Mult            ....    1
 Number of Electrons    NEL             ....   80
 Basis Dimension        Dim             ....  644

ORBITAL ENERGIES
----------------

  NO   OCC          E(Eh)            E(eV)
   0   2.0000     -20.629609      -561.3602
   1   2.0000     -20.580449      -560.0225
   2   2.0000     -20.568247      -559.6905
   3   2.0000     -20.566333      -559.6384
   4   2.0000     -11.407234      -310.4066
   5   2.0000     -11.353037      -308.9318
   6   2.0000     -11.323650      -308.1322
   7   2.0000     -11.295338      -307.3618
   8   2.0000     -11.287726      -307.1547
   9   2.0000     -11.278303      -306.8982
  10   2.0000     -11.258401      -306.3567
  11   2.0000      -1.487603       -40.4797
  12   2.0000      -1.424727       -38.7688
  13   2.0000      -1.382993       -37.6331
  14   2.0000      -1.382572       -37.6217
  15   2.0000      -1.179761       -32.1029
  16   2.0000      -1.064840       -28.9758
  17   2.0000      -1.028241       -27.9799
  18   2.0000      -0.897600       -24.4249
  19   2.0000      -0.873296       -23.7636
  20   2.0000      -0.826428       -22.4882
  21   2.0000      -0.761461       -20.7204
  22   2.0000      -0.732174       -19.9235
  23   2.0000      -0.707448       -19.2506
  24   2.0000      -0.706097       -19.2139
  25   2.0000      -0.676977       -18.4215
  26   2.0000      -0.673192       -18.3185
  27   2.0000      -0.654281       -17.8039
  28   2.0000      -0.640008       -17.4155
  29   2.0000      -0.616554       -16.7773
  30   2.0000      -0.590010       -16.0550
  31   2.0000      -0.580069       -15.7845
  32   2.0000      -0.562722       -15.3124
  33   2.0000      -0.538694       -14.6586
  34   2.0000      -0.513339       -13.9687
  35   2.0000      -0.495095       -13.4722
  36   2.0000      -0.476035       -12.9536
  37   2.0000      -0.464185       -12.6311
  38   2.0000      -0.432770       -11.7763
  39   2.0000      -0.361204        -9.8289
  40   0.0000       0.023131         0.6294
  41   0.0000       0.029383         0.7995
  42   0.0000       0.032748         0.8911
  43   0.0000       0.038165         1.0385
  44   0.0000       0.044456         1.2097

MULLIKEN ATOMIC CHARGES
-----------------------
   0 O :   -0.763242
   1 C :    0.899435
   2 C :   -0.938925
   3 C :    1.528412
   4 C :   -0.925278
   5 C :   -0.400258
   6 C :    0.753670
   7 H :    0.391105
   8 H :    0.398010
   9 H :    0.410287
  10 C :    0.194764
  11 O :   -0.885838
  12 O :   -0.462214
  13 H :    0.264554
  14 O :   -1.006914
  15 H :    0.236977
  16 H :    0.305455
Sum of atomic charges:   -0.0000000

LOEWDIN ATOMIC CHARGES
----------------------
   0 O :    0.842327
   1 C :   -0.288649
   2 C :    0.273846
   3 C :   -0.122096
   4 C :    0.219957
   5 C :    0.245919
   6 C :   -0.514346
   7 H :   -0.160052
   8 H :   -0.178929
   9 H :   -0.183500
  10 C :   -0.813442
  11 O :    0.466267
  12 O :    0.841609
  13 H :   -0.460051
  14 O :    0.494927
  15 H :   -0.542678
  16 H :   -0.121108

  Mayer bond orders larger than 0.100000
B(  0-O ,  1-C ) :   0.4782 B(  0-O , 15-H ) :   0.9743 B(  1-C ,  2-C ) :   0.7879
B(  1-C ,  6-C ) :   0.6576 B(  1-C , 16-H ) :   0.9199 B(  2-C ,  3-C ) :   0.9942
B(  2-C ,  5-C ) :  -0.1139 B(  2-C ,  6-C ) :   0.4337 B(  2-C ,  7-H ) :   0.8449
B(  3-C ,  4-C ) :   0.6031 B(  3-C ,  6-C ) :  -0.2712 B(  3-C , 11-O ) :  -0.1169
B(  4-C ,  5-C ) :   1.7748 B(  4-C ,  6-C ) :   0.1056 B(  4-C ,  8-H ) :   0.7711
B(  4-C , 10-C ) :   0.1165 B(  4-C , 14-O ) :   0.1062 B(  5-C ,  6-C ) :   0.7193
B(  5-C ,  9-H ) :   0.8295 B(  6-C , 14-O ) :   0.8852 B( 10-C , 11-O ) :   1.2947
B( 10-C , 12-O ) :   0.9833 B( 12-O , 13-H ) :   0.9211

MP2 TOTAL ENERGY:     -570.280153111 Eh
FINAL SINGLE POINT ENERGY      -570.280153111072

DIPOLE MOMENT
-------------
                                X             Y             Z
Electronic contribution:     -1.36459       0.19470      -0.63926
Nuclear contribution   :      0.64500      -0.47553       1.10209
                        -----------------------------------------
Total Dipole Moment    :     -0.71959      -0.28083       0.46283
                        -----------------------------------------
Magnitude (a.u.)       :      0.90049
Magnitude (Debye)      :      2.28886

Rotational constants in cm-1:     0.079395     0.024240     0.018888
Rotational constants in MHz :  2380.189451   726.707407   566.256144

                             ****ORCA TERMINATED NORMALLY****
TOTAL RUN TIME: 0 days 0 hours 4 minutes 36 seconds 744 msec
