                         Program Version 4.2.1 -  RELEASE  -
|  1> %pal
|  2>  nprocs 32
|  3> end
|  4> !RI-MP2 aug-cc-pVTZ aug-cc-pVTZ/C TightSCF
|  5> %maxcore 4500
|  6> *xyzfile 0 1  10_64R1.xyz
|  7>
|  8>
|  9>                          ****END OF INPUT****

CARTESIAN COORDINATES (ANGSTROEM)
---------------------------------
  C      0.585378    0.140084   -0.000014
  C      1.512365    1.251823    0.000026
  C      1.038892   -1.232701   -0.000093
  C      2.865579    1.282437    0.000058
  C      2.294471   -1.741749   -0.000089
  C      3.822900    0.224616    0.000061
  C      3.570811   -1.103089   -0.000004
  C     -0.772820    0.432004    0.000011
  C     -1.187562    1.795710    0.000082
  N     -1.474977    2.910189    0.000139
  C     -1.860949   -0.562299   -0.000027
  O     -1.751098   -1.768515   -0.000066
  O     -3.056691    0.042275   -0.000011
  C     -4.196530   -0.818274   -0.000036
  H     -4.196501   -1.450128   -0.888031
  H     -4.196485   -1.450201    0.887906
  H     -5.057854   -0.156098   -0.000002
  H      0.239536   -1.958855   -0.000159
  H      2.339182   -2.826302   -0.000157
  H      4.426585   -1.769323    0.000002
  H      4.862406    0.533321    0.000114
  H      1.039346    2.226011    0.000037
  H      3.295737    2.278803    0.000092

 Total Charge           Charge          ....    0
 Multiplicity           Mult            ....    1
 Number of Electrons    NEL             ....   98
 Basis Dimension        Dim             ....  851

ORBITAL ENERGIES
----------------

  NO   OCC          E(Eh)            E(eV)
   0   2.0000     -20.602028      -560.6097
   1   2.0000     -20.541262      -558.9562
   2   2.0000     -15.550888      -423.1612
   3   2.0000     -11.388809      -309.9052
   4   2.0000     -11.317759      -307.9719
   5   2.0000     -11.284871      -307.0770
   6   2.0000     -11.282609      -307.0154
   7   2.0000     -11.282186      -307.0039
   8   2.0000     -11.279451      -306.9295
   9   2.0000     -11.277839      -306.8856
  10   2.0000     -11.274100      -306.7838
  11   2.0000     -11.267951      -306.6165
  12   2.0000     -11.266931      -306.5888
  13   2.0000     -11.261826      -306.4499
  14   2.0000      -1.466658       -39.9098
  15   2.0000      -1.360875       -37.0313
  16   2.0000      -1.214075       -33.0367
  17   2.0000      -1.181997       -32.1638
  18   2.0000      -1.123702       -30.5775
  19   2.0000      -1.088812       -29.6281
  20   2.0000      -1.039654       -28.2904
  21   2.0000      -0.974431       -26.5156
  22   2.0000      -0.924294       -25.1513
  23   2.0000      -0.905213       -24.6321
  24   2.0000      -0.805658       -21.9231
  25   2.0000      -0.775774       -21.1099
  26   2.0000      -0.761222       -20.7139
  27   2.0000      -0.738609       -20.0986
  28   2.0000      -0.715202       -19.4616
  29   2.0000      -0.682864       -18.5817
  30   2.0000      -0.675207       -18.3733
  31   2.0000      -0.660327       -17.9684
  32   2.0000      -0.647599       -17.6221
  33   2.0000      -0.607620       -16.5342
  34   2.0000      -0.594313       -16.1721
  35   2.0000      -0.579438       -15.7673
  36   2.0000      -0.571216       -15.5436
  37   2.0000      -0.550464       -14.9789
  38   2.0000      -0.541499       -14.7349
  39   2.0000      -0.534049       -14.5322
  40   2.0000      -0.528876       -14.3915
  41   2.0000      -0.521155       -14.1814
  42   2.0000      -0.494994       -13.4695
  43   2.0000      -0.472751       -12.8642
  44   2.0000      -0.466129       -12.6840
  45   2.0000      -0.434067       -11.8116
  46   2.0000      -0.423960       -11.5365
  47   2.0000      -0.413547       -11.2532
  48   2.0000      -0.300556        -8.1786
  49   0.0000       0.017270         0.4699
  50   0.0000       0.024797         0.6748
  51   0.0000       0.026165         0.7120
  52   0.0000       0.027729         0.7545
  53   0.0000       0.033898         0.9224

MULLIKEN ATOMIC CHARGES
-----------------------
   0 C :    1.427242
   1 C :   -1.075663
   2 C :   -0.559767
   3 C :   -0.179054
   4 C :   -0.081399
   5 C :   -0.332387
   6 C :   -0.232091
   7 C :    0.870125
   8 C :    1.403337
   9 N :   -1.027577
  10 C :    0.234154
  11 O :   -0.947927
  12 O :   -0.473615
  13 C :   -0.890756
  14 H :    0.391600
  15 H :    0.391607
  16 H :    0.345897
  17 H :   -0.023373
  18 H :    0.161548
  19 H :    0.295191
  20 H :    0.253134
  21 H :   -0.196688
  22 H :    0.246459
Sum of atomic charges:   -0.0000000

LOEWDIN ATOMIC CHARGES
----------------------
   0 C :   -0.081673
   1 C :    0.257508
   2 C :    0.268496
   3 C :    0.246169
   4 C :    0.246778
   5 C :    0.223847
   6 C :    0.223834
   7 C :   -0.149059
   8 C :   -0.319679
   9 N :    0.298704
  10 C :   -0.841050
  11 O :    0.502344
  12 O :    0.566274
  13 C :    0.363735
  14 H :   -0.179071
  15 H :   -0.179073
  16 H :   -0.182419
  17 H :   -0.306503
  18 H :   -0.178562
  19 H :   -0.182604
  20 H :   -0.183037
  21 H :   -0.238239
  22 H :   -0.176720

  Mayer bond orders larger than 0.100000
B(  0-C ,  2-C ) :   0.7187 B(  0-C ,  3-C ) :   0.1093 B(  0-C ,  7-C ) :   0.8128
B(  0-C ,  9-N ) :   0.1329 B(  0-C , 10-C ) :   0.1771 B(  0-C , 12-O ) :   0.1401
B(  1-C ,  2-C ) :  -0.6726 B(  1-C ,  3-C ) :   1.3035 B(  1-C ,  6-C ) :   0.1013
B(  1-C ,  7-C ) :   0.5251 B(  1-C ,  8-C ) :  -0.2396 B(  1-C , 10-C ) :  -0.1578
B(  1-C , 17-H ) :   0.2028 B(  1-C , 21-H ) :   1.8702 B(  2-C ,  4-C ) :   1.0810
B(  2-C ,  6-C ) :  -0.1409 B(  2-C , 10-C ) :   0.2520 B(  2-C , 17-H ) :   1.5599
B(  2-C , 18-H ) :  -0.1024 B(  3-C ,  5-C ) :   0.9298 B(  3-C ,  7-C ) :  -0.1568
B(  3-C , 20-H ) :  -0.1153 B(  3-C , 22-H ) :   0.9816 B(  4-C ,  6-C ) :   0.7883
B(  4-C , 17-H ) :  -0.1679 B(  4-C , 18-H ) :   1.1390 B(  4-C , 19-H ) :  -0.1022
B(  5-C ,  6-C ) :   1.4980 B(  5-C ,  7-C ) :   0.1221 B(  5-C , 19-H ) :  -0.1151
B(  5-C , 20-H ) :   1.0263 B(  5-C , 22-H ) :  -0.1535 B(  6-C , 18-H ) :  -0.1570
B(  6-C , 19-H ) :   0.9690 B(  6-C , 20-H ) :  -0.1046 B(  7-C ,  8-C ) :   1.4562
B(  7-C ,  9-N ) :   0.2124 B(  7-C , 12-O ) :  -0.1944 B(  7-C , 17-H ) :  -0.1704
B(  7-C , 19-H ) :   0.1062 B(  7-C , 21-H ) :  -0.3171 B(  8-C ,  9-N ) :   1.3670
B(  8-C , 10-C ) :  -0.1982 B(  8-C , 12-O ) :  -0.1242 B(  8-C , 17-H ) :  -0.2284
B(  8-C , 21-H ) :  -0.1588 B(  9-N , 10-C ) :   0.1568 B( 10-C , 11-O ) :   1.1375
B( 10-C , 12-O ) :   1.0797 B( 10-C , 17-H ) :   0.2126 B( 12-O , 13-C ) :   0.9188
B( 13-C , 14-H ) :   0.8714 B( 13-C , 15-H ) :   0.8714 B( 13-C , 16-H ) :   0.9059

MP2 TOTAL ENERGY:     -628.547532109 Eh
FINAL SINGLE POINT ENERGY      -628.547532109297

DIPOLE MOMENT
-------------
                                X             Y             Z
Electronic contribution:     -0.68083       3.28889       0.00013
Nuclear contribution   :      2.62266      -4.50586      -0.00020
                        -----------------------------------------
Total Dipole Moment    :      1.94183      -1.21697      -0.00006
                        -----------------------------------------
Magnitude (a.u.)       :      2.29167
Magnitude (Debye)      :      5.82495

Rotational constants in cm-1:     0.046642     0.014464     0.011063
Rotational constants in MHz :  1398.278023   433.610361   331.664770

                             ****ORCA TERMINATED NORMALLY****
TOTAL RUN TIME: 0 days 0 hours 12 minutes 8 seconds 999 msec
