                         Program Version 4.2.1 -  RELEASE  -
|  1> %pal
|  2>  nprocs 32
|  3> end
|  4> !RI-MP2 aug-cc-pVTZ aug-cc-pVTZ/C TightSCF
|  5> %maxcore 4500
|  6> *xyzfile 0 2  04_4P.xyz
|  7>
|  8>
|  9>                          ****END OF INPUT****

CARTESIAN COORDINATES (ANGSTROEM)
---------------------------------
  C      1.730884    0.433051   -0.257362
  H      1.692948    0.580502   -1.341959
  H      1.899999    1.423756    0.178889
  C      0.386757   -0.105440    0.219766
  H      0.207654   -1.089489   -0.225603
  C     -2.123895    0.224263    0.301253
  H     -2.159086    0.029057    1.390114
  O     -2.482560   -0.933898   -0.324302
  H      0.423080   -0.260264    1.305307
  H     -2.953702    0.938351    0.144261
  C     -0.784668    0.808598   -0.120124
  C      2.895827   -0.485447    0.093005
  H     -0.656431    1.782069    0.366844
  H     -0.811244    0.994767   -1.198554
  H      3.845973   -0.080684   -0.261607
  H      2.765708   -1.473076   -0.357011
  H      2.976158   -0.623947    1.174512

 Total Charge           Charge          ....    0
 Multiplicity           Mult            ....    2
 Number of Electrons    NEL             ....   49
 Basis Dimension        Dim             ....  529

ORBITAL ENERGIES
----------------
                 SPIN UP ORBITALS
  NO   OCC          E(Eh)            E(eV)
   0   1.0000     -20.615217      -560.9686
   1   1.0000     -11.279416      -306.9285
   2   1.0000     -11.223058      -305.3949
   3   1.0000     -11.219107      -305.2874
   4   1.0000     -11.218090      -305.2598
   5   1.0000     -11.211677      -305.0852
   6   1.0000      -1.407669       -38.3046
   7   1.0000      -1.083751       -29.4904
   8   1.0000      -1.012652       -27.5557
   9   1.0000      -0.915662       -24.9164
  10   1.0000      -0.825772       -22.4704
  11   1.0000      -0.791741       -21.5444
  12   1.0000      -0.706799       -19.2330
  13   1.0000      -0.665272       -18.1030
  14   1.0000      -0.630181       -17.1481
  15   1.0000      -0.615592       -16.7511
  16   1.0000      -0.588058       -16.0019
  17   1.0000      -0.566247       -15.4084
  18   1.0000      -0.537309       -14.6209
  19   1.0000      -0.517280       -14.0759
  20   1.0000      -0.497240       -13.5306
  21   1.0000      -0.481703       -13.1078
  22   1.0000      -0.466001       -12.6805
  23   1.0000      -0.464696       -12.6450
  24   1.0000      -0.443174       -12.0594
  25   0.0000       0.029553         0.8042
  26   0.0000       0.032805         0.8927
  27   0.0000       0.036605         0.9961
  28   0.0000       0.041764         1.1365
  29   0.0000       0.052209         1.4207

                 SPIN DOWN ORBITALS
  NO   OCC          E(Eh)            E(eV)
   0   1.0000     -20.575794      -559.8958
   1   1.0000     -11.282325      -307.0077
   2   1.0000     -11.223102      -305.3961
   3   1.0000     -11.219119      -305.2878
   4   1.0000     -11.218095      -305.2599
   5   1.0000     -11.211676      -305.0852
   6   1.0000      -1.280096       -34.8332
   7   1.0000      -1.080410       -29.3994
   8   1.0000      -1.004847       -27.3433
   9   1.0000      -0.904600       -24.6154
  10   1.0000      -0.815421       -22.1887
  11   1.0000      -0.787118       -21.4186
  12   1.0000      -0.655807       -17.8454
  13   1.0000      -0.624741       -17.0001
  14   1.0000      -0.610961       -16.6251
  15   1.0000      -0.594589       -16.1796
  16   1.0000      -0.566683       -15.4202
  17   1.0000      -0.551892       -15.0177
  18   1.0000      -0.522876       -14.2282
  19   1.0000      -0.494690       -13.4612
  20   1.0000      -0.477036       -12.9808
  21   1.0000      -0.469540       -12.7768
  22   1.0000      -0.465585       -12.6692
  23   1.0000      -0.426074       -11.5941
  24   0.0000       0.029576         0.8048
  25   0.0000       0.032823         0.8932
  26   0.0000       0.036615         0.9963
  27   0.0000       0.041832         1.1383
  28   0.0000       0.052129         1.4185

MULLIKEN ATOMIC CHARGES AND SPIN POPULATIONS
--------------------------------------------
   0 C :   -0.474628   -0.000557
   1 H :    0.242732    0.000069
   2 H :    0.245319   -0.000190
   3 C :   -0.262261    0.003944
   4 H :    0.297328   -0.002269
   5 C :   -0.132323   -0.225333
   6 H :    0.272455    0.080761
   7 O :   -0.555816    1.037297
   8 H :    0.251322   -0.000348
   9 H :    0.305583    0.085898
  10 C :   -0.542807    0.026687
  11 C :   -0.974076    0.000598
  12 H :    0.258317   -0.001905
  13 H :    0.263285   -0.004705
  14 H :    0.270575    0.000080
  15 H :    0.268466   -0.000035
  16 H :    0.266531    0.000008
Sum of atomic charges         :    0.0000000

LOEWDIN ATOMIC CHARGES AND SPIN POPULATIONS
-------------------------------------------
   0 C :    0.249889   -0.000084
   1 H :   -0.146164   -0.000023
   2 H :   -0.145993    0.000004
   3 C :    0.249121    0.000368
   4 H :   -0.147219    0.000149
   5 C :   -0.116816    0.124927
   6 H :   -0.164212    0.022184
   7 O :    0.508449    0.832657
   8 H :   -0.141527    0.000051
   9 H :   -0.166169    0.024776
  10 C :    0.251338   -0.003555
  11 C :    0.576099   -0.000023
  12 H :   -0.145654   -0.000641
  13 H :   -0.148992   -0.000783
  14 H :   -0.172628   -0.000009
  15 H :   -0.169383    0.000005
  16 H :   -0.170140   -0.000003

  Mayer bond orders larger than 0.100000
B(  0-C ,  1-H ) :   0.9621 B(  0-C ,  2-H ) :   0.9535 B(  0-C ,  3-C ) :   0.8822
B(  0-C , 11-C ) :   0.9126 B(  3-C ,  4-H ) :   0.9279 B(  3-C ,  8-H ) :   0.9421
B(  3-C , 10-C ) :   0.8959 B(  5-C ,  6-H ) :   0.9445 B(  5-C ,  7-O ) :   0.7188
B(  5-C ,  9-H ) :   0.9405 B(  5-C , 10-C ) :   0.9845 B( 10-C , 12-H ) :   0.9535
B( 10-C , 13-H ) :   0.9156 B( 11-C , 14-H ) :   0.9913 B( 11-C , 15-H ) :   0.9584
B( 11-C , 16-H ) :   0.9633

MP2 TOTAL ENERGY:     -271.747300687 Eh
FINAL SINGLE POINT ENERGY      -271.747300686609

DIPOLE MOMENT
-------------
                                X             Y             Z
Electronic contribution:     -7.34412      -1.70975      -0.93471
Nuclear contribution   :      7.59497       2.32996       1.23565
                        -----------------------------------------
Total Dipole Moment    :      0.25085       0.62021       0.30094
                        -----------------------------------------
Magnitude (a.u.)       :      0.73359
Magnitude (Debye)      :      1.86463

Rotational constants in cm-1:     0.325034     0.046276     0.043231
Rotational constants in MHz :  9744.270069  1387.311032  1296.030600

                             ****ORCA TERMINATED NORMALLY****
TOTAL RUN TIME: 0 days 0 hours 6 minutes 2 seconds 73 msec
