                         Program Version 4.2.1 -  RELEASE  -
|  1> %pal
|  2>  nprocs 32
|  3> end
|  4> !RI-MP2 aug-cc-pVTZ aug-cc-pVTZ/C TightSCF
|  5> %maxcore 4500
|  6> *xyzfile 0 1  04_5P2.xyz
|  7>
|  8>
|  9>                          ****END OF INPUT****

CARTESIAN COORDINATES (ANGSTROEM)
---------------------------------
  C      0.663693   -0.020627    0.000000
  H      1.024004   -0.544893    0.891833
  H      1.024003   -0.544900   -0.891829
  H      1.082752    0.984635   -0.000004
  O     -0.745360    0.122086    0.000000
  H     -1.150031   -0.747773    0.000000

 Total Charge           Charge          ....    0
 Multiplicity           Mult            ....    1
 Number of Electrons    NEL             ....   18
 Basis Dimension        Dim             ....  184

ORBITAL ENERGIES
----------------

  NO   OCC          E(Eh)            E(eV)
   0   2.0000     -20.558894      -559.4360
   1   2.0000     -11.271777      -306.7206
   2   2.0000      -1.358823       -36.9755
   3   2.0000      -0.925534       -25.1851
   4   2.0000      -0.692010       -18.8305
   5   2.0000      -0.620440       -16.8830
   6   2.0000      -0.594797       -16.1852
   7   2.0000      -0.502527       -13.6744
   8   2.0000      -0.451083       -12.2746
   9   0.0000       0.028553         0.7770
  10   0.0000       0.042937         1.1684
  11   0.0000       0.046701         1.2708
  12   0.0000       0.053013         1.4426
  13   0.0000       0.099035         2.6949

MULLIKEN ATOMIC CHARGES
-----------------------
   0 C :   -0.623209
   1 H :    0.304205
   2 H :    0.304206
   3 H :    0.323156
   4 O :   -0.499485
   5 H :    0.191128
Sum of atomic charges:   -0.0000000

LOEWDIN ATOMIC CHARGES
----------------------
   0 C :    0.316655
   1 H :   -0.189663
   2 H :   -0.189664
   3 H :   -0.198696
   4 O :    0.773201
   5 H :   -0.511833

  Mayer bond orders larger than 0.100000
B(  0-C ,  1-H ) :   0.9023 B(  0-C ,  2-H ) :   0.9023 B(  0-C ,  3-H ) :   0.9069
B(  0-C ,  4-O ) :   0.8231 B(  4-O ,  5-H ) :   0.9860

MP2 TOTAL ENERGY:     -115.528887774 Eh
FINAL SINGLE POINT ENERGY      -115.528887774422

DIPOLE MOMENT
-------------
                                X             Y             Z
Electronic contribution:     -1.72814       0.29347      -0.00000
Nuclear contribution   :      2.07733      -0.89784      -0.00000
                        -----------------------------------------
Total Dipole Moment    :      0.34919      -0.60437      -0.00000
                        -----------------------------------------
Magnitude (a.u.)       :      0.69799
Magnitude (Debye)      :      1.77415

Rotational constants in cm-1:     4.289901     0.829344     0.800869
Rotational constants in MHz : 128608.001858 24863.116166 24009.457579

                             ****ORCA TERMINATED NORMALLY****
TOTAL RUN TIME: 0 days 0 hours 0 minutes 11 seconds 510 msec
