                         Program Version 4.2.1 -  RELEASE  -
|  1> %pal
|  2>  nprocs 32
|  3> end
|  4> !RI-MP2 aug-cc-pVTZ aug-cc-pVTZ/C TightSCF
|  5> %maxcore 4500
|  6> *xyzfile 1 1  05_36R2.xyz
|  7>
|  8>
|  9>                          ****END OF INPUT****

CARTESIAN COORDINATES (ANGSTROEM)
---------------------------------
  N      0.608670    1.922774   -0.058101
  C     -0.604506    1.162829    0.076551
  C     -0.765524    0.283068    1.144008
  C     -1.940946   -0.418684    1.267114
  C     -2.972538   -0.244839    0.334715
  C     -2.809070    0.654597   -0.719035
  C     -1.620401    1.359622   -0.840306
  O     -4.072804   -0.975716    0.544769
  C     -5.177479   -0.842804   -0.342497
  C      1.844715    1.512675   -0.048690
  C      2.218725    0.103625   -0.105675
  C      3.366533   -0.328351    0.569148
  C      3.758339   -1.652935    0.496050
  C      3.036400   -2.547016   -0.283203
  C      1.915360   -2.118702   -0.985108
  C      1.495641   -0.806383   -0.888632
  C      2.907048    2.556867    0.002968
  H     -4.898543   -1.130951   -1.358906
  H      1.366162   -2.812788   -1.607867
  H     -5.564041    0.179025   -0.333113
  H     -5.938343   -1.521808    0.031019
  H      4.632872   -1.985994    1.039506
  H      3.352239   -3.580629   -0.350602
  H      3.649887    2.376135   -0.773943
  H      3.423903    2.502822    0.964384
  H      2.500527    3.562343   -0.103273
  H      3.943459    0.359519    1.173046
  H      0.623184   -0.484365   -1.439494
  H      0.023956    0.151452    1.872774
  H     -1.490971    2.053265   -1.663171
  H     -3.593649    0.814121   -1.443709
  H     -2.099844   -1.105594    2.087646
  H      0.477160    2.928345   -0.110194

 Total Charge           Charge          ....    1
 Multiplicity           Mult            ....    1
 Number of Electrons    NEL             ....  120
 Basis Dimension        Dim             .... 1150

ORBITAL ENERGIES
----------------

  NO   OCC          E(Eh)            E(eV)
   0   2.0000     -20.694018      -563.1129
   1   2.0000     -15.804469      -430.0615
   2   2.0000     -11.512809      -313.2795
   3   2.0000     -11.425439      -310.9020
   4   2.0000     -11.408511      -310.4414
   5   2.0000     -11.397106      -310.1310
   6   2.0000     -11.394629      -310.0636
   7   2.0000     -11.386582      -309.8447
   8   2.0000     -11.384080      -309.7766
   9   2.0000     -11.378976      -309.6377
  10   2.0000     -11.376461      -309.5692
  11   2.0000     -11.375057      -309.5310
  12   2.0000     -11.372815      -309.4700
  13   2.0000     -11.364890      -309.2544
  14   2.0000     -11.364257      -309.2371
  15   2.0000     -11.354226      -308.9642
  16   2.0000     -11.350957      -308.8753
  17   2.0000      -1.527071       -41.5537
  18   2.0000      -1.477476       -40.2042
  19   2.0000      -1.307387       -35.5758
  20   2.0000      -1.285570       -34.9821
  21   2.0000      -1.217822       -33.1386
  22   2.0000      -1.164225       -31.6802
  23   2.0000      -1.158766       -31.5316
  24   2.0000      -1.155808       -31.4511
  25   2.0000      -1.131167       -30.7806
  26   2.0000      -1.061676       -28.8897
  27   2.0000      -1.031814       -28.0771
  28   2.0000      -0.976559       -26.5735
  29   2.0000      -0.973430       -26.4884
  30   2.0000      -0.963035       -26.2055
  31   2.0000      -0.928144       -25.2561
  32   2.0000      -0.878375       -23.9018
  33   2.0000      -0.861741       -23.4492
  34   2.0000      -0.830626       -22.6025
  35   2.0000      -0.817003       -22.2318
  36   2.0000      -0.804383       -21.8884
  37   2.0000      -0.777176       -21.1480
  38   2.0000      -0.762575       -20.7507
  39   2.0000      -0.760479       -20.6937
  40   2.0000      -0.750309       -20.4169
  41   2.0000      -0.749605       -20.3978
  42   2.0000      -0.737013       -20.0551
  43   2.0000      -0.726493       -19.7689
  44   2.0000      -0.723446       -19.6860
  45   2.0000      -0.710275       -19.3276
  46   2.0000      -0.701330       -19.0842
  47   2.0000      -0.681047       -18.5322
  48   2.0000      -0.669611       -18.2210
  49   2.0000      -0.654760       -17.8169
  50   2.0000      -0.645211       -17.5571
  51   2.0000      -0.638534       -17.3754
  52   2.0000      -0.632241       -17.2042
  53   2.0000      -0.626554       -17.0494
  54   2.0000      -0.597558       -16.2604
  55   2.0000      -0.585235       -15.9250
  56   2.0000      -0.489009       -13.3066
  57   2.0000      -0.479408       -13.0454
  58   2.0000      -0.468261       -12.7420
  59   2.0000      -0.432888       -11.7795
  60   0.0000      -0.092074        -2.5055
  61   0.0000      -0.071813        -1.9541
  62   0.0000      -0.055346        -1.5060
  63   0.0000      -0.053481        -1.4553
  64   0.0000      -0.048910        -1.3309

MULLIKEN ATOMIC CHARGES
-----------------------
   0 N :   -0.664258
   1 C :    1.838970
   2 C :   -0.572710
   3 C :   -1.004347
   4 C :    1.288968
   5 C :   -0.288625
   6 C :   -1.192420
   7 O :   -0.845048
   8 C :   -0.906480
   9 C :    0.533005
  10 C :    2.272379
  11 C :   -1.124913
  12 C :   -0.750400
  13 C :   -0.142248
  14 C :   -0.994673
  15 C :   -0.913241
  16 C :   -0.828938
  17 H :    0.372165
  18 H :    0.393278
  19 H :    0.378935
  20 H :    0.382934
  21 H :    0.402185
  22 H :    0.651133
  23 H :    0.363009
  24 H :    0.348817
  25 H :    0.288400
  26 H :   -0.030155
  27 H :    0.272856
  28 H :    0.450465
  29 H :    0.437234
  30 H :    0.162976
  31 H :    0.466098
  32 H :   -0.045352
Sum of atomic charges:    1.0000000

LOEWDIN ATOMIC CHARGES
----------------------
   0 N :    0.621556
   1 C :   -0.208950
   2 C :    0.223144
   3 C :    0.250044
   4 C :   -0.371773
   5 C :    0.238936
   6 C :    0.233386
   7 O :    0.591424
   8 C :    0.375698
   9 C :   -0.085116
  10 C :   -0.085357
  11 C :    0.237423
  12 C :    0.244613
  13 C :    0.246430
  14 C :    0.249247
  15 C :    0.234001
  16 C :    0.667778
  17 H :   -0.167927
  18 H :   -0.164653
  19 H :   -0.166862
  20 H :   -0.170093
  21 H :   -0.166011
  22 H :   -0.157466
  23 H :   -0.131065
  24 H :   -0.144445
  25 H :   -0.147335
  26 H :   -0.173649
  27 H :   -0.175948
  28 H :   -0.155016
  29 H :   -0.155385
  30 H :   -0.192132
  31 H :   -0.163358
  32 H :   -0.231139

  Mayer bond orders larger than 0.100000
B(  0-N ,  1-C ) :   0.2492 B(  0-N ,  2-C ) :  -0.1897 B(  0-N ,  6-C ) :  -0.1021
B(  0-N ,  9-C ) :   1.4317 B(  0-N , 10-C ) :  -0.1950 B(  0-N , 15-C ) :   0.1714
B(  0-N , 32-H ) :   1.4385 B(  1-C ,  2-C ) :   0.6675 B(  1-C ,  6-C ) :   0.1667
B(  1-C ,  9-C ) :  -0.4983 B(  1-C , 10-C ) :   0.1082 B(  1-C , 18-H ) :  -0.1039
B(  1-C , 28-H ) :  -0.1223 B(  1-C , 32-H ) :  -0.2031 B(  2-C ,  3-C ) :   1.4895
B(  2-C ,  5-C ) :  -0.1033 B(  2-C , 10-C ) :  -0.1288 B(  2-C , 15-C ) :   0.1862
B(  2-C , 28-H ) :   0.8191 B(  3-C ,  4-C ) :   0.9227 B(  3-C ,  5-C ) :   0.1805
B(  3-C ,  7-O ) :   0.3084 B(  3-C , 31-H ) :   0.7766 B(  4-C ,  5-C ) :   1.1749
B(  4-C ,  6-C ) :   0.1178 B(  4-C ,  7-O ) :   0.2499 B(  5-C ,  6-C ) :   1.1017
B(  5-C ,  7-O ) :  -0.3613 B(  5-C , 29-H ) :  -0.1201 B(  5-C , 30-H ) :   1.2425
B(  6-C ,  9-C ) :   0.2258 B(  6-C , 29-H ) :   0.8487 B(  6-C , 30-H ) :  -0.1064
B(  7-O ,  8-C ) :   0.9865 B(  8-C , 17-H ) :   0.8709 B(  8-C , 19-H ) :   0.8770
B(  8-C , 20-H ) :   0.9179 B(  8-C , 30-H ) :  -0.1343 B(  9-C , 10-C ) :   0.3261
B(  9-C , 11-C ) :   0.2551 B(  9-C , 13-C ) :   0.2231 B(  9-C , 15-C ) :   0.2089
B(  9-C , 16-C ) :   0.5623 B(  9-C , 18-H ) :   0.2200 B(  9-C , 26-H ) :  -0.2995
B(  9-C , 27-H ) :  -0.2575 B( 10-C , 14-C ) :  -0.2172 B( 10-C , 15-C ) :   0.2378
B( 10-C , 18-H ) :  -0.1725 B( 10-C , 22-H ) :   0.1650 B( 10-C , 26-H ) :  -0.3214
B( 11-C , 12-C ) :   1.3480 B( 11-C , 14-C ) :   0.1442 B( 11-C , 15-C ) :  -0.3387
B( 11-C , 16-C ) :  -0.1259 B( 11-C , 26-H ) :   1.9816 B( 12-C , 13-C ) :   1.1055
B( 12-C , 15-C ) :   0.1506 B( 12-C , 21-H ) :   0.8973 B( 12-C , 22-H ) :  -0.1783
B( 12-C , 26-H ) :  -0.1088 B( 13-C , 14-C ) :   1.1585 B( 13-C , 22-H ) :   0.5303
B( 14-C , 15-C ) :   1.3873 B( 14-C , 18-H ) :   0.8861 B( 14-C , 22-H ) :  -0.1947
B( 15-C , 26-H ) :   0.2333 B( 15-C , 27-H ) :   1.3180 B( 16-C , 23-H ) :   0.9668
B( 16-C , 24-H ) :   0.9770 B( 16-C , 25-H ) :   0.9705 B( 26-H , 27-H ) :   0.1025

MP2 TOTAL ENERGY:     -709.539673853 Eh
FINAL SINGLE POINT ENERGY      -709.539673853405

DIPOLE MOMENT
-------------
                                X             Y             Z
Electronic contribution:      1.18946      -0.76688       1.54178
Nuclear contribution   :      0.34878       2.31044      -2.01606
                        -----------------------------------------
Total Dipole Moment    :      1.53824       1.54355      -0.47427
                        -----------------------------------------
Magnitude (a.u.)       :      2.23017
Magnitude (Debye)      :      5.66865

Rotational constants in cm-1:     0.029012     0.008995     0.007541
Rotational constants in MHz :   869.762743   269.656739   226.076689

                             ****ORCA TERMINATED NORMALLY****
TOTAL RUN TIME: 0 days 0 hours 29 minutes 15 seconds 458 msec
