                         Program Version 4.2.1 -  RELEASE  -
|  1> %pal
|  2>  nprocs 32
|  3> end
|  4> !RI-MP2 aug-cc-pVTZ aug-cc-pVTZ/C TightSCF
|  5> %maxcore 4500
|  6> *xyzfile 0 1  05_40R1.xyz
|  7>
|  8>
|  9>                          ****END OF INPUT****

CARTESIAN COORDINATES (ANGSTROEM)
---------------------------------
  O      3.651402   -0.049156   -0.000098
  C      2.549833    0.456912   -0.000026
  O      2.386464    1.797103    0.000027
  C      3.587059    2.567374   -0.000016
  C      1.259037   -0.232485    0.000017
  C     -0.000000    0.607210    0.000014
  C     -1.259037   -0.232485    0.000009
  C     -1.221633   -1.580883    0.000033
  N     -0.000000   -2.225495    0.000064
  C      1.221633   -1.580883    0.000053
  C     -2.401754   -2.505966    0.000036
  C     -2.549833    0.456912   -0.000017
  O     -2.386464    1.797103   -0.000054
  C     -3.587059    2.567374   -0.000082
  C      2.401754   -2.505966    0.000066
  O     -3.651402   -0.049156   -0.000005
  H     -4.182615    2.349076    0.886509
  H     -4.182635    2.348984   -0.886637
  H     -3.268624    3.606793   -0.000138
  H      0.000000   -3.230770    0.000094
  H      0.000003    1.277448   -0.864026
  H     -0.000003    1.277449    0.864054
  H     -3.032607   -2.332819   -0.870524
  H     -3.032566   -2.332861    0.870635
  H     -2.071998   -3.546911    0.000004
  H      3.032722   -2.332664    0.870509
  H      3.032451   -2.333016   -0.870650
  H      2.071998   -3.546911    0.000320
  H      4.182582    2.349049   -0.886622
  H      4.182669    2.349011    0.886523
  H      3.268625    3.606793    0.000022

 Total Charge           Charge          ....    0
 Multiplicity           Mult            ....    1
 Number of Electrons    NEL             ....  120
 Basis Dimension        Dim             .... 1081

ORBITAL ENERGIES
----------------

  NO   OCC          E(Eh)            E(eV)
   0   2.0000     -20.591703      -560.3287
   1   2.0000     -20.591703      -560.3287
   2   2.0000     -20.524773      -558.5075
   3   2.0000     -20.524773      -558.5075
   4   2.0000     -15.611284      -424.8046
   5   2.0000     -11.367741      -309.3320
   6   2.0000     -11.367740      -309.3319
   7   2.0000     -11.308624      -307.7233
   8   2.0000     -11.308605      -307.7228
   9   2.0000     -11.276413      -306.8468
  10   2.0000     -11.276413      -306.8468
  11   2.0000     -11.235702      -305.7390
  12   2.0000     -11.235702      -305.7390
  13   2.0000     -11.229077      -305.5587
  14   2.0000     -11.225402      -305.4587
  15   2.0000     -11.225342      -305.4571
  16   2.0000      -1.450775       -39.4776
  17   2.0000      -1.450526       -39.4708
  18   2.0000      -1.344751       -36.5925
  19   2.0000      -1.344552       -36.5871
  20   2.0000      -1.301218       -35.4079
  21   2.0000      -1.105880       -30.0925
  22   2.0000      -1.097410       -29.8621
  23   2.0000      -1.002466       -27.2785
  24   2.0000      -0.996350       -27.1121
  25   2.0000      -0.965389       -26.2696
  26   2.0000      -0.937555       -25.5122
  27   2.0000      -0.895379       -24.3645
  28   2.0000      -0.849050       -23.1038
  29   2.0000      -0.823262       -22.4021
  30   2.0000      -0.767539       -20.8858
  31   2.0000      -0.743027       -20.2188
  32   2.0000      -0.695485       -18.9251
  33   2.0000      -0.672839       -18.3089
  34   2.0000      -0.671257       -18.2658
  35   2.0000      -0.669059       -18.2060
  36   2.0000      -0.663412       -18.0524
  37   2.0000      -0.655167       -17.8280
  38   2.0000      -0.645294       -17.5593
  39   2.0000      -0.624084       -16.9822
  40   2.0000      -0.621869       -16.9219
  41   2.0000      -0.585946       -15.9444
  42   2.0000      -0.584401       -15.9024
  43   2.0000      -0.578236       -15.7346
  44   2.0000      -0.570801       -15.5323
  45   2.0000      -0.568760       -15.4767
  46   2.0000      -0.548174       -14.9166
  47   2.0000      -0.539341       -14.6762
  48   2.0000      -0.534512       -14.5448
  49   2.0000      -0.529540       -14.4095
  50   2.0000      -0.527782       -14.3617
  51   2.0000      -0.516349       -14.0506
  52   2.0000      -0.516212       -14.0468
  53   2.0000      -0.502805       -13.6820
  54   2.0000      -0.453720       -12.3463
  55   2.0000      -0.453564       -12.3421
  56   2.0000      -0.445889       -12.1332
  57   2.0000      -0.425053       -11.5663
  58   2.0000      -0.372885       -10.1467
  59   2.0000      -0.296702        -8.0737
  60   0.0000       0.020925         0.5694
  61   0.0000       0.029691         0.8079
  62   0.0000       0.032293         0.8787
  63   0.0000       0.039178         1.0661
  64   0.0000       0.040245         1.0951

MULLIKEN ATOMIC CHARGES
-----------------------
   0 O :   -1.140149
   1 C :    0.309730
   2 O :   -0.379580
   3 C :   -0.977087
   4 C :    1.425801
   5 C :    0.454298
   6 C :    1.425672
   7 C :   -0.341011
   8 N :   -0.300830
   9 C :   -0.341021
  10 C :   -1.071552
  11 C :    0.309859
  12 O :   -0.379579
  13 C :   -0.977068
  14 C :   -1.071586
  15 O :   -1.140171
  16 H :    0.390416
  17 H :    0.390420
  18 H :    0.336276
  19 H :   -0.013942
  20 H :    0.162591
  21 H :    0.162597
  22 H :    0.256142
  23 H :    0.256143
  24 H :    0.312130
  25 H :    0.256132
  26 H :    0.256118
  27 H :    0.312137
  28 H :    0.390427
  29 H :    0.390411
  30 H :    0.336272
Sum of atomic charges:   -0.0000000

LOEWDIN ATOMIC CHARGES
----------------------
   0 O :    0.478392
   1 C :   -0.831706
   2 O :    0.576434
   3 C :    0.351308
   4 C :   -0.060249
   5 C :    0.227428
   6 C :   -0.060249
   7 C :   -0.154558
   8 N :    0.589621
   9 C :   -0.154558
  10 C :    0.602163
  11 C :   -0.831706
  12 O :    0.576434
  13 C :    0.351308
  14 C :    0.602163
  15 O :    0.478392
  16 H :   -0.180814
  17 H :   -0.180816
  18 H :   -0.185850
  19 H :   -0.296740
  20 H :   -0.160309
  21 H :   -0.160306
  22 H :   -0.169759
  23 H :   -0.169749
  24 H :   -0.174643
  25 H :   -0.169776
  26 H :   -0.169732
  27 H :   -0.174643
  28 H :   -0.180816
  29 H :   -0.180814
  30 H :   -0.185850

  Mayer bond orders larger than 0.100000
B(  0-O ,  1-C ) :   1.1825 B(  0-O ,  4-C ) :  -0.1574 B(  1-C ,  2-O ) :   0.9625
B(  1-C ,  3-C ) :  -0.1531 B(  1-C ,  4-C ) :  -0.6556 B(  1-C ,  5-C ) :  -0.1197
B(  1-C ,  6-C ) :  -0.1203 B(  1-C ,  9-C ) :   0.5819 B(  1-C , 11-C ) :   0.2187
B(  1-C , 14-C ) :   0.1013 B(  2-O ,  3-C ) :   0.9175 B(  2-O ,  5-C ) :  -0.2714
B(  3-C , 28-H ) :   0.8682 B(  3-C , 29-H ) :   0.8682 B(  3-C , 30-H ) :   0.9387
B(  4-C ,  5-C ) :   0.5940 B(  4-C ,  6-C ) :   0.4722 B(  4-C ,  7-C ) :   0.1406
B(  4-C ,  8-N ) :  -0.8442 B(  4-C ,  9-C ) :   0.2282 B(  4-C , 11-C ) :  -0.1203
B(  4-C , 14-C ) :   0.1653 B(  5-C ,  6-C ) :   0.5940 B(  5-C , 11-C ) :  -0.1196
B(  5-C , 12-O ) :  -0.2714 B(  5-C , 20-H ) :   1.0644 B(  5-C , 21-H ) :   1.0644
B(  6-C ,  7-C ) :   0.2280 B(  6-C ,  8-N ) :  -0.8441 B(  6-C ,  9-C ) :   0.1406
B(  6-C , 10-C ) :   0.1654 B(  6-C , 11-C ) :  -0.6555 B(  6-C , 15-O ) :  -0.1573
B(  7-C ,  8-N ) :   1.0781 B(  7-C ,  9-C ) :  -0.8119 B(  7-C , 10-C ) :   0.3763
B(  7-C , 11-C ) :   0.5819 B(  7-C , 22-H ) :  -0.1108 B(  7-C , 23-H ) :  -0.1108
B(  8-N ,  9-C ) :   1.0784 B(  8-N , 19-H ) :   1.3528 B(  9-C , 14-C ) :   0.3764
B(  9-C , 25-H ) :  -0.1108 B(  9-C , 26-H ) :  -0.1109 B( 10-C , 11-C ) :   0.1013
B( 10-C , 22-H ) :   1.0792 B( 10-C , 23-H ) :   1.0792 B( 10-C , 24-H ) :   0.9124
B( 11-C , 12-O ) :   0.9626 B( 11-C , 13-C ) :  -0.1531 B( 11-C , 15-O ) :   1.1824
B( 12-O , 13-C ) :   0.9175 B( 13-C , 16-H ) :   0.8682 B( 13-C , 17-H ) :   0.8682
B( 13-C , 18-H ) :   0.9387 B( 14-C , 25-H ) :   1.0793 B( 14-C , 26-H ) :   1.0793
B( 14-C , 27-H ) :   0.9124

MP2 TOTAL ENERGY:     -782.465317933 Eh
FINAL SINGLE POINT ENERGY      -782.465317933054

DIPOLE MOMENT
-------------
                                X             Y             Z
Electronic contribution:     -0.00000      -0.03042      -0.00002
Nuclear contribution   :      0.00000      -0.44955       0.00007
                        -----------------------------------------
Total Dipole Moment    :      0.00000      -0.47998       0.00005
                        -----------------------------------------
Magnitude (a.u.)       :      0.47998
Magnitude (Debye)      :      1.22000

Rotational constants in cm-1:     0.025158     0.011771     0.008078
Rotational constants in MHz :   754.204331   352.876799   242.180045

                             ****ORCA TERMINATED NORMALLY****
TOTAL RUN TIME: 0 days 0 hours 23 minutes 51 seconds 85 msec
