                         Program Version 4.2.1 -  RELEASE  -
|  1> %pal
|  2>  nprocs 32
|  3> end
|  4> !RI-MP2 aug-cc-pVTZ aug-cc-pVTZ/C TightSCF
|  5> %maxcore 4500
|  6> *xyzfile 0 1  10_11TS.xyz
|  7>
|  8>
|  9>                          ****END OF INPUT****

CARTESIAN COORDINATES (ANGSTROEM)
---------------------------------
  C      0.281274   -0.783254   -0.178074
  C     -0.500407    0.155483   -0.203987
  C      1.698992   -1.195102   -0.068881
  C     -0.729156    1.612599   -0.198050
  C      2.528529    0.071989   -0.389780
  H      3.577215   -0.100264   -0.135728
  H      2.479548    0.279216   -1.460843
  C      0.662882    2.227158   -0.497381
  H      0.633668    3.303640   -0.312767
  N     -0.998926   -2.600139   -0.062882
  N     -2.000881   -2.037898   -0.050260
  N     -2.540103   -0.926516   -0.189130
  C     -3.795555   -0.678899    0.510378
  H     -4.084610    0.346485    0.290838
  H     -4.588241   -1.339699    0.152393
  H     -3.691055   -0.791373    1.593447
  S      2.074092    1.610619    0.485923
  C     -1.698723    2.060100   -1.294779
  H     -2.694965    1.654861   -1.117715
  H     -1.768515    3.150715   -1.317659
  H     -1.367561    1.712077   -2.274615
  C     -1.227410    2.069010    1.176731
  H     -1.367650    3.153194    1.187220
  H     -2.181294    1.598455    1.417515
  H     -0.508833    1.802518    1.952438
  C      2.065848   -2.285341   -1.080025
  H      3.133175   -2.514090   -1.020606
  H      1.504445   -3.197049   -0.875765
  H      1.837430   -1.966859   -2.099147
  C      1.982357   -1.682455    1.355632
  H      1.352892   -2.540699    1.593365
  H      3.029313   -1.983501    1.449188
  H      1.780079   -0.892634    2.080060
  H      0.907054    2.079248   -1.551182

 Total Charge           Charge          ....    0
 Multiplicity           Mult            ....    1
 Number of Electrons    NEL             ....  122
 Basis Dimension        Dim             .... 1131

ORBITAL ENERGIES
----------------

  NO   OCC          E(Eh)            E(eV)
   0   2.0000     -91.938586     -2501.7761
   1   2.0000     -15.730910      -428.0598
   2   2.0000     -15.658139      -426.0796
   3   2.0000     -15.606946      -424.6866
   4   2.0000     -11.271716      -306.7190
   5   2.0000     -11.261257      -306.4344
   6   2.0000     -11.256705      -306.3105
   7   2.0000     -11.256240      -306.2979
   8   2.0000     -11.252358      -306.1922
   9   2.0000     -11.222609      -305.3827
  10   2.0000     -11.219156      -305.2888
  11   2.0000     -11.216071      -305.2048
  12   2.0000     -11.212813      -305.1161
  13   2.0000     -11.209570      -305.0279
  14   2.0000     -11.203619      -304.8660
  15   2.0000      -8.938591      -243.2314
  16   2.0000      -6.619851      -180.1353
  17   2.0000      -6.618940      -180.1105
  18   2.0000      -6.618126      -180.0884
  19   2.0000      -1.478173       -40.2231
  20   2.0000      -1.253807       -34.1178
  21   2.0000      -1.143176       -31.1074
  22   2.0000      -1.107322       -30.1318
  23   2.0000      -1.023038       -27.8383
  24   2.0000      -0.993999       -27.0481
  25   2.0000      -0.985816       -26.8254
  26   2.0000      -0.939473       -25.5644
  27   2.0000      -0.933798       -25.4099
  28   2.0000      -0.932236       -25.3674
  29   2.0000      -0.831450       -22.6249
  30   2.0000      -0.824896       -22.4466
  31   2.0000      -0.757146       -20.6030
  32   2.0000      -0.746054       -20.3011
  33   2.0000      -0.695186       -18.9170
  34   2.0000      -0.679847       -18.4996
  35   2.0000      -0.673459       -18.3258
  36   2.0000      -0.651173       -17.7193
  37   2.0000      -0.639456       -17.4005
  38   2.0000      -0.613451       -16.6928
  39   2.0000      -0.607265       -16.5245
  40   2.0000      -0.598779       -16.2936
  41   2.0000      -0.588560       -16.0155
  42   2.0000      -0.584809       -15.9135
  43   2.0000      -0.572161       -15.5693
  44   2.0000      -0.564114       -15.3503
  45   2.0000      -0.545964       -14.8564
  46   2.0000      -0.540221       -14.7002
  47   2.0000      -0.529458       -14.4073
  48   2.0000      -0.524175       -14.2635
  49   2.0000      -0.510627       -13.8949
  50   2.0000      -0.502318       -13.6688
  51   2.0000      -0.498074       -13.5533
  52   2.0000      -0.492879       -13.4119
  53   2.0000      -0.476816       -12.9748
  54   2.0000      -0.461696       -12.5634
  55   2.0000      -0.426475       -11.6050
  56   2.0000      -0.411428       -11.1955
  57   2.0000      -0.368384       -10.0242
  58   2.0000      -0.365020        -9.9327
  59   2.0000      -0.337854        -9.1935
  60   2.0000      -0.324570        -8.8320
  61   0.0000       0.026461         0.7200
  62   0.0000       0.031733         0.8635
  63   0.0000       0.033581         0.9138
  64   0.0000       0.036064         0.9814
  65   0.0000       0.043765         1.1909

MULLIKEN ATOMIC CHARGES
-----------------------
   0 C :   -0.132403
   1 C :    0.747657
   2 C :    1.291785
   3 C :    1.313766
   4 C :   -0.579761
   5 H :    0.318237
   6 H :    0.200763
   7 C :   -0.558778
   8 H :    0.298961
   9 N :   -0.971001
  10 N :    0.319873
  11 N :    0.245593
  12 C :   -0.859903
  13 H :    0.403371
  14 H :    0.331782
  15 H :    0.329501
  16 S :   -0.710349
  17 C :   -1.493220
  18 H :    0.437142
  19 H :    0.207498
  20 H :    0.298006
  21 C :   -1.547701
  22 H :    0.188821
  23 H :    0.473735
  24 H :    0.317995
  25 C :   -1.424502
  26 H :    0.213822
  27 H :    0.315946
  28 H :    0.310676
  29 C :   -1.393927
  30 H :    0.330343
  31 H :    0.229236
  32 H :    0.340415
  33 H :    0.206621
Sum of atomic charges:   -0.0000000

LOEWDIN ATOMIC CHARGES
----------------------
   0 C :   -0.029915
   1 C :    0.014034
   2 C :   -0.458894
   3 C :   -0.442140
   4 C :   -0.030898
   5 H :   -0.212063
   6 H :   -0.209041
   7 C :   -0.030575
   8 H :   -0.210857
   9 N :    0.348800
  10 N :   -0.197956
  11 N :    0.216536
  12 C :    0.407148
  13 H :   -0.202701
  14 H :   -0.180281
  15 H :   -0.174790
  16 S :    1.275784
  17 C :    0.581040
  18 H :   -0.180403
  19 H :   -0.151999
  20 H :   -0.152010
  21 C :    0.571282
  22 H :   -0.154602
  23 H :   -0.172994
  24 H :   -0.170774
  25 C :    0.571715
  26 H :   -0.154826
  27 H :   -0.175266
  28 H :   -0.156387
  29 C :    0.565441
  30 H :   -0.164238
  31 H :   -0.156829
  32 H :   -0.173209
  33 H :   -0.208132

  Mayer bond orders larger than 0.100000
B(  0-C ,  1-C ) :   1.9705 B(  0-C ,  2-C ) :   1.3610 B(  0-C ,  3-C ) :   0.2837
B(  0-C ,  4-C ) :   0.1823 B(  0-C ,  7-C ) :  -0.1234 B(  0-C ,  9-N ) :   0.1000
B(  0-C , 11-N ) :  -0.3527 B(  0-C , 17-C ) :  -0.1088 B(  0-C , 29-C ) :   0.1316
B(  1-C ,  2-C ) :  -0.1755 B(  1-C ,  3-C ) :   0.9416 B(  1-C ,  4-C ) :  -0.1807
B(  1-C ,  7-C ) :   0.1189 B(  1-C ,  9-N ) :   0.1299 B(  1-C , 10-N ) :   0.2002
B(  1-C , 11-N ) :   0.4648 B(  1-C , 16-S ) :  -0.2042 B(  1-C , 25-C ) :  -0.1477
B(  2-C ,  3-C ) :   0.3538 B(  2-C ,  4-C ) :   0.7578 B(  2-C , 16-S ) :   0.3406
B(  2-C , 26-H ) :  -0.1390 B(  2-C , 28-H ) :  -0.1209 B(  2-C , 29-C ) :   0.2494
B(  3-C ,  7-C ) :   0.7112 B(  3-C , 16-S ) :   0.4787 B(  3-C , 17-C ) :   0.1370
B(  3-C , 19-H ) :  -0.1247 B(  3-C , 21-C ) :   0.2282 B(  4-C ,  5-H ) :   0.9494
B(  4-C ,  6-H ) :   1.0652 B(  4-C , 16-S ) :   0.6935 B(  4-C , 25-C ) :   0.1815
B(  7-C ,  8-H ) :   1.0065 B(  7-C , 16-S ) :   0.6258 B(  7-C , 17-C ) :   0.1561
B(  7-C , 33-H ) :   1.0722 B(  8-H , 16-S ) :  -0.1017 B(  9-N , 10-N ) :   1.5445
B(  9-N , 11-N ) :   0.2264 B( 10-N , 11-N ) :   0.7730 B( 11-N , 12-C ) :   0.7396
B( 12-C , 13-H ) :   0.8479 B( 12-C , 14-H ) :   0.9137 B( 12-C , 15-H ) :   0.9238
B( 17-C , 18-H ) :   0.8306 B( 17-C , 19-H ) :   1.1856 B( 17-C , 20-H ) :   1.0688
B( 21-C , 22-H ) :   1.1916 B( 21-C , 23-H ) :   0.7971 B( 21-C , 24-H ) :   1.0779
B( 25-C , 26-H ) :   1.1490 B( 25-C , 27-H ) :   1.0087 B( 25-C , 28-H ) :   1.0386
B( 25-C , 29-C ) :   0.1226 B( 29-C , 30-H ) :   0.9850 B( 29-C , 31-H ) :   1.1064
B( 29-C , 32-H ) :   1.0063

MP2 TOTAL ENERGY:     -991.251304053 Eh
FINAL SINGLE POINT ENERGY      -991.251304052762

DIPOLE MOMENT
-------------
                                X             Y             Z
Electronic contribution:      1.36974      -3.57317       0.36203
Nuclear contribution   :     -2.14980       3.73332      -0.47414
                        -----------------------------------------
Total Dipole Moment    :     -0.78006       0.16015      -0.11210
                        -----------------------------------------
Magnitude (a.u.)       :      0.80419
Magnitude (Debye)      :      2.04408

Rotational constants in cm-1:     0.021825     0.016770     0.011084
Rotational constants in MHz :   654.309922   502.749637   332.292681

                             ****ORCA TERMINATED NORMALLY****
TOTAL RUN TIME: 0 days 0 hours 39 minutes 32 seconds 800 msec
