                         Program Version 4.2.1 -  RELEASE  -
|  1> %pal
|  2>  nprocs 32
|  3> end
|  4> !RI-MP2 aug-cc-pVTZ aug-cc-pVTZ/C TightSCF
|  5> %maxcore 4500
|  6> *xyzfile 0 1  06_25P.xyz
|  7>
|  8>
|  9>                          ****END OF INPUT****

CARTESIAN COORDINATES (ANGSTROEM)
---------------------------------
  C      0.322445   -2.872942   -0.358443
  C     -0.252025   -1.572739    0.276385
  C      2.695845   -0.667203    0.020463
  H     -0.451653   -3.320028   -0.988516
  C      0.110365   -1.412687    1.765860
  H      3.653170   -0.172450   -0.169040
  H     -1.338087   -1.672116    0.252102
  C      1.560040   -1.678036    2.152277
  H      1.640938   -1.622450    3.242586
  H      1.821425   -2.708755    1.896297
  C      2.594407   -0.732795    1.554500
  H      2.423613    0.272322    1.949316
  H      3.577275   -1.034283    1.933319
  C      2.823634   -2.074798   -0.617978
  H      3.569121   -2.021025   -1.417409
  C      1.566756   -2.694817   -1.240529
  H      1.286929   -2.097124   -2.117198
  H      1.844061   -3.673606   -1.644419
  H      3.240269   -2.764300    0.123646
  H      0.525391   -3.607049    0.427502
  C      1.610774    0.195652   -0.667965
  H      1.905336    0.318508   -1.721729
  Si     1.616284    2.030789   -0.120978
  C      0.476143    2.378345    1.330708
  H      0.811162    1.887485    2.246528
  H      0.445170    3.453855    1.527738
  H     -0.546477    2.048332    1.130628
  C      1.074691    3.106802   -1.567705
  H      1.190269    4.161984   -1.304777
  H      1.687907    2.919893   -2.453239
  H      0.031130    2.953498   -1.845860
  C      3.373703    2.548258    0.309695
  H      4.050965    2.385916   -0.532946
  H      3.395116    3.615473    0.547223
  H      3.776810    2.010588    1.169413
  B      0.169055   -0.397737   -0.681975
  C     -2.079815   -0.613886   -2.038192
  C     -3.215753   -0.637021   -1.333110
  C     -0.854460    0.177983   -1.766870
  C     -3.439390    0.165798   -0.124781
  O     -2.641433    0.896527    0.418860
  O     -4.686956   -0.010240    0.348148
  C     -5.008460    0.716115    1.535178
  H     -6.033669    0.447163    1.775541
  H     -4.337424    0.435850    2.347256
  H     -4.924407    1.788877    1.361110
  H     -4.039952   -1.268762   -1.637192
  H     -0.514604   -2.110040    2.335604
  H     -0.182632   -0.412696    2.100637
  H     -1.136595    1.143845   -1.335566
  H     -0.327112    0.384281   -2.701851
  H     -2.042967   -1.268006   -2.906163

 Total Charge           Charge          ....    0
 Multiplicity           Mult            ....    1
 Number of Electrons    NEL             ....  168
 Basis Dimension        Dim             .... 1683

ORBITAL ENERGIES
----------------

  NO   OCC          E(Eh)            E(eV)
   0   2.0000     -68.746093     -1870.6763
   1   2.0000     -20.599117      -560.5305
   2   2.0000     -20.536085      -558.8153
   3   2.0000     -11.375187      -309.5346
   4   2.0000     -11.281267      -306.9789
   5   2.0000     -11.262593      -306.4707
   6   2.0000     -11.228321      -305.5382
   7   2.0000     -11.219417      -305.2959
   8   2.0000     -11.216358      -305.2126
   9   2.0000     -11.215074      -305.1777
  10   2.0000     -11.210815      -305.0618
  11   2.0000     -11.207154      -304.9622
  12   2.0000     -11.205188      -304.9087
  13   2.0000     -11.204521      -304.8905
  14   2.0000     -11.201978      -304.8213
  15   2.0000     -11.188991      -304.4679
  16   2.0000     -11.188335      -304.4501
  17   2.0000     -11.183845      -304.3279
  18   2.0000     -11.182308      -304.2861
  19   2.0000     -11.176512      -304.1283
  20   2.0000      -7.576149      -206.1575
  21   2.0000      -6.092744      -165.7920
  22   2.0000      -4.199036      -114.2616
  23   2.0000      -4.198907      -114.2581
  24   2.0000      -4.198888      -114.2576
  25   2.0000      -1.458530       -39.6886
  26   2.0000      -1.354125       -36.8476
  27   2.0000      -1.111753       -30.2523
  28   2.0000      -1.092751       -29.7353
  29   2.0000      -1.041743       -28.3473
  30   2.0000      -1.039001       -28.2727
  31   2.0000      -0.999052       -27.1856
  32   2.0000      -0.972712       -26.4688
  33   2.0000      -0.947547       -25.7841
  34   2.0000      -0.933069       -25.3901
  35   2.0000      -0.916108       -24.9286
  36   2.0000      -0.912910       -24.8415
  37   2.0000      -0.910475       -24.7753
  38   2.0000      -0.872515       -23.7423
  39   2.0000      -0.827643       -22.5213
  40   2.0000      -0.792679       -21.5699
  41   2.0000      -0.779938       -21.2232
  42   2.0000      -0.754179       -20.5223
  43   2.0000      -0.712147       -19.3785
  44   2.0000      -0.694170       -18.8893
  45   2.0000      -0.669701       -18.2235
  46   2.0000      -0.662660       -18.0319
  47   2.0000      -0.657641       -17.8953
  48   2.0000      -0.643702       -17.5160
  49   2.0000      -0.636554       -17.3215
  50   2.0000      -0.613914       -16.7055
  51   2.0000      -0.608013       -16.5449
  52   2.0000      -0.595445       -16.2029
  53   2.0000      -0.583636       -15.8815
  54   2.0000      -0.574380       -15.6297
  55   2.0000      -0.569914       -15.5081
  56   2.0000      -0.564723       -15.3669
  57   2.0000      -0.561763       -15.2864
  58   2.0000      -0.557985       -15.1836
  59   2.0000      -0.552459       -15.0332
  60   2.0000      -0.546466       -14.8701
  61   2.0000      -0.540360       -14.7040
  62   2.0000      -0.536278       -14.5929
  63   2.0000      -0.530718       -14.4416
  64   2.0000      -0.528651       -14.3853
  65   2.0000      -0.524301       -14.2670
  66   2.0000      -0.519194       -14.1280
  67   2.0000      -0.517610       -14.0849
  68   2.0000      -0.515489       -14.0272
  69   2.0000      -0.486783       -13.2461
  70   2.0000      -0.480723       -13.0811
  71   2.0000      -0.473253       -12.8779
  72   2.0000      -0.460238       -12.5237
  73   2.0000      -0.459562       -12.5053
  74   2.0000      -0.446256       -12.1432
  75   2.0000      -0.442145       -12.0314
  76   2.0000      -0.436621       -11.8811
  77   2.0000      -0.425032       -11.5657
  78   2.0000      -0.422846       -11.5062
  79   2.0000      -0.411942       -11.2095
  80   2.0000      -0.407705       -11.0942
  81   2.0000      -0.401323       -10.9206
  82   2.0000      -0.377058       -10.2603
  83   2.0000      -0.358608        -9.7582
  84   0.0000       0.022442         0.6107
  85   0.0000       0.028425         0.7735
  86   0.0000       0.029068         0.7910
  87   0.0000       0.030187         0.8214
  88   0.0000       0.037667         1.0250

MULLIKEN ATOMIC CHARGES
-----------------------
   0 C :   -0.766983
   1 C :    0.815825
   2 C :    0.097878
   3 H :    0.195866
   4 C :   -0.738973
   5 H :    0.043535
   6 H :    0.282520
   7 C :   -0.455079
   8 H :    0.400236
   9 H :   -0.062222
  10 C :   -0.378169
  11 H :    0.099137
  12 H :    0.098164
  13 C :   -0.979635
  14 H :    0.230444
  15 C :   -0.520241
  16 H :    0.170652
  17 H :    0.456318
  18 H :   -0.091691
  19 H :   -0.062915
  20 C :    0.845938
  21 H :    0.492780
  22 Si:    3.783608
  23 C :   -1.340207
  24 H :    0.152025
  25 H :    0.224034
  26 H :    0.426682
  27 C :   -2.199778
  28 H :    0.042258
  29 H :    0.177036
  30 H :    0.330981
  31 C :   -1.909434
  32 H :    0.177568
  33 H :    0.069821
  34 H :    0.296820
  35 B :   -0.064736
  36 C :   -0.803912
  37 C :   -0.339884
  38 C :   -0.009502
  39 C :    0.986914
  40 O :   -0.605992
  41 O :   -0.660711
  42 C :   -0.944699
  43 H :    0.402019
  44 H :    0.371876
  45 H :    0.338777
  46 H :    0.401227
  47 H :    0.118881
  48 H :    0.135453
  49 H :    0.166400
  50 H :    0.109709
  51 H :   -0.006620
Sum of atomic charges:    0.0000000

LOEWDIN ATOMIC CHARGES
----------------------
   0 C :    0.339984
   1 C :    0.150078
   2 C :    0.003926
   3 H :   -0.132929
   4 C :    0.324389
   5 H :   -0.153949
   6 H :   -0.189549
   7 C :    0.310676
   8 H :   -0.131059
   9 H :   -0.163107
  10 C :    0.313832
  11 H :   -0.177886
  12 H :   -0.125350
  13 C :    0.342971
  14 H :   -0.135268
  15 C :    0.320049
  16 H :   -0.141906
  17 H :   -0.131526
  18 H :   -0.144978
  19 H :   -0.144003
  20 C :    0.170027
  21 H :   -0.190642
  22 Si:    0.534733
  23 C :    0.608152
  24 H :   -0.231476
  25 H :   -0.217444
  26 H :   -0.254687
  27 C :    0.599673
  28 H :   -0.222743
  29 H :   -0.219185
  30 H :   -0.239985
  31 C :    0.596075
  32 H :   -0.218044
  33 H :   -0.223205
  34 H :   -0.231770
  35 B :   -0.494063
  36 C :    0.238620
  37 C :    0.216157
  38 C :    0.400087
  39 C :   -0.841152
  40 O :    0.514762
  41 O :    0.563680
  42 C :    0.351894
  43 H :   -0.186290
  44 H :   -0.180951
  45 H :   -0.179985
  46 H :   -0.204680
  47 H :   -0.129822
  48 H :   -0.144815
  49 H :   -0.217477
  50 H :   -0.147774
  51 H :   -0.152067

  Mayer bond orders larger than 0.100000
B(  0-C ,  1-C ) :   0.4921 B(  0-C ,  3-H ) :   1.1346 B(  0-C ,  4-C ) :  -0.1190
B(  0-C ,  6-H ) :  -0.3813 B(  0-C , 15-C ) :   0.7114 B(  0-C , 17-H ) :  -0.1457
B(  0-C , 19-H ) :   1.4159 B(  0-C , 35-B ) :   0.3123 B(  1-C ,  2-C ) :   0.1978
B(  1-C ,  3-H ) :  -0.1773 B(  1-C ,  4-C ) :   0.7458 B(  1-C ,  6-H ) :   1.0766
B(  1-C ,  7-C ) :   0.1434 B(  1-C , 35-B ) :   0.9604 B(  1-C , 38-C ) :  -0.1398
B(  1-C , 47-H ) :  -0.1558 B(  2-C ,  5-H ) :   1.1382 B(  2-C ,  7-C ) :   0.1715
B(  2-C , 10-C ) :   0.7831 B(  2-C , 13-C ) :   0.5736 B(  2-C , 14-H ) :  -0.1117
B(  2-C , 15-C ) :   0.1295 B(  2-C , 18-H ) :  -0.1284 B(  2-C , 20-C ) :   0.9596
B(  2-C , 21-H ) :  -0.2148 B(  2-C , 22-Si) :   0.1161 B(  2-C , 35-B ) :   0.1884
B(  4-C ,  6-H ) :  -0.2202 B(  4-C ,  7-C ) :   0.7442 B(  4-C , 47-H ) :   1.1547
B(  4-C , 48-H ) :   1.2076 B(  5-H , 13-C ) :  -0.3100 B(  5-H , 20-C ) :  -0.1816
B(  6-H , 20-C ) :  -0.1214 B(  6-H , 35-B ) :  -0.4738 B(  6-H , 39-C ) :   0.1085
B(  6-H , 40-O ) :   0.1179 B(  7-C ,  8-H ) :   0.8116 B(  7-C ,  9-H ) :   1.3914
B(  7-C , 10-C ) :   0.7437 B(  7-C , 12-H ) :  -0.1178 B(  7-C , 35-B ) :  -0.1619
B(  7-C , 47-H ) :  -0.1211 B(  9-H , 35-B ) :  -0.1138 B( 10-C , 11-H ) :   1.0021
B( 10-C , 12-H ) :   1.2118 B( 11-H , 35-B ) :   0.1115 B( 13-C , 14-H ) :   1.0273
B( 13-C , 15-C ) :   0.8267 B( 13-C , 16-H ) :   0.1320 B( 13-C , 18-H ) :   1.4783
B( 13-C , 20-C ) :   0.1938 B( 15-C , 16-H ) :   1.1742 B( 15-C , 17-H ) :   0.8385
B( 15-C , 35-B ) :  -0.1410 B( 20-C , 21-H ) :   0.7387 B( 20-C , 22-Si) :   0.5812
B( 20-C , 23-C ) :   0.3128 B( 20-C , 31-C ) :   0.2196 B( 20-C , 35-B ) :   0.5470
B( 20-C , 38-C ) :  -0.1648 B( 21-H , 22-Si) :  -0.3548 B( 21-H , 27-C ) :   0.1045
B( 21-H , 35-B ) :  -0.2939 B( 22-Si, 23-C ) :   0.1945 B( 22-Si, 25-H ) :  -0.1070
B( 22-Si, 27-C ) :  -1.9647 B( 22-Si, 28-H ) :  -0.3048 B( 22-Si, 29-H ) :  -0.1968
B( 22-Si, 31-C ) :  -1.5286 B( 22-Si, 32-H ) :  -0.1746 B( 22-Si, 33-H ) :  -0.2376
B( 22-Si, 35-B ) :   0.1188 B( 22-Si, 38-C ) :   0.1279 B( 23-C , 24-H ) :   1.2317
B( 23-C , 25-H ) :   0.8908 B( 23-C , 26-H ) :   0.8984 B( 23-C , 27-C ) :   0.1526
B( 23-C , 31-C ) :   0.1564 B( 23-C , 35-B ) :  -0.1277 B( 24-H , 26-H ) :   0.1017
B( 26-H , 27-C ) :   0.1007 B( 27-C , 28-H ) :   1.4256 B( 27-C , 29-H ) :   1.2345
B( 27-C , 30-H ) :   1.0327 B( 27-C , 31-C ) :   0.1547 B( 27-C , 35-B ) :   0.1007
B( 30-H , 35-B ) :  -0.1282 B( 31-C , 32-H ) :   1.1849 B( 31-C , 33-H ) :   1.3062
B( 31-C , 34-H ) :   1.0643 B( 31-C , 35-B ) :   0.1888 B( 35-B , 36-C ) :   0.1089
B( 35-B , 37-C ) :  -0.2942 B( 35-B , 38-C ) :   0.6703 B( 35-B , 40-O ) :  -0.3942
B( 35-B , 48-H ) :  -0.1917 B( 35-B , 49-H ) :   0.2325 B( 35-B , 50-H ) :  -0.4098
B( 35-B , 51-H ) :   0.2347 B( 36-C , 37-C ) :   1.8109 B( 36-C , 38-C ) :   0.5134
B( 36-C , 39-C ) :   0.1600 B( 36-C , 50-H ) :  -0.1683 B( 36-C , 51-H ) :   1.4207
B( 37-C , 38-C ) :   0.3145 B( 37-C , 39-C ) :   0.4648 B( 37-C , 40-O ) :  -0.1374
B( 37-C , 46-H ) :   0.7794 B( 37-C , 51-H ) :  -0.1233 B( 38-C , 49-H ) :   1.0535
B( 38-C , 50-H ) :   1.1114 B( 39-C , 40-O ) :   1.5711 B( 39-C , 41-O ) :   0.7754
B( 39-C , 42-C ) :  -0.1044 B( 40-O , 41-O ) :  -0.2171 B( 41-O , 42-C ) :   1.0042
B( 42-C , 43-H ) :   0.8710 B( 42-C , 44-H ) :   0.8783 B( 42-C , 45-H ) :   0.9298

MP2 TOTAL ENERGY:    -1129.148973475 Eh
FINAL SINGLE POINT ENERGY     -1129.148973474616

DIPOLE MOMENT
-------------
                                X             Y             Z
Electronic contribution:    -15.24002      -1.02826      -4.54933
Nuclear contribution   :     15.09000       0.70695       4.28426
                        -----------------------------------------
Total Dipole Moment    :     -0.15002      -0.32132      -0.26507
                        -----------------------------------------
Magnitude (a.u.)       :      0.44273
Magnitude (Debye)      :      1.12533

Rotational constants in cm-1:     0.012434     0.007181     0.006016
Rotational constants in MHz :   372.773631   215.293646   180.351047

                             ****ORCA TERMINATED NORMALLY****
TOTAL RUN TIME: 0 days 2 hours 2 minutes 2 seconds 171 msec
