                         Program Version 4.2.1 -  RELEASE  -
|  1> %pal
|  2>  nprocs 32
|  3> end
|  4> !RI-MP2 aug-cc-pVTZ aug-cc-pVTZ/C TightSCF
|  5> %maxcore 4500
|  6> *xyzfile 0 2  04_42R.xyz
|  7>
|  8>
|  9>                          ****END OF INPUT****

CARTESIAN COORDINATES (ANGSTROEM)
---------------------------------
  N      1.371440    0.089016   -0.085823
  S      0.652350    1.600634    0.057605
  O     -0.788271    1.275184   -0.496546
  C     -1.658618    0.404434    0.287595
  C     -2.962999    0.299927   -0.462581
  H     -1.783248    0.851389    1.274505
  H     -1.164310   -0.564141    0.384208
  C     -3.953956   -0.601119    0.268119
  H     -2.765840   -0.091542   -1.464153
  H     -3.382959    1.301817   -0.585842
  C     -5.285557   -0.729885   -0.464510
  C      2.794754    0.137428    0.060434
  H      3.080847    0.566216    1.029681
  C      3.366135   -1.260337   -0.032359
  F      2.886076   -2.059541    0.927163
  F      4.701170   -1.211565    0.105212
  F      3.096840   -1.830383   -1.211634
  O      1.253303    2.518208   -0.870005
  O      0.597310    1.879083    1.474380
  C     -6.275871   -1.628954    0.265774
  H     -5.105371   -1.121190   -1.471158
  H     -5.720524    0.266180   -0.597184
  H     -5.876881   -2.639760    0.384187
  H     -7.219728   -1.706178   -0.277240
  H     -6.497289   -1.241923    1.263834
  H      3.250146    0.758211   -0.721016
  H     -4.133880   -0.209791    1.275976
  H     -3.517486   -1.597908    0.399162

 Total Charge           Charge          ....    0
 Multiplicity           Mult            ....    2
 Number of Electrons    NEL             ....  129
 Basis Dimension        Dim             ....  993

ORBITAL ENERGIES
----------------
                 SPIN UP ORBITALS
  NO   OCC          E(Eh)            E(eV)
   0   1.0000     -92.258512     -2510.4818
   1   1.0000     -26.352874      -717.0982
   2   1.0000     -26.352047      -717.0756
   3   1.0000     -26.352015      -717.0748
   4   1.0000     -20.640923      -561.6681
   5   1.0000     -20.584981      -560.1458
   6   1.0000     -20.583812      -560.1140
   7   1.0000     -15.676114      -426.5688
   8   1.0000     -11.523151      -313.5609
   9   1.0000     -11.325185      -308.1740
  10   1.0000     -11.316370      -307.9341
  11   1.0000     -11.243386      -305.9481
  12   1.0000     -11.237498      -305.7879
  13   1.0000     -11.231426      -305.6226
  14   1.0000     -11.221469      -305.3517
  15   1.0000      -9.219444      -250.8738
  16   1.0000      -6.905297      -187.9027
  17   1.0000      -6.904333      -187.8765
  18   1.0000      -6.903964      -187.8664
  19   1.0000      -1.744395       -47.4674
  20   1.0000      -1.648793       -44.8659
  21   1.0000      -1.648608       -44.8609
  22   1.0000      -1.538504       -41.8648
  23   1.0000      -1.414726       -38.4966
  24   1.0000      -1.383064       -37.6351
  25   1.0000      -1.302083       -35.4315
  26   1.0000      -1.110230       -30.2109
  27   1.0000      -1.070821       -29.1385
  28   1.0000      -1.043702       -28.4006
  29   1.0000      -0.959760       -26.1164
  30   1.0000      -0.937441       -25.5091
  31   1.0000      -0.868147       -23.6235
  32   1.0000      -0.849496       -23.1160
  33   1.0000      -0.840874       -22.8814
  34   1.0000      -0.833842       -22.6900
  35   1.0000      -0.809342       -22.0233
  36   1.0000      -0.799427       -21.7535
  37   1.0000      -0.763940       -20.7879
  38   1.0000      -0.742701       -20.2099
  39   1.0000      -0.734265       -19.9804
  40   1.0000      -0.720603       -19.6086
  41   1.0000      -0.713339       -19.4109
  42   1.0000      -0.697618       -18.9832
  43   1.0000      -0.685577       -18.6555
  44   1.0000      -0.675261       -18.3748
  45   1.0000      -0.669364       -18.2143
  46   1.0000      -0.661895       -18.0111
  47   1.0000      -0.647570       -17.6213
  48   1.0000      -0.629209       -17.1217
  49   1.0000      -0.611309       -16.6346
  50   1.0000      -0.597668       -16.2634
  51   1.0000      -0.589079       -16.0297
  52   1.0000      -0.585365       -15.9286
  53   1.0000      -0.572619       -15.5817
  54   1.0000      -0.555344       -15.1117
  55   1.0000      -0.548957       -14.9379
  56   1.0000      -0.529412       -14.4060
  57   1.0000      -0.526163       -14.3176
  58   1.0000      -0.514610       -14.0032
  59   1.0000      -0.501224       -13.6390
  60   1.0000      -0.499992       -13.6055
  61   1.0000      -0.494925       -13.4676
  62   1.0000      -0.488129       -13.2827
  63   1.0000      -0.480438       -13.0734
  64   1.0000      -0.475773       -12.9464
  65   0.0000       0.025249         0.6871
  66   0.0000       0.032760         0.8914
  67   0.0000       0.034690         0.9440
  68   0.0000       0.035832         0.9750
  69   0.0000       0.042330         1.1519

                 SPIN DOWN ORBITALS
  NO   OCC          E(Eh)            E(eV)
   0   1.0000     -92.259137     -2510.4988
   1   1.0000     -26.352965      -717.1006
   2   1.0000     -26.352051      -717.0758
   3   1.0000     -26.352020      -717.0749
   4   1.0000     -20.641200      -561.6756
   5   1.0000     -20.582867      -560.0883
   6   1.0000     -20.582737      -560.0848
   7   1.0000     -15.644245      -425.7015
   8   1.0000     -11.523075      -313.5588
   9   1.0000     -11.327821      -308.2457
  10   1.0000     -11.316374      -307.9342
  11   1.0000     -11.243383      -305.9480
  12   1.0000     -11.237501      -305.7879
  13   1.0000     -11.231425      -305.6226
  14   1.0000     -11.221469      -305.3517
  15   1.0000      -9.220282      -250.8966
  16   1.0000      -6.906327      -187.9307
  17   1.0000      -6.905537      -187.9092
  18   1.0000      -6.904710      -187.8867
  19   1.0000      -1.744459       -47.4691
  20   1.0000      -1.648858       -44.8677
  21   1.0000      -1.648743       -44.8646
  22   1.0000      -1.534637       -41.7596
  23   1.0000      -1.413497       -38.4632
  24   1.0000      -1.378589       -37.5133
  25   1.0000      -1.223446       -33.2917
  26   1.0000      -1.110175       -30.2094
  27   1.0000      -1.058531       -28.8041
  28   1.0000      -1.039156       -28.2769
  29   1.0000      -0.958986       -26.0953
  30   1.0000      -0.933878       -25.4121
  31   1.0000      -0.862888       -23.4804
  32   1.0000      -0.846900       -23.0453
  33   1.0000      -0.839806       -22.8523
  34   1.0000      -0.832387       -22.6504
  35   1.0000      -0.809018       -22.0145
  36   1.0000      -0.788914       -21.4674
  37   1.0000      -0.754341       -20.5267
  38   1.0000      -0.735206       -20.0060
  39   1.0000      -0.725924       -19.7534
  40   1.0000      -0.718637       -19.5551
  41   1.0000      -0.700457       -19.0604
  42   1.0000      -0.687741       -18.7144
  43   1.0000      -0.681233       -18.5373
  44   1.0000      -0.674132       -18.3441
  45   1.0000      -0.661880       -18.0107
  46   1.0000      -0.646854       -17.6018
  47   1.0000      -0.635305       -17.2875
  48   1.0000      -0.625265       -17.0143
  49   1.0000      -0.605802       -16.4847
  50   1.0000      -0.597335       -16.2543
  51   1.0000      -0.584535       -15.9060
  52   1.0000      -0.573710       -15.6114
  53   1.0000      -0.564327       -15.3561
  54   1.0000      -0.550345       -14.9757
  55   1.0000      -0.530674       -14.4404
  56   1.0000      -0.526511       -14.3271
  57   1.0000      -0.522311       -14.2128
  58   1.0000      -0.504403       -13.7255
  59   1.0000      -0.498162       -13.5557
  60   1.0000      -0.488378       -13.2894
  61   1.0000      -0.480666       -13.0796
  62   1.0000      -0.479469       -13.0470
  63   1.0000      -0.469862       -12.7856
  64   0.0000       0.025251         0.6871
  65   0.0000       0.029340         0.7984
  66   0.0000       0.033440         0.9099
  67   0.0000       0.035254         0.9593
  68   0.0000       0.036266         0.9869

MULLIKEN ATOMIC CHARGES AND SPIN POPULATIONS
--------------------------------------------
   0 N :   -0.541994    1.096239
   1 S :    2.293836   -0.104645
   2 O :   -0.672321   -0.007475
   3 C :   -0.259098    0.002554
   4 C :   -0.325988    0.002743
   5 H :    0.285711   -0.000074
   6 H :    0.313750    0.001054
   7 C :   -0.255482    0.000031
   8 H :    0.248209    0.000163
   9 H :    0.266294   -0.000086
  10 C :   -0.480932    0.000008
  11 C :   -0.457546   -0.167143
  12 H :    0.339561    0.056965
  13 C :    1.191841    0.012458
  14 F :   -0.408001   -0.000694
  15 F :   -0.395460   -0.001325
  16 F :   -0.410326   -0.001048
  17 O :   -0.934706    0.014744
  18 O :   -0.962245    0.039506
  19 C :   -0.986868   -0.000010
  20 H :    0.237860    0.000011
  21 H :    0.239258    0.000008
  22 H :    0.266582   -0.000004
  23 H :    0.272452   -0.000002
  24 H :    0.268663    0.000003
  25 H :    0.366810    0.056162
  26 H :    0.248474    0.000006
  27 H :    0.251669   -0.000148
Sum of atomic charges         :   -0.0000000

LOEWDIN ATOMIC CHARGES AND SPIN POPULATIONS
-------------------------------------------
   0 N :    0.276272    0.737658
   1 S :   -0.143736    0.063270
   2 O :    0.352778   -0.006410
   3 C :    0.013939   -0.001116
   4 C :    0.270800   -0.000151
   5 H :   -0.165095   -0.000324
   6 H :   -0.166078   -0.000989
   7 C :    0.264690   -0.000042
   8 H :   -0.138220   -0.000028
   9 H :   -0.137790   -0.000036
  10 C :    0.255753    0.000000
  11 C :   -0.001788    0.122431
  12 H :   -0.158865    0.018935
  13 C :   -1.523729   -0.000178
  14 F :    0.510983   -0.000084
  15 F :    0.508890   -0.001033
  16 F :    0.511686   -0.000055
  17 O :    0.061676    0.013626
  18 O :    0.064170    0.035340
  19 C :    0.579662   -0.000000
  20 H :   -0.143859   -0.000000
  21 H :   -0.143802    0.000001
  22 H :   -0.168658   -0.000000
  23 H :   -0.170736   -0.000000
  24 H :   -0.168643   -0.000000
  25 H :   -0.165969    0.019194
  26 H :   -0.137036   -0.000002
  27 H :   -0.137292   -0.000006

  Mayer bond orders larger than 0.100000
B(  0-N ,  1-S ) :   0.9174 B(  0-N , 11-C ) :   0.8234 B(  0-N , 17-O ) :   0.1004
B(  0-N , 18-O ) :   0.1417 B(  1-S ,  2-O ) :   0.9542 B(  1-S , 17-O ) :   1.2389
B(  1-S , 18-O ) :   1.2150 B(  2-O ,  3-C ) :   0.7762 B(  3-C ,  4-C ) :   0.9920
B(  3-C ,  5-H ) :   0.9613 B(  3-C ,  6-H ) :   0.9015 B(  4-C ,  7-C ) :   0.9181
B(  4-C ,  8-H ) :   0.9601 B(  4-C ,  9-H ) :   0.9290 B(  7-C , 10-C ) :   0.8854
B(  7-C , 26-H ) :   0.9369 B(  7-C , 27-H ) :   0.9419 B( 10-C , 19-C ) :   0.9379
B( 10-C , 20-H ) :   0.9613 B( 10-C , 21-H ) :   0.9634 B( 11-C , 12-H ) :   0.8448
B( 11-C , 13-C ) :   1.0223 B( 11-C , 16-F ) :   0.1013 B( 11-C , 17-O ) :   0.1077
B( 11-C , 25-H ) :   0.8450 B( 13-C , 14-F ) :   0.7977 B( 13-C , 15-F ) :   0.7424
B( 13-C , 16-F ) :   0.7925 B( 19-C , 22-H ) :   0.9627 B( 19-C , 23-H ) :   0.9964
B( 19-C , 24-H ) :   0.9623

MP2 TOTAL ENERGY:    -1250.871328566 Eh
FINAL SINGLE POINT ENERGY     -1250.871328566401

DIPOLE MOMENT
-------------
                                X             Y             Z
Electronic contribution:     49.13037      -0.27574      -0.94239
Nuclear contribution   :    -50.14811      -0.34148       1.04566
                        -----------------------------------------
Total Dipole Moment    :     -1.01774      -0.61722       0.10326
                        -----------------------------------------
Magnitude (a.u.)       :      1.19474
Magnitude (Debye)      :      3.03680

Rotational constants in cm-1:     0.026511     0.006545     0.005656
Rotational constants in MHz :   794.783659   196.206335   169.549499

                             ****ORCA TERMINATED NORMALLY****
TOTAL RUN TIME: 0 days 0 hours 24 minutes 8 seconds 315 msec
