                         Program Version 4.2.1 -  RELEASE  -
|  1> %pal
|  2>  nprocs 32
|  3> end
|  4> !RI-MP2 aug-cc-pVTZ aug-cc-pVTZ/C TightSCF
|  5> %maxcore 4500
|  6> *xyzfile 0 1  10_39P.xyz
|  7>
|  8>
|  9>                          ****END OF INPUT****

CARTESIAN COORDINATES (ANGSTROEM)
---------------------------------
  C     -0.220761   -2.371323   -0.634715
  H     -0.408196   -2.634781   -1.696962
  C      1.083646   -1.641977   -0.543687
  C     -0.102777    0.455608    0.004448
  H     -0.239666    0.619388    1.079119
  H     -0.001325    1.433785   -0.457276
  C     -1.336564   -0.254178   -0.547976
  H     -1.258095   -0.251502   -1.653277
  N     -1.328171   -1.631102   -0.068273
  C      2.486908    0.279168   -0.089446
  C      2.337076   -2.427924   -0.823465
  C      3.575584   -0.482868    0.072784
  C      3.487860   -1.982225    0.079534
  C      1.150122   -0.342135   -0.241394
  C      3.329915   -2.485567    1.521095
  H      3.316011   -3.578004    1.545620
  H      4.154598   -2.142595    2.148975
  H      2.398170   -2.119066    1.956510
  C     -2.591317   -2.314307   -0.263286
  H     -2.904229   -2.288810   -1.323628
  H     -2.460716   -3.364199    0.009125
  C     -2.615125    0.477848   -0.186662
  C     -3.708303   -0.185672    0.369412
  C     -3.650533   -1.670894    0.609863
  H     -3.409401   -1.868035    1.658917
  H     -4.628552   -2.116762    0.410985
  H     -0.134584   -3.321695   -0.097296
  C     -4.860614    0.534103    0.680368
  H     -5.707132    0.009111    1.110683
  C     -2.713743    1.845882   -0.442800
  H     -1.879105    2.367681   -0.895362
  C     -4.943257    1.894259    0.440718
  H     -5.847691    2.437167    0.687702
  C     -3.862333    2.552779   -0.131979
  H     -3.915245    3.614947   -0.338393
  C      2.648075    1.756002   -0.171635
  O      1.912321    2.503433   -0.768142
  O      3.744026    2.195728    0.470659
  C      4.005408    3.595976    0.357693
  H      4.913235    3.771021    0.929091
  H      3.176788    4.172565    0.768218
  H      4.148524    3.875247   -0.686258
  H      2.622624   -2.285833   -1.873588
  H      2.155587   -3.498394   -0.692509
  H      4.420960   -2.387429   -0.321326
  H      4.538263   -0.014705    0.235477

 Total Charge           Charge          ....    0
 Multiplicity           Mult            ....    1
 Number of Electrons    NEL             ....  166
 Basis Dimension        Dim             .... 1587

ORBITAL ENERGIES
----------------

  NO   OCC          E(Eh)            E(eV)
   0   2.0000     -20.599498      -560.5408
   1   2.0000     -20.538605      -558.8838
   2   2.0000     -15.543632      -422.9637
   3   2.0000     -11.377436      -309.5958
   4   2.0000     -11.282657      -307.0167
   5   2.0000     -11.254341      -306.2462
   6   2.0000     -11.252975      -306.2090
   7   2.0000     -11.248664      -306.0917
   8   2.0000     -11.246469      -306.0320
   9   2.0000     -11.244007      -305.9650
  10   2.0000     -11.241937      -305.9087
  11   2.0000     -11.229663      -305.5747
  12   2.0000     -11.229506      -305.5704
  13   2.0000     -11.228942      -305.5551
  14   2.0000     -11.228089      -305.5318
  15   2.0000     -11.226837      -305.4978
  16   2.0000     -11.223264      -305.4005
  17   2.0000     -11.221930      -305.3642
  18   2.0000     -11.221181      -305.3439
  19   2.0000     -11.220745      -305.3320
  20   2.0000     -11.220601      -305.3281
  21   2.0000     -11.220571      -305.3273
  22   2.0000     -11.210320      -305.0483
  23   2.0000      -1.461471       -39.7686
  24   2.0000      -1.356817       -36.9209
  25   2.0000      -1.251081       -34.0436
  26   2.0000      -1.160236       -31.5716
  27   2.0000      -1.148652       -31.2564
  28   2.0000      -1.079279       -29.3687
  29   2.0000      -1.062758       -28.9191
  30   2.0000      -1.043743       -28.4017
  31   2.0000      -1.039691       -28.2914
  32   2.0000      -0.991185       -26.9715
  33   2.0000      -0.978399       -26.6236
  34   2.0000      -0.960806       -26.1449
  35   2.0000      -0.934148       -25.4194
  36   2.0000      -0.886507       -24.1231
  37   2.0000      -0.858822       -23.3697
  38   2.0000      -0.857877       -23.3440
  39   2.0000      -0.839122       -22.8337
  40   2.0000      -0.806239       -21.9389
  41   2.0000      -0.782362       -21.2892
  42   2.0000      -0.766375       -20.8541
  43   2.0000      -0.744424       -20.2568
  44   2.0000      -0.717737       -19.5306
  45   2.0000      -0.688724       -18.7411
  46   2.0000      -0.674041       -18.3416
  47   2.0000      -0.671824       -18.2813
  48   2.0000      -0.667776       -18.1711
  49   2.0000      -0.655638       -17.8408
  50   2.0000      -0.642670       -17.4879
  51   2.0000      -0.641217       -17.4484
  52   2.0000      -0.616364       -16.7721
  53   2.0000      -0.616051       -16.7636
  54   2.0000      -0.612898       -16.6778
  55   2.0000      -0.599765       -16.3204
  56   2.0000      -0.592041       -16.1103
  57   2.0000      -0.584202       -15.8969
  58   2.0000      -0.572045       -15.5661
  59   2.0000      -0.569051       -15.4847
  60   2.0000      -0.559584       -15.2270
  61   2.0000      -0.551527       -15.0078
  62   2.0000      -0.549863       -14.9625
  63   2.0000      -0.532735       -14.4965
  64   2.0000      -0.531977       -14.4758
  65   2.0000      -0.526434       -14.3250
  66   2.0000      -0.519686       -14.1414
  67   2.0000      -0.513309       -13.9678
  68   2.0000      -0.510150       -13.8819
  69   2.0000      -0.501106       -13.6358
  70   2.0000      -0.496226       -13.5030
  71   2.0000      -0.487827       -13.2745
  72   2.0000      -0.476152       -12.9567
  73   2.0000      -0.471258       -12.8236
  74   2.0000      -0.460507       -12.5310
  75   2.0000      -0.454697       -12.3729
  76   2.0000      -0.436007       -11.8644
  77   2.0000      -0.427638       -11.6366
  78   2.0000      -0.409332       -11.1385
  79   2.0000      -0.357360        -9.7243
  80   2.0000      -0.322045        -8.7633
  81   2.0000      -0.315565        -8.5870
  82   2.0000      -0.303336        -8.2542
  83   0.0000       0.023686         0.6445
  84   0.0000       0.027800         0.7565
  85   0.0000       0.030043         0.8175
  86   0.0000       0.033321         0.9067
  87   0.0000       0.036149         0.9837

MULLIKEN ATOMIC CHARGES
-----------------------
   0 C :   -0.659444
   1 H :    0.288148
   2 C :   -0.015041
   3 C :   -0.840769
   4 H :    0.182526
   5 H :    0.094604
   6 C :    0.031182
   7 H :    0.143758
   8 N :   -0.375326
   9 C :    1.338408
  10 C :   -0.732341
  11 C :   -0.818094
  12 C :    0.356131
  13 C :    0.812206
  14 C :   -1.034174
  15 H :    0.222894
  16 H :    0.259159
  17 H :    0.344417
  18 C :   -0.761767
  19 H :    0.232638
  20 H :    0.359056
  21 C :    1.633281
  22 C :    0.989045
  23 C :   -0.569391
  24 H :    0.192070
  25 H :    0.223419
  26 H :    0.168220
  27 C :   -1.083674
  28 H :    0.025588
  29 C :   -1.115846
  30 H :    0.033179
  31 C :   -0.306970
  32 H :    0.647800
  33 C :   -0.647923
  34 H :    0.456097
  35 C :    0.437159
  36 O :   -1.027752
  37 O :   -0.456971
  38 C :   -0.975755
  39 H :    0.346197
  40 H :    0.401655
  41 H :    0.422439
  42 H :    0.234143
  43 H :    0.272972
  44 H :    0.375185
  45 H :   -0.102338
Sum of atomic charges:    0.0000000

LOEWDIN ATOMIC CHARGES
----------------------
   0 C :    0.168450
   1 H :   -0.110387
   2 C :   -0.032488
   3 C :    0.305607
   4 H :   -0.114080
   5 H :   -0.235456
   6 C :   -0.109445
   7 H :   -0.102062
   8 N :    0.316102
   9 C :   -0.066721
  10 C :    0.304907
  11 C :    0.267111
  12 C :   -0.023805
  13 C :   -0.030199
  14 C :    0.605475
  15 H :   -0.158380
  16 H :   -0.158294
  17 H :   -0.157156
  18 C :    0.165198
  19 H :   -0.114620
  20 H :   -0.136974
  21 C :   -0.037826
  22 C :   -0.068900
  23 C :    0.299355
  24 H :   -0.132060
  25 H :   -0.143547
  26 H :   -0.140261
  27 C :    0.220097
  28 H :   -0.173854
  29 C :    0.231600
  30 H :   -0.177639
  31 C :    0.197170
  32 H :   -0.183900
  33 C :    0.204706
  34 H :   -0.182893
  35 C :   -0.809658
  36 O :    0.501985
  37 O :    0.570073
  38 C :    0.356186
  39 H :   -0.185479
  40 H :   -0.180611
  41 H :   -0.179011
  42 H :   -0.123299
  43 H :   -0.141846
  44 H :   -0.130539
  45 H :   -0.172629

  Mayer bond orders larger than 0.100000
B(  0-C ,  1-H ) :   1.1313 B(  0-C ,  2-C ) :   0.3741 B(  0-C ,  8-N ) :   0.7751
B(  0-C ,  9-C ) :  -0.1079 B(  0-C , 20-H ) :  -0.1136 B(  0-C , 26-H ) :   1.2823
B(  1-H ,  2-C ) :  -0.2225 B(  1-H ,  8-N ) :  -0.1162 B(  2-C ,  5-H ) :   0.2033
B(  2-C ,  6-C ) :   0.1445 B(  2-C ,  8-N ) :  -0.1082 B(  2-C ,  9-C ) :   0.3331
B(  2-C , 10-C ) :   0.3424 B(  2-C , 11-C ) :   0.3715 B(  2-C , 12-C ) :   0.1743
B(  2-C , 13-C ) :   1.9539 B(  2-C , 26-H ) :  -0.2055 B(  2-C , 42-H ) :  -0.1143
B(  2-C , 43-H ) :  -0.1429 B(  3-C ,  4-H ) :   1.1001 B(  3-C ,  5-H ) :   1.3028
B(  3-C ,  6-C ) :   0.8322 B(  3-C ,  8-N ) :   0.2352 B(  3-C , 13-C ) :   0.2871
B(  3-C , 35-C ) :   0.1429 B(  3-C , 36-O ) :   0.1292 B(  4-H , 13-C ) :  -0.1486
B(  5-H , 13-C ) :  -0.1827 B(  5-H , 35-C ) :   0.1307 B(  6-C ,  7-H ) :   0.9607
B(  6-C ,  8-N ) :   0.8086 B(  6-C ,  9-C ) :  -0.1008 B(  6-C , 13-C ) :   0.1599
B(  6-C , 21-C ) :   0.7253 B(  6-C , 22-C ) :   0.5600 B(  6-C , 23-C ) :  -0.1251
B(  6-C , 29-C ) :   0.6693 B(  8-N , 13-C ) :  -0.1428 B(  8-N , 18-C ) :   0.9950
B(  8-N , 21-C ) :  -0.2865 B(  8-N , 22-C ) :  -0.1765 B(  8-N , 23-C ) :  -0.1119
B(  9-C , 11-C ) :   1.4712 B(  9-C , 12-C ) :   0.1681 B(  9-C , 35-C ) :  -0.9578
B(  9-C , 36-O ) :  -0.1430 B(  9-C , 37-O ) :  -0.1404 B(  9-C , 45-H ) :  -0.2966
B( 10-C , 11-C ) :   0.2632 B( 10-C , 12-C ) :   1.0370 B( 10-C , 14-C ) :   0.1210
B( 10-C , 42-H ) :   1.0804 B( 10-C , 43-H ) :   1.0106 B( 10-C , 44-H ) :  -0.1105
B( 11-C , 12-C ) :   0.5592 B( 11-C , 13-C ) :  -0.5349 B( 11-C , 14-C ) :   0.1228
B( 11-C , 44-H ) :  -0.2159 B( 11-C , 45-H ) :   1.6631 B( 12-C , 14-C ) :   0.6316
B( 12-C , 44-H ) :   0.9973 B( 13-C , 21-C ) :  -0.1284 B( 13-C , 35-C ) :   0.9071
B( 13-C , 36-O ) :  -0.2017 B( 13-C , 45-H ) :   0.1037 B( 14-C , 15-H ) :   1.0368
B( 14-C , 16-H ) :   1.0172 B( 14-C , 17-H ) :   0.9091 B( 18-C , 19-H ) :   1.0453
B( 18-C , 20-H ) :   0.9028 B( 18-C , 22-C ) :   0.1417 B( 18-C , 23-C ) :   1.0485
B( 21-C , 22-C ) :   0.6505 B( 21-C , 23-C ) :   0.2503 B( 21-C , 27-C ) :   0.4768
B( 21-C , 29-C ) :  -0.2857 B( 21-C , 30-H ) :  -0.1705 B( 21-C , 31-C ) :  -0.1192
B( 22-C , 24-H ) :  -0.1189 B( 22-C , 27-C ) :   0.4459 B( 22-C , 29-C ) :  -0.3993
B( 22-C , 31-C ) :   0.2229 B( 23-C , 24-H ) :   1.1316 B( 23-C , 25-H ) :   1.1209
B( 23-C , 27-C ) :   0.1216 B( 27-C , 28-H ) :   1.5717 B( 27-C , 31-C ) :   0.8936
B( 28-H , 31-C ) :  -0.1443 B( 29-C , 30-H ) :   1.5854 B( 29-C , 31-C ) :   0.1533
B( 29-C , 33-C ) :   1.3301 B( 31-C , 32-H ) :   0.4642 B( 31-C , 33-C ) :   1.0578
B( 32-H , 33-C ) :  -0.1004 B( 33-C , 34-H ) :   0.7840 B( 35-C , 36-O ) :   1.3421
B( 35-C , 37-O ) :   0.9082 B( 35-C , 38-C ) :  -0.1357 B( 37-O , 38-C ) :   0.9387
B( 38-C , 39-H ) :   0.9203 B( 38-C , 40-H ) :   0.8516 B( 38-C , 41-H ) :   0.8610

MP2 TOTAL ENERGY:     -979.239772964 Eh
FINAL SINGLE POINT ENERGY      -979.239772964155

DIPOLE MOMENT
-------------
                                X             Y             Z
Electronic contribution:     -2.32136       8.81826      -2.34480
Nuclear contribution   :      3.15599      -9.57863       2.51845
                        -----------------------------------------
Total Dipole Moment    :      0.83464      -0.76038       0.17366
                        -----------------------------------------
Magnitude (a.u.)       :      1.14234
Magnitude (Debye)      :      2.90360

Rotational constants in cm-1:     0.013490     0.005754     0.004264
Rotational constants in MHz :   404.419971   172.511738   127.843230

                             ****ORCA TERMINATED NORMALLY****
TOTAL RUN TIME: 0 days 1 hours 29 minutes 9 seconds 170 msec
