                         Program Version 4.2.1 -  RELEASE  -
|  1> %pal
|  2>  nprocs 32
|  3> end
|  4> !RI-MP2 aug-cc-pVTZ aug-cc-pVTZ/C TightSCF
|  5> %maxcore 4500
|  6> *xyzfile 0 1  08_12P2.xyz
|  7>
|  8>
|  9>                          ****END OF INPUT****

CARTESIAN COORDINATES (ANGSTROEM)
---------------------------------
  S      2.821847   -0.565397   -0.380131
  C      3.703227    0.472403    0.817254
  H      3.975928    1.430055    0.373009
  H      4.614440   -0.059670    1.088038
  H      3.119057    0.638669    1.721986
  C      1.399951    0.503726   -0.742326
  C      0.319240    0.438930    0.317705
  H      0.995440    0.172709   -1.696818
  H      1.740743    1.534020   -0.852132
  C     -0.484159   -0.851755    0.359974
  C     -1.808919   -0.361590    0.948916
  C     -1.966400    1.028638    0.294900
  O     -0.637515    1.482740    0.068902
  N     -2.758953    0.922457   -0.902246
  H     -2.460521    1.737326    0.961677
  O     -2.881752   -1.221927    0.668889
  H     -1.706974   -0.250915    2.032053
  O     -0.695272   -1.330471   -0.955910
  H      0.003538   -1.612618    0.973488
  H     -1.401458   -1.985123   -0.898092
  H     -3.427126   -0.753882    0.014065
  H      0.758522    0.604328    1.308252
  H     -3.089827    1.824239   -1.217892
  H     -2.219968    0.485175   -1.643417

 Total Charge           Charge          ....    0
 Multiplicity           Mult            ....    1
 Number of Electrons    NEL             ....   96
 Basis Dimension        Dim             ....  809

ORBITAL ENERGIES
----------------

  NO   OCC          E(Eh)            E(eV)
   0   2.0000     -91.945358     -2501.9604
   1   2.0000     -20.565614      -559.6188
   2   2.0000     -20.562608      -559.5370
   3   2.0000     -20.561615      -559.5100
   4   2.0000     -15.559604      -423.3984
   5   2.0000     -11.318613      -307.9951
   6   2.0000     -11.290222      -307.2226
   7   2.0000     -11.287165      -307.1394
   8   2.0000     -11.284080      -307.0554
   9   2.0000     -11.252171      -306.1871
  10   2.0000     -11.251699      -306.1743
  11   2.0000      -8.945514      -243.4198
  12   2.0000      -6.626827      -180.3251
  13   2.0000      -6.625849      -180.2985
  14   2.0000      -6.624917      -180.2732
  15   2.0000      -1.410023       -38.3687
  16   2.0000      -1.374362       -37.3983
  17   2.0000      -1.360010       -37.0078
  18   2.0000      -1.194323       -32.4992
  19   2.0000      -1.083873       -29.4937
  20   2.0000      -1.036617       -28.2078
  21   2.0000      -0.997588       -27.1457
  22   2.0000      -0.922031       -25.0897
  23   2.0000      -0.831694       -22.6315
  24   2.0000      -0.820311       -22.3218
  25   2.0000      -0.783219       -21.3125
  26   2.0000      -0.752102       -20.4657
  27   2.0000      -0.705681       -19.2025
  28   2.0000      -0.681198       -18.5363
  29   2.0000      -0.671502       -18.2725
  30   2.0000      -0.656335       -17.8598
  31   2.0000      -0.633136       -17.2285
  32   2.0000      -0.601014       -16.3544
  33   2.0000      -0.595397       -16.2016
  34   2.0000      -0.586835       -15.9686
  35   2.0000      -0.578768       -15.7491
  36   2.0000      -0.572751       -15.5853
  37   2.0000      -0.569893       -15.5076
  38   2.0000      -0.539698       -14.6859
  39   2.0000      -0.519358       -14.1324
  40   2.0000      -0.487955       -13.2779
  41   2.0000      -0.474653       -12.9160
  42   2.0000      -0.465240       -12.6598
  43   2.0000      -0.460634       -12.5345
  44   2.0000      -0.437014       -11.8918
  45   2.0000      -0.426930       -11.6174
  46   2.0000      -0.413344       -11.2477
  47   2.0000      -0.338807        -9.2194
  48   0.0000       0.026037         0.7085
  49   0.0000       0.030379         0.8267
  50   0.0000       0.035317         0.9610
  51   0.0000       0.037719         1.0264
  52   0.0000       0.046390         1.2623

MULLIKEN ATOMIC CHARGES
-----------------------
   0 S :   -0.359896
   1 C :   -0.810816
   2 H :    0.278807
   3 H :    0.286514
   4 H :    0.292630
   5 C :   -0.284513
   6 C :    0.390828
   7 H :    0.304252
   8 H :    0.178086
   9 C :    0.108703
  10 C :    0.196745
  11 C :    0.544059
  12 O :   -0.980461
  13 N :   -0.683424
  14 H :    0.438149
  15 O :   -0.892408
  16 H :    0.352711
  17 O :   -0.707730
  18 H :    0.482317
  19 H :    0.109894
  20 H :    0.207117
  21 H :    0.358681
  22 H :    0.043686
  23 H :    0.146069
Sum of atomic charges:    0.0000000

LOEWDIN ATOMIC CHARGES
----------------------
   0 S :    1.202820
   1 C :    0.220229
   2 H :   -0.241583
   3 H :   -0.255930
   4 H :   -0.247362
   5 C :   -0.063311
   6 C :   -0.325299
   7 H :   -0.241364
   8 H :   -0.211200
   9 C :   -0.245574
  10 C :   -0.226521
  11 C :   -0.335257
  12 O :    0.614570
  13 N :    0.864047
  14 H :   -0.134090
  15 O :    0.852457
  16 H :   -0.129918
  17 O :    0.850557
  18 H :   -0.127278
  19 H :   -0.493263
  20 H :   -0.565082
  21 H :   -0.154500
  22 H :   -0.295151
  23 H :   -0.311998

  Mayer bond orders larger than 0.100000
B(  0-S ,  1-C ) :   0.9701 B(  0-S ,  5-C ) :   0.7272 B(  0-S ,  6-C ) :   0.1917
B(  1-C ,  2-H ) :   0.9196 B(  1-C ,  3-H ) :   0.9623 B(  1-C ,  4-H ) :   0.9083
B(  5-C ,  6-C ) :   0.9127 B(  5-C ,  7-H ) :   0.9608 B(  5-C ,  8-H ) :   0.9946
B(  6-C ,  9-C ) :   0.9592 B(  6-C , 12-O ) :   0.4398 B(  6-C , 21-H ) :   0.8566
B(  9-C , 10-C ) :   1.1237 B(  9-C , 15-O ) :   0.1537 B(  9-C , 17-O ) :   0.5197
B(  9-C , 18-H ) :   0.7697 B( 10-C , 11-C ) :   1.0739 B( 10-C , 13-N ) :   0.1707
B( 10-C , 15-O ) :   0.2042 B( 10-C , 16-H ) :   0.9512 B( 11-C , 12-O ) :   0.7408
B( 11-C , 13-N ) :   0.3962 B( 11-C , 14-H ) :   0.8516 B( 11-C , 15-O ) :   0.1278
B( 13-N , 22-H ) :   1.0687 B( 13-N , 23-H ) :   0.9314 B( 15-O , 20-H ) :   0.9581
B( 17-O , 19-H ) :   1.0131

MP2 TOTAL ENERGY:     -913.712366428 Eh
FINAL SINGLE POINT ENERGY      -913.712366427921

DIPOLE MOMENT
-------------
                                X             Y             Z
Electronic contribution:     -0.91901      -3.02036      -1.80508
Nuclear contribution   :      0.73642       3.79263       2.18004
                        -----------------------------------------
Total Dipole Moment    :     -0.18258       0.77227       0.37496
                        -----------------------------------------
Magnitude (a.u.)       :      0.87769
Magnitude (Debye)      :      2.23090

Rotational constants in cm-1:     0.068174     0.017482     0.016269
Rotational constants in MHz :  2043.816603   524.109414   487.744609

                             ****ORCA TERMINATED NORMALLY****
TOTAL RUN TIME: 0 days 0 hours 8 minutes 26 seconds 16 msec
