                         Program Version 4.2.1 -  RELEASE  -
|  1> %pal
|  2>  nprocs 32
|  3> end
|  4> !RI-MP2 aug-cc-pVTZ aug-cc-pVTZ/C TightSCF
|  5> %maxcore 4500
|  6> *xyzfile 0 1  10_84P.xyz
|  7>
|  8>
|  9>                          ****END OF INPUT****

CARTESIAN COORDINATES (ANGSTROEM)
---------------------------------
  C      0.231234   -1.426783    1.053477
  C     -0.362081   -0.505607    0.018946
  C      0.503846    0.558579   -0.630939
  C      1.981922    0.090485   -0.707506
  C      2.035463   -1.225089   -1.464206
  C      1.894303   -2.237040   -0.615478
  C      1.724848   -1.699168    0.794874
  H      0.112566   -0.943027    2.029936
  H     -0.340331   -2.355163    1.093134
  H      2.120284   -2.351762    1.573469
  C      2.445900   -0.350590    0.684691
  H      1.812640   -3.284207   -0.877433
  H      2.088758   -1.297118   -2.543061
  C     -1.665676   -0.592767   -0.314306
  H      3.527649   -0.491839    0.694615
  H      2.175013    0.353041    1.473148
  H      2.592198    0.877637   -1.149306
  C     -0.622861    2.138801    2.453944
  C     -2.255647    0.305280   -1.259589
  C     -2.536344   -1.559998    0.279784
  N     -2.707406    1.037247   -2.020518
  N     -3.226444   -2.340224    0.763524
  C     -0.120287    2.028706    1.260259
  C      0.358256    1.912297    0.055376
  C      0.777501    3.111165   -0.755019
  H      1.825536    3.039787   -1.056674
  H      0.173402    3.175934   -1.664186
  H      0.647750    4.030891   -0.187346
  H      0.143574    0.696676   -1.654791
  H     -1.689321    2.271923    2.603204
  H      0.004964    2.108436    3.338402

 Total Charge           Charge          ....    0
 Multiplicity           Mult            ....    1
 Number of Electrons    NEL             ....  118
 Basis Dimension        Dim             .... 1104

ORBITAL ENERGIES
----------------

  NO   OCC          E(Eh)            E(eV)
   0   2.0000     -15.580315      -423.9619
   1   2.0000     -15.579664      -423.9442
   2   2.0000     -11.321204      -308.0656
   3   2.0000     -11.309768      -307.7544
   4   2.0000     -11.286871      -307.1314
   5   2.0000     -11.286160      -307.1120
   6   2.0000     -11.278615      -306.9067
   7   2.0000     -11.267341      -306.5999
   8   2.0000     -11.261767      -306.4483
   9   2.0000     -11.260990      -306.4271
  10   2.0000     -11.260526      -306.4145
  11   2.0000     -11.258550      -306.3607
  12   2.0000     -11.248377      -306.0839
  13   2.0000     -11.247535      -306.0610
  14   2.0000     -11.245707      -306.0113
  15   2.0000     -11.241554      -305.8982
  16   2.0000     -11.240449      -305.8682
  17   2.0000      -1.247672       -33.9509
  18   2.0000      -1.229102       -33.4456
  19   2.0000      -1.211769       -32.9739
  20   2.0000      -1.146985       -31.2111
  21   2.0000      -1.122146       -30.5352
  22   2.0000      -1.055102       -28.7108
  23   2.0000      -1.032670       -28.1004
  24   2.0000      -1.005722       -27.3671
  25   2.0000      -0.983351       -26.7584
  26   2.0000      -0.922488       -25.1022
  27   2.0000      -0.887721       -24.1561
  28   2.0000      -0.857262       -23.3273
  29   2.0000      -0.790636       -21.5143
  30   2.0000      -0.771914       -21.0049
  31   2.0000      -0.746094       -20.3022
  32   2.0000      -0.739684       -20.1278
  33   2.0000      -0.696619       -18.9560
  34   2.0000      -0.676217       -18.4008
  35   2.0000      -0.646171       -17.5832
  36   2.0000      -0.635235       -17.2856
  37   2.0000      -0.621876       -16.9221
  38   2.0000      -0.618830       -16.8392
  39   2.0000      -0.601279       -16.3616
  40   2.0000      -0.588269       -16.0076
  41   2.0000      -0.574771       -15.6403
  42   2.0000      -0.573236       -15.5986
  43   2.0000      -0.570755       -15.5310
  44   2.0000      -0.558316       -15.1926
  45   2.0000      -0.555730       -15.1222
  46   2.0000      -0.550583       -14.9821
  47   2.0000      -0.541395       -14.7321
  48   2.0000      -0.512964       -13.9585
  49   2.0000      -0.494636       -13.4597
  50   2.0000      -0.491675       -13.3792
  51   2.0000      -0.489185       -13.3114
  52   2.0000      -0.488107       -13.2821
  53   2.0000      -0.480117       -13.0647
  54   2.0000      -0.465221       -12.6593
  55   2.0000      -0.394840       -10.7441
  56   2.0000      -0.388191       -10.5632
  57   2.0000      -0.375682       -10.2228
  58   2.0000      -0.357706        -9.7337
  59   0.0000       0.017183         0.4676
  60   0.0000       0.025586         0.6962
  61   0.0000       0.026556         0.7226
  62   0.0000       0.032397         0.8816
  63   0.0000       0.038817         1.0563

MULLIKEN ATOMIC CHARGES
-----------------------
   0 C :   -0.965670
   1 C :    0.231266
   2 C :   -0.514828
   3 C :   -0.128312
   4 C :   -0.913306
   5 C :   -0.734759
   6 C :   -0.250297
   7 H :    0.218844
   8 H :    0.073476
   9 H :    0.424914
  10 C :   -0.644702
  11 H :    0.578730
  12 H :    0.521512
  13 C :    1.216568
  14 H :    0.363777
  15 H :    0.269066
  16 H :    0.430344
  17 C :   -1.820698
  18 C :    1.132488
  19 C :    0.813760
  20 N :   -1.045532
  21 N :   -1.027649
  22 C :    1.395216
  23 C :    0.254115
  24 C :   -1.212111
  25 H :    0.280501
  26 H :    0.282475
  27 H :    0.279675
  28 H :   -0.090816
  29 H :    0.329610
  30 H :    0.252341
Sum of atomic charges:   -0.0000000

LOEWDIN ATOMIC CHARGES
----------------------
   0 C :    0.332415
   1 C :   -0.059485
   2 C :    0.005730
   3 C :    0.019773
   4 C :    0.275309
   5 C :    0.274537
   6 C :    0.015862
   7 H :   -0.123209
   8 H :   -0.154803
   9 H :   -0.116678
  10 C :    0.325669
  11 H :   -0.155559
  12 H :   -0.154453
  13 C :   -0.183750
  14 H :   -0.122752
  15 H :   -0.138987
  16 H :   -0.127989
  17 C :    0.505012
  18 C :   -0.257693
  19 C :   -0.255323
  20 N :    0.310006
  21 N :    0.298435
  22 C :    0.131790
  23 C :   -0.127639
  24 C :    0.588968
  25 H :   -0.168703
  26 H :   -0.155103
  27 H :   -0.166554
  28 H :   -0.157188
  29 H :   -0.227148
  30 H :   -0.230490

  Mayer bond orders larger than 0.100000
B(  0-C ,  1-C ) :   0.4738 B(  0-C ,  2-C ) :   0.1873 B(  0-C ,  6-C ) :   1.0117
B(  0-C ,  7-H ) :   1.1072 B(  0-C ,  8-H ) :   1.0612 B(  0-C , 13-C ) :  -0.2576
B(  0-C , 28-H ) :   0.1418 B(  1-C ,  2-C ) :   1.2327 B(  1-C ,  3-C ) :   0.3616
B(  1-C ,  4-C ) :  -0.3993 B(  1-C ,  5-C ) :  -0.1122 B(  1-C ,  6-C ) :   0.1151
B(  1-C , 10-C ) :  -0.2841 B(  1-C , 13-C ) :   1.1332 B(  1-C , 17-C ) :  -0.2661
B(  1-C , 19-C ) :   1.2981 B(  1-C , 21-N ) :  -0.1342 B(  1-C , 23-C ) :   0.4770
B(  1-C , 28-H ) :  -0.1329 B(  2-C ,  3-C ) :   0.8957 B(  2-C ,  4-C ) :   0.3367
B(  2-C ,  5-C ) :   0.1528 B(  2-C , 17-C ) :  -0.2794 B(  2-C , 18-C ) :   0.2392
B(  2-C , 20-N ) :   0.1713 B(  2-C , 22-C ) :  -0.2556 B(  2-C , 23-C ) :   1.6403
B(  2-C , 24-C ) :   0.3315 B(  2-C , 28-H ) :   0.9142 B(  3-C ,  4-C ) :   0.9761
B(  3-C , 10-C ) :   0.9623 B(  3-C , 13-C ) :  -0.1183 B(  3-C , 16-H ) :   0.7585
B(  4-C ,  5-C ) :   1.5390 B(  4-C ,  6-C ) :   0.1166 B(  4-C , 12-H ) :   0.6666
B(  4-C , 13-C ) :   0.1186 B(  4-C , 16-H ) :  -0.1544 B(  4-C , 28-H ) :   0.1262
B(  5-C ,  6-C ) :   1.1164 B(  5-C ,  9-H ) :  -0.1306 B(  5-C , 11-H ) :   0.6124
B(  6-C ,  9-H ) :   0.8255 B(  6-C , 10-C ) :   1.0333 B(  8-H , 13-C ) :  -0.2172
B( 10-C , 14-H ) :   0.8703 B( 10-C , 15-H ) :   1.0123 B( 13-C , 17-C ) :   0.1996
B( 13-C , 18-C ) :   0.8529 B( 13-C , 19-C ) :  -0.2465 B( 13-C , 20-N ) :   0.3639
B( 13-C , 21-N ) :   0.3942 B( 13-C , 22-C ) :   0.2373 B( 13-C , 23-C ) :  -0.3315
B( 15-H , 23-C ) :   0.1314 B( 16-H , 23-C ) :   0.1041 B( 17-C , 22-C ) :   0.2954
B( 17-C , 24-C ) :   0.1501 B( 17-C , 29-H ) :   1.0710 B( 17-C , 30-H ) :   1.2684
B( 18-C , 19-C ) :  -0.2780 B( 18-C , 20-N ) :   1.2465 B( 19-C , 21-N ) :   1.3143
B( 22-C , 23-C ) :   0.7001 B( 22-C , 29-H ) :  -0.1710 B( 22-C , 30-H ) :  -0.3138
B( 23-C , 24-C ) :   0.2663 B( 23-C , 25-H ) :  -0.1617 B( 23-C , 26-H ) :  -0.1570
B( 23-C , 28-H ) :   0.1987 B( 23-C , 30-H ) :   0.1180 B( 24-C , 25-H ) :   1.0747
B( 24-C , 26-H ) :   1.0486 B( 24-C , 27-H ) :   0.9903

MP2 TOTAL ENERGY:     -688.006400594 Eh
FINAL SINGLE POINT ENERGY      -688.006400593745

DIPOLE MOMENT
-------------
                                X             Y             Z
Electronic contribution:    -12.50915      -5.48739      -3.08491
Nuclear contribution   :     15.11359       5.80579       3.65455
                        -----------------------------------------
Total Dipole Moment    :      2.60444       0.31840       0.56963
                        -----------------------------------------
Magnitude (a.u.)       :      2.68495
Magnitude (Debye)      :      6.82460

Rotational constants in cm-1:     0.018646     0.016438     0.012606
Rotational constants in MHz :   558.980101   492.801430   377.931558

                             ****ORCA TERMINATED NORMALLY****
TOTAL RUN TIME: 0 days 0 hours 30 minutes 33 seconds 65 msec
