                         Program Version 4.2.1 -  RELEASE  -
|  1> %pal
|  2>  nprocs 32
|  3> end
|  4> !RI-MP2 aug-cc-pVTZ aug-cc-pVTZ/C TightSCF
|  5> %maxcore 4500
|  6> *xyzfile -1 1  08_1P2.xyz
|  7>
|  8>
|  9>                          ****END OF INPUT****

CARTESIAN COORDINATES (ANGSTROEM)
---------------------------------
  C     -0.207880    0.000001   -0.010310
  O     -0.748902   -1.127540    0.002016
  C      1.344954   -0.000031   -0.004880
  H      1.686598    0.000108    1.035701
  H      1.736443    0.897727   -0.488500
  H      1.736444   -0.897902   -0.488295
  O     -0.748840    1.127570    0.002014

 Total Charge           Charge          ....   -1
 Multiplicity           Mult            ....    1
 Number of Electrons    NEL             ....   32
 Basis Dimension        Dim             ....  253

ORBITAL ENERGIES
----------------

  NO   OCC          E(Eh)            E(eV)
   0   2.0000     -20.284221      -551.9617
   1   2.0000     -20.284187      -551.9608
   2   2.0000     -11.127909      -302.8058
   3   2.0000     -11.043744      -300.5156
   4   2.0000      -1.163342       -31.6562
   5   2.0000      -1.062104       -28.9013
   6   2.0000      -0.789469       -21.4825
   7   2.0000      -0.508706       -13.8426
   8   2.0000      -0.414845       -11.2885
   9   2.0000      -0.414602       -11.2819
  10   2.0000      -0.409709       -11.1488
  11   2.0000      -0.359800        -9.7907
  12   2.0000      -0.317471        -8.6388
  13   2.0000      -0.201222        -5.4755
  14   2.0000      -0.191254        -5.2043
  15   2.0000      -0.187828        -5.1111
  16   0.0000       0.132948         3.6177
  17   0.0000       0.143709         3.9105
  18   0.0000       0.145197         3.9510
  19   0.0000       0.185197         5.0395
  20   0.0000       0.221108         6.0166

MULLIKEN ATOMIC CHARGES
-----------------------
   0 C :    0.451800
   1 O :   -0.779335
   2 C :   -0.645319
   3 H :    0.221791
   4 H :    0.265195
   5 H :    0.265211
   6 O :   -0.779343
Sum of atomic charges:   -1.0000000

LOEWDIN ATOMIC CHARGES
----------------------
   0 C :   -1.238848
   1 O :    0.224644
   2 C :    0.458561
   3 H :   -0.214036
   4 H :   -0.227487
   5 H :   -0.227482
   6 O :    0.224647

  Mayer bond orders larger than 0.100000
B(  0-C ,  1-O ) :   1.4756 B(  0-C ,  2-C ) :   0.7615 B(  0-C ,  6-O ) :   1.4756
B(  2-C ,  3-H ) :   0.9529 B(  2-C ,  4-H ) :   0.9389 B(  2-C ,  5-H ) :   0.9389

MP2 TOTAL ENERGY:     -228.160520079 Eh
FINAL SINGLE POINT ENERGY      -228.160520079395

DIPOLE MOMENT
-------------
                                X             Y             Z
Electronic contribution:     -3.60509       0.00004      -0.06726
Nuclear contribution   :      5.06422      -0.00006       0.05815
                        -----------------------------------------
Total Dipole Moment    :      1.45914      -0.00003      -0.00911
                        -----------------------------------------
Magnitude (a.u.)       :      1.45917
Magnitude (Debye)      :      3.70890

Rotational constants in cm-1:     0.384260     0.335415     0.185245
Rotational constants in MHz : 11519.835411 10055.482937  5553.495391

                             ****ORCA TERMINATED NORMALLY****
TOTAL RUN TIME: 0 days 0 hours 0 minutes 17 seconds 541 msec
