                         Program Version 4.2.1 -  RELEASE  -
|  1> %pal
|  2>  nprocs 32
|  3> end
|  4> !RI-MP2 aug-cc-pVTZ aug-cc-pVTZ/C TightSCF
|  5> %maxcore 4500
|  6> *xyzfile 0 2  04_16R2.xyz
|  7>
|  8>
|  9>                          ****END OF INPUT****

CARTESIAN COORDINATES (ANGSTROEM)
---------------------------------
  O      0.055077    0.712272    0.000000
  O      0.055077   -0.603017    0.000000
  H     -0.881227   -0.874042    0.000000

 Total Charge           Charge          ....    0
 Multiplicity           Mult            ....    2
 Number of Electrons    NEL             ....   17
 Basis Dimension        Dim             ....  115

ORBITAL ENERGIES
----------------
                 SPIN UP ORBITALS
  NO   OCC          E(Eh)            E(eV)
   0   1.0000     -20.688112      -562.9521
   1   1.0000     -20.675903      -562.6199
   2   1.0000      -1.585241       -43.1366
   3   1.0000      -1.206330       -32.8259
   4   1.0000      -0.776541       -21.1308
   5   1.0000      -0.760647       -20.6982
   6   1.0000      -0.679604       -18.4930
   7   1.0000      -0.525357       -14.2957
   8   1.0000      -0.520282       -14.1576
   9   0.0000       0.030335         0.8255
  10   0.0000       0.099970         2.7203
  11   0.0000       0.128869         3.5067
  12   0.0000       0.153503         4.1770
  13   0.0000       0.178463         4.8562

                 SPIN DOWN ORBITALS
  NO   OCC          E(Eh)            E(eV)
   0   1.0000     -20.667590      -562.3937
   1   1.0000     -20.647776      -561.8545
   2   1.0000      -1.522662       -41.4337
   3   1.0000      -1.103983       -30.0409
   4   1.0000      -0.755980       -20.5713
   5   1.0000      -0.655024       -17.8241
   6   1.0000      -0.572867       -15.5885
   7   1.0000      -0.483854       -13.1663
   8   0.0000       0.030576         0.8320
   9   0.0000       0.098003         2.6668
  10   0.0000       0.101946         2.7741
  11   0.0000       0.129154         3.5145
  12   0.0000       0.165164         4.4943

MULLIKEN ATOMIC CHARGES AND SPIN POPULATIONS
--------------------------------------------
   0 O :   -0.092612    0.938441
   1 O :   -0.189276    0.079569
   2 H :    0.281888   -0.018009
Sum of atomic charges         :   -0.0000000

LOEWDIN ATOMIC CHARGES AND SPIN POPULATIONS
-------------------------------------------
   0 O :    0.159968    0.824719
   1 O :    0.380053    0.185295
   2 H :   -0.540022   -0.010013

  Mayer bond orders larger than 0.100000
B(  0-O ,  1-O ) :   0.9094 B(  1-O ,  2-H ) :   0.9408

MP2 TOTAL ENERGY:     -150.692514919 Eh
FINAL SINGLE POINT ENERGY      -150.692514918640

DIPOLE MOMENT
-------------
                                X             Y             Z
Electronic contribution:      0.16579       0.46089       0.00000
Nuclear contribution   :     -0.85075      -0.84381       0.00000
                        -----------------------------------------
Total Dipole Moment    :     -0.68496      -0.38292       0.00000
                        -----------------------------------------
Magnitude (a.u.)       :      0.78473
Magnitude (Debye)      :      1.99462

Rotational constants in cm-1:    20.949944     1.144146     1.084896
Rotational constants in MHz : 628063.511753 34300.637957 32524.373700

                             ****ORCA TERMINATED NORMALLY****
TOTAL RUN TIME: 0 days 0 hours 0 minutes 11 seconds 326 msec
