                         Program Version 4.2.1 -  RELEASE  -
|  1> %pal
|  2>  nprocs 32
|  3> end
|  4> !RI-MP2 aug-cc-pVTZ aug-cc-pVTZ/C TightSCF
|  5> %maxcore 4500
|  6> *xyzfile 0 2  06_33TS.xyz
|  7>
|  8>
|  9>                          ****END OF INPUT****

CARTESIAN COORDINATES (ANGSTROEM)
---------------------------------
  Si     0.593541    0.073766    0.009590
  Si     1.684500   -1.381940   -1.468667
  Si     1.259569   -0.279522    2.225814
  Si     0.895663    2.303306   -0.649017
  C      0.647963    2.471429   -2.510743
  H      0.768731    3.512589   -2.823460
  H      1.373818    1.872507   -3.065301
  H     -0.349670    2.146542   -2.815335
  C     -0.300475    3.472793    0.221525
  H     -0.238532    3.377340    1.307624
  H     -0.063613    4.509465   -0.035390
  H     -1.336380    3.289817   -0.069711
  C      2.649938    2.846504   -0.220443
  H      3.397425    2.186671   -0.665646
  H      2.838305    3.860748   -0.584417
  H      2.809983    2.848351    0.860393
  C      0.569814    1.077373    3.339053
  H      0.838168    0.893973    4.383401
  H      0.963179    2.058715    3.063761
  H     -0.520145    1.127555    3.279707
  C      0.636209   -1.946506    2.839068
  H      1.036592   -2.765420    2.238456
  H      0.939510   -2.110479    3.877291
  H     -0.452360   -2.014077    2.791970
  C      3.141802   -0.259818    2.340491
  H      3.557170    0.687226    1.989239
  H      3.468569   -0.405831    3.374167
  H      3.582597   -1.058050    1.738410
  C      1.922018   -3.076722   -0.684716
  H      2.378006   -3.768438   -1.398941
  H      2.574870   -3.025871    0.189776
  H      0.966706   -3.499670   -0.368224
  C      0.655775   -1.571278   -3.034788
  H      0.451831   -0.604977   -3.501844
  H      1.174853   -2.195038   -3.768230
  H     -0.301194   -2.046953   -2.809231
  C      3.380868   -0.692378   -1.923551
  H      3.912294   -1.385168   -2.582532
  H      3.302813    0.264683   -2.444296
  H      3.998838   -0.538160   -1.035692
  H     -0.968623   -0.334178   -0.061846
  C     -2.422452   -0.977154   -0.089286
  C     -3.032077   -0.524899    1.202569
  Cl    -2.064551   -2.709973   -0.131683
  C     -3.023926   -0.460494   -1.360704
  C     -3.212510    0.994593    1.218664
  C     -3.944230    1.485725   -0.028643
  C     -3.214699    1.056933   -1.299967
  H     -2.412081   -0.850023    2.041240
  H     -4.008807   -1.014769    1.327530
  H     -3.996815   -0.948724   -1.518330
  H     -2.394526   -0.737130   -2.209797
  H     -2.230208    1.472215    1.272811
  H     -3.754378    1.286111    2.121486
  H     -4.043049    2.574034   -0.001580
  H     -4.962302    1.078833   -0.037898
  H     -2.234776    1.540404   -1.333489
  H     -3.759363    1.389570   -2.186718

 Total Charge           Charge          ....    0
 Multiplicity           Mult            ....    2
 Number of Electrons    NEL             ....  201
 Basis Dimension        Dim             .... 1814

ORBITAL ENERGIES
----------------
                 SPIN UP ORBITALS
  NO   OCC          E(Eh)            E(eV)
   0   1.0000    -104.824058     -2852.4076
   1   1.0000     -68.750346     -1870.7920
   2   1.0000     -68.747420     -1870.7124
   3   1.0000     -68.745570     -1870.6621
   4   1.0000     -68.724099     -1870.0778
   5   1.0000     -11.297844      -307.4300
   6   1.0000     -11.232566      -305.6537
   7   1.0000     -11.232144      -305.6422
   8   1.0000     -11.227423      -305.5137
   9   1.0000     -11.226735      -305.4950
  10   1.0000     -11.225246      -305.4545
  11   1.0000     -11.198283      -304.7208
  12   1.0000     -11.197963      -304.7121
  13   1.0000     -11.197267      -304.6931
  14   1.0000     -11.197186      -304.6909
  15   1.0000     -11.195655      -304.6493
  16   1.0000     -11.194781      -304.6255
  17   1.0000     -11.191732      -304.5425
  18   1.0000     -11.191499      -304.5362
  19   1.0000     -11.190518      -304.5095
  20   1.0000     -10.548140      -287.0295
  21   1.0000      -8.014547      -218.0869
  22   1.0000      -8.013404      -218.0558
  23   1.0000      -8.013279      -218.0524
  24   1.0000      -6.097906      -165.9325
  25   1.0000      -6.095065      -165.8551
  26   1.0000      -6.093180      -165.8038
  27   1.0000      -6.077055      -165.3651
  28   1.0000      -4.204139      -114.4004
  29   1.0000      -4.203907      -114.3941
  30   1.0000      -4.203840      -114.3923
  31   1.0000      -4.201278      -114.3226
  32   1.0000      -4.201056      -114.3165
  33   1.0000      -4.201010      -114.3153
  34   1.0000      -4.199393      -114.2713
  35   1.0000      -4.199149      -114.2647
  36   1.0000      -4.199139      -114.2644
  37   1.0000      -4.185981      -113.9063
  38   1.0000      -4.181386      -113.7813
  39   1.0000      -4.181355      -113.7805
  40   1.0000      -1.170527       -31.8517
  41   1.0000      -1.094229       -29.7755
  42   1.0000      -1.022580       -27.8258
  43   1.0000      -0.986826       -26.8529
  44   1.0000      -0.968420       -26.3520
  45   1.0000      -0.962166       -26.1819
  46   1.0000      -0.959419       -26.1071
  47   1.0000      -0.924110       -25.1463
  48   1.0000      -0.923433       -25.1279
  49   1.0000      -0.920657       -25.0523
  50   1.0000      -0.918839       -25.0029
  51   1.0000      -0.917818       -24.9751
  52   1.0000      -0.915208       -24.9041
  53   1.0000      -0.853736       -23.2313
  54   1.0000      -0.823145       -22.3989
  55   1.0000      -0.763220       -20.7683
  56   1.0000      -0.713923       -19.4268
  57   1.0000      -0.661798       -18.0084
  58   1.0000      -0.627132       -17.0651
  59   1.0000      -0.624329       -16.9889
  60   1.0000      -0.621113       -16.9013
  61   1.0000      -0.619452       -16.8561
  62   1.0000      -0.614959       -16.7339
  63   1.0000      -0.587947       -15.9989
  64   1.0000      -0.572851       -15.5881
  65   1.0000      -0.571215       -15.5436
  66   1.0000      -0.565937       -15.3999
  67   1.0000      -0.564749       -15.3676
  68   1.0000      -0.561220       -15.2716
  69   1.0000      -0.560113       -15.2415
  70   1.0000      -0.554966       -15.1014
  71   1.0000      -0.554171       -15.0798
  72   1.0000      -0.553551       -15.0629
  73   1.0000      -0.545860       -14.8536
  74   1.0000      -0.543493       -14.7892
  75   1.0000      -0.542385       -14.7590
  76   1.0000      -0.540417       -14.7055
  77   1.0000      -0.539164       -14.6714
  78   1.0000      -0.536709       -14.6046
  79   1.0000      -0.535119       -14.5613
  80   1.0000      -0.533332       -14.5127
  81   1.0000      -0.530361       -14.4319
  82   1.0000      -0.528727       -14.3874
  83   1.0000      -0.524875       -14.2826
  84   1.0000      -0.524403       -14.2697
  85   1.0000      -0.498885       -13.5754
  86   1.0000      -0.495458       -13.4821
  87   1.0000      -0.465646       -12.6709
  88   1.0000      -0.461692       -12.5633
  89   1.0000      -0.450011       -12.2454
  90   1.0000      -0.438946       -11.9443
  91   1.0000      -0.432403       -11.7663
  92   1.0000      -0.429738       -11.6938
  93   1.0000      -0.428900       -11.6710
  94   1.0000      -0.426425       -11.6036
  95   1.0000      -0.423461       -11.5230
  96   1.0000      -0.421284       -11.4637
  97   1.0000      -0.415122       -11.2960
  98   1.0000      -0.341257        -9.2861
  99   1.0000      -0.339170        -9.2293
 100   1.0000      -0.280666        -7.6373
 101   0.0000       0.021201         0.5769
 102   0.0000       0.027094         0.7373
 103   0.0000       0.027741         0.7549
 104   0.0000       0.029638         0.8065
 105   0.0000       0.036727         0.9994

                 SPIN DOWN ORBITALS
  NO   OCC          E(Eh)            E(eV)
   0   1.0000    -104.824197     -2852.4114
   1   1.0000     -68.750391     -1870.7932
   2   1.0000     -68.747494     -1870.7144
   3   1.0000     -68.745648     -1870.6642
   4   1.0000     -68.721291     -1870.0014
   5   1.0000     -11.272873      -306.7505
   6   1.0000     -11.234475      -305.7056
   7   1.0000     -11.234046      -305.6939
   8   1.0000     -11.227211      -305.5079
   9   1.0000     -11.226524      -305.4892
  10   1.0000     -11.225313      -305.4563
  11   1.0000     -11.198321      -304.7218
  12   1.0000     -11.198013      -304.7134
  13   1.0000     -11.197219      -304.6918
  14   1.0000     -11.196946      -304.6844
  15   1.0000     -11.195379      -304.6418
  16   1.0000     -11.194530      -304.6186
  17   1.0000     -11.191750      -304.5430
  18   1.0000     -11.191523      -304.5368
  19   1.0000     -11.190537      -304.5100
  20   1.0000     -10.548269      -287.0330
  21   1.0000      -8.015952      -218.1252
  22   1.0000      -8.013350      -218.0543
  23   1.0000      -8.012674      -218.0359
  24   1.0000      -6.097968      -165.9341
  25   1.0000      -6.095170      -165.8580
  26   1.0000      -6.093291      -165.8069
  27   1.0000      -6.073145      -165.2587
  28   1.0000      -4.204242      -114.4033
  29   1.0000      -4.203937      -114.3949
  30   1.0000      -4.203912      -114.3943
  31   1.0000      -4.201513      -114.3290
  32   1.0000      -4.201123      -114.3184
  33   1.0000      -4.201066      -114.3168
  34   1.0000      -4.199642      -114.2781
  35   1.0000      -4.199240      -114.2671
  36   1.0000      -4.199179      -114.2655
  37   1.0000      -4.179405      -113.7274
  38   1.0000      -4.179371      -113.7265
  39   1.0000      -4.175123      -113.6109
  40   1.0000      -1.149381       -31.2762
  41   1.0000      -1.092808       -29.7368
  42   1.0000      -1.022453       -27.8224
  43   1.0000      -0.976315       -26.5669
  44   1.0000      -0.967940       -26.3390
  45   1.0000      -0.961927       -26.1754
  46   1.0000      -0.959197       -26.1011
  47   1.0000      -0.923948       -25.1419
  48   1.0000      -0.923154       -25.1203
  49   1.0000      -0.920527       -25.0488
  50   1.0000      -0.918429       -24.9917
  51   1.0000      -0.917519       -24.9670
  52   1.0000      -0.915212       -24.9042
  53   1.0000      -0.852291       -23.1920
  54   1.0000      -0.808348       -21.9963
  55   1.0000      -0.732451       -19.9310
  56   1.0000      -0.698622       -19.0105
  57   1.0000      -0.653764       -17.7898
  58   1.0000      -0.624037       -16.9809
  59   1.0000      -0.620966       -16.8973
  60   1.0000      -0.615435       -16.7468
  61   1.0000      -0.614527       -16.7221
  62   1.0000      -0.595098       -16.1934
  63   1.0000      -0.583900       -15.8887
  64   1.0000      -0.572609       -15.5815
  65   1.0000      -0.570627       -15.5275
  66   1.0000      -0.565207       -15.3801
  67   1.0000      -0.561961       -15.2917
  68   1.0000      -0.560258       -15.2454
  69   1.0000      -0.558425       -15.1955
  70   1.0000      -0.553966       -15.0742
  71   1.0000      -0.553555       -15.0630
  72   1.0000      -0.552525       -15.0350
  73   1.0000      -0.543569       -14.7913
  74   1.0000      -0.543210       -14.7815
  75   1.0000      -0.539523       -14.6812
  76   1.0000      -0.538015       -14.6401
  77   1.0000      -0.536426       -14.5969
  78   1.0000      -0.534712       -14.5502
  79   1.0000      -0.533200       -14.5091
  80   1.0000      -0.531497       -14.4628
  81   1.0000      -0.529531       -14.4093
  82   1.0000      -0.528518       -14.3817
  83   1.0000      -0.524668       -14.2769
  84   1.0000      -0.524228       -14.2650
  85   1.0000      -0.494627       -13.4595
  86   1.0000      -0.479587       -13.0502
  87   1.0000      -0.460212       -12.5230
  88   1.0000      -0.458863       -12.4863
  89   1.0000      -0.447947       -12.1893
  90   1.0000      -0.434188       -11.8149
  91   1.0000      -0.432352       -11.7649
  92   1.0000      -0.429578       -11.6894
  93   1.0000      -0.427133       -11.6229
  94   1.0000      -0.424925       -11.5628
  95   1.0000      -0.422423       -11.4947
  96   1.0000      -0.421153       -11.4602
  97   1.0000      -0.399573       -10.8729
  98   1.0000      -0.339050        -9.2260
  99   1.0000      -0.337237        -9.1767
 100   0.0000       0.021046         0.5727
 101   0.0000       0.027100         0.7374
 102   0.0000       0.027747         0.7550
 103   0.0000       0.029531         0.8036
 104   0.0000       0.036750         1.0000

MULLIKEN ATOMIC CHARGES AND SPIN POPULATIONS
--------------------------------------------
   0 Si:   -0.200919    1.074082
   1 Si:    1.984552   -0.037479
   2 Si:    2.570214   -0.015572
   3 Si:    3.122161   -0.031058
   4 C :   -1.556161   -0.004170
   5 H :    0.019853   -0.000128
   6 H :    0.314133    0.000771
   7 H :    0.281906   -0.001386
   8 C :   -1.649999   -0.008111
   9 H :    0.346851    0.001407
  10 H :   -0.005027   -0.000531
  11 H :    0.289207   -0.000321
  12 C :   -1.876861    0.004006
  13 H :    0.308036   -0.003352
  14 H :   -0.025002    0.005329
  15 H :    0.266218   -0.002338
  16 C :   -1.543361   -0.004888
  17 H :    0.046290   -0.000205
  18 H :    0.286771    0.000258
  19 H :    0.304761   -0.001900
  20 C :   -1.719222   -0.008339
  21 H :    0.363315    0.001095
  22 H :    0.005334    0.000378
  23 H :    0.405440   -0.002386
  24 C :   -1.644033    0.002748
  25 H :    0.320278   -0.000929
  26 H :   -0.026308    0.003792
  27 H :    0.345155   -0.002790
  28 C :   -1.556839   -0.003964
  29 H :    0.087709    0.000036
  30 H :    0.289710    0.000268
  31 H :    0.269254    0.000231
  32 C :   -1.499668   -0.007311
  33 H :    0.352209    0.000018
  34 H :    0.011903    0.000319
  35 H :    0.256623   -0.000736
  36 C :   -1.429397   -0.000455
  37 H :    0.074988    0.003751
  38 H :    0.283548   -0.002670
  39 H :    0.265561   -0.003965
  40 H :    1.133999   -0.903636
  41 C :    1.418334    0.994525
  42 C :   -1.098073   -0.110972
  43 Cl:   -0.574886   -0.023211
  44 C :   -1.044318   -0.112274
  45 C :   -0.578088    0.025692
  46 C :   -0.610214   -0.001101
  47 C :   -0.544481    0.030860
  48 H :    0.314385    0.027211
  49 H :    0.208216    0.052854
  50 H :    0.229257    0.057849
  51 H :    0.229592    0.026096
  52 H :    0.681452   -0.002223
  53 H :    0.277947   -0.005034
  54 H :    0.119518    0.001900
  55 H :    0.222959   -0.002594
  56 H :    0.597904   -0.003593
  57 H :    0.277314   -0.005848
Sum of atomic charges         :    0.0000000

LOEWDIN ATOMIC CHARGES AND SPIN POPULATIONS
-------------------------------------------
   0 Si:    0.688885    0.134894
   1 Si:    0.382666    0.026673
   2 Si:    0.389923    0.027464
   3 Si:    0.391500    0.030945
   4 C :    0.542811   -0.000741
   5 H :   -0.225435   -0.000293
   6 H :   -0.244149    0.000088
   7 H :   -0.239480   -0.000052
   8 C :    0.550596   -0.001732
   9 H :   -0.241078   -0.000041
  10 H :   -0.223010   -0.000476
  11 H :   -0.254585   -0.000125
  12 C :    0.540973    0.009690
  13 H :   -0.242168    0.000930
  14 H :   -0.225834    0.001991
  15 H :   -0.240904    0.000584
  16 C :    0.541240   -0.000647
  17 H :   -0.226675   -0.000307
  18 H :   -0.243464    0.000122
  19 H :   -0.238384    0.000060
  20 C :    0.543036   -0.001034
  21 H :   -0.245903    0.000036
  22 H :   -0.226494   -0.000414
  23 H :   -0.250997    0.000426
  24 C :    0.541926    0.008560
  25 H :   -0.243637    0.000778
  26 H :   -0.226794    0.001752
  27 H :   -0.240500    0.000593
  28 C :    0.531927    0.000113
  29 H :   -0.227423   -0.000206
  30 H :   -0.244190    0.000179
  31 H :   -0.255102    0.000414
  32 C :    0.539272   -0.000994
  33 H :   -0.241657    0.000070
  34 H :   -0.227391   -0.000399
  35 H :   -0.251441    0.000393
  36 C :    0.537824    0.007895
  37 H :   -0.227003    0.001611
  38 H :   -0.246336    0.000448
  39 H :   -0.236178    0.000813
  40 H :   -0.346604    0.084632
  41 C :   -0.721671    0.446864
  42 C :    0.191122    0.062024
  43 Cl:    1.047250    0.048365
  44 C :    0.194976    0.062521
  45 C :    0.282294    0.001212
  46 C :    0.297958    0.000493
  47 C :    0.285234    0.001158
  48 H :   -0.175740    0.002223
  49 H :   -0.140564    0.018861
  50 H :   -0.142016    0.019102
  51 H :   -0.167806    0.002314
  52 H :   -0.175069    0.000183
  53 H :   -0.130309   -0.000419
  54 H :   -0.137178    0.000174
  55 H :   -0.134189    0.000544
  56 H :   -0.184118    0.000098
  57 H :   -0.129934   -0.000409

  Mayer bond orders larger than 0.100000
B(  0-Si,  1-Si) :  -0.3288 B(  0-Si,  2-Si) :  -0.3931 B(  0-Si,  3-Si) :  -0.3618
B(  0-Si,  4-C ) :   0.2629 B(  0-Si,  8-C ) :   0.2434 B(  0-Si, 12-C ) :   0.1159
B(  0-Si, 16-C ) :   0.2528 B(  0-Si, 20-C ) :   0.3068 B(  0-Si, 24-C ) :   0.1706
B(  0-Si, 40-H ) :  -0.1939 B(  0-Si, 41-C ) :  -0.4431 B(  0-Si, 44-C ) :  -0.1416
B(  0-Si, 45-C ) :  -0.1414 B(  0-Si, 47-C ) :  -0.2236 B(  0-Si, 56-H ) :   0.1005
B(  1-Si,  2-Si) :   0.4868 B(  1-Si,  3-Si) :   0.2245 B(  1-Si,  8-C ) :  -0.1037
B(  1-Si, 16-C ) :  -0.1268 B(  1-Si, 32-C ) :   0.1231 B(  1-Si, 36-C ) :   0.2587
B(  2-Si,  3-Si) :   0.5186 B(  2-Si,  4-C ) :  -0.2035 B(  2-Si, 17-H ) :  -0.1078
B(  2-Si, 20-C ) :  -0.2407 B(  2-Si, 22-H ) :  -0.1142 B(  2-Si, 24-C ) :  -0.2501
B(  2-Si, 26-H ) :  -0.1027 B(  2-Si, 40-H ) :   0.2679 B(  3-Si,  4-C ) :  -0.2048
B(  3-Si,  5-H ) :  -0.1304 B(  3-Si,  8-C ) :  -0.1829 B(  3-Si, 10-H ) :  -0.1105
B(  3-Si, 11-H ) :   0.1067 B(  3-Si, 12-C ) :  -0.8224 B(  3-Si, 14-H ) :  -0.1821
B(  3-Si, 20-C ) :  -0.1408 B(  3-Si, 28-C ) :  -0.1226 B(  3-Si, 40-H ) :   0.2536
B(  3-Si, 41-C ) :   0.1415 B(  3-Si, 56-H ) :  -0.1036 B(  4-C ,  5-H ) :   1.2817
B(  4-C ,  6-H ) :   1.0090 B(  4-C ,  7-H ) :   1.0244 B(  8-C ,  9-H ) :   0.9591
B(  8-C , 10-H ) :   1.2840 B(  8-C , 11-H ) :   1.1127 B( 12-C , 13-H ) :   1.0534
B( 12-C , 14-H ) :   1.4070 B( 12-C , 15-H ) :   1.1168 B( 16-C , 17-H ) :   1.2230
B( 16-C , 18-H ) :   1.0380 B( 16-C , 19-H ) :   1.0196 B( 16-C , 20-C ) :   0.1267
B( 16-C , 40-H ) :  -0.1153 B( 20-C , 21-H ) :   0.9676 B( 20-C , 22-H ) :   1.3573
B( 20-C , 23-H ) :   0.9263 B( 20-C , 41-C ) :  -0.1059 B( 24-C , 25-H ) :   0.9853
B( 24-C , 26-H ) :   1.3728 B( 24-C , 27-H ) :   0.9687 B( 28-C , 29-H ) :   1.1878
B( 28-C , 30-H ) :   1.0195 B( 28-C , 31-H ) :   1.0489 B( 28-C , 32-C ) :   0.1130
B( 32-C , 33-H ) :   0.9428 B( 32-C , 34-H ) :   1.2587 B( 32-C , 35-H ) :   1.0813
B( 32-C , 36-C ) :   0.1692 B( 36-C , 37-H ) :   1.1474 B( 36-C , 38-H ) :   1.0250
B( 36-C , 39-H ) :   1.0322 B( 40-H , 41-C ) :   0.1087 B( 40-H , 45-C ) :   0.1700
B( 41-C , 42-C ) :   0.8742 B( 41-C , 44-C ) :   0.7561 B( 42-C , 43-Cl) :   0.2228
B( 42-C , 45-C ) :   0.8998 B( 42-C , 46-C ) :   0.1477 B( 42-C , 48-H ) :   0.9786
B( 42-C , 49-H ) :   0.9770 B( 43-Cl, 44-C ) :   0.2205 B( 44-C , 46-C ) :   0.1702
B( 44-C , 47-C ) :   0.9249 B( 44-C , 50-H ) :   0.9532 B( 44-C , 51-H ) :   1.0806
B( 45-C , 46-C ) :   0.9225 B( 45-C , 52-H ) :   0.6428 B( 45-C , 53-H ) :   0.9378
B( 46-C , 47-C ) :   0.9255 B( 46-C , 54-H ) :   1.0880 B( 46-C , 55-H ) :   1.0414
B( 47-C , 56-H ) :   0.7631 B( 47-C , 57-H ) :   0.9061

MP2 TOTAL ENERGY:    -2209.116982248 Eh
FINAL SINGLE POINT ENERGY     -2209.116982248338

DIPOLE MOMENT
-------------
                                X             Y             Z
Electronic contribution:     -9.56523     -16.25811      -0.71845
Nuclear contribution   :      9.26758      17.01398       0.74269
                        -----------------------------------------
Total Dipole Moment    :     -0.29764       0.75588       0.02424
                        -----------------------------------------
Magnitude (a.u.)       :      0.81273
Magnitude (Debye)      :      2.06579

Rotational constants in cm-1:     0.007477     0.006214     0.005742
Rotational constants in MHz :   224.162952   186.293925   172.138663

                             ****ORCA TERMINATED NORMALLY****
TOTAL RUN TIME: 0 days 4 hours 3 minutes 23 seconds 307 msec
