                         Program Version 4.2.1 -  RELEASE  -
|  1> %pal
|  2>  nprocs 32
|  3> end
|  4> !RI-MP2 aug-cc-pVTZ aug-cc-pVTZ/C TightSCF
|  5> %maxcore 4500
|  6> *xyzfile 0 1  03_23P2.xyz
|  7>
|  8>
|  9>                          ****END OF INPUT****

CARTESIAN COORDINATES (ANGSTROEM)
---------------------------------
  C      1.498148    0.470495    0.646023
  C      0.139108    0.858997    0.111459
  O     -0.756436   -0.105564    0.300327
  C     -2.083638    0.137828   -0.209185
  C     -2.906410   -1.094108    0.071534
  O     -0.097095    1.920658   -0.398262
  Cl     2.188424   -0.906068   -0.269706
  H      1.422477    0.162551    1.686300
  H      2.169792    1.315157    0.538002
  H     -2.007653    0.350080   -1.276679
  H     -2.485066    1.025721    0.281912
  H     -2.475821   -1.967683   -0.419501
  H     -3.921643   -0.952132   -0.303787
  H     -2.960301   -1.290575    1.143259

 Total Charge           Charge          ....    0
 Multiplicity           Mult            ....    1
 Number of Electrons    NEL             ....   64
 Basis Dimension        Dim             ....  487

ORBITAL ENERGIES
----------------

  NO   OCC          E(Eh)            E(eV)
   0   2.0000    -104.842503     -2852.9095
   1   2.0000     -20.613107      -560.9112
   2   2.0000     -20.559202      -559.4443
   3   2.0000     -11.394443      -310.0586
   4   2.0000     -11.315161      -307.9012
   5   2.0000     -11.297333      -307.4161
   6   2.0000     -11.230316      -305.5924
   7   2.0000     -10.566369      -287.5255
   8   2.0000      -8.033241      -218.5956
   9   2.0000      -8.031303      -218.5429
  10   2.0000      -8.031249      -218.5414
  11   2.0000      -1.478602       -40.2348
  12   2.0000      -1.376544       -37.4577
  13   2.0000      -1.151692       -31.3391
  14   2.0000      -1.054576       -28.6965
  15   2.0000      -0.971449       -26.4345
  16   2.0000      -0.873699       -23.7746
  17   2.0000      -0.793465       -21.5913
  18   2.0000      -0.714931       -19.4543
  19   2.0000      -0.694952       -18.9106
  20   2.0000      -0.688716       -18.7409
  21   2.0000      -0.636205       -17.3120
  22   2.0000      -0.604585       -16.4516
  23   2.0000      -0.579952       -15.7813
  24   2.0000      -0.558742       -15.2041
  25   2.0000      -0.554004       -15.0752
  26   2.0000      -0.522020       -14.2049
  27   2.0000      -0.514720       -14.0062
  28   2.0000      -0.485981       -13.2242
  29   2.0000      -0.470955       -12.8153
  30   2.0000      -0.448660       -12.2087
  31   2.0000      -0.438645       -11.9361
  32   0.0000       0.027879         0.7586
  33   0.0000       0.033228         0.9042
  34   0.0000       0.040815         1.1106
  35   0.0000       0.042160         1.1472
  36   0.0000       0.053124         1.4456

MULLIKEN ATOMIC CHARGES
-----------------------
   0 C :   -0.039788
   1 C :    0.346907
   2 O :   -0.211574
   3 C :   -0.174683
   4 C :   -0.941786
   5 O :   -0.732501
   6 Cl:   -0.293695
   7 H :    0.237821
   8 H :    0.311429
   9 H :    0.319397
  10 H :    0.325491
  11 H :    0.272397
  12 H :    0.318755
  13 H :    0.261830
Sum of atomic charges:    0.0000000

LOEWDIN ATOMIC CHARGES
----------------------
   0 C :   -0.286730
   1 C :   -0.932778
   2 O :    0.564050
   3 C :    0.033821
   4 C :    0.581207
   5 O :    0.460038
   6 Cl:    0.903043
   7 H :   -0.243181
   8 H :   -0.254290
   9 H :   -0.156491
  10 H :   -0.156222
  11 H :   -0.170364
  12 H :   -0.170975
  13 H :   -0.171128

  Mayer bond orders larger than 0.100000
B(  0-C ,  1-C ) :   0.7676 B(  0-C ,  6-Cl) :   0.8817 B(  0-C ,  7-H ) :   0.9706
B(  0-C ,  8-H ) :   0.9267 B(  1-C ,  2-O ) :   1.0944 B(  1-C ,  5-O ) :   1.5793
B(  2-O ,  3-C ) :   0.7487 B(  2-O ,  6-Cl) :  -0.1075 B(  3-C ,  4-C ) :   0.8812
B(  3-C ,  9-H ) :   0.9024 B(  3-C , 10-H ) :   0.9087 B(  4-C , 11-H ) :   0.9570
B(  4-C , 12-H ) :   0.9316 B(  4-C , 13-H ) :   0.9650

MP2 TOTAL ENERGY:     -766.271944604 Eh
FINAL SINGLE POINT ENERGY      -766.271944603607

DIPOLE MOMENT
-------------
                                X             Y             Z
Electronic contribution:     12.57854      -0.25095      -1.38524
Nuclear contribution   :    -13.14507      -0.03138       1.99475
                        -----------------------------------------
Total Dipole Moment    :     -0.56654      -0.28233       0.60950
                        -----------------------------------------
Magnitude (a.u.)       :      0.87873
Magnitude (Debye)      :      2.23356

Rotational constants in cm-1:     0.118910     0.039612     0.031808
Rotational constants in MHz :  3564.830146  1187.529884   953.590678

                             ****ORCA TERMINATED NORMALLY****
TOTAL RUN TIME: 0 days 0 hours 1 minutes 44 seconds 18 msec
