                         Program Version 4.2.1 -  RELEASE  -
|  1> %pal
|  2>  nprocs 32
|  3> end
|  4> !RI-MP2 aug-cc-pVTZ aug-cc-pVTZ/C TightSCF
|  5> %maxcore 4500
|  6> *xyzfile 1 1  05_23P1.xyz
|  7>
|  8>
|  9>                          ****END OF INPUT****

CARTESIAN COORDINATES (ANGSTROEM)
---------------------------------
  C      1.158515    0.295585   -0.000002
  C     -0.260039    0.116468   -0.000002
  C     -0.794350   -1.190160   -0.000009
  C     -1.136048    1.219535    0.000006
  C     -2.157208   -1.378319   -0.000009
  H     -0.127503   -2.040810   -0.000016
  C     -2.500174    1.018578    0.000008
  H     -0.761413    2.232708    0.000013
  C     -3.009659   -0.275641    0.000000
  H     -2.565768   -2.380182   -0.000016
  H     -3.171125    1.867239    0.000016
  H     -4.082209   -0.428144    0.000001
  O      1.856959   -0.782983    0.000012
  C      3.306942   -0.796636    0.000010
  H      3.680062   -0.309755    0.899118
  H      3.571890   -1.848289    0.000036
  H      3.680059   -0.309801   -0.899124
  C      1.851544    1.604302   -0.000014
  H      2.497462    1.677358   -0.879548
  H      1.168318    2.443870   -0.000052
  H      2.497416    1.677398    0.879551

 Total Charge           Charge          ....    1
 Multiplicity           Mult            ....    1
 Number of Electrons    NEL             ....   72
 Basis Dimension        Dim             ....  713

ORBITAL ENERGIES
----------------

  NO   OCC          E(Eh)            E(eV)
   0   2.0000     -20.809828      -566.2642
   1   2.0000     -11.560619      -314.5804
   2   2.0000     -11.457876      -311.7847
   3   2.0000     -11.414830      -310.6133
   4   2.0000     -11.414644      -310.6083
   5   2.0000     -11.409979      -310.4813
   6   2.0000     -11.407885      -310.4243
   7   2.0000     -11.405486      -310.3590
   8   2.0000     -11.382101      -309.7227
   9   2.0000     -11.381450      -309.7050
  10   2.0000      -1.650406       -44.9098
  11   2.0000      -1.329865       -36.1875
  12   2.0000      -1.252897       -34.0931
  13   2.0000      -1.189350       -32.3639
  14   2.0000      -1.174325       -31.9550
  15   2.0000      -1.151979       -31.3469
  16   2.0000      -1.030871       -28.0514
  17   2.0000      -0.987516       -26.8717
  18   2.0000      -0.952252       -25.9121
  19   2.0000      -0.903517       -24.5859
  20   2.0000      -0.861354       -23.4386
  21   2.0000      -0.857157       -23.3244
  22   2.0000      -0.833887       -22.6912
  23   2.0000      -0.786695       -21.4071
  24   2.0000      -0.775286       -21.0966
  25   2.0000      -0.760691       -20.6994
  26   2.0000      -0.751372       -20.4459
  27   2.0000      -0.743355       -20.2277
  28   2.0000      -0.725658       -19.7462
  29   2.0000      -0.704574       -19.1724
  30   2.0000      -0.687313       -18.7027
  31   2.0000      -0.665718       -18.1151
  32   2.0000      -0.657401       -17.8888
  33   2.0000      -0.648237       -17.6394
  34   2.0000      -0.509334       -13.8597
  35   2.0000      -0.495910       -13.4944
  36   0.0000      -0.129455        -3.5227
  37   0.0000      -0.077629        -2.1124
  38   0.0000      -0.059377        -1.6157
  39   0.0000      -0.057975        -1.5776
  40   0.0000      -0.054915        -1.4943

MULLIKEN ATOMIC CHARGES
-----------------------
   0 C :    0.721917
   1 C :    2.260768
   2 C :   -0.617636
   3 C :   -0.950327
   4 C :   -0.950522
   5 H :    0.155305
   6 C :   -0.727976
   7 H :   -0.003279
   8 C :   -0.115534
   9 H :    0.571112
  10 H :    0.547333
  11 H :    0.429567
  12 O :   -0.809701
  13 C :   -0.843926
  14 H :    0.373248
  15 H :    0.411122
  16 H :    0.373245
  17 C :   -0.821896
  18 H :    0.352851
  19 H :    0.291473
  20 H :    0.352856
Sum of atomic charges:    1.0000000

LOEWDIN ATOMIC CHARGES
----------------------
   0 C :   -0.251233
   1 C :   -0.077784
   2 C :    0.249148
   3 C :    0.253335
   4 C :    0.255778
   5 H :   -0.171185
   6 C :    0.257600
   7 H :   -0.181757
   8 C :    0.264509
   9 H :   -0.164487
  10 H :   -0.164614
  11 H :   -0.147568
  12 O :    0.655471
  13 C :    0.477261
  14 H :   -0.157110
  15 H :   -0.153123
  16 H :   -0.157110
  17 C :    0.665118
  18 H :   -0.135108
  19 H :   -0.182037
  20 H :   -0.135104

  Mayer bond orders larger than 0.100000
B(  0-C ,  1-C ) :   0.4361 B(  0-C ,  2-C ) :   0.4014 B(  0-C ,  3-C ) :   0.5106
B(  0-C ,  5-H ) :  -0.3189 B(  0-C ,  7-H ) :  -0.3389 B(  0-C ,  8-C ) :   0.1416
B(  0-C ,  9-H ) :   0.3592 B(  0-C , 10-H ) :   0.2570 B(  0-C , 11-H ) :  -0.2273
B(  0-C , 12-O ) :   0.9199 B(  0-C , 17-C ) :   0.6155 B(  0-C , 18-H ) :  -0.1013
B(  0-C , 20-H ) :  -0.1013 B(  1-C ,  5-H ) :  -0.2504 B(  1-C ,  7-H ) :  -0.3710
B(  2-C ,  3-C ) :  -0.6687 B(  2-C ,  4-C ) :   1.2529 B(  2-C ,  5-H ) :   1.4773
B(  2-C ,  7-H ) :   0.1921 B(  2-C ,  8-C ) :  -0.1448 B(  2-C ,  9-H ) :  -0.1320
B(  2-C , 11-H ) :   0.1906 B(  3-C ,  4-C ) :   0.1453 B(  3-C ,  5-H ) :   0.2695
B(  3-C ,  6-C ) :   1.4284 B(  3-C ,  7-H ) :   2.0329 B(  3-C ,  8-C ) :  -0.1843
B(  3-C ,  9-H ) :  -0.1076 B(  3-C , 10-H ) :  -0.1109 B(  3-C , 11-H ) :   0.1367
B(  4-C ,  6-C ) :   0.2217 B(  4-C ,  8-C ) :   1.0526 B(  4-C ,  9-H ) :   0.5490
B(  4-C , 11-H ) :  -0.1368 B(  5-H ,  7-H ) :   0.2155 B(  6-C ,  7-H ) :  -0.1222
B(  6-C ,  8-C ) :   1.0450 B(  6-C , 10-H ) :   0.6157 B(  6-C , 11-H ) :  -0.1642
B(  8-C , 11-H ) :   0.8672 B( 12-O , 13-C ) :   0.9126 B( 12-O , 17-C ) :  -0.2838
B( 13-C , 14-H ) :   0.8706 B( 13-C , 15-H ) :   0.8625 B( 13-C , 16-H ) :   0.8706
B( 17-C , 18-H ) :   0.9922 B( 17-C , 19-H ) :   1.0317 B( 17-C , 20-H ) :   0.9922

MP2 TOTAL ENERGY:     -423.679791432 Eh
FINAL SINGLE POINT ENERGY      -423.679791432377

DIPOLE MOMENT
-------------
                                X             Y             Z
Electronic contribution:     -5.06347      -2.09308       0.00002
Nuclear contribution   :      6.50728       2.60561      -0.00002
                        -----------------------------------------
Total Dipole Moment    :      1.44381       0.51254      -0.00000
                        -----------------------------------------
Magnitude (a.u.)       :      1.53208
Magnitude (Debye)      :      3.89425

Rotational constants in cm-1:     0.106890     0.028158     0.022477
Rotational constants in MHz :  3204.485237   844.169974   673.837875

                             ****ORCA TERMINATED NORMALLY****
TOTAL RUN TIME: 0 days 0 hours 6 minutes 28 seconds 61 msec
