                         Program Version 4.2.1 -  RELEASE  -
|  1> %pal
|  2>  nprocs 32
|  3> end
|  4> !RI-MP2 aug-cc-pVTZ aug-cc-pVTZ/C TightSCF
|  5> %maxcore 4500
|  6> *xyzfile 0 2  06_21TS.xyz
|  7>
|  8>
|  9>                          ****END OF INPUT****

CARTESIAN COORDINATES (ANGSTROEM)
---------------------------------
  Si     0.376275   -0.005322    0.001268
  Si     0.540870    2.200276    0.787319
  Si     2.291278   -0.654261   -1.190106
  Si    -0.302155   -1.579894    1.605056
  C     -0.866180   -3.149605    0.738734
  H     -0.061650   -3.599702    0.154216
  H     -1.205469   -3.888752    1.469932
  H     -1.696047   -2.947215    0.058545
  C      1.181581   -1.963821    2.703540
  H      1.545784   -1.070083    3.215371
  H      0.912164   -2.698699    3.467613
  H      2.011024   -2.377027    2.124744
  C     -1.706570   -0.920517    2.667480
  H     -2.621731   -0.791997    2.085327
  H     -1.927158   -1.627942    3.472212
  H     -1.455744    0.036559    3.130755
  C      2.262780   -2.510575   -1.496352
  H      3.124677   -2.811004   -2.098949
  H      2.300222   -3.073458   -0.561017
  H      1.360221   -2.812079   -2.032705
  C      2.324227    0.248203   -2.838712
  H      2.375605    1.330290   -2.701938
  H      3.193054   -0.056870   -3.428939
  H      1.426596    0.031474   -3.422208
  C      3.830929   -0.217377   -0.194395
  H      3.828167   -0.705364    0.783072
  H      4.733170   -0.537102   -0.723706
  H      3.909523    0.859563   -0.028812
  C     -1.133084    2.944175    1.218225
  H     -0.994602    3.934926    1.660740
  H     -1.762453    3.063670    0.334156
  H     -1.679889    2.331900    1.937979
  C      1.602212    2.164982    2.344692
  H      2.580438    1.717288    2.156056
  H      1.765601    3.179101    2.720692
  H      1.121082    1.590697    3.139975
  C      1.371237    3.284119   -0.507839
  H      1.434565    4.318358   -0.157783
  H      2.386716    2.945060   -0.723673
  H      0.814012    3.283096   -1.447455
  H     -0.791938   -0.115112   -1.231653
  S     -1.927288   -0.378026   -2.403495
  C     -3.025778    0.924859   -1.757745
  C     -3.535016    0.619431   -0.357476
  O     -4.167456   -0.638130   -0.268416
  H     -2.513501    1.887875   -1.778502
  H     -3.860728    0.973698   -2.459885
  H     -2.701932    0.682194    0.351032
  H     -4.275263    1.366810   -0.062839
  H     -3.624023   -1.261133   -0.769539

 Total Charge           Charge          ....    0
 Multiplicity           Mult            ....    2
 Number of Electrons    NEL             ....  179
 Basis Dimension        Dim             .... 1561

ORBITAL ENERGIES
----------------
                 SPIN UP ORBITALS
  NO   OCC          E(Eh)            E(eV)
   0   1.0000     -91.950381     -2502.0971
   1   1.0000     -68.761146     -1871.0859
   2   1.0000     -68.756371     -1870.9560
   3   1.0000     -68.756233     -1870.9522
   4   1.0000     -68.744475     -1870.6323
   5   1.0000     -20.551076      -559.2232
   6   1.0000     -11.277747      -306.8831
   7   1.0000     -11.260139      -306.4040
   8   1.0000     -11.206045      -304.9320
   9   1.0000     -11.205940      -304.9291
  10   1.0000     -11.205421      -304.9150
  11   1.0000     -11.203852      -304.8723
  12   1.0000     -11.203032      -304.8500
  13   1.0000     -11.201590      -304.8108
  14   1.0000     -11.198380      -304.7234
  15   1.0000     -11.197945      -304.7116
  16   1.0000     -11.197799      -304.7076
  17   1.0000      -8.951056      -243.5706
  18   1.0000      -6.642468      -180.7507
  19   1.0000      -6.628913      -180.3819
  20   1.0000      -6.627795      -180.3515
  21   1.0000      -6.108712      -166.2265
  22   1.0000      -6.104063      -166.1000
  23   1.0000      -6.103859      -166.0945
  24   1.0000      -6.097042      -165.9089
  25   1.0000      -4.215052      -114.6974
  26   1.0000      -4.214661      -114.6867
  27   1.0000      -4.214608      -114.6853
  28   1.0000      -4.210328      -114.5689
  29   1.0000      -4.210175      -114.5647
  30   1.0000      -4.210015      -114.5603
  31   1.0000      -4.209981      -114.5594
  32   1.0000      -4.209788      -114.5541
  33   1.0000      -4.209769      -114.5536
  34   1.0000      -4.207601      -114.4947
  35   1.0000      -4.200650      -114.3055
  36   1.0000      -4.200609      -114.3044
  37   1.0000      -1.359246       -36.9870
  38   1.0000      -1.060549       -28.8590
  39   1.0000      -0.976176       -26.5631
  40   1.0000      -0.969745       -26.3881
  41   1.0000      -0.966996       -26.3133
  42   1.0000      -0.934628       -25.4325
  43   1.0000      -0.931535       -25.3484
  44   1.0000      -0.929971       -25.3058
  45   1.0000      -0.927635       -25.2422
  46   1.0000      -0.926157       -25.2020
  47   1.0000      -0.924781       -25.1646
  48   1.0000      -0.922145       -25.0929
  49   1.0000      -0.817768       -22.2526
  50   1.0000      -0.730691       -19.8831
  51   1.0000      -0.689548       -18.7636
  52   1.0000      -0.642947       -17.4955
  53   1.0000      -0.633306       -17.2331
  54   1.0000      -0.629629       -17.1331
  55   1.0000      -0.609106       -16.5746
  56   1.0000      -0.598851       -16.2956
  57   1.0000      -0.588286       -16.0081
  58   1.0000      -0.579421       -15.7668
  59   1.0000      -0.578551       -15.7432
  60   1.0000      -0.571300       -15.5459
  61   1.0000      -0.569716       -15.5028
  62   1.0000      -0.565390       -15.3850
  63   1.0000      -0.563732       -15.3399
  64   1.0000      -0.561306       -15.2739
  65   1.0000      -0.560134       -15.2420
  66   1.0000      -0.552344       -15.0301
  67   1.0000      -0.547283       -14.8923
  68   1.0000      -0.545816       -14.8524
  69   1.0000      -0.544993       -14.8300
  70   1.0000      -0.542070       -14.7505
  71   1.0000      -0.540021       -14.6947
  72   1.0000      -0.537645       -14.6301
  73   1.0000      -0.536070       -14.5872
  74   1.0000      -0.532607       -14.4930
  75   1.0000      -0.530414       -14.4333
  76   1.0000      -0.510818       -13.9001
  77   1.0000      -0.488579       -13.2949
  78   1.0000      -0.455872       -12.4049
  79   1.0000      -0.444883       -12.1059
  80   1.0000      -0.441098       -12.0029
  81   1.0000      -0.438662       -11.9366
  82   1.0000      -0.437313       -11.8999
  83   1.0000      -0.434214       -11.8156
  84   1.0000      -0.432832       -11.7780
  85   1.0000      -0.429671       -11.6919
  86   1.0000      -0.364991        -9.9319
  87   1.0000      -0.352370        -9.5885
  88   1.0000      -0.348331        -9.4786
  89   1.0000      -0.297988        -8.1087
  90   0.0000       0.020362         0.5541
  91   0.0000       0.026304         0.7158
  92   0.0000       0.028157         0.7662
  93   0.0000       0.030568         0.8318
  94   0.0000       0.037380         1.0172

                 SPIN DOWN ORBITALS
  NO   OCC          E(Eh)            E(eV)
   0   1.0000     -91.943272     -2501.9036
   1   1.0000     -68.761182     -1871.0869
   2   1.0000     -68.756471     -1870.9587
   3   1.0000     -68.756315     -1870.9545
   4   1.0000     -68.740935     -1870.5359
   5   1.0000     -20.551066      -559.2229
   6   1.0000     -11.277556      -306.8779
   7   1.0000     -11.260899      -306.4247
   8   1.0000     -11.206111      -304.9338
   9   1.0000     -11.205486      -304.9168
  10   1.0000     -11.205468      -304.9163
  11   1.0000     -11.203485      -304.8623
  12   1.0000     -11.202641      -304.8394
  13   1.0000     -11.201634      -304.8120
  14   1.0000     -11.198425      -304.7246
  15   1.0000     -11.198006      -304.7132
  16   1.0000     -11.197867      -304.7095
  17   1.0000      -8.943169      -243.3560
  18   1.0000      -6.625014      -180.2758
  19   1.0000      -6.623412      -180.2322
  20   1.0000      -6.612321      -179.9304
  21   1.0000      -6.108761      -166.2278
  22   1.0000      -6.104205      -166.1039
  23   1.0000      -6.103976      -166.0976
  24   1.0000      -6.092253      -165.7786
  25   1.0000      -4.215101      -114.6987
  26   1.0000      -4.214711      -114.6881
  27   1.0000      -4.214654      -114.6866
  28   1.0000      -4.210644      -114.5774
  29   1.0000      -4.210414      -114.5712
  30   1.0000      -4.210120      -114.5632
  31   1.0000      -4.210040      -114.5610
  32   1.0000      -4.209888      -114.5569
  33   1.0000      -4.209817      -114.5549
  34   1.0000      -4.198255      -114.2403
  35   1.0000      -4.198196      -114.2387
  36   1.0000      -4.192584      -114.0860
  37   1.0000      -1.359206       -36.9859
  38   1.0000      -1.047227       -28.4965
  39   1.0000      -0.975475       -26.5440
  40   1.0000      -0.969359       -26.3776
  41   1.0000      -0.966693       -26.3051
  42   1.0000      -0.931587       -25.3498
  43   1.0000      -0.930832       -25.3292
  44   1.0000      -0.927686       -25.2436
  45   1.0000      -0.925619       -25.1874
  46   1.0000      -0.924697       -25.1623
  47   1.0000      -0.922592       -25.1050
  48   1.0000      -0.904696       -24.6180
  49   1.0000      -0.797073       -21.6895
  50   1.0000      -0.705891       -19.2083
  51   1.0000      -0.687586       -18.7102
  52   1.0000      -0.640558       -17.4305
  53   1.0000      -0.632791       -17.2191
  54   1.0000      -0.629464       -17.1286
  55   1.0000      -0.606125       -16.4935
  56   1.0000      -0.593720       -16.1559
  57   1.0000      -0.579212       -15.7611
  58   1.0000      -0.578542       -15.7429
  59   1.0000      -0.574246       -15.6260
  60   1.0000      -0.569518       -15.4974
  61   1.0000      -0.568664       -15.4741
  62   1.0000      -0.563615       -15.3367
  63   1.0000      -0.561331       -15.2746
  64   1.0000      -0.559985       -15.2380
  65   1.0000      -0.558577       -15.1996
  66   1.0000      -0.550250       -14.9731
  67   1.0000      -0.546237       -14.8639
  68   1.0000      -0.545336       -14.8393
  69   1.0000      -0.542150       -14.7526
  70   1.0000      -0.541540       -14.7361
  71   1.0000      -0.537507       -14.6263
  72   1.0000      -0.536034       -14.5862
  73   1.0000      -0.533424       -14.5152
  74   1.0000      -0.532460       -14.4890
  75   1.0000      -0.530172       -14.4267
  76   1.0000      -0.509032       -13.8515
  77   1.0000      -0.467793       -12.7293
  78   1.0000      -0.444323       -12.0906
  79   1.0000      -0.441300       -12.0084
  80   1.0000      -0.441045       -12.0014
  81   1.0000      -0.437121       -11.8947
  82   1.0000      -0.433839       -11.8054
  83   1.0000      -0.431553       -11.7432
  84   1.0000      -0.429890       -11.6979
  85   1.0000      -0.422228       -11.4894
  86   1.0000      -0.354526        -9.6471
  87   1.0000      -0.348655        -9.4874
  88   1.0000      -0.342380        -9.3166
  89   0.0000       0.020233         0.5506
  90   0.0000       0.025809         0.7023
  91   0.0000       0.026964         0.7337
  92   0.0000       0.028794         0.7835
  93   0.0000       0.034511         0.9391

MULLIKEN ATOMIC CHARGES AND SPIN POPULATIONS
--------------------------------------------
   0 Si:    1.098846    0.989332
   1 Si:    2.076901   -0.029896
   2 Si:    1.225192   -0.061036
   3 Si:    1.937029   -0.026224
   4 C :   -1.543766   -0.009998
   5 H :    0.349111    0.001182
   6 H :    0.077784   -0.000332
   7 H :    0.363928   -0.000565
   8 C :   -1.564568    0.005121
   9 H :    0.344351   -0.002407
  10 H :    0.037048    0.007183
  11 H :    0.333106   -0.002938
  12 C :   -1.419736   -0.005279
  13 H :    0.310204    0.000012
  14 H :    0.023978   -0.000354
  15 H :    0.331117    0.000046
  16 C :   -1.457273   -0.002899
  17 H :    0.131382    0.000025
  18 H :    0.292680    0.000749
  19 H :    0.248920   -0.001102
  20 C :   -1.485932   -0.006641
  21 H :    0.349706    0.000759
  22 H :    0.106527   -0.000699
  23 H :    0.276925   -0.000749
  24 C :   -1.154328   -0.000507
  25 H :    0.293025   -0.005114
  26 H :    0.136202    0.004459
  27 H :    0.295014   -0.003433
  28 C :   -1.450140   -0.012795
  29 H :    0.082428   -0.000332
  30 H :    0.228888   -0.001177
  31 H :    0.337523   -0.000449
  32 C :   -1.408659    0.004895
  33 H :    0.331399   -0.004958
  34 H :    0.061368    0.006791
  35 H :    0.310038   -0.002853
  36 C :   -1.438934   -0.005180
  37 H :    0.109000   -0.000135
  38 H :    0.300692    0.001079
  39 H :    0.237039   -0.000953
  40 H :    0.743430   -0.593203
  41 S :   -0.606629    0.808563
  42 C :   -0.396658   -0.083541
  43 C :   -0.306566    0.014345
  44 O :   -0.785572   -0.001877
  45 H :    0.242513    0.006165
  46 H :    0.281178    0.010465
  47 H :    0.535811    0.014654
  48 H :    0.321368   -0.003027
  49 H :    0.257108   -0.005170
Sum of atomic charges         :    0.0000000

LOEWDIN ATOMIC CHARGES AND SPIN POPULATIONS
-------------------------------------------
   0 Si:    0.620467    0.206326
   1 Si:    0.390559    0.044153
   2 Si:    0.381431    0.036083
   3 Si:    0.387559    0.036315
   4 C :    0.542917   -0.002915
   5 H :   -0.248221   -0.000078
   6 H :   -0.225329   -0.000688
   7 H :   -0.242812   -0.000666
   8 C :    0.539705    0.011795
   9 H :   -0.238915    0.001031
  10 H :   -0.226877    0.002385
  11 H :   -0.240941    0.000822
  12 C :    0.546746   -0.001338
  13 H :   -0.252997   -0.000129
  14 H :   -0.224198   -0.000376
  15 H :   -0.238377    0.000136
  16 C :    0.537245   -0.001221
  17 H :   -0.226722   -0.000351
  18 H :   -0.243359    0.000134
  19 H :   -0.231177   -0.000193
  20 C :    0.539290   -0.002814
  21 H :   -0.247423   -0.000074
  22 H :   -0.228169   -0.000706
  23 H :   -0.238979   -0.000720
  24 C :    0.539453    0.010998
  25 H :   -0.236217    0.000989
  26 H :   -0.226740    0.002201
  27 H :   -0.244031    0.000647
  28 C :    0.541225   -0.002240
  29 H :   -0.223574   -0.000665
  30 H :   -0.245228    0.000143
  31 H :   -0.240533   -0.000070
  32 C :    0.539560    0.014260
  33 H :   -0.239007    0.001341
  34 H :   -0.226001    0.002925
  35 H :   -0.238469    0.000830
  36 C :    0.538167   -0.000824
  37 H :   -0.226103   -0.000335
  38 H :   -0.245329    0.000135
  39 H :   -0.230805   -0.000072
  40 H :   -0.608816    0.113802
  41 S :    1.161116    0.447832
  42 C :   -0.118068    0.059525
  43 C :   -0.075584    0.002179
  44 O :    0.809198    0.000373
  45 H :   -0.229568    0.000409
  46 H :   -0.229084    0.016920
  47 H :   -0.230660    0.001937
  48 H :   -0.153560   -0.000073
  49 H :   -0.592763   -0.000076

  Mayer bond orders larger than 0.100000
B(  0-Si,  1-Si) :   0.5882 B(  0-Si,  2-Si) :   0.3269 B(  0-Si,  3-Si) :   0.7126
B(  0-Si,  4-C ) :  -0.1099 B(  0-Si,  8-C ) :  -0.1175 B(  0-Si, 20-C ) :  -0.1267
B(  0-Si, 24-C ) :  -0.2136 B(  0-Si, 40-H ) :   0.1653 B(  1-Si, 28-C ) :   0.2471
B(  1-Si, 32-C ) :   0.2464 B(  1-Si, 36-C ) :   0.1394 B(  2-Si, 16-C ) :   0.2920
B(  2-Si, 20-C ) :   0.3354 B(  2-Si, 24-C ) :   0.7065 B(  3-Si,  4-C ) :   0.2978
B(  3-Si,  8-C ) :   0.1368 B(  3-Si, 12-C ) :   0.2455 B(  4-C ,  5-H ) :   0.9527
B(  4-C ,  6-H ) :   1.2497 B(  4-C ,  7-H ) :   0.9240 B(  4-C ,  8-C ) :   0.1195
B(  8-C ,  9-H ) :   0.9592 B(  8-C , 10-H ) :   1.2880 B(  8-C , 11-H ) :   0.9754
B( 12-C , 13-H ) :   0.9969 B( 12-C , 14-H ) :   1.2408 B( 12-C , 15-H ) :   0.9600
B( 16-C , 17-H ) :   1.1306 B( 16-C , 18-H ) :   1.0073 B( 16-C , 19-H ) :   1.0498
B( 20-C , 21-H ) :   0.9389 B( 20-C , 22-H ) :   1.1881 B( 20-C , 23-H ) :   1.0074
B( 20-C , 24-C ) :   0.2006 B( 24-C , 25-H ) :   0.9907 B( 24-C , 26-H ) :   1.0192
B( 24-C , 27-H ) :   0.9926 B( 28-C , 29-H ) :   1.1456 B( 28-C , 30-H ) :   1.1088
B( 28-C , 31-H ) :   0.9492 B( 28-C , 32-C ) :   0.1748 B( 32-C , 33-H ) :   0.9732
B( 32-C , 34-H ) :   1.1856 B( 32-C , 35-H ) :   0.9939 B( 32-C , 36-C ) :   0.1000
B( 36-C , 37-H ) :   1.1752 B( 36-C , 38-H ) :   0.9925 B( 36-C , 39-H ) :   1.0592
B( 40-H , 41-S ) :   0.1103 B( 41-S , 42-C ) :   0.8987 B( 41-S , 43-C ) :   0.1997
B( 41-S , 45-H ) :   0.1260 B( 42-C , 43-C ) :   0.9583 B( 42-C , 44-O ) :   0.1515
B( 42-C , 45-H ) :   0.9706 B( 42-C , 46-H ) :   0.9157 B( 43-C , 44-O ) :   0.4435
B( 43-C , 47-H ) :   0.7710 B( 43-C , 48-H ) :   1.0149 B( 44-O , 49-H ) :   0.8729

MP2 TOTAL ENERGY:    -2067.143675885 Eh
FINAL SINGLE POINT ENERGY     -2067.143675885210

DIPOLE MOMENT
-------------
                                X             Y             Z
Electronic contribution:     -8.82071      -2.63354      -8.45675
Nuclear contribution   :      9.76969       3.26385       8.90482
                        -----------------------------------------
Total Dipole Moment    :      0.94898       0.63031       0.44807
                        -----------------------------------------
Magnitude (a.u.)       :      1.22419
Magnitude (Debye)      :      3.11163

Rotational constants in cm-1:     0.009125     0.007216     0.006980
Rotational constants in MHz :   273.549191   216.334937   209.263112

                             ****ORCA TERMINATED NORMALLY****
TOTAL RUN TIME: 0 days 2 hours 19 minutes 48 seconds 184 msec
