                         Program Version 4.2.1 -  RELEASE  -
|  1> %pal
|  2>  nprocs 32
|  3> end
|  4> !RI-MP2 aug-cc-pVTZ aug-cc-pVTZ/C TightSCF
|  5> %maxcore 4500
|  6> *xyzfile 0 1  09_13TS.xyz
|  7>
|  8>
|  9>                          ****END OF INPUT****

CARTESIAN COORDINATES (ANGSTROEM)
---------------------------------
  N      0.625986    0.959617   -0.355103
  C      1.939896    0.603313    0.013679
  C      2.136271   -0.722653    0.055135
  S      0.669214   -1.590377   -0.369917
  C     -0.207574   -0.096923   -0.537302
  C      2.940257    1.668359    0.314627
  H      3.150095    2.289877   -0.559489
  H      3.878375    1.217193    0.628328
  H      2.600054    2.320559    1.122159
  C      3.364989   -1.500153    0.390460
  H      4.204409   -0.841101    0.606496
  H      3.657969   -2.149427   -0.438362
  H      3.203602   -2.134325    1.265545
  C      0.197205    2.348075   -0.495198
  H      1.064188    2.995000   -0.417997
  H     -0.510995    2.606440    0.289304
  H     -0.253291    2.502597   -1.473680
  C     -1.588809   -0.150829   -0.719245
  C     -2.463175    0.907138   -1.344408
  H     -2.314462    1.896005   -0.919017
  H     -3.504102    0.628587   -1.173890
  H     -2.315637    0.956949   -2.428284
  O     -2.011280   -1.447000   -1.010788
  C     -2.079057    0.052831    1.351918
  O     -1.675114    1.101187    1.728957
  O     -2.672884   -0.961703    1.527345
  H     -2.515339   -1.754455   -0.238841

 Total Charge           Charge          ....    0
 Multiplicity           Mult            ....    1
 Number of Electrons    NEL             ....  114
 Basis Dimension        Dim             ....  947

ORBITAL ENERGIES
----------------

  NO   OCC          E(Eh)            E(eV)
   0   2.0000     -91.991953     -2503.2283
   1   2.0000     -20.575105      -559.8771
   2   2.0000     -20.569696      -559.7299
   3   2.0000     -20.552425      -559.2599
   4   2.0000     -15.633962      -425.4217
   5   2.0000     -11.409622      -310.4716
   6   2.0000     -11.341355      -308.6140
   7   2.0000     -11.298880      -307.4581
   8   2.0000     -11.279541      -306.9319
   9   2.0000     -11.275563      -306.8237
  10   2.0000     -11.270143      -306.6762
  11   2.0000     -11.255890      -306.2883
  12   2.0000     -11.248133      -306.0773
  13   2.0000     -11.225589      -305.4638
  14   2.0000      -8.992307      -244.6931
  15   2.0000      -6.673248      -181.5883
  16   2.0000      -6.672382      -181.5647
  17   2.0000      -6.671487      -181.5404
  18   2.0000      -1.459212       -39.7072
  19   2.0000      -1.390601       -37.8402
  20   2.0000      -1.368070       -37.2271
  21   2.0000      -1.327884       -36.1335
  22   2.0000      -1.126559       -30.6552
  23   2.0000      -1.090817       -29.6826
  24   2.0000      -1.019869       -27.7520
  25   2.0000      -1.008089       -27.4315
  26   2.0000      -0.960136       -26.1266
  27   2.0000      -0.940718       -25.5982
  28   2.0000      -0.863135       -23.4871
  29   2.0000      -0.799918       -21.7669
  30   2.0000      -0.748729       -20.3740
  31   2.0000      -0.729735       -19.8571
  32   2.0000      -0.720380       -19.6025
  33   2.0000      -0.687705       -18.7134
  34   2.0000      -0.676913       -18.4197
  35   2.0000      -0.660252       -17.9664
  36   2.0000      -0.649124       -17.6636
  37   2.0000      -0.638800       -17.3826
  38   2.0000      -0.614297       -16.7159
  39   2.0000      -0.608762       -16.5652
  40   2.0000      -0.605016       -16.4633
  41   2.0000      -0.600132       -16.3304
  42   2.0000      -0.588786       -16.0217
  43   2.0000      -0.581119       -15.8131
  44   2.0000      -0.566821       -15.4240
  45   2.0000      -0.562377       -15.3030
  46   2.0000      -0.556227       -15.1357
  47   2.0000      -0.536383       -14.5957
  48   2.0000      -0.530861       -14.4455
  49   2.0000      -0.516309       -14.0495
  50   2.0000      -0.493623       -13.4322
  51   2.0000      -0.479021       -13.0348
  52   2.0000      -0.472826       -12.8663
  53   2.0000      -0.454832       -12.3766
  54   2.0000      -0.408770       -11.1232
  55   2.0000      -0.379707       -10.3324
  56   2.0000      -0.272846        -7.4245
  57   0.0000       0.017935         0.4880
  58   0.0000       0.026304         0.7158
  59   0.0000       0.032131         0.8743
  60   0.0000       0.037117         1.0100
  61   0.0000       0.043165         1.1746

MULLIKEN ATOMIC CHARGES
-----------------------
   0 N :    0.183500
   1 C :   -0.560507
   2 C :    1.373599
   3 S :   -0.497924
   4 C :   -0.400079
   5 C :   -0.868991
   6 H :    0.233831
   7 H :    0.282023
   8 H :    0.207098
   9 C :   -0.981873
  10 H :    0.379051
  11 H :    0.234086
  12 H :    0.241656
  13 C :   -1.031147
  14 H :    0.365625
  15 H :    0.416573
  16 H :    0.330700
  17 C :    1.430792
  18 C :   -0.924166
  19 H :    0.356824
  20 H :    0.165414
  21 H :    0.305879
  22 O :   -0.977442
  23 C :    0.970481
  24 O :   -0.612508
  25 O :   -0.727270
  26 H :    0.104775
Sum of atomic charges:   -0.0000000

LOEWDIN ATOMIC CHARGES
----------------------
   0 N :    0.213807
   1 C :   -0.257426
   2 C :   -0.447676
   3 S :    1.377379
   4 C :   -0.571756
   5 C :    0.596862
   6 H :   -0.155520
   7 H :   -0.186182
   8 H :   -0.152427
   9 C :    0.515529
  10 H :   -0.195251
  11 H :   -0.174731
  12 H :   -0.173124
  13 C :    0.529836
  14 H :   -0.192217
  15 H :   -0.187945
  16 H :   -0.156240
  17 C :   -0.556158
  18 C :    0.554247
  19 H :   -0.213260
  20 H :   -0.168340
  21 H :   -0.157640
  22 O :    0.784150
  23 C :   -0.876303
  24 O :    0.419525
  25 O :    0.447032
  26 H :   -0.616171

  Mayer bond orders larger than 0.100000
B(  0-N ,  1-C ) :   0.3665 B(  0-N ,  2-C ) :  -0.3796 B(  0-N ,  4-C ) :   1.3944
B(  0-N ,  5-C ) :  -0.2158 B(  0-N , 13-C ) :   0.9516 B(  1-C ,  2-C ) :   0.9303
B(  1-C ,  3-S ) :   0.3383 B(  1-C ,  4-C ) :   0.3909 B(  1-C ,  5-C ) :   0.8740
B(  1-C , 17-C ) :   0.1116 B(  2-C ,  3-S ) :   0.4453 B(  2-C ,  4-C ) :  -0.1337
B(  2-C ,  5-C ) :  -0.2112 B(  2-C ,  9-C ) :   0.4833 B(  2-C , 11-H ) :  -0.1012
B(  3-S ,  4-C ) :   0.8585 B(  4-C , 17-C ) :   1.0693 B(  4-C , 18-C ) :   0.1754
B(  4-C , 22-O ) :   0.1973 B(  4-C , 23-C ) :   0.2604 B(  4-C , 24-O ) :   0.1186
B(  5-C ,  6-H ) :   1.1026 B(  5-C ,  7-H ) :   0.9227 B(  5-C ,  8-H ) :   1.1324
B(  9-C , 10-H ) :   0.8209 B(  9-C , 11-H ) :   1.0947 B(  9-C , 12-H ) :   1.0798
B( 13-C , 14-H ) :   0.9291 B( 13-C , 15-H ) :   0.8851 B( 13-C , 16-H ) :   0.9519
B( 17-C , 18-C ) :   0.4991 B( 17-C , 22-O ) :  -0.1432 B( 17-C , 23-C ) :   0.2458
B( 17-C , 25-O ) :  -0.1321 B( 17-C , 26-H ) :  -0.1124 B( 18-C , 19-H ) :   0.9300
B( 18-C , 20-H ) :   1.1168 B( 18-C , 21-H ) :   0.9534 B( 22-O , 26-H ) :   1.1108
B( 23-C , 24-O ) :   1.5994 B( 23-C , 25-O ) :   1.5206

MP2 TOTAL ENERGY:    -1027.793518548 Eh
FINAL SINGLE POINT ENERGY     -1027.793518548066

DIPOLE MOMENT
-------------
                                X             Y             Z
Electronic contribution:     -8.08077      -9.30660       3.00980
Nuclear contribution   :     10.17221      10.51072      -3.67298
                        -----------------------------------------
Total Dipole Moment    :      2.09144       1.20411      -0.66319
                        -----------------------------------------
Magnitude (a.u.)       :      2.50277
Magnitude (Debye)      :      6.36153

Rotational constants in cm-1:     0.031082     0.016443     0.013976
Rotational constants in MHz :   931.812497   492.936683   418.989259

                             ****ORCA TERMINATED NORMALLY****
TOTAL RUN TIME: 0 days 0 hours 19 minutes 12 seconds 632 msec
