                         Program Version 4.2.1 -  RELEASE  -
|  1> %pal
|  2>  nprocs 32
|  3> end
|  4> !RI-MP2 aug-cc-pVTZ aug-cc-pVTZ/C TightSCF
|  5> %maxcore 4500
|  6> *xyzfile 0 2  01_6P.xyz
|  7>
|  8>
|  9>                          ****END OF INPUT****

CARTESIAN COORDINATES (ANGSTROEM)
---------------------------------
  C      0.339430   -0.606170   -0.024083
  C     -1.088123   -1.139940   -0.028513
  C     -1.990434    0.110004   -0.102412
  H     -1.246168   -1.721466    0.879399
  H     -1.222554   -1.805552   -0.880418
  C     -1.058347    1.295927    0.184506
  H     -2.826807    0.060949    0.594590
  H     -2.411898    0.208704   -1.105195
  C      0.284034    0.861352   -0.445929
  H     -0.919710    1.432307    1.260097
  H     -1.418973    2.238412   -0.226929
  C      1.470443    1.666438   -0.079226
  F      0.865239   -0.700506    1.246202
  F      1.175272   -1.339400   -0.819181
  H      1.851471    2.426309   -0.746526
  H      1.934391    1.540776    0.889314
  H      0.153640    0.853054   -1.533580

 Total Charge           Charge          ....    0
 Multiplicity           Mult            ....    2
 Number of Electrons    NEL             ....   63
 Basis Dimension        Dim             ....  575

ORBITAL ENERGIES
----------------
                 SPIN UP ORBITALS
  NO   OCC          E(Eh)            E(eV)
   0   1.0000     -26.295858      -715.5467
   1   1.0000     -26.293978      -715.4955
   2   1.0000     -11.396991      -310.1279
   3   1.0000     -11.244733      -305.9848
   4   1.0000     -11.236384      -305.7575
   5   1.0000     -11.236341      -305.7564
   6   1.0000     -11.235859      -305.7433
   7   1.0000     -11.235471      -305.7327
   8   1.0000      -1.644374       -44.7457
   9   1.0000      -1.582206       -43.0540
  10   1.0000      -1.151381       -31.3307
  11   1.0000      -1.039422       -28.2841
  12   1.0000      -0.978045       -26.6140
  13   1.0000      -0.911483       -24.8027
  14   1.0000      -0.823108       -22.3979
  15   1.0000      -0.810101       -22.0440
  16   1.0000      -0.752588       -20.4790
  17   1.0000      -0.716705       -19.5025
  18   1.0000      -0.707222       -19.2445
  19   1.0000      -0.663735       -18.0612
  20   1.0000      -0.646893       -17.6028
  21   1.0000      -0.639779       -17.4093
  22   1.0000      -0.613354       -16.6902
  23   1.0000      -0.601503       -16.3677
  24   1.0000      -0.567950       -15.4547
  25   1.0000      -0.551525       -15.0078
  26   1.0000      -0.522093       -14.2069
  27   1.0000      -0.508949       -13.8492
  28   1.0000      -0.497092       -13.5266
  29   1.0000      -0.484075       -13.1724
  30   1.0000      -0.473749       -12.8914
  31   1.0000      -0.356593        -9.7034
  32   0.0000       0.027439         0.7467
  33   0.0000       0.034050         0.9265
  34   0.0000       0.036840         1.0025
  35   0.0000       0.041503         1.1294
  36   0.0000       0.053685         1.4608

                 SPIN DOWN ORBITALS
  NO   OCC          E(Eh)            E(eV)
   0   1.0000     -26.295907      -715.5480
   1   1.0000     -26.294067      -715.4979
   2   1.0000     -11.395739      -310.0938
   3   1.0000     -11.248047      -306.0749
   4   1.0000     -11.236241      -305.7537
   5   1.0000     -11.235659      -305.7378
   6   1.0000     -11.233169      -305.6701
   7   1.0000     -11.213034      -305.1222
   8   1.0000      -1.644314       -44.7441
   9   1.0000      -1.582383       -43.0588
  10   1.0000      -1.146038       -31.1853
  11   1.0000      -1.017827       -27.6965
  12   1.0000      -0.974333       -26.5129
  13   1.0000      -0.866320       -23.5738
  14   1.0000      -0.819643       -22.3036
  15   1.0000      -0.795736       -21.6531
  16   1.0000      -0.752223       -20.4690
  17   1.0000      -0.712774       -19.3956
  18   1.0000      -0.705710       -19.2033
  19   1.0000      -0.663173       -18.0458
  20   1.0000      -0.645156       -17.5556
  21   1.0000      -0.637052       -17.3351
  22   1.0000      -0.613187       -16.6857
  23   1.0000      -0.594183       -16.1685
  24   1.0000      -0.561928       -15.2908
  25   1.0000      -0.541972       -14.7478
  26   1.0000      -0.516792       -14.0626
  27   1.0000      -0.496446       -13.5090
  28   1.0000      -0.492219       -13.3939
  29   1.0000      -0.478471       -13.0198
  30   1.0000      -0.468581       -12.7507
  31   0.0000       0.027439         0.7467
  32   0.0000       0.034346         0.9346
  33   0.0000       0.036452         0.9919
  34   0.0000       0.041516         1.1297
  35   0.0000       0.053521         1.4564

MULLIKEN ATOMIC CHARGES AND SPIN POPULATIONS
--------------------------------------------
   0 C :    1.178091    0.039253
   1 C :   -0.758243   -0.001972
   2 C :   -0.463308    0.005406
   3 H :    0.269940    0.001270
   4 H :    0.259559   -0.000442
   5 C :   -0.684916    0.072089
   6 H :    0.341499    0.002318
   7 H :    0.156916   -0.000966
   8 C :    0.498097   -0.194894
   9 H :    0.177660   -0.002060
  10 H :    0.363391   -0.015896
  11 C :   -1.259168    1.224032
  12 F :   -0.560829    0.000624
  13 F :   -0.545204   -0.001448
  14 H :    0.293174   -0.088777
  15 H :    0.427382   -0.053419
  16 H :    0.305958    0.014882
Sum of atomic charges         :   -0.0000000

LOEWDIN ATOMIC CHARGES AND SPIN POPULATIONS
-------------------------------------------
   0 C :   -1.043479    0.020502
   1 C :    0.317112    0.001111
   2 C :    0.314130    0.006885
   3 H :   -0.152922    0.000370
   4 H :   -0.149293   -0.000052
   5 C :    0.301940    0.036058
   6 H :   -0.143583    0.001761
   7 H :   -0.146049    0.000492
   8 C :   -0.079407    0.117510
   9 H :   -0.139644    0.004848
  10 H :   -0.135210    0.003448
  11 C :    0.617873    0.559958
  12 F :    0.507925    0.000207
  13 F :    0.507690    0.002501
  14 H :   -0.216975    0.122194
  15 H :   -0.220687    0.118152
  16 H :   -0.139420    0.004054

  Mayer bond orders larger than 0.100000
B(  0-C ,  1-C ) :   1.0540 B(  0-C ,  5-C ) :   0.1201 B(  0-C ,  8-C ) :   0.9785
B(  0-C , 12-F ) :   0.4349 B(  0-C , 13-F ) :   0.2000 B(  1-C ,  2-C ) :   0.9549
B(  1-C ,  3-H ) :   0.9531 B(  1-C ,  4-H ) :   0.9535 B(  1-C , 12-F ) :   0.1630
B(  1-C , 13-F ) :   0.1436 B(  2-C ,  5-C ) :   0.9636 B(  2-C ,  6-H ) :   0.8741
B(  2-C ,  7-H ) :   1.0403 B(  5-C ,  8-C ) :   0.7971 B(  5-C ,  9-H ) :   1.0530
B(  5-C , 10-H ) :   0.8820 B(  8-C , 11-C ) :   0.3441 B(  8-C , 13-F ) :   0.1473
B(  8-C , 16-H ) :   0.9196 B( 11-C , 14-H ) :   0.9789 B( 11-C , 15-H ) :   0.8605
B( 12-F , 13-F ) :  -0.1011

MP2 TOTAL ENERGY:     -432.962237074 Eh
FINAL SINGLE POINT ENERGY      -432.962237073751

DIPOLE MOMENT
-------------
                                X             Y             Z
Electronic contribution:      7.12148      -6.64513       1.02512
Nuclear contribution   :     -8.06621       7.19847      -1.28213
                        -----------------------------------------
Total Dipole Moment    :     -0.94472       0.55334      -0.25701
                        -----------------------------------------
Magnitude (a.u.)       :      1.12461
Magnitude (Debye)      :      2.85853

Rotational constants in cm-1:     0.084681     0.074202     0.052894
Rotational constants in MHz :  2538.659718  2224.517261  1585.726569

                             ****ORCA TERMINATED NORMALLY****
TOTAL RUN TIME: 0 days 0 hours 4 minutes 27 seconds 259 msec
