                         Program Version 4.2.1 -  RELEASE  -
|  1> %pal
|  2>  nprocs 32
|  3> end
|  4> !RI-MP2 aug-cc-pVTZ aug-cc-pVTZ/C TightSCF
|  5> %maxcore 4500
|  6> *xyzfile 0 1  04_79R1.xyz
|  7>
|  8>
|  9>                          ****END OF INPUT****

CARTESIAN COORDINATES (ANGSTROEM)
---------------------------------
  O     -1.800383    0.549153   -1.301862
  C     -2.970726   -0.147026   -0.838164
  C     -2.781651   -0.296580    0.669868
  C     -2.030630    1.002486    1.027412
  C     -1.276882    1.370493   -0.290711
  C     -3.116730   -1.426471   -1.622249
  H     -3.842668    0.499368   -1.008652
  O     -2.059481   -1.425997    1.081709
  H     -3.744776   -0.347226    1.178346
  H     -1.184577   -1.462764    0.623345
  O     -1.210532    0.877516    2.148165
  H     -2.752701    1.800034    1.220134
  H     -1.115206   -0.072023    2.316457
  N      0.159992    1.213920   -0.246526
  H     -1.441867    2.423712   -0.537397
  C      1.078522    2.224625   -0.431946
  N      2.314494    1.826525   -0.400028
  C      2.221792    0.467491   -0.185868
  C      0.898052    0.067680   -0.086277
  N      0.486833   -1.188070    0.123814
  C      1.494152   -2.048293    0.227124
  N      2.797441   -1.796489    0.142305
  C      3.194686   -0.535391   -0.062987
  N      4.509467   -0.269372   -0.145660
  H      4.825475    0.674373   -0.289923
  H      5.168796   -1.021423   -0.041158
  H      1.221836   -3.083373    0.403834
  H      0.753634    3.242665   -0.588854
  H     -3.213949   -1.204235   -2.685403
  H     -4.005255   -1.969035   -1.294263
  H     -2.246695   -2.065118   -1.475109

 Total Charge           Charge          ....    0
 Multiplicity           Mult            ....    1
 Number of Electrons    NEL             ....  132
 Basis Dimension        Dim             .... 1127

ORBITAL ENERGIES
----------------

  NO   OCC          E(Eh)            E(eV)
   0   2.0000     -20.574955      -559.8730
   1   2.0000     -20.563175      -559.5524
   2   2.0000     -20.547653      -559.1301
   3   2.0000     -15.630529      -425.3283
   4   2.0000     -15.590876      -424.2493
   5   2.0000     -15.569640      -423.6714
   6   2.0000     -15.567229      -423.6058
   7   2.0000     -15.557062      -423.3292
   8   2.0000     -11.344321      -308.6947
   9   2.0000     -11.344215      -308.6918
  10   2.0000     -11.321392      -308.0707
  11   2.0000     -11.321295      -308.0681
  12   2.0000     -11.321246      -308.0668
  13   2.0000     -11.296071      -307.3817
  14   2.0000     -11.291951      -307.2696
  15   2.0000     -11.287367      -307.1449
  16   2.0000     -11.254339      -306.2461
  17   2.0000     -11.219001      -305.2845
  18   2.0000      -1.424234       -38.7554
  19   2.0000      -1.382460       -37.6187
  20   2.0000      -1.371498       -37.3204
  21   2.0000      -1.350316       -36.7440
  22   2.0000      -1.313130       -35.7321
  23   2.0000      -1.259560       -34.2744
  24   2.0000      -1.203166       -32.7398
  25   2.0000      -1.167805       -31.7776
  26   2.0000      -1.057903       -28.7870
  27   2.0000      -1.046708       -28.4824
  28   2.0000      -1.029670       -28.0187
  29   2.0000      -0.946228       -25.7482
  30   2.0000      -0.902203       -24.5502
  31   2.0000      -0.886988       -24.1362
  32   2.0000      -0.849687       -23.1212
  33   2.0000      -0.820409       -22.3245
  34   2.0000      -0.808336       -21.9959
  35   2.0000      -0.771424       -20.9915
  36   2.0000      -0.746066       -20.3015
  37   2.0000      -0.731409       -19.9027
  38   2.0000      -0.713330       -19.4107
  39   2.0000      -0.694737       -18.9048
  40   2.0000      -0.689784       -18.7700
  41   2.0000      -0.684005       -18.6127
  42   2.0000      -0.650588       -17.7034
  43   2.0000      -0.642444       -17.4818
  44   2.0000      -0.633592       -17.2409
  45   2.0000      -0.630108       -17.1461
  46   2.0000      -0.613873       -16.7043
  47   2.0000      -0.598080       -16.2746
  48   2.0000      -0.587777       -15.9942
  49   2.0000      -0.576544       -15.6886
  50   2.0000      -0.564110       -15.3502
  51   2.0000      -0.559534       -15.2257
  52   2.0000      -0.544985       -14.8298
  53   2.0000      -0.526387       -14.3237
  54   2.0000      -0.513855       -13.9827
  55   2.0000      -0.511437       -13.9169
  56   2.0000      -0.507123       -13.7995
  57   2.0000      -0.478229       -13.0133
  58   2.0000      -0.463412       -12.6101
  59   2.0000      -0.457780       -12.4568
  60   2.0000      -0.450185       -12.2502
  61   2.0000      -0.430476       -11.7139
  62   2.0000      -0.418102       -11.3771
  63   2.0000      -0.409575       -11.1451
  64   2.0000      -0.379170       -10.3177
  65   2.0000      -0.316622        -8.6157
  66   0.0000       0.022758         0.6193
  67   0.0000       0.028031         0.7628
  68   0.0000       0.031043         0.8447
  69   0.0000       0.037060         1.0084
  70   0.0000       0.040292         1.0964

MULLIKEN ATOMIC CHARGES
-----------------------
   0 O :   -0.993214
   1 C :    0.203242
   2 C :    0.224131
   3 C :    0.181344
   4 C :    0.444362
   5 C :   -1.115404
   6 H :    0.492278
   7 O :   -1.080951
   8 H :    0.441208
   9 H :    0.526772
  10 O :   -0.960658
  11 H :    0.424181
  12 H :    0.245811
  13 N :    0.232469
  14 H :    0.469565
  15 C :   -0.444479
  16 N :   -1.147904
  17 C :    2.097059
  18 C :   -0.355038
  19 N :   -0.442911
  20 C :   -0.677089
  21 N :   -0.396403
  22 C :   -0.184450
  23 N :   -0.541938
  24 H :    0.107633
  25 H :    0.066338
  26 H :    0.589340
  27 H :    0.712025
  28 H :    0.238332
  29 H :    0.245379
  30 H :    0.398970
Sum of atomic charges:   -0.0000000

LOEWDIN ATOMIC CHARGES
----------------------
   0 O :    0.621047
   1 C :   -0.247190
   2 C :   -0.213758
   3 C :   -0.203774
   4 C :   -0.288562
   5 C :    0.600159
   6 H :   -0.125399
   7 O :    0.869420
   8 H :   -0.130299
   9 H :   -0.685239
  10 O :    0.857143
  11 H :   -0.137277
  12 H :   -0.541018
  13 N :    0.284192
  14 H :   -0.141088
  15 C :   -0.031737
  16 N :    0.406949
  17 C :   -0.298189
  18 C :   -0.391009
  19 N :    0.445369
  20 C :   -0.122933
  21 N :    0.402339
  22 C :   -0.406312
  23 N :    0.876858
  24 H :   -0.282906
  25 H :   -0.282539
  26 H :   -0.186090
  27 H :   -0.156383
  28 H :   -0.163570
  29 H :   -0.157232
  30 H :   -0.170972

  Mayer bond orders larger than 0.100000
B(  0-O ,  1-C ) :   0.7576 B(  0-O ,  3-C ) :   0.1125 B(  0-O ,  4-C ) :   0.5487
B(  0-O , 13-N ) :   0.2101 B(  1-C ,  2-C ) :   1.0144 B(  1-C ,  5-C ) :   0.6887
B(  1-C ,  6-H ) :   0.7334 B(  1-C ,  7-O ) :   0.1270 B(  2-C ,  3-C ) :   1.1776
B(  2-C ,  7-O ) :   0.3829 B(  2-C ,  8-H ) :   0.8117 B(  2-C , 10-O ) :   0.1419
B(  3-C ,  4-C ) :   0.9931 B(  3-C ,  7-O ) :   0.1136 B(  3-C , 10-O ) :   0.1800
B(  3-C , 11-H ) :   0.8811 B(  3-C , 13-N ) :   0.1145 B(  4-C , 10-O ) :   0.1455
B(  4-C , 13-N ) :   0.8704 B(  4-C , 14-H ) :   0.7109 B(  4-C , 15-C ) :  -0.1440
B(  4-C , 18-C ) :  -0.2614 B(  5-C , 28-H ) :   1.0499 B(  5-C , 29-H ) :   1.0535
B(  5-C , 30-H ) :   0.8495 B(  7-O ,  8-H ) :  -0.1205 B(  7-O ,  9-H ) :   0.4675
B(  7-O , 19-N ) :  -0.1356 B( 10-O , 12-H ) :   0.9284 B( 13-N , 15-C ) :   1.4326
B( 13-N , 16-N ) :  -0.1758 B( 13-N , 18-C ) :   0.5662 B( 13-N , 19-N ) :  -0.4283
B( 15-C , 16-N ) :   1.3634 B( 15-C , 18-C ) :  -0.7513 B( 15-C , 19-N ) :  -0.1308
B( 15-C , 27-H ) :   0.3708 B( 16-N , 17-C ) :  -0.5231 B( 16-N , 18-C ) :   0.7323
B( 16-N , 22-C ) :   0.1596 B( 16-N , 27-H ) :  -0.1462 B( 17-C , 18-C ) :   0.5277
B( 17-C , 19-N ) :  -0.4772 B( 17-C , 21-N ) :   0.1311 B( 17-C , 22-C ) :  -1.6490
B( 17-C , 23-N ) :  -0.2848 B( 17-C , 27-H ) :   0.1004 B( 18-C , 19-N ) :   1.1831
B( 18-C , 20-C ) :  -0.5371 B( 18-C , 21-N ) :   0.1057 B( 18-C , 22-C ) :   1.6468
B( 19-N , 20-C ) :   1.7360 B( 19-N , 22-C ) :   0.4055 B( 20-C , 21-N ) :   1.0251
B( 20-C , 22-C ) :  -0.3524 B( 20-C , 26-H ) :   0.5006 B( 21-N , 22-C ) :   0.2814
B( 21-N , 23-N ) :  -0.2577 B( 22-C , 23-N ) :   1.0782 B( 23-N , 24-H ) :   1.1078
B( 23-N , 25-H ) :   1.1736

MP2 TOTAL ENERGY:     -886.804658571 Eh
FINAL SINGLE POINT ENERGY      -886.804658570812

DIPOLE MOMENT
-------------
                                X             Y             Z
Electronic contribution:     11.16555       3.15882       1.66579
Nuclear contribution   :    -11.44342      -2.55190      -2.12274
                        -----------------------------------------
Total Dipole Moment    :     -0.27787       0.60692      -0.45694
                        -----------------------------------------
Magnitude (a.u.)       :      0.80893
Magnitude (Debye)      :      2.05613

Rotational constants in cm-1:     0.027627     0.010763     0.009572
Rotational constants in MHz :   828.243697   322.675226   286.975750

                             ****ORCA TERMINATED NORMALLY****
TOTAL RUN TIME: 0 days 0 hours 29 minutes 14 seconds 92 msec
