                         Program Version 4.2.1 -  RELEASE  -
|  1> %pal
|  2>  nprocs 32
|  3> end
|  4> !RI-MP2 aug-cc-pVTZ aug-cc-pVTZ/C TightSCF
|  5> %maxcore 4500
|  6> *xyzfile -1 1  09_5TS.xyz
|  7>
|  8>
|  9>                          ****END OF INPUT****

CARTESIAN COORDINATES (ANGSTROEM)
---------------------------------
  C     -1.146533    1.475709    0.349864
  C     -1.519950    0.048089    0.025272
  C     -0.880810   -0.930288    0.832311
  O     -2.177689   -0.207834   -1.002518
  C      0.979799   -1.049215   -0.093911
  C      1.808398    0.027490    0.040724
  C      3.001893    0.516610   -0.237881
  H     -1.625925    2.163483   -0.348004
  H     -1.402781    1.741199    1.378879
  H     -0.045208    1.543231    0.266439
  H     -1.227937   -1.954371    0.722913
  H     -0.545175   -0.645167    1.822977
  H      0.513284   -1.244509   -1.059019
  H      1.212293   -1.949508    0.473439
  H      3.324151    1.510774    0.080254
  H      3.762030   -0.032830   -0.816007

 Total Charge           Charge          ....   -1
 Multiplicity           Mult            ....    1
 Number of Electrons    NEL             ....   54
 Basis Dimension        Dim             ....  529

ORBITAL ENERGIES
----------------

  NO   OCC          E(Eh)            E(eV)
   0   2.0000     -20.337928      -553.4232
   1   2.0000     -11.136602      -303.0423
   2   2.0000     -11.108415      -302.2754
   3   2.0000     -11.059878      -300.9546
   4   2.0000     -11.051327      -300.7219
   5   2.0000     -11.035500      -300.2912
   6   2.0000     -11.026442      -300.0447
   7   2.0000      -1.170174       -31.8421
   8   2.0000      -0.890273       -24.2256
   9   2.0000      -0.854529       -23.2529
  10   2.0000      -0.782476       -21.2922
  11   2.0000      -0.742074       -20.1929
  12   2.0000      -0.558673       -15.2023
  13   2.0000      -0.539138       -14.6707
  14   2.0000      -0.465905       -12.6779
  15   2.0000      -0.457237       -12.4420
  16   2.0000      -0.438967       -11.9449
  17   2.0000      -0.431412       -11.7393
  18   2.0000      -0.422304       -11.4915
  19   2.0000      -0.403657       -10.9841
  20   2.0000      -0.377978       -10.2853
  21   2.0000      -0.353669        -9.6238
  22   2.0000      -0.319708        -8.6997
  23   2.0000      -0.236889        -6.4461
  24   2.0000      -0.222969        -6.0673
  25   2.0000      -0.180847        -4.9211
  26   2.0000      -0.071269        -1.9393
  27   0.0000       0.117977         3.2103
  28   0.0000       0.122487         3.3330
  29   0.0000       0.124392         3.3849
  30   0.0000       0.133150         3.6232
  31   0.0000       0.137859         3.7513

MULLIKEN ATOMIC CHARGES
-----------------------
   0 C :   -0.937585
   1 C :    0.676976
   2 C :   -0.708377
   3 O :   -1.059440
   4 C :   -0.617210
   5 C :    0.303043
   6 C :   -1.305821
   7 H :    0.224811
   8 H :    0.264033
   9 H :    0.406714
  10 H :    0.296678
  11 H :    0.318242
  12 H :    0.290211
  13 H :    0.335433
  14 H :    0.301183
  15 H :    0.211110
Sum of atomic charges:   -1.0000000

LOEWDIN ATOMIC CHARGES
----------------------
   0 C :    0.526621
   1 C :   -0.697563
   2 C :    0.333486
   3 O :    0.343350
   4 C :    0.293371
   5 C :    0.007705
   6 C :    0.308955
   7 H :   -0.197643
   8 H :   -0.190859
   9 H :   -0.239976
  10 H :   -0.232865
  11 H :   -0.239924
  12 H :   -0.207180
  13 H :   -0.209934
  14 H :   -0.308390
  15 H :   -0.289153

  Mayer bond orders larger than 0.100000
B(  0-C ,  1-C ) :   0.9468 B(  0-C ,  7-H ) :   1.0241 B(  0-C ,  8-H ) :   0.9793
B(  0-C ,  9-H ) :   0.7281 B(  1-C ,  2-C ) :   1.0985 B(  1-C ,  3-O ) :   0.9178
B(  1-C ,  5-C ) :   0.1046 B(  2-C ,  4-C ) :   0.6696 B(  2-C ,  5-C ) :  -0.1520
B(  2-C , 10-H ) :   0.9311 B(  2-C , 11-H ) :   0.9179 B(  4-C ,  5-C ) :   1.4967
B(  4-C ,  6-C ) :  -0.1186 B(  4-C , 12-H ) :   0.9042 B(  4-C , 13-H ) :   0.8884
B(  5-C ,  6-C ) :   1.0467 B(  5-C ,  9-H ) :   0.1125 B(  6-C , 14-H ) :   0.9679
B(  6-C , 15-H ) :   1.1350

MP2 TOTAL ENERGY:     -308.562265964 Eh
FINAL SINGLE POINT ENERGY      -308.562265963583

DIPOLE MOMENT
-------------
                                X             Y             Z
Electronic contribution:     -3.98920      -1.27995      -1.92439
Nuclear contribution   :      4.02755       1.15693       2.56801
                        -----------------------------------------
Total Dipole Moment    :      0.03835      -0.12302       0.64362
                        -----------------------------------------
Magnitude (a.u.)       :      0.65639
Magnitude (Debye)      :      1.66842

Rotational constants in cm-1:     0.152771     0.047368     0.042442
Rotational constants in MHz :  4579.944664  1420.060781  1272.384559

                             ****ORCA TERMINATED NORMALLY****
TOTAL RUN TIME: 0 days 0 hours 2 minutes 25 seconds 154 msec
