                         Program Version 4.2.1 -  RELEASE  -
|  1> %pal
|  2>  nprocs 32
|  3> end
|  4> !RI-MP2 aug-cc-pVTZ aug-cc-pVTZ/C TightSCF
|  5> %maxcore 4500
|  6> *xyzfile 0 1  04_34P2.xyz
|  7>
|  8>
|  9>                          ****END OF INPUT****

CARTESIAN COORDINATES (ANGSTROEM)
---------------------------------
  C      2.284159    0.005656   -0.000508
  C      1.586465   -1.194551    0.001167
  C      0.200280   -1.202467    0.003772
  C     -0.504142   -0.001277    0.002097
  C      0.193273    1.202966   -0.002724
  C      1.580506    1.201488   -0.001293
  S     -2.279257   -0.083009   -0.006248
  H      3.366837    0.008667   -0.000780
  H      2.123446   -2.135460    0.002492
  H     -0.336095   -2.143950    0.009423
  H     -0.342556    2.144570   -0.007542
  H      2.112389    2.145370   -0.002953
  H     -2.499156    1.238056    0.084272

 Total Charge           Charge          ....    0
 Multiplicity           Mult            ....    1
 Number of Electrons    NEL             ....   58
 Basis Dimension        Dim             ....  464

ORBITAL ENERGIES
----------------

  NO   OCC          E(Eh)            E(eV)
   0   2.0000     -91.968866     -2502.6001
   1   2.0000     -11.278822      -306.9123
   2   2.0000     -11.243877      -305.9615
   3   2.0000     -11.243275      -305.9451
   4   2.0000     -11.242412      -305.9216
   5   2.0000     -11.240882      -305.8800
   6   2.0000     -11.236296      -305.7552
   7   2.0000      -8.969861      -244.0823
   8   2.0000      -6.651242      -180.9895
   9   2.0000      -6.650211      -180.9615
  10   2.0000      -6.649193      -180.9337
  11   2.0000      -1.169873       -31.8339
  12   2.0000      -1.059814       -28.8390
  13   2.0000      -1.026575       -27.9345
  14   2.0000      -0.950289       -25.8587
  15   2.0000      -0.839301       -22.8386
  16   2.0000      -0.810701       -22.0603
  17   2.0000      -0.704991       -19.1838
  18   2.0000      -0.647523       -17.6200
  19   2.0000      -0.637010       -17.3339
  20   2.0000      -0.597662       -16.2632
  21   2.0000      -0.579505       -15.7691
  22   2.0000      -0.528026       -14.3683
  23   2.0000      -0.524458       -14.2712
  24   2.0000      -0.503573       -13.7029
  25   2.0000      -0.469139       -12.7659
  26   2.0000      -0.417634       -11.3644
  27   2.0000      -0.348102        -9.4723
  28   2.0000      -0.309817        -8.4306
  29   0.0000       0.028411         0.7731
  30   0.0000       0.032749         0.8911
  31   0.0000       0.036178         0.9845
  32   0.0000       0.047318         1.2876
  33   0.0000       0.050702         1.3797

MULLIKEN ATOMIC CHARGES
-----------------------
   0 C :   -0.397615
   1 C :   -0.298883
   2 C :   -0.934222
   3 C :    1.059345
   4 C :   -0.967036
   5 C :   -0.316272
   6 S :   -0.526127
   7 H :    0.453039
   8 H :    0.404373
   9 H :    0.554432
  10 H :    0.446765
  11 H :    0.429402
  12 H :    0.092799
Sum of atomic charges:   -0.0000000

LOEWDIN ATOMIC CHARGES
----------------------
   0 C :    0.188539
   1 C :    0.182054
   2 C :    0.103507
   3 C :   -0.568287
   4 C :    0.118952
   5 C :    0.183000
   6 S :    1.316806
   7 H :   -0.186143
   8 H :   -0.181223
   9 H :   -0.199395
  10 H :   -0.204425
  11 H :   -0.181292
  12 H :   -0.572095

  Mayer bond orders larger than 0.100000
B(  0-C ,  1-C ) :   1.0701 B(  0-C ,  2-C ) :   0.1801 B(  0-C ,  4-C ) :   0.1526
B(  0-C ,  5-C ) :   1.0566 B(  0-C ,  7-H ) :   0.7996 B(  1-C ,  2-C ) :   1.1090
B(  1-C ,  5-C ) :  -0.1038 B(  1-C ,  8-H ) :   0.9333 B(  2-C ,  3-C ) :   1.0449
B(  2-C ,  4-C ) :   0.3349 B(  2-C ,  6-S ) :   0.1509 B(  2-C ,  9-H ) :   0.6088
B(  3-C ,  4-C ) :   0.8200 B(  3-C ,  6-S ) :   0.5536 B(  4-C ,  5-C ) :   1.1757
B(  4-C , 10-H ) :   0.7666 B(  5-C , 11-H ) :   0.9009 B(  6-S , 12-H ) :   1.1143

MP2 TOTAL ENERGY:     -629.468237878 Eh
FINAL SINGLE POINT ENERGY      -629.468237877553

DIPOLE MOMENT
-------------
                                X             Y             Z
Electronic contribution:     -4.04450      -0.93120      -0.06229
Nuclear contribution   :      4.44437       1.24557       0.08414
                        -----------------------------------------
Total Dipole Moment    :      0.39987       0.31437       0.02185
                        -----------------------------------------
Magnitude (a.u.)       :      0.50912
Magnitude (Debye)      :      1.29408

Rotational constants in cm-1:     0.188452     0.052631     0.041143
Rotational constants in MHz :  5649.652365  1577.836013  1233.430247

                             ****ORCA TERMINATED NORMALLY****
TOTAL RUN TIME: 0 days 0 hours 1 minutes 50 seconds 856 msec
