                         Program Version 4.2.1 -  RELEASE  -
|  1> %pal
|  2>  nprocs 32
|  3> end
|  4> !RI-MP2 aug-cc-pVTZ aug-cc-pVTZ/C TightSCF
|  5> %maxcore 4500
|  6> *xyzfile 0 1  10_64TS.xyz
|  7>
|  8>
|  9>                          ****END OF INPUT****

CARTESIAN COORDINATES (ANGSTROEM)
---------------------------------
  C     -0.518848    0.299420    0.728784
  C      0.391067    1.420981    0.443208
  C     -0.023178   -0.958099    1.152695
  C      1.491397    1.770325    1.301841
  C      1.172491   -1.255540    1.815655
  C      2.287907    0.964292    2.052942
  C      2.193713   -0.432108    2.220236
  H      1.745255    2.825871    1.292574
  H      3.104325    1.450876    2.577550
  H      2.990247   -0.898340    2.790724
  H      1.282786   -2.302490    2.081521
  C      0.833612   -1.308435   -1.391575
  H     -0.741173   -1.762795    1.109563
  C      1.076373    1.001965   -1.332169
  H     -0.147285    2.309199    0.140191
  C      1.813997   -0.277845   -1.128158
  C     -0.095081    0.649664   -2.060626
  H      1.592522    1.929499   -1.537667
  C     -0.250503   -0.734600   -2.039900
  H      0.979576   -2.367179   -1.248879
  H     -0.799795    1.356703   -2.473792
  H     -1.108378   -1.273039   -2.416217
  C      3.119867   -0.440449   -0.837689
  C      3.754498   -1.792519   -0.716444
  C      4.073758    0.709148   -0.729625
  H      3.575440    1.673228   -0.674339
  H      4.738067    0.716521   -1.600878
  H      4.709071    0.600357    0.152078
  H      3.031972   -2.604658   -0.709306
  H      4.344201   -1.849558    0.201561
  H      4.446418   -1.958718   -1.548735
  C     -1.851194    0.469480    0.342782
  C     -2.295121    1.753211   -0.083559
  N     -2.611121    2.806171   -0.429485
  C     -2.868590   -0.586000    0.350653
  O     -2.709841   -1.757051    0.623195
  O     -4.070385   -0.104597   -0.017379
  C     -5.138215   -1.048992   -0.052604
  H     -4.921995   -1.847392   -0.762880
  H     -5.295973   -1.485934    0.933551
  H     -6.013330   -0.485559   -0.365436

 Total Charge           Charge          ....    0
 Multiplicity           Mult            ....    1
 Number of Electrons    NEL             ....  156
 Basis Dimension        Dim             .... 1449

ORBITAL ENERGIES
----------------

  NO   OCC          E(Eh)            E(eV)
   0   2.0000     -20.586657      -560.1914
   1   2.0000     -20.523611      -558.4758
   2   2.0000     -15.533338      -422.6836
   3   2.0000     -11.369758      -309.3868
   4   2.0000     -11.285714      -307.0999
   5   2.0000     -11.283628      -307.0431
   6   2.0000     -11.283147      -307.0300
   7   2.0000     -11.275219      -306.8143
   8   2.0000     -11.272495      -306.7402
   9   2.0000     -11.266943      -306.5891
  10   2.0000     -11.265659      -306.5542
  11   2.0000     -11.249731      -306.1207
  12   2.0000     -11.249192      -306.1061
  13   2.0000     -11.249050      -306.1022
  14   2.0000     -11.248264      -306.0808
  15   2.0000     -11.246909      -306.0439
  16   2.0000     -11.246273      -306.0266
  17   2.0000     -11.245227      -305.9982
  18   2.0000     -11.244041      -305.9659
  19   2.0000     -11.241194      -305.8884
  20   2.0000     -11.240629      -305.8731
  21   2.0000     -11.239163      -305.8332
  22   2.0000      -1.449327       -39.4382
  23   2.0000      -1.343375       -36.5551
  24   2.0000      -1.207974       -32.8706
  25   2.0000      -1.194489       -32.5037
  26   2.0000      -1.152808       -31.3695
  27   2.0000      -1.113724       -30.3060
  28   2.0000      -1.094406       -29.7803
  29   2.0000      -1.065839       -29.0029
  30   2.0000      -1.018263       -27.7083
  31   2.0000      -0.992114       -26.9968
  32   2.0000      -0.978043       -26.6139
  33   2.0000      -0.965640       -26.2764
  34   2.0000      -0.949053       -25.8251
  35   2.0000      -0.909943       -24.7608
  36   2.0000      -0.876662       -23.8552
  37   2.0000      -0.845628       -23.0107
  38   2.0000      -0.787396       -21.4261
  39   2.0000      -0.762264       -20.7423
  40   2.0000      -0.755899       -20.5691
  41   2.0000      -0.748991       -20.3811
  42   2.0000      -0.729982       -19.8638
  43   2.0000      -0.712636       -19.3918
  44   2.0000      -0.695808       -18.9339
  45   2.0000      -0.691785       -18.8244
  46   2.0000      -0.662787       -18.0354
  47   2.0000      -0.660394       -17.9702
  48   2.0000      -0.637372       -17.3438
  49   2.0000      -0.629807       -17.1379
  50   2.0000      -0.622318       -16.9341
  51   2.0000      -0.613578       -16.6963
  52   2.0000      -0.606001       -16.4901
  53   2.0000      -0.594491       -16.1769
  54   2.0000      -0.584612       -15.9081
  55   2.0000      -0.579756       -15.7760
  56   2.0000      -0.568312       -15.4646
  57   2.0000      -0.563117       -15.3232
  58   2.0000      -0.562085       -15.2951
  59   2.0000      -0.549568       -14.9545
  60   2.0000      -0.543180       -14.7807
  61   2.0000      -0.538617       -14.6565
  62   2.0000      -0.535756       -14.5787
  63   2.0000      -0.529957       -14.4209
  64   2.0000      -0.516854       -14.0643
  65   2.0000      -0.511958       -13.9311
  66   2.0000      -0.508807       -13.8454
  67   2.0000      -0.493150       -13.4193
  68   2.0000      -0.481275       -13.0962
  69   2.0000      -0.464171       -12.6307
  70   2.0000      -0.456518       -12.4225
  71   2.0000      -0.452794       -12.3211
  72   2.0000      -0.426806       -11.6140
  73   2.0000      -0.417202       -11.3526
  74   2.0000      -0.392336       -10.6760
  75   2.0000      -0.346672        -9.4334
  76   2.0000      -0.304582        -8.2881
  77   2.0000      -0.250517        -6.8169
  78   0.0000       0.013754         0.3743
  79   0.0000       0.016425         0.4469
  80   0.0000       0.024944         0.6788
  81   0.0000       0.027841         0.7576
  82   0.0000       0.031302         0.8518

MULLIKEN ATOMIC CHARGES
-----------------------
   0 C :   -0.672973
   1 C :    1.080052
   2 C :   -0.371216
   3 C :   -0.606207
   4 C :   -0.156546
   5 C :   -0.571076
   6 C :   -0.170265
   7 H :   -0.267733
   8 H :    0.103393
   9 H :    0.081781
  10 H :   -0.158117
  11 C :   -0.577218
  12 H :    0.183390
  13 C :   -0.245751
  14 H :    0.121754
  15 C :    0.237872
  16 C :   -0.882162
  17 H :    0.356601
  18 C :   -0.904020
  19 H :    0.242135
  20 H :    0.544579
  21 H :    0.680997
  22 C :    2.032363
  23 C :   -1.326400
  24 C :   -1.260972
  25 H :    0.354881
  26 H :    0.203311
  27 H :    0.186245
  28 H :    0.339676
  29 H :    0.188099
  30 H :    0.213400
  31 C :    1.328514
  32 C :    1.565220
  33 N :   -1.255334
  34 C :    0.858897
  35 O :   -1.064897
  36 O :   -0.550202
  37 C :   -1.014462
  38 H :    0.392255
  39 H :    0.415655
  40 H :    0.344479
Sum of atomic charges:    0.0000000

LOEWDIN ATOMIC CHARGES
----------------------
   0 C :   -0.122596
   1 C :    0.134874
   2 C :    0.234648
   3 C :    0.238920
   4 C :    0.205758
   5 C :    0.191026
   6 C :    0.197759
   7 H :   -0.167561
   8 H :   -0.175845
   9 H :   -0.185825
  10 H :   -0.172038
  11 C :    0.247749
  12 H :   -0.286873
  13 C :    0.138513
  14 H :   -0.227272
  15 C :   -0.123475
  16 C :    0.245690
  17 H :   -0.146738
  18 C :    0.236861
  19 H :   -0.150721
  20 H :   -0.142716
  21 H :   -0.150778
  22 C :   -0.061247
  23 C :    0.597891
  24 C :    0.594991
  25 H :   -0.188174
  26 H :   -0.144762
  27 H :   -0.156125
  28 H :   -0.184322
  29 H :   -0.157785
  30 H :   -0.147968
  31 C :   -0.167278
  32 C :   -0.331330
  33 N :    0.300481
  34 C :   -0.846528
  35 O :    0.500351
  36 O :    0.566368
  37 C :    0.353060
  38 H :   -0.182288
  39 H :   -0.180097
  40 H :   -0.184599

  Mayer bond orders larger than 0.100000
B(  0-C ,  1-C ) :   1.0952 B(  0-C ,  2-C ) :   1.1019 B(  0-C ,  3-C ) :   0.3541
B(  0-C ,  4-C ) :   0.2271 B(  0-C ,  5-C ) :   0.1123 B(  0-C ,  7-H ) :   0.2045
B(  0-C ,  8-H ) :  -0.2080 B(  0-C ,  9-H ) :   0.1152 B(  0-C , 11-C ) :  -0.2957
B(  0-C , 12-H ) :   0.1984 B(  0-C , 13-C ) :   0.1932 B(  0-C , 14-H ) :   0.4135
B(  0-C , 22-C ) :   0.2337 B(  0-C , 31-C ) :  -1.1836 B(  0-C , 32-C ) :   0.5712
B(  0-C , 33-N ) :   0.1177 B(  0-C , 34-C ) :   0.6329 B(  0-C , 36-O ) :   0.1960
B(  1-C ,  2-C ) :  -0.1090 B(  1-C ,  3-C ) :  -0.2007 B(  1-C ,  4-C ) :   0.1091
B(  1-C ,  6-C ) :  -0.1365 B(  1-C ,  7-H ) :  -0.4687 B(  1-C , 10-H ) :  -0.1363
B(  1-C , 11-C ) :   0.2012 B(  1-C , 12-H ) :   0.2493 B(  1-C , 13-C ) :   0.3598
B(  1-C , 14-H ) :   1.1772 B(  1-C , 15-C ) :   0.2284 B(  1-C , 16-C ) :  -0.1572
B(  1-C , 18-C ) :   0.1515 B(  1-C , 31-C ) :   0.1426 B(  1-C , 33-N ) :   0.1592
B(  1-C , 34-C ) :  -0.1331 B(  2-C ,  3-C ) :  -0.1417 B(  2-C ,  4-C ) :   0.5089
B(  2-C , 10-H ) :  -0.1491 B(  2-C , 11-C ) :   0.2116 B(  2-C , 12-H ) :   1.5412
B(  2-C , 13-C ) :   0.1151 B(  2-C , 15-C ) :   0.1808 B(  2-C , 22-C ) :  -0.2682
B(  2-C , 31-C ) :   0.2816 B(  2-C , 32-C ) :  -0.1280 B(  3-C ,  4-C ) :   0.2742
B(  3-C ,  5-C ) :   1.3586 B(  3-C ,  6-C ) :   0.2307 B(  3-C ,  7-H ) :   1.8011
B(  3-C ,  8-H ) :  -0.1971 B(  3-C , 12-H ) :  -0.1160 B(  3-C , 14-H ) :  -0.1860
B(  3-C , 31-C ) :  -0.1436 B(  4-C ,  6-C ) :   1.0061 B(  4-C ,  9-H ) :  -0.2239
B(  4-C , 10-H ) :   1.5188 B(  4-C , 11-C ) :   0.1060 B(  4-C , 12-H ) :  -0.1438
B(  4-C , 31-C ) :  -0.1079 B(  4-C , 32-C ) :   0.1526 B(  4-C , 35-O ) :   0.1467
B(  5-C ,  6-C ) :   1.1346 B(  5-C ,  7-H ) :  -0.1704 B(  5-C ,  8-H ) :   1.2429
B(  5-C ,  9-H ) :  -0.1348 B(  5-C , 14-H ) :  -0.1204 B(  5-C , 15-C ) :   0.1008
B(  5-C , 31-C ) :  -0.1106 B(  6-C ,  8-H ) :  -0.1134 B(  6-C ,  9-H ) :   1.2710
B(  6-C , 10-H ) :  -0.1464 B(  7-H , 31-C ) :  -0.1641 B(  8-H , 15-C ) :  -0.1202
B(  8-H , 31-C ) :   0.2016 B(  9-H , 31-C ) :  -0.1025 B( 10-H , 14-H ) :  -0.1105
B( 10-H , 32-C ) :   0.1017 B( 11-C , 15-C ) :  -0.2957 B( 11-C , 18-C ) :   1.2502
B( 11-C , 19-H ) :   1.4458 B( 11-C , 22-C ) :   0.8695 B( 11-C , 23-C ) :   0.1058
B( 12-H , 14-H ) :   0.1882 B( 12-H , 15-C ) :  -0.1111 B( 12-H , 22-C ) :   0.1152
B( 12-H , 31-C ) :  -0.4654 B( 12-H , 32-C ) :  -0.2312 B( 12-H , 34-C ) :   0.2595
B( 12-H , 35-O ) :  -0.3711 B( 13-C , 15-C ) :   1.6249 B( 13-C , 16-C ) :   0.9744
B( 13-C , 17-H ) :   0.8373 B( 13-C , 19-H ) :   0.1068 B( 13-C , 22-C ) :  -0.5284
B( 13-C , 31-C ) :  -0.1005 B( 14-H , 16-C ) :   0.2122 B( 14-H , 31-C ) :  -0.5292
B( 14-H , 32-C ) :   0.1518 B( 14-H , 33-N ) :  -0.1181 B( 15-C , 17-H ) :  -0.2405
B( 15-C , 18-C ) :   0.4836 B( 15-C , 19-H ) :   0.5257 B( 15-C , 20-H ) :   0.2056
B( 15-C , 21-H ) :  -0.4076 B( 15-C , 24-C ) :   0.3093 B( 16-C , 17-H ) :  -0.3635
B( 16-C , 18-C ) :   1.1447 B( 16-C , 20-H ) :   0.7072 B( 16-C , 22-C ) :  -0.1328
B( 17-H , 22-C ) :   0.1211 B( 18-C , 20-H ) :  -0.1436 B( 18-C , 21-H ) :   0.4194
B( 18-C , 22-C ) :  -0.1807 B( 19-H , 22-C ) :  -0.6852 B( 19-H , 24-C ) :  -0.1180
B( 20-H , 22-C ) :  -0.2121 B( 21-H , 22-C ) :   0.3856 B( 22-C , 23-C ) :   0.1215
B( 22-C , 27-H ) :  -0.1190 B( 22-C , 29-H ) :  -0.1477 B( 22-C , 30-H ) :  -0.1157
B( 23-C , 24-C ) :   0.1210 B( 23-C , 28-H ) :   0.9350 B( 23-C , 29-H ) :   1.2367
B( 23-C , 30-H ) :   1.1540 B( 24-C , 25-H ) :   0.9829 B( 24-C , 26-H ) :   1.1060
B( 24-C , 27-H ) :   1.1962 B( 31-C , 32-C ) :   0.6009 B( 31-C , 33-N ) :   0.8507
B( 31-C , 34-C ) :  -0.2023 B( 31-C , 35-O ) :   0.3181 B( 31-C , 36-O ) :  -0.3144
B( 32-C , 33-N ) :   0.5859 B( 34-C , 35-O ) :   0.6627 B( 34-C , 36-O ) :   0.9855
B( 34-C , 37-C ) :  -0.1949 B( 36-O , 37-C ) :   0.9969 B( 37-C , 38-H ) :   0.8656
B( 37-C , 39-H ) :   0.8594 B( 37-C , 40-H ) :   0.9176

MP2 TOTAL ENERGY:     -938.716236728 Eh
FINAL SINGLE POINT ENERGY      -938.716236727936

DIPOLE MOMENT
-------------
                                X             Y             Z
Electronic contribution:    -14.62015       4.79684       1.53267
Nuclear contribution   :     17.36682      -5.97839      -2.04908
                        -----------------------------------------
Total Dipole Moment    :      2.74667      -1.18155      -0.51641
                        -----------------------------------------
Magnitude (a.u.)       :      3.03429
Magnitude (Debye)      :      7.71256

Rotational constants in cm-1:     0.018525     0.007104     0.006978
Rotational constants in MHz :   555.351394   212.975260   209.195649

                             ****ORCA TERMINATED NORMALLY****
TOTAL RUN TIME: 0 days 1 hours 29 minutes 0 seconds 733 msec
