                         Program Version 4.2.1 -  RELEASE  -
|  1> %pal
|  2>  nprocs 32
|  3> end
|  4> !RI-MP2 aug-cc-pVTZ aug-cc-pVTZ/C TightSCF
|  5> %maxcore 4500
|  6> *xyzfile 1 1  05_22TS.xyz
|  7>
|  8>
|  9>                          ****END OF INPUT****

CARTESIAN COORDINATES (ANGSTROEM)
---------------------------------
  C      1.261461   -0.770297   -0.448912
  C      2.149841    1.737848   -0.447677
  C      3.538295    1.151252   -0.729140
  C      3.729107   -0.229406   -0.129815
  C      2.705206   -1.176321   -0.744594
  H      3.686701    1.096786   -1.812773
  H      4.278573    1.849753   -0.334265
  H      3.584026   -0.198830    0.951437
  H      2.859516   -1.207201   -1.827382
  H      2.859839   -2.183402   -0.357628
  N      1.116322    0.692301   -0.701448
  O     -0.087306    1.117631   -0.810194
  C      0.308956   -1.509201   -1.387647
  H      0.483939   -2.580782   -1.287515
  H     -0.735349   -1.311218   -1.148727
  H      0.489231   -1.227659   -2.425650
  C      0.885623   -1.082082    1.010045
  H     -0.142774   -0.787674    1.222247
  H      0.948065   -2.160970    1.154434
  H      1.553009   -0.617210    1.732684
  C      1.884753    2.904225   -1.398954
  H      0.950547    3.412550   -1.165793
  H      2.695966    3.626725   -1.302762
  H      1.849393    2.562390   -2.433945
  C      2.035955    2.226740    1.006144
  H      2.747862    3.040068    1.152130
  H      1.044002    2.631222    1.210831
  H      2.264916    1.449796    1.733290
  C     -1.580635    1.668604    1.162475
  H     -1.009863    1.334613    2.029215
  H     -0.642157    1.270863    0.184359
  C     -2.670003    0.781558    0.735980
  C     -3.312021    0.883391   -0.505335
  C     -2.987685   -0.278759    1.594229
  C     -4.276711   -0.038034   -0.864937
  H     -3.041983    1.656523   -1.209624
  C     -3.960426   -1.197034    1.245357
  H     -2.486184   -0.372082    2.549779
  C     -4.585177   -1.056154    0.020065
  H     -4.785401    0.013625   -1.817279
  H     -4.237061   -2.012345    1.899035
  O     -1.579930    2.990785    1.119606
  C     -2.479409    3.754880    0.300876
  H     -2.178389    3.691245   -0.745110
  H     -3.503843    3.409467    0.433755
  H     -2.377180    4.777438    0.650810
  N     -5.618068   -2.046545   -0.369718
  O     -6.158270   -1.884386   -1.441961
  O     -5.841704   -2.944162    0.412091
  N      5.082225   -0.701952   -0.330542
  C      5.578093   -1.697014    0.465433
  O      4.898284   -2.179919    1.351516
  C      6.988119   -2.141703    0.185288
  H      6.980071   -3.208111   -0.041596
  H      7.581053   -2.004832    1.089943
  H      7.458802   -1.602250   -0.636812
  H      5.632689   -0.349663   -1.096881

 Total Charge           Charge          ....    1
 Multiplicity           Mult            ....    1
 Number of Electrons    NEL             ....  204
 Basis Dimension        Dim             .... 1932

ORBITAL ENERGIES
----------------

  NO   OCC          E(Eh)            E(eV)
   0   2.0000     -20.812568      -566.3388
   1   2.0000     -20.779471      -565.4382
   2   2.0000     -20.704928      -563.4097
   3   2.0000     -20.704789      -563.4059
   4   2.0000     -20.600659      -560.5724
   5   2.0000     -15.957426      -434.2236
   6   2.0000     -15.794225      -429.7827
   7   2.0000     -15.676284      -426.5734
   8   2.0000     -11.530542      -313.7620
   9   2.0000     -11.439273      -311.2784
  10   2.0000     -11.434937      -311.1604
  11   2.0000     -11.434037      -311.1360
  12   2.0000     -11.421042      -310.7824
  13   2.0000     -11.411932      -310.5345
  14   2.0000     -11.406550      -310.3880
  15   2.0000     -11.405016      -310.3463
  16   2.0000     -11.404276      -310.3261
  17   2.0000     -11.394669      -310.0647
  18   2.0000     -11.394587      -310.0625
  19   2.0000     -11.374372      -309.5124
  20   2.0000     -11.347483      -308.7807
  21   2.0000     -11.343213      -308.6645
  22   2.0000     -11.341530      -308.6187
  23   2.0000     -11.336189      -308.4734
  24   2.0000     -11.333876      -308.4104
  25   2.0000     -11.331749      -308.3526
  26   2.0000     -11.312158      -307.8195
  27   2.0000      -1.719583       -46.7922
  28   2.0000      -1.644571       -44.7511
  29   2.0000      -1.604619       -43.6639
  30   2.0000      -1.512275       -41.1511
  31   2.0000      -1.470701       -40.0198
  32   2.0000      -1.338647       -36.4264
  33   2.0000      -1.336197       -36.3598
  34   2.0000      -1.305185       -35.5159
  35   2.0000      -1.246182       -33.9103
  36   2.0000      -1.231999       -33.5244
  37   2.0000      -1.187103       -32.3027
  38   2.0000      -1.172626       -31.9088
  39   2.0000      -1.160277       -31.5727
  40   2.0000      -1.119839       -30.4724
  41   2.0000      -1.101430       -29.9714
  42   2.0000      -1.078223       -29.3399
  43   2.0000      -1.070561       -29.1314
  44   2.0000      -1.060336       -28.8532
  45   2.0000      -1.053036       -28.6546
  46   2.0000      -1.014261       -27.5995
  47   2.0000      -1.002836       -27.2886
  48   2.0000      -0.960051       -26.1243
  49   2.0000      -0.948542       -25.8111
  50   2.0000      -0.945207       -25.7204
  51   2.0000      -0.913944       -24.8697
  52   2.0000      -0.897448       -24.4208
  53   2.0000      -0.885528       -24.0965
  54   2.0000      -0.874883       -23.8068
  55   2.0000      -0.863586       -23.4994
  56   2.0000      -0.837218       -22.7819
  57   2.0000      -0.829982       -22.5849
  58   2.0000      -0.828994       -22.5581
  59   2.0000      -0.812942       -22.1213
  60   2.0000      -0.812172       -22.1003
  61   2.0000      -0.802787       -21.8449
  62   2.0000      -0.786505       -21.4019
  63   2.0000      -0.780128       -21.2284
  64   2.0000      -0.776983       -21.1428
  65   2.0000      -0.762306       -20.7434
  66   2.0000      -0.754280       -20.5250
  67   2.0000      -0.748431       -20.3658
  68   2.0000      -0.737798       -20.0765
  69   2.0000      -0.727532       -19.7972
  70   2.0000      -0.718240       -19.5443
  71   2.0000      -0.714572       -19.4445
  72   2.0000      -0.709723       -19.3125
  73   2.0000      -0.701959       -19.1013
  74   2.0000      -0.695883       -18.9359
  75   2.0000      -0.689225       -18.7548
  76   2.0000      -0.686425       -18.6786
  77   2.0000      -0.676683       -18.4135
  78   2.0000      -0.665760       -18.1163
  79   2.0000      -0.663534       -18.0557
  80   2.0000      -0.661553       -18.0018
  81   2.0000      -0.658608       -17.9216
  82   2.0000      -0.654418       -17.8076
  83   2.0000      -0.652442       -17.7538
  84   2.0000      -0.643308       -17.5053
  85   2.0000      -0.640594       -17.4315
  86   2.0000      -0.635346       -17.2886
  87   2.0000      -0.624278       -16.9875
  88   2.0000      -0.616061       -16.7639
  89   2.0000      -0.603989       -16.4354
  90   2.0000      -0.600686       -16.3455
  91   2.0000      -0.598838       -16.2952
  92   2.0000      -0.597271       -16.2526
  93   2.0000      -0.596022       -16.2186
  94   2.0000      -0.577578       -15.7167
  95   2.0000      -0.572081       -15.5671
  96   2.0000      -0.554786       -15.0965
  97   2.0000      -0.527148       -14.3444
  98   2.0000      -0.509030       -13.8514
  99   2.0000      -0.497629       -13.5412
 100   2.0000      -0.484106       -13.1732
 101   2.0000      -0.457985       -12.4624
 102   0.0000      -0.165683        -4.5085
 103   0.0000      -0.064623        -1.7585
 104   0.0000      -0.062583        -1.7030
 105   0.0000      -0.055188        -1.5017
 106   0.0000      -0.049319        -1.3420

MULLIKEN ATOMIC CHARGES
-----------------------
   0 C :    2.019971
   1 C :    1.926166
   2 C :   -1.355193
   3 C :    1.228260
   4 C :   -1.156958
   5 H :    0.170488
   6 H :    0.386756
   7 H :    0.537649
   8 H :    0.164106
   9 H :    0.408749
  10 N :    0.462984
  11 O :   -1.084668
  12 C :   -2.074817
  13 H :    0.126409
  14 H :    0.713668
  15 H :    0.144905
  16 C :   -1.449600
  17 H :    0.789912
  18 H :    0.014397
  19 H :    0.302794
  20 C :   -1.914233
  21 H :    0.501539
  22 H :    0.117625
  23 H :    0.198153
  24 C :   -1.371407
  25 H :    0.050020
  26 H :    0.427619
  27 H :    0.329908
  28 C :    0.338003
  29 H :    0.549364
  30 H :    0.516707
  31 C :    1.010941
  32 C :    0.012377
  33 C :   -0.636042
  34 C :   -0.783977
  35 H :    0.270193
  36 C :   -0.611084
  37 H :    0.258270
  38 C :    0.952405
  39 H :    0.422654
  40 H :    0.452307
  41 O :   -0.826068
  42 C :   -1.046431
  43 H :    0.366423
  44 H :    0.458292
  45 H :    0.365044
  46 N :    0.639295
  47 O :   -0.653891
  48 O :   -0.657624
  49 N :   -0.628281
  50 C :    0.715549
  51 O :   -1.044015
  52 C :   -0.896548
  53 H :    0.323216
  54 H :    0.325173
  55 H :    0.271380
  56 H :   -0.078833
Sum of atomic charges:    1.0000000

LOEWDIN ATOMIC CHARGES
----------------------
   0 C :   -0.370517
   1 C :   -0.371804
   2 C :    0.333989
   3 C :   -0.104704
   4 C :    0.334282
   5 H :   -0.122377
   6 H :   -0.116181
   7 H :   -0.162800
   8 H :   -0.119679
   9 H :   -0.131293
  10 N :    0.115083
  11 O :    0.762552
  12 C :    0.608811
  13 H :   -0.141473
  14 H :   -0.166127
  15 H :   -0.144215
  16 C :    0.633498
  17 H :   -0.188088
  18 H :   -0.132195
  19 H :   -0.166855
  20 C :    0.605590
  21 H :   -0.164318
  22 H :   -0.143527
  23 H :   -0.145361
  24 C :    0.629594
  25 H :   -0.137270
  26 H :   -0.179546
  27 H :   -0.169663
  28 C :    0.002639
  29 H :   -0.125871
  30 H :   -0.571856
  31 C :   -0.083521
  32 C :    0.246466
  33 C :    0.253298
  34 C :    0.254836
  35 H :   -0.178064
  36 C :    0.254571
  37 H :   -0.153579
  38 C :   -0.179715
  39 H :   -0.178043
  40 H :   -0.176828
  41 O :    0.652318
  42 C :    0.436737
  43 H :   -0.161179
  44 H :   -0.167632
  45 H :   -0.156547
  46 N :   -0.696885
  47 O :    0.424640
  48 O :    0.425691
  49 N :    0.592752
  50 C :   -0.661417
  51 O :    0.470009
  52 C :    0.612456
  53 H :   -0.165108
  54 H :   -0.164809
  55 H :   -0.178756
  56 H :   -0.272010

  Mayer bond orders larger than 0.100000
B(  0-C ,  1-C ) :  -0.1067 B(  0-C ,  2-C ) :  -0.1143 B(  0-C , 10-N ) :   0.6769
B(  0-C , 11-O ) :   0.2063 B(  0-C , 12-C ) :   0.1556 B(  0-C , 13-H ) :  -0.2026
B(  0-C , 15-H ) :  -0.2279 B(  0-C , 16-C ) :   0.5162 B(  0-C , 18-H ) :  -0.1113
B(  0-C , 31-C ) :   0.1338 B(  1-C ,  2-C ) :   0.1479 B(  1-C ,  3-C ) :   0.1275
B(  1-C , 10-N ) :   0.6950 B(  1-C , 22-H ) :  -0.1947 B(  1-C , 23-H ) :  -0.1774
B(  1-C , 24-C ) :   0.5239 B(  2-C ,  3-C ) :   0.4772 B(  2-C ,  4-C ) :   0.2883
B(  2-C ,  5-H ) :   1.3261 B(  2-C ,  6-H ) :   0.7983 B(  2-C , 10-N ) :   0.2660
B(  2-C , 20-C ) :  -0.1259 B(  2-C , 49-N ) :   0.1713 B(  3-C ,  4-C ) :   0.8276
B(  3-C ,  7-H ) :   0.8592 B(  3-C , 10-N ) :  -0.2739 B(  4-C ,  7-H ) :   0.2251
B(  4-C ,  8-H ) :   1.2321 B(  4-C ,  9-H ) :   0.9160 B(  4-C , 12-C ) :  -0.1016
B(  4-C , 49-N ) :   0.1756 B(  4-C , 51-O ) :   0.1031 B(  7-H , 49-N ) :  -0.4175
B(  7-H , 50-C ) :  -0.1532 B(  7-H , 51-O ) :  -0.2437 B( 10-N , 11-O ) :  -0.1478
B( 10-N , 12-C ) :  -0.1575 B( 10-N , 20-C ) :  -0.2477 B( 10-N , 23-H ) :  -0.1275
B( 10-N , 30-H ) :  -0.1427 B( 10-N , 31-C ) :   0.2054 B( 11-O , 12-C ) :   0.1186
B( 11-O , 20-C ) :   0.1584 B( 11-O , 28-C ) :   0.1261 B( 11-O , 30-H ) :  -0.2330
B( 11-O , 31-C ) :   0.1058 B( 12-C , 13-H ) :   1.4012 B( 12-C , 14-H ) :   0.4611
B( 12-C , 15-H ) :   1.4184 B( 16-C , 17-H ) :   0.3743 B( 16-C , 18-H ) :   1.4491
B( 16-C , 19-H ) :   1.0894 B( 20-C , 21-H ) :   0.7370 B( 20-C , 22-H ) :   1.3815
B( 20-C , 23-H ) :   1.2934 B( 20-C , 24-C ) :   0.1100 B( 24-C , 25-H ) :   1.3096
B( 24-C , 26-H ) :   0.7497 B( 24-C , 27-H ) :   1.0463 B( 28-C , 29-H ) :   0.8970
B( 28-C , 30-H ) :   0.4042 B( 28-C , 31-C ) :   0.2329 B( 28-C , 32-C ) :   0.1987
B( 28-C , 33-C ) :   0.7658 B( 28-C , 41-O ) :   0.1587 B( 28-C , 42-C ) :  -0.1996
B( 29-H , 31-C ) :  -0.1839 B( 29-H , 41-O ) :  -0.1735 B( 30-H , 31-C ) :   0.6935
B( 30-H , 32-C ) :   0.1093 B( 30-H , 33-C ) :  -0.1551 B( 30-H , 41-O ) :   0.1481
B( 31-C , 32-C ) :   0.3750 B( 31-C , 33-C ) :  -0.1730 B( 31-C , 34-C ) :   0.5907
B( 31-C , 35-H ) :  -0.1773 B( 31-C , 36-C ) :   0.2664 B( 31-C , 37-H ) :  -0.1407
B( 31-C , 41-O ) :  -0.1409 B( 32-C , 33-C ) :  -0.1517 B( 32-C , 34-C ) :   1.2146
B( 32-C , 35-H ) :   1.0113 B( 32-C , 36-C ) :  -0.1934 B( 32-C , 37-H ) :   0.1081
B( 32-C , 38-C ) :   0.1204 B( 33-C , 34-C ) :  -0.1700 B( 33-C , 35-H ) :   0.1655
B( 33-C , 36-C ) :   1.4731 B( 33-C , 37-H ) :   1.1240 B( 34-C , 38-C ) :   0.7264
B( 34-C , 39-H ) :   0.7815 B( 34-C , 46-N ) :  -0.1874 B( 36-C , 38-C ) :   0.7307
B( 36-C , 40-H ) :   0.8596 B( 36-C , 46-N ) :  -0.2002 B( 38-C , 39-H ) :   0.1073
B( 38-C , 46-N ) :   1.3095 B( 38-C , 47-O ) :   0.4005 B( 38-C , 48-O ) :   0.4390
B( 39-H , 47-O ) :  -0.1084 B( 40-H , 48-O ) :  -0.1170 B( 41-O , 42-C ) :   1.0912
B( 42-C , 43-H ) :   0.8876 B( 42-C , 44-H ) :   0.8090 B( 42-C , 45-H ) :   0.9458
B( 46-N , 47-O ) :   1.0400 B( 46-N , 48-O ) :   1.0210 B( 47-O , 48-O ) :   0.1141
B( 49-N , 50-C ) :   1.2052 B( 49-N , 56-H ) :   1.2904 B( 50-C , 51-O ) :   1.4857
B( 50-C , 52-C ) :   0.4487 B( 51-O , 52-C ) :  -0.1359 B( 52-C , 53-H ) :   0.9806
B( 52-C , 54-H ) :   0.9924 B( 52-C , 55-H ) :   1.0024

MP2 TOTAL ENERGY:    -1279.695879795 Eh
FINAL SINGLE POINT ENERGY     -1279.695879794588

DIPOLE MOMENT
-------------
                                X             Y             Z
Electronic contribution:    -34.25330     -10.69038       1.42740
Nuclear contribution   :     35.08693      14.10740      -1.66774
                        -----------------------------------------
Total Dipole Moment    :      0.83363       3.41702      -0.24034
                        -----------------------------------------
Magnitude (a.u.)       :      3.52544
Magnitude (Debye)      :      8.96096

Rotational constants in cm-1:     0.010393     0.002937     0.002526
Rotational constants in MHz :   311.576163    88.055641    75.728776

                             ****ORCA TERMINATED NORMALLY****
TOTAL RUN TIME: 0 days 3 hours 4 minutes 20 seconds 820 msec
