                         Program Version 4.2.1 -  RELEASE  -
|  1> %pal
|  2>  nprocs 32
|  3> end
|  4> !RI-MP2 aug-cc-pVTZ aug-cc-pVTZ/C TightSCF
|  5> %maxcore 4500
|  6> *xyzfile 0 1  02_26P.xyz
|  7>
|  8>
|  9>                          ****END OF INPUT****

CARTESIAN COORDINATES (ANGSTROEM)
---------------------------------
  C      1.297458    0.856202   -0.138823
  C     -0.962722   -0.056831   -0.878462
  C     -1.243850    1.478266   -0.922559
  C     -0.638810    2.232618    0.232631
  C      0.607957    1.954781    0.605537
  C      2.640058    0.295222    0.326550
  C      2.694647   -1.126231   -0.300634
  C      1.312939   -1.358019   -0.958045
  H      3.475757    0.922633    0.013416
  H      2.886205   -1.874682    0.470177
  H      1.347160   -1.089121   -2.017696
  H      2.677883    0.237530    1.416923
  H      3.499337   -1.218967   -1.030965
  H      0.983519   -2.397389   -0.897084
  C      0.044029   -0.943301    1.208729
  H      0.540169   -0.367447    1.989463
  H      0.403675   -1.970279    1.296553
  C     -1.476354   -0.903793    1.374639
  H     -1.913122   -1.781206    1.850582
  C      0.386434   -0.388825   -0.218018
  C     -2.027115   -0.715721   -0.018993
  O     -3.131716   -1.014896   -0.392376
  H     -1.787466   -0.026730    1.952126
  H     -1.221070    3.005021    0.722372
  H      1.097971    2.481045    1.417848
  H      1.429038    1.192976   -1.177665
  H     -1.046030   -0.450040   -1.892862
  H     -0.808205    1.862749   -1.851645
  H     -2.319119    1.646857   -0.997860

 Total Charge           Charge          ....    0
 Multiplicity           Mult            ....    1
 Number of Electrons    NEL             ....   96
 Basis Dimension        Dim             ....  966

ORBITAL ENERGIES
----------------

  NO   OCC          E(Eh)            E(eV)
   0   2.0000     -20.538857      -558.8907
   1   2.0000     -11.317641      -307.9687
   2   2.0000     -11.238967      -305.8278
   3   2.0000     -11.238035      -305.8025
   4   2.0000     -11.234841      -305.7156
   5   2.0000     -11.230945      -305.6096
   6   2.0000     -11.230548      -305.5987
   7   2.0000     -11.228473      -305.5423
   8   2.0000     -11.228363      -305.5393
   9   2.0000     -11.227632      -305.5194
  10   2.0000     -11.225293      -305.4558
  11   2.0000     -11.224654      -305.4384
  12   2.0000     -11.223629      -305.4105
  13   2.0000      -1.383752       -37.6538
  14   2.0000      -1.179009       -32.0825
  15   2.0000      -1.091542       -29.7024
  16   2.0000      -1.082373       -29.4529
  17   2.0000      -1.014142       -27.5962
  18   2.0000      -0.966698       -26.3052
  19   2.0000      -0.957366       -26.0512
  20   2.0000      -0.896991       -24.4084
  21   2.0000      -0.855377       -23.2760
  22   2.0000      -0.794187       -21.6109
  23   2.0000      -0.772801       -21.0290
  24   2.0000      -0.730846       -19.8873
  25   2.0000      -0.701201       -19.0806
  26   2.0000      -0.674051       -18.3419
  27   2.0000      -0.661849       -18.0098
  28   2.0000      -0.650765       -17.7082
  29   2.0000      -0.631855       -17.1937
  30   2.0000      -0.612034       -16.6543
  31   2.0000      -0.590074       -16.0567
  32   2.0000      -0.587604       -15.9895
  33   2.0000      -0.581762       -15.8305
  34   2.0000      -0.552865       -15.0442
  35   2.0000      -0.544905       -14.8276
  36   2.0000      -0.533697       -14.5226
  37   2.0000      -0.519807       -14.1447
  38   2.0000      -0.514574       -14.0023
  39   2.0000      -0.485609       -13.2141
  40   2.0000      -0.476268       -12.9599
  41   2.0000      -0.471396       -12.8273
  42   2.0000      -0.467145       -12.7117
  43   2.0000      -0.457402       -12.4465
  44   2.0000      -0.448390       -12.2013
  45   2.0000      -0.430031       -11.7017
  46   2.0000      -0.387782       -10.5521
  47   2.0000      -0.352035        -9.5794
  48   0.0000       0.024837         0.6758
  49   0.0000       0.030263         0.8235
  50   0.0000       0.030997         0.8435
  51   0.0000       0.034814         0.9473
  52   0.0000       0.043999         1.1973

MULLIKEN ATOMIC CHARGES
-----------------------
   0 C :    0.169534
   1 C :   -0.243159
   2 C :   -0.186329
   3 C :   -0.739416
   4 C :   -1.138930
   5 C :   -0.829258
   6 C :   -0.664279
   7 C :   -1.169295
   8 H :    0.298661
   9 H :    0.182449
  10 H :    0.172524
  11 H :    0.113930
  12 H :    0.306127
  13 H :    0.371805
  14 C :   -0.738158
  15 H :    0.322984
  16 H :    0.122801
  17 C :   -0.554658
  18 H :    0.328079
  19 C :    2.030924
  20 C :    1.020650
  21 O :   -1.201848
  22 H :    0.207919
  23 H :    0.570041
  24 H :    0.345730
  25 H :    0.415728
  26 H :    0.198413
  27 H :    0.142703
  28 H :    0.144331
Sum of atomic charges:    0.0000000

LOEWDIN ATOMIC CHARGES
----------------------
   0 C :   -0.029471
   1 C :    0.057786
   2 C :    0.309343
   3 C :    0.249690
   4 C :    0.256555
   5 C :    0.337754
   6 C :    0.344753
   7 C :    0.327241
   8 H :   -0.136073
   9 H :   -0.145900
  10 H :   -0.134798
  11 H :   -0.148273
  12 H :   -0.144481
  13 H :   -0.131373
  14 C :    0.339847
  15 H :   -0.148957
  16 H :   -0.142185
  17 C :    0.335994
  18 H :   -0.141025
  19 C :   -0.243478
  20 C :   -0.489268
  21 O :    0.478629
  22 H :   -0.137930
  23 H :   -0.171690
  24 H :   -0.160749
  25 H :   -0.119701
  26 H :   -0.125271
  27 H :   -0.139137
  28 H :   -0.147834

  Mayer bond orders larger than 0.100000
B(  0-C ,  3-C ) :   0.1069 B(  0-C ,  4-C ) :   0.5601 B(  0-C ,  5-C ) :   0.7901
B(  0-C ,  6-C ) :   0.1572 B(  0-C ,  7-C ) :   0.2557 B(  0-C , 19-C ) :   0.9502
B(  0-C , 25-H ) :   0.9337 B(  1-C ,  2-C ) :   0.7832 B(  1-C ,  3-C ) :   0.2151
B(  1-C ,  4-C ) :  -0.1060 B(  1-C ,  7-C ) :  -0.2316 B(  1-C , 14-C ) :   0.1280
B(  1-C , 19-C ) :   0.7906 B(  1-C , 20-C ) :   0.9359 B(  1-C , 26-H ) :   0.9434
B(  2-C ,  3-C ) :   0.6715 B(  2-C , 19-C ) :   0.1368 B(  2-C , 21-O ) :   0.1030
B(  2-C , 27-H ) :   1.1560 B(  2-C , 28-H ) :   0.9902 B(  3-C ,  4-C ) :   1.6366
B(  3-C , 19-C ) :   0.1511 B(  3-C , 23-H ) :   0.5287 B(  4-C ,  5-C ) :  -0.1268
B(  4-C , 14-C ) :  -0.1106 B(  4-C , 19-C ) :   0.4238 B(  4-C , 24-H ) :   1.0059
B(  5-C ,  6-C ) :   1.1121 B(  5-C ,  7-C ) :   0.3274 B(  5-C ,  8-H ) :   0.8837
B(  5-C , 11-H ) :   1.2650 B(  5-C , 19-C ) :  -0.4373 B(  6-C ,  7-C ) :   1.2650
B(  6-C ,  9-H ) :   1.0845 B(  6-C , 12-H ) :   0.8905 B(  6-C , 19-C ) :  -0.4780
B(  7-C ,  9-H ) :   0.1404 B(  7-C , 10-H ) :   1.1423 B(  7-C , 13-H ) :   0.9265
B( 10-H , 19-C ) :  -0.1343 B( 14-C , 15-H ) :   1.0381 B( 14-C , 16-H ) :   1.0320
B( 14-C , 17-C ) :   1.0717 B( 14-C , 19-C ) :   0.3963 B( 14-C , 20-C ) :   0.1046
B( 17-C , 18-H ) :   0.8757 B( 17-C , 19-C ) :  -0.1085 B( 17-C , 20-C ) :   0.8959
B( 17-C , 22-H ) :   1.0688 B( 19-C , 21-O ) :   0.1309 B( 20-C , 21-O ) :   0.2890
B( 21-O , 26-H ) :   0.1316

MP2 TOTAL ENERGY:     -541.015197980 Eh
FINAL SINGLE POINT ENERGY      -541.015197979685

DIPOLE MOMENT
-------------
                                X             Y             Z
Electronic contribution:     -8.04643       0.20723      -0.97738
Nuclear contribution   :      9.40691       0.16055       1.28629
                        -----------------------------------------
Total Dipole Moment    :      1.36048       0.36778       0.30891
                        -----------------------------------------
Magnitude (a.u.)       :      1.44277
Magnitude (Debye)      :      3.66724

Rotational constants in cm-1:     0.044151     0.025461     0.020694
Rotational constants in MHz :  1323.611745   763.315956   620.393243

                             ****ORCA TERMINATED NORMALLY****
TOTAL RUN TIME: 0 days 0 hours 20 minutes 57 seconds 253 msec
