                         Program Version 4.2.1 -  RELEASE  -
|  1> %pal
|  2>  nprocs 32
|  3> end
|  4> !RI-MP2 aug-cc-pVTZ aug-cc-pVTZ/C TightSCF
|  5> %maxcore 4500
|  6> *xyzfile 0 1  06_10R1.xyz
|  7>
|  8>
|  9>                          ****END OF INPUT****

CARTESIAN COORDINATES (ANGSTROEM)
---------------------------------
  C      1.853657    0.133499    0.000001
  C      0.860877    0.979882    0.000005
  H      1.037810    2.048773    0.000005
  C      2.847403   -0.695407    0.000003
  C     -0.563828    0.585194    0.000012
  O     -1.470734    1.377616    0.000004
  O     -0.740395   -0.742194   -0.000004
  C     -2.099080   -1.186132   -0.000015
  H     -2.618120   -0.824605   -0.887606
  H     -2.051199   -2.271719   -0.000021
  H     -2.618130   -0.824615    0.887575
  H      3.272240   -1.056720   -0.929542
  H      3.272251   -1.056705    0.929549

 Total Charge           Charge          ....    0
 Multiplicity           Mult            ....    1
 Number of Electrons    NEL             ....   52
 Basis Dimension        Dim             ....  460

ORBITAL ENERGIES
----------------

  NO   OCC          E(Eh)            E(eV)
   0   2.0000     -20.602964      -560.6352
   1   2.0000     -20.542578      -558.9920
   2   2.0000     -11.383444      -309.7593
   3   2.0000     -11.287177      -307.1397
   4   2.0000     -11.284613      -307.0699
   5   2.0000     -11.257000      -306.3186
   6   2.0000     -11.255286      -306.2719
   7   2.0000      -1.464754       -39.8580
   8   2.0000      -1.360918       -37.0325
   9   2.0000      -1.110669       -30.2229
  10   2.0000      -1.016381       -27.6571
  11   2.0000      -0.956948       -26.0399
  12   2.0000      -0.808401       -21.9977
  13   2.0000      -0.755772       -20.5656
  14   2.0000      -0.690786       -18.7972
  15   2.0000      -0.681456       -18.5434
  16   2.0000      -0.674355       -18.3501
  17   2.0000      -0.634505       -17.2658
  18   2.0000      -0.629187       -17.1210
  19   2.0000      -0.584624       -15.9084
  20   2.0000      -0.555359       -15.1121
  21   2.0000      -0.529795       -14.4164
  22   2.0000      -0.467329       -12.7167
  23   2.0000      -0.463620       -12.6158
  24   2.0000      -0.399909       -10.8821
  25   2.0000      -0.395841       -10.7714
  26   0.0000       0.025863         0.7038
  27   0.0000       0.034760         0.9459
  28   0.0000       0.039785         1.0826
  29   0.0000       0.039877         1.0851
  30   0.0000       0.053449         1.4544

MULLIKEN ATOMIC CHARGES
-----------------------
   0 C :    0.990588
   1 C :   -0.458947
   2 H :    0.293226
   3 C :   -1.097697
   4 C :    0.395061
   5 O :   -0.826102
   6 O :   -0.351793
   7 C :   -0.746461
   8 H :    0.353902
   9 H :    0.337764
  10 H :    0.353903
  11 H :    0.378278
  12 H :    0.378278
Sum of atomic charges:   -0.0000000

LOEWDIN ATOMIC CHARGES
----------------------
   0 C :    0.115772
   1 C :    0.144580
   2 H :   -0.217194
   3 C :    0.500693
   4 C :   -0.894316
   5 O :    0.450769
   6 O :    0.552807
   7 C :    0.353463
   8 H :   -0.180176
   9 H :   -0.185904
  10 H :   -0.180176
  11 H :   -0.230160
  12 H :   -0.230159

  Mayer bond orders larger than 0.100000
B(  0-C ,  1-C ) :   1.4381 B(  0-C ,  3-C ) :   1.5407 B(  1-C ,  2-H ) :   1.0314
B(  1-C ,  3-C ) :  -0.3401 B(  1-C ,  4-C ) :   1.1468 B(  1-C ,  5-O ) :  -0.1638
B(  3-C , 11-H ) :   0.9279 B(  3-C , 12-H ) :   0.9279 B(  4-C ,  5-O ) :   1.4907
B(  4-C ,  6-O ) :   0.9962 B(  6-O ,  7-C ) :   0.8434 B(  7-C ,  8-H ) :   0.8872
B(  7-C ,  9-H ) :   0.9030 B(  7-C , 10-H ) :   0.8872

MP2 TOTAL ENERGY:     -343.912383796 Eh
FINAL SINGLE POINT ENERGY      -343.912383795619

DIPOLE MOMENT
-------------
                                X             Y             Z
Electronic contribution:      0.45883       3.03530       0.00004
Nuclear contribution   :      0.25883      -3.95769      -0.00004
                        -----------------------------------------
Total Dipole Moment    :      0.71766      -0.92239       0.00000
                        -----------------------------------------
Magnitude (a.u.)       :      1.16869
Magnitude (Debye)      :      2.97058

Rotational constants in cm-1:     0.179560     0.057768     0.044474
Rotational constants in MHz :  5383.080851  1731.826536  1333.309582

                             ****ORCA TERMINATED NORMALLY****
TOTAL RUN TIME: 0 days 0 hours 1 minutes 23 seconds 695 msec
