                         Program Version 4.2.1 -  RELEASE  -
|  1> %pal
|  2>  nprocs 32
|  3> end
|  4> !RI-MP2 aug-cc-pVTZ aug-cc-pVTZ/C TightSCF
|  5> %maxcore 4500
|  6> *xyzfile 0 1  03_38R1.xyz
|  7>
|  8>
|  9>                          ****END OF INPUT****

CARTESIAN COORDINATES (ANGSTROEM)
---------------------------------
  Cl     2.081345    2.181418   -0.073890
  C      1.574669    0.460567   -0.485420
  C      0.110869    0.277855   -0.206298
  C      2.454567   -0.487724    0.255854
  C     -0.752489   -0.062640   -1.232911
  C     -0.410558    0.408798    1.083319
  C      3.326066   -1.289305   -0.340117
  C     -2.107783   -0.282725   -1.001269
  C     -2.608023   -0.153527    0.287065
  C     -1.748507    0.196684    1.330576
  H      0.239895    0.699984    1.899427
  H     -2.750430   -0.546933   -1.828746
  O     -3.907666   -0.341704    0.629412
  H     -2.161427    0.301208    2.325677
  H     -0.370784   -0.163228   -2.242858
  C     -4.825300   -0.687139   -0.387675
  H     -5.792299   -0.785377    0.100071
  H     -4.558723   -1.638706   -0.857733
  H     -4.883383    0.093065   -1.152698
  C      4.205546   -2.271491    0.363264
  H      5.260276   -2.057250    0.169214
  H      4.017277   -3.289086    0.009644
  H      4.044932   -2.249286    1.442100
  H      3.422308   -1.241089   -1.423195
  H      2.338851   -0.508409    1.335805
  H      1.757631    0.378518   -1.554213

 Total Charge           Charge          ....    0
 Multiplicity           Mult            ....    1
 Number of Electrons    NEL             ....  104
 Basis Dimension        Dim             ....  901

ORBITAL ENERGIES
----------------

  NO   OCC          E(Eh)            E(eV)
   0   2.0000    -104.811664     -2852.0704
   1   2.0000     -20.589362      -560.2650
   2   2.0000     -11.304733      -307.6174
   3   2.0000     -11.303781      -307.5915
   4   2.0000     -11.287559      -307.1501
   5   2.0000     -11.244710      -305.9841
   6   2.0000     -11.241714      -305.9026
   7   2.0000     -11.240913      -305.8808
   8   2.0000     -11.239811      -305.8508
   9   2.0000     -11.235125      -305.7233
  10   2.0000     -11.233928      -305.6907
  11   2.0000     -11.230774      -305.6049
  12   2.0000     -11.227648      -305.5198
  13   2.0000     -10.535891      -286.6962
  14   2.0000      -8.002547      -217.7604
  15   2.0000      -8.000861      -217.7145
  16   2.0000      -8.000853      -217.7143
  17   2.0000      -1.417944       -38.5842
  18   2.0000      -1.175092       -31.9759
  19   2.0000      -1.130053       -30.7503
  20   2.0000      -1.071304       -29.1517
  21   2.0000      -1.034492       -28.1500
  22   2.0000      -1.024617       -27.8812
  23   2.0000      -0.973440       -26.4886
  24   2.0000      -0.946184       -25.7470
  25   2.0000      -0.872694       -23.7472
  26   2.0000      -0.845754       -23.0141
  27   2.0000      -0.797368       -21.6975
  28   2.0000      -0.764988       -20.8164
  29   2.0000      -0.725333       -19.7373
  30   2.0000      -0.681422       -18.5424
  31   2.0000      -0.663393       -18.0518
  32   2.0000      -0.661071       -17.9887
  33   2.0000      -0.634240       -17.2585
  34   2.0000      -0.627207       -17.0672
  35   2.0000      -0.598180       -16.2773
  36   2.0000      -0.591364       -16.0918
  37   2.0000      -0.583228       -15.8705
  38   2.0000      -0.574510       -15.6332
  39   2.0000      -0.545376       -14.8404
  40   2.0000      -0.543684       -14.7944
  41   2.0000      -0.533254       -14.5106
  42   2.0000      -0.524690       -14.2775
  43   2.0000      -0.519298       -14.1308
  44   2.0000      -0.506464       -13.7816
  45   2.0000      -0.486150       -13.2288
  46   2.0000      -0.467602       -12.7241
  47   2.0000      -0.428919       -11.6715
  48   2.0000      -0.427884       -11.6433
  49   2.0000      -0.362502        -9.8642
  50   2.0000      -0.347281        -9.4500
  51   2.0000      -0.311963        -8.4890
  52   0.0000       0.024427         0.6647
  53   0.0000       0.028925         0.7871
  54   0.0000       0.031861         0.8670
  55   0.0000       0.039556         1.0764
  56   0.0000       0.041704         1.1348

MULLIKEN ATOMIC CHARGES
-----------------------
   0 Cl:   -0.469171
   1 C :    0.374196
   2 C :    1.136384
   3 C :   -0.082417
   4 C :   -1.179798
   5 C :   -0.215423
   6 C :   -0.649707
   7 C :   -0.431380
   8 C :    1.337720
   9 C :   -1.126744
  10 H :    0.346992
  11 H :    0.331620
  12 O :   -0.855059
  13 H :    0.498948
  14 H :   -0.113848
  15 C :   -0.902568
  16 H :    0.375329
  17 H :    0.362122
  18 H :    0.365176
  19 C :   -0.833626
  20 H :    0.292457
  21 H :    0.278498
  22 H :    0.287339
  23 H :    0.265739
  24 H :    0.225141
  25 H :    0.382081
Sum of atomic charges:    0.0000000

LOEWDIN ATOMIC CHARGES
----------------------
   0 Cl:    0.906183
   1 C :   -0.562609
   2 C :   -0.208125
   3 C :    0.120705
   4 C :    0.212492
   5 C :    0.185571
   6 C :    0.209502
   7 C :    0.217718
   8 C :   -0.384565
   9 C :    0.224362
  10 H :   -0.178417
  11 H :   -0.204337
  12 O :    0.575862
  13 H :   -0.176962
  14 H :   -0.170149
  15 C :    0.337733
  16 H :   -0.179295
  17 H :   -0.172897
  18 H :   -0.172500
  19 C :    0.560005
  20 H :   -0.174456
  21 H :   -0.175020
  22 H :   -0.180014
  23 H :   -0.176760
  24 H :   -0.186966
  25 H :   -0.247061

  Mayer bond orders larger than 0.100000
B(  0-Cl,  1-C ) :   0.5695 B(  0-Cl,  2-C ) :   0.1615 B(  0-Cl, 25-H ) :  -0.1928
B(  1-C ,  2-C ) :   0.8689 B(  1-C ,  3-C ) :   0.9185 B(  1-C ,  4-C ) :   0.1300
B(  1-C ,  5-C ) :   0.1402 B(  1-C , 25-H ) :   0.9859 B(  2-C ,  3-C ) :   0.3283
B(  2-C ,  4-C ) :  -0.1608 B(  2-C ,  5-C ) :   0.6588 B(  2-C ,  7-C ) :   0.3844
B(  2-C ,  9-C ) :   0.1528 B(  2-C , 10-H ) :  -0.1282 B(  2-C , 14-H ) :  -0.4299
B(  3-C ,  5-C ) :  -0.1356 B(  3-C ,  6-C ) :   0.8726 B(  3-C , 24-H ) :   1.0229
B(  4-C ,  5-C ) :  -0.3938 B(  4-C ,  7-C ) :   0.9776 B(  4-C ,  8-C ) :  -0.1605
B(  4-C , 10-H ) :   0.1749 B(  4-C , 11-H ) :  -0.2102 B(  4-C , 14-H ) :   2.0844
B(  4-C , 25-H ) :  -0.1656 B(  5-C ,  7-C ) :  -0.2337 B(  5-C ,  8-C ) :  -0.2474
B(  5-C ,  9-C ) :   1.2929 B(  5-C , 10-H ) :   1.0162 B(  5-C , 14-H ) :   0.1146
B(  6-C , 19-C ) :   0.7602 B(  6-C , 23-H ) :   1.1338 B(  7-C ,  8-C ) :   1.2145
B(  7-C ,  9-C ) :   0.3176 B(  7-C , 11-H ) :   0.9623 B(  7-C , 12-O ) :  -0.2897
B(  7-C , 14-H ) :  -0.2424 B(  8-C ,  9-C ) :   0.7955 B(  8-C , 11-H ) :   0.1342
B(  8-C , 12-O ) :   0.3617 B(  9-C , 12-O ) :   0.2495 B(  9-C , 13-H ) :   0.6505
B( 10-H , 14-H ) :   0.1016 B( 11-H , 15-C ) :  -0.1114 B( 12-O , 15-C ) :   1.0205
B( 14-H , 25-H ) :  -0.1058 B( 15-C , 16-H ) :   0.9247 B( 15-C , 17-H ) :   0.8806
B( 15-C , 18-H ) :   0.8862 B( 19-C , 20-H ) :   0.9835 B( 19-C , 21-H ) :   0.9836
B( 19-C , 22-H ) :   0.9332

MP2 TOTAL ENERGY:     -960.892918763 Eh
FINAL SINGLE POINT ENERGY      -960.892918762754

DIPOLE MOMENT
-------------
                                X             Y             Z
Electronic contribution:      1.99365      12.90510       1.07758
Nuclear contribution   :     -2.45808     -14.03529      -1.65040
                        -----------------------------------------
Total Dipole Moment    :     -0.46444      -1.13019      -0.57282
                        -----------------------------------------
Magnitude (a.u.)       :      1.34950
Magnitude (Debye)      :      3.43015

Rotational constants in cm-1:     0.041840     0.010609     0.009513
Rotational constants in MHz :  1254.344409   318.037439   285.198508

                             ****ORCA TERMINATED NORMALLY****
TOTAL RUN TIME: 0 days 0 hours 11 minutes 54 seconds 484 msec
