                         Program Version 4.2.1 -  RELEASE  -
|  1> %pal
|  2>  nprocs 32
|  3> end
|  4> !RI-MP2 aug-cc-pVTZ aug-cc-pVTZ/C TightSCF
|  5> %maxcore 4500
|  6> *xyzfile 0 1  10_48P.xyz
|  7>
|  8>
|  9>                          ****END OF INPUT****

CARTESIAN COORDINATES (ANGSTROEM)
---------------------------------
  C      2.890504    0.290101   -0.237477
  C      2.016332    1.099158    0.745281
  C      0.589101    0.824801    0.385144
  C      0.170435   -0.593242    0.266321
  C      0.986000   -1.335543   -0.757088
  C      2.465494   -1.179834   -0.363140
  H      2.225012    0.769869    1.769026
  H      2.258140    2.162655    0.677614
  H      2.819897    0.763180   -1.223001
  H      3.939269    0.345893    0.066464
  H      0.713890   -2.391935   -0.802345
  H      0.844302   -0.911519   -1.761523
  H      2.626986   -1.688015    0.593602
  H      3.102925   -1.677641   -1.099117
  C     -2.601883    0.259645   -0.665209
  C     -1.466302    1.235848   -1.091061
  C     -1.072436   -0.857161    0.694879
  C     -2.168425   -1.182573   -0.252297
  H     -3.290424    0.189245   -1.512348
  H     -1.970585    2.153335   -1.403412
  H     -1.022136    0.828071   -2.009574
  H     -3.013563   -1.720990    0.181190
  H     -1.788948   -1.733471   -1.113494
  H     -3.159531    0.693942    0.164794
  O     -1.584363   -0.251337    1.810304
  H     -0.868301    0.193418    2.277485
  C     -0.264757    1.658921   -0.224155
  H     -0.006420    2.713946   -0.294978

 Total Charge           Charge          ....    0
 Multiplicity           Mult            ....    1
 Number of Electrons    NEL             ....   90
 Basis Dimension        Dim             ....  920

ORBITAL ENERGIES
----------------

  NO   OCC          E(Eh)            E(eV)
   0   2.0000     -20.571334      -559.7745
   1   2.0000     -11.287378      -307.1452
   2   2.0000     -11.231563      -305.6264
   3   2.0000     -11.230041      -305.5850
   4   2.0000     -11.227766      -305.5230
   5   2.0000     -11.227437      -305.5141
   6   2.0000     -11.224297      -305.4287
   7   2.0000     -11.222264      -305.3733
   8   2.0000     -11.221155      -305.3432
   9   2.0000     -11.220372      -305.3218
  10   2.0000     -11.217911      -305.2549
  11   2.0000     -11.200667      -304.7857
  12   2.0000      -1.392384       -37.8887
  13   2.0000      -1.143535       -31.1172
  14   2.0000      -1.081430       -29.4272
  15   2.0000      -1.041573       -28.3426
  16   2.0000      -1.016654       -27.6646
  17   2.0000      -0.985412       -26.8144
  18   2.0000      -0.884684       -24.0735
  19   2.0000      -0.880801       -23.9678
  20   2.0000      -0.828918       -22.5560
  21   2.0000      -0.787127       -21.4188
  22   2.0000      -0.759433       -20.6652
  23   2.0000      -0.725181       -19.7332
  24   2.0000      -0.662966       -18.0402
  25   2.0000      -0.645976       -17.5779
  26   2.0000      -0.622545       -16.9403
  27   2.0000      -0.617184       -16.7944
  28   2.0000      -0.598302       -16.2806
  29   2.0000      -0.586583       -15.9617
  30   2.0000      -0.581844       -15.8328
  31   2.0000      -0.556023       -15.1302
  32   2.0000      -0.548638       -14.9292
  33   2.0000      -0.541037       -14.7224
  34   2.0000      -0.531346       -14.4587
  35   2.0000      -0.516002       -14.0411
  36   2.0000      -0.503904       -13.7119
  37   2.0000      -0.485318       -13.2062
  38   2.0000      -0.473070       -12.8729
  39   2.0000      -0.472235       -12.8502
  40   2.0000      -0.465968       -12.6796
  41   2.0000      -0.456303       -12.4166
  42   2.0000      -0.435071       -11.8389
  43   2.0000      -0.343414        -9.3448
  44   2.0000      -0.282966        -7.6999
  45   0.0000       0.027586         0.7506
  46   0.0000       0.031209         0.8492
  47   0.0000       0.032503         0.8844
  48   0.0000       0.035947         0.9782
  49   0.0000       0.043865         1.1936

MULLIKEN ATOMIC CHARGES
-----------------------
   0 C :   -0.515850
   1 C :   -0.475356
   2 C :    0.559548
   3 C :    0.984929
   4 C :   -0.520979
   5 C :   -0.602205
   6 H :    0.189238
   7 H :    0.325309
   8 H :    0.163844
   9 H :    0.334686
  10 H :    0.351842
  11 H :    0.234522
  12 H :    0.165214
  13 H :    0.312029
  14 C :   -0.483452
  15 C :   -0.005087
  16 C :   -0.436279
  17 C :   -0.498740
  18 H :    0.324686
  19 H :    0.267796
  20 H :    0.230257
  21 H :    0.383285
  22 H :    0.155153
  23 H :    0.186901
  24 O :   -0.899430
  25 H :    0.190303
  26 C :   -0.999181
  27 H :    0.077016
Sum of atomic charges:   -0.0000000

LOEWDIN ATOMIC CHARGES
----------------------
   0 C :    0.300301
   1 C :    0.295837
   2 C :   -0.122895
   3 C :   -0.103676
   4 C :    0.281603
   5 C :    0.297777
   6 H :   -0.143350
   7 H :   -0.147675
   8 H :   -0.140409
   9 H :   -0.141998
  10 H :   -0.143474
  11 H :   -0.137501
  12 H :   -0.140269
  13 H :   -0.141822
  14 C :    0.312045
  15 C :    0.313745
  16 C :   -0.335820
  17 C :    0.307701
  18 H :   -0.145160
  19 H :   -0.163793
  20 H :   -0.151440
  21 H :   -0.142348
  22 H :   -0.150761
  23 H :   -0.160408
  24 O :    0.866813
  25 H :   -0.476632
  26 C :    0.289205
  27 H :   -0.175597

  Mayer bond orders larger than 0.100000
B(  0-C ,  1-C ) :   0.9954 B(  0-C ,  5-C ) :   0.8636 B(  0-C ,  8-H ) :   1.0616
B(  0-C ,  9-H ) :   0.8753 B(  1-C ,  2-C ) :   0.7401 B(  1-C ,  6-H ) :   1.0962
B(  1-C ,  7-H ) :   0.9219 B(  1-C , 26-C ) :  -0.2019 B(  2-C ,  3-C ) :   0.7611
B(  2-C , 15-C ) :   0.1379 B(  2-C , 24-O ) :  -0.1732 B(  2-C , 26-C ) :   1.4046
B(  2-C , 27-H ) :  -0.1600 B(  3-C ,  4-C ) :   0.6079 B(  3-C , 15-C ) :  -0.1380
B(  3-C , 16-C ) :   1.0730 B(  3-C , 17-C ) :  -0.1291 B(  3-C , 26-C ) :  -0.1093
B(  4-C ,  5-C ) :   1.0415 B(  4-C , 10-H ) :   0.9379 B(  4-C , 11-H ) :   1.0097
B(  4-C , 16-C ) :  -0.1518 B(  5-C , 12-H ) :   1.0837 B(  5-C , 13-H ) :   0.8978
B( 14-C , 15-C ) :   0.8823 B( 14-C , 17-C ) :   0.9818 B( 14-C , 18-H ) :   0.8614
B( 14-C , 23-H ) :   1.0322 B( 15-C , 19-H ) :   0.9440 B( 15-C , 20-H ) :   0.9786
B( 15-C , 26-C ) :   0.4441 B( 16-C , 17-C ) :   1.0228 B( 16-C , 21-H ) :  -0.1166
B( 16-C , 22-H ) :   0.1030 B( 16-C , 24-O ) :   0.2392 B( 16-C , 25-H ) :   0.1369
B( 16-C , 26-C ) :   0.1684 B( 16-C , 27-H ) :   0.1053 B( 17-C , 21-H ) :   0.8537
B( 17-C , 22-H ) :   1.0643 B( 19-H , 26-C ) :  -0.1162 B( 24-O , 25-H ) :   1.0351
B( 24-O , 26-C ) :   0.1313 B( 26-C , 27-H ) :   1.2243

MP2 TOTAL ENERGY:     -502.929676609 Eh
FINAL SINGLE POINT ENERGY      -502.929676609437

DIPOLE MOMENT
-------------
                                X             Y             Z
Electronic contribution:     -3.22109      -0.53048       5.18135
Nuclear contribution   :      3.48404       0.70598      -5.61996
                        -----------------------------------------
Total Dipole Moment    :      0.26295       0.17550      -0.43861
                        -----------------------------------------
Magnitude (a.u.)       :      0.54067
Magnitude (Debye)      :      1.37427

Rotational constants in cm-1:     0.055194     0.025147     0.023082
Rotational constants in MHz :  1654.661115   753.891758   691.979145

                             ****ORCA TERMINATED NORMALLY****
TOTAL RUN TIME: 0 days 0 hours 15 minutes 27 seconds 513 msec
