                         Program Version 4.2.1 -  RELEASE  -
|  1> %pal
|  2>  nprocs 32
|  3> end
|  4> !RI-MP2 aug-cc-pVTZ aug-cc-pVTZ/C TightSCF
|  5> %maxcore 4500
|  6> *xyzfile 0 1  03_31R1.xyz
|  7>
|  8>
|  9>                          ****END OF INPUT****

CARTESIAN COORDINATES (ANGSTROEM)
---------------------------------
  C      2.830055    0.460317    0.001654
  C      2.401084   -0.620679    0.986220
  C      1.644037    1.159617   -0.652470
  C      1.081757   -1.259530    0.565787
  C     -0.051925   -0.219787    0.616931
  C      0.453282    1.198387    0.300082
  C     -2.749633    0.147323    0.099494
  C     -4.021773   -0.047548   -0.683510
  O     -2.667709    0.867199    1.059890
  H      2.301991   -0.178238    1.982100
  H      3.198848   -1.362619    1.048389
  H      1.378560    0.595952   -1.551389
  H      1.924139    2.161728   -0.979619
  H      0.833518   -2.110565    1.201183
  H      1.196407   -1.652780   -0.448420
  H     -0.521962   -0.218166    1.599303
  H      0.746116    1.679674    1.238659
  H     -0.353931    1.806361   -0.105090
  H     -4.851719   -0.155908    0.014691
  H     -3.974024   -0.909243   -1.348161
  H     -4.196079    0.850406   -1.280496
  S     -1.359809   -0.767533   -0.538000
  F      3.599669   -0.138492   -1.015053
  H      3.498424    1.174172    0.488076

 Total Charge           Charge          ....    0
 Multiplicity           Mult            ....    1
 Number of Electrons    NEL             ....   94
 Basis Dimension        Dim             ....  809

ORBITAL ENERGIES
----------------

  NO   OCC          E(Eh)            E(eV)
   0   2.0000     -91.967898     -2502.5737
   1   2.0000     -26.266998      -714.7613
   2   2.0000     -20.556904      -559.3818
   3   2.0000     -11.364120      -309.2334
   4   2.0000     -11.309939      -307.7591
   5   2.0000     -11.270166      -306.6768
   6   2.0000     -11.246002      -306.0193
   7   2.0000     -11.237215      -305.7802
   8   2.0000     -11.233349      -305.6750
   9   2.0000     -11.233309      -305.6739
  10   2.0000     -11.228588      -305.5454
  11   2.0000      -8.969725      -244.0786
  12   2.0000      -6.650822      -180.9781
  13   2.0000      -6.649686      -180.9472
  14   2.0000      -6.649117      -180.9317
  15   2.0000      -1.574879       -42.8546
  16   2.0000      -1.407683       -38.3050
  17   2.0000      -1.145532       -31.1715
  18   2.0000      -1.063883       -28.9497
  19   2.0000      -1.025362       -27.9015
  20   2.0000      -1.023453       -27.8496
  21   2.0000      -0.949940       -25.8492
  22   2.0000      -0.872903       -23.7529
  23   2.0000      -0.837826       -22.7984
  24   2.0000      -0.755072       -20.5466
  25   2.0000      -0.732437       -19.9306
  26   2.0000      -0.711843       -19.3702
  27   2.0000      -0.678825       -18.4718
  28   2.0000      -0.675755       -18.3882
  29   2.0000      -0.650679       -17.7059
  30   2.0000      -0.638954       -17.3868
  31   2.0000      -0.631740       -17.1905
  32   2.0000      -0.617841       -16.8123
  33   2.0000      -0.596562       -16.2333
  34   2.0000      -0.577220       -15.7070
  35   2.0000      -0.566208       -15.4073
  36   2.0000      -0.548416       -14.9232
  37   2.0000      -0.534931       -14.5562
  38   2.0000      -0.532426       -14.4880
  39   2.0000      -0.523056       -14.2331
  40   2.0000      -0.515817       -14.0361
  41   2.0000      -0.492158       -13.3923
  42   2.0000      -0.468601       -12.7513
  43   2.0000      -0.455477       -12.3941
  44   2.0000      -0.434394       -11.8205
  45   2.0000      -0.408501       -11.1159
  46   2.0000      -0.371476       -10.1084
  47   0.0000       0.027087         0.7371
  48   0.0000       0.029638         0.8065
  49   0.0000       0.032800         0.8925
  50   0.0000       0.040022         1.0891
  51   0.0000       0.044432         1.2091

MULLIKEN ATOMIC CHARGES
-----------------------
   0 C :    0.342962
   1 C :   -0.587705
   2 C :   -0.607467
   3 C :   -0.679577
   4 C :    0.396298
   5 C :   -0.549265
   6 C :    0.640666
   7 C :   -0.777053
   8 O :   -0.875745
   9 H :    0.156197
  10 H :    0.318030
  11 H :    0.130018
  12 H :    0.371906
  13 H :    0.341206
  14 H :    0.179327
  15 H :    0.291763
  16 H :    0.131219
  17 H :    0.336408
  18 H :    0.313457
  19 H :    0.323083
  20 H :    0.302511
  21 S :   -0.244184
  22 F :   -0.644759
  23 H :    0.390705
Sum of atomic charges:   -0.0000000

LOEWDIN ATOMIC CHARGES
----------------------
   0 C :   -0.338142
   1 C :    0.292044
   2 C :    0.286416
   3 C :    0.222593
   4 C :   -0.322350
   5 C :    0.236678
   6 C :   -0.927548
   7 C :    0.502187
   8 O :    0.408233
   9 H :   -0.139063
  10 H :   -0.142637
  11 H :   -0.153097
  12 H :   -0.138014
  13 H :   -0.141912
  14 H :   -0.165405
  15 H :   -0.215845
  16 H :   -0.135185
  17 H :   -0.168602
  18 H :   -0.181298
  19 H :   -0.208506
  20 H :   -0.176916
  21 S :    1.284050
  22 F :    0.465344
  23 H :   -0.143024

  Mayer bond orders larger than 0.100000
B(  0-C ,  1-C ) :   0.9254 B(  0-C ,  2-C ) :   0.9173 B(  0-C , 22-F ) :   0.2590
B(  0-C , 23-H ) :   0.9372 B(  1-C ,  3-C ) :   1.0143 B(  1-C ,  9-H ) :   1.0819
B(  1-C , 10-H ) :   0.8968 B(  1-C , 14-H ) :   0.1086 B(  1-C , 22-F ) :   0.1227
B(  2-C ,  5-C ) :   0.9311 B(  2-C , 11-H ) :   1.1244 B(  2-C , 12-H ) :   0.8317
B(  2-C , 22-F ) :   0.1886 B(  3-C ,  4-C ) :   0.9220 B(  3-C , 13-H ) :   0.9005
B(  3-C , 14-H ) :   1.0847 B(  4-C ,  5-C ) :   0.8836 B(  4-C , 15-H ) :   0.8782
B(  4-C , 21-S ) :   0.8805 B(  5-C , 16-H ) :   1.0787 B(  5-C , 17-H ) :   0.8963
B(  6-C ,  7-C ) :   0.5932 B(  6-C ,  8-O ) :   1.3675 B(  6-C , 21-S ) :   1.0430
B(  7-C , 18-H ) :   0.9603 B(  7-C , 19-H ) :   0.9567 B(  7-C , 20-H ) :   0.9448

MP2 TOTAL ENERGY:     -884.598711346 Eh
FINAL SINGLE POINT ENERGY      -884.598711346498

DIPOLE MOMENT
-------------
                                X             Y             Z
Electronic contribution:      1.98801      -1.87650      -2.75106
Nuclear contribution   :     -2.37871       1.85795       2.89975
                        -----------------------------------------
Total Dipole Moment    :     -0.39070      -0.01854       0.14869
                        -----------------------------------------
Magnitude (a.u.)       :      0.41845
Magnitude (Debye)      :      1.06361

Rotational constants in cm-1:     0.079720     0.015204     0.014925
Rotational constants in MHz :  2389.938237   455.797767   447.428597

                             ****ORCA TERMINATED NORMALLY****
TOTAL RUN TIME: 0 days 0 hours 10 minutes 30 seconds 597 msec
