                         Program Version 4.2.1 -  RELEASE  -
|  1> %pal
|  2>  nprocs 32
|  3> end
|  4> !RI-MP2 aug-cc-pVTZ aug-cc-pVTZ/C TightSCF
|  5> %maxcore 4500
|  6> *xyzfile 1 1  05_18P1.xyz
|  7>
|  8>
|  9>                          ****END OF INPUT****

CARTESIAN COORDINATES (ANGSTROEM)
---------------------------------
  C     -2.798739    1.389427    0.142417
  C     -1.914908    2.464155    0.073062
  C     -0.598455    2.225784   -0.225558
  N     -0.165571    0.968037   -0.441711
  C     -0.994192   -0.072306   -0.386099
  C     -2.336968    0.106527   -0.099241
  C     -3.150534   -1.163236   -0.002555
  O     -2.577874   -2.211533    0.194956
  N     -4.489579   -1.038889   -0.119563
  C      1.317873    0.750315   -0.711236
  C      2.127267    0.870211    0.589194
  C      2.190158   -0.592224    1.036585
  C      2.242264   -1.361577   -0.284073
  O      1.510510   -0.506072   -1.216224
  H      1.598620    1.517023   -1.433993
  C      3.623765   -1.642952   -0.828611
  H      1.664642   -2.285070   -0.205600
  H      3.544423   -2.093541   -1.817767
  H      4.145083   -2.346754   -0.176355
  H      4.211112   -0.728565   -0.905640
  O      0.968406   -0.803619    1.725177
  H      3.057549   -0.792096    1.670195
  O      3.366557    1.409566    0.210447
  H      1.622622    1.475680    1.346118
  H      3.909950    1.580033    0.985991
  H      0.934268   -1.690736    2.096274
  H     -5.037042   -1.886310   -0.079178
  H     -4.934507   -0.211790   -0.479615
  H     -0.578879   -1.050626   -0.567282
  H      0.142437    3.011031   -0.300535
  H     -2.245888    3.477262    0.253777
  H     -3.834321    1.568952    0.404376

 Total Charge           Charge          ....    1
 Multiplicity           Mult            ....    1
 Number of Electrons    NEL             ....  126
 Basis Dimension        Dim             .... 1127

ORBITAL ENERGIES
----------------

  NO   OCC          E(Eh)            E(eV)
   0   2.0000     -20.712422      -563.6137
   1   2.0000     -20.702610      -563.3467
   2   2.0000     -20.697786      -563.2154
   3   2.0000     -20.652356      -561.9792
   4   2.0000     -15.825547      -430.6350
   5   2.0000     -15.713136      -427.5762
   6   2.0000     -11.493642      -312.7579
   7   2.0000     -11.489045      -312.6328
   8   2.0000     -11.474428      -312.2351
   9   2.0000     -11.469361      -312.0972
  10   2.0000     -11.442744      -311.3729
  11   2.0000     -11.435028      -311.1629
  12   2.0000     -11.421491      -310.7946
  13   2.0000     -11.417296      -310.6804
  14   2.0000     -11.416855      -310.6684
  15   2.0000     -11.415373      -310.6281
  16   2.0000     -11.325855      -308.1922
  17   2.0000      -1.569707       -42.7139
  18   2.0000      -1.522863       -41.4392
  19   2.0000      -1.512789       -41.1651
  20   2.0000      -1.502358       -40.8812
  21   2.0000      -1.492352       -40.6090
  22   2.0000      -1.347598       -36.6700
  23   2.0000      -1.290928       -35.1279
  24   2.0000      -1.237450       -33.6727
  25   2.0000      -1.188983       -32.3539
  26   2.0000      -1.175465       -31.9860
  27   2.0000      -1.082063       -29.4444
  28   2.0000      -1.075768       -29.2731
  29   2.0000      -1.035049       -28.1651
  30   2.0000      -0.982115       -26.7247
  31   2.0000      -0.951387       -25.8886
  32   2.0000      -0.947869       -25.7928
  33   2.0000      -0.915884       -24.9225
  34   2.0000      -0.874502       -23.7964
  35   2.0000      -0.871104       -23.7039
  36   2.0000      -0.864869       -23.5343
  37   2.0000      -0.848044       -23.0765
  38   2.0000      -0.827550       -22.5188
  39   2.0000      -0.808784       -22.0081
  40   2.0000      -0.803740       -21.8709
  41   2.0000      -0.789282       -21.4774
  42   2.0000      -0.775943       -21.1145
  43   2.0000      -0.773382       -21.0448
  44   2.0000      -0.754968       -20.5437
  45   2.0000      -0.740234       -20.1428
  46   2.0000      -0.722138       -19.6504
  47   2.0000      -0.714075       -19.4310
  48   2.0000      -0.709866       -19.3164
  49   2.0000      -0.700553       -19.0630
  50   2.0000      -0.694312       -18.8932
  51   2.0000      -0.689875       -18.7724
  52   2.0000      -0.670182       -18.2366
  53   2.0000      -0.648979       -17.6596
  54   2.0000      -0.647736       -17.6258
  55   2.0000      -0.621062       -16.9000
  56   2.0000      -0.603383       -16.4189
  57   2.0000      -0.578361       -15.7380
  58   2.0000      -0.571308       -15.5461
  59   2.0000      -0.568269       -15.4634
  60   2.0000      -0.560809       -15.2604
  61   2.0000      -0.545257       -14.8372
  62   2.0000      -0.524111       -14.2618
  63   0.0000      -0.098861        -2.6901
  64   0.0000      -0.070351        -1.9144
  65   0.0000      -0.061000        -1.6599
  66   0.0000      -0.058671        -1.5965
  67   0.0000      -0.052903        -1.4396

MULLIKEN ATOMIC CHARGES
-----------------------
   0 C :   -0.949890
   1 C :   -0.613450
   2 C :   -0.502701
   3 N :    0.003819
   4 C :   -0.593618
   5 C :    1.562550
   6 C :    0.857056
   7 O :   -0.894219
   8 N :   -0.529474
   9 C :    0.345539
  10 C :    0.476667
  11 C :    0.108203
  12 C :    0.297396
  13 O :   -0.998463
  14 H :    0.395594
  15 C :   -1.100755
  16 H :    0.434078
  17 H :    0.259035
  18 H :    0.264125
  19 H :    0.334572
  20 O :   -0.675887
  21 H :    0.412781
  22 O :   -0.746462
  23 H :    0.441245
  24 H :    0.091106
  25 H :    0.076698
  26 H :    0.172310
  27 H :    0.154188
  28 H :    0.611343
  29 H :    0.561560
  30 H :    0.451032
  31 H :    0.294022
Sum of atomic charges:    1.0000000

LOEWDIN ATOMIC CHARGES
----------------------
   0 C :    0.280156
   1 C :    0.290593
   2 C :    0.200044
   3 N :    0.315827
   4 C :    0.182186
   5 C :   -0.042258
   6 C :   -0.661949
   7 O :    0.477454
   8 N :    0.870885
   9 C :   -0.280409
  10 C :   -0.218457
  11 C :   -0.204291
  12 C :   -0.187662
  13 O :    0.647448
  14 H :   -0.120889
  15 C :    0.621201
  16 H :   -0.129987
  17 H :   -0.153608
  18 H :   -0.153097
  19 H :   -0.171618
  20 O :    0.860065
  21 H :   -0.113653
  22 O :    0.868440
  23 H :   -0.130753
  24 H :   -0.440660
  25 H :   -0.444380
  26 H :   -0.264448
  27 H :   -0.296299
  28 H :   -0.176288
  29 H :   -0.121466
  30 H :   -0.157294
  31 H :   -0.144833

  Mayer bond orders larger than 0.100000
B(  0-C ,  1-C ) :   1.5739 B(  0-C ,  2-C ) :   0.3070 B(  0-C ,  4-C ) :   0.2990
B(  0-C ,  5-C ) :   0.7984 B(  0-C , 31-H ) :   1.0618 B(  1-C ,  2-C ) :   0.7637
B(  1-C ,  3-N ) :  -0.3530 B(  1-C ,  4-C ) :  -0.3098 B(  1-C ,  9-C ) :   0.1050
B(  1-C , 29-H ) :  -0.1513 B(  1-C , 30-H ) :   0.9553 B(  2-C ,  3-N ) :   1.4365
B(  2-C ,  4-C ) :   0.4711 B(  2-C ,  5-C ) :  -0.1649 B(  2-C ,  9-C ) :  -0.2238
B(  2-C , 29-H ) :   0.6728 B(  3-N ,  4-C ) :   1.3578 B(  3-N ,  5-C ) :  -0.3154
B(  3-N ,  9-C ) :   0.8470 B(  3-N , 13-O ) :  -0.2172 B(  4-C ,  5-C ) :   0.2931
B(  4-C ,  9-C ) :  -0.2520 B(  4-C , 28-H ) :   0.6886 B(  4-C , 29-H ) :   0.1229
B(  5-C ,  6-C ) :   0.3402 B(  5-C ,  8-N ) :  -0.1557 B(  5-C , 28-H ) :  -0.1248
B(  6-C ,  7-O ) :   1.1791 B(  6-C ,  8-N ) :   0.8524 B(  8-N , 26-H ) :   1.0154
B(  8-N , 27-H ) :   1.0455 B(  9-C , 10-C ) :   1.0390 B(  9-C , 13-O ) :   0.7109
B(  9-C , 14-H ) :   0.9332 B( 10-C , 11-C ) :   1.0841 B( 10-C , 12-C ) :   0.1002
B( 10-C , 22-O ) :   0.1742 B( 10-C , 23-H ) :   0.8974 B( 11-C , 12-C ) :   1.0918
B( 11-C , 20-O ) :   0.5189 B( 11-C , 21-H ) :   0.7831 B( 11-C , 22-O ) :   0.1419
B( 12-C , 13-O ) :   0.6584 B( 12-C , 15-C ) :   0.6425 B( 12-C , 16-H ) :   0.7520
B( 15-C , 17-H ) :   1.0248 B( 15-C , 18-H ) :   1.0154 B( 15-C , 19-H ) :   0.9589
B( 20-O , 25-H ) :   1.0764 B( 22-O , 24-H ) :   1.1133

MP2 TOTAL ENERGY:     -836.907703457 Eh
FINAL SINGLE POINT ENERGY      -836.907703457283

DIPOLE MOMENT
-------------
                                X             Y             Z
Electronic contribution:     -9.19832       2.42141      -0.33503
Nuclear contribution   :      8.19896      -0.48771       0.79942
                        -----------------------------------------
Total Dipole Moment    :     -0.99936       1.93371       0.46439
                        -----------------------------------------
Magnitude (a.u.)       :      2.22567
Magnitude (Debye)      :      5.65720

Rotational constants in cm-1:     0.028965     0.010590     0.008789
Rotational constants in MHz :   868.334981   317.468128   263.484510

                             ****ORCA TERMINATED NORMALLY****
TOTAL RUN TIME: 0 days 0 hours 31 minutes 45 seconds 870 msec
