                         Program Version 4.2.1 -  RELEASE  -
|  1> %pal
|  2>  nprocs 32
|  3> end
|  4> !RI-MP2 aug-cc-pVTZ aug-cc-pVTZ/C TightSCF
|  5> %maxcore 4500
|  6> *xyzfile 1 1  04_6R1.xyz
|  7>
|  8>
|  9>                          ****END OF INPUT****

CARTESIAN COORDINATES (ANGSTROEM)
---------------------------------
  N     -1.795745    0.030235   -0.000108
  C     -0.598781   -0.862386    0.000062
  H     -2.382667   -0.075673    0.828161
  H     -2.382451   -0.075714   -0.828526
  C      0.592988    0.114957    0.000028
  O      0.329034    1.306170   -0.000046
  N      1.813484   -0.407393    0.000076
  H      2.608595    0.217562    0.000074
  H      1.986514   -1.400688    0.000145
  H     -1.346073    0.994573   -0.000092
  H     -0.602854   -1.492257    0.887992
  H     -0.602756   -1.492486   -0.887706

 Total Charge           Charge          ....    1
 Multiplicity           Mult            ....    1
 Number of Electrons    NEL             ....   40
 Basis Dimension        Dim             ....  391

ORBITAL ENERGIES
----------------

  NO   OCC          E(Eh)            E(eV)
   0   2.0000     -20.719160      -563.7970
   1   2.0000     -15.877413      -432.0464
   2   2.0000     -15.767146      -429.0459
   3   2.0000     -11.551661      -314.3367
   4   2.0000     -11.500911      -312.9557
   5   2.0000      -1.593633       -43.3650
   6   2.0000      -1.494651       -40.6715
   7   2.0000      -1.406151       -38.2633
   8   2.0000      -1.193276       -32.4707
   9   2.0000      -0.995621       -27.0922
  10   2.0000      -0.980361       -26.6770
  11   2.0000      -0.968461       -26.3532
  12   2.0000      -0.908764       -24.7287
  13   2.0000      -0.854270       -23.2459
  14   2.0000      -0.832699       -22.6589
  15   2.0000      -0.814934       -22.1755
  16   2.0000      -0.760629       -20.6978
  17   2.0000      -0.735116       -20.0035
  18   2.0000      -0.636309       -17.3148
  19   2.0000      -0.602616       -16.3980
  20   0.0000      -0.109563        -2.9814
  21   0.0000      -0.084857        -2.3091
  22   0.0000      -0.080844        -2.1999
  23   0.0000      -0.066334        -1.8051
  24   0.0000      -0.051538        -1.4024

MULLIKEN ATOMIC CHARGES
-----------------------
   0 N :    0.064340
   1 C :   -0.144447
   2 H :    0.130903
   3 H :    0.130908
   4 C :    0.464120
   5 O :   -0.669808
   6 N :   -0.283048
   7 H :    0.171695
   8 H :    0.146251
   9 H :    0.282696
  10 H :    0.353197
  11 H :    0.353194
Sum of atomic charges:    1.0000000

LOEWDIN ATOMIC CHARGES
----------------------
   0 N :    1.080261
   1 C :    0.377676
   2 H :   -0.130778
   3 H :   -0.130777
   4 C :   -0.562839
   5 O :    0.562717
   6 N :    0.893574
   7 H :   -0.246232
   8 H :   -0.259480
   9 H :   -0.353034
  10 H :   -0.115544
  11 H :   -0.115544

  Mayer bond orders larger than 0.100000
B(  0-N ,  1-C ) :   0.9005 B(  0-N ,  2-H ) :   1.0196 B(  0-N ,  3-H ) :   1.0196
B(  0-N ,  9-H ) :   0.8670 B(  1-C ,  4-C ) :   0.6913 B(  1-C , 10-H ) :   0.8857
B(  1-C , 11-H ) :   0.8857 B(  4-C ,  5-O ) :   1.4723 B(  4-C ,  6-N ) :   1.0763
B(  5-O ,  9-H ) :   0.1129 B(  6-N ,  7-H ) :   1.0670 B(  6-N ,  8-H ) :   1.0491

MP2 TOTAL ENERGY:     -264.474596130 Eh
FINAL SINGLE POINT ENERGY      -264.474596130415

DIPOLE MOMENT
-------------
                                X             Y             Z
Electronic contribution:      1.15502       1.71777      -0.00006
Nuclear contribution   :     -2.78549      -3.39040       0.00005
                        -----------------------------------------
Total Dipole Moment    :     -1.63047      -1.67264      -0.00001
                        -----------------------------------------
Magnitude (a.u.)       :      2.33584
Magnitude (Debye)      :      5.93724

Rotational constants in cm-1:     0.343633     0.130446     0.097814
Rotational constants in MHz : 10301.845062  3910.671385  2932.402345

                             ****ORCA TERMINATED NORMALLY****
TOTAL RUN TIME: 0 days 0 hours 0 minutes 48 seconds 139 msec
