                         Program Version 4.2.1 -  RELEASE  -
|  1> %pal
|  2>  nprocs 32
|  3> end
|  4> !RI-MP2 aug-cc-pVTZ aug-cc-pVTZ/C TightSCF
|  5> %maxcore 4500
|  6> *xyzfile 1 1  05_13P1.xyz
|  7>
|  8>
|  9>                          ****END OF INPUT****

CARTESIAN COORDINATES (ANGSTROEM)
---------------------------------
  C      1.093647    0.285704    0.279013
  O      0.091707    0.006442   -0.401973
  C     -1.258692    0.594308   -0.121959
  H     -1.490640    1.123617   -1.043535
  H     -1.131481    1.296773    0.702640
  C      2.389663   -0.308373   -0.015364
  H      2.350250   -0.991399   -0.860438
  H      2.750747   -0.815818    0.887820
  C     -2.207965   -0.531300    0.171801
  H     -1.935069   -1.064115    1.083211
  H     -3.202811   -0.104662    0.314573
  H     -2.257680   -1.232834   -0.660545
  H      3.106401    0.502554   -0.196631
  H      0.976713    0.992313    1.107756

 Total Charge           Charge          ....    1
 Multiplicity           Mult            ....    1
 Number of Electrons    NEL             ....   40
 Basis Dimension        Dim             ....  437

ORBITAL ENERGIES
----------------

  NO   OCC          E(Eh)            E(eV)
   0   2.0000     -20.866455      -567.8051
   1   2.0000     -11.600679      -315.6705
   2   2.0000     -11.494038      -312.7687
   3   2.0000     -11.434195      -311.1403
   4   2.0000     -11.386738      -309.8489
   5   2.0000      -1.704826       -46.3907
   6   2.0000      -1.283542       -34.9270
   7   2.0000      -1.211054       -32.9545
   8   2.0000      -1.077989       -29.3336
   9   2.0000      -1.047749       -28.5107
  10   2.0000      -0.932096       -25.3636
  11   2.0000      -0.891130       -24.2489
  12   2.0000      -0.862227       -23.4624
  13   2.0000      -0.796127       -21.6637
  14   2.0000      -0.764724       -20.8092
  15   2.0000      -0.759408       -20.6645
  16   2.0000      -0.739793       -20.1308
  17   2.0000      -0.704017       -19.1573
  18   2.0000      -0.702356       -19.1121
  19   2.0000      -0.681225       -18.5371
  20   0.0000      -0.121659        -3.3105
  21   0.0000      -0.091822        -2.4986
  22   0.0000      -0.071944        -1.9577
  23   0.0000      -0.068310        -1.8588
  24   0.0000      -0.066868        -1.8196

MULLIKEN ATOMIC CHARGES
-----------------------
   0 C :   -0.244822
   1 O :   -0.299622
   2 C :   -0.274383
   3 H :    0.361698
   4 H :    0.345674
   5 C :   -0.620094
   6 H :    0.369762
   7 H :    0.351009
   8 C :   -0.880902
   9 H :    0.293079
  10 H :    0.333673
  11 H :    0.301787
  12 H :    0.360426
  13 H :    0.602714
Sum of atomic charges:    1.0000000

LOEWDIN ATOMIC CHARGES
----------------------
   0 C :    0.097288
   1 O :    0.680224
   2 C :    0.190560
   3 H :   -0.130977
   4 H :   -0.149796
   5 C :    0.670593
   6 H :   -0.144538
   7 H :   -0.138513
   8 C :    0.622110
   9 H :   -0.156968
  10 H :   -0.150197
  11 H :   -0.153830
  12 H :   -0.138120
  13 H :   -0.097836

  Mayer bond orders larger than 0.100000
B(  0-C ,  1-O ) :   1.5293 B(  0-C ,  5-C ) :   0.6898 B(  0-C , 13-H ) :   0.6134
B(  1-O ,  2-C ) :   0.6285 B(  2-C ,  3-H ) :   0.8575 B(  2-C ,  4-H ) :   0.8764
B(  2-C ,  8-C ) :   0.9393 B(  5-C ,  6-H ) :   0.8909 B(  5-C ,  7-H ) :   0.8887
B(  5-C , 12-H ) :   0.8814 B(  8-C ,  9-H ) :   0.9254 B(  8-C , 10-H ) :   0.9073
B(  8-C , 11-H ) :   0.9238

MP2 TOTAL ENERGY:     -232.314892113 Eh
FINAL SINGLE POINT ENERGY      -232.314892113198

DIPOLE MOMENT
-------------
                                X             Y             Z
Electronic contribution:      1.69677       0.89199      -0.83521
Nuclear contribution   :     -0.87635      -0.30907       1.39912
                        -----------------------------------------
Total Dipole Moment    :      0.82041       0.58292       0.56391
                        -----------------------------------------
Magnitude (a.u.)       :      1.15363
Magnitude (Debye)      :      2.93230

Rotational constants in cm-1:     0.591860     0.077518     0.074699
Rotational constants in MHz : 17743.521875  2323.929990  2239.412859

                             ****ORCA TERMINATED NORMALLY****
TOTAL RUN TIME: 0 days 0 hours 1 minutes 0 seconds 452 msec
