                         Program Version 4.2.1 -  RELEASE  -
|  1> %pal
|  2>  nprocs 32
|  3> end
|  4> !RI-MP2 aug-cc-pVTZ aug-cc-pVTZ/C TightSCF
|  5> %maxcore 4500
|  6> *xyzfile -1 1  07_8P1.xyz
|  7>
|  8>
|  9>                          ****END OF INPUT****

CARTESIAN COORDINATES (ANGSTROEM)
---------------------------------
  N     -1.400263   -1.037785    1.106694
  C     -1.746027    0.214197    0.428485
  C     -3.223914    0.192393    0.058168
  O     -3.852416    1.165689   -0.264489
  O     -3.757062   -1.034447    0.080238
  C     -0.899965    0.370466   -0.861540
  H     -1.204579   -0.410297   -1.567122
  H     -1.174126    1.329040   -1.309218
  C      0.572106    0.261779   -0.590701
  C      1.287807   -0.907860   -0.874257
  H      0.777625   -1.720890   -1.390032
  C      2.617597   -1.063575   -0.534396
  H      3.145240   -1.979980   -0.778341
  C      3.365932   -0.037287    0.140833
  C      2.603516    1.158259    0.405895
  H      3.125697    1.972736    0.897920
  C      1.277678    1.286246    0.056648
  H      0.759697    2.216329    0.288088
  O      4.575926   -0.164274    0.467259
  H     -1.574419    1.093221    1.054592
  H     -3.026057   -1.601185    0.426814
  H     -1.449645   -0.937110    2.113373
  H     -0.437555   -1.280820    0.878187

 Total Charge           Charge          ....   -1
 Multiplicity           Mult            ....    1
 Number of Electrons    NEL             ....   96
 Basis Dimension        Dim             ....  828

ORBITAL ENERGIES
----------------

  NO   OCC          E(Eh)            E(eV)
   0   2.0000     -20.499530      -557.8206
   1   2.0000     -20.439325      -556.1823
   2   2.0000     -20.309254      -552.6429
   3   2.0000     -15.468507      -420.9195
   4   2.0000     -11.273672      -306.7722
   5   2.0000     -11.177115      -304.1448
   6   2.0000     -11.128355      -302.8179
   7   2.0000     -11.126309      -302.7622
   8   2.0000     -11.097461      -301.9773
   9   2.0000     -11.096374      -301.9477
  10   2.0000     -11.076031      -301.3941
  11   2.0000     -11.061985      -301.0119
  12   2.0000     -11.059108      -300.9336
  13   2.0000      -1.356661       -36.9166
  14   2.0000      -1.259533       -34.2736
  15   2.0000      -1.144051       -31.1312
  16   2.0000      -1.113615       -30.3030
  17   2.0000      -0.995158       -27.0796
  18   2.0000      -0.919251       -25.0141
  19   2.0000      -0.864348       -23.5201
  20   2.0000      -0.838869       -22.8268
  21   2.0000      -0.756822       -20.5942
  22   2.0000      -0.703779       -19.1508
  23   2.0000      -0.677174       -18.4268
  24   2.0000      -0.635297       -17.2873
  25   2.0000      -0.622166       -16.9300
  26   2.0000      -0.596247       -16.2247
  27   2.0000      -0.570158       -15.5148
  28   2.0000      -0.535266       -14.5653
  29   2.0000      -0.519546       -14.1376
  30   2.0000      -0.508047       -13.8247
  31   2.0000      -0.496582       -13.5127
  32   2.0000      -0.479582       -13.0501
  33   2.0000      -0.462339       -12.5809
  34   2.0000      -0.432542       -11.7701
  35   2.0000      -0.430044       -11.7021
  36   2.0000      -0.415292       -11.3007
  37   2.0000      -0.405508       -11.0344
  38   2.0000      -0.376350       -10.2410
  39   2.0000      -0.371851       -10.1186
  40   2.0000      -0.367484        -9.9998
  41   2.0000      -0.349941        -9.5224
  42   2.0000      -0.342557        -9.3214
  43   2.0000      -0.319573        -8.6960
  44   2.0000      -0.289632        -7.8813
  45   2.0000      -0.217628        -5.9220
  46   2.0000      -0.200619        -5.4591
  47   2.0000      -0.107795        -2.9333
  48   0.0000       0.101699         2.7674
  49   0.0000       0.109718         2.9856
  50   0.0000       0.115715         3.1488
  51   0.0000       0.119831         3.2608
  52   0.0000       0.124675         3.3926

MULLIKEN ATOMIC CHARGES
-----------------------
   0 N :   -0.678052
   1 C :    0.539799
   2 C :    0.584283
   3 O :   -0.879192
   4 O :   -0.599416
   5 C :   -0.815641
   6 H :    0.282300
   7 H :    0.182920
   8 C :    1.473158
   9 C :   -0.711170
  10 H :    0.240088
  11 C :   -0.911030
  12 H :    0.420100
  13 C :    1.265792
  14 C :   -0.729403
  15 H :    0.389946
  16 C :   -0.946886
  17 H :    0.288146
  18 O :   -1.338550
  19 H :    0.397879
  20 H :    0.265882
  21 H :    0.013086
  22 H :    0.265963
Sum of atomic charges:   -1.0000000

LOEWDIN ATOMIC CHARGES
----------------------
   0 N :    0.878442
   1 C :   -0.115778
   2 C :   -0.807721
   3 O :    0.417069
   4 O :    0.830179
   5 C :    0.258768
   6 H :   -0.151034
   7 H :   -0.147430
   8 C :   -0.173755
   9 C :    0.134246
  10 H :   -0.184363
  11 C :    0.160312
  12 H :   -0.220746
  13 C :   -0.702648
  14 C :    0.162765
  15 H :   -0.218531
  16 C :    0.147781
  17 H :   -0.183120
  18 O :    0.279822
  19 H :   -0.137854
  20 H :   -0.607382
  21 H :   -0.277530
  22 H :   -0.341494

  Mayer bond orders larger than 0.100000
B(  0-N ,  1-C ) :   0.5315 B(  0-N ,  2-C ) :   0.1462 B(  0-N , 20-H ) :   0.1481
B(  0-N , 21-H ) :   1.0906 B(  0-N , 22-H ) :   0.7843 B(  1-C ,  2-C ) :   0.5696
B(  1-C ,  5-C ) :   0.8553 B(  1-C , 19-H ) :   0.9052 B(  2-C ,  3-O ) :   1.2388
B(  2-C ,  4-O ) :   0.8161 B(  2-C ,  5-C ) :   0.1678 B(  2-C , 19-H ) :  -0.1142
B(  4-O , 20-H ) :   0.8225 B(  5-C ,  6-H ) :   1.0331 B(  5-C ,  7-H ) :   1.0826
B(  5-C ,  8-C ) :   0.6041 B(  5-C ,  9-C ) :   0.1690 B(  5-C , 16-C ) :   0.1529
B(  8-C ,  9-C ) :   0.5138 B(  8-C , 10-H ) :  -0.1489 B(  8-C , 11-C ) :   0.1593
B(  8-C , 16-C ) :   0.4433 B(  8-C , 17-H ) :  -0.1195 B(  9-C , 10-H ) :   1.0492
B(  9-C , 11-C ) :   1.3946 B(  9-C , 14-C ) :  -0.1334 B( 10-H , 11-C ) :  -0.1315
B( 10-H , 16-C ) :   0.1000 B( 11-C , 12-H ) :   0.7044 B( 11-C , 13-C ) :   0.9530
B( 11-C , 14-C ) :   0.3788 B( 11-C , 16-C ) :  -0.1885 B( 11-C , 18-O ) :   0.1277
B( 13-C , 14-C ) :   1.0171 B( 13-C , 18-O ) :   0.2906 B( 14-C , 15-H ) :   0.7665
B( 14-C , 16-C ) :   1.3236 B( 14-C , 17-H ) :  -0.1011 B( 16-C , 17-H ) :   0.8943

MP2 TOTAL ENERGY:     -628.362863939 Eh
FINAL SINGLE POINT ENERGY      -628.362863938747

DIPOLE MOMENT
-------------
                                X             Y             Z
Electronic contribution:     -2.21035       0.81840      -0.17826
Nuclear contribution   :     -1.10324      -1.31258       0.61909
                        -----------------------------------------
Total Dipole Moment    :     -3.31359      -0.49418       0.44083
                        -----------------------------------------
Magnitude (a.u.)       :      3.37912
Magnitude (Debye)      :      8.58904

Rotational constants in cm-1:     0.081157     0.011672     0.011094
Rotational constants in MHz :  2433.018309   349.906057   332.578007

                             ****ORCA TERMINATED NORMALLY****
TOTAL RUN TIME: 0 days 0 hours 9 minutes 43 seconds 958 msec
