                         Program Version 4.2.1 -  RELEASE  -
|  1> %pal
|  2>  nprocs 32
|  3> end
|  4> !RI-MP2 aug-cc-pVTZ aug-cc-pVTZ/C TightSCF
|  5> %maxcore 4500
|  6> *xyzfile 1 1  05_25P1.xyz
|  7>
|  8>
|  9>                          ****END OF INPUT****

CARTESIAN COORDINATES (ANGSTROEM)
---------------------------------
  C      2.231029    0.542456    0.000002
  C      0.878537    0.234298    0.000001
  C     -0.054809    1.298592   -0.000005
  C      0.403863   -1.107572    0.000004
  C     -1.400623    1.055001   -0.000005
  H      0.301940    2.322358   -0.000008
  C     -0.930933   -1.355966    0.000003
  H      1.114879   -1.923464    0.000008
  C     -1.853645   -0.279967   -0.000002
  H     -2.100529    1.877047   -0.000008
  H     -1.327499   -2.362392    0.000006
  O      3.137473   -0.363212   -0.000025
  C      4.541928   -0.004216    0.000043
  H      4.652570    1.079786   -0.000378
  H      4.979598   -0.441079    0.893822
  H      4.979827   -0.441784   -0.893276
  O     -3.118067   -0.627991   -0.000003
  C     -4.155898    0.363359   -0.000018
  H     -5.085505   -0.196431   -0.000030
  H     -4.092202    0.978156    0.898496
  H     -4.092179    0.978154   -0.898533
  H      2.557160    1.583366    0.000002

 Total Charge           Charge          ....    1
 Multiplicity           Mult            ....    1
 Number of Electrons    NEL             ....   80
 Basis Dimension        Dim             ....  759

ORBITAL ENERGIES
----------------

  NO   OCC          E(Eh)            E(eV)
   0   2.0000     -20.798300      -565.9505
   1   2.0000     -20.747607      -564.5711
   2   2.0000     -11.534150      -313.8602
   3   2.0000     -11.490588      -312.6748
   4   2.0000     -11.447806      -311.5106
   5   2.0000     -11.428585      -310.9876
   6   2.0000     -11.414127      -310.5942
   7   2.0000     -11.413914      -310.5884
   8   2.0000     -11.401669      -310.2552
   9   2.0000     -11.384990      -309.8013
  10   2.0000     -11.380911      -309.6903
  11   2.0000      -1.636024       -44.5185
  12   2.0000      -1.583729       -43.0955
  13   2.0000      -1.329138       -36.1677
  14   2.0000      -1.230226       -33.4762
  15   2.0000      -1.195703       -32.5367
  16   2.0000      -1.148721       -31.2583
  17   2.0000      -1.106441       -30.1078
  18   2.0000      -1.037854       -28.2414
  19   2.0000      -1.005621       -27.3644
  20   2.0000      -0.963453       -26.2169
  21   2.0000      -0.897039       -24.4097
  22   2.0000      -0.884724       -24.0746
  23   2.0000      -0.863697       -23.5024
  24   2.0000      -0.834022       -22.6949
  25   2.0000      -0.818979       -22.2856
  26   2.0000      -0.801385       -21.8068
  27   2.0000      -0.784960       -21.3599
  28   2.0000      -0.759465       -20.6661
  29   2.0000      -0.756910       -20.5966
  30   2.0000      -0.727063       -19.7844
  31   2.0000      -0.709204       -19.2984
  32   2.0000      -0.704508       -19.1706
  33   2.0000      -0.691165       -18.8076
  34   2.0000      -0.673513       -18.3272
  35   2.0000      -0.670868       -18.2552
  36   2.0000      -0.632601       -17.2139
  37   2.0000      -0.624141       -16.9837
  38   2.0000      -0.512904       -13.9568
  39   2.0000      -0.483993       -13.1701
  40   0.0000      -0.121198        -3.2980
  41   0.0000      -0.073906        -2.0111
  42   0.0000      -0.057983        -1.5778
  43   0.0000      -0.056301        -1.5320
  44   0.0000      -0.049871        -1.3571

MULLIKEN ATOMIC CHARGES
-----------------------
   0 C :   -0.535032
   1 C :    2.089945
   2 C :   -0.950718
   3 C :   -0.309325
   4 C :   -0.523599
   5 H :   -0.029863
   6 C :   -1.092523
   7 H :    0.069205
   8 C :    1.348228
   9 H :    0.470132
  10 H :    0.656987
  11 O :   -0.540481
  12 C :   -0.731234
  13 H :    0.404122
  14 H :    0.342919
  15 H :    0.342856
  16 O :   -0.815336
  17 C :   -0.894892
  18 H :    0.386914
  19 H :    0.387364
  20 H :    0.387363
  21 H :    0.536968
Sum of atomic charges:    1.0000000

LOEWDIN ATOMIC CHARGES
----------------------
   0 C :    0.036826
   1 C :   -0.112951
   2 C :    0.241547
   3 C :    0.252538
   4 C :    0.266985
   5 H :   -0.146698
   6 C :    0.270697
   7 H :   -0.152097
   8 C :   -0.344208
   9 H :   -0.189587
  10 H :   -0.162340
  11 O :    0.628435
  12 C :    0.476551
  13 H :   -0.172916
  14 H :   -0.156304
  15 H :   -0.156308
  16 O :    0.619739
  17 C :    0.418932
  18 H :   -0.163122
  19 H :   -0.161753
  20 H :   -0.161752
  21 H :   -0.132212

  Mayer bond orders larger than 0.100000
B(  0-C ,  1-C ) :   0.1533 B(  0-C ,  2-C ) :   0.1854 B(  0-C ,  3-C ) :   0.3515
B(  0-C ,  4-C ) :   0.1291 B(  0-C ,  5-H ) :  -0.1973 B(  0-C ,  9-H ) :   0.2254
B(  0-C , 10-H ) :   0.2002 B(  0-C , 11-O ) :   1.4657 B(  0-C , 21-H ) :   0.7158
B(  1-C ,  2-C ) :  -0.1279 B(  1-C ,  3-C ) :   0.2263 B(  1-C ,  4-C ) :   0.2261
B(  1-C ,  5-H ) :  -0.3134 B(  1-C ,  6-C ) :   0.1861 B(  1-C ,  7-H ) :  -0.4011
B(  1-C , 11-O ) :  -0.3357 B(  2-C ,  3-C ) :  -0.4466 B(  2-C ,  4-C ) :   1.0895
B(  2-C ,  5-H ) :   1.9948 B(  2-C ,  7-H ) :   0.2260 B(  2-C ,  8-C ) :  -0.1764
B(  3-C ,  4-C ) :  -0.1684 B(  3-C ,  5-H ) :   0.1681 B(  3-C ,  6-C ) :   1.3758
B(  3-C ,  7-H ) :   1.4909 B(  3-C ,  8-C ) :  -0.2535 B(  4-C ,  5-H ) :  -0.2275
B(  4-C ,  6-C ) :   0.2814 B(  4-C ,  8-C ) :   1.1128 B(  4-C ,  9-H ) :   0.6777
B(  4-C , 16-O ) :  -0.2952 B(  5-H ,  7-H ) :   0.1200 B(  6-C ,  8-C ) :   0.7671
B(  6-C , 10-H ) :   0.3240 B(  6-C , 16-O ) :   0.2046 B(  8-C ,  9-H ) :   0.1385
B(  8-C , 10-H ) :   0.1217 B(  8-C , 16-O ) :   0.5542 B( 11-O , 12-C ) :   0.7874
B( 12-C , 13-H ) :   0.8278 B( 12-C , 14-H ) :   0.8977 B( 12-C , 15-H ) :   0.8978
B( 16-O , 17-C ) :   0.9727 B( 17-C , 18-H ) :   0.9084 B( 17-C , 19-H ) :   0.8585
B( 17-C , 20-H ) :   0.8585

MP2 TOTAL ENERGY:     -498.794496524 Eh
FINAL SINGLE POINT ENERGY      -498.794496524436

DIPOLE MOMENT
-------------
                                X             Y             Z
Electronic contribution:     -0.31141      -2.30427      -0.00007
Nuclear contribution   :      1.90009       3.45944       0.00010
                        -----------------------------------------
Total Dipole Moment    :      1.58868       1.15518       0.00003
                        -----------------------------------------
Magnitude (a.u.)       :      1.96427
Magnitude (Debye)      :      4.99277

Rotational constants in cm-1:     0.149015     0.015850     0.014405
Rotational constants in MHz :  4467.358382   475.164109   431.858926

                             ****ORCA TERMINATED NORMALLY****
TOTAL RUN TIME: 0 days 0 hours 6 minutes 46 seconds 178 msec
