                         Program Version 4.2.1 -  RELEASE  -
|  1> %pal
|  2>  nprocs 32
|  3> end
|  4> !RI-MP2 aug-cc-pVTZ aug-cc-pVTZ/C TightSCF
|  5> %maxcore 4500
|  6> *xyzfile 0 1  07_4P2.xyz
|  7>
|  8>
|  9>                          ****END OF INPUT****

CARTESIAN COORDINATES (ANGSTROEM)
---------------------------------
  C      1.284279   -0.610143   -0.001810
  C      0.000000    0.183621    0.000002
  O     -0.000000    1.390425   -0.000000
  C     -1.284279   -0.610143    0.001810
  H      1.283155   -1.342212   -0.813057
  H      2.135512    0.059513   -0.104991
  H      1.371950   -1.169002    0.934025
  H     -2.135511    0.059510    0.105014
  H     -1.283147   -1.342232    0.813040
  H     -1.371958   -1.168980   -0.934038

 Total Charge           Charge          ....    0
 Multiplicity           Mult            ....    1
 Number of Electrons    NEL             ....   32
 Basis Dimension        Dim             ....  322

ORBITAL ENERGIES
----------------

  NO   OCC          E(Eh)            E(eV)
   0   2.0000     -20.544886      -559.0548
   1   2.0000     -11.331106      -308.3351
   2   2.0000     -11.235107      -305.7228
   3   2.0000     -11.235086      -305.7222
   4   2.0000      -1.389597       -37.8129
   5   2.0000      -1.043051       -28.3828
   6   2.0000      -0.968332       -26.3496
   7   2.0000      -0.741794       -20.1852
   8   2.0000      -0.646852       -17.6017
   9   2.0000      -0.637795       -17.3553
  10   2.0000      -0.624609       -16.9965
  11   2.0000      -0.563004       -15.3201
  12   2.0000      -0.560300       -15.2465
  13   2.0000      -0.537790       -14.6340
  14   2.0000      -0.490146       -13.3375
  15   2.0000      -0.413820       -11.2606
  16   0.0000       0.025873         0.7040
  17   0.0000       0.036698         0.9986
  18   0.0000       0.039614         1.0779
  19   0.0000       0.049291         1.3413
  20   0.0000       0.061174         1.6646

MULLIKEN ATOMIC CHARGES
-----------------------
   0 C :   -0.782332
   1 C :    0.488680
   2 O :   -0.732926
   3 C :   -0.782330
   4 H :    0.313091
   5 H :    0.286560
   6 H :    0.304803
   7 H :    0.286560
   8 H :    0.313092
   9 H :    0.304802
Sum of atomic charges:    0.0000000

LOEWDIN ATOMIC CHARGES
----------------------
   0 C :    0.576803
   1 C :   -0.550990
   2 O :    0.456972
   3 C :    0.576803
   4 H :   -0.174627
   5 H :   -0.182471
   6 H :   -0.172696
   7 H :   -0.182471
   8 H :   -0.174627
   9 H :   -0.172695

  Mayer bond orders larger than 0.100000
B(  0-C ,  1-C ) :   0.8946 B(  0-C ,  4-H ) :   0.9158 B(  0-C ,  5-H ) :   0.9489
B(  0-C ,  6-H ) :   0.9137 B(  1-C ,  2-O ) :   1.3624 B(  1-C ,  3-C ) :   0.8946
B(  3-C ,  7-H ) :   0.9489 B(  3-C ,  8-H ) :   0.9158 B(  3-C ,  9-H ) :   0.9137

MP2 TOTAL ENERGY:     -192.789788769 Eh
FINAL SINGLE POINT ENERGY      -192.789788768610

DIPOLE MOMENT
-------------
                                X             Y             Z
Electronic contribution:     -0.00000       3.71981       0.00001
Nuclear contribution   :      0.00000      -5.05112      -0.00001
                        -----------------------------------------
Total Dipole Moment    :     -0.00000      -1.33131      -0.00000
                        -----------------------------------------
Magnitude (a.u.)       :      1.33131
Magnitude (Debye)      :      3.38392

Rotational constants in cm-1:     0.341380     0.285516     0.164954
Rotational constants in MHz : 10234.317286  8559.557944  4945.194763

                             ****ORCA TERMINATED NORMALLY****
TOTAL RUN TIME: 0 days 0 hours 0 minutes 32 seconds 158 msec
