                         Program Version 4.2.1 -  RELEASE  -
|  1> %pal
|  2>  nprocs 32
|  3> end
|  4> !RI-MP2 aug-cc-pVTZ aug-cc-pVTZ/C TightSCF
|  5> %maxcore 4500
|  6> *xyzfile 0 1  05_41R1.xyz
|  7>
|  8>
|  9>                          ****END OF INPUT****

CARTESIAN COORDINATES (ANGSTROEM)
---------------------------------
  C      0.772835    0.355119   -0.449429
  C     -0.704163    0.104399   -0.214855
  C     -1.476705   -0.524553   -1.185434
  C     -1.314950    0.502333    0.971302
  C     -2.824603   -0.777215   -0.969870
  H     -1.018759   -0.819461   -2.123339
  C     -2.662803    0.256802    1.188831
  H     -0.726562    1.020535    1.717845
  C     -3.421266   -0.389314    0.221301
  H     -3.410678   -1.269760   -1.736641
  H     -3.124316    0.573593    2.116687
  H     -4.474006   -0.580309    0.391277
  O      1.174466    1.598904    0.097332
  C      0.689796    2.716915   -0.609960
  H     -0.404626    2.761277   -0.600870
  H      1.087243    3.603935   -0.118486
  H      1.033221    2.700441   -1.652188
  C      1.719092   -0.731004    0.120727
  C      3.148724   -0.380114   -0.305728
  H      3.450204    0.586586    0.096634
  H      3.847450   -1.139274    0.054049
  H      3.233316   -0.338212   -1.395655
  C      1.643374   -0.786187    1.648188
  H      0.655574   -1.099754    1.990013
  H      2.370782   -1.507834    2.028089
  H      1.868859    0.187493    2.085094
  C      1.346264   -2.097043   -0.460448
  H      0.350546   -2.413981   -0.147227
  H      1.371841   -2.087294   -1.553995
  H      2.061369   -2.849647   -0.120483
  H      0.939242    0.379603   -1.537209

 Total Charge           Charge          ....    0
 Multiplicity           Mult            ....    1
 Number of Electrons    NEL             ....   98
 Basis Dimension        Dim             .... 1012

ORBITAL ENERGIES
----------------

  NO   OCC          E(Eh)            E(eV)
   0   2.0000     -20.553861      -559.2990
   1   2.0000     -11.280859      -306.9678
   2   2.0000     -11.266573      -306.5790
   3   2.0000     -11.233994      -305.6925
   4   2.0000     -11.233513      -305.6794
   5   2.0000     -11.232688      -305.6570
   6   2.0000     -11.231451      -305.6233
   7   2.0000     -11.231182      -305.6160
   8   2.0000     -11.230890      -305.6081
   9   2.0000     -11.227582      -305.5180
  10   2.0000     -11.207267      -304.9653
  11   2.0000     -11.202698      -304.8409
  12   2.0000     -11.200695      -304.7864
  13   2.0000      -1.378423       -37.5088
  14   2.0000      -1.157628       -31.5007
  15   2.0000      -1.103755       -30.0347
  16   2.0000      -1.029982       -28.0272
  17   2.0000      -1.015378       -27.6299
  18   2.0000      -0.952315       -25.9138
  19   2.0000      -0.927745       -25.2452
  20   2.0000      -0.924169       -25.1479
  21   2.0000      -0.881372       -23.9834
  22   2.0000      -0.827472       -22.5167
  23   2.0000      -0.803015       -21.8511
  24   2.0000      -0.738800       -20.1038
  25   2.0000      -0.701537       -19.0898
  26   2.0000      -0.667256       -18.1570
  27   2.0000      -0.653331       -17.7780
  28   2.0000      -0.645202       -17.5568
  29   2.0000      -0.621326       -16.9071
  30   2.0000      -0.614072       -16.7097
  31   2.0000      -0.597158       -16.2495
  32   2.0000      -0.586577       -15.9616
  33   2.0000      -0.581739       -15.8299
  34   2.0000      -0.571993       -15.5647
  35   2.0000      -0.554504       -15.0888
  36   2.0000      -0.530996       -14.4491
  37   2.0000      -0.524763       -14.2795
  38   2.0000      -0.507644       -13.8137
  39   2.0000      -0.505916       -13.7667
  40   2.0000      -0.501799       -13.6546
  41   2.0000      -0.494396       -13.4532
  42   2.0000      -0.483744       -13.1633
  43   2.0000      -0.457751       -12.4560
  44   2.0000      -0.452781       -12.3208
  45   2.0000      -0.445644       -12.1266
  46   2.0000      -0.419822       -11.4239
  47   2.0000      -0.337025        -9.1709
  48   2.0000      -0.329270        -8.9599
  49   0.0000       0.025686         0.6990
  50   0.0000       0.031398         0.8544
  51   0.0000       0.033097         0.9006
  52   0.0000       0.035342         0.9617
  53   0.0000       0.043656         1.1880

MULLIKEN ATOMIC CHARGES
-----------------------
   0 C :    1.194277
   1 C :    1.513350
   2 C :   -1.132859
   3 C :   -0.607996
   4 C :   -0.757041
   5 H :   -0.134597
   6 C :   -0.757830
   7 H :   -0.074079
   8 C :   -0.098010
   9 H :    0.552142
  10 H :    0.492606
  11 H :    0.564843
  12 O :   -0.825649
  13 C :   -1.106426
  14 H :    0.425914
  15 H :    0.314582
  16 H :    0.337875
  17 C :    1.599872
  18 C :   -1.534092
  19 H :    0.289387
  20 H :    0.232747
  21 H :    0.217306
  22 C :   -1.416963
  23 H :    0.341561
  24 H :    0.191125
  25 H :    0.290140
  26 C :   -1.358868
  27 H :    0.377146
  28 H :    0.253880
  29 H :    0.160458
  30 H :    0.455199
Sum of atomic charges:   -0.0000000

LOEWDIN ATOMIC CHARGES
----------------------
   0 C :   -0.265945
   1 C :   -0.116477
   2 C :    0.212415
   3 C :    0.205884
   4 C :    0.203913
   5 H :   -0.167897
   6 C :    0.208263
   7 H :   -0.171894
   8 C :    0.195128
   9 H :   -0.181583
  10 H :   -0.180723
  11 H :   -0.184056
  12 O :    0.590279
  13 C :    0.337881
  14 H :   -0.175960
  15 H :   -0.177816
  16 H :   -0.168161
  17 C :   -0.344865
  18 C :    0.583895
  19 H :   -0.165352
  20 H :   -0.157296
  21 H :   -0.153049
  22 C :    0.586007
  23 H :   -0.168140
  24 H :   -0.153727
  25 H :   -0.159078
  26 C :    0.583709
  27 H :   -0.163706
  28 H :   -0.150113
  29 H :   -0.152364
  30 H :   -0.149172

  Mayer bond orders larger than 0.100000
B(  0-C ,  1-C ) :   0.4866 B(  0-C ,  2-C ) :   0.3250 B(  0-C ,  5-H ) :  -0.1645
B(  0-C ,  7-H ) :  -0.2226 B(  0-C , 13-C ) :  -0.1286 B(  0-C , 17-C ) :   0.9035
B(  0-C , 18-C ) :  -0.1108 B(  0-C , 26-C ) :  -0.1064 B(  0-C , 30-H ) :   1.0417
B(  1-C ,  2-C ) :   0.1801 B(  1-C ,  3-C ) :   0.8143 B(  1-C ,  5-H ) :  -0.2453
B(  1-C ,  7-H ) :  -0.1453 B(  1-C , 12-O ) :   0.1020 B(  1-C , 17-C ) :   0.3326
B(  1-C , 30-H ) :  -0.1713 B(  2-C ,  3-C ) :  -0.6644 B(  2-C ,  4-C ) :   1.4918
B(  2-C ,  5-H ) :   1.9616 B(  2-C ,  7-H ) :   0.3058 B(  2-C ,  9-H ) :  -0.1215
B(  2-C , 11-H ) :   0.1518 B(  2-C , 17-C ) :   0.1262 B(  2-C , 30-H ) :  -0.1175
B(  3-C ,  5-H ) :   0.1052 B(  3-C ,  6-C ) :   1.7492 B(  3-C ,  7-H ) :   1.5873
B(  4-C ,  5-H ) :  -0.1174 B(  4-C ,  6-C ) :   0.2007 B(  4-C ,  7-H ) :  -0.1173
B(  4-C ,  8-C ) :   1.1069 B(  4-C ,  9-H ) :   0.6347 B(  4-C , 11-H ) :  -0.1929
B(  5-H ,  6-C ) :  -0.1633 B(  5-H ,  7-H ) :   0.2292 B(  6-C ,  8-C ) :   1.2229
B(  6-C , 10-H ) :   0.7553 B(  6-C , 11-H ) :  -0.2617 B(  8-C , 11-H ) :   0.6398
B( 12-O , 13-C ) :   1.1714 B( 12-O , 30-H ) :  -0.1407 B( 13-C , 14-H ) :   0.8144
B( 13-C , 15-H ) :   1.0079 B( 13-C , 16-H ) :   0.9050 B( 17-C , 18-C ) :   0.3128
B( 17-C , 20-H ) :  -0.1111 B( 17-C , 22-C ) :   0.2980 B( 17-C , 24-H ) :  -0.1305
B( 17-C , 26-C ) :   0.2893 B( 17-C , 29-H ) :  -0.1410 B( 17-C , 30-H ) :  -0.1013
B( 18-C , 19-H ) :   1.0539 B( 18-C , 20-H ) :   1.0972 B( 18-C , 21-H ) :   1.1162
B( 18-C , 26-C ) :   0.1145 B( 22-C , 23-H ) :   1.0069 B( 22-C , 24-H ) :   1.1538
B( 22-C , 25-H ) :   1.0443 B( 22-C , 26-C ) :   0.1099 B( 26-C , 27-H ) :   0.9760
B( 26-C , 28-H ) :   1.0862 B( 26-C , 29-H ) :   1.1814

MP2 TOTAL ENERGY:     -542.223284497 Eh
FINAL SINGLE POINT ENERGY      -542.223284496612

DIPOLE MOMENT
-------------
                                X             Y             Z
Electronic contribution:     -9.65906       2.37479       0.18752
Nuclear contribution   :      9.42500      -2.34030      -0.52123
                        -----------------------------------------
Total Dipole Moment    :     -0.23405       0.03449      -0.33371
                        -----------------------------------------
Magnitude (a.u.)       :      0.40906
Magnitude (Debye)      :      1.03975

Rotational constants in cm-1:     0.041054     0.019677     0.017034
Rotational constants in MHz :  1230.778591   589.896423   510.662373

                             ****ORCA TERMINATED NORMALLY****
TOTAL RUN TIME: 0 days 0 hours 20 minutes 16 seconds 222 msec
