                         Program Version 4.2.1 -  RELEASE  -
|  1> %pal
|  2>  nprocs 32
|  3> end
|  4> !RI-MP2 aug-cc-pVTZ aug-cc-pVTZ/C TightSCF
|  5> %maxcore 4500
|  6> *xyzfile 0 2  04_82TS.xyz
|  7>
|  8>
|  9>                          ****END OF INPUT****

CARTESIAN COORDINATES (ANGSTROEM)
---------------------------------
  O      0.850131   -0.634097   -0.420136
  C     -0.478685   -0.068110   -0.443397
  C     -0.309339    1.449449   -0.211514
  C      1.180628    1.667558   -0.489799
  C      1.770821    0.351308    0.023983
  C     -1.307610   -0.779784    0.585686
  H     -0.872335   -0.249742   -1.447640
  H     -1.028860   -0.561802    1.612810
  H     -1.434657   -1.841707    0.386217
  O     -0.525969    1.842075    1.125088
  O      1.705330    2.810678    0.106857
  N      3.076250    0.027078   -0.469673
  H      1.850998    0.368465    1.114342
  C      4.163449   -0.319509    0.299793
  C      3.493483   -0.069756   -1.780551
  H      1.353645    1.738512   -1.566337
  H     -0.946268    2.029257   -0.881679
  H     -1.464053    2.083135    1.213540
  H      1.203751    2.948130    0.922994
  O     -3.184419    2.224361    0.638940
  C     -3.944092    1.409484    0.161066
  O     -4.796352    1.771599   -0.787639
  C     -3.892281   -0.023259    0.592065
  C     -4.543619   -1.126348   -0.223770
  H     -2.605805   -0.314650    0.545539
  H     -4.060590   -0.103177    1.664795
  C     -6.048731   -1.073093   -0.230088
  H     -4.223801   -2.094949    0.157711
  H     -4.222010   -1.058730   -1.267470
  C     -8.059222   -2.183791    0.252455
  H     -8.434871   -1.373462    0.875111
  H     -8.331316   -3.149836    0.666221
  H     -8.442370   -2.072212   -0.760561
  O     -6.679561   -0.116445   -0.632909
  N      4.735946   -0.430434   -1.905149
  C      5.177319   -0.590449   -0.605655
  C      6.413210   -0.963322   -0.058312
  N      6.529559   -1.035280    1.269851
  C      5.462464   -0.750155    2.022915
  N      4.251188   -0.385995    1.626909
  N      7.480554   -1.257021   -0.828576
  H      7.423319   -1.159034   -1.827313
  H      8.356236   -1.472467   -0.384367
  H      5.614086   -0.827462    3.094475
  H      2.821235    0.128915   -2.600716
  H     -5.531720    1.124064   -0.892217
  O     -6.619892   -2.167049    0.238769

 Total Charge           Charge          ....    0
 Multiplicity           Mult            ....    2
 Number of Electrons    NEL             ....  201
 Basis Dimension        Dim             .... 1702

ORBITAL ENERGIES
----------------
                 SPIN UP ORBITALS
  NO   OCC          E(Eh)            E(eV)
   0   1.0000     -20.651178      -561.9471
   1   1.0000     -20.609952      -560.8253
   2   1.0000     -20.593333      -560.3731
   3   1.0000     -20.574871      -559.8707
   4   1.0000     -20.559791      -559.4604
   5   1.0000     -20.557826      -559.4069
   6   1.0000     -20.557084      -559.3867
   7   1.0000     -15.616462      -424.9455
   8   1.0000     -15.575298      -423.8254
   9   1.0000     -15.556592      -423.3164
  10   1.0000     -15.544567      -422.9892
  11   1.0000     -15.538809      -422.8325
  12   1.0000     -11.428700      -310.9907
  13   1.0000     -11.404352      -310.3282
  14   1.0000     -11.327801      -308.2451
  15   1.0000     -11.326306      -308.2045
  16   1.0000     -11.319488      -308.0189
  17   1.0000     -11.308395      -307.7171
  18   1.0000     -11.302845      -307.5660
  19   1.0000     -11.302799      -307.5648
  20   1.0000     -11.298947      -307.4600
  21   1.0000     -11.293368      -307.3082
  22   1.0000     -11.293344      -307.3075
  23   1.0000     -11.291105      -307.2466
  24   1.0000     -11.290079      -307.2187
  25   1.0000     -11.260863      -306.4237
  26   1.0000     -11.238004      -305.8016
  27   1.0000      -1.516300       -41.2606
  28   1.0000      -1.474759       -40.1302
  29   1.0000      -1.419788       -38.6344
  30   1.0000      -1.411468       -38.4080
  31   1.0000      -1.384418       -37.6719
  32   1.0000      -1.374713       -37.4079
  33   1.0000      -1.359939       -37.0058
  34   1.0000      -1.353069       -36.8189
  35   1.0000      -1.294693       -35.2304
  36   1.0000      -1.240962       -33.7683
  37   1.0000      -1.191870       -32.4324
  38   1.0000      -1.147920       -31.2365
  39   1.0000      -1.132467       -30.8160
  40   1.0000      -1.069005       -29.0891
  41   1.0000      -1.040505       -28.3136
  42   1.0000      -1.030128       -28.0312
  43   1.0000      -1.023102       -27.8400
  44   1.0000      -0.962630       -26.1945
  45   1.0000      -0.949201       -25.8291
  46   1.0000      -0.886935       -24.1347
  47   1.0000      -0.869030       -23.6475
  48   1.0000      -0.858150       -23.3514
  49   1.0000      -0.851858       -23.1802
  50   1.0000      -0.817893       -22.2560
  51   1.0000      -0.813353       -22.1324
  52   1.0000      -0.788637       -21.4599
  53   1.0000      -0.774057       -21.0632
  54   1.0000      -0.765576       -20.8324
  55   1.0000      -0.746244       -20.3063
  56   1.0000      -0.736589       -20.0436
  57   1.0000      -0.733186       -19.9510
  58   1.0000      -0.722809       -19.6686
  59   1.0000      -0.710173       -19.3248
  60   1.0000      -0.704656       -19.1747
  61   1.0000      -0.693571       -18.8730
  62   1.0000      -0.691448       -18.8152
  63   1.0000      -0.678075       -18.4514
  64   1.0000      -0.668221       -18.1832
  65   1.0000      -0.659477       -17.9453
  66   1.0000      -0.654609       -17.8128
  67   1.0000      -0.642295       -17.4777
  68   1.0000      -0.632043       -17.1988
  69   1.0000      -0.623001       -16.9527
  70   1.0000      -0.617723       -16.8091
  71   1.0000      -0.612838       -16.6762
  72   1.0000      -0.610513       -16.6129
  73   1.0000      -0.604573       -16.4513
  74   1.0000      -0.597711       -16.2645
  75   1.0000      -0.591535       -16.0965
  76   1.0000      -0.585419       -15.9301
  77   1.0000      -0.580370       -15.7927
  78   1.0000      -0.574113       -15.6224
  79   1.0000      -0.568008       -15.4563
  80   1.0000      -0.562664       -15.3109
  81   1.0000      -0.549959       -14.9651
  82   1.0000      -0.546155       -14.8616
  83   1.0000      -0.543589       -14.7918
  84   1.0000      -0.529823       -14.4172
  85   1.0000      -0.510754       -13.8983
  86   1.0000      -0.500332       -13.6147
  87   1.0000      -0.497057       -13.5256
  88   1.0000      -0.494136       -13.4461
  89   1.0000      -0.490468       -13.3463
  90   1.0000      -0.484058       -13.1719
  91   1.0000      -0.471676       -12.8349
  92   1.0000      -0.466342       -12.6898
  93   1.0000      -0.445868       -12.1327
  94   1.0000      -0.438771       -11.9396
  95   1.0000      -0.434454       -11.8221
  96   1.0000      -0.402918       -10.9640
  97   1.0000      -0.399228       -10.8635
  98   1.0000      -0.366228        -9.9656
  99   1.0000      -0.355951        -9.6859
 100   1.0000      -0.300507        -8.1772
 101   0.0000       0.012457         0.3390
 102   0.0000       0.021619         0.5883
 103   0.0000       0.026146         0.7115
 104   0.0000       0.030315         0.8249
 105   0.0000       0.033841         0.9209

                 SPIN DOWN ORBITALS
  NO   OCC          E(Eh)            E(eV)
   0   1.0000     -20.651172      -561.9470
   1   1.0000     -20.609626      -560.8164
   2   1.0000     -20.593124      -560.3674
   3   1.0000     -20.572357      -559.8023
   4   1.0000     -20.559825      -559.4613
   5   1.0000     -20.557083      -559.3867
   6   1.0000     -20.555663      -559.3480
   7   1.0000     -15.616360      -424.9428
   8   1.0000     -15.575300      -423.8255
   9   1.0000     -15.556607      -423.3168
  10   1.0000     -15.544552      -422.9888
  11   1.0000     -15.538797      -422.8322
  12   1.0000     -11.427884      -310.9685
  13   1.0000     -11.406122      -310.3764
  14   1.0000     -11.327818      -308.2456
  15   1.0000     -11.326314      -308.2047
  16   1.0000     -11.319457      -308.0181
  17   1.0000     -11.308385      -307.7168
  18   1.0000     -11.304184      -307.6025
  19   1.0000     -11.302849      -307.5662
  20   1.0000     -11.298958      -307.4603
  21   1.0000     -11.293200      -307.3036
  22   1.0000     -11.292584      -307.2868
  23   1.0000     -11.290112      -307.2196
  24   1.0000     -11.276444      -306.8476
  25   1.0000     -11.241771      -305.9041
  26   1.0000     -11.237988      -305.8012
  27   1.0000      -1.515887       -41.2494
  28   1.0000      -1.472897       -40.0796
  29   1.0000      -1.416008       -38.5315
  30   1.0000      -1.410916       -38.3930
  31   1.0000      -1.383009       -37.6336
  32   1.0000      -1.371451       -37.3191
  33   1.0000      -1.359086       -36.9826
  34   1.0000      -1.352597       -36.8060
  35   1.0000      -1.294582       -35.2274
  36   1.0000      -1.240945       -33.7678
  37   1.0000      -1.191319       -32.4174
  38   1.0000      -1.147761       -31.2322
  39   1.0000      -1.115295       -30.3487
  40   1.0000      -1.052346       -28.6358
  41   1.0000      -1.036042       -28.1921
  42   1.0000      -1.022302       -27.8183
  43   1.0000      -1.016343       -27.6561
  44   1.0000      -0.949225       -25.8297
  45   1.0000      -0.926163       -25.2022
  46   1.0000      -0.886906       -24.1340
  47   1.0000      -0.869012       -23.6470
  48   1.0000      -0.854528       -23.2529
  49   1.0000      -0.847143       -23.0519
  50   1.0000      -0.811993       -22.0955
  51   1.0000      -0.809894       -22.0383
  52   1.0000      -0.787622       -21.4323
  53   1.0000      -0.768208       -20.9040
  54   1.0000      -0.760798       -20.7024
  55   1.0000      -0.744531       -20.2597
  56   1.0000      -0.735206       -20.0060
  57   1.0000      -0.730998       -19.8915
  58   1.0000      -0.722087       -19.6490
  59   1.0000      -0.706709       -19.2305
  60   1.0000      -0.702880       -19.1263
  61   1.0000      -0.690278       -18.7834
  62   1.0000      -0.685902       -18.6643
  63   1.0000      -0.674529       -18.3549
  64   1.0000      -0.658071       -17.9070
  65   1.0000      -0.654966       -17.8225
  66   1.0000      -0.650624       -17.7044
  67   1.0000      -0.640750       -17.4357
  68   1.0000      -0.629345       -17.1254
  69   1.0000      -0.618817       -16.8389
  70   1.0000      -0.615019       -16.7355
  71   1.0000      -0.611113       -16.6292
  72   1.0000      -0.605360       -16.4727
  73   1.0000      -0.601368       -16.3641
  74   1.0000      -0.589853       -16.0507
  75   1.0000      -0.588453       -16.0126
  76   1.0000      -0.578912       -15.7530
  77   1.0000      -0.573366       -15.6021
  78   1.0000      -0.569331       -15.4923
  79   1.0000      -0.564938       -15.3727
  80   1.0000      -0.549191       -14.9442
  81   1.0000      -0.545478       -14.8432
  82   1.0000      -0.540056       -14.6957
  83   1.0000      -0.538347       -14.6492
  84   1.0000      -0.526165       -14.3177
  85   1.0000      -0.509574       -13.8662
  86   1.0000      -0.494367       -13.4524
  87   1.0000      -0.490945       -13.3593
  88   1.0000      -0.490437       -13.3455
  89   1.0000      -0.483226       -13.1493
  90   1.0000      -0.476127       -12.9561
  91   1.0000      -0.466930       -12.7058
  92   1.0000      -0.463453       -12.6112
  93   1.0000      -0.443883       -12.0787
  94   1.0000      -0.438029       -11.9194
  95   1.0000      -0.432368       -11.7653
  96   1.0000      -0.401383       -10.9222
  97   1.0000      -0.399188       -10.8625
  98   1.0000      -0.359398        -9.7797
  99   1.0000      -0.300465        -8.1761
 100   0.0000       0.012372         0.3367
 101   0.0000       0.021658         0.5893
 102   0.0000       0.026222         0.7135
 103   0.0000       0.030237         0.8228
 104   0.0000       0.033659         0.9159

MULLIKEN ATOMIC CHARGES AND SPIN POPULATIONS
--------------------------------------------
   0 O :   -1.088277    0.021560
   1 C :    0.370291   -0.077940
   2 C :    0.647516    0.010239
   3 C :    0.145440   -0.004097
   4 C :    1.181381    0.017314
   5 C :   -0.963187    0.944462
   6 H :    0.307195    0.019494
   7 H :    0.217246    0.009207
   8 H :    0.240644    0.000926
   9 O :   -0.891751   -0.000780
  10 O :   -0.960871   -0.000033
  11 N :    0.082665    0.001379
  12 H :    0.662699   -0.000711
  13 C :   -0.271713   -0.001366
  14 C :   -0.379275   -0.001153
  15 H :    0.239885   -0.000237
  16 H :    0.466523   -0.001163
  17 H :    0.258794   -0.000517
  18 H :    0.182220    0.000231
  19 O :   -0.853386    0.048345
  20 C :    0.696578   -0.069482
  21 O :   -0.665530    0.005957
  22 C :   -0.136580    0.786035
  23 C :    0.228416   -0.070833
  24 H :    0.408839   -0.659625
  25 H :    0.302788   -0.022913
  26 C :    0.344000    0.019969
  27 H :    0.215493    0.009448
  28 H :    0.271900    0.013096
  29 C :   -0.845060    0.001627
  30 H :    0.385827   -0.000135
  31 H :    0.366942    0.000047
  32 H :    0.386383   -0.000055
  33 O :   -0.829717    0.002734
  34 N :   -1.186364   -0.000167
  35 C :    1.872827    0.000981
  36 C :   -0.140024   -0.000274
  37 N :   -0.412379    0.000368
  38 C :   -0.925393   -0.000766
  39 N :   -0.784168    0.000087
  40 N :   -0.550809   -0.000073
  41 H :    0.106970    0.000004
  42 H :    0.080733    0.000004
  43 H :    0.626550    0.000025
  44 H :    0.703943   -0.000268
  45 H :    0.320926   -0.001032
  46 O :   -0.437131    0.000080
Sum of atomic charges         :    0.0000000

LOEWDIN ATOMIC CHARGES AND SPIN POPULATIONS
-------------------------------------------
   0 O :    0.619343    0.035567
   1 C :   -0.213009    0.045710
   2 C :   -0.199617   -0.000627
   3 C :   -0.239932   -0.000628
   4 C :   -0.315685    0.001505
   5 C :    0.583725    0.334636
   6 H :   -0.134184   -0.000623
   7 H :   -0.150598    0.048893
   8 H :   -0.145598    0.049241
   9 O :    0.881664   -0.000499
  10 O :    0.861974   -0.000077
  11 N :    0.286322    0.001759
  12 H :   -0.134398   -0.000244
  13 C :   -0.434225    0.000134
  14 C :   -0.036600    0.000361
  15 H :   -0.141174   -0.000015
  16 H :   -0.127025   -0.000361
  17 H :   -0.661784   -0.000293
  18 H :   -0.537688   -0.000002
  19 O :    0.541102    0.032874
  20 C :   -0.737589    0.028580
  21 O :    0.871927    0.004254
  22 C :    0.264789    0.254224
  23 C :    0.298022    0.026652
  24 H :   -0.375729    0.092184
  25 H :   -0.128611    0.028728
  26 C :   -0.758934    0.010208
  27 H :   -0.153008   -0.000642
  28 H :   -0.133495    0.000591
  29 C :    0.389931    0.000431
  30 H :   -0.174856    0.000062
  31 H :   -0.179739    0.000140
  32 H :   -0.174956    0.000014
  33 O :    0.575150    0.004837
  34 N :    0.402899   -0.000143
  35 C :   -0.303439    0.000215
  36 C :   -0.419218   -0.000041
  37 N :    0.389947    0.000146
  38 C :   -0.174882   -0.000167
  39 N :    0.409382    0.000180
  40 N :    0.870507   -0.000062
  41 H :   -0.287919   -0.000005
  42 H :   -0.288085   -0.000004
  43 H :   -0.202611   -0.000048
  44 H :   -0.159583    0.000070
  45 H :   -0.713285    0.001365
  46 O :    0.590773    0.000919

  Mayer bond orders larger than 0.100000
B(  0-O ,  1-C ) :   0.5654 B(  0-O ,  3-C ) :   0.1474 B(  0-O ,  4-C ) :   0.2917
B(  0-O ,  5-C ) :   0.1299 B(  0-O ,  6-H ) :  -0.1173 B(  0-O , 11-N ) :   0.2489
B(  1-C ,  2-C ) :   0.8759 B(  1-C ,  3-C ) :   0.2647 B(  1-C ,  5-C ) :   0.7279
B(  1-C ,  6-H ) :   0.9239 B(  1-C ,  9-O ) :   0.1963 B(  2-C ,  3-C ) :   1.0647
B(  2-C ,  5-C ) :   0.1031 B(  2-C ,  9-O ) :   0.2110 B(  2-C , 10-O ) :   0.1857
B(  2-C , 16-H ) :   0.8143 B(  3-C ,  4-C ) :   0.8084 B(  3-C ,  9-O ) :   0.1250
B(  3-C , 15-H ) :   1.1017 B(  3-C , 16-H ) :  -0.1421 B(  4-C , 10-O ) :   0.1251
B(  4-C , 11-N ) :   0.8775 B(  4-C , 12-H ) :   0.7924 B(  4-C , 13-C ) :  -0.2990
B(  4-C , 14-C ) :  -0.1389 B(  4-C , 35-C ) :  -0.1193 B(  4-C , 38-C ) :  -0.1105
B(  4-C , 39-N ) :  -0.2081 B(  5-C ,  7-H ) :   1.0517 B(  5-C ,  8-H ) :   0.9992
B(  5-C , 24-H ) :   0.1382 B(  9-O , 17-H ) :   0.8888 B(  9-O , 19-O ) :  -0.1096
B( 10-O , 11-N ) :   0.1333 B( 10-O , 18-H ) :   1.0026 B( 11-N , 12-H ) :  -0.2267
B( 11-N , 13-C ) :   0.8220 B( 11-N , 14-C ) :   1.0075 B( 11-N , 35-C ) :  -0.1237
B( 11-N , 36-C ) :  -0.1173 B( 11-N , 39-N ) :  -0.1347 B( 12-H , 39-N ) :  -0.1045
B( 13-C , 14-C ) :  -0.6009 B( 13-C , 34-N ) :   0.5272 B( 13-C , 35-C ) :   1.0791
B( 13-C , 36-C ) :   1.5467 B( 13-C , 38-C ) :  -0.6651 B( 13-C , 39-N ) :   0.6569
B( 14-C , 34-N ) :   0.9122 B( 14-C , 44-H ) :   0.3780 B( 19-O , 20-C ) :   1.3940
B( 19-O , 22-C ) :  -0.1038 B( 20-C , 21-O ) :   0.6875 B( 20-C , 22-C ) :   0.6445
B( 20-C , 23-C ) :   0.1605 B( 20-C , 24-H ) :   0.1455 B( 21-O , 45-H ) :   0.8052
B( 22-C , 23-C ) :   0.8105 B( 22-C , 24-H ) :   0.2904 B( 22-C , 25-H ) :   0.9915
B( 22-C , 26-C ) :   0.1668 B( 23-C , 27-H ) :   1.0222 B( 23-C , 28-H ) :   0.9537
B( 26-C , 33-O ) :   1.3331 B( 26-C , 46-O ) :   0.9429 B( 29-C , 30-H ) :   0.8612
B( 29-C , 31-H ) :   0.8925 B( 29-C , 32-H ) :   0.8636 B( 29-C , 46-O ) :   0.8670
B( 34-N , 44-H ) :  -0.1800 B( 35-C , 36-C ) :  -1.4151 B( 35-C , 39-N ) :  -0.4745
B( 35-C , 40-N ) :  -0.3556 B( 36-C , 37-N ) :   0.3279 B( 36-C , 38-C ) :  -0.3717
B( 36-C , 39-N ) :   0.3741 B( 36-C , 40-N ) :   1.1647 B( 37-N , 38-C ) :   1.0623
B( 37-N , 40-N ) :  -0.2028 B( 38-C , 39-N ) :   1.8231 B( 38-C , 43-H ) :   0.4440
B( 40-N , 41-H ) :   1.1101 B( 40-N , 42-H ) :   1.1479

MP2 TOTAL ENERGY:    -1381.574157997 Eh
FINAL SINGLE POINT ENERGY     -1381.574157996931

DIPOLE MOMENT
-------------
                                X             Y             Z
Electronic contribution:     19.48846       3.53804      -1.12901
Nuclear contribution   :    -22.83184      -5.71294       0.61991
                        -----------------------------------------
Total Dipole Moment    :     -3.34339      -2.17490      -0.50910
                        -----------------------------------------
Magnitude (a.u.)       :      4.02090
Magnitude (Debye)      :     10.22030

Rotational constants in cm-1:     0.016781     0.002023     0.001937
Rotational constants in MHz :   503.087552    60.644018    58.081711

                             ****ORCA TERMINATED NORMALLY****
TOTAL RUN TIME: 0 days 2 hours 27 minutes 30 seconds 144 msec
