                         Program Version 4.2.1 -  RELEASE  -
|  1> %pal
|  2>  nprocs 32
|  3> end
|  4> !RI-MP2 aug-cc-pVTZ aug-cc-pVTZ/C TightSCF
|  5> %maxcore 4500
|  6> *xyzfile 0 1  03_10R1.xyz
|  7>
|  8>
|  9>                          ****END OF INPUT****

CARTESIAN COORDINATES (ANGSTROEM)
---------------------------------
  C      0.272587    0.436301   -0.493132
  C      1.458203   -0.458749   -0.090540
  O      2.579185    0.223737    0.121540
  O      1.398465   -1.653247   -0.005949
  C     -1.086187   -0.087798    0.013207
  H      0.244913    0.397666   -1.586353
  N      0.573657    1.816886   -0.123441
  H      2.337353    1.170273    0.020348
  C     -1.140502   -0.258333    1.517490
  C     -1.553208   -1.318942   -0.731103
  H      0.283117    2.018736    0.827506
  H      0.082568    2.466194   -0.723983
  H     -0.839595    0.651775    2.040813
  H     -2.161601   -0.491533    1.819482
  H     -2.559536   -1.583063   -0.403091
  H     -0.877130   -2.150818   -0.542423
  H     -1.580214   -1.122824   -1.804496
  H     -0.488060   -1.075229    1.826172
  F     -1.998219    0.951314   -0.314462

 Total Charge           Charge          ....    0
 Multiplicity           Mult            ....    1
 Number of Electrons    NEL             ....   72
 Basis Dimension        Dim             ....  644

ORBITAL ENERGIES
----------------

  NO   OCC          E(Eh)            E(eV)
   0   2.0000     -26.281311      -715.1508
   1   2.0000     -20.603954      -560.6621
   2   2.0000     -20.544742      -559.0509
   3   2.0000     -15.586035      -424.1176
   4   2.0000     -11.385555      -309.8167
   5   2.0000     -11.335425      -308.4526
   6   2.0000     -11.300259      -307.4957
   7   2.0000     -11.235040      -305.7210
   8   2.0000     -11.224141      -305.4244
   9   2.0000      -1.590271       -43.2735
  10   2.0000      -1.465520       -39.8788
  11   2.0000      -1.368663       -37.2432
  12   2.0000      -1.231076       -33.4993
  13   2.0000      -1.092873       -29.7386
  14   2.0000      -0.975990       -26.5580
  15   2.0000      -0.959874       -26.1195
  16   2.0000      -0.837772       -22.7969
  17   2.0000      -0.809792       -22.0356
  18   2.0000      -0.750221       -20.4146
  19   2.0000      -0.721079       -19.6216
  20   2.0000      -0.692711       -18.8496
  21   2.0000      -0.678102       -18.4521
  22   2.0000      -0.663904       -18.0657
  23   2.0000      -0.649697       -17.6792
  24   2.0000      -0.639492       -17.4015
  25   2.0000      -0.610905       -16.6236
  26   2.0000      -0.585128       -15.9222
  27   2.0000      -0.577709       -15.7203
  28   2.0000      -0.561845       -15.2886
  29   2.0000      -0.551497       -15.0070
  30   2.0000      -0.541514       -14.7354
  31   2.0000      -0.517409       -14.0794
  32   2.0000      -0.496985       -13.5236
  33   2.0000      -0.476976       -12.9792
  34   2.0000      -0.464587       -12.6421
  35   2.0000      -0.428192       -11.6517
  36   0.0000       0.023086         0.6282
  37   0.0000       0.032593         0.8869
  38   0.0000       0.034303         0.9334
  39   0.0000       0.045992         1.2515
  40   0.0000       0.050228         1.3668

MULLIKEN ATOMIC CHARGES
-----------------------
   0 C :    0.455407
   1 C :    0.646847
   2 O :   -0.595068
   3 O :   -0.836651
   4 C :    1.474721
   5 H :    0.410150
   6 N :   -0.619947
   7 H :    0.231347
   8 C :   -1.086878
   9 C :   -1.159324
  10 H :    0.061840
  11 H :    0.052676
  12 H :    0.267410
  13 H :    0.269972
  14 H :    0.241881
  15 H :    0.356172
  16 H :    0.265128
  17 H :    0.329803
  18 F :   -0.765484
Sum of atomic charges:    0.0000000

LOEWDIN ATOMIC CHARGES
----------------------
   0 C :   -0.104965
   1 C :   -0.773455
   2 O :    0.854631
   3 O :    0.468458
   4 C :   -0.670865
   5 H :   -0.133375
   6 N :    0.870778
   7 H :   -0.586648
   8 C :    0.592223
   9 C :    0.587143
  10 H :   -0.302838
  11 H :   -0.284103
  12 H :   -0.167508
  13 H :   -0.155890
  14 H :   -0.158149
  15 H :   -0.193005
  16 H :   -0.158534
  17 H :   -0.163599
  18 F :    0.479703

  Mayer bond orders larger than 0.100000
B(  0-C ,  1-C ) :   0.6659 B(  0-C ,  2-O ) :   0.1184 B(  0-C ,  4-C ) :   0.9472
B(  0-C ,  5-H ) :   0.9131 B(  0-C ,  6-N ) :   0.3209 B(  0-C , 18-F ) :   0.2332
B(  1-C ,  2-O ) :   0.6649 B(  1-C ,  3-O ) :   1.3961 B(  1-C ,  4-C ) :   0.1459
B(  1-C ,  6-N ) :   0.1211 B(  2-O ,  7-H ) :   0.8721 B(  4-C ,  8-C ) :   0.6883
B(  4-C ,  9-C ) :   0.6987 B(  4-C , 18-F ) :  -0.2465 B(  6-N ,  7-H ) :   0.1383
B(  6-N , 10-H ) :   1.0222 B(  6-N , 11-H ) :   1.0663 B(  8-C ,  9-C ) :   0.1026
B(  8-C , 12-H ) :   0.9521 B(  8-C , 13-H ) :   1.0253 B(  8-C , 17-H ) :   0.9411
B(  8-C , 18-F ) :   0.1578 B(  9-C , 14-H ) :   1.0418 B(  9-C , 15-H ) :   0.9112
B(  9-C , 16-H ) :   1.0035 B(  9-C , 18-F ) :   0.1465

MP2 TOTAL ENERGY:     -500.809208217 Eh
FINAL SINGLE POINT ENERGY      -500.809208216616

DIPOLE MOMENT
-------------
                                X             Y             Z
Electronic contribution:      2.80521       1.77329      -1.78388
Nuclear contribution   :     -3.52086      -0.67061       1.78673
                        -----------------------------------------
Total Dipole Moment    :     -0.71565       1.10267       0.00285
                        -----------------------------------------
Magnitude (a.u.)       :      1.31455
Magnitude (Debye)      :      3.34133

Rotational constants in cm-1:     0.079063     0.043961     0.035032
Rotational constants in MHz :  2370.263848  1317.926385  1050.234658

                             ****ORCA TERMINATED NORMALLY****
TOTAL RUN TIME: 0 days 0 hours 4 minutes 31 seconds 783 msec
